<event>
 5    1  0.1724243E-003  0.9118800E+02  0.7818608E-02  0.1130116E+00
         25   -1    0    0    0    0  0.00000000000E+00  0.00000000000E+00  0.99999998245E-14  0.12500000000E+03  0.12500000000E+03 0.  0.
        -13    1    3    3    0    0 -0.33016066484E+02  0.15326973072E+02 -0.34713745006E+02  0.50299423516E+02  0.10566000000E+00 0.  1.
         23    2    1    0    0    0 -0.16595220888E+01  0.29494213577E+02 -0.66050900065E+01  0.94729719822E+02  0.89763188198E+02 0.  0.
         13    1    3    3    0    0  0.31356544396E+02  0.14167240504E+02  0.28108654999E+02  0.44430296306E+02  0.10566000000E+00 0. -1.
         22    1    1    0    0    0  0.16595220888E+01 -0.29494213577E+02  0.66050900065E+01  0.30270280178E+02  0.00000000000E+00 0.  1.
</event>
<event>
 5    1  0.1724243E-003  0.9118800E+02  0.7818608E-02  0.1130116E+00
         25   -1    0    0    0    0  0.00000000000E+00  0.00000000000E+00  0.99999998245E-14  0.12500000000E+03  0.12500000000E+03 0.  0.
        -13    1    3    3    0    0  0.41837221910E+02 -0.42685483462E+02 -0.15129681984E+02  0.61654862553E+02  0.10566000000E+00 0.  1.
         23    2    1    0    0    0  0.24781989141E+02 -0.26983122811E+02 -0.16373081919E+02  0.84871285668E+02  0.74785168429E+02 0.  0.
         13    1    3    3    0    0 -0.17055232769E+02  0.15702360651E+02 -0.12433999342E+01  0.23216423115E+02  0.10566000000E+00 0. -1.
         22    1    1    0    0    0 -0.24781989141E+02  0.26983122811E+02  0.16373081919E+02  0.40128714332E+02  0.00000000000E+00 0.  1.
</event>
<event>
 5    1  0.1724243E-003  0.9118800E+02  0.7818608E-02  0.1130116E+00
         25   -1    0    0    0    0  0.00000000000E+00  0.00000000000E+00  0.99999998245E-14  0.12500000000E+03  0.12500000000E+03 0.  0.
        -13    1    3    3    0    0 -0.25121425411E+02 -0.16373679621E+02  0.52256275192E+02  0.60248758162E+02  0.10566000000E+00 0.  1.
         23    2    1    0    0    0 -0.20626151889E+02 -0.12561365649E+01  0.19578703169E+02  0.96533499713E+02  0.92240852817E+02 0.  0.
         13    1    3    3    0    0  0.44952735224E+01  0.15117543056E+02 -0.32677572023E+02  0.36284741552E+02  0.10566000000E+00 0. -1.
         22    1    1    0    0    0  0.20626151889E+02  0.12561365649E+01 -0.19578703169E+02  0.28466500287E+02  0.00000000000E+00 0.  1.
</event>
<event>
 5    1  0.1724243E-003  0.9118800E+02  0.7818608E-02  0.1130116E+00
         25   -1    0    0    0    0  0.00000000000E+00  0.00000000000E+00  0.99999998245E-14  0.12500000000E+03  0.12500000000E+03 0.  0.
        -13    1    3    3    0    0 -0.12316492687E+02  0.10369734241E+01 -0.40835319798E+02  0.42665042048E+02  0.10566000000E+00 0. -1.
         23    2    1    0    0    0  0.14183221979E+02 -0.26330694626E+02 -0.55683733371E+01  0.94578362194E+02  0.89552166632E+02 0.  0.
         13    1    3    3    0    0  0.26499714666E+02 -0.27367668050E+02  0.35266946461E+02  0.51913320146E+02  0.10566000000E+00 0.  1.
         22    1    1    0    0    0 -0.14183221979E+02  0.26330694626E+02  0.55683733371E+01  0.30421637806E+02  0.00000000000E+00 0.  1.
</event>
<event>
 5    1  0.1724243E-003  0.9118800E+02  0.7818608E-02  0.1130116E+00
         25   -1    0    0    0    0  0.00000000000E+00  0.00000000000E+00  0.99999998245E-14  0.12500000000E+03  0.12500000000E+03 0.  0.
        -13    1    3    3    0    0  0.29421692878E+02  0.15448324836E+02 -0.19368447815E+02  0.38463420114E+02  0.10566000000E+00 0.  1.
         23    2    1    0    0    0 -0.12345823300E+02 -0.23272578366E+02 -0.12530885369E+02  0.95827147125E+02  0.91278621710E+02 0.  0.
         13    1    3    3    0    0 -0.41767516178E+02 -0.38720903201E+02  0.68375624461E+01  0.57363727011E+02  0.10566000000E+00 0. -1.
         22    1    1    0    0    0  0.12345823300E+02  0.23272578366E+02  0.12530885369E+02  0.29172852875E+02  0.00000000000E+00 0. -1.
</event>
<event>
 5    1  0.1724243E-003  0.9118800E+02  0.7818608E-02  0.1130116E+00
         25   -1    0    0    0    0  0.00000000000E+00  0.00000000000E+00  0.99999998245E-14  0.12500000000E+03  0.12500000000E+03 0.  0.
        -13    1    3    3    0    0 -0.85216044773E+01 -0.33454683582E+02  0.28506909807E+02  0.44771516249E+02  0.10566000000E+00 0.  1.
         23    2    1    0    0    0  0.26401702756E+02 -0.43202545079E+01  0.38421811986E+00  0.98244400007E+02  0.94530947322E+02 0.  0.
         13    1    3    3    0    0  0.34923307234E+02  0.29134429074E+02 -0.28122691688E+02  0.53472883758E+02  0.10566000000E+00 0. -1.
         22    1    1    0    0    0 -0.26401702756E+02  0.43202545079E+01 -0.38421811986E+00  0.26755599993E+02  0.00000000000E+00 0. -1.
</event>
<event>
 5    1  0.1724243E-003  0.9118800E+02  0.7818608E-02  0.1130116E+00
         25   -1    0    0    0    0  0.00000000000E+00  0.00000000000E+00  0.99999998245E-14  0.12500000000E+03  0.12500000000E+03 0.  0.
        -13    1    3    3    0    0  0.28852858107E+02 -0.15353751307E+02  0.15951855763E+02  0.36368914838E+02  0.10566000000E+00 0. -1.
         23    2    1    0    0    0 -0.15662373777E+01  0.28505647232E+01 -0.30234061532E+02  0.94591493041E+02  0.89570493246E+02 0.  0.
         13    1    3    3    0    0 -0.30419095485E+02  0.18204316030E+02 -0.46185917295E+02  0.58222578203E+02  0.10566000000E+00 0.  1.
         22    1    1    0    0    0  0.15662373777E+01 -0.28505647232E+01  0.30234061532E+02  0.30408506959E+02  0.00000000000E+00 0. -1.
</event>
<event>
 5    1  0.1724243E-003  0.9118800E+02  0.7818608E-02  0.1130116E+00
         25   -1    0    0    0    0  0.00000000000E+00  0.00000000000E+00  0.99999998245E-14  0.12500000000E+03  0.12500000000E+03 0.  0.
        -13    1    3    3    0    0  0.16920270672E+02 -0.48362339107E+02  0.27744177881E+02  0.58266302215E+02  0.10566000000E+00 0.  1.
         23    2    1    0    0    0 -0.76144956631E+01 -0.26582951785E+02  0.97823013111E+01  0.95668663707E+02  0.91061330579E+02 0.  0.
         13    1    3    3    0    0 -0.24534766335E+02  0.21779387322E+02 -0.17961876569E+02  0.37402361492E+02  0.10566000000E+00 0. -1.
         22    1    1    0    0    0  0.76144956631E+01  0.26582951785E+02 -0.97823013111E+01  0.29331336293E+02  0.00000000000E+00 0.  1.
</event>
<event>
 5    1  0.1724243E-003  0.9118800E+02  0.7818608E-02  0.1130116E+00
         25   -1    0    0    0    0  0.00000000000E+00  0.00000000000E+00  0.99999998245E-14  0.12500000000E+03  0.12500000000E+03 0.  0.
        -13    1    3    3    0    0 -0.49643425962E+02  0.25598982645E+02 -0.11772224098E+02  0.57082169527E+02  0.10566000000E+00 0. -1.
         23    2    1    0    0    0 -0.26015377225E+02 -0.57209605999E+01  0.10067876451E+01  0.98343990101E+02  0.94662545525E+02 0.  0.
         13    1    3    3    0    0  0.23628048736E+02 -0.31319943244E+02  0.12779011744E+02  0.41261820574E+02  0.10566000000E+00 0.  1.
         22    1    1    0    0    0  0.26015377225E+02  0.57209605999E+01 -0.10067876451E+01  0.26656009899E+02  0.00000000000E+00 0. -1.
</event>
<event>
 5    1  0.1724243E-003  0.9118800E+02  0.7818608E-02  0.1130116E+00
         25   -1    0    0    0    0  0.00000000000E+00  0.00000000000E+00  0.99999998245E-14  0.12500000000E+03  0.12500000000E+03 0.  0.
        -13    1    3    3    0    0 -0.18383384847E-01 -0.40644089638E+02  0.25190456605E+02  0.47817492913E+02  0.10566000000E+00 0.  1.
         23    2    1    0    0    0  0.12675067928E+02 -0.20105300239E+02 -0.16549992689E+02  0.96038254495E+02  0.91567262838E+02 0.  0.
         13    1    3    3    0    0  0.12693451313E+02  0.20538789399E+02 -0.41740449294E+02  0.48220761582E+02  0.10566000000E+00 0. -1.
         22    1    1    0    0    0 -0.12675067928E+02  0.20105300239E+02  0.16549992689E+02  0.28961745505E+02  0.00000000000E+00 0. -1.
</event>
<event>
 5    1  0.1724243E-003  0.9118800E+02  0.7818608E-02  0.1130116E+00
         25   -1    0    0    0    0  0.00000000000E+00  0.00000000000E+00  0.99999998245E-14  0.12500000000E+03  0.12500000000E+03 0.  0.
        -13    1    3    3    0    0 -0.43228624839E+02 -0.24164848590E+01  0.20189765688E+02  0.47772284926E+02  0.10566000000E+00 0.  1.
         23    2    1    0    0    0 -0.22628332405E+01  0.22911276347E+02  0.17627827525E+02  0.96003667450E+02  0.91520035306E+02 0.  0.
         13    1    3    3    0    0  0.40965791598E+02  0.25327761206E+02 -0.25619381629E+01  0.48231382524E+02  0.10566000000E+00 0. -1.
         22    1    1    0    0    0  0.22628332405E+01 -0.22911276347E+02 -0.17627827525E+02  0.28996332550E+02  0.00000000000E+00 0. -1.
</event>
<event>
 5    1  0.1724243E-003  0.9118800E+02  0.7818608E-02  0.1130116E+00
         25   -1    0    0    0    0  0.00000000000E+00  0.00000000000E+00  0.99999998245E-14  0.12500000000E+03  0.12500000000E+03 0.  0.
        -13    1    3    3    0    0  0.18879618743E+02 -0.90732717976E+01 -0.31000736821E+02  0.37414183306E+02  0.10566000000E+00 0. -1.
         23    2    1    0    0    0 -0.69121762965E+01 -0.16841580571E+02  0.21745344773E+02  0.96640221500E+02  0.92385363424E+02 0.  0.
         13    1    3    3    0    0 -0.25791795039E+02 -0.77683087738E+01  0.52746081594E+02  0.59226038194E+02  0.10566000000E+00 0.  1.
         22    1    1    0    0    0  0.69121762965E+01  0.16841580571E+02 -0.21745344773E+02  0.28359778500E+02  0.00000000000E+00 0.  1.
</event>
<event>
 5    1  0.1724243E-003  0.9118800E+02  0.7818608E-02  0.1130116E+00
         25   -1    0    0    0    0  0.00000000000E+00  0.00000000000E+00  0.99999998245E-14  0.12500000000E+03  0.12500000000E+03 0.  0.
        -13    1    3    3    0    0  0.28359535198E+02 -0.21598649276E+02  0.14970879156E+01  0.35679368317E+02  0.10566000000E+00 0.  1.
         23    2    1    0    0    0 -0.28649321273E+02 -0.26380303077E+01  0.47190467261E+01  0.95845031036E+02  0.91303109251E+02 0.  0.
         13    1    3    3    0    0 -0.57008856471E+02  0.18960618969E+02  0.32219588105E+01  0.60165662719E+02  0.10566000000E+00 0. -1.
         22    1    1    0    0    0  0.28649321273E+02  0.26380303077E+01 -0.47190467261E+01  0.29154968964E+02  0.00000000000E+00 0. -1.
</event>
<event>
 5    1  0.1724243E-003  0.9118800E+02  0.7818608E-02  0.1130116E+00
         25   -1    0    0    0    0  0.00000000000E+00  0.00000000000E+00  0.99999998245E-14  0.12500000000E+03  0.12500000000E+03 0.  0.
        -13    1    3    3    0    0 -0.27608372917E+02  0.15969008851E+02  0.33764012329E+02  0.46446218268E+02  0.10566000000E+00 0. -1.
         23    2    1    0    0    0 -0.32122254871E+01  0.32398724986E+02 -0.15508242047E+01  0.92405509223E+02  0.86466047127E+02 0.  0.
         13    1    3    3    0    0  0.24396147430E+02  0.16429716135E+02 -0.35314836534E+02  0.45959290955E+02  0.10566000000E+00 0.  1.
         22    1    1    0    0    0  0.32122254871E+01 -0.32398724986E+02  0.15508242047E+01  0.32594490777E+02  0.00000000000E+00 0. -1.
</event>
<event>
 5    1  0.1724243E-003  0.9118800E+02  0.7818608E-02  0.1130116E+00
         25   -1    0    0    0    0  0.00000000000E+00  0.00000000000E+00  0.99999998245E-14  0.12500000000E+03  0.12500000000E+03 0.  0.
        -13    1    3    3    0    0  0.35479995845E+02  0.33557796145E+02 -0.35842153295E+02  0.60577445506E+02  0.10566000000E+00 0. -1.
         23    2    1    0    0    0  0.24756853364E+02  0.13168866687E+02 -0.99230161138E+01  0.95254629148E+02  0.90491200053E+02 0.  0.
         13    1    3    3    0    0 -0.10723142480E+02 -0.20388929457E+02  0.25919137181E+02  0.34677183642E+02  0.10566000000E+00 0.  1.
         22    1    1    0    0    0 -0.24756853364E+02 -0.13168866687E+02  0.99230161138E+01  0.29745370852E+02  0.00000000000E+00 0. -1.
</event>
<event>
 5    1  0.1724243E-003  0.9118800E+02  0.7818608E-02  0.1130116E+00
         25   -1    0    0    0    0  0.00000000000E+00  0.00000000000E+00  0.99999998245E-14  0.12500000000E+03  0.12500000000E+03 0.  0.
        -13    1    3    3    0    0 -0.31029318417E+02  0.86387297834E+01 -0.43975148233E+01  0.32508392060E+02  0.10566000000E+00 0. -1.
         23    2    1    0    0    0  0.30468564661E+02  0.25748383185E+01 -0.70823120536E+00  0.94414630682E+02  0.89323332174E+02 0.  0.
         13    1    3    3    0    0  0.61497883077E+02 -0.60638914649E+01  0.36892836180E+01  0.61906238622E+02  0.10566000000E+00 0.  1.
         22    1    1    0    0    0 -0.30468564661E+02 -0.25748383185E+01  0.70823120536E+00  0.30585369318E+02  0.00000000000E+00 0.  1.
</event>
<event>
 5    1  0.1724243E-003  0.9118800E+02  0.7818608E-02  0.1130116E+00
         25   -1    0    0    0    0  0.00000000000E+00  0.00000000000E+00  0.99999998245E-14  0.12500000000E+03  0.12500000000E+03 0.  0.
        -13    1    3    3    0    0  0.10116850904E+02  0.19534079962E+02  0.11662454026E+02  0.24898894557E+02  0.10566000000E+00 0.  1.
         23    2    1    0    0    0  0.14849261698E+02 -0.38319082481E+02  0.11591354020E+01  0.83888003575E+02  0.73123189849E+02 0.  0.
         13    1    3    3    0    0  0.47324107945E+01 -0.57853162443E+02 -0.10503318624E+02  0.58989109018E+02  0.10566000000E+00 0. -1.
         22    1    1    0    0    0 -0.14849261698E+02  0.38319082481E+02 -0.11591354020E+01  0.41111996425E+02  0.00000000000E+00 0. -1.
</event>
<event>
 5    1  0.1724243E-003  0.9118800E+02  0.7818608E-02  0.1130116E+00
         25   -1    0    0    0    0  0.00000000000E+00  0.00000000000E+00  0.99999998245E-14  0.12500000000E+03  0.12500000000E+03 0.  0.
        -13    1    3    3    0    0 -0.18293812584E+02  0.22680644810E+01  0.38457944191E+02  0.42647770525E+02  0.10566000000E+00 0. -1.
         23    2    1    0    0    0 -0.22639391750E+02 -0.12298863336E+02 -0.12884552915E+02  0.96193476398E+02  0.91778914243E+02 0.  0.
         13    1    3    3    0    0 -0.43455791665E+01 -0.14566927817E+02 -0.51342497106E+02  0.53545705873E+02  0.10566000000E+00 0.  1.
         22    1    1    0    0    0  0.22639391750E+02  0.12298863336E+02  0.12884552915E+02  0.28806523602E+02  0.00000000000E+00 0.  1.
</event>
<event>
 5    1  0.1724243E-003  0.9118800E+02  0.7818608E-02  0.1130116E+00
         25   -1    0    0    0    0  0.00000000000E+00  0.00000000000E+00  0.99999998245E-14  0.12500000000E+03  0.12500000000E+03 0.  0.
        -13    1    3    3    0    0  0.23858580016E+02 -0.24574204075E+02  0.28751820632E+02  0.44719142434E+02  0.10566000000E+00 0. -1.
         23    2    1    0    0    0 -0.10259541034E+02 -0.30393762375E+02 -0.43699824584E+01  0.92625075749E+02  0.86782883896E+02 0.  0.
         13    1    3    3    0    0 -0.34118121051E+02 -0.58195582997E+01 -0.33121803091E+02  0.47905933316E+02  0.10566000000E+00 0.  1.
         22    1    1    0    0    0  0.10259541034E+02  0.30393762375E+02  0.43699824584E+01  0.32374924251E+02  0.00000000000E+00 0.  1.
</event>
<event>
 5    1  0.1724243E-003  0.9118800E+02  0.7818608E-02  0.1130116E+00
         25   -1    0    0    0    0  0.00000000000E+00  0.00000000000E+00  0.99999998245E-14  0.12500000000E+03  0.12500000000E+03 0.  0.
        -13    1    3    3    0    0 -0.74373277470E+01 -0.28058091801E+02 -0.20886211529E+02  0.35760527899E+02  0.10566000000E+00 0.  1.
         23    2    1    0    0    0 -0.26330903737E+02  0.91972029142E+01  0.17152178264E+02  0.92257027437E+02  0.86251126713E+02 0.  0.
         13    1    3    3    0    0 -0.18893575990E+02  0.37255294715E+02  0.38038389793E+02  0.56496499538E+02  0.10566000000E+00 0. -1.
         22    1    1    0    0    0  0.26330903737E+02 -0.91972029142E+01 -0.17152178264E+02  0.32742972563E+02  0.00000000000E+00 0. -1.
</event>
<event>
 5    1  0.1724243E-003  0.9118800E+02  0.7818608E-02  0.1130116E+00
         25   -1    0    0    0    0  0.00000000000E+00  0.00000000000E+00  0.99999998245E-14  0.12500000000E+03  0.12500000000E+03 0.  0.
        -13    1    3    3    0    0 -0.37103006261E+02  0.18323570482E+02  0.14523826194E+02  0.43855889002E+02  0.10566000000E+00 0.  1.
         23    2    1    0    0    0 -0.11373640955E+01  0.18276947043E+02 -0.22845416593E+02  0.95721109147E+02  0.91133294062E+02 0.  0.
         13    1    3    3    0    0  0.35965642166E+02 -0.46623438544E-01 -0.37369242786E+02  0.51865220144E+02  0.10566000000E+00 0. -1.
         22    1    1    0    0    0  0.11373640955E+01 -0.18276947043E+02  0.22845416593E+02  0.29278890853E+02  0.00000000000E+00 0. -1.
</event>
<event>
 5    1  0.1724243E-003  0.9118800E+02  0.7818608E-02  0.1130116E+00
         25   -1    0    0    0    0  0.00000000000E+00  0.00000000000E+00  0.99999998245E-14  0.12500000000E+03  0.12500000000E+03 0.  0.
        -13    1    3    3    0    0  0.21574464828E+02 -0.17895717033E+02 -0.25174162090E+02  0.37675772344E+02  0.10566000000E+00 0. -1.
         23    2    1    0    0    0  0.21963562762E+02  0.90402645923E+01  0.22402889581E+02  0.92350131169E+02  0.86385952517E+02 0.  0.
         13    1    3    3    0    0  0.38909793354E+00  0.26935981625E+02  0.47577051670E+02  0.54674358825E+02  0.10566000000E+00 0.  1.
         22    1    1    0    0    0 -0.21963562762E+02 -0.90402645923E+01 -0.22402889581E+02  0.32649868831E+02  0.00000000000E+00 0.  1.
</event>
<event>
 5    1  0.1724243E-003  0.9118800E+02  0.7818608E-02  0.1130116E+00
         25   -1    0    0    0    0  0.00000000000E+00  0.00000000000E+00  0.99999998245E-14  0.12500000000E+03  0.12500000000E+03 0.  0.
        -13    1    3    3    0    0 -0.39444927163E+02  0.21671939125E+02  0.29143076735E+02  0.53618143477E+02  0.10566000000E+00 0. -1.
         23    2    1    0    0    0  0.20234243850E+01  0.20060689470E+02  0.20959123674E+02  0.95917180786E+02  0.91401833661E+02 0.  0.
         13    1    3    3    0    0  0.41468351548E+02 -0.16112496547E+01 -0.81839530611E+01  0.42299037309E+02  0.10566000000E+00 0.  1.
         22    1    1    0    0    0 -0.20234243850E+01 -0.20060689470E+02 -0.20959123674E+02  0.29082819214E+02  0.00000000000E+00 0. -1.
</event>
<event>
 5    1  0.1724243E-003  0.9118800E+02  0.7818608E-02  0.1130116E+00
         25   -1    0    0    0    0  0.00000000000E+00  0.00000000000E+00  0.99999998245E-14  0.12500000000E+03  0.12500000000E+03 0.  0.
        -13    1    3    3    0    0 -0.20214313121E+02  0.35391336127E+02  0.41747231799E+02  0.58343874184E+02  0.10566000000E+00 0. -1.
         23    2    1    0    0    0 -0.18336139339E+02  0.35664828325E+01  0.23154981650E+02  0.95249588560E+02  0.90484236970E+02 0.  0.
         13    1    3    3    0    0  0.18781737826E+01 -0.31824853295E+02 -0.18592250149E+02  0.36905714377E+02  0.10566000000E+00 0.  1.
         22    1    1    0    0    0  0.18336139339E+02 -0.35664828325E+01 -0.23154981650E+02  0.29750411440E+02  0.00000000000E+00 0. -1.
</event>
<event>
 5    1  0.1724243E-003  0.9118800E+02  0.7818608E-02  0.1130116E+00
         25   -1    0    0    0    0  0.00000000000E+00  0.00000000000E+00  0.99999998245E-14  0.12500000000E+03  0.12500000000E+03 0.  0.
        -13    1    3    3    0    0  0.19151862538E+02  0.18797426606E+02 -0.22482206430E+02  0.35008539754E+02  0.10566000000E+00 0. -1.
         23    2    1    0    0    0  0.16591944205E+02 -0.24551544200E+02  0.14466276745E+02  0.92025098969E+02  0.85914345382E+02 0.  0.
         13    1    3    3    0    0 -0.25599183334E+01 -0.43348970806E+02  0.36948483175E+02  0.57016559216E+02  0.10566000000E+00 0.  1.
         22    1    1    0    0    0 -0.16591944205E+02  0.24551544200E+02 -0.14466276745E+02  0.32974901031E+02  0.00000000000E+00 0.  1.
</event>
<event>
 5    1  0.1724243E-003  0.9118800E+02  0.7818608E-02  0.1130116E+00
         25   -1    0    0    0    0  0.00000000000E+00  0.00000000000E+00  0.99999998245E-14  0.12500000000E+03  0.12500000000E+03 0.  0.
        -13    1    3    3    0    0  0.11917613910E+02  0.33774894102E+02  0.25491450667E+02  0.43961326346E+02  0.10566000000E+00 0. -1.
         23    2    1    0    0    0 -0.27991194098E+02  0.94626061854E+01  0.48133901903E+01  0.95063123276E+02  0.90226275658E+02 0.  0.
         13    1    3    3    0    0 -0.39908808008E+02 -0.24312287917E+02 -0.20678060477E+02  0.51101796930E+02  0.10566000000E+00 0.  1.
         22    1    1    0    0    0  0.27991194098E+02 -0.94626061854E+01 -0.48133901903E+01  0.29936876724E+02  0.00000000000E+00 0.  1.
</event>
<event>
 5    1  0.1724243E-003  0.9118800E+02  0.7818608E-02  0.1130116E+00
         25   -1    0    0    0    0  0.00000000000E+00  0.00000000000E+00  0.99999998245E-14  0.12500000000E+03  0.12500000000E+03 0.  0.
        -13    1    3    3    0    0  0.22286353777E+02 -0.22100976721E+02  0.24694577541E+02  0.39937051226E+02  0.10566000000E+00 0.  1.
         23    2    1    0    0    0  0.30034669691E+01 -0.11709543447E+02 -0.26637675332E+02  0.95747650203E+02  0.91169690965E+02 0.  0.
         13    1    3    3    0    0 -0.19282886808E+02  0.10391433274E+02 -0.51332252873E+02  0.55810598977E+02  0.10566000000E+00 0. -1.
         22    1    1    0    0    0 -0.30034669691E+01  0.11709543447E+02  0.26637675332E+02  0.29252349797E+02  0.00000000000E+00 0. -1.
</event>
<event>
 5    1  0.1724243E-003  0.9118800E+02  0.7818608E-02  0.1130116E+00
         25   -1    0    0    0    0  0.00000000000E+00  0.00000000000E+00  0.99999998245E-14  0.12500000000E+03  0.12500000000E+03 0.  0.
        -13    1    3    3    0    0 -0.54763096151E+01 -0.21066414134E+02  0.13974409857E+02  0.25866562708E+02  0.10566000000E+00 0.  1.
         23    2    1    0    0    0 -0.36528729439E+02 -0.53817344588E+01 -0.26733703449E+02  0.79414892340E+02  0.65028632810E+02 0.  0.
         13    1    3    3    0    0 -0.31052419824E+02  0.15684679675E+02 -0.40708113306E+02  0.53548329632E+02  0.10566000000E+00 0. -1.
         22    1    1    0    0    0  0.36528729439E+02  0.53817344588E+01  0.26733703449E+02  0.45585107660E+02  0.00000000000E+00 0. -1.
</event>
<event>
 5    1  0.1724243E-003  0.9118800E+02  0.7818608E-02  0.1130116E+00
         25   -1    0    0    0    0  0.00000000000E+00  0.00000000000E+00  0.99999998245E-14  0.12500000000E+03  0.12500000000E+03 0.  0.
        -13    1    3    3    0    0  0.36170680320E+02 -0.35130126704E+02  0.25517559495E+02  0.56511953812E+02  0.10566000000E+00 0.  1.
         23    2    1    0    0    0  0.46900138994E+00 -0.26220987320E+02  0.15026380713E+02  0.94774973025E+02  0.89826183578E+02 0.  0.
         13    1    3    3    0    0 -0.35701678930E+02  0.89091393844E+01 -0.10491178782E+02  0.38263019212E+02  0.10566000000E+00 0. -1.
         22    1    1    0    0    0 -0.46900138994E+00  0.26220987320E+02 -0.15026380713E+02  0.30225026975E+02  0.00000000000E+00 0.  1.
</event>
<event>
 5    1  0.1724243E-003  0.9118800E+02  0.7818608E-02  0.1130116E+00
         25   -1    0    0    0    0  0.00000000000E+00  0.00000000000E+00  0.99999998245E-14  0.12500000000E+03  0.12500000000E+03 0.  0.
        -13    1    3    3    0    0  0.11123056511E+02 -0.15618979101E+02  0.26583499851E+02  0.32777561268E+02  0.10566000000E+00 0.  1.
         23    2    1    0    0    0 -0.12026941129E+02  0.27296615828E+02 -0.97842137097E+01  0.93607590304E+02  0.88186719952E+02 0.  0.
         13    1    3    3    0    0 -0.23149997640E+02  0.42915594930E+02 -0.36367713560E+02  0.60830029036E+02  0.10566000000E+00 0. -1.
         22    1    1    0    0    0  0.12026941129E+02 -0.27296615828E+02  0.97842137097E+01  0.31392409696E+02  0.00000000000E+00 0. -1.
</event>
<event>
 5    1  0.1724243E-003  0.9118800E+02  0.7818608E-02  0.1130116E+00
         25   -1    0    0    0    0  0.00000000000E+00  0.00000000000E+00  0.99999998245E-14  0.12500000000E+03  0.12500000000E+03 0.  0.
        -13    1    3    3    0    0 -0.52930882184E+02 -0.12167643072E+02  0.94851553667E+01  0.55133557504E+02  0.10566000000E+00 0. -1.
         23    2    1    0    0    0 -0.19354188978E+02 -0.15418327886E+02 -0.14309996536E+02  0.96415293133E+02  0.92080526081E+02 0.  0.
         13    1    3    3    0    0  0.33576693206E+02 -0.32506848143E+01 -0.23795151903E+02  0.41281735629E+02  0.10566000000E+00 0.  1.
         22    1    1    0    0    0  0.19354188978E+02  0.15418327886E+02  0.14309996536E+02  0.28584706867E+02  0.00000000000E+00 0. -1.
</event>
<event>
 5    1  0.1724243E-003  0.9118800E+02  0.7818608E-02  0.1130116E+00
         25   -1    0    0    0    0  0.00000000000E+00  0.00000000000E+00  0.99999998245E-14  0.12500000000E+03  0.12500000000E+03 0.  0.
        -13    1    3    3    0    0 -0.14453090190E+02 -0.33634959984E+02 -0.34783580273E+02  0.50498623444E+02  0.10566000000E+00 0.  1.
         23    2    1    0    0    0 -0.14406668054E+02 -0.22498333895E+02  0.98694455178E+01  0.96519602052E+02  0.92222017506E+02 0.  0.
         13    1    3    3    0    0  0.46422136080E-01  0.11136626089E+02  0.44653025791E+02  0.46020978607E+02  0.10566000000E+00 0. -1.
         22    1    1    0    0    0  0.14406668054E+02  0.22498333895E+02 -0.98694455178E+01  0.28480397948E+02  0.00000000000E+00 0.  1.
</event>
<event>
 5    1  0.1724243E-003  0.9118800E+02  0.7818608E-02  0.1130116E+00
         25   -1    0    0    0    0  0.00000000000E+00  0.00000000000E+00  0.99999998245E-14  0.12500000000E+03  0.12500000000E+03 0.  0.
        -13    1    3    3    0    0  0.14442495988E+02  0.19463579905E+02 -0.46073905986E+02  0.52059894448E+02  0.10566000000E+00 0. -1.
         23    2    1    0    0    0 -0.89313492265E+01  0.28475307296E+02 -0.16213193490E+02  0.91037082462E+02  0.84464611616E+02 0.  0.
         13    1    3    3    0    0 -0.23373845214E+02  0.90117273905E+01  0.29860712496E+02  0.38977188014E+02  0.10566000000E+00 0.  1.
         22    1    1    0    0    0  0.89313492265E+01 -0.28475307296E+02  0.16213193490E+02  0.33962917538E+02  0.00000000000E+00 0. -1.
</event>
<event>
 5    1  0.1724243E-003  0.9118800E+02  0.7818608E-02  0.1130116E+00
         25   -1    0    0    0    0  0.00000000000E+00  0.00000000000E+00  0.99999998245E-14  0.12500000000E+03  0.12500000000E+03 0.  0.
        -13    1    3    3    0    0  0.33990824606E+02  0.40382002618E+02 -0.28248231666E+02  0.59866986304E+02  0.10566000000E+00 0. -1.
         23    2    1    0    0    0  0.25873571380E+02  0.11298655497E+02 -0.10590669766E+02  0.94846001955E+02  0.89924971441E+02 0.  0.
         13    1    3    3    0    0 -0.81172532259E+01 -0.29083347120E+02  0.17657561900E+02  0.34979015651E+02  0.10566000000E+00 0.  1.
         22    1    1    0    0    0 -0.25873571380E+02 -0.11298655497E+02  0.10590669766E+02  0.30153998045E+02  0.00000000000E+00 0. -1.
</event>
<event>
 5    1  0.1724243E-003  0.9118800E+02  0.7818608E-02  0.1130116E+00
         25   -1    0    0    0    0  0.00000000000E+00  0.00000000000E+00  0.99999998245E-14  0.12500000000E+03  0.12500000000E+03 0.  0.
        -13    1    3    3    0    0 -0.18675142530E+02 -0.17572724543E+02 -0.36718799349E+02  0.44786638477E+02  0.10566000000E+00 0. -1.
         23    2    1    0    0    0  0.13059540853E+02  0.18653809094E+02 -0.79750001765E+01  0.10087290260E+03  0.97945013404E+02 0.  0.
         13    1    3    3    0    0  0.31734683383E+02  0.36226533636E+02  0.28743799172E+02  0.56086264126E+02  0.10566000000E+00 0.  1.
         22    1    1    0    0    0 -0.13059540853E+02 -0.18653809094E+02  0.79750001765E+01  0.24127097397E+02  0.00000000000E+00 0.  1.
</event>
<event>
 5    1  0.1724243E-003  0.9118800E+02  0.7818608E-02  0.1130116E+00
         25   -1    0    0    0    0  0.00000000000E+00  0.00000000000E+00  0.99999998245E-14  0.12500000000E+03  0.12500000000E+03 0.  0.
        -13    1    3    3    0    0 -0.22218513867E+02 -0.26755945784E+02 -0.20521240607E+02  0.40381622966E+02  0.10566000000E+00 0.  1.
         23    2    1    0    0    0 -0.10121181471E+02  0.25990475241E+02 -0.88068442564E+01  0.95751006455E+02  0.91174292505E+02 0.  0.
         13    1    3    3    0    0  0.12097332396E+02  0.52746421026E+02  0.11714396350E+02  0.55369383489E+02  0.10566000000E+00 0. -1.
         22    1    1    0    0    0  0.10121181471E+02 -0.25990475241E+02  0.88068442564E+01  0.29248993545E+02  0.00000000000E+00 0. -1.
</event>
<event>
 5    1  0.1724243E-003  0.9118800E+02  0.7818608E-02  0.1130116E+00
         25   -1    0    0    0    0  0.00000000000E+00  0.00000000000E+00  0.99999998245E-14  0.12500000000E+03  0.12500000000E+03 0.  0.
        -13    1    3    3    0    0  0.28530202993E+02 -0.16062044089E+02 -0.92001226033E+01  0.34009045313E+02  0.10566000000E+00 0. -1.
         23    2    1    0    0    0 -0.16544923896E+02  0.24688039959E+02 -0.17417069001E+01  0.95229757027E+02  0.90456836429E+02 0.  0.
         13    1    3    3    0    0 -0.45075126889E+02  0.40750084048E+02  0.74584157032E+01  0.61220711714E+02  0.10566000000E+00 0.  1.
         22    1    1    0    0    0  0.16544923896E+02 -0.24688039959E+02  0.17417069001E+01  0.29770242973E+02  0.00000000000E+00 0.  1.
</event>
<event>
 5    1  0.1724243E-003  0.9118800E+02  0.7818608E-02  0.1130116E+00
         25   -1    0    0    0    0  0.00000000000E+00  0.00000000000E+00  0.99999998245E-14  0.12500000000E+03  0.12500000000E+03 0.  0.
        -13    1    3    3    0    0 -0.11455470860E+02 -0.74800906841E+01  0.35842729448E+02  0.38365244527E+02  0.10566000000E+00 0.  1.
         23    2    1    0    0    0 -0.13156659424E+02  0.21213309117E+02 -0.14351054473E+02  0.96206685926E+02  0.91796903441E+02 0.  0.
         13    1    3    3    0    0 -0.17011885639E+01  0.28693399801E+02 -0.50193783921E+02  0.57841441398E+02  0.10566000000E+00 0. -1.
         22    1    1    0    0    0  0.13156659424E+02 -0.21213309117E+02  0.14351054473E+02  0.28793314074E+02  0.00000000000E+00 0. -1.
</event>
<event>
 5    1  0.1724243E-003  0.9118800E+02  0.7818608E-02  0.1130116E+00
         25   -1    0    0    0    0  0.00000000000E+00  0.00000000000E+00  0.99999998245E-14  0.12500000000E+03  0.12500000000E+03 0.  0.
        -13    1    3    3    0    0  0.31947291830E+02  0.12240117258E+02 -0.95465928239E+00  0.34225319051E+02  0.10566000000E+00 0. -1.
         23    2    1    0    0    0 -0.18530529894E+02 -0.20178052818E+02 -0.11768275726E+02  0.95183449777E+02  0.90392822969E+02 0.  0.
         13    1    3    3    0    0 -0.50477821723E+02 -0.32418170076E+02 -0.10813616443E+02  0.60958130726E+02  0.10566000000E+00 0.  1.
         22    1    1    0    0    0  0.18530529894E+02  0.20178052818E+02  0.11768275726E+02  0.29816550223E+02  0.00000000000E+00 0.  1.
</event>
<event>
 5    1  0.1724243E-003  0.9118800E+02  0.7818608E-02  0.1130116E+00
         25   -1    0    0    0    0  0.00000000000E+00  0.00000000000E+00  0.99999998245E-14  0.12500000000E+03  0.12500000000E+03 0.  0.
        -13    1    3    3    0    0  0.23037830901E+02  0.29318988594E+02 -0.99842152968E+01  0.38601042264E+02  0.10566000000E+00 0.  1.
         23    2    1    0    0    0 -0.17871082482E+02  0.60532827647E+01  0.22387499124E+02  0.95721715584E+02  0.91134125858E+02 0.  0.
         13    1    3    3    0    0 -0.40908913383E+02 -0.23265705829E+02  0.32371714421E+02  0.57120673320E+02  0.10566000000E+00 0. -1.
         22    1    1    0    0    0  0.17871082482E+02 -0.60532827647E+01 -0.22387499124E+02  0.29278284416E+02  0.00000000000E+00 0. -1.
</event>
<event>
 5    1  0.1724243E-003  0.9118800E+02  0.7818608E-02  0.1130116E+00
         25   -1    0    0    0    0  0.00000000000E+00  0.00000000000E+00  0.99999998245E-14  0.12500000000E+03  0.12500000000E+03 0.  0.
        -13    1    3    3    0    0  0.47378067316E+02  0.29828894040E+01 -0.10980494882E+02  0.48725366327E+02  0.10566000000E+00 0.  1.
         23    2    1    0    0    0  0.34065774607E+01  0.57524945883E+01 -0.28191628790E+02  0.96026496625E+02  0.91551210567E+02 0.  0.
         13    1    3    3    0    0 -0.43971489856E+02  0.27696051843E+01 -0.17211133909E+02  0.47301130298E+02  0.10566000000E+00 0. -1.
         22    1    1    0    0    0 -0.34065774607E+01 -0.57524945883E+01  0.28191628790E+02  0.28973503375E+02  0.00000000000E+00 0.  1.
</event>
<event>
 5    1  0.1724243E-003  0.9118800E+02  0.7818608E-02  0.1130116E+00
         25   -1    0    0    0    0  0.00000000000E+00  0.00000000000E+00  0.99999998245E-14  0.12500000000E+03  0.12500000000E+03 0.  0.
        -13    1    3    3    0    0  0.83242244038E+01  0.31735915382E+01  0.36520538145E+02  0.37591558436E+02  0.10566000000E+00 0. -1.
         23    2    1    0    0    0 -0.23479253716E+02 -0.16153513391E+02 -0.77880473233E+01  0.95455710686E+02  0.90768538997E+02 0.  0.
         13    1    3    3    0    0 -0.31803478120E+02 -0.19327104929E+02 -0.44308585468E+02  0.57864152251E+02  0.10566000000E+00 0.  1.
         22    1    1    0    0    0  0.23479253716E+02  0.16153513391E+02  0.77880473233E+01  0.29544289314E+02  0.00000000000E+00 0.  1.
</event>
<event>
 5    1  0.1724243E-003  0.9118800E+02  0.7818608E-02  0.1130116E+00
         25   -1    0    0    0    0  0.00000000000E+00  0.00000000000E+00  0.99999998245E-14  0.12500000000E+03  0.12500000000E+03 0.  0.
        -13    1    3    3    0    0  0.44183423396E+02  0.21229332091E+02 -0.15712851827E+02  0.51475861534E+02  0.10566000000E+00 0. -1.
         23    2    1    0    0    0  0.83955530102E-01  0.23600396957E+02 -0.17411413555E+02  0.95671803550E+02  0.91065640542E+02 0.  0.
         13    1    3    3    0    0 -0.44099467866E+02  0.23710648654E+01 -0.16985617278E+01  0.44195942016E+02  0.10566000000E+00 0.  1.
         22    1    1    0    0    0 -0.83955530102E-01 -0.23600396957E+02  0.17411413555E+02  0.29328196450E+02  0.00000000000E+00 0. -1.
</event>
<event>
 5    1  0.1724243E-003  0.9118800E+02  0.7818608E-02  0.1130116E+00
         25   -1    0    0    0    0  0.00000000000E+00  0.00000000000E+00  0.99999998245E-14  0.12500000000E+03  0.12500000000E+03 0.  0.
        -13    1    3    3    0    0 -0.49553856570E+02  0.43580096388E+01  0.23563107088E+02  0.55043692906E+02  0.10566000000E+00 0.  1.
         23    2    1    0    0    0 -0.19210808229E+02  0.20127489975E+02 -0.10170399761E+01  0.97157489771E+02  0.93082610851E+02 0.  0.
         13    1    3    3    0    0  0.30343048341E+02  0.15769480336E+02 -0.24580147064E+02  0.42113796866E+02  0.10566000000E+00 0. -1.
         22    1    1    0    0    0  0.19210808229E+02 -0.20127489975E+02  0.10170399761E+01  0.27842510229E+02  0.00000000000E+00 0.  1.
</event>
<event>
 5    1  0.1724243E-003  0.9118800E+02  0.7818608E-02  0.1130116E+00
         25   -1    0    0    0    0  0.00000000000E+00  0.00000000000E+00  0.99999998245E-14  0.12500000000E+03  0.12500000000E+03 0.  0.
        -13    1    3    3    0    0  0.12501712733E+02  0.95057035128E+01  0.42778861769E+02  0.45570751572E+02  0.10566000000E+00 0. -1.
         23    2    1    0    0    0 -0.19398977225E+01  0.23534742958E+02 -0.78970800282E+01  0.10009997586E+03  0.96953566023E+02 0.  0.
         13    1    3    3    0    0 -0.14441610456E+02  0.14029039445E+02 -0.50675941797E+02  0.54529224287E+02  0.10566000000E+00 0.  1.
         22    1    1    0    0    0  0.19398977225E+01 -0.23534742958E+02  0.78970800282E+01  0.24900024141E+02  0.00000000000E+00 0.  1.
</event>
<event>
 5    1  0.1724243E-003  0.9118800E+02  0.7818608E-02  0.1130116E+00
         25   -1    0    0    0    0  0.00000000000E+00  0.00000000000E+00  0.99999998245E-14  0.12500000000E+03  0.12500000000E+03 0.  0.
        -13    1    3    3    0    0 -0.25730528581E+02 -0.18436416975E+02 -0.10402495054E+02  0.33319433359E+02  0.10566000000E+00 0. -1.
         23    2    1    0    0    0  0.26550495099E+02  0.10699541647E+02 -0.13706818299E+02  0.93262233076E+02  0.87695828117E+02 0.  0.
         13    1    3    3    0    0  0.52281023680E+02  0.29135958622E+02 -0.33043232448E+01  0.59942799718E+02  0.10566000000E+00 0.  1.
         22    1    1    0    0    0 -0.26550495099E+02 -0.10699541647E+02  0.13706818299E+02  0.31737766924E+02  0.00000000000E+00 0.  1.
</event>
<event>
 5    1  0.1724243E-003  0.9118800E+02  0.7818608E-02  0.1130116E+00
         25   -1    0    0    0    0  0.00000000000E+00  0.00000000000E+00  0.99999998245E-14  0.12500000000E+03  0.12500000000E+03 0.  0.
        -13    1    3    3    0    0  0.38921926046E+02  0.28893214261E+02  0.25549272596E+02  0.54795169967E+02  0.10566000000E+00 0.  1.
         23    2    1    0    0    0  0.17555990754E+02  0.22590193833E+02 -0.82041891440E+01  0.95236962717E+02  0.90466793241E+02 0.  0.
         13    1    3    3    0    0 -0.21365935292E+02 -0.63030204275E+01 -0.33753461740E+02  0.40441792751E+02  0.10566000000E+00 0. -1.
         22    1    1    0    0    0 -0.17555990754E+02 -0.22590193833E+02  0.82041891440E+01  0.29763037283E+02  0.00000000000E+00 0.  1.
</event>
<event>
 5    1  0.1724243E-003  0.9118800E+02  0.7818608E-02  0.1130116E+00
         25   -1    0    0    0    0  0.00000000000E+00  0.00000000000E+00  0.99999998245E-14  0.12500000000E+03  0.12500000000E+03 0.  0.
        -13    1    3    3    0    0  0.22570896112E+02  0.16166841270E+00  0.25402760184E+02  0.33982096418E+02  0.10566000000E+00 0.  1.
         23    2    1    0    0    0  0.10712491700E+02  0.16695673149E+02 -0.27745801329E+02  0.90892339985E+02  0.84250133508E+02 0.  0.
         13    1    3    3    0    0 -0.11858404412E+02  0.16534004737E+02 -0.53148561513E+02  0.56910243566E+02  0.10566000000E+00 0. -1.
         22    1    1    0    0    0 -0.10712491700E+02 -0.16695673149E+02  0.27745801329E+02  0.34107660015E+02  0.00000000000E+00 0. -1.
</event>
<event>
 5    1  0.1724243E-003  0.9118800E+02  0.7818608E-02  0.1130116E+00
         25   -1    0    0    0    0  0.00000000000E+00  0.00000000000E+00  0.99999998245E-14  0.12500000000E+03  0.12500000000E+03 0.  0.
        -13    1    3    3    0    0  0.23922505364E+01  0.35874102925E+02 -0.27176654345E+01  0.36056497233E+02  0.10566000000E+00 0.  1.
         23    2    1    0    0    0  0.26147482412E+02 -0.16347117910E+02  0.43384747132E+01  0.93859327828E+02  0.88542825554E+02 0.  0.
         13    1    3    3    0    0  0.23755231876E+02 -0.52221220835E+02  0.70561401478E+01  0.57802830595E+02  0.10566000000E+00 0. -1.
         22    1    1    0    0    0 -0.26147482412E+02  0.16347117910E+02 -0.43384747132E+01  0.31140672172E+02  0.00000000000E+00 0. -1.
</event>
<event>
 5    1  0.1724243E-003  0.9118800E+02  0.7818608E-02  0.1130116E+00
         25   -1    0    0    0    0  0.00000000000E+00  0.00000000000E+00  0.99999998245E-14  0.12500000000E+03  0.12500000000E+03 0.  0.
        -13    1    3    3    0    0 -0.27375066000E+02  0.35521750166E+02 -0.39321813816E+02  0.59643986949E+02  0.10566000000E+00 0. -1.
         23    2    1    0    0    0 -0.61856648611E+01  0.25650915633E+02 -0.10881721536E+02  0.96458034648E+02  0.92138529736E+02 0.  0.
         13    1    3    3    0    0  0.21189401139E+02 -0.98708345328E+01  0.28440092280E+02  0.36814047699E+02  0.10566000000E+00 0.  1.
         22    1    1    0    0    0  0.61856648611E+01 -0.25650915633E+02  0.10881721536E+02  0.28541965352E+02  0.00000000000E+00 0. -1.
</event>
<event>
 5    1  0.1724243E-003  0.9118800E+02  0.7818608E-02  0.1130116E+00
         25   -1    0    0    0    0  0.00000000000E+00  0.00000000000E+00  0.99999998245E-14  0.12500000000E+03  0.12500000000E+03 0.  0.
        -13    1    3    3    0    0 -0.23297374811E+02  0.33426197833E+02 -0.42933448483E+02  0.59189277216E+02  0.10566000000E+00 0.  1.
         23    2    1    0    0    0 -0.19073092026E+02  0.19519196078E+02 -0.87396274322E+01  0.96344059209E+02  0.91983774668E+02 0.  0.
         13    1    3    3    0    0  0.42242827845E+01 -0.13907001755E+02  0.34193821051E+02  0.37154781993E+02  0.10566000000E+00 0. -1.
         22    1    1    0    0    0  0.19073092026E+02 -0.19519196078E+02  0.87396274322E+01  0.28655940791E+02  0.00000000000E+00 0.  1.
</event>
<event>
 5    1  0.1724243E-003  0.9118800E+02  0.7818608E-02  0.1130116E+00
         25   -1    0    0    0    0  0.00000000000E+00  0.00000000000E+00  0.99999998245E-14  0.12500000000E+03  0.12500000000E+03 0.  0.
        -13    1    3    3    0    0  0.29084934506E+02  0.20143370963E+02 -0.18066332732E+02  0.39725210527E+02  0.10566000000E+00 0.  1.
         23    2    1    0    0    0 -0.38564830986E+01  0.16051922347E+02  0.25576992011E+02  0.94557937106E+02  0.89523652051E+02 0.  0.
         13    1    3    3    0    0 -0.32941417604E+02 -0.40914486167E+01  0.43643324742E+02  0.54832726580E+02  0.10566000000E+00 0. -1.
         22    1    1    0    0    0  0.38564830986E+01 -0.16051922347E+02 -0.25576992011E+02  0.30442062894E+02  0.00000000000E+00 0. -1.
</event>
<event>
 5    1  0.1724243E-003  0.9118800E+02  0.7818608E-02  0.1130116E+00
         25   -1    0    0    0    0  0.00000000000E+00  0.00000000000E+00  0.99999998245E-14  0.12500000000E+03  0.12500000000E+03 0.  0.
        -13    1    3    3    0    0  0.38220173773E+01 -0.39897697973E+02  0.86043948207E+01  0.40993668958E+02  0.10566000000E+00 0.  1.
         23    2    1    0    0    0  0.27077229128E+02  0.94672348824E+01  0.64198156128E+01  0.95605801490E+02  0.90974998612E+02 0.  0.
         13    1    3    3    0    0  0.23255211750E+02  0.49364932855E+02 -0.21845792079E+01  0.54612132532E+02  0.10566000000E+00 0. -1.
         22    1    1    0    0    0 -0.27077229128E+02 -0.94672348824E+01 -0.64198156128E+01  0.29394198510E+02  0.00000000000E+00 0. -1.
</event>
<event>
 5    1  0.1724243E-003  0.9118800E+02  0.7818608E-02  0.1130116E+00
         25   -1    0    0    0    0  0.00000000000E+00  0.00000000000E+00  0.99999998245E-14  0.12500000000E+03  0.12500000000E+03 0.  0.
        -13    1    3    3    0    0  0.40653074978E+02  0.30751818661E+02  0.60811633457E+01  0.51335548773E+02  0.10566000000E+00 0.  1.
         23    2    1    0    0    0  0.20542113730E+02 -0.83541166988E+01  0.17479958488E+02  0.96763168537E+02  0.92551564732E+02 0.  0.
         13    1    3    3    0    0 -0.20110961248E+02 -0.39105935360E+02  0.11398795142E+02  0.45427619764E+02  0.10566000000E+00 0. -1.
         22    1    1    0    0    0 -0.20542113730E+02  0.83541166988E+01 -0.17479958488E+02  0.28236831463E+02  0.00000000000E+00 0.  1.
</event>
<event>
 5    1  0.1724243E-003  0.9118800E+02  0.7818608E-02  0.1130116E+00
         25   -1    0    0    0    0  0.00000000000E+00  0.00000000000E+00  0.99999998245E-14  0.12500000000E+03  0.12500000000E+03 0.  0.
        -13    1    3    3    0    0 -0.41371045103E+02  0.39704286532E+01 -0.34052147817E+02  0.53729764670E+02  0.10566000000E+00 0. -1.
         23    2    1    0    0    0 -0.31989633665E+02  0.41372443881E+01  0.36093527783E+01  0.92542629795E+02  0.86664049344E+02 0.  0.
         13    1    3    3    0    0  0.93814114374E+01  0.16681573494E+00  0.37661500595E+02  0.38812865124E+02  0.10566000000E+00 0.  1.
         22    1    1    0    0    0  0.31989633665E+02 -0.41372443881E+01 -0.36093527783E+01  0.32457370205E+02  0.00000000000E+00 0. -1.
</event>
<event>
 5    1  0.1724243E-003  0.9118800E+02  0.7818608E-02  0.1130116E+00
         25   -1    0    0    0    0  0.00000000000E+00  0.00000000000E+00  0.99999998245E-14  0.12500000000E+03  0.12500000000E+03 0.  0.
        -13    1    3    3    0    0 -0.22241740911E+02  0.26948704790E+02  0.81923461636E+01  0.35889461243E+02  0.10566000000E+00 0.  1.
         23    2    1    0    0    0 -0.45716310901E+01 -0.28423851184E+02 -0.57039170393E+01  0.95651238586E+02  0.91037407952E+02 0.  0.
         13    1    3    3    0    0  0.17670109821E+02 -0.55372555974E+02 -0.13896263203E+02  0.59761777343E+02  0.10566000000E+00 0. -1.
         22    1    1    0    0    0  0.45716310901E+01  0.28423851184E+02  0.57039170393E+01  0.29348761414E+02  0.00000000000E+00 0. -1.
</event>
<event>
 5    1  0.1724243E-003  0.9118800E+02  0.7818608E-02  0.1130116E+00
         25   -1    0    0    0    0  0.00000000000E+00  0.00000000000E+00  0.99999998245E-14  0.12500000000E+03  0.12500000000E+03 0.  0.
        -13    1    3    3    0    0  0.69456464777E+01  0.27393201004E+02  0.35890829519E+02  0.45681421539E+02  0.10566000000E+00 0.  1.
         23    2    1    0    0    0  0.19195613883E+02  0.15406560537E+02 -0.12768887160E+02  0.97271347324E+02  0.93235384007E+02 0.  0.
         13    1    3    3    0    0  0.12249967405E+02 -0.11986640467E+02 -0.48659716679E+02  0.51589925784E+02  0.10566000000E+00 0. -1.
         22    1    1    0    0    0 -0.19195613883E+02 -0.15406560537E+02  0.12768887160E+02  0.27728652676E+02  0.00000000000E+00 0.  1.
</event>
<event>
 5    1  0.1724243E-003  0.9118800E+02  0.7818608E-02  0.1130116E+00
         25   -1    0    0    0    0  0.00000000000E+00  0.00000000000E+00  0.99999998245E-14  0.12500000000E+03  0.12500000000E+03 0.  0.
        -13    1    3    3    0    0 -0.57690130433E+02  0.12199362448E+02  0.99124090380E+01  0.59793332492E+02  0.10566000000E+00 0.  1.
         23    2    1    0    0    0 -0.25027699311E+02  0.16764953986E+02 -0.18778746867E+01  0.94817623879E+02  0.89885515907E+02 0.  0.
         13    1    3    3    0    0  0.32662431121E+02  0.45655915378E+01 -0.11790283725E+02  0.35024291388E+02  0.10566000000E+00 0. -1.
         22    1    1    0    0    0  0.25027699311E+02 -0.16764953986E+02  0.18778746867E+01  0.30182376121E+02  0.00000000000E+00 0.  1.
</event>
<event>
 5    1  0.1724243E-003  0.9118800E+02  0.7818608E-02  0.1130116E+00
         25   -1    0    0    0    0  0.00000000000E+00  0.00000000000E+00  0.99999998245E-14  0.12500000000E+03  0.12500000000E+03 0.  0.
        -13    1    3    3    0    0 -0.15434134286E+02  0.28047262668E+01 -0.48658969689E+02  0.51125194238E+02  0.10566000000E+00 0.  1.
         23    2    1    0    0    0  0.19284735030E+02 -0.32371866856E+01 -0.23516425834E+02  0.94415646699E+02  0.89324753987E+02 0.  0.
         13    1    3    3    0    0  0.34718869317E+02 -0.60419129524E+01  0.25142543856E+02  0.43290452461E+02  0.10566000000E+00 0. -1.
         22    1    1    0    0    0 -0.19284735030E+02  0.32371866856E+01  0.23516425834E+02  0.30584353301E+02  0.00000000000E+00 0.  1.
</event>
<event>
 5    1  0.1724243E-003  0.9118800E+02  0.7818608E-02  0.1130116E+00
         25   -1    0    0    0    0  0.00000000000E+00  0.00000000000E+00  0.99999998245E-14  0.12500000000E+03  0.12500000000E+03 0.  0.
        -13    1    3    3    0    0 -0.46875217218E+02  0.34679619107E+01  0.38369780070E+02  0.60675892542E+02  0.10566000000E+00 0.  1.
         23    2    1    0    0    0 -0.15997825256E+02 -0.30803714598E+01  0.25450233007E+02  0.94781901758E+02  0.89835824922E+02 0.  0.
         13    1    3    3    0    0  0.30877391962E+02 -0.65483333704E+01 -0.12919547063E+02  0.34106009216E+02  0.10566000000E+00 0. -1.
         22    1    1    0    0    0  0.15997825256E+02  0.30803714598E+01 -0.25450233007E+02  0.30218098242E+02  0.00000000000E+00 0.  1.
</event>
<event>
 5    1  0.1724243E-003  0.9118800E+02  0.7818608E-02  0.1130116E+00
         25   -1    0    0    0    0  0.00000000000E+00  0.00000000000E+00  0.99999998245E-14  0.12500000000E+03  0.12500000000E+03 0.  0.
        -13    1    3    3    0    0 -0.40554426982E+02  0.32561016138E+02 -0.29097247824E+02  0.59594817852E+02  0.10566000000E+00 0.  1.
         23    2    1    0    0    0 -0.24775528351E+02  0.31154483719E+01 -0.15123830758E+02  0.95806454816E+02  0.91250280569E+02 0.  0.
         13    1    3    3    0    0  0.15778898632E+02 -0.29445567766E+02  0.13973417066E+02  0.36211636964E+02  0.10566000000E+00 0. -1.
         22    1    1    0    0    0  0.24775528351E+02 -0.31154483719E+01  0.15123830758E+02  0.29193545184E+02  0.00000000000E+00 0.  1.
</event>
<event>
 5    1  0.1724243E-003  0.9118800E+02  0.7818608E-02  0.1130116E+00
         25   -1    0    0    0    0  0.00000000000E+00  0.00000000000E+00  0.99999998245E-14  0.12500000000E+03  0.12500000000E+03 0.  0.
        -13    1    3    3    0    0  0.24912883345E+00 -0.61489854990E+02 -0.59050889611E+01  0.61773340298E+02  0.10566000000E+00 0. -1.
         23    2    1    0    0    0  0.48899179362E+01 -0.28308986878E+02  0.20165662455E+01  0.96201101151E+02  0.91789298329E+02 0.  0.
         13    1    3    3    0    0  0.46407891027E+01  0.33180868112E+02  0.79216552066E+01  0.34427760853E+02  0.10566000000E+00 0.  1.
         22    1    1    0    0    0 -0.48899179362E+01  0.28308986878E+02 -0.20165662455E+01  0.28798898849E+02  0.00000000000E+00 0. -1.
</event>
<event>
 5    1  0.1724243E-003  0.9118800E+02  0.7818608E-02  0.1130116E+00
         25   -1    0    0    0    0  0.00000000000E+00  0.00000000000E+00  0.99999998245E-14  0.12500000000E+03  0.12500000000E+03 0.  0.
        -13    1    3    3    0    0 -0.32567823184E+02 -0.86021013422E+01 -0.39166385031E+02  0.51659230878E+02  0.10566000000E+00 0. -1.
         23    2    1    0    0    0 -0.22701408187E+01 -0.26587624435E+02 -0.14946816665E+02  0.94414666246E+02  0.89323381942E+02 0.  0.
         13    1    3    3    0    0  0.30297682365E+02 -0.17985523093E+02  0.24219568367E+02  0.42755435368E+02  0.10566000000E+00 0.  1.
         22    1    1    0    0    0  0.22701408187E+01  0.26587624435E+02  0.14946816665E+02  0.30585333754E+02  0.00000000000E+00 0. -1.
</event>
<event>
 5    1  0.1724243E-003  0.9118800E+02  0.7818608E-02  0.1130116E+00
         25   -1    0    0    0    0  0.00000000000E+00  0.00000000000E+00  0.99999998245E-14  0.12500000000E+03  0.12500000000E+03 0.  0.
        -13    1    3    3    0    0 -0.15357455354E+02 -0.13315498100E+02 -0.52734309072E+02  0.56516125504E+02  0.10566000000E+00 0. -1.
         23    2    1    0    0    0  0.51579726533E+01 -0.18213876186E+02 -0.11450134417E+02  0.10287635776E+03  0.10046934578E+03 0.  0.
         13    1    3    3    0    0  0.20515428008E+02 -0.48983780859E+01  0.41284174655E+02  0.46360232260E+02  0.10566000000E+00 0.  1.
         22    1    1    0    0    0 -0.51579726533E+01  0.18213876186E+02  0.11450134417E+02  0.22123642236E+02  0.00000000000E+00 0. -1.
</event>
<event>
 5    1  0.1724243E-003  0.9118800E+02  0.7818608E-02  0.1130116E+00
         25   -1    0    0    0    0  0.00000000000E+00  0.00000000000E+00  0.99999998245E-14  0.12500000000E+03  0.12500000000E+03 0.  0.
        -13    1    3    3    0    0  0.25162825472E+02 -0.31082447700E+01 -0.29699784665E+02  0.39050190069E+02  0.10566000000E+00 0.  1.
         23    2    1    0    0    0  0.19556309236E+02 -0.83573476810E+00  0.24530519315E+02  0.93616978135E+02  0.88200025701E+02 0.  0.
         13    1    3    3    0    0 -0.56065162358E+01  0.22725100019E+01  0.54230303980E+02  0.54566788065E+02  0.10566000000E+00 0. -1.
         22    1    1    0    0    0 -0.19556309236E+02  0.83573476810E+00 -0.24530519315E+02  0.31383021865E+02  0.00000000000E+00 0.  1.
</event>
<event>
 5    1  0.1724243E-003  0.9118800E+02  0.7818608E-02  0.1130116E+00
         25   -1    0    0    0    0  0.00000000000E+00  0.00000000000E+00  0.99999998245E-14  0.12500000000E+03  0.12500000000E+03 0.  0.
        -13    1    3    3    0    0 -0.17485760095E+02  0.49759861950E+02 -0.17185848354E+01  0.52770828734E+02  0.10566000000E+00 0.  1.
         23    2    1    0    0    0  0.19986119427E+01  0.21313895473E+02 -0.23230002661E+02  0.93410292601E+02  0.87906616078E+02 0.  0.
         13    1    3    3    0    0  0.19484372038E+02 -0.28445966477E+02 -0.21511417826E+02  0.40639463867E+02  0.10566000000E+00 0. -1.
         22    1    1    0    0    0 -0.19986119427E+01 -0.21313895473E+02  0.23230002661E+02  0.31589707399E+02  0.00000000000E+00 0.  1.
</event>
<event>
 5    1  0.1724243E-003  0.9118800E+02  0.7818608E-02  0.1130116E+00
         25   -1    0    0    0    0  0.00000000000E+00  0.00000000000E+00  0.99999998245E-14  0.12500000000E+03  0.12500000000E+03 0.  0.
        -13    1    3    3    0    0  0.18915354123E+02  0.31616228010E+02 -0.44985793815E+01  0.37116369376E+02  0.10566000000E+00 0. -1.
         23    2    1    0    0    0 -0.86173741781E+01 -0.20583417182E+02 -0.16383337804E+02  0.97316973464E+02  0.93296534587E+02 0.  0.
         13    1    3    3    0    0 -0.27532728301E+02 -0.52199645191E+02 -0.11884758422E+02  0.60200604088E+02  0.10566000000E+00 0.  1.
         22    1    1    0    0    0  0.86173741781E+01  0.20583417182E+02  0.16383337804E+02  0.27683026536E+02  0.00000000000E+00 0.  1.
</event>
<event>
 5    1  0.1724243E-003  0.9118800E+02  0.7818608E-02  0.1130116E+00
         25   -1    0    0    0    0  0.00000000000E+00  0.00000000000E+00  0.99999998245E-14  0.12500000000E+03  0.12500000000E+03 0.  0.
        -13    1    3    3    0    0  0.29078335783E+01  0.52431644565E+02  0.20945337303E+02  0.56535397466E+02  0.10566000000E+00 0. -1.
         23    2    1    0    0    0  0.20382278272E+02  0.21302243055E+02  0.93290932190E+01  0.94076630083E+02  0.88849071580E+02 0.  0.
         13    1    3    3    0    0  0.17474444694E+02 -0.31129401510E+02 -0.11616244084E+02  0.37541232616E+02  0.10566000000E+00 0.  1.
         22    1    1    0    0    0 -0.20382278272E+02 -0.21302243055E+02 -0.93290932190E+01  0.30923369917E+02  0.00000000000E+00 0.  1.
</event>
<event>
 5    1  0.1724243E-003  0.9118800E+02  0.7818608E-02  0.1130116E+00
         25   -1    0    0    0    0  0.00000000000E+00  0.00000000000E+00  0.99999998245E-14  0.12500000000E+03  0.12500000000E+03 0.  0.
        -13    1    3    3    0    0  0.14280295784E+02 -0.21327943581E+02  0.27567624866E+02  0.37666870455E+02  0.10566000000E+00 0.  1.
         23    2    1    0    0    0 -0.28535860754E+02  0.54925927259E+00 -0.53829177499E+01  0.95955674596E+02  0.91454462159E+02 0.  0.
         13    1    3    3    0    0 -0.42816156538E+02  0.21877202853E+02 -0.32950542616E+02  0.58288804140E+02  0.10566000000E+00 0. -1.
         22    1    1    0    0    0  0.28535860754E+02 -0.54925927259E+00  0.53829177499E+01  0.29044325404E+02  0.00000000000E+00 0. -1.
</event>
<event>
 5    1  0.1724243E-003  0.9118800E+02  0.7818608E-02  0.1130116E+00
         25   -1    0    0    0    0  0.00000000000E+00  0.00000000000E+00  0.99999998245E-14  0.12500000000E+03  0.12500000000E+03 0.  0.
        -13    1    3    3    0    0  0.23947108031E+02  0.27250475112E+02  0.14790641763E+02  0.39176863385E+02  0.10566000000E+00 0.  1.
         23    2    1    0    0    0 -0.23920502280E+02  0.15600817046E+02 -0.10522939231E+02  0.94564688733E+02  0.89533078710E+02 0.  0.
         13    1    3    3    0    0 -0.47867610312E+02 -0.11649658066E+02 -0.25313580994E+02  0.55387825348E+02  0.10566000000E+00 0. -1.
         22    1    1    0    0    0  0.23920502280E+02 -0.15600817046E+02  0.10522939231E+02  0.30435311267E+02  0.00000000000E+00 0. -1.
</event>
<event>
 5    1  0.1724243E-003  0.9118800E+02  0.7818608E-02  0.1130116E+00
         25   -1    0    0    0    0  0.00000000000E+00  0.00000000000E+00  0.99999998245E-14  0.12500000000E+03  0.12500000000E+03 0.  0.
        -13    1    3    3    0    0  0.38031282542E+02  0.37466525329E+02  0.25628660145E+02  0.59219577480E+02  0.10566000000E+00 0.  1.
         23    2    1    0    0    0  0.25612093102E+02  0.14192751700E+02  0.40886724394E+00  0.95715521410E+02  0.91125629504E+02 0.  0.
         13    1    3    3    0    0 -0.12419189440E+02 -0.23273773629E+02 -0.25219792901E+02  0.36495943930E+02  0.10566000000E+00 0. -1.
         22    1    1    0    0    0 -0.25612093102E+02 -0.14192751700E+02 -0.40886724394E+00  0.29284478590E+02  0.00000000000E+00 0.  1.
</event>
<event>
 5    1  0.1724243E-003  0.9118800E+02  0.7818608E-02  0.1130116E+00
         25   -1    0    0    0    0  0.00000000000E+00  0.00000000000E+00  0.99999998245E-14  0.12500000000E+03  0.12500000000E+03 0.  0.
        -13    1    3    3    0    0 -0.40731182974E+02 -0.26218270460E+02  0.99214395499E+01  0.49445658041E+02  0.10566000000E+00 0.  1.
         23    2    1    0    0    0  0.94969891962E+00 -0.27707081724E+02 -0.98192116265E+01  0.95589096874E+02  0.90952043509E+02 0.  0.
         13    1    3    3    0    0  0.41680881894E+02 -0.14888112644E+01 -0.19740651176E+02  0.46143438833E+02  0.10566000000E+00 0. -1.
         22    1    1    0    0    0 -0.94969891962E+00  0.27707081724E+02  0.98192116265E+01  0.29410903126E+02  0.00000000000E+00 0.  1.
</event>
<event>
 4    1  0.1724243E-003  0.9118800E+02  0.7818608E-02  0.1130116E+00
         25   -1    0    0    0    0  0.00000000000E+00  0.00000000000E+00  0.99999998245E-14  0.12500000000E+03  0.12500000000E+03 0.  0.
        -13    1    1    0    0    0 -0.12252758236E+02  0.23614729398E+02  0.76826607020E+01  0.27691514376E+02  0.10566000000E+00 0. -1.
         13    1    1    0    0    0 -0.39796356411E+02 -0.19890379511E+02  0.47284966252E+00  0.44492830114E+02  0.10566000000E+00 0.  1.
         22    1    1    0    0    0  0.52049114648E+02 -0.37243498870E+01 -0.81555103645E+01  0.52815655510E+02  0.00000000000E+00 0.  1.
</event>
<event>
 5    1  0.1724243E-003  0.9118800E+02  0.7818608E-02  0.1130116E+00
         25   -1    0    0    0    0  0.00000000000E+00  0.00000000000E+00  0.99999998245E-14  0.12500000000E+03  0.12500000000E+03 0.  0.
        -13    1    3    3    0    0  0.21318185192E+02 -0.53288436782E+02 -0.21215576379E+01  0.57433741698E+02  0.10566000000E+00 0.  1.
         23    2    1    0    0    0  0.71732909846E+01 -0.30538244356E+02 -0.18254669863E+02  0.88705738144E+02  0.80940932389E+02 0.  0.
         13    1    3    3    0    0 -0.14144894208E+02  0.22750192427E+02 -0.16133112226E+02  0.31271996446E+02  0.10566000000E+00 0. -1.
         22    1    1    0    0    0 -0.71732909846E+01  0.30538244356E+02  0.18254669863E+02  0.36294261856E+02  0.00000000000E+00 0.  1.
</event>
<event>
 5    1  0.1724243E-003  0.9118800E+02  0.7818608E-02  0.1130116E+00
         25   -1    0    0    0    0  0.00000000000E+00  0.00000000000E+00  0.99999998245E-14  0.12500000000E+03  0.12500000000E+03 0.  0.
        -13    1    3    3    0    0  0.61603236858E+02 -0.29026853594E+01  0.59497724351E+01  0.61958012635E+02  0.10566000000E+00 0.  1.
         23    2    1    0    0    0  0.28168433915E+02 -0.13533995573E+01  0.85547657548E+01  0.95530076744E+02  0.90870892952E+02 0.  0.
         13    1    3    3    0    0 -0.33434802942E+02  0.15492858022E+01  0.26049933198E+01  0.33572064109E+02  0.10566000000E+00 0. -1.
         22    1    1    0    0    0 -0.28168433915E+02  0.13533995573E+01 -0.85547657548E+01  0.29469923256E+02  0.00000000000E+00 0.  1.
</event>
<event>
 5    1  0.1724243E-003  0.9118800E+02  0.7818608E-02  0.1130116E+00
         25   -1    0    0    0    0  0.00000000000E+00  0.00000000000E+00  0.99999998245E-14  0.12500000000E+03  0.12500000000E+03 0.  0.
        -13    1    3    3    0    0  0.35312171329E+01 -0.10819264185E+02 -0.59432966990E+02  0.60512930033E+02  0.10566000000E+00 0. -1.
         23    2    1    0    0    0  0.80720696842E+01 -0.13210210494E+02 -0.23191614079E+02  0.97115973500E+02  0.93026842228E+02 0.  0.
         13    1    3    3    0    0  0.45408525513E+01 -0.23909463093E+01  0.36241352911E+02  0.36603043467E+02  0.10566000000E+00 0.  1.
         22    1    1    0    0    0 -0.80720696842E+01  0.13210210494E+02  0.23191614079E+02  0.27884026500E+02  0.00000000000E+00 0. -1.
</event>
<event>
 5    1  0.1724243E-003  0.9118800E+02  0.7818608E-02  0.1130116E+00
         25   -1    0    0    0    0  0.00000000000E+00  0.00000000000E+00  0.99999998245E-14  0.12500000000E+03  0.12500000000E+03 0.  0.
        -13    1    3    3    0    0  0.24073794934E+02 -0.33553545924E+02  0.13748110018E+02  0.43524817515E+02  0.10566000000E+00 0. -1.
         23    2    1    0    0    0  0.56124038140E+01 -0.12289624552E+02 -0.28016418869E+02  0.93896082651E+02  0.88594698841E+02 0.  0.
         13    1    3    3    0    0 -0.18461391120E+02  0.21263921372E+02 -0.41764528887E+02  0.50371265136E+02  0.10566000000E+00 0.  1.
         22    1    1    0    0    0 -0.56124038140E+01  0.12289624552E+02  0.28016418869E+02  0.31103917349E+02  0.00000000000E+00 0.  1.
</event>
<event>
 5    1  0.1724243E-003  0.9118800E+02  0.7818608E-02  0.1130116E+00
         25   -1    0    0    0    0  0.00000000000E+00  0.00000000000E+00  0.99999998245E-14  0.12500000000E+03  0.12500000000E+03 0.  0.
        -13    1    3    3    0    0  0.70264927302E+01 -0.13017089303E+02 -0.38265019346E+02  0.41024859337E+02  0.10566000000E+00 0. -1.
         23    2    1    0    0    0  0.20016708467E+02 -0.32496371099E+02  0.10898527556E+01  0.86817929188E+02  0.77971034987E+02 0.  0.
         13    1    3    3    0    0  0.12990215737E+02 -0.19479281797E+02  0.39354872102E+02  0.45793069851E+02  0.10566000000E+00 0.  1.
         22    1    1    0    0    0 -0.20016708467E+02  0.32496371099E+02 -0.10898527556E+01  0.38182070812E+02  0.00000000000E+00 0.  1.
</event>
<event>
 5    1  0.1724243E-003  0.9118800E+02  0.7818608E-02  0.1130116E+00
         25   -1    0    0    0    0  0.00000000000E+00  0.00000000000E+00  0.99999998245E-14  0.12500000000E+03  0.12500000000E+03 0.  0.
        -13    1    3    3    0    0 -0.25485872111E+02  0.41706219062E+02 -0.35225684253E+02  0.60247808100E+02  0.10566000000E+00 0.  1.
         23    2    1    0    0    0 -0.50814405850E+01  0.11701137737E+02 -0.23288076099E+02  0.98446805255E+02  0.94798213663E+02 0.  0.
         13    1    3    3    0    0  0.20404431526E+02 -0.30005081325E+02  0.11937608154E+02  0.38198997155E+02  0.10566000000E+00 0. -1.
         22    1    1    0    0    0  0.50814405850E+01 -0.11701137737E+02  0.23288076099E+02  0.26553194745E+02  0.00000000000E+00 0.  1.
</event>
<event>
 5    1  0.1724243E-003  0.9118800E+02  0.7818608E-02  0.1130116E+00
         25   -1    0    0    0    0  0.00000000000E+00  0.00000000000E+00  0.99999998245E-14  0.12500000000E+03  0.12500000000E+03 0.  0.
        -13    1    3    3    0    0  0.35870904318E+02  0.10895420157E+02  0.29488216876E+01  0.37605035173E+02  0.10566000000E+00 0.  1.
         23    2    1    0    0    0 -0.17941055005E+02 -0.45610351445E+01  0.21539480611E+02  0.96598702120E+02  0.92329169443E+02 0.  0.
         13    1    3    3    0    0 -0.53811959323E+02 -0.15456455301E+02  0.18590658923E+02  0.58993666947E+02  0.10566000000E+00 0. -1.
         22    1    1    0    0    0  0.17941055005E+02  0.45610351445E+01 -0.21539480611E+02  0.28401297880E+02  0.00000000000E+00 0. -1.
</event>
<event>
 5    1  0.1724243E-003  0.9118800E+02  0.7818608E-02  0.1130116E+00
         25   -1    0    0    0    0  0.00000000000E+00  0.00000000000E+00  0.99999998245E-14  0.12500000000E+03  0.12500000000E+03 0.  0.
        -13    1    3    3    0    0  0.34147325487E+02  0.76406715351E+01  0.45249324738E+02  0.57200806399E+02  0.10566000000E+00 0. -1.
         23    2    1    0    0    0  0.26765815067E+02 -0.56682259038E+01  0.95282430570E+01  0.96028892723E+02  0.91554482036E+02 0.  0.
         13    1    3    3    0    0 -0.73815104200E+01 -0.13308897439E+02 -0.35721081681E+02  0.38828086325E+02  0.10566000000E+00 0.  1.
         22    1    1    0    0    0 -0.26765815067E+02  0.56682259038E+01 -0.95282430570E+01  0.28971107277E+02  0.00000000000E+00 0. -1.
</event>
<event>
 5    1  0.1724243E-003  0.9118800E+02  0.7818608E-02  0.1130116E+00
         25   -1    0    0    0    0  0.00000000000E+00  0.00000000000E+00  0.99999998245E-14  0.12500000000E+03  0.12500000000E+03 0.  0.
        -13    1    3    3    0    0  0.13468090161E+02  0.41930282431E+02  0.84047906394E+01  0.44835139200E+02  0.10566000000E+00 0.  1.
         23    2    1    0    0    0  0.18537492925E+02 -0.13653306364E+02 -0.29380822254E+01  0.10179043848E+03  0.99109079408E+02 0.  0.
         13    1    3    3    0    0  0.50694027633E+01 -0.55583588795E+02 -0.11342872865E+02  0.56955299284E+02  0.10566000000E+00 0. -1.
         22    1    1    0    0    0 -0.18537492925E+02  0.13653306364E+02  0.29380822254E+01  0.23209561516E+02  0.00000000000E+00 0. -1.
</event>
<event>
 5    1  0.1724243E-003  0.9118800E+02  0.7818608E-02  0.1130116E+00
         25   -1    0    0    0    0  0.00000000000E+00  0.00000000000E+00  0.99999998245E-14  0.12500000000E+03  0.12500000000E+03 0.  0.
        -13    1    3    3    0    0 -0.34856044465E+02  0.46485453266E+02 -0.21498198071E+02  0.61951794852E+02  0.10566000000E+00 0.  1.
         23    2    1    0    0    0 -0.20258398085E+02  0.22092769455E+02 -0.56531556291E+01  0.94496699790E+02  0.89438106798E+02 0.  0.
         13    1    3    3    0    0  0.14597646381E+02 -0.24392683811E+02  0.15845042442E+02  0.32544904938E+02  0.10566000000E+00 0. -1.
         22    1    1    0    0    0  0.20258398085E+02 -0.22092769455E+02  0.56531556291E+01  0.30503300210E+02  0.00000000000E+00 0.  1.
</event>
<event>
 5    1  0.1724243E-003  0.9118800E+02  0.7818608E-02  0.1130116E+00
         25   -1    0    0    0    0  0.00000000000E+00  0.00000000000E+00  0.99999998245E-14  0.12500000000E+03  0.12500000000E+03 0.  0.
        -13    1    3    3    0    0 -0.31891340871E+02  0.48705357958E+02  0.15378725945E+02  0.60214499019E+02  0.10566000000E+00 0. -1.
         23    2    1    0    0    0 -0.52876138429E+01  0.28517134954E+02  0.11357390880E+02  0.93852348825E+02  0.88532972424E+02 0.  0.
         13    1    3    3    0    0  0.26603727028E+02 -0.20188223004E+02 -0.40213350653E+01  0.33637849806E+02  0.10566000000E+00 0.  1.
         22    1    1    0    0    0  0.52876138429E+01 -0.28517134954E+02 -0.11357390880E+02  0.31147651175E+02  0.00000000000E+00 0. -1.
</event>
<event>
 5    1  0.1724243E-003  0.9118800E+02  0.7818608E-02  0.1130116E+00
         25   -1    0    0    0    0  0.00000000000E+00  0.00000000000E+00  0.99999998245E-14  0.12500000000E+03  0.12500000000E+03 0.  0.
        -13    1    3    3    0    0 -0.77234321568E+01 -0.20031623632E+02  0.55156898912E+02  0.59187938055E+02  0.10566000000E+00 0.  1.
         23    2    1    0    0    0  0.69670707515E+01  0.28870779681E+00  0.27975495510E+02  0.96168562712E+02  0.91744976309E+02 0.  0.
         13    1    3    3    0    0  0.14690502908E+02  0.20320331429E+02 -0.27181403401E+02  0.36980624657E+02  0.10566000000E+00 0. -1.
         22    1    1    0    0    0 -0.69670707515E+01 -0.28870779681E+00 -0.27975495510E+02  0.28831437288E+02  0.00000000000E+00 0.  1.
</event>
<event>
 5    1  0.1724243E-003  0.9118800E+02  0.7818608E-02  0.1130116E+00
         25   -1    0    0    0    0  0.00000000000E+00  0.00000000000E+00  0.99999998245E-14  0.12500000000E+03  0.12500000000E+03 0.  0.
        -13    1    3    3    0    0  0.25896276522E+01  0.27308175489E+02 -0.23334735466E+02  0.36013381725E+02  0.10566000000E+00 0.  1.
         23    2    1    0    0    0  0.14594850670E+02 -0.22660222352E+02  0.88267275930E+01  0.96637939724E+02  0.92382276065E+02 0.  0.
         13    1    3    3    0    0  0.12005223018E+02 -0.49968397841E+02  0.32161463059E+02  0.60624557999E+02  0.10566000000E+00 0. -1.
         22    1    1    0    0    0 -0.14594850670E+02  0.22660222352E+02 -0.88267275930E+01  0.28362060276E+02  0.00000000000E+00 0. -1.
</event>
<event>
 5    1  0.1724243E-003  0.9118800E+02  0.7818608E-02  0.1130116E+00
         25   -1    0    0    0    0  0.00000000000E+00  0.00000000000E+00  0.99999998245E-14  0.12500000000E+03  0.12500000000E+03 0.  0.
        -13    1    3    3    0    0  0.30555824998E+02 -0.78991080059E+01 -0.15647331791E+02  0.35226474487E+02  0.10566000000E+00 0. -1.
         23    2    1    0    0    0 -0.16793653222E+02  0.23088649952E+02  0.60218251475E+01  0.95821670314E+02  0.91271121274E+02 0.  0.
         13    1    3    3    0    0 -0.47349478219E+02  0.30987757958E+02  0.21669156938E+02  0.60595195827E+02  0.10566000000E+00 0.  1.
         22    1    1    0    0    0  0.16793653222E+02 -0.23088649952E+02 -0.60218251475E+01  0.29178329686E+02  0.00000000000E+00 0.  1.
</event>
<event>
 5    1  0.1724243E-003  0.9118800E+02  0.7818608E-02  0.1130116E+00
         25   -1    0    0    0    0  0.00000000000E+00  0.00000000000E+00  0.99999998245E-14  0.12500000000E+03  0.12500000000E+03 0.  0.
        -13    1    3    3    0    0  0.89594578621E+01 -0.31425631282E+02 -0.19803347956E+02  0.38210285800E+02  0.10566000000E+00 0. -1.
         23    2    1    0    0    0 -0.14885168897E+02  0.61272075520E+01  0.20977530851E+02  0.98558220066E+02  0.94945010487E+02 0.  0.
         13    1    3    3    0    0 -0.23844626759E+02  0.37552838834E+02  0.40780878808E+02  0.60347934265E+02  0.10566000000E+00 0.  1.
         22    1    1    0    0    0  0.14885168897E+02 -0.61272075520E+01 -0.20977530851E+02  0.26441779934E+02  0.00000000000E+00 0.  1.
</event>
<event>
 5    1  0.1724243E-003  0.9118800E+02  0.7818608E-02  0.1130116E+00
         25   -1    0    0    0    0  0.00000000000E+00  0.00000000000E+00  0.99999998245E-14  0.12500000000E+03  0.12500000000E+03 0.  0.
        -13    1    3    3    0    0  0.26524435801E+02 -0.13713800858E+02  0.19079605505E+02  0.35435244303E+02  0.10566000000E+00 0.  1.
         23    2    1    0    0    0 -0.13794181058E+02  0.87032250500E+01 -0.22276708816E+02  0.97390629978E+02  0.93395168476E+02 0.  0.
         13    1    3    3    0    0 -0.40318616859E+02  0.22417025908E+02 -0.41356314320E+02  0.61955385676E+02  0.10566000000E+00 0. -1.
         22    1    1    0    0    0  0.13794181058E+02 -0.87032250500E+01  0.22276708816E+02  0.27609370022E+02  0.00000000000E+00 0. -1.
</event>
<event>
 5    1  0.1724243E-003  0.9118800E+02  0.7818608E-02  0.1130116E+00
         25   -1    0    0    0    0  0.00000000000E+00  0.00000000000E+00  0.99999998245E-14  0.12500000000E+03  0.12500000000E+03 0.  0.
        -13    1    3    3    0    0 -0.10699479667E+00 -0.22303009670E+02 -0.17254299233E+01  0.22370157815E+02  0.10566000000E+00 0.  1.
         23    2    1    0    0    0 -0.40071939210E+02  0.14101027110E+02  0.16511781876E+02  0.79423271088E+02  0.65044736696E+02 0.  0.
         13    1    3    3    0    0 -0.39964944413E+02  0.36404036780E+02  0.18237211800E+02  0.57053113273E+02  0.10566000000E+00 0. -1.
         22    1    1    0    0    0  0.40071939210E+02 -0.14101027110E+02 -0.16511781876E+02  0.45576728912E+02  0.00000000000E+00 0. -1.
</event>
<event>
 5    1  0.1724243E-003  0.9118800E+02  0.7818608E-02  0.1130116E+00
         25   -1    0    0    0    0  0.00000000000E+00  0.00000000000E+00  0.99999998245E-14  0.12500000000E+03  0.12500000000E+03 0.  0.
        -13    1    3    3    0    0 -0.62108905466E+01  0.13631824323E+02  0.42928698952E+02  0.45467418593E+02  0.10566000000E+00 0. -1.
         23    2    1    0    0    0  0.26663897573E+01  0.30100313045E+02 -0.25800897883E+01  0.94671872081E+02  0.89682595972E+02 0.  0.
         13    1    3    3    0    0  0.88772803039E+01  0.16468488723E+02 -0.45508788740E+02  0.49204453488E+02  0.10566000000E+00 0.  1.
         22    1    1    0    0    0 -0.26663897573E+01 -0.30100313045E+02  0.25800897883E+01  0.30328127919E+02  0.00000000000E+00 0.  1.
</event>
<event>
 5    1  0.1724243E-003  0.9118800E+02  0.7818608E-02  0.1130116E+00
         25   -1    0    0    0    0  0.00000000000E+00  0.00000000000E+00  0.99999998245E-14  0.12500000000E+03  0.12500000000E+03 0.  0.
        -13    1    3    3    0    0 -0.14766033475E+02  0.29554875836E+02 -0.10975301891E+02  0.34813716346E+02  0.10566000000E+00 0.  1.
         23    2    1    0    0    0 -0.22626921605E+01 -0.29270798906E+02 -0.27526521683E+01  0.95513112433E+02  0.90847554223E+02 0.  0.
         13    1    3    3    0    0  0.12503341314E+02 -0.58825674742E+02  0.82226497224E+01  0.60699396087E+02  0.10566000000E+00 0. -1.
         22    1    1    0    0    0  0.22626921605E+01  0.29270798906E+02  0.27526521683E+01  0.29486887567E+02  0.00000000000E+00 0. -1.
</event>
<event>
 5    1  0.1724243E-003  0.9118800E+02  0.7818608E-02  0.1130116E+00
         25   -1    0    0    0    0  0.00000000000E+00  0.00000000000E+00  0.99999998245E-14  0.12500000000E+03  0.12500000000E+03 0.  0.
        -13    1    3    3    0    0  0.20772061219E+02 -0.32423660104E+02  0.35812288210E+02  0.52586152290E+02  0.10566000000E+00 0.  1.
         23    2    1    0    0    0 -0.10778421604E+02 -0.39513634005E+01  0.26538943402E+02  0.96084551501E+02  0.91630441859E+02 0.  0.
         13    1    3    3    0    0 -0.31550482823E+02  0.28472296703E+02 -0.92733448081E+01  0.43498399211E+02  0.10566000000E+00 0. -1.
         22    1    1    0    0    0  0.10778421604E+02  0.39513634005E+01 -0.26538943402E+02  0.28915448499E+02  0.00000000000E+00 0.  1.
</event>
<event>
 5    1  0.1724243E-003  0.9118800E+02  0.7818608E-02  0.1130116E+00
         25   -1    0    0    0    0  0.00000000000E+00  0.00000000000E+00  0.99999998245E-14  0.12500000000E+03  0.12500000000E+03 0.  0.
        -13    1    3    3    0    0  0.34101686612E+02 -0.10022132228E+02  0.81956692819E+01  0.36476681911E+02  0.10566000000E+00 0.  1.
         23    2    1    0    0    0 -0.26452982030E+02 -0.65453018926E+01  0.55565054266E+01  0.97188563725E+02  0.93124330501E+02 0.  0.
         13    1    3    3    0    0 -0.60554668642E+02  0.34768303352E+01 -0.26391638553E+01  0.60711881814E+02  0.10566000000E+00 0. -1.
         22    1    1    0    0    0  0.26452982030E+02  0.65453018926E+01 -0.55565054266E+01  0.27811436275E+02  0.00000000000E+00 0. -1.
</event>
<event>
 5    1  0.1724243E-003  0.9118800E+02  0.7818608E-02  0.1130116E+00
         25   -1    0    0    0    0  0.00000000000E+00  0.00000000000E+00  0.99999998245E-14  0.12500000000E+03  0.12500000000E+03 0.  0.
        -13    1    3    3    0    0 -0.20972824844E+02  0.29438546772E+02  0.99119107177E+01  0.37479922039E+02  0.10566000000E+00 0.  1.
         23    2    1    0    0    0  0.19791169386E+02 -0.26058063872E+01 -0.19501781500E+02  0.97093009939E+02  0.92995981013E+02 0.  0.
         13    1    3    3    0    0  0.40763994230E+02 -0.32044353159E+02 -0.29413692218E+02  0.59613087899E+02  0.10566000000E+00 0. -1.
         22    1    1    0    0    0 -0.19791169386E+02  0.26058063872E+01  0.19501781500E+02  0.27906990061E+02  0.00000000000E+00 0. -1.
</event>
<event>
 5    1  0.1724243E-003  0.9118800E+02  0.7818608E-02  0.1130116E+00
         25   -1    0    0    0    0  0.00000000000E+00  0.00000000000E+00  0.99999998245E-14  0.12500000000E+03  0.12500000000E+03 0.  0.
        -13    1    3    3    0    0  0.20220698582E+02  0.33526473265E+02  0.17170901405E+02  0.42752217251E+02  0.10566000000E+00 0. -1.
         23    2    1    0    0    0  0.23707221132E+02 -0.13918441718E+02 -0.77229867915E+01  0.96444792443E+02  0.92120562909E+02 0.  0.
         13    1    3    3    0    0  0.34865225496E+01 -0.47444914983E+02 -0.24893888196E+02  0.53692575192E+02  0.10566000000E+00 0.  1.
         22    1    1    0    0    0 -0.23707221132E+02  0.13918441718E+02  0.77229867915E+01  0.28555207557E+02  0.00000000000E+00 0.  1.
</event>
<event>
 5    1  0.1724243E-003  0.9118800E+02  0.7818608E-02  0.1130116E+00
         25   -1    0    0    0    0  0.00000000000E+00  0.00000000000E+00  0.99999998245E-14  0.12500000000E+03  0.12500000000E+03 0.  0.
        -13    1    3    3    0    0 -0.11534414877E+02  0.36485168427E+02 -0.35455493987E+01  0.38429055756E+02  0.10566000000E+00 0.  1.
         23    2    1    0    0    0  0.21398135505E+02 -0.44463730169E+01  0.19418686665E+02  0.95764134562E+02  0.91192289370E+02 0.  0.
         13    1    3    3    0    0  0.32932550382E+02 -0.40931541444E+02  0.22964236064E+02  0.57335078806E+02  0.10566000000E+00 0. -1.
         22    1    1    0    0    0 -0.21398135505E+02  0.44463730169E+01 -0.19418686665E+02  0.29235865438E+02  0.00000000000E+00 0. -1.
</event>
<event>
 5    1  0.1724243E-003  0.9118800E+02  0.7818608E-02  0.1130116E+00
         25   -1    0    0    0    0  0.00000000000E+00  0.00000000000E+00  0.99999998245E-14  0.12500000000E+03  0.12500000000E+03 0.  0.
        -13    1    3    3    0    0 -0.33166101017E+02 -0.17339105273E+02 -0.45857321802E+01  0.37705104854E+02  0.10566000000E+00 0.  1.
         23    2    1    0    0    0  0.50660698616E+01  0.89799797238E+01  0.28491193390E+02  0.94700607259E+02  0.89722638251E+02 0.  0.
         13    1    3    3    0    0  0.38232170879E+02  0.26319084996E+02  0.33076925571E+02  0.56995502405E+02  0.10566000000E+00 0. -1.
         22    1    1    0    0    0 -0.50660698616E+01 -0.89799797238E+01 -0.28491193390E+02  0.30299392741E+02  0.00000000000E+00 0. -1.
</event>
<event>
 5    1  0.1724243E-003  0.9118800E+02  0.7818608E-02  0.1130116E+00
         25   -1    0    0    0    0  0.00000000000E+00  0.00000000000E+00  0.99999998245E-14  0.12500000000E+03  0.12500000000E+03 0.  0.
        -13    1    3    3    0    0  0.37027319748E+02 -0.12386124739E+01  0.93254332012E+01  0.38203814430E+02  0.10566000000E+00 0. -1.
         23    2    1    0    0    0 -0.86907318261E+01  0.28949096893E+02 -0.37914598119E+01  0.94537659346E+02  0.89495334160E+02 0.  0.
         13    1    3    3    0    0 -0.45718051574E+02  0.30187709367E+02 -0.13116893013E+02  0.56333844916E+02  0.10566000000E+00 0.  1.
         22    1    1    0    0    0  0.86907318261E+01 -0.28949096893E+02  0.37914598119E+01  0.30462340654E+02  0.00000000000E+00 0.  1.
</event>
<event>
 5    1  0.1724243E-003  0.9118800E+02  0.7818608E-02  0.1130116E+00
         25   -1    0    0    0    0  0.00000000000E+00  0.00000000000E+00  0.99999998245E-14  0.12500000000E+03  0.12500000000E+03 0.  0.
        -13    1    3    3    0    0 -0.23275015106E+02 -0.10217410517E+02  0.47177809108E+02  0.53589911757E+02  0.10566000000E+00 0. -1.
         23    2    1    0    0    0 -0.19661703329E+02  0.16040105299E+02  0.14120099591E+02  0.95961322890E+02  0.91462181925E+02 0.  0.
         13    1    3    3    0    0  0.36133117765E+01  0.26257515816E+02 -0.33057709517E+02  0.42371411133E+02  0.10566000000E+00 0.  1.
         22    1    1    0    0    0  0.19661703329E+02 -0.16040105299E+02 -0.14120099591E+02  0.29038677110E+02  0.00000000000E+00 0. -1.
</event>
<event>
 5    1  0.1724243E-003  0.9118800E+02  0.7818608E-02  0.1130116E+00
         25   -1    0    0    0    0  0.00000000000E+00  0.00000000000E+00  0.99999998245E-14  0.12500000000E+03  0.12500000000E+03 0.  0.
        -13    1    3    3    0    0 -0.83792342034E+01  0.55976478094E+02  0.89856924878E+01  0.57309087405E+02  0.10566000000E+00 0. -1.
         23    2    1    0    0    0  0.99794926608E+01  0.22471880427E+02  0.15311616216E+02  0.96034136042E+02  0.91561640497E+02 0.  0.
         13    1    3    3    0    0  0.18358726864E+02 -0.33504597667E+02  0.63259237283E+01  0.38725048637E+02  0.10566000000E+00 0.  1.
         22    1    1    0    0    0 -0.99794926608E+01 -0.22471880427E+02 -0.15311616216E+02  0.28965863958E+02  0.00000000000E+00 0.  1.
</event>
<event>
 5    1  0.1724243E-003  0.9118800E+02  0.7818608E-02  0.1130116E+00
         25   -1    0    0    0    0  0.00000000000E+00  0.00000000000E+00  0.99999998245E-14  0.12500000000E+03  0.12500000000E+03 0.  0.
        -13    1    3    3    0    0 -0.10871020582E+02  0.38119457005E+02 -0.21204918161E+02  0.44954775153E+02  0.10566000000E+00 0.  1.
         23    2    1    0    0    0 -0.25553038800E+01  0.14175647886E+02  0.24131953305E+02  0.96896090286E+02  0.92730914864E+02 0.  0.
         13    1    3    3    0    0  0.83157167020E+01 -0.23943809120E+02  0.45336871465E+02  0.51941315133E+02  0.10566000000E+00 0. -1.
         22    1    1    0    0    0  0.25553038800E+01 -0.14175647886E+02 -0.24131953305E+02  0.28103909714E+02  0.00000000000E+00 0. -1.
</event>
<event>
 5    1  0.1724243E-003  0.9118800E+02  0.7818608E-02  0.1130116E+00
         25   -1    0    0    0    0  0.00000000000E+00  0.00000000000E+00  0.99999998245E-14  0.12500000000E+03  0.12500000000E+03 0.  0.
        -13    1    3    3    0    0 -0.19484628857E+01 -0.26615446982E+02 -0.25795900869E+02  0.37116279331E+02  0.10566000000E+00 0.  1.
         23    2    1    0    0    0  0.22232926405E+02 -0.70922842340E+01  0.21208225172E+02  0.93466013142E+02  0.87985812979E+02 0.  0.
         13    1    3    3    0    0  0.24181389291E+02  0.19523162748E+02  0.47004126041E+02  0.56349733812E+02  0.10566000000E+00 0. -1.
         22    1    1    0    0    0 -0.22232926405E+02  0.70922842340E+01 -0.21208225172E+02  0.31533986858E+02  0.00000000000E+00 0. -1.
</event>
<event>
 4    1  0.1724243E-003  0.9118800E+02  0.7818608E-02  0.1130116E+00
         25   -1    0    0    0    0  0.00000000000E+00  0.00000000000E+00  0.99999998245E-14  0.12500000000E+03  0.12500000000E+03 0.  0.
        -13    1    1    0    0    0  0.11199713901E+02  0.79781050496E+01 -0.95091888602E+01  0.16718839327E+02  0.10566000000E+00 0. -1.
         13    1    1    0    0    0  0.41222896873E+02 -0.28829798889E+02 -0.33547217209E+01  0.50415769878E+02  0.10566000000E+00 0.  1.
         22    1    1    0    0    0 -0.52422610774E+02  0.20851693839E+02  0.12863910581E+02  0.57865390794E+02  0.00000000000E+00 0.  1.
</event>
<event>
 5    1  0.1724243E-003  0.9118800E+02  0.7818608E-02  0.1130116E+00
         25   -1    0    0    0    0  0.00000000000E+00  0.00000000000E+00  0.99999998245E-14  0.12500000000E+03  0.12500000000E+03 0.  0.
        -13    1    3    3    0    0 -0.17829852251E+01  0.27227970201E+02 -0.28111685798E+02  0.39176771690E+02  0.10566000000E+00 0. -1.
         23    2    1    0    0    0  0.15779538251E+02 -0.22949742196E+02 -0.79202221299E+01  0.96044613405E+02  0.91575943082E+02 0.  0.
         13    1    3    3    0    0  0.17562523476E+02 -0.50177712397E+02  0.20191463668E+02  0.56867841715E+02  0.10566000000E+00 0.  1.
         22    1    1    0    0    0 -0.15779538251E+02  0.22949742196E+02  0.79202221299E+01  0.28955386595E+02  0.00000000000E+00 0.  1.
</event>
<event>
 5    1  0.1724243E-003  0.9118800E+02  0.7818608E-02  0.1130116E+00
         25   -1    0    0    0    0  0.00000000000E+00  0.00000000000E+00  0.99999998245E-14  0.12500000000E+03  0.12500000000E+03 0.  0.
        -13    1    3    3    0    0  0.22893533823E+02 -0.30099569667E+02 -0.13470704269E+01  0.37840768330E+02  0.10566000000E+00 0.  1.
         23    2    1    0    0    0 -0.14901635513E+02 -0.44306317290E+02  0.34871320248E+00  0.78253555283E+02  0.62756583884E+02 0.  0.
         13    1    3    3    0    0 -0.37795169336E+02 -0.14206747623E+02  0.16957836294E+01  0.40412786953E+02  0.10566000000E+00 0. -1.
         22    1    1    0    0    0  0.14901635513E+02  0.44306317290E+02 -0.34871320248E+00  0.46746444717E+02  0.00000000000E+00 0.  1.
</event>
<event>
 5    1  0.1724243E-003  0.9118800E+02  0.7818608E-02  0.1130116E+00
         25   -1    0    0    0    0  0.00000000000E+00  0.00000000000E+00  0.99999998245E-14  0.12500000000E+03  0.12500000000E+03 0.  0.
        -13    1    3    3    0    0 -0.75735920120E+01 -0.47370818095E+02 -0.28899477231E+01  0.48059511700E+02  0.10566000000E+00 0. -1.
         23    2    1    0    0    0 -0.20390143673E+02 -0.58163379660E+01 -0.20991961551E+02  0.95162939218E+02  0.90364455427E+02 0.  0.
         13    1    3    3    0    0 -0.12816551661E+02  0.41554480129E+02 -0.18102013828E+02  0.47103427518E+02  0.10566000000E+00 0.  1.
         22    1    1    0    0    0  0.20390143673E+02  0.58163379660E+01  0.20991961551E+02  0.29837060782E+02  0.00000000000E+00 0.  1.
</event>
<event>
 5    1  0.1724243E-003  0.9118800E+02  0.7818608E-02  0.1130116E+00
         25   -1    0    0    0    0  0.00000000000E+00  0.00000000000E+00  0.99999998245E-14  0.12500000000E+03  0.12500000000E+03 0.  0.
        -13    1    3    3    0    0 -0.60630707761E+01 -0.39378250558E+02  0.23463581815E+02  0.46238060944E+02  0.10566000000E+00 0. -1.
         23    2    1    0    0    0  0.13241388943E+02  0.53210986526E+01  0.26371737062E+02  0.95014720484E+02  0.90159193214E+02 0.  0.
         13    1    3    3    0    0  0.19304459719E+02  0.44699349211E+02  0.29081552464E+01  0.48776659540E+02  0.10566000000E+00 0.  1.
         22    1    1    0    0    0 -0.13241388943E+02 -0.53210986526E+01 -0.26371737062E+02  0.29985279516E+02  0.00000000000E+00 0.  1.
</event>
<event>
 5    1  0.1724243E-003  0.9118800E+02  0.7818608E-02  0.1130116E+00
         25   -1    0    0    0    0  0.00000000000E+00  0.00000000000E+00  0.99999998245E-14  0.12500000000E+03  0.12500000000E+03 0.  0.
        -13    1    3    3    0    0  0.24757426922E+02  0.16580375565E+02 -0.14677138290E+02  0.33215487262E+02  0.10566000000E+00 0.  1.
         23    2    1    0    0    0 -0.90550890506E+01 -0.15921859568E+02  0.24557941842E+02  0.94363538760E+02  0.89251804968E+02 0.  0.
         13    1    3    3    0    0 -0.33812515972E+02 -0.32502235133E+02  0.39235080132E+02  0.61148051498E+02  0.10566000000E+00 0. -1.
         22    1    1    0    0    0  0.90550890506E+01  0.15921859568E+02 -0.24557941842E+02  0.30636461240E+02  0.00000000000E+00 0. -1.
</event>
<event>
 5    1  0.1724243E-003  0.9118800E+02  0.7818608E-02  0.1130116E+00
         25   -1    0    0    0    0  0.00000000000E+00  0.00000000000E+00  0.99999998245E-14  0.12500000000E+03  0.12500000000E+03 0.  0.
        -13    1    3    3    0    0  0.15846182359E+02 -0.54729518991E+02 -0.19455194034E+02  0.60207453718E+02  0.10566000000E+00 0. -1.
         23    2    1    0    0    0  0.13135739001E+02 -0.28088996817E+02  0.11101041251E+01  0.93971437152E+02  0.88700954267E+02 0.  0.
         13    1    3    3    0    0 -0.27104433589E+01  0.26640522174E+02  0.20565298159E+02  0.33763983433E+02  0.10566000000E+00 0.  1.
         22    1    1    0    0    0 -0.13135739001E+02  0.28088996817E+02 -0.11101041251E+01  0.31028562848E+02  0.00000000000E+00 0. -1.
</event>
<event>
 4    1  0.1724243E-003  0.9118800E+02  0.7818608E-02  0.1130116E+00
         25   -1    0    0    0    0  0.00000000000E+00  0.00000000000E+00  0.99999998245E-14  0.12500000000E+03  0.12500000000E+03 0.  0.
        -13    1    1    0    0    0 -0.15494498293E+02  0.14855520240E+02 -0.49338183973E+02  0.53805515709E+02  0.10566000000E+00 0. -1.
         13    1    1    0    0    0 -0.82404347600E+01  0.12242391022E+02  0.98449552017E+01  0.17740214484E+02  0.10566000000E+00 0.  1.
         22    1    1    0    0    0  0.23734933053E+02 -0.27097911262E+02  0.39493228771E+02  0.53454269807E+02  0.00000000000E+00 0. -1.
</event>
<event>
 5    1  0.1724243E-003  0.9118800E+02  0.7818608E-02  0.1130116E+00
         25   -1    0    0    0    0  0.00000000000E+00  0.00000000000E+00  0.99999998245E-14  0.12500000000E+03  0.12500000000E+03 0.  0.
        -13    1    3    3    0    0  0.35946960108E+02  0.51904760497E+01 -0.58563104074E+01  0.36789027145E+02  0.10566000000E+00 0. -1.
         23    2    1    0    0    0 -0.23396875567E+02  0.92030415342E+01  0.93406230341E+01  0.98179168572E+02  0.94444651215E+02 0.  0.
         13    1    3    3    0    0 -0.59343835676E+02  0.40125654845E+01  0.15196933442E+02  0.61390141428E+02  0.10566000000E+00 0.  1.
         22    1    1    0    0    0  0.23396875567E+02 -0.92030415342E+01 -0.93406230341E+01  0.26820831428E+02  0.00000000000E+00 0.  1.
</event>
<event>
 5    1  0.1724243E-003  0.9118800E+02  0.7818608E-02  0.1130116E+00
         25   -1    0    0    0    0  0.00000000000E+00  0.00000000000E+00  0.99999998245E-14  0.12500000000E+03  0.12500000000E+03 0.  0.
        -13    1    3    3    0    0  0.10606129623E+02  0.15099891287E+02  0.53794540988E+01  0.19220988343E+02  0.10566000000E+00 0. -1.
         23    2    1    0    0    0 -0.28980784377E+02 -0.31888013462E+02 -0.53076475251E+01  0.81584537456E+02  0.69073398381E+02 0.  0.
         13    1    3    3    0    0 -0.39586914000E+02 -0.46987904749E+02 -0.10687101624E+02  0.62363549113E+02  0.10566000000E+00 0.  1.
         22    1    1    0    0    0  0.28980784377E+02  0.31888013462E+02  0.53076475251E+01  0.43415462544E+02  0.00000000000E+00 0.  1.
</event>
<event>
 5    1  0.1724243E-003  0.9118800E+02  0.7818608E-02  0.1130116E+00
         25   -1    0    0    0    0  0.00000000000E+00  0.00000000000E+00  0.99999998245E-14  0.12500000000E+03  0.12500000000E+03 0.  0.
        -13    1    3    3    0    0 -0.24530421576E+02  0.30354324834E+01 -0.47506909202E+02  0.53552525795E+02  0.10566000000E+00 0.  1.
         23    2    1    0    0    0  0.12260579759E+02  0.14268640352E+01 -0.26049477548E+02  0.96174090863E+02  0.91752507954E+02 0.  0.
         13    1    3    3    0    0  0.36791001335E+02 -0.16085684482E+01  0.21457431653E+02  0.42621565069E+02  0.10566000000E+00 0. -1.
         22    1    1    0    0    0 -0.12260579759E+02 -0.14268640352E+01  0.26049477548E+02  0.28825909137E+02  0.00000000000E+00 0. -1.
</event>
<event>
 5    1  0.1724243E-003  0.9118800E+02  0.7818608E-02  0.1130116E+00
         25   -1    0    0    0    0  0.00000000000E+00  0.00000000000E+00  0.99999998245E-14  0.12500000000E+03  0.12500000000E+03 0.  0.
        -13    1    3    3    0    0 -0.21567404419E+02  0.25158795582E+02  0.21461098608E+01  0.33207452177E+02  0.10566000000E+00 0. -1.
         23    2    1    0    0    0  0.30642202182E+02 -0.52005086127E+01 -0.27365539984E+01  0.93799381862E+02  0.88458156581E+02 0.  0.
         13    1    3    3    0    0  0.52209606601E+02 -0.30359304195E+02 -0.48826638592E+01  0.60591929685E+02  0.10566000000E+00 0.  1.
         22    1    1    0    0    0 -0.30642202182E+02  0.52005086127E+01  0.27365539984E+01  0.31200618138E+02  0.00000000000E+00 0.  1.
</event>
<event>
 5    1  0.1724243E-003  0.9118800E+02  0.7818608E-02  0.1130116E+00
         25   -1    0    0    0    0  0.00000000000E+00  0.00000000000E+00  0.99999998245E-14  0.12500000000E+03  0.12500000000E+03 0.  0.
        -13    1    3    3    0    0 -0.37560792316E+02 -0.24123591836E+01  0.42563742460E+02  0.56818271115E+02  0.10566000000E+00 0. -1.
         23    2    1    0    0    0 -0.33071154725E+02  0.14084353656E+02  0.25874844678E+02  0.80710296006E+02  0.67472764888E+02 0.  0.
         13    1    3    3    0    0  0.44896375915E+01  0.16496712840E+02 -0.16688897782E+02  0.23892024892E+02  0.10566000000E+00 0.  1.
         22    1    1    0    0    0  0.33071154725E+02 -0.14084353656E+02 -0.25874844678E+02  0.44289703994E+02  0.00000000000E+00 0. -1.
</event>
<event>
 5    1  0.1724243E-003  0.9118800E+02  0.7818608E-02  0.1130116E+00
         25   -1    0    0    0    0  0.00000000000E+00  0.00000000000E+00  0.99999998245E-14  0.12500000000E+03  0.12500000000E+03 0.  0.
        -13    1    3    3    0    0 -0.20865418301E+02 -0.29571295855E+02  0.20790041829E+02  0.41738042871E+02  0.10566000000E+00 0.  1.
         23    2    1    0    0    0 -0.24446057397E+02  0.15179145160E+02 -0.80782443157E+01  0.95112306860E+02  0.90294389166E+02 0.  0.
         13    1    3    3    0    0 -0.35806390959E+01  0.44750441015E+02 -0.28868286144E+02  0.53374263989E+02  0.10566000000E+00 0. -1.
         22    1    1    0    0    0  0.24446057397E+02 -0.15179145160E+02  0.80782443157E+01  0.29887693140E+02  0.00000000000E+00 0. -1.
</event>
<event>
 5    1  0.1724243E-003  0.9118800E+02  0.7818608E-02  0.1130116E+00
         25   -1    0    0    0    0  0.00000000000E+00  0.00000000000E+00  0.99999998245E-14  0.12500000000E+03  0.12500000000E+03 0.  0.
        -13    1    3    3    0    0  0.30766042242E+01 -0.39278426479E+02  0.34131691301E+02  0.52127188638E+02  0.10566000000E+00 0. -1.
         23    2    1    0    0    0  0.25058163116E+01  0.43288249670E+01  0.28457958927E+02  0.96105826413E+02  0.91659459977E+02 0.  0.
         13    1    3    3    0    0 -0.57078791257E+00  0.43607251446E+02 -0.56737323744E+01  0.43978637775E+02  0.10566000000E+00 0.  1.
         22    1    1    0    0    0 -0.25058163116E+01 -0.43288249670E+01 -0.28457958927E+02  0.28894173587E+02  0.00000000000E+00 0. -1.
</event>
<event>
 5    1  0.1724243E-003  0.9118800E+02  0.7818608E-02  0.1130116E+00
         25   -1    0    0    0    0  0.00000000000E+00  0.00000000000E+00  0.99999998245E-14  0.12500000000E+03  0.12500000000E+03 0.  0.
        -13    1    3    3    0    0  0.14893114531E+02 -0.45753719150E+02  0.22245560217E+02  0.53010223447E+02  0.10566000000E+00 0.  1.
         23    2    1    0    0    0 -0.86565348357E+01 -0.84786385641E+01  0.25032181127E+02  0.97189336591E+02  0.93125367907E+02 0.  0.
         13    1    3    3    0    0 -0.23549649367E+02  0.37275080586E+02  0.27866209101E+01  0.44179113144E+02  0.10566000000E+00 0. -1.
         22    1    1    0    0    0  0.86565348357E+01  0.84786385641E+01 -0.25032181127E+02  0.27810663409E+02  0.00000000000E+00 0. -1.
</event>
<event>
 5    1  0.1724243E-003  0.9118800E+02  0.7818608E-02  0.1130116E+00
         25   -1    0    0    0    0  0.00000000000E+00  0.00000000000E+00  0.99999998245E-14  0.12500000000E+03  0.12500000000E+03 0.  0.
        -13    1    3    3    0    0 -0.40058880826E+02  0.12732861950E+02 -0.19492196611E+02  0.46333536442E+02  0.10566000000E+00 0.  1.
         23    2    1    0    0    0 -0.91268296265E+00 -0.14844142755E+02 -0.26385600046E+02  0.94711694433E+02  0.89738083377E+02 0.  0.
         13    1    3    3    0    0  0.39146197863E+02 -0.27577004705E+02 -0.68934034353E+01  0.48378157991E+02  0.10566000000E+00 0. -1.
         22    1    1    0    0    0  0.91268296265E+00  0.14844142755E+02  0.26385600046E+02  0.30288305567E+02  0.00000000000E+00 0.  1.
</event>
<event>
 5    1  0.1724243E-003  0.9118800E+02  0.7818608E-02  0.1130116E+00
         25   -1    0    0    0    0  0.00000000000E+00  0.00000000000E+00  0.99999998245E-14  0.12500000000E+03  0.12500000000E+03 0.  0.
        -13    1    3    3    0    0 -0.56940739371E+01  0.48106764653E+02  0.18652111482E+02  0.51909495375E+02  0.10566000000E+00 0.  1.
         23    2    1    0    0    0  0.15345858361E+02  0.10118323276E+02  0.23005335911E+02  0.95553076304E+02  0.90902525136E+02 0.  0.
         13    1    3    3    0    0  0.21039932298E+02 -0.37988441376E+02  0.43532244295E+01  0.43643580929E+02  0.10566000000E+00 0. -1.
         22    1    1    0    0    0 -0.15345858361E+02 -0.10118323276E+02 -0.23005335911E+02  0.29446923696E+02  0.00000000000E+00 0.  1.
</event>
<event>
 5    1  0.1724243E-003  0.9118800E+02  0.7818608E-02  0.1130116E+00
         25   -1    0    0    0    0  0.00000000000E+00  0.00000000000E+00  0.99999998245E-14  0.12500000000E+03  0.12500000000E+03 0.  0.
        -13    1    3    3    0    0  0.49481207554E+01  0.14859255910E+02  0.38185422038E+02  0.41272496962E+02  0.10566000000E+00 0.  1.
         23    2    1    0    0    0  0.27066502380E+02  0.10517859268E+01 -0.10053554571E+02  0.96107513706E+02  0.91661760983E+02 0.  0.
         13    1    3    3    0    0  0.22118381625E+02 -0.13807469983E+02 -0.48238976609E+02  0.54835016744E+02  0.10566000000E+00 0. -1.
         22    1    1    0    0    0 -0.27066502380E+02 -0.10517859268E+01  0.10053554571E+02  0.28892486294E+02  0.00000000000E+00 0. -1.
</event>
<event>
 5    1  0.1724243E-003  0.9118800E+02  0.7818608E-02  0.1130116E+00
         25   -1    0    0    0    0  0.00000000000E+00  0.00000000000E+00  0.99999998245E-14  0.12500000000E+03  0.12500000000E+03 0.  0.
        -13    1    3    3    0    0 -0.11562251186E+02 -0.32598443483E+02 -0.29575844478E+02  0.45509184904E+02  0.10566000000E+00 0.  1.
         23    2    1    0    0    0 -0.10630212221E+02  0.16680059401E+02 -0.22068034522E+02  0.95365156637E+02  0.90643748595E+02 0.  0.
         13    1    3    3    0    0  0.93203896477E+00  0.49278502884E+02  0.75078099562E+01  0.49855971733E+02  0.10566000000E+00 0. -1.
         22    1    1    0    0    0  0.10630212221E+02 -0.16680059401E+02  0.22068034522E+02  0.29634843363E+02  0.00000000000E+00 0.  1.
</event>
<event>
 5    1  0.1724243E-003  0.9118800E+02  0.7818608E-02  0.1130116E+00
         25   -1    0    0    0    0  0.00000000000E+00  0.00000000000E+00  0.99999998245E-14  0.12500000000E+03  0.12500000000E+03 0.  0.
        -13    1    3    3    0    0  0.24028383409E+02  0.29306055662E+02 -0.48572487673E+02  0.61607676717E+02  0.10566000000E+00 0.  1.
         23    2    1    0    0    0  0.10588799595E+02  0.22658639278E+02 -0.24362049019E+02  0.90085160129E+02  0.83043904246E+02 0.  0.
         13    1    3    3    0    0 -0.13439583814E+02 -0.66474163838E+01  0.24210438654E+02  0.28477483413E+02  0.10566000000E+00 0. -1.
         22    1    1    0    0    0 -0.10588799595E+02 -0.22658639278E+02  0.24362049019E+02  0.34914839871E+02  0.00000000000E+00 0.  1.
</event>
<event>
 5    1  0.1724243E-003  0.9118800E+02  0.7818608E-02  0.1130116E+00
         25   -1    0    0    0    0  0.00000000000E+00  0.00000000000E+00  0.99999998245E-14  0.12500000000E+03  0.12500000000E+03 0.  0.
        -13    1    3    3    0    0 -0.45378090785E+02 -0.57090287453E+01  0.36420218618E+01  0.45880710760E+02  0.10566000000E+00 0. -1.
         23    2    1    0    0    0 -0.97212545476E+01 -0.85293844250E+01  0.31324977435E+02  0.91110364417E+02  0.84572992759E+02 0.  0.
         13    1    3    3    0    0  0.35656836238E+02 -0.28203556797E+01  0.27682955573E+02  0.45229653657E+02  0.10566000000E+00 0.  1.
         22    1    1    0    0    0  0.97212545476E+01  0.85293844250E+01 -0.31324977435E+02  0.33889635583E+02  0.00000000000E+00 0. -1.
</event>
<event>
 5    1  0.1724243E-003  0.9118800E+02  0.7818608E-02  0.1130116E+00
         25   -1    0    0    0    0  0.00000000000E+00  0.00000000000E+00  0.99999998245E-14  0.12500000000E+03  0.12500000000E+03 0.  0.
        -13    1    3    3    0    0  0.29442210534E+01 -0.49184857118E+01  0.40404376310E+02  0.40809125552E+02  0.10566000000E+00 0.  1.
         23    2    1    0    0    0  0.22877868139E+02 -0.97088080659E+01 -0.12234212396E+02  0.97299210163E+02  0.93272732032E+02 0.  0.
         13    1    3    3    0    0  0.19933647086E+02 -0.47903223541E+01 -0.52638588706E+02  0.56490084611E+02  0.10566000000E+00 0. -1.
         22    1    1    0    0    0 -0.22877868139E+02  0.97088080659E+01  0.12234212396E+02  0.27700789837E+02  0.00000000000E+00 0. -1.
</event>
<event>
 5    1  0.1724243E-003  0.9118800E+02  0.7818608E-02  0.1130116E+00
         25   -1    0    0    0    0  0.00000000000E+00  0.00000000000E+00  0.99999998245E-14  0.12500000000E+03  0.12500000000E+03 0.  0.
        -13    1    3    3    0    0 -0.44219725554E+02 -0.16082851845E+02  0.34380735433E+02  0.58275967469E+02  0.10566000000E+00 0. -1.
         23    2    1    0    0    0 -0.26791974004E+02 -0.94633000741E+01  0.93040883807E+00  0.96570621183E+02  0.92291144189E+02 0.  0.
         13    1    3    3    0    0  0.17427751550E+02  0.66195517705E+01 -0.33450326595E+02  0.38294653714E+02  0.10566000000E+00 0.  1.
         22    1    1    0    0    0  0.26791974004E+02  0.94633000741E+01 -0.93040883807E+00  0.28429378817E+02  0.00000000000E+00 0. -1.
</event>
<event>
 5    1  0.1724243E-003  0.9118800E+02  0.7818608E-02  0.1130116E+00
         25   -1    0    0    0    0  0.00000000000E+00  0.00000000000E+00  0.99999998245E-14  0.12500000000E+03  0.12500000000E+03 0.  0.
        -13    1    3    3    0    0 -0.33167208104E+02 -0.50404324678E+02  0.10474999330E+02  0.61240480196E+02  0.10566000000E+00 0. -1.
         23    2    1    0    0    0 -0.21397063904E+02 -0.19787635210E+02 -0.56628149319E+00  0.95850291157E+02  0.91310310421E+02 0.  0.
         13    1    3    3    0    0  0.11770144200E+02  0.30616689468E+02 -0.11041280823E+02  0.34609810961E+02  0.10566000000E+00 0.  1.
         22    1    1    0    0    0  0.21397063904E+02  0.19787635210E+02  0.56628149319E+00  0.29149708843E+02  0.00000000000E+00 0. -1.
</event>
<event>
 5    1  0.1724243E-003  0.9118800E+02  0.7818608E-02  0.1130116E+00
         25   -1    0    0    0    0  0.00000000000E+00  0.00000000000E+00  0.99999998245E-14  0.12500000000E+03  0.12500000000E+03 0.  0.
        -13    1    3    3    0    0  0.37377392174E+02  0.21004936631E+02  0.71275703270E+01  0.43463665646E+02  0.10566000000E+00 0. -1.
         23    2    1    0    0    0 -0.95576217244E+01  0.22542532997E+02 -0.15939929598E+02  0.95783647002E+02  0.91219031734E+02 0.  0.
         13    1    3    3    0    0 -0.46935013898E+02  0.15375963656E+01 -0.23067499925E+02  0.52319981355E+02  0.10566000000E+00 0.  1.
         22    1    1    0    0    0  0.95576217244E+01 -0.22542532997E+02  0.15939929598E+02  0.29216352998E+02  0.00000000000E+00 0.  1.
</event>
<event>
 5    1  0.1724243E-003  0.9118800E+02  0.7818608E-02  0.1130116E+00
         25   -1    0    0    0    0  0.00000000000E+00  0.00000000000E+00  0.99999998245E-14  0.12500000000E+03  0.12500000000E+03 0.  0.
        -13    1    3    3    0    0 -0.34468748612E+02 -0.17594211204E+02 -0.16638639846E+02  0.42124890489E+02  0.10566000000E+00 0.  1.
         23    2    1    0    0    0  0.10514534362E+01  0.20726267480E+02 -0.22127628089E+02  0.94663295452E+02  0.89670641032E+02 0.  0.
         13    1    3    3    0    0  0.35520202048E+02  0.38320478683E+02 -0.54889882432E+01  0.52538404963E+02  0.10566000000E+00 0. -1.
         22    1    1    0    0    0 -0.10514534362E+01 -0.20726267480E+02  0.22127628089E+02  0.30336704548E+02  0.00000000000E+00 0.  1.
</event>
<event>
 5    1  0.1724243E-003  0.9118800E+02  0.7818608E-02  0.1130116E+00
         25   -1    0    0    0    0  0.00000000000E+00  0.00000000000E+00  0.99999998245E-14  0.12500000000E+03  0.12500000000E+03 0.  0.
        -13    1    3    3    0    0  0.12038798060E+02 -0.18806384497E+02  0.51265875966E+02  0.55917921628E+02  0.10566000000E+00 0. -1.
         23    2    1    0    0    0 -0.12731781633E+01 -0.24742579460E+02  0.12673108904E+02  0.97171526986E+02  0.93101459423E+02 0.  0.
         13    1    3    3    0    0 -0.13311976223E+02 -0.59361949627E+01 -0.38592767061E+02  0.41253605359E+02  0.10566000000E+00 0.  1.
         22    1    1    0    0    0  0.12731781633E+01  0.24742579460E+02 -0.12673108904E+02  0.27828473014E+02  0.00000000000E+00 0. -1.
</event>
<event>
 5    1  0.1724243E-003  0.9118800E+02  0.7818608E-02  0.1130116E+00
         25   -1    0    0    0    0  0.00000000000E+00  0.00000000000E+00  0.99999998245E-14  0.12500000000E+03  0.12500000000E+03 0.  0.
        -13    1    3    3    0    0 -0.40473756520E+02 -0.11754578393E+02 -0.26135658425E+02  0.49592125236E+02  0.10566000000E+00 0. -1.
         23    2    1    0    0    0 -0.53182850057E+01 -0.28561380677E+02 -0.10627560858E+01  0.95928259906E+02  0.91416984070E+02 0.  0.
         13    1    3    3    0    0  0.35155471514E+02 -0.16806802284E+02  0.25072902339E+02  0.46336134670E+02  0.10566000000E+00 0.  1.
         22    1    1    0    0    0  0.53182850057E+01  0.28561380677E+02  0.10627560858E+01  0.29071740094E+02  0.00000000000E+00 0.  1.
</event>
<event>
 5    1  0.1724243E-003  0.9118800E+02  0.7818608E-02  0.1130116E+00
         25   -1    0    0    0    0  0.00000000000E+00  0.00000000000E+00  0.99999998245E-14  0.12500000000E+03  0.12500000000E+03 0.  0.
        -13    1    3    3    0    0  0.49890343891E+02  0.29056921151E+02 -0.22556504329E+02  0.61985144445E+02  0.10566000000E+00 0.  1.
         23    2    1    0    0    0  0.21022896575E+02  0.18317376789E+02 -0.13005460954E+02  0.94232639251E+02  0.89068287357E+02 0.  0.
         13    1    3    3    0    0 -0.28867447316E+02 -0.10739544362E+02  0.95510433747E+01  0.32247494806E+02  0.10566000000E+00 0. -1.
         22    1    1    0    0    0 -0.21022896575E+02 -0.18317376789E+02  0.13005460954E+02  0.30767360749E+02  0.00000000000E+00 0.  1.
</event>
<event>
 5    1  0.1724243E-003  0.9118800E+02  0.7818608E-02  0.1130116E+00
         25   -1    0    0    0    0  0.00000000000E+00  0.00000000000E+00  0.99999998245E-14  0.12500000000E+03  0.12500000000E+03 0.  0.
        -13    1    3    3    0    0  0.43591643397E+02 -0.50781577149E+01  0.21463898388E+02  0.48854162135E+02  0.10566000000E+00 0.  1.
         23    2    1    0    0    0  0.77344169803E+01 -0.82074427932E+01  0.35700136997E+02  0.87560941453E+02  0.79153239753E+02 0.  0.
         13    1    3    3    0    0 -0.35857226417E+02 -0.31292850783E+01  0.14236238609E+02  0.38706779318E+02  0.10566000000E+00 0. -1.
         22    1    1    0    0    0 -0.77344169803E+01  0.82074427932E+01 -0.35700136997E+02  0.37439058547E+02  0.00000000000E+00 0.  1.
</event>
<event>
 5    1  0.1724243E-003  0.9118800E+02  0.7818608E-02  0.1130116E+00
         25   -1    0    0    0    0  0.00000000000E+00  0.00000000000E+00  0.99999998245E-14  0.12500000000E+03  0.12500000000E+03 0.  0.
        -13    1    3    3    0    0  0.30663657584E+02  0.32143653389E+02 -0.23374046739E+02  0.50197924007E+02  0.10566000000E+00 0. -1.
         23    2    1    0    0    0 -0.12937775091E+02  0.23169388029E+02 -0.83503488564E+01  0.97180314668E+02  0.93113257204E+02 0.  0.
         13    1    3    3    0    0 -0.43601432675E+02 -0.89742653607E+01  0.15023697883E+02  0.46982390661E+02  0.10566000000E+00 0.  1.
         22    1    1    0    0    0  0.12937775091E+02 -0.23169388029E+02  0.83503488564E+01  0.27819685332E+02  0.00000000000E+00 0. -1.
</event>
<event>
 5    1  0.1724243E-003  0.9118800E+02  0.7818608E-02  0.1130116E+00
         25   -1    0    0    0    0  0.00000000000E+00  0.00000000000E+00  0.99999998245E-14  0.12500000000E+03  0.12500000000E+03 0.  0.
        -13    1    3    3    0    0  0.26572491517E+02  0.38513038358E+01  0.20815977096E+02  0.33974194812E+02  0.10566000000E+00 0. -1.
         23    2    1    0    0    0 -0.15541453554E+02 -0.21371093804E+02 -0.14883677065E+02  0.94672054604E+02  0.89682850374E+02 0.  0.
         13    1    3    3    0    0 -0.42113945071E+02 -0.25222397640E+02 -0.35699654161E+02  0.60697859792E+02  0.10566000000E+00 0.  1.
         22    1    1    0    0    0  0.15541453554E+02  0.21371093804E+02  0.14883677065E+02  0.30327945396E+02  0.00000000000E+00 0.  1.
</event>
<event>
 5    1  0.1724243E-003  0.9118800E+02  0.7818608E-02  0.1130116E+00
         25   -1    0    0    0    0  0.00000000000E+00  0.00000000000E+00  0.99999998245E-14  0.12500000000E+03  0.12500000000E+03 0.  0.
        -13    1    3    3    0    0  0.30032458342E+02  0.10255536122E+02  0.24177982091E+02  0.39896247408E+02  0.10566000000E+00 0. -1.
         23    2    1    0    0    0 -0.39126967053E+01  0.26439465155E+02 -0.15122906178E+02  0.94290770045E+02  0.89149831807E+02 0.  0.
         13    1    3    3    0    0 -0.33945155047E+02  0.16183929033E+02 -0.39300888269E+02  0.54394522637E+02  0.10566000000E+00 0.  1.
         22    1    1    0    0    0  0.39126967053E+01 -0.26439465155E+02  0.15122906178E+02  0.30709229955E+02  0.00000000000E+00 0. -1.
</event>
<event>
 5    1  0.1724243E-003  0.9118800E+02  0.7818608E-02  0.1130116E+00
         25   -1    0    0    0    0  0.00000000000E+00  0.00000000000E+00  0.99999998245E-14  0.12500000000E+03  0.12500000000E+03 0.  0.
        -13    1    3    3    0    0 -0.49716865218E+02 -0.13996778492E+02  0.81998258905E+01  0.52296508525E+02  0.10566000000E+00 0. -1.
         23    2    1    0    0    0 -0.24685097470E+02  0.14310684641E+02 -0.10674007378E+02  0.94535526174E+02  0.89492354664E+02 0.  0.
         13    1    3    3    0    0  0.25031767748E+02  0.28307463133E+02 -0.18873833268E+02  0.42239017648E+02  0.10566000000E+00 0.  1.
         22    1    1    0    0    0  0.24685097470E+02 -0.14310684641E+02  0.10674007378E+02  0.30464473826E+02  0.00000000000E+00 0. -1.
</event>
<event>
 5    1  0.1724243E-003  0.9118800E+02  0.7818608E-02  0.1130116E+00
         25   -1    0    0    0    0  0.00000000000E+00  0.00000000000E+00  0.99999998245E-14  0.12500000000E+03  0.12500000000E+03 0.  0.
        -13    1    3    3    0    0  0.33945947158E+02 -0.98999991057E+01  0.49856503071E+02  0.61122985637E+02  0.10566000000E+00 0.  1.
         23    2    1    0    0    0  0.70505942890E+01 -0.97869259442E+01  0.93830071540E+01  0.10971812765E+03  0.10864866273E+03 0.  0.
         13    1    3    3    0    0 -0.26895352869E+02  0.11307316150E+00 -0.40473495917E+02  0.48595142013E+02  0.10566000000E+00 0. -1.
         22    1    1    0    0    0 -0.70505942890E+01  0.97869259442E+01 -0.93830071540E+01  0.15281872350E+02  0.00000000000E+00 0.  1.
</event>
<event>
 5    1  0.1724243E-003  0.9118800E+02  0.7818608E-02  0.1130116E+00
         25   -1    0    0    0    0  0.00000000000E+00  0.00000000000E+00  0.99999998245E-14  0.12500000000E+03  0.12500000000E+03 0.  0.
        -13    1    3    3    0    0  0.33527242462E+02 -0.94093868903E+01 -0.26366871195E+02  0.43678777563E+02  0.10566000000E+00 0.  1.
         23    2    1    0    0    0 -0.15558924414E+02 -0.21325196917E+02 -0.98963199680E+01  0.96808134127E+02  0.92612275276E+02 0.  0.
         13    1    3    3    0    0 -0.49086166876E+02 -0.11915810027E+02  0.16470551227E+02  0.53129356564E+02  0.10566000000E+00 0. -1.
         22    1    1    0    0    0  0.15558924414E+02  0.21325196917E+02  0.98963199680E+01  0.28191865873E+02  0.00000000000E+00 0.  1.
</event>
<event>
 5    1  0.1724243E-003  0.9118800E+02  0.7818608E-02  0.1130116E+00
         25   -1    0    0    0    0  0.00000000000E+00  0.00000000000E+00  0.99999998245E-14  0.12500000000E+03  0.12500000000E+03 0.  0.
        -13    1    3    3    0    0 -0.40338232615E+02 -0.13932110460E+02  0.16318514901E+02  0.45690062432E+02  0.10566000000E+00 0.  1.
         23    2    1    0    0    0  0.19844893043E+01 -0.28320009438E+02 -0.64956141316E+01  0.95876914049E+02  0.91346748778E+02 0.  0.
         13    1    3    3    0    0  0.42322721920E+02 -0.14387898977E+02 -0.22814129033E+02  0.50186851617E+02  0.10566000000E+00 0. -1.
         22    1    1    0    0    0 -0.19844893043E+01  0.28320009438E+02  0.64956141316E+01  0.29123085951E+02  0.00000000000E+00 0. -1.
</event>
<event>
 5    1  0.1724243E-003  0.9118800E+02  0.7818608E-02  0.1130116E+00
         25   -1    0    0    0    0  0.00000000000E+00  0.00000000000E+00  0.99999998245E-14  0.12500000000E+03  0.12500000000E+03 0.  0.
        -13    1    3    3    0    0 -0.25521064056E+02 -0.36936139549E+01  0.56048912749E+02  0.61696509455E+02  0.10566000000E+00 0.  1.
         23    2    1    0    0    0 -0.16883959683E+02  0.11442347266E+01  0.21482914216E+02  0.97652368094E+02  0.93744823982E+02 0.  0.
         13    1    3    3    0    0  0.86371043732E+01  0.48378486815E+01 -0.34565998533E+02  0.35955858639E+02  0.10566000000E+00 0. -1.
         22    1    1    0    0    0  0.16883959683E+02 -0.11442347266E+01 -0.21482914216E+02  0.27347631906E+02  0.00000000000E+00 0.  1.
</event>
<event>
 5    1  0.1724243E-003  0.9118800E+02  0.7818608E-02  0.1130116E+00
         25   -1    0    0    0    0  0.00000000000E+00  0.00000000000E+00  0.99999998245E-14  0.12500000000E+03  0.12500000000E+03 0.  0.
        -13    1    3    3    0    0  0.38282746386E+01  0.18490283539E+01 -0.41672242813E+02  0.41888680782E+02  0.10566000000E+00 0.  1.
         23    2    1    0    0    0 -0.29445887367E+02 -0.41945762582E+01 -0.39050226691E+00  0.95254290312E+02  0.90490732000E+02 0.  0.
         13    1    3    3    0    0 -0.33274162006E+02 -0.60436046121E+01  0.41281740546E+02  0.53365609530E+02  0.10566000000E+00 0. -1.
         22    1    1    0    0    0  0.29445887367E+02  0.41945762582E+01  0.39050226691E+00  0.29745709688E+02  0.00000000000E+00 0. -1.
</event>
<event>
 5    1  0.1724243E-003  0.9118800E+02  0.7818608E-02  0.1130116E+00
         25   -1    0    0    0    0  0.00000000000E+00  0.00000000000E+00  0.99999998245E-14  0.12500000000E+03  0.12500000000E+03 0.  0.
        -13    1    3    3    0    0 -0.41697039820E+02  0.33063975411E+02  0.21707525595E+01  0.53259674524E+02  0.10566000000E+00 0. -1.
         23    2    1    0    0    0 -0.28682655036E+02 -0.68814428666E+01 -0.17311969826E+01  0.95452648193E+02  0.90764321449E+02 0.  0.
         13    1    3    3    0    0  0.13014384784E+02 -0.39945418278E+02 -0.39019495421E+01  0.42192973668E+02  0.10566000000E+00 0.  1.
         22    1    1    0    0    0  0.28682655036E+02  0.68814428666E+01  0.17311969826E+01  0.29547351807E+02  0.00000000000E+00 0. -1.
</event>
<event>
 5    1  0.1724243E-003  0.9118800E+02  0.7818608E-02  0.1130116E+00
         25   -1    0    0    0    0  0.00000000000E+00  0.00000000000E+00  0.99999998245E-14  0.12500000000E+03  0.12500000000E+03 0.  0.
        -13    1    3    3    0    0  0.63538208849E+01 -0.19832328933E+02 -0.37844054442E+02  0.43195786037E+02  0.10566000000E+00 0. -1.
         23    2    1    0    0    0  0.22058426353E+02 -0.12727476851E+02  0.12659636505E+02  0.96560076713E+02  0.92276861553E+02 0.  0.
         13    1    3    3    0    0  0.15704605468E+02  0.71048520823E+01  0.50503690946E+02  0.53364290675E+02  0.10566000000E+00 0.  1.
         22    1    1    0    0    0 -0.22058426353E+02  0.12727476851E+02 -0.12659636505E+02  0.28439923287E+02  0.00000000000E+00 0.  1.
</event>
<event>
 5    1  0.1724243E-003  0.9118800E+02  0.7818608E-02  0.1130116E+00
         25   -1    0    0    0    0  0.00000000000E+00  0.00000000000E+00  0.99999998245E-14  0.12500000000E+03  0.12500000000E+03 0.  0.
        -13    1    3    3    0    0 -0.50855969029E+01  0.29850893541E+02  0.17220453537E+02  0.34835245444E+02  0.10566000000E+00 0. -1.
         23    2    1    0    0    0  0.52640098239E+01 -0.28632098793E+02  0.58896905962E+01  0.95298226719E+02  0.90551403521E+02 0.  0.
         13    1    3    3    0    0  0.10349606727E+02 -0.58482992334E+02 -0.11330762941E+02  0.60462981275E+02  0.10566000000E+00 0.  1.
         22    1    1    0    0    0 -0.52640098239E+01  0.28632098793E+02 -0.58896905962E+01  0.29701773281E+02  0.00000000000E+00 0.  1.
</event>
<event>
 5    1  0.1724243E-003  0.9118800E+02  0.7818608E-02  0.1130116E+00
         25   -1    0    0    0    0  0.00000000000E+00  0.00000000000E+00  0.99999998245E-14  0.12500000000E+03  0.12500000000E+03 0.  0.
        -13    1    3    3    0    0  0.29084744237E+02  0.13918019645E+02 -0.19513585337E+02  0.37688523385E+02  0.10566000000E+00 0. -1.
         23    2    1    0    0    0 -0.20483711047E+02 -0.14728096831E+02 -0.16163981002E+02  0.95037130706E+02  0.90190258212E+02 0.  0.
         13    1    3    3    0    0 -0.49568455284E+02 -0.28646116477E+02  0.33496043350E+01  0.57348607321E+02  0.10566000000E+00 0.  1.
         22    1    1    0    0    0  0.20483711047E+02  0.14728096831E+02  0.16163981002E+02  0.29962869294E+02  0.00000000000E+00 0.  1.
</event>
<event>
 5    1  0.1724243E-003  0.9118800E+02  0.7818608E-02  0.1130116E+00
         25   -1    0    0    0    0  0.00000000000E+00  0.00000000000E+00  0.99999998245E-14  0.12500000000E+03  0.12500000000E+03 0.  0.
        -13    1    3    3    0    0  0.20765077818E+02  0.35735560955E+02  0.67303000997E+01  0.41875134352E+02  0.10566000000E+00 0. -1.
         23    2    1    0    0    0 -0.26931516766E+02  0.14971094004E+02  0.16572767798E+01  0.94142475515E+02  0.88941659974E+02 0.  0.
         13    1    3    3    0    0 -0.47696594584E+02 -0.20764466951E+02 -0.50730233198E+01  0.52267341163E+02  0.10566000000E+00 0.  1.
         22    1    1    0    0    0  0.26931516766E+02 -0.14971094004E+02 -0.16572767798E+01  0.30857524485E+02  0.00000000000E+00 0.  1.
</event>
<event>
 5    1  0.1724243E-003  0.9118800E+02  0.7818608E-02  0.1130116E+00
         25   -1    0    0    0    0  0.00000000000E+00  0.00000000000E+00  0.99999998245E-14  0.12500000000E+03  0.12500000000E+03 0.  0.
        -13    1    3    3    0    0 -0.19072433427E+01  0.10573711423E+02  0.41066657771E+02  0.42449057645E+02  0.10566000000E+00 0.  1.
         23    2    1    0    0    0  0.24804917246E+02 -0.14729085381E+02  0.20489517022E+01  0.96078933650E+02  0.91622777803E+02 0.  0.
         13    1    3    3    0    0  0.26712160589E+02 -0.25302796804E+02 -0.39017706068E+02  0.53629876005E+02  0.10566000000E+00 0. -1.
         22    1    1    0    0    0 -0.24804917246E+02  0.14729085381E+02 -0.20489517022E+01  0.28921066350E+02  0.00000000000E+00 0. -1.
</event>
<event>
 5    1  0.1724243E-003  0.9118800E+02  0.7818608E-02  0.1130116E+00
         25   -1    0    0    0    0  0.00000000000E+00  0.00000000000E+00  0.99999998245E-14  0.12500000000E+03  0.12500000000E+03 0.  0.
        -13    1    3    3    0    0  0.34341493208E+02 -0.23665145047E+02  0.66234818972E-01  0.41706028305E+02  0.10566000000E+00 0.  1.
         23    2    1    0    0    0  0.23954230670E+01  0.11206650449E+02 -0.26626787993E+02  0.96011848890E+02  0.91531209008E+02 0.  0.
         13    1    3    3    0    0 -0.31946070141E+02  0.34871795496E+02 -0.26693022812E+02  0.54305820585E+02  0.10566000000E+00 0. -1.
         22    1    1    0    0    0 -0.23954230670E+01 -0.11206650449E+02  0.26626787993E+02  0.28988151110E+02  0.00000000000E+00 0. -1.
</event>
<event>
 5    1  0.1724243E-003  0.9118800E+02  0.7818608E-02  0.1130116E+00
         25   -1    0    0    0    0  0.00000000000E+00  0.00000000000E+00  0.99999998245E-14  0.12500000000E+03  0.12500000000E+03 0.  0.
        -13    1    3    3    0    0 -0.86636896017E+01  0.19919204658E+02  0.42673715240E+02  0.47884145269E+02  0.10566000000E+00 0.  1.
         23    2    1    0    0    0  0.17460896281E+02 -0.12619409598E+02  0.21037814117E+02  0.94888174742E+02  0.89983574532E+02 0.  0.
         13    1    3    3    0    0  0.26124585883E+02 -0.32538614257E+02 -0.21635901123E+02  0.47004029473E+02  0.10566000000E+00 0. -1.
         22    1    1    0    0    0 -0.17460896281E+02  0.12619409598E+02 -0.21037814117E+02  0.30111825258E+02  0.00000000000E+00 0. -1.
</event>
<event>
 5    1  0.1724243E-003  0.9118800E+02  0.7818608E-02  0.1130116E+00
         25   -1    0    0    0    0  0.00000000000E+00  0.00000000000E+00  0.99999998245E-14  0.12500000000E+03  0.12500000000E+03 0.  0.
        -13    1    3    3    0    0  0.26954185486E+02  0.73681304467E+01  0.27718161739E+02  0.39358926760E+02  0.10566000000E+00 0. -1.
         23    2    1    0    0    0 -0.21917266457E+02  0.20808600055E+02  0.80778950209E+01  0.93717148577E+02  0.88341876504E+02 0.  0.
         13    1    3    3    0    0 -0.48871451943E+02  0.13440469608E+02 -0.19640266718E+02  0.54358221817E+02  0.10566000000E+00 0.  1.
         22    1    1    0    0    0  0.21917266457E+02 -0.20808600055E+02 -0.80778950209E+01  0.31282851423E+02  0.00000000000E+00 0.  1.
</event>
<event>
 5    1  0.1724243E-003  0.9118800E+02  0.7818608E-02  0.1130116E+00
         25   -1    0    0    0    0  0.00000000000E+00  0.00000000000E+00  0.99999998245E-14  0.12500000000E+03  0.12500000000E+03 0.  0.
        -13    1    3    3    0    0 -0.35907224977E+01 -0.31484216093E+02 -0.52194937974E+02  0.61061214082E+02  0.10566000000E+00 0. -1.
         23    2    1    0    0    0 -0.80374957679E+01 -0.79108924686E+01 -0.26426475517E+02  0.96267750417E+02  0.91880017437E+02 0.  0.
         13    1    3    3    0    0 -0.44467732701E+01  0.23573323625E+02  0.25768462457E+02  0.35206536334E+02  0.10566000000E+00 0.  1.
         22    1    1    0    0    0  0.80374957679E+01  0.79108924686E+01  0.26426475517E+02  0.28732249583E+02  0.00000000000E+00 0. -1.
</event>
<event>
 5    1  0.1724243E-003  0.9118800E+02  0.7818608E-02  0.1130116E+00
         25   -1    0    0    0    0  0.00000000000E+00  0.00000000000E+00  0.99999998245E-14  0.12500000000E+03  0.12500000000E+03 0.  0.
        -13    1    3    3    0    0 -0.22792547441E+02  0.26555147966E+02 -0.58301519550E+01  0.35477851375E+02  0.10566000000E+00 0.  1.
         23    2    1    0    0    0 -0.12691948426E+01 -0.90810134039E+01 -0.36614366495E+02  0.87254967296E+02  0.78668556769E+02 0.  0.
         13    1    3    3    0    0  0.21523352598E+02 -0.35636161370E+02 -0.30784214540E+02  0.51777115921E+02  0.10566000000E+00 0. -1.
         22    1    1    0    0    0  0.12691948426E+01  0.90810134039E+01  0.36614366495E+02  0.37745032704E+02  0.00000000000E+00 0. -1.
</event>
<event>
 5    1  0.1724243E-003  0.9118800E+02  0.7818608E-02  0.1130116E+00
         25   -1    0    0    0    0  0.00000000000E+00  0.00000000000E+00  0.99999998245E-14  0.12500000000E+03  0.12500000000E+03 0.  0.
        -13    1    3    3    0    0 -0.18013568886E+02  0.74679238317E+01  0.60418766392E+01  0.20415043172E+02  0.10566000000E+00 0.  1.
         23    2    1    0    0    0  0.18550404632E+02  0.62797463080E+01  0.46249416795E+02  0.74774893932E+02  0.55396060176E+02 0.  0.
         13    1    3    3    0    0  0.36563973518E+02 -0.11881775237E+01  0.40207540155E+02  0.54359850760E+02  0.10566000000E+00 0. -1.
         22    1    1    0    0    0 -0.18550404632E+02 -0.62797463080E+01 -0.46249416795E+02  0.50225106068E+02  0.00000000000E+00 0. -1.
</event>
<event>
 5    1  0.1724243E-003  0.9118800E+02  0.7818608E-02  0.1130116E+00
         25   -1    0    0    0    0  0.00000000000E+00  0.00000000000E+00  0.99999998245E-14  0.12500000000E+03  0.12500000000E+03 0.  0.
        -13    1    3    3    0    0  0.38319478505E+02  0.23271387846E+02 -0.13832065167E+02  0.46917769725E+02  0.10566000000E+00 0. -1.
         23    2    1    0    0    0  0.13393023998E+02  0.38552776007E+01  0.24633942923E+02  0.96696865878E+02  0.92461973100E+02 0.  0.
         13    1    3    3    0    0 -0.24926454507E+02 -0.19416110245E+02  0.38466008090E+02  0.49779096153E+02  0.10566000000E+00 0.  1.
         22    1    1    0    0    0 -0.13393023998E+02 -0.38552776007E+01 -0.24633942923E+02  0.28303134122E+02  0.00000000000E+00 0.  1.
</event>
<event>
 5    1  0.1724243E-003  0.9118800E+02  0.7818608E-02  0.1130116E+00
         25   -1    0    0    0    0  0.00000000000E+00  0.00000000000E+00  0.99999998245E-14  0.12500000000E+03  0.12500000000E+03 0.  0.
        -13    1    3    3    0    0 -0.42358943708E+02 -0.15312048906E+02 -0.40530298287E+02  0.60592534169E+02  0.10566000000E+00 0. -1.
         23    2    1    0    0    0 -0.13407784934E+02 -0.91600160022E+00 -0.25341658982E+02  0.96315379805E+02  0.91944792953E+02 0.  0.
         13    1    3    3    0    0  0.28951158774E+02  0.14396047306E+02  0.15188639305E+02  0.35722845636E+02  0.10566000000E+00 0.  1.
         22    1    1    0    0    0  0.13407784934E+02  0.91600160022E+00  0.25341658982E+02  0.28684620195E+02  0.00000000000E+00 0. -1.
</event>
<event>
 5    1  0.1724243E-003  0.9118800E+02  0.7818608E-02  0.1130116E+00
         25   -1    0    0    0    0  0.00000000000E+00  0.00000000000E+00  0.99999998245E-14  0.12500000000E+03  0.12500000000E+03 0.  0.
        -13    1    3    3    0    0  0.21027247659E+02 -0.19862033875E+02  0.21420288301E+02  0.35992852745E+02  0.10566000000E+00 0. -1.
         23    2    1    0    0    0 -0.14634810031E+02 -0.14313864182E+02 -0.23642177209E+02  0.93726738007E+02  0.88355444098E+02 0.  0.
         13    1    3    3    0    0 -0.35662057690E+02  0.55481696937E+01 -0.45062465510E+02  0.57733885263E+02  0.10566000000E+00 0.  1.
         22    1    1    0    0    0  0.14634810031E+02  0.14313864182E+02  0.23642177209E+02  0.31273261993E+02  0.00000000000E+00 0.  1.
</event>
<event>
 5    1  0.1724243E-003  0.9118800E+02  0.7818608E-02  0.1130116E+00
         25   -1    0    0    0    0  0.00000000000E+00  0.00000000000E+00  0.99999998245E-14  0.12500000000E+03  0.12500000000E+03 0.  0.
        -13    1    3    3    0    0  0.38929382319E+02 -0.52681987451E+00 -0.37250871421E+02  0.53883327037E+02  0.10566000000E+00 0.  1.
         23    2    1    0    0    0  0.19830969753E+02  0.22375193939E+02 -0.12674676941E+02  0.92525947270E+02  0.86639983942E+02 0.  0.
         13    1    3    3    0    0 -0.19098412566E+02  0.22902013814E+02  0.24576194480E+02  0.38642620232E+02  0.10566000000E+00 0. -1.
         22    1    1    0    0    0 -0.19830969753E+02 -0.22375193939E+02  0.12674676941E+02  0.32474052730E+02  0.00000000000E+00 0.  1.
</event>
<event>
 5    1  0.1724243E-003  0.9118800E+02  0.7818608E-02  0.1130116E+00
         25   -1    0    0    0    0  0.00000000000E+00  0.00000000000E+00  0.99999998245E-14  0.12500000000E+03  0.12500000000E+03 0.  0.
        -13    1    3    3    0    0  0.36726745238E+02  0.38684782258E+02  0.13735097507E+02  0.55082032114E+02  0.10566000000E+00 0. -1.
         23    2    1    0    0    0  0.26973727361E+02 -0.10468108215E+01  0.78296373216E+00  0.97994615114E+02  0.94200073134E+02 0.  0.
         13    1    3    3    0    0 -0.97530178771E+01 -0.39731593080E+02 -0.12952133775E+02  0.42912583000E+02  0.10566000000E+00 0.  1.
         22    1    1    0    0    0 -0.26973727361E+02  0.10468108215E+01 -0.78296373216E+00  0.27005384886E+02  0.00000000000E+00 0. -1.
</event>
<event>
 5    1  0.1724243E-003  0.9118800E+02  0.7818608E-02  0.1130116E+00
         25   -1    0    0    0    0  0.00000000000E+00  0.00000000000E+00  0.99999998245E-14  0.12500000000E+03  0.12500000000E+03 0.  0.
        -13    1    3    3    0    0  0.43082647465E+02 -0.47571153503E+01  0.14960512765E+02  0.45853819528E+02  0.10566000000E+00 0.  1.
         23    2    1    0    0    0 -0.20236917410E+01 -0.20555364250E+02  0.22744412228E+02  0.94276611266E+02  0.89129977093E+02 0.  0.
         13    1    3    3    0    0 -0.45106339206E+02 -0.15798248900E+02  0.77838994624E+01  0.48422791738E+02  0.10566000000E+00 0. -1.
         22    1    1    0    0    0  0.20236917410E+01  0.20555364250E+02 -0.22744412228E+02  0.30723388734E+02  0.00000000000E+00 0. -1.
</event>
<event>
 5    1  0.1724243E-003  0.9118800E+02  0.7818608E-02  0.1130116E+00
         25   -1    0    0    0    0  0.00000000000E+00  0.00000000000E+00  0.99999998245E-14  0.12500000000E+03  0.12500000000E+03 0.  0.
        -13    1    3    3    0    0  0.11252514258E+02  0.26536196067E+02 -0.13077337356E+02  0.31651488041E+02  0.10566000000E+00 0.  1.
         23    2    1    0    0    0 -0.33337565103E+02 -0.60276660780E+01  0.70052188207E+01  0.90405215768E+02  0.83524271574E+02 0.  0.
         13    1    3    3    0    0 -0.44590079361E+02 -0.32563862145E+02  0.20082556177E+02  0.58753727727E+02  0.10566000000E+00 0. -1.
         22    1    1    0    0    0  0.33337565103E+02  0.60276660780E+01 -0.70052188207E+01  0.34594784232E+02  0.00000000000E+00 0. -1.
</event>
<event>
 5    1  0.1724243E-003  0.9118800E+02  0.7818608E-02  0.1130116E+00
         25   -1    0    0    0    0  0.00000000000E+00  0.00000000000E+00  0.99999998245E-14  0.12500000000E+03  0.12500000000E+03 0.  0.
        -13    1    3    3    0    0 -0.21478449656E+02  0.23374885086E+01  0.40941851688E+02  0.46292915612E+02  0.10566000000E+00 0.  1.
         23    2    1    0    0    0 -0.18552541496E+02 -0.26863160921E+02  0.62024123854E+01  0.91769048614E+02  0.85540996916E+02 0.  0.
         13    1    3    3    0    0  0.29259081603E+01 -0.29200649430E+02 -0.34739439303E+02  0.45476133002E+02  0.10566000000E+00 0. -1.
         22    1    1    0    0    0  0.18552541496E+02  0.26863160921E+02 -0.62024123854E+01  0.33230951386E+02  0.00000000000E+00 0.  1.
</event>
<event>
 5    1  0.1724243E-003  0.9118800E+02  0.7818608E-02  0.1130116E+00
         25   -1    0    0    0    0  0.00000000000E+00  0.00000000000E+00  0.99999998245E-14  0.12500000000E+03  0.12500000000E+03 0.  0.
        -13    1    3    3    0    0  0.19228061885E+02  0.29816748090E+02  0.16951422664E+02  0.39320716230E+02  0.10566000000E+00 0. -1.
         23    2    1    0    0    0 -0.13387016211E+02 -0.14187023562E+02  0.23472366039E+02  0.94480566714E+02  0.89415556133E+02 0.  0.
         13    1    3    3    0    0 -0.32615078096E+02 -0.44003771653E+02  0.65209433754E+01  0.55159850484E+02  0.10566000000E+00 0.  1.
         22    1    1    0    0    0  0.13387016211E+02  0.14187023562E+02 -0.23472366039E+02  0.30519433286E+02  0.00000000000E+00 0.  1.
</event>
<event>
 5    1  0.1724243E-003  0.9118800E+02  0.7818608E-02  0.1130116E+00
         25   -1    0    0    0    0  0.00000000000E+00  0.00000000000E+00  0.99999998245E-14  0.12500000000E+03  0.12500000000E+03 0.  0.
        -13    1    3    3    0    0  0.32978911672E+02 -0.38077444858E+02  0.12416296632E+02  0.51881364748E+02  0.10566000000E+00 0. -1.
         23    2    1    0    0    0 -0.11435235125E+02 -0.19821691200E+02  0.10182541930E+02  0.99953079939E+02  0.96763991158E+02 0.  0.
         13    1    3    3    0    0 -0.44414146797E+02  0.18255753658E+02 -0.22337547019E+01  0.48071715191E+02  0.10566000000E+00 0.  1.
         22    1    1    0    0    0  0.11435235125E+02  0.19821691200E+02 -0.10182541930E+02  0.25046920061E+02  0.00000000000E+00 0. -1.
</event>
<event>
 5    1  0.1724243E-003  0.9118800E+02  0.7818608E-02  0.1130116E+00
         25   -1    0    0    0    0  0.00000000000E+00  0.00000000000E+00  0.99999998245E-14  0.12500000000E+03  0.12500000000E+03 0.  0.
        -13    1    3    3    0    0 -0.47170471488E+02 -0.37090014344E+02  0.13887143993E+02  0.61592097519E+02  0.10566000000E+00 0. -1.
         23    2    1    0    0    0 -0.20293167333E+02 -0.21388340380E+02  0.40621253980E+00  0.95513753151E+02  0.90848435803E+02 0.  0.
         13    1    3    3    0    0  0.26877304155E+02  0.15701673964E+02 -0.13480931453E+02  0.33921655632E+02  0.10566000000E+00 0.  1.
         22    1    1    0    0    0  0.20293167333E+02  0.21388340380E+02 -0.40621253980E+00  0.29486246849E+02  0.00000000000E+00 0. -1.
</event>
<event>
 5    1  0.1724243E-003  0.9118800E+02  0.7818608E-02  0.1130116E+00
         25   -1    0    0    0    0  0.00000000000E+00  0.00000000000E+00  0.99999998245E-14  0.12500000000E+03  0.12500000000E+03 0.  0.
        -13    1    3    3    0    0 -0.12918864790E+02 -0.31986394629E+02  0.43629769489E+01  0.34771730482E+02  0.10566000000E+00 0.  1.
         23    2    1    0    0    0  0.11449926898E+02  0.23124837787E+02 -0.10986078558E+02  0.96954450073E+02  0.92809549714E+02 0.  0.
         13    1    3    3    0    0  0.24368791688E+02  0.55111232416E+02 -0.15349055507E+02  0.62182719591E+02  0.10566000000E+00 0. -1.
         22    1    1    0    0    0 -0.11449926898E+02 -0.23124837787E+02  0.10986078558E+02  0.28045549927E+02  0.00000000000E+00 0. -1.
</event>
<event>
 5    1  0.1724243E-003  0.9118800E+02  0.7818608E-02  0.1130116E+00
         25   -1    0    0    0    0  0.00000000000E+00  0.00000000000E+00  0.99999998245E-14  0.12500000000E+03  0.12500000000E+03 0.  0.
        -13    1    3    3    0    0  0.27430884361E+02  0.45063805340E+02 -0.18453220656E+02  0.55890361290E+02  0.10566000000E+00 0. -1.
         23    2    1    0    0    0  0.27573869022E+02  0.11958572128E+02  0.21234865348E+01  0.94869701374E+02  0.89957908733E+02 0.  0.
         13    1    3    3    0    0  0.14298466147E+00 -0.33105233211E+02  0.20576707190E+02  0.38979340085E+02  0.10566000000E+00 0.  1.
         22    1    1    0    0    0 -0.27573869022E+02 -0.11958572128E+02 -0.21234865348E+01  0.30130298626E+02  0.00000000000E+00 0.  1.
</event>
<event>
 5    1  0.1724243E-003  0.9118800E+02  0.7818608E-02  0.1130116E+00
         25   -1    0    0    0    0  0.00000000000E+00  0.00000000000E+00  0.99999998245E-14  0.12500000000E+03  0.12500000000E+03 0.  0.
        -13    1    3    3    0    0 -0.14094064695E+02 -0.11768170517E+02  0.29293187517E+02  0.34572163599E+02  0.10566000000E+00 0.  1.
         23    2    1    0    0    0  0.20866788013E+02 -0.46333134142E+01 -0.20202509844E+02  0.95588576384E+02  0.90951328170E+02 0.  0.
         13    1    3    3    0    0  0.34960852707E+02  0.71348571030E+01 -0.49495697361E+02  0.61016412785E+02  0.10566000000E+00 0. -1.
         22    1    1    0    0    0 -0.20866788013E+02  0.46333134142E+01  0.20202509844E+02  0.29411423616E+02  0.00000000000E+00 0. -1.
</event>
<event>
 5    1  0.1724243E-003  0.9118800E+02  0.7818608E-02  0.1130116E+00
         25   -1    0    0    0    0  0.00000000000E+00  0.00000000000E+00  0.99999998245E-14  0.12500000000E+03  0.12500000000E+03 0.  0.
        -13    1    3    3    0    0  0.32771180992E+02 -0.24738714567E+02 -0.23393650499E+02  0.47257045504E+02  0.10566000000E+00 0. -1.
         23    2    1    0    0    0  0.15366708969E+02 -0.11499564953E+02  0.20881319360E+02  0.96637961341E+02  0.92382305315E+02 0.  0.
         13    1    3    3    0    0 -0.17404472023E+02  0.13239149614E+02  0.44274969859E+02  0.49380915838E+02  0.10566000000E+00 0.  1.
         22    1    1    0    0    0 -0.15366708969E+02  0.11499564953E+02 -0.20881319360E+02  0.28362038659E+02  0.00000000000E+00 0.  1.
</event>
<event>
 5    1  0.1724243E-003  0.9118800E+02  0.7818608E-02  0.1130116E+00
         25   -1    0    0    0    0  0.00000000000E+00  0.00000000000E+00  0.99999998245E-14  0.12500000000E+03  0.12500000000E+03 0.  0.
        -13    1    3    3    0    0 -0.18737035541E+02 -0.24549886927E+02  0.13885103151E+02  0.33861197595E+02  0.10566000000E+00 0.  1.
         23    2    1    0    0    0  0.92228231179E+01  0.26065384164E+02 -0.88121383856E+01  0.95980721911E+02  0.91488690436E+02 0.  0.
         13    1    3    3    0    0  0.27959858659E+02  0.50615271091E+02 -0.22697241536E+02  0.62119524316E+02  0.10566000000E+00 0. -1.
         22    1    1    0    0    0 -0.92228231179E+01 -0.26065384164E+02  0.88121383856E+01  0.29019278089E+02  0.00000000000E+00 0. -1.
</event>
<event>
 5    1  0.1724243E-003  0.9118800E+02  0.7818608E-02  0.1130116E+00
         25   -1    0    0    0    0  0.00000000000E+00  0.00000000000E+00  0.99999998245E-14  0.12500000000E+03  0.12500000000E+03 0.  0.
        -13    1    3    3    0    0  0.23729937400E+02 -0.20689798732E+01  0.35456607741E+02  0.42715018474E+02  0.10566000000E+00 0. -1.
         23    2    1    0    0    0 -0.70274459051E+01  0.28941971828E+02  0.85529580486E+01  0.94013296067E+02  0.88759923483E+02 0.  0.
         13    1    3    3    0    0 -0.30757383305E+02  0.31010951702E+02 -0.26903649692E+02  0.51298277593E+02  0.10566000000E+00 0.  1.
         22    1    1    0    0    0  0.70274459051E+01 -0.28941971828E+02 -0.85529580486E+01  0.30986703933E+02  0.00000000000E+00 0.  1.
</event>
<event>
 5    1  0.1724243E-003  0.9118800E+02  0.7818608E-02  0.1130116E+00
         25   -1    0    0    0    0  0.00000000000E+00  0.00000000000E+00  0.99999998245E-14  0.12500000000E+03  0.12500000000E+03 0.  0.
        -13    1    3    3    0    0 -0.21119069367E+02  0.24759112947E+02  0.46397316756E+01  0.32871979541E+02  0.10566000000E+00 0. -1.
         23    2    1    0    0    0  0.15548918717E+02 -0.25434315375E+02  0.27752051925E+01  0.95060477030E+02  0.90222609458E+02 0.  0.
         13    1    3    3    0    0  0.36667988084E+02 -0.50193428322E+02 -0.18645264831E+01  0.62188497489E+02  0.10566000000E+00 0.  1.
         22    1    1    0    0    0 -0.15548918717E+02  0.25434315375E+02 -0.27752051925E+01  0.29939522970E+02  0.00000000000E+00 0.  1.
</event>
<event>
 5    1  0.1724243E-003  0.9118800E+02  0.7818608E-02  0.1130116E+00
         25   -1    0    0    0    0  0.00000000000E+00  0.00000000000E+00  0.99999998245E-14  0.12500000000E+03  0.12500000000E+03 0.  0.
        -13    1    3    3    0    0  0.22380061717E+02 -0.28290693659E+02 -0.39976352626E+02  0.53845616753E+02  0.10566000000E+00 0.  1.
         23    2    1    0    0    0  0.28126166923E+02 -0.11424062166E+00 -0.10632291949E+02  0.94931080019E+02  0.90043156346E+02 0.  0.
         13    1    3    3    0    0  0.57461052062E+01  0.28176453038E+02  0.29344060676E+02  0.41085463267E+02  0.10566000000E+00 0. -1.
         22    1    1    0    0    0 -0.28126166923E+02  0.11424062166E+00  0.10632291949E+02  0.30068919981E+02  0.00000000000E+00 0.  1.
</event>
<event>
 5    1  0.1724243E-003  0.9118800E+02  0.7818608E-02  0.1130116E+00
         25   -1    0    0    0    0  0.00000000000E+00  0.00000000000E+00  0.99999998245E-14  0.12500000000E+03  0.12500000000E+03 0.  0.
        -13    1    3    3    0    0 -0.35486749878E+02 -0.10603306434E+02 -0.68183574379E+01  0.37659536461E+02  0.10566000000E+00 0.  1.
         23    2    1    0    0    0  0.40388380774E+01  0.27728120201E+02  0.10028063053E+02  0.95238902717E+02  0.90469473743E+02 0.  0.
         13    1    3    3    0    0  0.39525587956E+02  0.38331426635E+02  0.16846420491E+02  0.57579366256E+02  0.10566000000E+00 0. -1.
         22    1    1    0    0    0 -0.40388380774E+01 -0.27728120201E+02 -0.10028063053E+02  0.29761097283E+02  0.00000000000E+00 0. -1.
</event>
<event>
 5    1  0.1724243E-003  0.9118800E+02  0.7818608E-02  0.1130116E+00
         25   -1    0    0    0    0  0.00000000000E+00  0.00000000000E+00  0.99999998245E-14  0.12500000000E+03  0.12500000000E+03 0.  0.
        -13    1    3    3    0    0 -0.36369000807E+02  0.38814477592E+02  0.30785043040E+02  0.61457285406E+02  0.10566000000E+00 0.  1.
         23    2    1    0    0    0 -0.23235698577E+02  0.15365986069E+02  0.21207730505E+02  0.89988872492E+02  0.82898842712E+02 0.  0.
         13    1    3    3    0    0  0.13133302230E+02 -0.23448491523E+02 -0.95773125356E+01  0.28531587086E+02  0.10566000000E+00 0. -1.
         22    1    1    0    0    0  0.23235698577E+02 -0.15365986069E+02 -0.21207730505E+02  0.35011127508E+02  0.00000000000E+00 0.  1.
</event>
<event>
 5    1  0.1724243E-003  0.9118800E+02  0.7818608E-02  0.1130116E+00
         25   -1    0    0    0    0  0.00000000000E+00  0.00000000000E+00  0.99999998245E-14  0.12500000000E+03  0.12500000000E+03 0.  0.
        -13    1    3    3    0    0 -0.24726993982E+02  0.53381617711E+01  0.12871498459E+02  0.28383214037E+02  0.10566000000E+00 0. -1.
         23    2    1    0    0    0  0.25408163113E+02 -0.24819319503E+02 -0.39562389451E+01  0.89261712408E+02  0.81795037148E+02 0.  0.
         13    1    3    3    0    0  0.50135157095E+02 -0.30157481275E+02 -0.16827737404E+02  0.60878498371E+02  0.10566000000E+00 0.  1.
         22    1    1    0    0    0 -0.25408163113E+02  0.24819319503E+02  0.39562389451E+01  0.35738287592E+02  0.00000000000E+00 0.  1.
</event>
<event>
 5    1  0.1724243E-003  0.9118800E+02  0.7818608E-02  0.1130116E+00
         25   -1    0    0    0    0  0.00000000000E+00  0.00000000000E+00  0.99999998245E-14  0.12500000000E+03  0.12500000000E+03 0.  0.
        -13    1    3    3    0    0  0.92822851926E+01 -0.28188797576E+02 -0.35810099038E+02  0.46509606366E+02  0.10566000000E+00 0.  1.
         23    2    1    0    0    0 -0.25842655097E+02 -0.19289898014E+01 -0.15065822533E+02  0.95024295960E+02  0.90172468026E+02 0.  0.
         13    1    3    3    0    0 -0.35124940289E+02  0.26259807774E+02  0.20744276505E+02  0.48514689594E+02  0.10566000000E+00 0. -1.
         22    1    1    0    0    0  0.25842655097E+02  0.19289898014E+01  0.15065822533E+02  0.29975704040E+02  0.00000000000E+00 0.  1.
</event>
<event>
 5    1  0.1724243E-003  0.9118800E+02  0.7818608E-02  0.1130116E+00
         25   -1    0    0    0    0  0.00000000000E+00  0.00000000000E+00  0.99999998245E-14  0.12500000000E+03  0.12500000000E+03 0.  0.
        -13    1    3    3    0    0  0.24235464435E+02 -0.27088183151E+02 -0.61054042694E+01  0.36856675489E+02  0.10566000000E+00 0. -1.
         23    2    1    0    0    0 -0.22893233337E+02  0.38201984672E+01 -0.19384661263E+02  0.94759974517E+02  0.89805309582E+02 0.  0.
         13    1    3    3    0    0 -0.47128697772E+02  0.30908381618E+02 -0.13279256993E+02  0.57903299027E+02  0.10566000000E+00 0.  1.
         22    1    1    0    0    0  0.22893233337E+02 -0.38201984672E+01  0.19384661263E+02  0.30240025483E+02  0.00000000000E+00 0.  1.
</event>
<event>
 5    1  0.1724243E-003  0.9118800E+02  0.7818608E-02  0.1130116E+00
         25   -1    0    0    0    0  0.00000000000E+00  0.00000000000E+00  0.99999998245E-14  0.12500000000E+03  0.12500000000E+03 0.  0.
        -13    1    3    3    0    0  0.46125779450E+02  0.29685694695E+02  0.29456980881E+02  0.62261969821E+02  0.10566000000E+00 0.  1.
         23    2    1    0    0    0  0.24648709300E+02  0.11943843062E+02  0.12336601602E+02  0.94959926826E+02  0.90083193252E+02 0.  0.
         13    1    3    3    0    0 -0.21477070150E+02 -0.17741851633E+02 -0.17120379279E+02  0.32697957005E+02  0.10566000000E+00 0. -1.
         22    1    1    0    0    0 -0.24648709300E+02 -0.11943843062E+02 -0.12336601602E+02  0.30040073174E+02  0.00000000000E+00 0.  1.
</event>
<event>
 5    1  0.1724243E-003  0.9118800E+02  0.7818608E-02  0.1130116E+00
         25   -1    0    0    0    0  0.00000000000E+00  0.00000000000E+00  0.99999998245E-14  0.12500000000E+03  0.12500000000E+03 0.  0.
        -13    1    3    3    0    0  0.23266720472E+02  0.85537252698E+01 -0.24840885723E+02  0.35093977618E+02  0.10566000000E+00 0. -1.
         23    2    1    0    0    0  0.11747155792E+02 -0.19952436938E+02  0.23259192899E+02  0.92181019770E+02  0.86140901682E+02 0.  0.
         13    1    3    3    0    0 -0.11519564680E+02 -0.28506162208E+02  0.48100078622E+02  0.57087042153E+02  0.10566000000E+00 0.  1.
         22    1    1    0    0    0 -0.11747155792E+02  0.19952436938E+02 -0.23259192899E+02  0.32818980230E+02  0.00000000000E+00 0.  1.
</event>
<event>
 4    1  0.1724243E-003  0.9118800E+02  0.7818608E-02  0.1130116E+00
         25   -1    0    0    0    0  0.00000000000E+00  0.00000000000E+00  0.99999998245E-14  0.12500000000E+03  0.12500000000E+03 0.  0.
        -13    1    1    0    0    0 -0.19894691370E+02  0.13726448201E+02  0.46028249936E+02  0.51988701476E+02  0.10566000000E+00 0.  1.
         13    1    1    0    0    0  0.28593066895E+01 -0.21263805751E+02  0.19496835650E+01  0.21543850626E+02  0.10566000000E+00 0. -1.
         22    1    1    0    0    0  0.17035384680E+02  0.75373575497E+01 -0.47977933501E+02  0.51467447898E+02  0.00000000000E+00 0.  1.
</event>
<event>
 5    1  0.1724243E-003  0.9118800E+02  0.7818608E-02  0.1130116E+00
         25   -1    0    0    0    0  0.00000000000E+00  0.00000000000E+00  0.99999998245E-14  0.12500000000E+03  0.12500000000E+03 0.  0.
        -13    1    3    3    0    0 -0.38830848015E+02  0.17485044281E+01 -0.48704188792E+02  0.62313731995E+02  0.10566000000E+00 0.  1.
         23    2    1    0    0    0 -0.20709693702E+02  0.14450396739E+01 -0.20609462117E+02  0.95747145752E+02  0.91168999325E+02 0.  0.
         13    1    3    3    0    0  0.18121154313E+02 -0.30346475424E+00  0.28094726674E+02  0.33433413757E+02  0.10566000000E+00 0. -1.
         22    1    1    0    0    0  0.20709693702E+02 -0.14450396739E+01  0.20609462117E+02  0.29252854248E+02  0.00000000000E+00 0.  1.
</event>
<event>
 5    1  0.1724243E-003  0.9118800E+02  0.7818608E-02  0.1130116E+00
         25   -1    0    0    0    0  0.00000000000E+00  0.00000000000E+00  0.99999998245E-14  0.12500000000E+03  0.12500000000E+03 0.  0.
        -13    1    3    3    0    0 -0.36052359096E+02  0.21226366388E+02 -0.44959289251E+02  0.61414005572E+02  0.10566000000E+00 0.  1.
         23    2    1    0    0    0 -0.22814866892E+02  0.76165539348E+01 -0.15757007329E+02  0.96245638155E+02  0.91849929444E+02 0.  0.
         13    1    3    3    0    0  0.13237492204E+02 -0.13609812454E+02  0.29202281922E+02  0.34831632583E+02  0.10566000000E+00 0. -1.
         22    1    1    0    0    0  0.22814866892E+02 -0.76165539348E+01  0.15757007329E+02  0.28754361845E+02  0.00000000000E+00 0.  1.
</event>
<event>
 5    1  0.1724243E-003  0.9118800E+02  0.7818608E-02  0.1130116E+00
         25   -1    0    0    0    0  0.00000000000E+00  0.00000000000E+00  0.99999998245E-14  0.12500000000E+03  0.12500000000E+03 0.  0.
        -13    1    3    3    0    0  0.27920914347E+02  0.87394977004E+01 -0.17667568036E+02  0.34177630146E+02  0.10566000000E+00 0. -1.
         23    2    1    0    0    0 -0.21941071985E+02 -0.18062971795E+02  0.66880651717E+01  0.95803907699E+02  0.91246791312E+02 0.  0.
         13    1    3    3    0    0 -0.49861986332E+02 -0.26802469496E+02  0.24355633207E+02  0.61626277553E+02  0.10566000000E+00 0.  1.
         22    1    1    0    0    0  0.21941071985E+02  0.18062971795E+02 -0.66880651717E+01  0.29196092301E+02  0.00000000000E+00 0.  1.
</event>
<event>
 5    1  0.1724243E-003  0.9118800E+02  0.7818608E-02  0.1130116E+00
         25   -1    0    0    0    0  0.00000000000E+00  0.00000000000E+00  0.99999998245E-14  0.12500000000E+03  0.12500000000E+03 0.  0.
        -13    1    3    3    0    0 -0.33321288185E+02  0.38032479182E+02  0.32384375780E+02  0.60046121255E+02  0.10566000000E+00 0.  1.
         23    2    1    0    0    0 -0.15780613415E+02  0.25050946471E+02  0.51441331602E+01  0.94949379626E+02  0.90068556703E+02 0.  0.
         13    1    3    3    0    0  0.17540674770E+02 -0.12981532711E+02 -0.27240242620E+02  0.34903258371E+02  0.10566000000E+00 0. -1.
         22    1    1    0    0    0  0.15780613415E+02 -0.25050946471E+02 -0.51441331602E+01  0.30050620374E+02  0.00000000000E+00 0.  1.
</event>
<event>
 5    1  0.1724243E-003  0.9118800E+02  0.7818608E-02  0.1130116E+00
         25   -1    0    0    0    0  0.00000000000E+00  0.00000000000E+00  0.99999998245E-14  0.12500000000E+03  0.12500000000E+03 0.  0.
        -13    1    3    3    0    0 -0.53055781908E+02  0.11360121068E+02 -0.26223470856E+02  0.60263172272E+02  0.10566000000E+00 0. -1.
         23    2    1    0    0    0 -0.18940714640E+02  0.13444035284E+02 -0.18505149216E+02  0.95302638108E+02  0.90557492937E+02 0.  0.
         13    1    3    3    0    0  0.34115067267E+02  0.20839142163E+01  0.77183216395E+01  0.35039465836E+02  0.10566000000E+00 0.  1.
         22    1    1    0    0    0  0.18940714640E+02 -0.13444035284E+02  0.18505149216E+02  0.29697361892E+02  0.00000000000E+00 0. -1.
</event>
<event>
 5    1  0.1724243E-003  0.9118800E+02  0.7818608E-02  0.1130116E+00
         25   -1    0    0    0    0  0.00000000000E+00  0.00000000000E+00  0.99999998245E-14  0.12500000000E+03  0.12500000000E+03 0.  0.
        -13    1    3    3    0    0 -0.25786107068E+02 -0.22550356572E+02  0.11166859799E+01  0.34273897515E+02  0.10566000000E+00 0.  1.
         23    2    1    0    0    0  0.23535198571E+02  0.14185723828E+02  0.85504176180E+01  0.96220667594E+02  0.91815940329E+02 0.  0.
         13    1    3    3    0    0  0.49321305639E+02  0.36736080400E+02  0.74337316380E+01  0.61946770079E+02  0.10566000000E+00 0. -1.
         22    1    1    0    0    0 -0.23535198571E+02 -0.14185723828E+02 -0.85504176180E+01  0.28779332406E+02  0.00000000000E+00 0. -1.
</event>
<event>
 5    1  0.1724243E-003  0.9118800E+02  0.7818608E-02  0.1130116E+00
         25   -1    0    0    0    0  0.00000000000E+00  0.00000000000E+00  0.99999998245E-14  0.12500000000E+03  0.12500000000E+03 0.  0.
        -13    1    3    3    0    0  0.35526330941E+02 -0.25353967288E+02  0.20071997014E+02  0.48039984133E+02  0.10566000000E+00 0.  1.
         23    2    1    0    0    0 -0.11697713919E+02 -0.21976229837E+02  0.15657138739E+02  0.95590185613E+02  0.90953539806E+02 0.  0.
         13    1    3    3    0    0 -0.47224044859E+02  0.33777374506E+01 -0.44148582751E+01  0.47550201480E+02  0.10566000000E+00 0. -1.
         22    1    1    0    0    0  0.11697713919E+02  0.21976229837E+02 -0.15657138739E+02  0.29409814387E+02  0.00000000000E+00 0. -1.
</event>
<event>
 5    1  0.1724243E-003  0.9118800E+02  0.7818608E-02  0.1130116E+00
         25   -1    0    0    0    0  0.00000000000E+00  0.00000000000E+00  0.99999998245E-14  0.12500000000E+03  0.12500000000E+03 0.  0.
        -13    1    3    3    0    0  0.12175635173E+02 -0.10289219485E+02  0.43088301096E+02  0.45942648866E+02  0.10566000000E+00 0. -1.
         23    2    1    0    0    0 -0.94142751843E+01  0.23395737376E+02  0.23657886169E+02  0.90421326188E+02  0.83548378482E+02 0.  0.
         13    1    3    3    0    0 -0.21589910357E+02  0.33684956861E+02 -0.19430414927E+02  0.44478677322E+02  0.10566000000E+00 0.  1.
         22    1    1    0    0    0  0.94142751843E+01 -0.23395737376E+02 -0.23657886169E+02  0.34578673812E+02  0.00000000000E+00 0. -1.
</event>
<event>
 5    1  0.1724243E-003  0.9118800E+02  0.7818608E-02  0.1130116E+00
         25   -1    0    0    0    0  0.00000000000E+00  0.00000000000E+00  0.99999998245E-14  0.12500000000E+03  0.12500000000E+03 0.  0.
        -13    1    3    3    0    0 -0.18161314044E+02 -0.88143743674E+01  0.29435123330E+02  0.35692634714E+02  0.10566000000E+00 0.  1.
         23    2    1    0    0    0 -0.52144437953E+01  0.46980269738E+01 -0.28017724259E+02  0.96116531472E+02  0.91674057770E+02 0.  0.
         13    1    3    3    0    0  0.12946870249E+02  0.13512401341E+02 -0.57452847590E+02  0.60423896758E+02  0.10566000000E+00 0. -1.
         22    1    1    0    0    0  0.52144437953E+01 -0.46980269738E+01  0.28017724259E+02  0.28883468528E+02  0.00000000000E+00 0. -1.
</event>
<event>
 5    1  0.1724243E-003  0.9118800E+02  0.7818608E-02  0.1130116E+00
         25   -1    0    0    0    0  0.00000000000E+00  0.00000000000E+00  0.99999998245E-14  0.12500000000E+03  0.12500000000E+03 0.  0.
        -13    1    3    3    0    0 -0.19934927485E+02 -0.36777707777E+02 -0.35178055157E+02  0.54658099599E+02  0.10566000000E+00 0. -1.
         23    2    1    0    0    0 -0.24058787883E+02 -0.76739224119E+00 -0.18920557894E+02  0.94382983877E+02  0.89279034321E+02 0.  0.
         13    1    3    3    0    0 -0.41238603983E+01  0.36010315536E+02  0.16257497263E+02  0.39724884278E+02  0.10566000000E+00 0.  1.
         22    1    1    0    0    0  0.24058787883E+02  0.76739224119E+00  0.18920557894E+02  0.30617016123E+02  0.00000000000E+00 0. -1.
</event>
<event>
 5    1  0.1724243E-003  0.9118800E+02  0.7818608E-02  0.1130116E+00
         25   -1    0    0    0    0  0.00000000000E+00  0.00000000000E+00  0.99999998245E-14  0.12500000000E+03  0.12500000000E+03 0.  0.
        -13    1    3    3    0    0  0.60899220793E+02 -0.63646013879E+01 -0.14191807920E+01  0.61247436535E+02  0.10566000000E+00 0. -1.
         23    2    1    0    0    0  0.28533159799E+02  0.58682084441E+01 -0.22663354493E+00  0.95868772061E+02  0.91335606503E+02 0.  0.
         13    1    3    3    0    0 -0.32366060993E+02  0.12232809832E+02  0.11925472470E+01  0.34621335526E+02  0.10566000000E+00 0.  1.
         22    1    1    0    0    0 -0.28533159799E+02 -0.58682084441E+01  0.22663354493E+00  0.29131227939E+02  0.00000000000E+00 0. -1.
</event>
<event>
 5    1  0.1724243E-003  0.9118800E+02  0.7818608E-02  0.1130116E+00
         25   -1    0    0    0    0  0.00000000000E+00  0.00000000000E+00  0.99999998245E-14  0.12500000000E+03  0.12500000000E+03 0.  0.
        -13    1    3    3    0    0  0.33272526202E+02 -0.17252602983E+01  0.10068395337E+02  0.34805477610E+02  0.10566000000E+00 0. -1.
         23    2    1    0    0    0 -0.17274011421E+01 -0.36254716143E+02 -0.91080484797E+01  0.87578817437E+02  0.79181464746E+02 0.  0.
         13    1    3    3    0    0 -0.34999927344E+02 -0.34529455844E+02 -0.19176443817E+02  0.52773339827E+02  0.10566000000E+00 0.  1.
         22    1    1    0    0    0  0.17274011421E+01  0.36254716143E+02  0.91080484797E+01  0.37421182563E+02  0.00000000000E+00 0.  1.
</event>
<event>
 5    1  0.1724243E-003  0.9118800E+02  0.7818608E-02  0.1130116E+00
         25   -1    0    0    0    0  0.00000000000E+00  0.00000000000E+00  0.99999998245E-14  0.12500000000E+03  0.12500000000E+03 0.  0.
        -13    1    3    3    0    0 -0.22036787475E+02 -0.36027793323E+02 -0.32492688984E+02  0.53286094766E+02  0.10566000000E+00 0. -1.
         23    2    1    0    0    0 -0.15906889891E+02  0.50115390196E+01 -0.24213413036E+02  0.95598740840E+02  0.90965296735E+02 0.  0.
         13    1    3    3    0    0  0.61298975837E+01  0.41039332343E+02  0.82792759479E+01  0.42312646074E+02  0.10566000000E+00 0.  1.
         22    1    1    0    0    0  0.15906889891E+02 -0.50115390196E+01  0.24213413036E+02  0.29401259160E+02  0.00000000000E+00 0. -1.
</event>
<event>
 5    1  0.1724243E-003  0.9118800E+02  0.7818608E-02  0.1130116E+00
         25   -1    0    0    0    0  0.00000000000E+00  0.00000000000E+00  0.99999998245E-14  0.12500000000E+03  0.12500000000E+03 0.  0.
        -13    1    3    3    0    0 -0.52423234956E+02  0.12585873742E+02 -0.29064318673E+02  0.61248229077E+02  0.10566000000E+00 0. -1.
         23    2    1    0    0    0 -0.26877281747E+02 -0.25755585876E+01 -0.12734021876E+02  0.95147410677E+02  0.90342972440E+02 0.  0.
         13    1    3    3    0    0  0.25545953209E+02 -0.15161432330E+02  0.16330296797E+02  0.33899181600E+02  0.10566000000E+00 0.  1.
         22    1    1    0    0    0  0.26877281747E+02  0.25755585876E+01  0.12734021876E+02  0.29852589323E+02  0.00000000000E+00 0. -1.
</event>
<event>
 5    1  0.1724243E-003  0.9118800E+02  0.7818608E-02  0.1130116E+00
         25   -1    0    0    0    0  0.00000000000E+00  0.00000000000E+00  0.99999998245E-14  0.12500000000E+03  0.12500000000E+03 0.  0.
        -13    1    3    3    0    0  0.13094993993E+01 -0.10766547989E+02  0.54518916185E+02  0.55587379235E+02  0.10566000000E+00 0. -1.
         23    2    1    0    0    0  0.13731688749E+02 -0.18675179924E+02  0.15976461287E+02  0.96847399120E+02  0.92665256596E+02 0.  0.
         13    1    3    3    0    0  0.12422189349E+02 -0.79086319347E+01 -0.38542454898E+02  0.41260019885E+02  0.10566000000E+00 0.  1.
         22    1    1    0    0    0 -0.13731688749E+02  0.18675179924E+02 -0.15976461287E+02  0.28152600880E+02  0.00000000000E+00 0. -1.
</event>
<event>
 5    1  0.1724243E-003  0.9118800E+02  0.7818608E-02  0.1130116E+00
         25   -1    0    0    0    0  0.00000000000E+00  0.00000000000E+00  0.99999998245E-14  0.12500000000E+03  0.12500000000E+03 0.  0.
        -13    1    3    3    0    0 -0.44216735554E+02 -0.25178775913E+01 -0.18561636215E+02  0.48020879976E+02  0.10566000000E+00 0. -1.
         23    2    1    0    0    0 -0.77738610444E+01 -0.28114193717E+02 -0.13554458864E+02  0.92835358560E+02  0.87085243526E+02 0.  0.
         13    1    3    3    0    0  0.36442874510E+02 -0.25596316125E+02  0.50071773510E+01  0.44814478584E+02  0.10566000000E+00 0.  1.
         22    1    1    0    0    0  0.77738610444E+01  0.28114193717E+02  0.13554458864E+02  0.32164641440E+02  0.00000000000E+00 0. -1.
</event>
<event>
 5    1  0.1724243E-003  0.9118800E+02  0.7818608E-02  0.1130116E+00
         25   -1    0    0    0    0  0.00000000000E+00  0.00000000000E+00  0.99999998245E-14  0.12500000000E+03  0.12500000000E+03 0.  0.
        -13    1    3    3    0    0 -0.63358426337E+01  0.45392271600E+01  0.43592474063E+02  0.44283884699E+02  0.10566000000E+00 0.  1.
         23    2    1    0    0    0  0.23139403921E+02 -0.16751344620E+02  0.76133667831E+01  0.95436459716E+02  0.90742024051E+02 0.  0.
         13    1    3    3    0    0  0.29475246554E+02 -0.21290571780E+02 -0.35979107280E+02  0.51152575017E+02  0.10566000000E+00 0. -1.
         22    1    1    0    0    0 -0.23139403921E+02  0.16751344620E+02 -0.76133667831E+01  0.29563540284E+02  0.00000000000E+00 0. -1.
</event>
<event>
 5    1  0.1724243E-003  0.9118800E+02  0.7818608E-02  0.1130116E+00
         25   -1    0    0    0    0  0.00000000000E+00  0.00000000000E+00  0.99999998245E-14  0.12500000000E+03  0.12500000000E+03 0.  0.
        -13    1    3    3    0    0  0.33189727872E+02 -0.45358496983E+02  0.24687569716E+02  0.61387609069E+02  0.10566000000E+00 0.  1.
         23    2    1    0    0    0  0.13860696602E+02 -0.26302061372E+02  0.51618419971E+01  0.94824480858E+02  0.89895051112E+02 0.  0.
         13    1    3    3    0    0 -0.19329031271E+02  0.19056435611E+02 -0.19525727719E+02  0.33436871789E+02  0.10566000000E+00 0. -1.
         22    1    1    0    0    0 -0.13860696602E+02  0.26302061372E+02 -0.51618419971E+01  0.30175519142E+02  0.00000000000E+00 0.  1.
</event>
<event>
 5    1  0.1724243E-003  0.9118800E+02  0.7818608E-02  0.1130116E+00
         25   -1    0    0    0    0  0.00000000000E+00  0.00000000000E+00  0.99999998245E-14  0.12500000000E+03  0.12500000000E+03 0.  0.
        -13    1    3    3    0    0  0.12845346027E+02 -0.14790159309E+01 -0.85439944891E+01  0.15498432454E+02  0.10566000000E+00 0.  1.
         23    2    1    0    0    0 -0.36234915924E+02 -0.25895324781E+02  0.18679675082E+02  0.76704376609E+02  0.59591057654E+02 0.  0.
         13    1    3    3    0    0 -0.49080261951E+02 -0.24416308850E+02  0.27223669571E+02  0.61205944155E+02  0.10566000000E+00 0. -1.
         22    1    1    0    0    0  0.36234915924E+02  0.25895324781E+02 -0.18679675082E+02  0.48295623391E+02  0.00000000000E+00 0. -1.
</event>
<event>
 5    1  0.1724243E-003  0.9118800E+02  0.7818608E-02  0.1130116E+00
         25   -1    0    0    0    0  0.00000000000E+00  0.00000000000E+00  0.99999998245E-14  0.12500000000E+03  0.12500000000E+03 0.  0.
        -13    1    3    3    0    0 -0.31956627237E+02 -0.21056155876E+02  0.13511303824E+02  0.40585147773E+02  0.10566000000E+00 0. -1.
         23    2    1    0    0    0 -0.43840927991E+01  0.26921418114E+02  0.96924423594E+01  0.96053040542E+02  0.91587445294E+02 0.  0.
         13    1    3    3    0    0  0.27572534438E+02  0.47977573991E+02 -0.38188614647E+01  0.55467892770E+02  0.10566000000E+00 0.  1.
         22    1    1    0    0    0  0.43840927991E+01 -0.26921418114E+02 -0.96924423594E+01  0.28946959458E+02  0.00000000000E+00 0. -1.
</event>
<event>
 5    1  0.1724243E-003  0.9118800E+02  0.7818608E-02  0.1130116E+00
         25   -1    0    0    0    0  0.00000000000E+00  0.00000000000E+00  0.99999998245E-14  0.12500000000E+03  0.12500000000E+03 0.  0.
        -13    1    3    3    0    0  0.16239346326E+02 -0.38343022647E+02  0.17360819490E+02  0.45114443055E+02  0.10566000000E+00 0.  1.
         23    2    1    0    0    0  0.25123258217E+02  0.10904035220E+02  0.10694160453E+02  0.95598619841E+02  0.90965130463E+02 0.  0.
         13    1    3    3    0    0  0.88839118911E+01  0.49247057866E+02 -0.66666590374E+01  0.50484176786E+02  0.10566000000E+00 0. -1.
         22    1    1    0    0    0 -0.25123258217E+02 -0.10904035220E+02 -0.10694160453E+02  0.29401380159E+02  0.00000000000E+00 0. -1.
</event>
<event>
 5    1  0.1724243E-003  0.9118800E+02  0.7818608E-02  0.1130116E+00
         25   -1    0    0    0    0  0.00000000000E+00  0.00000000000E+00  0.99999998245E-14  0.12500000000E+03  0.12500000000E+03 0.  0.
        -13    1    3    3    0    0  0.40456345053E+02  0.28710455702E+02  0.25615552181E+02  0.55831655888E+02  0.10566000000E+00 0. -1.
         23    2    1    0    0    0  0.24066939946E+02  0.14286969555E+02 -0.79785131417E+01  0.95896876983E+02  0.91374062215E+02 0.  0.
         13    1    3    3    0    0 -0.16389405107E+02 -0.14423486147E+02 -0.33594065323E+02  0.40065221095E+02  0.10566000000E+00 0.  1.
         22    1    1    0    0    0 -0.24066939946E+02 -0.14286969555E+02  0.79785131417E+01  0.29103123017E+02  0.00000000000E+00 0.  1.
</event>
<event>
 5    1  0.1724243E-003  0.9118800E+02  0.7818608E-02  0.1130116E+00
         25   -1    0    0    0    0  0.00000000000E+00  0.00000000000E+00  0.99999998245E-14  0.12500000000E+03  0.12500000000E+03 0.  0.
        -13    1    3    3    0    0  0.25354305427E+02 -0.14378659521E+02 -0.29448293788E+02  0.41434283201E+02  0.10566000000E+00 0.  1.
         23    2    1    0    0    0 -0.23724564019E+02 -0.16479963927E+02 -0.80799182778E+01  0.95004513201E+02  0.90145040353E+02 0.  0.
         13    1    3    3    0    0 -0.49078869445E+02 -0.21013044061E+01  0.21368375511E+02  0.53570230000E+02  0.10566000000E+00 0. -1.
         22    1    1    0    0    0  0.23724564019E+02  0.16479963927E+02  0.80799182778E+01  0.29995486799E+02  0.00000000000E+00 0.  1.
</event>
<event>
 5    1  0.1724243E-003  0.9118800E+02  0.7818608E-02  0.1130116E+00
         25   -1    0    0    0    0  0.00000000000E+00  0.00000000000E+00  0.99999998245E-14  0.12500000000E+03  0.12500000000E+03 0.  0.
        -13    1    3    3    0    0 -0.16212192543E+01  0.47782235300E+02  0.10738094902E+02  0.49000900076E+02  0.10566000000E+00 0.  1.
         23    2    1    0    0    0  0.29854006340E+01 -0.13115986037E+01  0.24570628459E+02  0.10021394161E+03  0.97100388267E+02 0.  0.
         13    1    3    3    0    0  0.46066198883E+01 -0.49093833904E+02  0.13832533556E+02  0.51213041530E+02  0.10566000000E+00 0. -1.
         22    1    1    0    0    0 -0.29854006340E+01  0.13115986037E+01 -0.24570628459E+02  0.24786058394E+02  0.00000000000E+00 0. -1.
</event>
<event>
 5    1  0.1724243E-003  0.9118800E+02  0.7818608E-02  0.1130116E+00
         25   -1    0    0    0    0  0.00000000000E+00  0.00000000000E+00  0.99999998245E-14  0.12500000000E+03  0.12500000000E+03 0.  0.
        -13    1    3    3    0    0 -0.28659608688E+02 -0.41667014548E+02 -0.38370840557E+01  0.50717330861E+02  0.10566000000E+00 0.  1.
         23    2    1    0    0    0  0.76393074241E+01 -0.22349713588E+02 -0.19147675135E+02  0.94594372586E+02  0.89574511701E+02 0.  0.
         13    1    3    3    0    0  0.36298916113E+02  0.19317300960E+02 -0.15310591079E+02  0.43877041725E+02  0.10566000000E+00 0. -1.
         22    1    1    0    0    0 -0.76393074241E+01  0.22349713588E+02  0.19147675135E+02  0.30405627414E+02  0.00000000000E+00 0.  1.
</event>
<event>
 5    1  0.1724243E-003  0.9118800E+02  0.7818608E-02  0.1130116E+00
         25   -1    0    0    0    0  0.00000000000E+00  0.00000000000E+00  0.99999998245E-14  0.12500000000E+03  0.12500000000E+03 0.  0.
        -13    1    3    3    0    0 -0.36564278433E+02  0.15534832464E+02  0.47290945463E+02  0.61763437111E+02  0.10566000000E+00 0. -1.
         23    2    1    0    0    0 -0.11030484048E+02  0.33083739842E+01  0.23837011899E+02  0.98526993880E+02  0.94903890701E+02 0.  0.
         13    1    3    3    0    0  0.25533794385E+02 -0.12226458480E+02 -0.23453933564E+02  0.36763556769E+02  0.10566000000E+00 0.  1.
         22    1    1    0    0    0  0.11030484048E+02 -0.33083739842E+01 -0.23837011899E+02  0.26473006120E+02  0.00000000000E+00 0. -1.
</event>
<event>
 5    1  0.1724243E-003  0.9118800E+02  0.7818608E-02  0.1130116E+00
         25   -1    0    0    0    0  0.00000000000E+00  0.00000000000E+00  0.99999998245E-14  0.12500000000E+03  0.12500000000E+03 0.  0.
        -13    1    3    3    0    0  0.73182521591E+01  0.30030902513E+02  0.15751982765E+02  0.34692189978E+02  0.10566000000E+00 0. -1.
         23    2    1    0    0    0 -0.24016397811E+02 -0.15609507021E+02 -0.84841444752E+01  0.95126520445E+02  0.90314063751E+02 0.  0.
         13    1    3    3    0    0 -0.31334649970E+02 -0.45640409534E+02 -0.24236127241E+02  0.60434330466E+02  0.10566000000E+00 0.  1.
         22    1    1    0    0    0  0.24016397811E+02  0.15609507021E+02  0.84841444752E+01  0.29873479555E+02  0.00000000000E+00 0.  1.
</event>
<event>
 5    1  0.1724243E-003  0.9118800E+02  0.7818608E-02  0.1130116E+00
         25   -1    0    0    0    0  0.00000000000E+00  0.00000000000E+00  0.99999998245E-14  0.12500000000E+03  0.12500000000E+03 0.  0.
        -13    1    3    3    0    0 -0.29822992526E+02 -0.13097136957E+02 -0.69363923409E+01  0.33302711338E+02  0.10566000000E+00 0.  1.
         23    2    1    0    0    0  0.20462676955E+02  0.16775621803E+02  0.13544638107E+02  0.95274592408E+02  0.90518772097E+02 0.  0.
         13    1    3    3    0    0  0.50285669482E+02  0.29872758760E+02  0.20481030448E+02  0.61971881070E+02  0.10566000000E+00 0. -1.
         22    1    1    0    0    0 -0.20462676955E+02 -0.16775621803E+02 -0.13544638107E+02  0.29725407592E+02  0.00000000000E+00 0. -1.
</event>
<event>
 5    1  0.1724243E-003  0.9118800E+02  0.7818608E-02  0.1130116E+00
         25   -1    0    0    0    0  0.00000000000E+00  0.00000000000E+00  0.99999998245E-14  0.12500000000E+03  0.12500000000E+03 0.  0.
        -13    1    3    3    0    0  0.88527846824E+01  0.30965832513E+02  0.62470106366E+01  0.32806872539E+02  0.10566000000E+00 0. -1.
         23    2    1    0    0    0 -0.10655058254E+02 -0.27943904287E+02  0.29105312270E+01  0.94952317141E+02  0.90072633387E+02 0.  0.
         13    1    3    3    0    0 -0.19507842936E+02 -0.58909736800E+02 -0.33364794096E+01  0.62145444602E+02  0.10566000000E+00 0.  1.
         22    1    1    0    0    0  0.10655058254E+02  0.27943904287E+02 -0.29105312270E+01  0.30047682859E+02  0.00000000000E+00 0.  1.
</event>
<event>
 5    1  0.1724243E-003  0.9118800E+02  0.7818608E-02  0.1130116E+00
         25   -1    0    0    0    0  0.00000000000E+00  0.00000000000E+00  0.99999998245E-14  0.12500000000E+03  0.12500000000E+03 0.  0.
        -13    1    3    3    0    0  0.84286327572E+01  0.43558694124E+02  0.12252255605E+02  0.46027498469E+02  0.10566000000E+00 0.  1.
         23    2    1    0    0    0 -0.19099088124E+02  0.37355635330E+01  0.22228534778E+02  0.95456178981E+02  0.90769183896E+02 0.  0.
         13    1    3    3    0    0 -0.27527720881E+02 -0.39823130590E+02  0.99762791726E+01  0.49428680511E+02  0.10566000000E+00 0. -1.
         22    1    1    0    0    0  0.19099088124E+02 -0.37355635330E+01 -0.22228534778E+02  0.29543821019E+02  0.00000000000E+00 0. -1.
</event>
<event>
 5    1  0.1724243E-003  0.9118800E+02  0.7818608E-02  0.1130116E+00
         25   -1    0    0    0    0  0.00000000000E+00  0.00000000000E+00  0.99999998245E-14  0.12500000000E+03  0.12500000000E+03 0.  0.
        -13    1    3    3    0    0  0.24084671991E+02 -0.23464993960E+01 -0.44542974906E+02  0.50691865835E+02  0.10566000000E+00 0.  1.
         23    2    1    0    0    0  0.40931802715E+01  0.24573926809E+02 -0.12276294751E+02  0.97227002027E+02  0.93175911623E+02 0.  0.
         13    1    3    3    0    0 -0.19991491719E+02  0.26920426205E+02  0.32266680154E+02  0.46535136193E+02  0.10566000000E+00 0. -1.
         22    1    1    0    0    0 -0.40931802715E+01 -0.24573926809E+02  0.12276294751E+02  0.27772997973E+02  0.00000000000E+00 0.  1.
</event>
<event>
 5    1  0.1724243E-003  0.9118800E+02  0.7818608E-02  0.1130116E+00
         25   -1    0    0    0    0  0.00000000000E+00  0.00000000000E+00  0.99999998245E-14  0.12500000000E+03  0.12500000000E+03 0.  0.
        -13    1    3    3    0    0 -0.17964716260E+02  0.28781321692E+01  0.30186300823E+02  0.35245405325E+02  0.10566000000E+00 0.  1.
         23    2    1    0    0    0  0.40870076496E+01 -0.19060726010E+02 -0.21754995934E+02  0.95788790582E+02  0.91226079854E+02 0.  0.
         13    1    3    3    0    0  0.22051723910E+02 -0.21938858179E+02 -0.51941296757E+02  0.60543385258E+02  0.10566000000E+00 0. -1.
         22    1    1    0    0    0 -0.40870076496E+01  0.19060726010E+02  0.21754995934E+02  0.29211209418E+02  0.00000000000E+00 0. -1.
</event>
<event>
 5    1  0.1724243E-003  0.9118800E+02  0.7818608E-02  0.1130116E+00
         25   -1    0    0    0    0  0.00000000000E+00  0.00000000000E+00  0.99999998245E-14  0.12500000000E+03  0.12500000000E+03 0.  0.
        -13    1    3    3    0    0  0.36422397461E+01 -0.18455890123E+02  0.31343177076E+02  0.36555323878E+02  0.10566000000E+00 0.  1.
         23    2    1    0    0    0  0.13181129560E+02 -0.78897395674E+01 -0.25541779759E+02  0.95194418641E+02  0.90407990024E+02 0.  0.
         13    1    3    3    0    0  0.95388898136E+01  0.10566150555E+02 -0.56884956835E+02  0.58639094763E+02  0.10566000000E+00 0. -1.
         22    1    1    0    0    0 -0.13181129560E+02  0.78897395674E+01  0.25541779759E+02  0.29805581359E+02  0.00000000000E+00 0. -1.
</event>
<event>
 5    1  0.1724243E-003  0.9118800E+02  0.7818608E-02  0.1130116E+00
         25   -1    0    0    0    0  0.00000000000E+00  0.00000000000E+00  0.99999998245E-14  0.12500000000E+03  0.12500000000E+03 0.  0.
        -13    1    3    3    0    0 -0.51054312584E+02  0.30391466398E+02  0.41955583054E+01  0.59563394268E+02  0.10566000000E+00 0. -1.
         23    2    1    0    0    0 -0.20762894449E+02  0.12221961243E+02  0.15142246030E+02  0.96543687214E+02  0.92254657354E+02 0.  0.
         13    1    3    3    0    0  0.30291418135E+02 -0.18169505155E+02  0.10946687724E+02  0.36980292946E+02  0.10566000000E+00 0.  1.
         22    1    1    0    0    0  0.20762894449E+02 -0.12221961243E+02 -0.15142246030E+02  0.28456312786E+02  0.00000000000E+00 0. -1.
</event>
<event>
 5    1  0.1724243E-003  0.9118800E+02  0.7818608E-02  0.1130116E+00
         25   -1    0    0    0    0  0.00000000000E+00  0.00000000000E+00  0.99999998245E-14  0.12500000000E+03  0.12500000000E+03 0.  0.
        -13    1    3    3    0    0 -0.24742055421E+01  0.46567674607E+02  0.11398610220E+02  0.48006348438E+02  0.10566000000E+00 0. -1.
         23    2    1    0    0    0 -0.18181949164E+02  0.12488588491E+02 -0.18677394178E+02  0.96096831122E+02  0.91647191885E+02 0.  0.
         13    1    3    3    0    0 -0.15707743622E+02 -0.34079086115E+02 -0.30076004398E+02  0.48090482684E+02  0.10566000000E+00 0.  1.
         22    1    1    0    0    0  0.18181949164E+02 -0.12488588491E+02  0.18677394178E+02  0.28903168878E+02  0.00000000000E+00 0.  1.
</event>
<event>
 5    1  0.1724243E-003  0.9118800E+02  0.7818608E-02  0.1130116E+00
         25   -1    0    0    0    0  0.00000000000E+00  0.00000000000E+00  0.99999998245E-14  0.12500000000E+03  0.12500000000E+03 0.  0.
        -13    1    3    3    0    0  0.95909794077E+01  0.65104453776E+01 -0.34136026585E+02  0.36050690146E+02  0.10566000000E+00 0. -1.
         23    2    1    0    0    0  0.53759152702E+01 -0.24174051051E+02  0.16381766527E+02  0.95307450703E+02  0.90564135704E+02 0.  0.
         13    1    3    3    0    0 -0.42150641375E+01 -0.30684496428E+02  0.50517793112E+02  0.59256760557E+02  0.10566000000E+00 0.  1.
         22    1    1    0    0    0 -0.53759152702E+01  0.24174051051E+02 -0.16381766527E+02  0.29692549297E+02  0.00000000000E+00 0.  1.
</event>
<event>
 5    1  0.1724243E-003  0.9118800E+02  0.7818608E-02  0.1130116E+00
         25   -1    0    0    0    0  0.00000000000E+00  0.00000000000E+00  0.99999998245E-14  0.12500000000E+03  0.12500000000E+03 0.  0.
        -13    1    3    3    0    0  0.49779830719E+02  0.26697479477E+02  0.18572061355E+02  0.59461917089E+02  0.10566000000E+00 0.  1.
         23    2    1    0    0    0  0.99634172635E+01 -0.18298653775E+01 -0.48657070548E+01  0.11376197544E+03  0.11320553812E+03 0.  0.
         13    1    3    3    0    0 -0.39816413456E+02 -0.28527344854E+02 -0.23437768410E+02  0.54300058352E+02  0.10566000000E+00 0. -1.
         22    1    1    0    0    0 -0.99634172635E+01  0.18298653775E+01  0.48657070548E+01  0.11238024560E+02  0.00000000000E+00 0.  1.
</event>
<event>
 5    1  0.1724243E-003  0.9118800E+02  0.7818608E-02  0.1130116E+00
         25   -1    0    0    0    0  0.00000000000E+00  0.00000000000E+00  0.99999998245E-14  0.12500000000E+03  0.12500000000E+03 0.  0.
        -13    1    3    3    0    0  0.13422459765E+01 -0.40081034555E+02 -0.19267730311E+01  0.40149901290E+02  0.10566000000E+00 0. -1.
         23    2    1    0    0    0  0.20924217746E+02  0.90139608487E+01  0.17298368361E+02  0.96393918017E+02  0.92051504628E+02 0.  0.
         13    1    3    3    0    0  0.19581971769E+02  0.49094995404E+02  0.19225141392E+02  0.56244016727E+02  0.10566000000E+00 0.  1.
         22    1    1    0    0    0 -0.20924217746E+02 -0.90139608487E+01 -0.17298368361E+02  0.28606081983E+02  0.00000000000E+00 0.  1.
</event>
<event>
 5    1  0.1724243E-003  0.9118800E+02  0.7818608E-02  0.1130116E+00
         25   -1    0    0    0    0  0.00000000000E+00  0.00000000000E+00  0.99999998245E-14  0.12500000000E+03  0.12500000000E+03 0.  0.
        -13    1    3    3    0    0 -0.47022171654E+02 -0.66679473027E-01 -0.97744537265E+01  0.48027494031E+02  0.10566000000E+00 0.  1.
         23    2    1    0    0    0 -0.60225748328E+01 -0.25941837020E+02 -0.10118812527E+02  0.96510691786E+02  0.92209939521E+02 0.  0.
         13    1    3    3    0    0  0.40999596821E+02 -0.25875157547E+02 -0.34435880026E+00  0.48483197755E+02  0.10566000000E+00 0. -1.
         22    1    1    0    0    0  0.60225748328E+01  0.25941837020E+02  0.10118812527E+02  0.28489308214E+02  0.00000000000E+00 0.  1.
</event>
<event>
 5    1  0.1724243E-003  0.9118800E+02  0.7818608E-02  0.1130116E+00
         25   -1    0    0    0    0  0.00000000000E+00  0.00000000000E+00  0.99999998245E-14  0.12500000000E+03  0.12500000000E+03 0.  0.
        -13    1    3    3    0    0 -0.40224338907E+02 -0.48615813837E+01 -0.25018687593E+01  0.40594370612E+02  0.10566000000E+00 0.  1.
         23    2    1    0    0    0  0.63862243663E+01  0.33907353923E+01 -0.29185020553E+02  0.94932636084E+02  0.90045316486E+02 0.  0.
         13    1    3    3    0    0  0.46610563273E+02  0.82523167761E+01 -0.26683151794E+02  0.54338265472E+02  0.10566000000E+00 0. -1.
         22    1    1    0    0    0 -0.63862243663E+01 -0.33907353923E+01  0.29185020553E+02  0.30067363916E+02  0.00000000000E+00 0. -1.
</event>
<event>
 5    1  0.1724243E-003  0.9118800E+02  0.7818608E-02  0.1130116E+00
         25   -1    0    0    0    0  0.00000000000E+00  0.00000000000E+00  0.99999998245E-14  0.12500000000E+03  0.12500000000E+03 0.  0.
        -13    1    3    3    0    0  0.19061416825E+02 -0.15827733532E+02  0.48824138472E+02  0.54750912519E+02  0.10566000000E+00 0. -1.
         23    2    1    0    0    0  0.30241729496E+01 -0.26046804178E+02  0.12069229371E+02  0.96133965850E+02  0.91697826924E+02 0.  0.
         13    1    3    3    0    0 -0.16037243875E+02 -0.10219070646E+02 -0.36754909101E+02  0.41383053331E+02  0.10566000000E+00 0.  1.
         22    1    1    0    0    0 -0.30241729496E+01  0.26046804178E+02 -0.12069229371E+02  0.28866034150E+02  0.00000000000E+00 0. -1.
</event>
<event>
 5    1  0.1724243E-003  0.9118800E+02  0.7818608E-02  0.1130116E+00
         25   -1    0    0    0    0  0.00000000000E+00  0.00000000000E+00  0.99999998245E-14  0.12500000000E+03  0.12500000000E+03 0.  0.
        -13    1    3    3    0    0 -0.37373708514E+02  0.31646954950E+02  0.94228307156E+01  0.49871081284E+02  0.10566000000E+00 0. -1.
         23    2    1    0    0    0  0.22444138885E+01  0.10306988799E+02  0.25299306972E+02  0.97589667184E+02  0.93661180839E+02 0.  0.
         13    1    3    3    0    0  0.39618122402E+02 -0.21339966151E+02  0.15876476256E+02  0.47718585901E+02  0.10566000000E+00 0.  1.
         22    1    1    0    0    0 -0.22444138885E+01 -0.10306988799E+02 -0.25299306972E+02  0.27410332816E+02  0.00000000000E+00 0.  1.
</event>
<event>
 5    1  0.1724243E-003  0.9118800E+02  0.7818608E-02  0.1130116E+00
         25   -1    0    0    0    0  0.00000000000E+00  0.00000000000E+00  0.99999998245E-14  0.12500000000E+03  0.12500000000E+03 0.  0.
        -13    1    3    3    0    0 -0.22086327610E+02  0.18589643821E+02 -0.29832426079E+02  0.41513437999E+02  0.10566000000E+00 0. -1.
         23    2    1    0    0    0 -0.20169406613E+02 -0.86772265249E+01  0.18001898834E+02  0.96606909557E+02  0.92340280427E+02 0.  0.
         13    1    3    3    0    0  0.19169209978E+01 -0.27266870346E+02  0.47834324912E+02  0.55093471559E+02  0.10566000000E+00 0.  1.
         22    1    1    0    0    0  0.20169406613E+02  0.86772265249E+01 -0.18001898834E+02  0.28393090443E+02  0.00000000000E+00 0.  1.
</event>
<event>
 5    1  0.1724243E-003  0.9118800E+02  0.7818608E-02  0.1130116E+00
         25   -1    0    0    0    0  0.00000000000E+00  0.00000000000E+00  0.99999998245E-14  0.12500000000E+03  0.12500000000E+03 0.  0.
        -13    1    3    3    0    0  0.26745979487E+02 -0.22118108796E+02  0.98172420492E+01  0.36068650667E+02  0.10566000000E+00 0. -1.
         23    2    1    0    0    0 -0.24046271451E+02 -0.28229306135E+01 -0.15749113419E+02  0.96117017442E+02  0.91674720401E+02 0.  0.
         13    1    3    3    0    0 -0.50792250938E+02  0.19295178183E+02 -0.25566355468E+02  0.60048366775E+02  0.10566000000E+00 0.  1.
         22    1    1    0    0    0  0.24046271451E+02  0.28229306135E+01  0.15749113419E+02  0.28882982558E+02  0.00000000000E+00 0.  1.
</event>
<event>
 5    1  0.1724243E-003  0.9118800E+02  0.7818608E-02  0.1130116E+00
         25   -1    0    0    0    0  0.00000000000E+00  0.00000000000E+00  0.99999998245E-14  0.12500000000E+03  0.12500000000E+03 0.  0.
        -13    1    3    3    0    0 -0.51340134621E+02  0.15266983346E+02  0.29369646690E+02  0.61085820893E+02  0.10566000000E+00 0. -1.
         23    2    1    0    0    0 -0.23836419193E+02  0.88094061448E+00  0.20966852933E+02  0.93242168552E+02  0.87667223853E+02 0.  0.
         13    1    3    3    0    0  0.27503715428E+02 -0.14386042732E+02 -0.84027937568E+01  0.32156347659E+02  0.10566000000E+00 0.  1.
         22    1    1    0    0    0  0.23836419193E+02 -0.88094061448E+00 -0.20966852933E+02  0.31757831448E+02  0.00000000000E+00 0. -1.
</event>
<event>
 5    1  0.1724243E-003  0.9118800E+02  0.7818608E-02  0.1130116E+00
         25   -1    0    0    0    0  0.00000000000E+00  0.00000000000E+00  0.99999998245E-14  0.12500000000E+03  0.12500000000E+03 0.  0.
        -13    1    3    3    0    0  0.64024382487E+01  0.27382566300E+02  0.15412116964E+02  0.32067751185E+02  0.10566000000E+00 0. -1.
         23    2    1    0    0    0  0.81767727333E+01 -0.29658186323E+02 -0.71180243483E+01  0.93422572953E+02  0.87924076556E+02 0.  0.
         13    1    3    3    0    0  0.17743344846E+01 -0.57040752623E+02 -0.22530141312E+02  0.61354821768E+02  0.10566000000E+00 0.  1.
         22    1    1    0    0    0 -0.81767727333E+01  0.29658186323E+02  0.71180243483E+01  0.31577427047E+02  0.00000000000E+00 0.  1.
</event>
<event>
 5    1  0.1724243E-003  0.9118800E+02  0.7818608E-02  0.1130116E+00
         25   -1    0    0    0    0  0.00000000000E+00  0.00000000000E+00  0.99999998245E-14  0.12500000000E+03  0.12500000000E+03 0.  0.
        -13    1    3    3    0    0  0.40729232687E-01  0.41796887321E+02  0.90088459067E+01  0.42756893212E+02  0.10566000000E+00 0. -1.
         23    2    1    0    0    0 -0.15855160554E+02  0.12179147594E+01  0.29936144435E+02  0.91102475368E+02  0.84561331837E+02 0.  0.
         13    1    3    3    0    0 -0.15895889787E+02 -0.40578972561E+02  0.20927298528E+02  0.48345582156E+02  0.10566000000E+00 0.  1.
         22    1    1    0    0    0  0.15855160554E+02 -0.12179147594E+01 -0.29936144435E+02  0.33897524632E+02  0.00000000000E+00 0.  1.
</event>
<event>
 5    1  0.1724243E-003  0.9118800E+02  0.7818608E-02  0.1130116E+00
         25   -1    0    0    0    0  0.00000000000E+00  0.00000000000E+00  0.99999998245E-14  0.12500000000E+03  0.12500000000E+03 0.  0.
        -13    1    3    3    0    0  0.33158855735E+02  0.95579907278E+01  0.22765548302E+01  0.34584082557E+02  0.10566000000E+00 0. -1.
         23    2    1    0    0    0 -0.26045579691E+02  0.48007121396E+01 -0.12385985861E+02  0.95762494904E+02  0.91190041814E+02 0.  0.
         13    1    3    3    0    0 -0.59204435426E+02 -0.47572785883E+01 -0.14662540691E+02  0.61178412347E+02  0.10566000000E+00 0.  1.
         22    1    1    0    0    0  0.26045579691E+02 -0.48007121396E+01  0.12385985861E+02  0.29237505096E+02  0.00000000000E+00 0.  1.
</event>
<event>
 5    1  0.1724243E-003  0.9118800E+02  0.7818608E-02  0.1130116E+00
         25   -1    0    0    0    0  0.00000000000E+00  0.00000000000E+00  0.99999998245E-14  0.12500000000E+03  0.12500000000E+03 0.  0.
        -13    1    3    3    0    0  0.35565417455E+02 -0.19767952547E+02 -0.45365156895E+01  0.40942178804E+02  0.10566000000E+00 0. -1.
         23    2    1    0    0    0 -0.17964871683E+02 -0.88025828296E+01  0.16068804295E+02  0.99340137363E+02  0.95968923829E+02 0.  0.
         13    1    3    3    0    0 -0.53530289138E+02  0.10965369717E+02  0.20605319984E+02  0.58397958559E+02  0.10566000000E+00 0.  1.
         22    1    1    0    0    0  0.17964871683E+02  0.88025828296E+01 -0.16068804295E+02  0.25659862637E+02  0.00000000000E+00 0.  1.
</event>
<event>
 5    1  0.1724243E-003  0.9118800E+02  0.7818608E-02  0.1130116E+00
         25   -1    0    0    0    0  0.00000000000E+00  0.00000000000E+00  0.99999998245E-14  0.12500000000E+03  0.12500000000E+03 0.  0.
        -13    1    3    3    0    0  0.36774737470E+01 -0.53843320799E+02  0.51047126372E+01  0.54209743247E+02  0.10566000000E+00 0.  1.
         23    2    1    0    0    0  0.18623549901E+02 -0.96015115895E+01  0.11095201802E+02  0.10129073728E+03  0.98476821231E+02 0.  0.
         13    1    3    3    0    0  0.14946076154E+02  0.44241809209E+02  0.59904891652E+01  0.47080994032E+02  0.10566000000E+00 0. -1.
         22    1    1    0    0    0 -0.18623549901E+02  0.96015115895E+01 -0.11095201802E+02  0.23709262721E+02  0.00000000000E+00 0.  1.
</event>
<event>
 5    1  0.1724243E-003  0.9118800E+02  0.7818608E-02  0.1130116E+00
         25   -1    0    0    0    0  0.00000000000E+00  0.00000000000E+00  0.99999998245E-14  0.12500000000E+03  0.12500000000E+03 0.  0.
        -13    1    3    3    0    0 -0.35402233424E+02  0.35498475713E+02 -0.33931572156E+01  0.50249224763E+02  0.10566000000E+00 0.  1.
         23    2    1    0    0    0  0.71765259097E+01  0.27255726417E+02  0.91008096712E+01  0.95382405849E+02  0.90667532569E+02 0.  0.
         13    1    3    3    0    0  0.42578759333E+02 -0.82427492958E+01  0.12493966887E+02  0.45133181086E+02  0.10566000000E+00 0. -1.
         22    1    1    0    0    0 -0.71765259097E+01 -0.27255726417E+02 -0.91008096712E+01  0.29617594151E+02  0.00000000000E+00 0.  1.
</event>
<event>
 5    1  0.1724243E-003  0.9118800E+02  0.7818608E-02  0.1130116E+00
         25   -1    0    0    0    0  0.00000000000E+00  0.00000000000E+00  0.99999998245E-14  0.12500000000E+03  0.12500000000E+03 0.  0.
        -13    1    3    3    0    0 -0.35438005133E+02  0.76483296739E+01  0.13167798374E+01  0.36278013007E+02  0.10566000000E+00 0.  1.
         23    2    1    0    0    0  0.13167821778E+02  0.12594356129E+02  0.27731166711E+02  0.91818273947E+02  0.85612899068E+02 0.  0.
         13    1    3    3    0    0  0.48605826911E+02  0.49460264554E+01  0.26414386873E+02  0.55540260940E+02  0.10566000000E+00 0. -1.
         22    1    1    0    0    0 -0.13167821778E+02 -0.12594356129E+02 -0.27731166711E+02  0.33181726053E+02  0.00000000000E+00 0. -1.
</event>
<event>
 5    1  0.1724243E-003  0.9118800E+02  0.7818608E-02  0.1130116E+00
         25   -1    0    0    0    0  0.00000000000E+00  0.00000000000E+00  0.99999998245E-14  0.12500000000E+03  0.12500000000E+03 0.  0.
        -13    1    3    3    0    0 -0.54553563273E+01 -0.40935478416E+02  0.85353169818E+00  0.41306343172E+02  0.10566000000E+00 0.  1.
         23    2    1    0    0    0  0.87187498128E+01  0.76119607870E+01 -0.24517579815E+02  0.97887820720E+02  0.94058254183E+02 0.  0.
         13    1    3    3    0    0  0.14174106140E+02  0.48547439203E+02 -0.25371111513E+02  0.56581477548E+02  0.10566000000E+00 0. -1.
         22    1    1    0    0    0 -0.87187498128E+01 -0.76119607870E+01  0.24517579815E+02  0.27112179280E+02  0.00000000000E+00 0. -1.
</event>
<event>
 5    1  0.1724243E-003  0.9118800E+02  0.7818608E-02  0.1130116E+00
         25   -1    0    0    0    0  0.00000000000E+00  0.00000000000E+00  0.99999998245E-14  0.12500000000E+03  0.12500000000E+03 0.  0.
        -13    1    3    3    0    0  0.45948781274E+02 -0.75098577621E+00 -0.23968023936E+02  0.51829835188E+02  0.10566000000E+00 0. -1.
         23    2    1    0    0    0  0.17519305332E+02 -0.23023677596E+02  0.15127427388E+01  0.96029253030E+02  0.91554973964E+02 0.  0.
         13    1    3    3    0    0 -0.28429475941E+02 -0.22272691820E+02  0.25480766675E+02  0.44199417842E+02  0.10566000000E+00 0.  1.
         22    1    1    0    0    0 -0.17519305332E+02  0.23023677596E+02 -0.15127427388E+01  0.28970746970E+02  0.00000000000E+00 0.  1.
</event>
<event>
 5    1  0.1724243E-003  0.9118800E+02  0.7818608E-02  0.1130116E+00
         25   -1    0    0    0    0  0.00000000000E+00  0.00000000000E+00  0.99999998245E-14  0.12500000000E+03  0.12500000000E+03 0.  0.
        -13    1    3    3    0    0  0.30433079729E+02 -0.19540007738E+01  0.15482122615E+02  0.34200844222E+02  0.10566000000E+00 0. -1.
         23    2    1    0    0    0 -0.28283093271E+02  0.51413956340E-01 -0.47159313433E+01  0.96326388145E+02  0.91959757700E+02 0.  0.
         13    1    3    3    0    0 -0.58716173000E+02  0.20054147301E+01 -0.20198053958E+02  0.62125543923E+02  0.10566000000E+00 0.  1.
         22    1    1    0    0    0  0.28283093271E+02 -0.51413956340E-01  0.47159313433E+01  0.28673611855E+02  0.00000000000E+00 0.  1.
</event>
<event>
 5    1  0.1724243E-003  0.9118800E+02  0.7818608E-02  0.1130116E+00
         25   -1    0    0    0    0  0.00000000000E+00  0.00000000000E+00  0.99999998245E-14  0.12500000000E+03  0.12500000000E+03 0.  0.
        -13    1    3    3    0    0  0.34641623958E+02 -0.21016199474E+02  0.45311717490E+02  0.60785571123E+02  0.10566000000E+00 0. -1.
         23    2    1    0    0    0  0.12885696408E+02 -0.19153417646E+02  0.18158381449E+02  0.95629582974E+02  0.91007668598E+02 0.  0.
         13    1    3    3    0    0 -0.21755927550E+02  0.18627818283E+01 -0.27153336041E+02  0.34844011852E+02  0.10566000000E+00 0.  1.
         22    1    1    0    0    0 -0.12885696408E+02  0.19153417646E+02 -0.18158381449E+02  0.29370417026E+02  0.00000000000E+00 0. -1.
</event>
<event>
 5    1  0.1724243E-003  0.9118800E+02  0.7818608E-02  0.1130116E+00
         25   -1    0    0    0    0  0.00000000000E+00  0.00000000000E+00  0.99999998245E-14  0.12500000000E+03  0.12500000000E+03 0.  0.
        -13    1    3    3    0    0 -0.10502019414E+02  0.33988225450E+02  0.14414749745E+02  0.38383434647E+02  0.10566000000E+00 0.  1.
         23    2    1    0    0    0  0.27974930227E+01 -0.18545338361E+02  0.25149269858E+02  0.93627379508E+02  0.88214765641E+02 0.  0.
         13    1    3    3    0    0  0.13299512437E+02 -0.52533563811E+02  0.10734520113E+02  0.55243944862E+02  0.10566000000E+00 0. -1.
         22    1    1    0    0    0 -0.27974930227E+01  0.18545338361E+02 -0.25149269858E+02  0.31372620492E+02  0.00000000000E+00 0. -1.
</event>
<event>
 5    1  0.1724243E-003  0.9118800E+02  0.7818608E-02  0.1130116E+00
         25   -1    0    0    0    0  0.00000000000E+00  0.00000000000E+00  0.99999998245E-14  0.12500000000E+03  0.12500000000E+03 0.  0.
        -13    1    3    3    0    0  0.32534055236E+02  0.45231807935E+01 -0.85511156838E+01  0.33941960139E+02  0.10566000000E+00 0.  1.
         23    2    1    0    0    0 -0.28608503867E+02 -0.30780243751E+01  0.53358354431E+00  0.96221441333E+02  0.91816993706E+02 0.  0.
         13    1    3    3    0    0 -0.61142559103E+02 -0.76012051686E+01  0.90846992281E+01  0.62279481194E+02  0.10566000000E+00 0. -1.
         22    1    1    0    0    0  0.28608503867E+02  0.30780243751E+01 -0.53358354431E+00  0.28778558667E+02  0.00000000000E+00 0. -1.
</event>
<event>
 5    1  0.1724243E-003  0.9118800E+02  0.7818608E-02  0.1130116E+00
         25   -1    0    0    0    0  0.00000000000E+00  0.00000000000E+00  0.99999998245E-14  0.12500000000E+03  0.12500000000E+03 0.  0.
        -13    1    3    3    0    0  0.28552680070E+02  0.44868712039E+02 -0.18447129535E+02  0.56291781028E+02  0.10566000000E+00 0. -1.
         23    2    1    0    0    0  0.18718622270E+02  0.74581007151E+01 -0.22036960006E+02  0.95139697050E+02  0.90332299111E+02 0.  0.
         13    1    3    3    0    0 -0.98340578001E+01 -0.37410611324E+02 -0.35898304703E+01  0.38847916022E+02  0.10566000000E+00 0.  1.
         22    1    1    0    0    0 -0.18718622270E+02 -0.74581007151E+01  0.22036960006E+02  0.29860302950E+02  0.00000000000E+00 0. -1.
</event>
<event>
 5    1  0.1724243E-003  0.9118800E+02  0.7818608E-02  0.1130116E+00
         25   -1    0    0    0    0  0.00000000000E+00  0.00000000000E+00  0.99999998245E-14  0.12500000000E+03  0.12500000000E+03 0.  0.
        -13    1    3    3    0    0  0.30204914459E+02  0.18614519964E+01  0.39689992313E+02  0.49911005949E+02  0.10566000000E+00 0.  1.
         23    2    1    0    0    0  0.69648356316E+01 -0.25873481791E+02  0.11228547309E+02  0.95947869785E+02  0.91443793919E+02 0.  0.
         13    1    3    3    0    0 -0.23240078827E+02 -0.27734933787E+02 -0.28461445004E+02  0.46036863836E+02  0.10566000000E+00 0. -1.
         22    1    1    0    0    0 -0.69648356316E+01  0.25873481791E+02 -0.11228547309E+02  0.29052130215E+02  0.00000000000E+00 0.  1.
</event>
<event>
 5    1  0.1724243E-003  0.9118800E+02  0.7818608E-02  0.1130116E+00
         25   -1    0    0    0    0  0.00000000000E+00  0.00000000000E+00  0.99999998245E-14  0.12500000000E+03  0.12500000000E+03 0.  0.
        -13    1    3    3    0    0  0.26955934477E+02  0.24328288087E+01 -0.25798116881E+02  0.37391109347E+02  0.10566000000E+00 0.  1.
         23    2    1    0    0    0 -0.72971178344E+01  0.10862572793E+02  0.23554634414E+02  0.98054421165E+02  0.94279400142E+02 0.  0.
         13    1    3    3    0    0 -0.34253052311E+02  0.84297439845E+01  0.49352751295E+02  0.60663311818E+02  0.10566000000E+00 0. -1.
         22    1    1    0    0    0  0.72971178344E+01 -0.10862572793E+02 -0.23554634414E+02  0.26945578835E+02  0.00000000000E+00 0. -1.
</event>
<event>
 5    1  0.1724243E-003  0.9118800E+02  0.7818608E-02  0.1130116E+00
         25   -1    0    0    0    0  0.00000000000E+00  0.00000000000E+00  0.99999998245E-14  0.12500000000E+03  0.12500000000E+03 0.  0.
        -13    1    3    3    0    0 -0.40350483719E+01 -0.31277566404E+02 -0.17972821460E+02  0.36298777539E+02  0.10566000000E+00 0.  1.
         23    2    1    0    0    0 -0.13508365547E+02  0.14526901172E+02  0.20211922286E+02  0.96679890539E+02  0.92439021169E+02 0.  0.
         13    1    3    3    0    0 -0.94733171751E+01  0.45804467576E+02  0.38184743746E+02  0.60381113000E+02  0.10566000000E+00 0. -1.
         22    1    1    0    0    0  0.13508365547E+02 -0.14526901172E+02 -0.20211922286E+02  0.28320109461E+02  0.00000000000E+00 0. -1.
</event>
<event>
 5    1  0.1724243E-003  0.9118800E+02  0.7818608E-02  0.1130116E+00
         25   -1    0    0    0    0  0.00000000000E+00  0.00000000000E+00  0.99999998245E-14  0.12500000000E+03  0.12500000000E+03 0.  0.
        -13    1    3    3    0    0 -0.17402259468E+02 -0.29398298824E+02  0.14154300197E+02  0.36979102023E+02  0.10566000000E+00 0. -1.
         23    2    1    0    0    0  0.11407051337E+02  0.14257636667E+01 -0.26837149463E+02  0.95804345982E+02  0.91247391719E+02 0.  0.
         13    1    3    3    0    0  0.28809310806E+02  0.30824062491E+02 -0.40991449660E+02  0.58825243959E+02  0.10566000000E+00 0.  1.
         22    1    1    0    0    0 -0.11407051337E+02 -0.14257636667E+01  0.26837149463E+02  0.29195654018E+02  0.00000000000E+00 0.  1.
</event>
<event>
 5    1  0.1724243E-003  0.9118800E+02  0.7818608E-02  0.1130116E+00
         25   -1    0    0    0    0  0.00000000000E+00  0.00000000000E+00  0.99999998245E-14  0.12500000000E+03  0.12500000000E+03 0.  0.
        -13    1    3    3    0    0  0.32791189150E+02 -0.12612743350E+02 -0.11770841503E+02  0.37052763114E+02  0.10566000000E+00 0.  1.
         23    2    1    0    0    0 -0.26360221551E+02  0.18316173952E+00 -0.67995981072E+01  0.97776308794E+02  0.93909941958E+02 0.  0.
         13    1    3    3    0    0 -0.59151410701E+02  0.12795905090E+02  0.49712433956E+01  0.60723545680E+02  0.10566000000E+00 0. -1.
         22    1    1    0    0    0  0.26360221551E+02 -0.18316173952E+00  0.67995981072E+01  0.27223691206E+02  0.00000000000E+00 0. -1.
</event>
<event>
 5    1  0.1724243E-003  0.9118800E+02  0.7818608E-02  0.1130116E+00
         25   -1    0    0    0    0  0.00000000000E+00  0.00000000000E+00  0.99999998245E-14  0.12500000000E+03  0.12500000000E+03 0.  0.
        -13    1    3    3    0    0 -0.42632880792E+02 -0.41428251104E+01 -0.19271903768E+02  0.46969596160E+02  0.10566000000E+00 0.  1.
         23    2    1    0    0    0 -0.40849944383E+02 -0.27196448247E+02 -0.19049357940E+01  0.75887949201E+02  0.57853152898E+02 0.  0.
         13    1    3    3    0    0  0.17829364099E+01 -0.23053623137E+02  0.17366967974E+02  0.28918353041E+02  0.10566000000E+00 0. -1.
         22    1    1    0    0    0  0.40849944383E+02  0.27196448247E+02  0.19049357940E+01  0.49112050799E+02  0.00000000000E+00 0.  1.
</event>
<event>
 5    1  0.1724243E-003  0.9118800E+02  0.7818608E-02  0.1130116E+00
         25   -1    0    0    0    0  0.00000000000E+00  0.00000000000E+00  0.99999998245E-14  0.12500000000E+03  0.12500000000E+03 0.  0.
        -13    1    3    3    0    0 -0.84030918346E+01  0.38023344218E+02 -0.41815303924E+02  0.57139456282E+02  0.10566000000E+00 0.  1.
         23    2    1    0    0    0 -0.16381897412E+02  0.24421504920E+02 -0.78868284945E+01  0.94553677906E+02  0.89517704821E+02 0.  0.
         13    1    3    3    0    0 -0.79788055773E+01 -0.13601839298E+02  0.33928475429E+02  0.37414221624E+02  0.10566000000E+00 0. -1.
         22    1    1    0    0    0  0.16381897412E+02 -0.24421504920E+02  0.78868284945E+01  0.30446322094E+02  0.00000000000E+00 0.  1.
</event>
<event>
 5    1  0.1724243E-003  0.9118800E+02  0.7818608E-02  0.1130116E+00
         25   -1    0    0    0    0  0.00000000000E+00  0.00000000000E+00  0.99999998245E-14  0.12500000000E+03  0.12500000000E+03 0.  0.
        -13    1    3    3    0    0 -0.38337248326E+02 -0.29930167776E+02  0.24290487840E+02  0.54365416543E+02  0.10566000000E+00 0. -1.
         23    2    1    0    0    0 -0.25975164648E+02  0.72664260828E+01  0.12299112001E+02  0.95355805248E+02  0.90630851877E+02 0.  0.
         13    1    3    3    0    0  0.12362083678E+02  0.37196593859E+02 -0.11991375839E+02  0.40990388704E+02  0.10566000000E+00 0.  1.
         22    1    1    0    0    0  0.25975164648E+02 -0.72664260828E+01 -0.12299112001E+02  0.29644194752E+02  0.00000000000E+00 0. -1.
</event>
<event>
 5    1  0.1724243E-003  0.9118800E+02  0.7818608E-02  0.1130116E+00
         25   -1    0    0    0    0  0.00000000000E+00  0.00000000000E+00  0.99999998245E-14  0.12500000000E+03  0.12500000000E+03 0.  0.
        -13    1    3    3    0    0  0.20812677761E+02  0.32454636117E+02 -0.19248558606E+02  0.43092796770E+02  0.10566000000E+00 0.  1.
         23    2    1    0    0    0 -0.94871333526E+01 -0.15040312251E+02 -0.18364724002E+02  0.99436749433E+02  0.96094679136E+02 0.  0.
         13    1    3    3    0    0 -0.30299811113E+02 -0.47494948368E+02  0.88383460361E+00  0.56343952663E+02  0.10566000000E+00 0. -1.
         22    1    1    0    0    0  0.94871333526E+01  0.15040312251E+02  0.18364724002E+02  0.25563250567E+02  0.00000000000E+00 0. -1.
</event>
<event>
 5    1  0.1724243E-003  0.9118800E+02  0.7818608E-02  0.1130116E+00
         25   -1    0    0    0    0  0.00000000000E+00  0.00000000000E+00  0.99999998245E-14  0.12500000000E+03  0.12500000000E+03 0.  0.
        -13    1    3    3    0    0  0.25442609401E+02  0.36301943193E+02  0.50923429618E+01  0.44621750006E+02  0.10566000000E+00 0. -1.
         23    2    1    0    0    0 -0.19094403460E+02  0.15742662843E+02 -0.13172566852E+02  0.96965303741E+02  0.92824166763E+02 0.  0.
         13    1    3    3    0    0 -0.44537012861E+02 -0.20559280350E+02 -0.18264909814E+02  0.52343553735E+02  0.10566000000E+00 0.  1.
         22    1    1    0    0    0  0.19094403460E+02 -0.15742662843E+02  0.13172566852E+02  0.28034696259E+02  0.00000000000E+00 0.  1.
</event>
<event>
 5    1  0.1724243E-003  0.9118800E+02  0.7818608E-02  0.1130116E+00
         25   -1    0    0    0    0  0.00000000000E+00  0.00000000000E+00  0.99999998245E-14  0.12500000000E+03  0.12500000000E+03 0.  0.
        -13    1    3    3    0    0  0.16718192265E+02  0.20466481592E+02  0.31668669560E+02  0.41246704318E+02  0.10566000000E+00 0.  1.
         23    2    1    0    0    0 -0.27220711814E+02 -0.30204081365E+01  0.76053287306E+01  0.96575872184E+02  0.92298255921E+02 0.  0.
         13    1    3    3    0    0 -0.43938904079E+02 -0.23486889729E+02 -0.24063340829E+02  0.55329167866E+02  0.10566000000E+00 0. -1.
         22    1    1    0    0    0  0.27220711814E+02  0.30204081365E+01 -0.76053287306E+01  0.28424127816E+02  0.00000000000E+00 0. -1.
</event>
<event>
 5    1  0.1724243E-003  0.9118800E+02  0.7818608E-02  0.1130116E+00
         25   -1    0    0    0    0  0.00000000000E+00  0.00000000000E+00  0.99999998245E-14  0.12500000000E+03  0.12500000000E+03 0.  0.
        -13    1    3    3    0    0 -0.48588281018E+02  0.22164892161E+02 -0.19268669050E+02  0.56774961627E+02  0.10566000000E+00 0.  1.
         23    2    1    0    0    0 -0.12729851191E+02  0.13619811646E+02 -0.24719757499E+02  0.94038495007E+02  0.88795403889E+02 0.  0.
         13    1    3    3    0    0  0.35858429826E+02 -0.85450805154E+01 -0.54510884491E+01  0.37263533380E+02  0.10566000000E+00 0. -1.
         22    1    1    0    0    0  0.12729851191E+02 -0.13619811646E+02  0.24719757499E+02  0.30961504993E+02  0.00000000000E+00 0.  1.
</event>
<event>
 5    1  0.1724243E-003  0.9118800E+02  0.7818608E-02  0.1130116E+00
         25   -1    0    0    0    0  0.00000000000E+00  0.00000000000E+00  0.99999998245E-14  0.12500000000E+03  0.12500000000E+03 0.  0.
        -13    1    3    3    0    0 -0.85871304316E+01 -0.47442474134E+02  0.95000674908E+01  0.49140508823E+02  0.10566000000E+00 0.  1.
         23    2    1    0    0    0  0.24476628430E+02 -0.15016638815E+02  0.72549478032E+00  0.96274904295E+02  0.91889749557E+02 0.  0.
         13    1    3    3    0    0  0.33063758862E+02  0.32425835319E+02 -0.87745727105E+01  0.47134395472E+02  0.10566000000E+00 0. -1.
         22    1    1    0    0    0 -0.24476628430E+02  0.15016638815E+02 -0.72549478032E+00  0.28725095705E+02  0.00000000000E+00 0.  1.
</event>
<event>
 5    1  0.1724243E-003  0.9118800E+02  0.7818608E-02  0.1130116E+00
         25   -1    0    0    0    0  0.00000000000E+00  0.00000000000E+00  0.99999998245E-14  0.12500000000E+03  0.12500000000E+03 0.  0.
        -13    1    3    3    0    0 -0.76232286387E+01  0.74568815305E+01  0.49667348031E+02  0.50799363396E+02  0.10566000000E+00 0. -1.
         23    2    1    0    0    0 -0.16877575288E+02 -0.19063426148E+02  0.14885371464E+02  0.95506932209E+02  0.90839050261E+02 0.  0.
         13    1    3    3    0    0 -0.92543466492E+01 -0.26520307678E+02 -0.34781976567E+02  0.44707568813E+02  0.10566000000E+00 0.  1.
         22    1    1    0    0    0  0.16877575288E+02  0.19063426148E+02 -0.14885371464E+02  0.29493067791E+02  0.00000000000E+00 0. -1.
</event>
<event>
 5    1  0.1724243E-003  0.9118800E+02  0.7818608E-02  0.1130116E+00
         25   -1    0    0    0    0  0.00000000000E+00  0.00000000000E+00  0.99999998245E-14  0.12500000000E+03  0.12500000000E+03 0.  0.
        -13    1    3    3    0    0 -0.20422305554E+02 -0.24050606731E+02  0.18975634420E+02  0.36818312209E+02  0.10566000000E+00 0. -1.
         23    2    1    0    0    0  0.18037995473E+02  0.20332859989E+02  0.88564750415E+01  0.96412736644E+02  0.92077055563E+02 0.  0.
         13    1    3    3    0    0  0.38460301027E+02  0.44383466720E+02 -0.10119159379E+02  0.59594424435E+02  0.10566000000E+00 0.  1.
         22    1    1    0    0    0 -0.18037995473E+02 -0.20332859989E+02 -0.88564750415E+01  0.28587263356E+02  0.00000000000E+00 0.  1.
</event>
<event>
 5    1  0.1724243E-003  0.9118800E+02  0.7818608E-02  0.1130116E+00
         25   -1    0    0    0    0  0.00000000000E+00  0.00000000000E+00  0.99999998245E-14  0.12500000000E+03  0.12500000000E+03 0.  0.
        -13    1    3    3    0    0 -0.41878258943E+02 -0.20296294714E+02  0.25915687288E+02  0.53266895562E+02  0.10566000000E+00 0.  1.
         23    2    1    0    0    0  0.14265405696E+01 -0.23147031562E+02  0.12286973004E+02  0.98755194920E+02  0.95203984843E+02 0.  0.
         13    1    3    3    0    0  0.43304799512E+02 -0.28507368477E+01 -0.13628714284E+02  0.45488299358E+02  0.10566000000E+00 0. -1.
         22    1    1    0    0    0 -0.14265405696E+01  0.23147031562E+02 -0.12286973004E+02  0.26244805080E+02  0.00000000000E+00 0. -1.
</event>
<event>
 5    1  0.1724243E-003  0.9118800E+02  0.7818608E-02  0.1130116E+00
         25   -1    0    0    0    0  0.00000000000E+00  0.00000000000E+00  0.99999998245E-14  0.12500000000E+03  0.12500000000E+03 0.  0.
        -13    1    3    3    0    0  0.45922588146E+01  0.22944290653E+02  0.30183322704E+02  0.38191274502E+02  0.10566000000E+00 0.  1.
         23    2    1    0    0    0 -0.23836826991E+02  0.16910862280E+02 -0.15180721154E+02  0.92066341248E+02  0.85974329377E+02 0.  0.
         13    1    3    3    0    0 -0.28429085806E+02 -0.60334283730E+01 -0.45364043858E+02  0.53875066746E+02  0.10566000000E+00 0. -1.
         22    1    1    0    0    0  0.23836826991E+02 -0.16910862280E+02  0.15180721154E+02  0.32933658752E+02  0.00000000000E+00 0. -1.
</event>
<event>
 5    1  0.1724243E-003  0.9118800E+02  0.7818608E-02  0.1130116E+00
         25   -1    0    0    0    0  0.00000000000E+00  0.00000000000E+00  0.99999998245E-14  0.12500000000E+03  0.12500000000E+03 0.  0.
        -13    1    3    3    0    0 -0.13053189804E+02  0.32053716315E+02 -0.17711122982E+02  0.38878291307E+02  0.10566000000E+00 0.  1.
         23    2    1    0    0    0  0.11848546220E+01 -0.22898330209E+02 -0.18324395939E+02  0.95648323841E+02  0.91033405738E+02 0.  0.
         13    1    3    3    0    0  0.14238044426E+02 -0.54952046523E+02 -0.61327295683E+00  0.56770032534E+02  0.10566000000E+00 0. -1.
         22    1    1    0    0    0 -0.11848546220E+01  0.22898330209E+02  0.18324395939E+02  0.29351676159E+02  0.00000000000E+00 0. -1.
</event>
<event>
 5    1  0.1724243E-003  0.9118800E+02  0.7818608E-02  0.1130116E+00
         25   -1    0    0    0    0  0.00000000000E+00  0.00000000000E+00  0.99999998245E-14  0.12500000000E+03  0.12500000000E+03 0.  0.
        -13    1    3    3    0    0  0.16764616313E+02 -0.33285046421E+02  0.14109342015E+02  0.39850111311E+02  0.10566000000E+00 0. -1.
         23    2    1    0    0    0 -0.26588798715E+02 -0.25404400622E+01 -0.75515970545E+01  0.97243114892E+02  0.93197525305E+02 0.  0.
         13    1    3    3    0    0 -0.43353415028E+02  0.30744606358E+02 -0.21660939070E+02  0.57393003582E+02  0.10566000000E+00 0.  1.
         22    1    1    0    0    0  0.26588798715E+02  0.25404400622E+01  0.75515970545E+01  0.27756885108E+02  0.00000000000E+00 0. -1.
</event>
<event>
 5    1  0.1724243E-003  0.9118800E+02  0.7818608E-02  0.1130116E+00
         25   -1    0    0    0    0  0.00000000000E+00  0.00000000000E+00  0.99999998245E-14  0.12500000000E+03  0.12500000000E+03 0.  0.
        -13    1    3    3    0    0 -0.25943262263E+02  0.22655397427E+02 -0.16215759983E+01  0.34481307431E+02  0.10566000000E+00 0.  1.
         23    2    1    0    0    0  0.21979757562E+02 -0.13107258609E+02 -0.14411228003E+02  0.95630058508E+02  0.91008321745E+02 0.  0.
         13    1    3    3    0    0  0.47923019824E+02 -0.35762656036E+02 -0.12789652005E+02  0.61148751077E+02  0.10566000000E+00 0. -1.
         22    1    1    0    0    0 -0.21979757562E+02  0.13107258609E+02  0.14411228003E+02  0.29369941492E+02  0.00000000000E+00 0. -1.
</event>
<event>
 5    1  0.1724243E-003  0.9118800E+02  0.7818608E-02  0.1130116E+00
         25   -1    0    0    0    0  0.00000000000E+00  0.00000000000E+00  0.99999998245E-14  0.12500000000E+03  0.12500000000E+03 0.  0.
        -13    1    3    3    0    0 -0.47146467110E+02  0.28040820498E+02  0.12124298270E+02  0.56179059691E+02  0.10566000000E+00 0.  1.
         23    2    1    0    0    0 -0.21988013578E+02  0.32498512833E+02  0.17079896864E+02  0.82205736899E+02  0.70188561923E+02 0.  0.
         13    1    3    3    0    0  0.25158453532E+02  0.44576923346E+01  0.49555985939E+01  0.26026677208E+02  0.10566000000E+00 0. -1.
         22    1    1    0    0    0  0.21988013578E+02 -0.32498512833E+02 -0.17079896864E+02  0.42794263101E+02  0.00000000000E+00 0.  1.
</event>
<event>
 5    1  0.1724243E-003  0.9118800E+02  0.7818608E-02  0.1130116E+00
         25   -1    0    0    0    0  0.00000000000E+00  0.00000000000E+00  0.99999998245E-14  0.12500000000E+03  0.12500000000E+03 0.  0.
        -13    1    3    3    0    0 -0.26893023423E+02 -0.38940882651E+02  0.25046257229E+02  0.53543937245E+02  0.10566000000E+00 0. -1.
         23    2    1    0    0    0  0.91173844660E+01 -0.17424326873E+02  0.21833334994E+02  0.95615848091E+02  0.90988801633E+02 0.  0.
         13    1    3    3    0    0  0.36010407889E+02  0.21516555778E+02 -0.32129222350E+01  0.42071910846E+02  0.10566000000E+00 0.  1.
         22    1    1    0    0    0 -0.91173844660E+01  0.17424326873E+02 -0.21833334994E+02  0.29384151909E+02  0.00000000000E+00 0.  1.
</event>
<event>
 5    1  0.1724243E-003  0.9118800E+02  0.7818608E-02  0.1130116E+00
         25   -1    0    0    0    0  0.00000000000E+00  0.00000000000E+00  0.99999998245E-14  0.12500000000E+03  0.12500000000E+03 0.  0.
        -13    1    3    3    0    0 -0.24833803570E+02  0.21176197397E+02 -0.43757093229E+01  0.32928819173E+02  0.10566000000E+00 0.  1.
         23    2    1    0    0    0  0.15878267062E+02 -0.23296516228E+02  0.10302931509E+02  0.94983380754E+02  0.90115732192E+02 0.  0.
         13    1    3    3    0    0  0.40712070632E+02 -0.44472713625E+02  0.14678640832E+02  0.62054561582E+02  0.10566000000E+00 0. -1.
         22    1    1    0    0    0 -0.15878267062E+02  0.23296516228E+02 -0.10302931509E+02  0.30016619246E+02  0.00000000000E+00 0. -1.
</event>
<event>
 5    1  0.1724243E-003  0.9118800E+02  0.7818608E-02  0.1130116E+00
         25   -1    0    0    0    0  0.00000000000E+00  0.00000000000E+00  0.99999998245E-14  0.12500000000E+03  0.12500000000E+03 0.  0.
        -13    1    3    3    0    0 -0.32523628334E+02 -0.70508533863E+01 -0.15901220103E+02  0.36883070619E+02  0.10566000000E+00 0.  1.
         23    2    1    0    0    0  0.18669098195E+02 -0.20430711141E+02  0.97130254671E+01  0.95669264434E+02  0.91062155193E+02 0.  0.
         13    1    3    3    0    0  0.51192726529E+02 -0.13379857754E+02  0.25614245570E+02  0.58786193815E+02  0.10566000000E+00 0. -1.
         22    1    1    0    0    0 -0.18669098195E+02  0.20430711141E+02 -0.97130254671E+01  0.29330735566E+02  0.00000000000E+00 0. -1.
</event>
<event>
 5    1  0.1724243E-003  0.9118800E+02  0.7818608E-02  0.1130116E+00
         25   -1    0    0    0    0  0.00000000000E+00  0.00000000000E+00  0.99999998245E-14  0.12500000000E+03  0.12500000000E+03 0.  0.
        -13    1    3    3    0    0 -0.34989030199E+02  0.45817464613E+01 -0.40437943458E+02  0.53669945687E+02  0.10566000000E+00 0. -1.
         23    2    1    0    0    0 -0.16805851136E+02  0.21734180512E+02 -0.49405722228E+01  0.97085478890E+02  0.92985857648E+02 0.  0.
         13    1    3    3    0    0  0.18183179063E+02  0.17152434050E+02  0.35497371235E+02  0.43415533203E+02  0.10566000000E+00 0.  1.
         22    1    1    0    0    0  0.16805851136E+02 -0.21734180512E+02  0.49405722228E+01  0.27914521110E+02  0.00000000000E+00 0. -1.
</event>
<event>
 5    1  0.1724243E-003  0.9118800E+02  0.7818608E-02  0.1130116E+00
         25   -1    0    0    0    0  0.00000000000E+00  0.00000000000E+00  0.99999998245E-14  0.12500000000E+03  0.12500000000E+03 0.  0.
        -13    1    3    3    0    0  0.14044637699E+01 -0.33555314319E+02  0.20084323324E+02  0.39132120374E+02  0.10566000000E+00 0.  1.
         23    2    1    0    0    0  0.21023712300E+02  0.18290563258E+02  0.94341857645E+01  0.95579853090E+02  0.90939338421E+02 0.  0.
         13    1    3    3    0    0  0.19619248530E+02  0.51845877577E+02 -0.10650137560E+02  0.56447732716E+02  0.10566000000E+00 0. -1.
         22    1    1    0    0    0 -0.21023712300E+02 -0.18290563258E+02 -0.94341857645E+01  0.29420146910E+02  0.00000000000E+00 0. -1.
</event>
<event>
 5    1  0.1724243E-003  0.9118800E+02  0.7818608E-02  0.1130116E+00
         25   -1    0    0    0    0  0.00000000000E+00  0.00000000000E+00  0.99999998245E-14  0.12500000000E+03  0.12500000000E+03 0.  0.
        -13    1    3    3    0    0  0.52533545563E+01  0.29299941879E+02 -0.15513721476E+02  0.33567410479E+02  0.10566000000E+00 0.  1.
         23    2    1    0    0    0 -0.25833502920E+02 -0.16698233784E+02  0.69608864649E+01  0.93461851275E+02  0.87979900084E+02 0.  0.
         13    1    3    3    0    0 -0.31086857476E+02 -0.45998175663E+02  0.22474607941E+02  0.59894440796E+02  0.10566000000E+00 0. -1.
         22    1    1    0    0    0  0.25833502920E+02  0.16698233784E+02 -0.69608864649E+01  0.31538148725E+02  0.00000000000E+00 0. -1.
</event>
<event>
 5    1  0.1724243E-003  0.9118800E+02  0.7818608E-02  0.1130116E+00
         25   -1    0    0    0    0  0.00000000000E+00  0.00000000000E+00  0.99999998245E-14  0.12500000000E+03  0.12500000000E+03 0.  0.
        -13    1    3    3    0    0 -0.70627180878E+00  0.46328914554E+02 -0.94314694501E+01  0.47284573845E+02  0.10566000000E+00 0. -1.
         23    2    1    0    0    0 -0.20312109220E+02  0.49556755494E+01 -0.21886218610E+02  0.94732078595E+02  0.89766472854E+02 0.  0.
         13    1    3    3    0    0 -0.19605837411E+02 -0.41373239005E+02 -0.12454749160E+02  0.47447504750E+02  0.10566000000E+00 0.  1.
         22    1    1    0    0    0  0.20312109220E+02 -0.49556755494E+01  0.21886218610E+02  0.30267921405E+02  0.00000000000E+00 0. -1.
</event>
<event>
 5    1  0.1724243E-003  0.9118800E+02  0.7818608E-02  0.1130116E+00
         25   -1    0    0    0    0  0.00000000000E+00  0.00000000000E+00  0.99999998245E-14  0.12500000000E+03  0.12500000000E+03 0.  0.
        -13    1    3    3    0    0  0.30446277377E+02  0.45255676306E+02 -0.16557821235E+02  0.57001970599E+02  0.10566000000E+00 0.  1.
         23    2    1    0    0    0  0.25494070574E+02  0.62984690065E+01 -0.10411036960E+02  0.96750963966E+02  0.92535079789E+02 0.  0.
         13    1    3    3    0    0 -0.49522068035E+01 -0.38957207300E+02  0.61467842744E+01  0.39748993368E+02  0.10566000000E+00 0. -1.
         22    1    1    0    0    0 -0.25494070574E+02 -0.62984690065E+01  0.10411036960E+02  0.28249036034E+02  0.00000000000E+00 0.  1.
</event>
<event>
 5    1  0.1724243E-003  0.9118800E+02  0.7818608E-02  0.1130116E+00
         25   -1    0    0    0    0  0.00000000000E+00  0.00000000000E+00  0.99999998245E-14  0.12500000000E+03  0.12500000000E+03 0.  0.
        -13    1    3    3    0    0  0.54208393201E+02 -0.25720478984E+02  0.26232730764E+01  0.60058185606E+02  0.10566000000E+00 0. -1.
         23    2    1    0    0    0  0.21527327656E+02 -0.18354571954E+02 -0.86698198197E+01  0.95411456215E+02  0.90707574401E+02 0.  0.
         13    1    3    3    0    0 -0.32681065545E+02  0.73659070298E+01 -0.11293092896E+02  0.35353270609E+02  0.10566000000E+00 0.  1.
         22    1    1    0    0    0 -0.21527327656E+02  0.18354571954E+02  0.86698198197E+01  0.29588543785E+02  0.00000000000E+00 0. -1.
</event>
<event>
 5    1  0.1724243E-003  0.9118800E+02  0.7818608E-02  0.1130116E+00
         25   -1    0    0    0    0  0.00000000000E+00  0.00000000000E+00  0.99999998245E-14  0.12500000000E+03  0.12500000000E+03 0.  0.
        -13    1    3    3    0    0 -0.26831730425E+02  0.83809620613E+01 -0.28663465376E+02  0.40147075785E+02  0.10566000000E+00 0. -1.
         23    2    1    0    0    0 -0.15177103881E+01  0.19216304066E+02  0.20727130410E+02  0.96694811044E+02  0.92459195114E+02 0.  0.
         13    1    3    3    0    0  0.25314020037E+02  0.10835342005E+02  0.49390595786E+02  0.56547735259E+02  0.10566000000E+00 0.  1.
         22    1    1    0    0    0  0.15177103881E+01 -0.19216304066E+02 -0.20727130410E+02  0.28305188956E+02  0.00000000000E+00 0.  1.
</event>
<event>
 5    1  0.1724243E-003  0.9118800E+02  0.7818608E-02  0.1130116E+00
         25   -1    0    0    0    0  0.00000000000E+00  0.00000000000E+00  0.99999998245E-14  0.12500000000E+03  0.12500000000E+03 0.  0.
        -13    1    3    3    0    0 -0.38428123621E+02  0.10565241265E+02  0.33572447229E+01  0.39995340531E+02  0.10566000000E+00 0. -1.
         23    2    1    0    0    0  0.88776208958E+01 -0.44718245237E+01  0.27909055812E+02  0.95373579972E+02  0.90655363841E+02 0.  0.
         13    1    3    3    0    0  0.47305744517E+02 -0.15037065789E+02  0.24551811089E+02  0.55378239441E+02  0.10566000000E+00 0.  1.
         22    1    1    0    0    0 -0.88776208958E+01  0.44718245237E+01 -0.27909055812E+02  0.29626420028E+02  0.00000000000E+00 0. -1.
</event>
<event>
 5    1  0.1724243E-003  0.9118800E+02  0.7818608E-02  0.1130116E+00
         25   -1    0    0    0    0  0.00000000000E+00  0.00000000000E+00  0.99999998245E-14  0.12500000000E+03  0.12500000000E+03 0.  0.
        -13    1    3    3    0    0  0.12457400747E+02  0.66725876696E+01 -0.30528158471E+02  0.33640598735E+02  0.10566000000E+00 0. -1.
         23    2    1    0    0    0 -0.15942595426E+02  0.11688515371E+01  0.24463327102E+02  0.95776945133E+02  0.91209847513E+02 0.  0.
         13    1    3    3    0    0 -0.28399996173E+02 -0.55037361325E+01  0.54991485574E+02  0.62136346398E+02  0.10566000000E+00 0.  1.
         22    1    1    0    0    0  0.15942595426E+02 -0.11688515371E+01 -0.24463327102E+02  0.29223054867E+02  0.00000000000E+00 0.  1.
</event>
<event>
 5    1  0.1724243E-003  0.9118800E+02  0.7818608E-02  0.1130116E+00
         25   -1    0    0    0    0  0.00000000000E+00  0.00000000000E+00  0.99999998245E-14  0.12500000000E+03  0.12500000000E+03 0.  0.
        -13    1    3    3    0    0 -0.32902989942E+02 -0.49676493715E+02  0.12065678148E+02  0.60794346185E+02  0.10566000000E+00 0. -1.
         23    2    1    0    0    0 -0.21093109121E+02 -0.19491901636E+02 -0.21747698439E+01  0.96197515634E+02  0.91784415390E+02 0.  0.
         13    1    3    3    0    0  0.11809880821E+02  0.30184592078E+02 -0.14240447992E+02  0.35403169449E+02  0.10566000000E+00 0.  1.
         22    1    1    0    0    0  0.21093109121E+02  0.19491901636E+02  0.21747698439E+01  0.28802484366E+02  0.00000000000E+00 0. -1.
</event>
<event>
 5    1  0.1724243E-003  0.9118800E+02  0.7818608E-02  0.1130116E+00
         25   -1    0    0    0    0  0.00000000000E+00  0.00000000000E+00  0.99999998245E-14  0.12500000000E+03  0.12500000000E+03 0.  0.
        -13    1    3    3    0    0  0.97050297238E+01  0.50515064478E+02 -0.32403091194E+01  0.51540955641E+02  0.10566000000E+00 0. -1.
         23    2    1    0    0    0 -0.18907051587E+02  0.88706337005E+01 -0.87289741945E+01  0.10236463536E+03  0.99830650802E+02 0.  0.
         13    1    3    3    0    0 -0.28612081311E+02 -0.41644430777E+02 -0.54886650752E+01  0.50823679718E+02  0.10566000000E+00 0.  1.
         22    1    1    0    0    0  0.18907051587E+02 -0.88706337005E+01  0.87289741945E+01  0.22635364642E+02  0.00000000000E+00 0.  1.
</event>
<event>
 5    1  0.1724243E-003  0.9118800E+02  0.7818608E-02  0.1130116E+00
         25   -1    0    0    0    0  0.00000000000E+00  0.00000000000E+00  0.99999998245E-14  0.12500000000E+03  0.12500000000E+03 0.  0.
        -13    1    3    3    0    0  0.20629444088E+02  0.29115522818E+02  0.49577953773E+02  0.61084141123E+02  0.10566000000E+00 0. -1.
         23    2    1    0    0    0  0.20325052387E+01  0.19098777946E+02  0.22920091486E+02  0.95096405061E+02  0.90272372658E+02 0.  0.
         13    1    3    3    0    0 -0.18596938849E+02 -0.10016744873E+02 -0.26657862288E+02  0.34012263938E+02  0.10566000000E+00 0.  1.
         22    1    1    0    0    0 -0.20325052387E+01 -0.19098777946E+02 -0.22920091486E+02  0.29903594939E+02  0.00000000000E+00 0. -1.
</event>
<event>
 5    1  0.1724243E-003  0.9118800E+02  0.7818608E-02  0.1130116E+00
         25   -1    0    0    0    0  0.00000000000E+00  0.00000000000E+00  0.99999998245E-14  0.12500000000E+03  0.12500000000E+03 0.  0.
        -13    1    3    3    0    0 -0.42225258666E+02 -0.12034859491E+02  0.28366995574E+02  0.52273395856E+02  0.10566000000E+00 0.  1.
         23    2    1    0    0    0 -0.23863956646E+02  0.14470564356E+02 -0.25886281846E+01  0.96971681187E+02  0.92832754440E+02 0.  0.
         13    1    3    3    0    0  0.18361302020E+02  0.26505423848E+02 -0.30955623759E+02  0.44698285331E+02  0.10566000000E+00 0. -1.
         22    1    1    0    0    0  0.23863956646E+02 -0.14470564356E+02  0.25886281846E+01  0.28028318813E+02  0.00000000000E+00 0.  1.
</event>
<event>
 5    1  0.1724243E-003  0.9118800E+02  0.7818608E-02  0.1130116E+00
         25   -1    0    0    0    0  0.00000000000E+00  0.00000000000E+00  0.99999998245E-14  0.12500000000E+03  0.12500000000E+03 0.  0.
        -13    1    3    3    0    0  0.18621170457E+02 -0.15414539561E+02  0.25558072922E+02  0.35179287580E+02  0.10566000000E+00 0. -1.
         23    2    1    0    0    0 -0.10408104094E+02  0.22084551590E+02 -0.13931202652E+02  0.96890669573E+02  0.92723607529E+02 0.  0.
         13    1    3    3    0    0 -0.29029274551E+02  0.37499091151E+02 -0.39489275574E+02  0.61711381993E+02  0.10566000000E+00 0.  1.
         22    1    1    0    0    0  0.10408104094E+02 -0.22084551590E+02  0.13931202652E+02  0.28109330427E+02  0.00000000000E+00 0.  1.
</event>
<event>
 5    1  0.1724243E-003  0.9118800E+02  0.7818608E-02  0.1130116E+00
         25   -1    0    0    0    0  0.00000000000E+00  0.00000000000E+00  0.99999998245E-14  0.12500000000E+03  0.12500000000E+03 0.  0.
        -13    1    3    3    0    0  0.14458355224E+01 -0.27601104831E+02  0.30148061782E+02  0.40900222756E+02  0.10566000000E+00 0.  1.
         23    2    1    0    0    0  0.20456602751E+02 -0.11582036821E+02 -0.18203290334E+02  0.95268266918E+02  0.90510036623E+02 0.  0.
         13    1    3    3    0    0  0.19010767229E+02  0.16019068010E+02 -0.48351352116E+02  0.54368044162E+02  0.10566000000E+00 0. -1.
         22    1    1    0    0    0 -0.20456602751E+02  0.11582036821E+02  0.18203290334E+02  0.29731733082E+02  0.00000000000E+00 0. -1.
</event>
<event>
 5    1  0.1724243E-003  0.9118800E+02  0.7818608E-02  0.1130116E+00
         25   -1    0    0    0    0  0.00000000000E+00  0.00000000000E+00  0.99999998245E-14  0.12500000000E+03  0.12500000000E+03 0.  0.
        -13    1    3    3    0    0 -0.47274310583E+02  0.18600430610E+02  0.89659305626E+00  0.50809954764E+02  0.10566000000E+00 0.  1.
         23    2    1    0    0    0 -0.47717981384E+01  0.29453699167E+02 -0.37746701935E+01  0.94924452005E+02  0.90033954713E+02 0.  0.
         13    1    3    3    0    0  0.42502512445E+02  0.10853268558E+02 -0.46712632498E+01  0.44114497241E+02  0.10566000000E+00 0. -1.
         22    1    1    0    0    0  0.47717981384E+01 -0.29453699167E+02  0.37746701935E+01  0.30075547995E+02  0.00000000000E+00 0. -1.
</event>
<event>
 5    1  0.1724243E-003  0.9118800E+02  0.7818608E-02  0.1130116E+00
         25   -1    0    0    0    0  0.00000000000E+00  0.00000000000E+00  0.99999998245E-14  0.12500000000E+03  0.12500000000E+03 0.  0.
        -13    1    3    3    0    0  0.18588971843E+02  0.37440702122E+02  0.15647393075E+02  0.44634158709E+02  0.10566000000E+00 0. -1.
         23    2    1    0    0    0 -0.24566300730E+02  0.10035697074E+02  0.11970758094E+02  0.95887847956E+02  0.91361709643E+02 0.  0.
         13    1    3    3    0    0 -0.43155272573E+02 -0.27405005049E+02 -0.36766349804E+01  0.51253689247E+02  0.10566000000E+00 0.  1.
         22    1    1    0    0    0  0.24566300730E+02 -0.10035697074E+02 -0.11970758094E+02  0.29112152044E+02  0.00000000000E+00 0. -1.
</event>
<event>
 5    1  0.1724243E-003  0.9118800E+02  0.7818608E-02  0.1130116E+00
         25   -1    0    0    0    0  0.00000000000E+00  0.00000000000E+00  0.99999998245E-14  0.12500000000E+03  0.12500000000E+03 0.  0.
        -13    1    3    3    0    0  0.30711677235E+02  0.41051850995E+02  0.35445847518E+02  0.62328812430E+02  0.10566000000E+00 0.  1.
         23    2    1    0    0    0  0.11817352074E+02  0.19835510395E+02  0.18541175365E+02  0.95387967537E+02  0.90675199940E+02 0.  0.
         13    1    3    3    0    0 -0.18894325161E+02 -0.21216340599E+02 -0.16904672154E+02  0.33059155106E+02  0.10566000000E+00 0. -1.
         22    1    1    0    0    0 -0.11817352074E+02 -0.19835510395E+02 -0.18541175365E+02  0.29612032463E+02  0.00000000000E+00 0.  1.
</event>
<event>
 5    1  0.1724243E-003  0.9118800E+02  0.7818608E-02  0.1130116E+00
         25   -1    0    0    0    0  0.00000000000E+00  0.00000000000E+00  0.99999998245E-14  0.12500000000E+03  0.12500000000E+03 0.  0.
        -13    1    3    3    0    0  0.13166761150E+01 -0.55256650083E+01 -0.58916319012E+02  0.59189614121E+02  0.10566000000E+00 0. -1.
         23    2    1    0    0    0 -0.13376042758E+01  0.11660964198E+02 -0.27538749462E+02  0.95064235550E+02  0.90227816596E+02 0.  0.
         13    1    3    3    0    0 -0.26542803908E+01  0.17186629206E+02  0.31377569550E+02  0.35874621430E+02  0.10566000000E+00 0.  1.
         22    1    1    0    0    0  0.13376042758E+01 -0.11660964198E+02  0.27538749462E+02  0.29935764450E+02  0.00000000000E+00 0. -1.
</event>
<event>
 5    1  0.1724243E-003  0.9118800E+02  0.7818608E-02  0.1130116E+00
         25   -1    0    0    0    0  0.00000000000E+00  0.00000000000E+00  0.99999998245E-14  0.12500000000E+03  0.12500000000E+03 0.  0.
        -13    1    3    3    0    0 -0.43952039575E+02 -0.32543530359E+02 -0.55000461539E+01  0.54964759826E+02  0.10566000000E+00 0. -1.
         23    2    1    0    0    0 -0.14086969391E+02 -0.28825587167E+02  0.13100701748E+02  0.90344761313E+02  0.83433748138E+02 0.  0.
         13    1    3    3    0    0  0.29865070184E+02  0.37179431922E+01  0.18600747902E+02  0.35380001487E+02  0.10566000000E+00 0.  1.
         22    1    1    0    0    0  0.14086969391E+02  0.28825587167E+02 -0.13100701748E+02  0.34655238687E+02  0.00000000000E+00 0. -1.
</event>
<event>
 5    1  0.1724243E-003  0.9118800E+02  0.7818608E-02  0.1130116E+00
         25   -1    0    0    0    0  0.00000000000E+00  0.00000000000E+00  0.99999998245E-14  0.12500000000E+03  0.12500000000E+03 0.  0.
        -13    1    3    3    0    0 -0.66382753385E+01 -0.38791790995E+02  0.42365910154E+02  0.57825178386E+02  0.10566000000E+00 0.  1.
         23    2    1    0    0    0  0.14077352987E+02 -0.16758206745E+02  0.18029208113E+02  0.96644018169E+02  0.92390500282E+02 0.  0.
         13    1    3    3    0    0  0.20715628325E+02  0.22033584251E+02 -0.24336702041E+02  0.38818839783E+02  0.10566000000E+00 0. -1.
         22    1    1    0    0    0 -0.14077352987E+02  0.16758206745E+02 -0.18029208113E+02  0.28355981831E+02  0.00000000000E+00 0.  1.
</event>
<event>
 4    1  0.1724243E-003  0.9118800E+02  0.7818608E-02  0.1130116E+00
         25   -1    0    0    0    0  0.00000000000E+00  0.00000000000E+00  0.99999998245E-14  0.12500000000E+03  0.12500000000E+03 0.  0.
        -13    1    1    0    0    0  0.19810692350E+02  0.18067342279E-01  0.29756792539E+02  0.35748310786E+02  0.10566000000E+00 0.  1.
         13    1    1    0    0    0  0.29489527120E+02  0.14136915569E+02 -0.14194078333E+02  0.35650632747E+02  0.10566000000E+00 0. -1.
         22    1    1    0    0    0 -0.49300219469E+02 -0.14154982911E+02 -0.15562714206E+02  0.53601056467E+02  0.00000000000E+00 0. -1.
</event>
<event>
 5    1  0.1724243E-003  0.9118800E+02  0.7818608E-02  0.1130116E+00
         25   -1    0    0    0    0  0.00000000000E+00  0.00000000000E+00  0.99999998245E-14  0.12500000000E+03  0.12500000000E+03 0.  0.
        -13    1    3    3    0    0  0.34939285109E+02  0.19158239808E+01 -0.28770045979E+02  0.45300670360E+02  0.10566000000E+00 0. -1.
         23    2    1    0    0    0 -0.13374152951E+02 -0.12361621166E+02 -0.22476521614E+02  0.96071265689E+02  0.91612315887E+02 0.  0.
         13    1    3    3    0    0 -0.48313438059E+02 -0.14277445147E+02  0.62935243656E+01  0.50770595328E+02  0.10566000000E+00 0.  1.
         22    1    1    0    0    0  0.13374152951E+02  0.12361621166E+02  0.22476521614E+02  0.28928734311E+02  0.00000000000E+00 0.  1.
</event>
<event>
 5    1  0.1724243E-003  0.9118800E+02  0.7818608E-02  0.1130116E+00
         25   -1    0    0    0    0  0.00000000000E+00  0.00000000000E+00  0.99999998245E-14  0.12500000000E+03  0.12500000000E+03 0.  0.
        -13    1    3    3    0    0  0.54921691977E+02  0.19358407335E+02 -0.16939358655E+02  0.60647285346E+02  0.10566000000E+00 0.  1.
         23    2    1    0    0    0  0.29419952816E+02  0.24482995857E+01 -0.30224014709E+00  0.95476803295E+02  0.90797581597E+02 0.  0.
         13    1    3    3    0    0 -0.25501739161E+02 -0.16910107750E+02  0.16637118508E+02  0.34829517949E+02  0.10566000000E+00 0. -1.
         22    1    1    0    0    0 -0.29419952816E+02 -0.24482995857E+01  0.30224014709E+00  0.29523196705E+02  0.00000000000E+00 0.  1.
</event>
<event>
 5    1  0.1724243E-003  0.9118800E+02  0.7818608E-02  0.1130116E+00
         25   -1    0    0    0    0  0.00000000000E+00  0.00000000000E+00  0.99999998245E-14  0.12500000000E+03  0.12500000000E+03 0.  0.
        -13    1    3    3    0    0  0.32449394048E+02  0.42908509804E+02  0.20023502685E+02  0.57402571471E+02  0.10566000000E+00 0.  1.
         23    2    1    0    0    0  0.28097273213E+02  0.84537765501E+01  0.50262128308E+01  0.95231125056E+02  0.90458726854E+02 0.  0.
         13    1    3    3    0    0 -0.43521208347E+01 -0.34454733254E+02 -0.14997289854E+02  0.37828553585E+02  0.10566000000E+00 0. -1.
         22    1    1    0    0    0 -0.28097273213E+02 -0.84537765501E+01 -0.50262128308E+01  0.29768874944E+02  0.00000000000E+00 0. -1.
</event>
<event>
 5    1  0.1724243E-003  0.9118800E+02  0.7818608E-02  0.1130116E+00
         25   -1    0    0    0    0  0.00000000000E+00  0.00000000000E+00  0.99999998245E-14  0.12500000000E+03  0.12500000000E+03 0.  0.
        -13    1    3    3    0    0  0.78009929296E+01  0.37681301948E+02  0.17975555061E+01  0.38522439915E+02  0.10566000000E+00 0.  1.
         23    2    1    0    0    0 -0.20609067883E+02 -0.11214646397E+02  0.15715351914E+02  0.96760413272E+02  0.92547843400E+02 0.  0.
         13    1    3    3    0    0 -0.28410060812E+02 -0.48895948344E+02  0.13917796408E+02  0.58237973357E+02  0.10566000000E+00 0. -1.
         22    1    1    0    0    0  0.20609067883E+02  0.11214646397E+02 -0.15715351914E+02  0.28239586728E+02  0.00000000000E+00 0. -1.
</event>
<event>
 5    1  0.1724243E-003  0.9118800E+02  0.7818608E-02  0.1130116E+00
         25   -1    0    0    0    0  0.00000000000E+00  0.00000000000E+00  0.99999998245E-14  0.12500000000E+03  0.12500000000E+03 0.  0.
        -13    1    3    3    0    0 -0.33676984724E+02  0.17781171050E+02 -0.83269494722E+01  0.38982798714E+02  0.10566000000E+00 0.  1.
         23    2    1    0    0    0  0.34403361492E+01 -0.29847122501E+01  0.29044588118E+02  0.95600467368E+02  0.90967669213E+02 0.  0.
         13    1    3    3    0    0  0.37117320873E+02 -0.20765883300E+02  0.37371537590E+02  0.56617668655E+02  0.10566000000E+00 0. -1.
         22    1    1    0    0    0 -0.34403361492E+01  0.29847122501E+01 -0.29044588118E+02  0.29399532632E+02  0.00000000000E+00 0. -1.
</event>
<event>
 5    1  0.1724243E-003  0.9118800E+02  0.7818608E-02  0.1130116E+00
         25   -1    0    0    0    0  0.00000000000E+00  0.00000000000E+00  0.99999998245E-14  0.12500000000E+03  0.12500000000E+03 0.  0.
        -13    1    3    3    0    0 -0.22442690291E+02 -0.18272713601E+02 -0.29634730842E+02  0.41422154048E+02  0.10566000000E+00 0.  1.
         23    2    1    0    0    0  0.26140192419E+02 -0.29614809219E+01 -0.16207619843E+02  0.94100696287E+02  0.88882923398E+02 0.  0.
         13    1    3    3    0    0  0.48582882711E+02  0.15311232679E+02  0.13427110999E+02  0.52678542239E+02  0.10566000000E+00 0. -1.
         22    1    1    0    0    0 -0.26140192419E+02  0.29614809219E+01  0.16207619843E+02  0.30899303713E+02  0.00000000000E+00 0. -1.
</event>
<event>
 5    1  0.1724243E-003  0.9118800E+02  0.7818608E-02  0.1130116E+00
         25   -1    0    0    0    0  0.00000000000E+00  0.00000000000E+00  0.99999998245E-14  0.12500000000E+03  0.12500000000E+03 0.  0.
        -13    1    3    3    0    0  0.13866121774E+02 -0.48323649609E+02 -0.26996892305E+02  0.57063892286E+02  0.10566000000E+00 0.  1.
         23    2    1    0    0    0  0.15543500855E+02 -0.24951514324E+02  0.33590090923E+01  0.95411802556E+02  0.90708051677E+02 0.  0.
         13    1    3    3    0    0  0.16773790814E+01  0.23372135285E+02  0.30355901398E+02  0.38347910270E+02  0.10566000000E+00 0. -1.
         22    1    1    0    0    0 -0.15543500855E+02  0.24951514324E+02 -0.33590090923E+01  0.29588197444E+02  0.00000000000E+00 0.  1.
</event>
<event>
 5    1  0.1724243E-003  0.9118800E+02  0.7818608E-02  0.1130116E+00
         25   -1    0    0    0    0  0.00000000000E+00  0.00000000000E+00  0.99999998245E-14  0.12500000000E+03  0.12500000000E+03 0.  0.
        -13    1    3    3    0    0 -0.39433489781E+01 -0.34860097481E+02 -0.62910294347E+01  0.35642174638E+02  0.10566000000E+00 0. -1.
         23    2    1    0    0    0 -0.18739485769E+02  0.21317505638E+02  0.80844375624E+01  0.95487926129E+02  0.90812892984E+02 0.  0.
         13    1    3    3    0    0 -0.14796136790E+02  0.56177603119E+02  0.14375466997E+02  0.59845751491E+02  0.10566000000E+00 0.  1.
         22    1    1    0    0    0  0.18739485769E+02 -0.21317505638E+02 -0.80844375624E+01  0.29512073871E+02  0.00000000000E+00 0.  1.
</event>
<event>
 4    1  0.1724243E-003  0.9118800E+02  0.7818608E-02  0.1130116E+00
         25   -1    0    0    0    0  0.00000000000E+00  0.00000000000E+00  0.99999998245E-14  0.12500000000E+03  0.12500000000E+03 0.  0.
        -13    1    1    0    0    0  0.49460883494E+00  0.44448784046E+02 -0.27284434347E+02  0.52157363456E+02  0.10566000000E+00 0.  1.
         13    1    1    0    0    0 -0.45181965122E+01 -0.14096172621E+02 -0.14711687330E+02  0.20870100393E+02  0.10566000000E+00 0. -1.
         22    1    1    0    0    0  0.40235876773E+01 -0.30352611425E+02  0.41996121677E+02  0.51972536151E+02  0.00000000000E+00 0.  1.
</event>
<event>
 5    1  0.1724243E-003  0.9118800E+02  0.7818608E-02  0.1130116E+00
         25   -1    0    0    0    0  0.00000000000E+00  0.00000000000E+00  0.99999998245E-14  0.12500000000E+03  0.12500000000E+03 0.  0.
        -13    1    3    3    0    0  0.28215415133E+02  0.14388095825E+02 -0.28956253569E+02  0.42913899117E+02  0.10566000000E+00 0. -1.
         23    2    1    0    0    0 -0.10905899364E+02  0.18720499520E+02  0.12424661114E+02  0.10002465322E+03  0.96856405590E+02 0.  0.
         13    1    3    3    0    0 -0.39121314497E+02  0.43324036945E+01  0.41380914683E+02  0.57110754099E+02  0.10566000000E+00 0.  1.
         22    1    1    0    0    0  0.10905899364E+02 -0.18720499520E+02 -0.12424661114E+02  0.24975346784E+02  0.00000000000E+00 0.  1.
</event>
<event>
 5    1  0.1724243E-003  0.9118800E+02  0.7818608E-02  0.1130116E+00
         25   -1    0    0    0    0  0.00000000000E+00  0.00000000000E+00  0.99999998245E-14  0.12500000000E+03  0.12500000000E+03 0.  0.
        -13    1    3    3    0    0 -0.26719321625E+02  0.42847685814E+02 -0.20396211019E+02  0.54459736647E+02  0.10566000000E+00 0. -1.
         23    2    1    0    0    0 -0.14629663837E+02  0.23225879236E+02  0.12671641571E+02  0.94766921586E+02  0.89814978687E+02 0.  0.
         13    1    3    3    0    0  0.12089657788E+02 -0.19621806577E+02  0.33067852590E+02  0.40307184939E+02  0.10566000000E+00 0.  1.
         22    1    1    0    0    0  0.14629663837E+02 -0.23225879236E+02 -0.12671641571E+02  0.30233078414E+02  0.00000000000E+00 0. -1.
</event>
<event>
 5    1  0.1724243E-003  0.9118800E+02  0.7818608E-02  0.1130116E+00
         25   -1    0    0    0    0  0.00000000000E+00  0.00000000000E+00  0.99999998245E-14  0.12500000000E+03  0.12500000000E+03 0.  0.
        -13    1    3    3    0    0 -0.14121148587E+02  0.59555804045E+02  0.97232560720E+01  0.61974619850E+02  0.10566000000E+00 0.  1.
         23    2    1    0    0    0 -0.16545598210E+01  0.30666999081E+02  0.30619154377E+01  0.94136142060E+02  0.88932758390E+02 0.  0.
         13    1    3    3    0    0  0.12466588766E+02 -0.28888804965E+02 -0.66613406343E+01  0.32161522209E+02  0.10566000000E+00 0. -1.
         22    1    1    0    0    0  0.16545598210E+01 -0.30666999081E+02 -0.30619154377E+01  0.30863857940E+02  0.00000000000E+00 0.  1.
</event>
<event>
 5    1  0.1724243E-003  0.9118800E+02  0.7818608E-02  0.1130116E+00
         25   -1    0    0    0    0  0.00000000000E+00  0.00000000000E+00  0.99999998245E-14  0.12500000000E+03  0.12500000000E+03 0.  0.
        -13    1    3    3    0    0 -0.37059214110E+02 -0.27262043406E+02 -0.33030926942E+02  0.56636186840E+02  0.10566000000E+00 0. -1.
         23    2    1    0    0    0 -0.19311240624E+02 -0.19412671923E+02  0.28916939508E+01  0.97465698855E+02  0.93495586601E+02 0.  0.
         13    1    3    3    0    0  0.17747973486E+02  0.78493714831E+01  0.35922620893E+02  0.40829512015E+02  0.10566000000E+00 0.  1.
         22    1    1    0    0    0  0.19311240624E+02  0.19412671923E+02 -0.28916939508E+01  0.27534301145E+02  0.00000000000E+00 0.  1.
</event>
<event>
 5    1  0.1724243E-003  0.9118800E+02  0.7818608E-02  0.1130116E+00
         25   -1    0    0    0    0  0.00000000000E+00  0.00000000000E+00  0.99999998245E-14  0.12500000000E+03  0.12500000000E+03 0.  0.
        -13    1    3    3    0    0 -0.14218634035E+02  0.20243461936E+02 -0.34671655635E+02  0.42592278331E+02  0.10566000000E+00 0. -1.
         23    2    1    0    0    0  0.13976484909E+02  0.23395402971E+02  0.10384123132E+02  0.95836374989E+02  0.91291257781E+02 0.  0.
         13    1    3    3    0    0  0.28195118944E+02  0.31519410351E+01  0.45055778767E+02  0.53244096657E+02  0.10566000000E+00 0.  1.
         22    1    1    0    0    0 -0.13976484909E+02 -0.23395402971E+02 -0.10384123132E+02  0.29163625011E+02  0.00000000000E+00 0. -1.
</event>
<event>
 5    1  0.1724243E-003  0.9118800E+02  0.7818608E-02  0.1130116E+00
         25   -1    0    0    0    0  0.00000000000E+00  0.00000000000E+00  0.99999998245E-14  0.12500000000E+03  0.12500000000E+03 0.  0.
        -13    1    3    3    0    0  0.27576943155E+01 -0.32651613133E+02  0.98309634517E+01  0.34210988359E+02  0.10566000000E+00 0. -1.
         23    2    1    0    0    0 -0.76231269288E+01  0.21781837425E+02 -0.17537054565E+02  0.96015369786E+02  0.91536017210E+02 0.  0.
         13    1    3    3    0    0 -0.10380821244E+02  0.54433450558E+02 -0.27368018017E+02  0.61804381427E+02  0.10566000000E+00 0.  1.
         22    1    1    0    0    0  0.76231269288E+01 -0.21781837425E+02  0.17537054565E+02  0.28984630214E+02  0.00000000000E+00 0.  1.
</event>
<event>
 5    1  0.1724243E-003  0.9118800E+02  0.7818608E-02  0.1130116E+00
         25   -1    0    0    0    0  0.00000000000E+00  0.00000000000E+00  0.99999998245E-14  0.12500000000E+03  0.12500000000E+03 0.  0.
        -13    1    3    3    0    0  0.98156672783E+01  0.12957074604E+02 -0.40274092045E+02  0.43430942432E+02  0.10566000000E+00 0.  1.
         23    2    1    0    0    0  0.28595749874E+02 -0.50488096860E+01  0.48900959141E+01  0.95553091365E+02  0.90902545846E+02 0.  0.
         13    1    3    3    0    0  0.18780082595E+02 -0.18005884290E+02  0.45164187960E+02  0.52122148933E+02  0.10566000000E+00 0. -1.
         22    1    1    0    0    0 -0.28595749874E+02  0.50488096860E+01 -0.48900959141E+01  0.29446908635E+02  0.00000000000E+00 0. -1.
</event>
<event>
 5    1  0.1724243E-003  0.9118800E+02  0.7818608E-02  0.1130116E+00
         25   -1    0    0    0    0  0.00000000000E+00  0.00000000000E+00  0.99999998245E-14  0.12500000000E+03  0.12500000000E+03 0.  0.
        -13    1    3    3    0    0 -0.12333526134E+02 -0.35081147303E+02  0.43200350273E+02  0.57000738510E+02  0.10566000000E+00 0.  1.
         23    2    1    0    0    0 -0.59512244663E+01 -0.26969269949E+02  0.45451181492E+01  0.97010418131E+02  0.92884899379E+02 0.  0.
         13    1    3    3    0    0  0.63823016680E+01  0.81118773543E+01 -0.38655232123E+02  0.40009679620E+02  0.10566000000E+00 0. -1.
         22    1    1    0    0    0  0.59512244663E+01  0.26969269949E+02 -0.45451181492E+01  0.27989581869E+02  0.00000000000E+00 0.  1.
</event>
<event>
 5    1  0.1724243E-003  0.9118800E+02  0.7818608E-02  0.1130116E+00
         25   -1    0    0    0    0  0.00000000000E+00  0.00000000000E+00  0.99999998245E-14  0.12500000000E+03  0.12500000000E+03 0.  0.
        -13    1    3    3    0    0  0.48607003600E+02  0.68686048286E+01  0.17829986925E+02  0.52227752480E+02  0.10566000000E+00 0.  1.
         23    2    1    0    0    0  0.13918285358E+02 -0.17728592292E+02  0.20082260947E+02  0.94811941820E+02  0.89877613759E+02 0.  0.
         13    1    3    3    0    0 -0.34688718243E+02 -0.24597197120E+02  0.22522740219E+01  0.42584189341E+02  0.10566000000E+00 0. -1.
         22    1    1    0    0    0 -0.13918285358E+02  0.17728592292E+02 -0.20082260947E+02  0.30188058180E+02  0.00000000000E+00 0. -1.
</event>
<event>
 5    1  0.1724243E-003  0.9118800E+02  0.7818608E-02  0.1130116E+00
         25   -1    0    0    0    0  0.00000000000E+00  0.00000000000E+00  0.99999998245E-14  0.12500000000E+03  0.12500000000E+03 0.  0.
        -13    1    3    3    0    0  0.43899331236E+01  0.35566675712E+02  0.35535597740E+02  0.50468304953E+02  0.10566000000E+00 0. -1.
         23    2    1    0    0    0  0.12203807164E+02 -0.73207896875E+01  0.26399536146E+02  0.95008961677E+02  0.90151208640E+02 0.  0.
         13    1    3    3    0    0  0.78138740406E+01 -0.42887465400E+02 -0.91360615941E+01  0.44540656724E+02  0.10566000000E+00 0.  1.
         22    1    1    0    0    0 -0.12203807164E+02  0.73207896875E+01 -0.26399536146E+02  0.29991038323E+02  0.00000000000E+00 0.  1.
</event>
<event>
 5    1  0.1724243E-003  0.9118800E+02  0.7818608E-02  0.1130116E+00
         25   -1    0    0    0    0  0.00000000000E+00  0.00000000000E+00  0.99999998245E-14  0.12500000000E+03  0.12500000000E+03 0.  0.
        -13    1    3    3    0    0 -0.23405003242E+00 -0.29507947923E+02  0.40744508308E+02  0.50308049965E+02  0.10566000000E+00 0. -1.
         23    2    1    0    0    0 -0.19531099218E+02 -0.20838534986E+02 -0.24884036975E+00  0.96438307149E+02  0.92111762480E+02 0.  0.
         13    1    3    3    0    0 -0.19297049186E+02  0.86694129369E+01 -0.40993348678E+02  0.46130257183E+02  0.10566000000E+00 0.  1.
         22    1    1    0    0    0  0.19531099218E+02  0.20838534986E+02  0.24884036975E+00  0.28561692851E+02  0.00000000000E+00 0. -1.
</event>
<event>
 5    1  0.1724243E-003  0.9118800E+02  0.7818608E-02  0.1130116E+00
         25   -1    0    0    0    0  0.00000000000E+00  0.00000000000E+00  0.99999998245E-14  0.12500000000E+03  0.12500000000E+03 0.  0.
        -13    1    3    3    0    0  0.36108312610E+02  0.26485559942E+02  0.13957613066E+02  0.46905450126E+02  0.10566000000E+00 0. -1.
         23    2    1    0    0    0  0.20200264519E+02 -0.28488182875E+01 -0.21338337413E+02  0.95478971972E+02  0.90800567140E+02 0.  0.
         13    1    3    3    0    0 -0.15908048091E+02 -0.29334378230E+02 -0.35295950480E+02  0.48573521845E+02  0.10566000000E+00 0.  1.
         22    1    1    0    0    0 -0.20200264519E+02  0.28488182875E+01  0.21338337413E+02  0.29521028028E+02  0.00000000000E+00 0.  1.
</event>
<event>
 5    1  0.1724243E-003  0.9118800E+02  0.7818608E-02  0.1130116E+00
         25   -1    0    0    0    0  0.00000000000E+00  0.00000000000E+00  0.99999998245E-14  0.12500000000E+03  0.12500000000E+03 0.  0.
        -13    1    3    3    0    0  0.30296344028E+02  0.95581759896E+01 -0.47760856389E+02  0.57361465783E+02  0.10566000000E+00 0. -1.
         23    2    1    0    0    0  0.25475196030E+02 -0.33023438506E+01 -0.10189633340E+02  0.97364520716E+02  0.93360217325E+02 0.  0.
         13    1    3    3    0    0 -0.48211479981E+01 -0.12860519840E+02  0.37571223049E+02  0.40003054933E+02  0.10566000000E+00 0.  1.
         22    1    1    0    0    0 -0.25475196030E+02  0.33023438506E+01  0.10189633340E+02  0.27635479284E+02  0.00000000000E+00 0. -1.
</event>
<event>
 5    1  0.1724243E-003  0.9118800E+02  0.7818608E-02  0.1130116E+00
         25   -1    0    0    0    0  0.00000000000E+00  0.00000000000E+00  0.99999998245E-14  0.12500000000E+03  0.12500000000E+03 0.  0.
        -13    1    3    3    0    0 -0.34453866357E+01  0.19623170605E+02  0.53702562569E+02  0.57279279886E+02  0.10566000000E+00 0.  1.
         23    2    1    0    0    0 -0.57786309248E+01 -0.86151925344E+01  0.26431141073E+02  0.96605998236E+02  0.92339046773E+02 0.  0.
         13    1    3    3    0    0 -0.23332442892E+01 -0.28238363140E+02 -0.27271421496E+02  0.39326718350E+02  0.10566000000E+00 0. -1.
         22    1    1    0    0    0  0.57786309248E+01  0.86151925344E+01 -0.26431141073E+02  0.28394001764E+02  0.00000000000E+00 0.  1.
</event>
<event>
 5    1  0.1724243E-003  0.9118800E+02  0.7818608E-02  0.1130116E+00
         25   -1    0    0    0    0  0.00000000000E+00  0.00000000000E+00  0.99999998245E-14  0.12500000000E+03  0.12500000000E+03 0.  0.
        -13    1    3    3    0    0 -0.35969634803E+02 -0.21724346391E+02 -0.31870864848E+02  0.52740165379E+02  0.10566000000E+00 0. -1.
         23    2    1    0    0    0 -0.20610483165E+01  0.10445986038E+02 -0.22067267699E+02  0.10049835009E+03  0.97465827464E+02 0.  0.
         13    1    3    3    0    0  0.33908586487E+02  0.32170332429E+02  0.98035971494E+01  0.47758184714E+02  0.10566000000E+00 0.  1.
         22    1    1    0    0    0  0.20610483165E+01 -0.10445986038E+02  0.22067267699E+02  0.24501649907E+02  0.00000000000E+00 0. -1.
</event>
<event>
 5    1  0.1724243E-003  0.9118800E+02  0.7818608E-02  0.1130116E+00
         25   -1    0    0    0    0  0.00000000000E+00  0.00000000000E+00  0.99999998245E-14  0.12500000000E+03  0.12500000000E+03 0.  0.
        -13    1    3    3    0    0  0.36328880644E+02 -0.30844633877E+01  0.14604817329E+02  0.39276116616E+02  0.10566000000E+00 0.  1.
         23    2    1    0    0    0  0.51106019478E+01  0.19977344945E+02 -0.23546918082E+02  0.93700320857E+02  0.88318062785E+02 0.  0.
         13    1    3    3    0    0 -0.31218278696E+02  0.23061808333E+02 -0.38151735410E+02  0.54424204240E+02  0.10566000000E+00 0. -1.
         22    1    1    0    0    0 -0.51106019478E+01 -0.19977344945E+02  0.23546918082E+02  0.31299679143E+02  0.00000000000E+00 0. -1.
</event>
<event>
 5    1  0.1724243E-003  0.9118800E+02  0.7818608E-02  0.1130116E+00
         25   -1    0    0    0    0  0.00000000000E+00  0.00000000000E+00  0.99999998245E-14  0.12500000000E+03  0.12500000000E+03 0.  0.
        -13    1    3    3    0    0  0.28856223782E+02 -0.16288007582E+02  0.98308633764E+01  0.34563533973E+02  0.10566000000E+00 0.  1.
         23    2    1    0    0    0 -0.27790632070E+02  0.64496906027E+01  0.67604516072E+01  0.95680698412E+02  0.91077849134E+02 0.  0.
         13    1    3    3    0    0 -0.56646855851E+02  0.22737698184E+02 -0.30704117692E+01  0.61117164439E+02  0.10566000000E+00 0. -1.
         22    1    1    0    0    0  0.27790632070E+02 -0.64496906027E+01 -0.67604516072E+01  0.29319301588E+02  0.00000000000E+00 0. -1.
</event>
<event>
 5    1  0.1724243E-003  0.9118800E+02  0.7818608E-02  0.1130116E+00
         25   -1    0    0    0    0  0.00000000000E+00  0.00000000000E+00  0.99999998245E-14  0.12500000000E+03  0.12500000000E+03 0.  0.
        -13    1    3    3    0    0  0.11549158418E+01  0.16685526836E+02  0.42896920159E+02  0.46042345288E+02  0.10566000000E+00 0.  1.
         23    2    1    0    0    0 -0.28249013922E+01  0.36592465275E+02  0.64866036111E+01  0.87729842915E+02  0.79419523599E+02 0.  0.
         13    1    3    3    0    0 -0.39798172341E+01  0.19906938439E+02 -0.36410316548E+02  0.41687497627E+02  0.10566000000E+00 0. -1.
         22    1    1    0    0    0  0.28249013922E+01 -0.36592465275E+02 -0.64866036111E+01  0.37270157085E+02  0.00000000000E+00 0.  1.
</event>
<event>
 5    1  0.1724243E-003  0.9118800E+02  0.7818608E-02  0.1130116E+00
         25   -1    0    0    0    0  0.00000000000E+00  0.00000000000E+00  0.99999998245E-14  0.12500000000E+03  0.12500000000E+03 0.  0.
        -13    1    3    3    0    0 -0.34182703987E+02 -0.32562085346E+02  0.39351041514E+02  0.61459436104E+02  0.10566000000E+00 0. -1.
         23    2    1    0    0    0 -0.89290729825E+01 -0.19458640024E+02  0.15839052803E+02  0.98368390781E+02  0.94694760654E+02 0.  0.
         13    1    3    3    0    0  0.25253631004E+02  0.13103445322E+02 -0.23511988711E+02  0.36908954677E+02  0.10566000000E+00 0.  1.
         22    1    1    0    0    0  0.89290729825E+01  0.19458640024E+02 -0.15839052803E+02  0.26631609219E+02  0.00000000000E+00 0. -1.
</event>
<event>
 5    1  0.1724243E-003  0.9118800E+02  0.7818608E-02  0.1130116E+00
         25   -1    0    0    0    0  0.00000000000E+00  0.00000000000E+00  0.99999998245E-14  0.12500000000E+03  0.12500000000E+03 0.  0.
        -13    1    3    3    0    0 -0.31578728302E+02 -0.15957975971E+02  0.31976578003E+02  0.47690520894E+02  0.10566000000E+00 0. -1.
         23    2    1    0    0    0 -0.93713251382E+01  0.23168903083E+02  0.15437859233E+02  0.95624035290E+02  0.91000048476E+02 0.  0.
         13    1    3    3    0    0  0.22207403164E+02  0.39126879054E+02 -0.16538718771E+02  0.47933514397E+02  0.10566000000E+00 0.  1.
         22    1    1    0    0    0  0.93713251382E+01 -0.23168903083E+02 -0.15437859233E+02  0.29375964710E+02  0.00000000000E+00 0. -1.
</event>
<event>
 5    1  0.1724243E-003  0.9118800E+02  0.7818608E-02  0.1130116E+00
         25   -1    0    0    0    0  0.00000000000E+00  0.00000000000E+00  0.99999998245E-14  0.12500000000E+03  0.12500000000E+03 0.  0.
        -13    1    3    3    0    0  0.33954449174E+02 -0.36308219838E+01  0.23435128217E+02  0.41416227322E+02  0.10566000000E+00 0.  1.
         23    2    1    0    0    0 -0.19862668169E+02 -0.94855398424E+01  0.19328975193E+02  0.95706479643E+02  0.91113225773E+02 0.  0.
         13    1    3    3    0    0 -0.53817117343E+02 -0.58547178587E+01 -0.41061530241E+01  0.54290252321E+02  0.10566000000E+00 0. -1.
         22    1    1    0    0    0  0.19862668169E+02  0.94855398424E+01 -0.19328975193E+02  0.29293520357E+02  0.00000000000E+00 0. -1.
</event>
<event>
 5    1  0.1724243E-003  0.9118800E+02  0.7818608E-02  0.1130116E+00
         25   -1    0    0    0    0  0.00000000000E+00  0.00000000000E+00  0.99999998245E-14  0.12500000000E+03  0.12500000000E+03 0.  0.
        -13    1    3    3    0    0  0.66145032843E+00 -0.28326063889E+02  0.15620763054E+02  0.32354641312E+02  0.10566000000E+00 0.  1.
         23    2    1    0    0    0 -0.28379533172E+01  0.26724205584E+02 -0.13711255080E+02  0.94829887985E+02  0.89902569464E+02 0.  0.
         13    1    3    3    0    0 -0.34994036456E+01  0.55050269473E+02 -0.29332018134E+02  0.62475246673E+02  0.10566000000E+00 0. -1.
         22    1    1    0    0    0  0.28379533172E+01 -0.26724205584E+02  0.13711255080E+02  0.30170112015E+02  0.00000000000E+00 0. -1.
</event>
<event>
 5    1  0.1724243E-003  0.9118800E+02  0.7818608E-02  0.1130116E+00
         25   -1    0    0    0    0  0.00000000000E+00  0.00000000000E+00  0.99999998245E-14  0.12500000000E+03  0.12500000000E+03 0.  0.
        -13    1    3    3    0    0 -0.48125509442E+02 -0.51844869448E-01  0.10393415257E+01  0.48136875073E+02  0.10566000000E+00 0. -1.
         23    2    1    0    0    0 -0.83956336216E+01 -0.19884857611E+01  0.27676899221E+02  0.96009458611E+02  0.91527944655E+02 0.  0.
         13    1    3    3    0    0  0.39729875820E+02 -0.19366408917E+01  0.26637557695E+02  0.47872583538E+02  0.10566000000E+00 0.  1.
         22    1    1    0    0    0  0.83956336216E+01  0.19884857611E+01 -0.27676899221E+02  0.28990541389E+02  0.00000000000E+00 0. -1.
</event>
<event>
 5    1  0.1724243E-003  0.9118800E+02  0.7818608E-02  0.1130116E+00
         25   -1    0    0    0    0  0.00000000000E+00  0.00000000000E+00  0.99999998245E-14  0.12500000000E+03  0.12500000000E+03 0.  0.
        -13    1    3    3    0    0  0.86058471659E+01 -0.23656916909E+01  0.53690393739E+02  0.54427260141E+02  0.10566000000E+00 0.  1.
         23    2    1    0    0    0 -0.32630024232E+01 -0.21666771288E+02  0.18288798768E+02  0.96459216492E+02  0.92140133075E+02 0.  0.
         13    1    3    3    0    0 -0.11868849589E+02 -0.19301079597E+02 -0.35401594971E+02  0.42031956351E+02  0.10566000000E+00 0. -1.
         22    1    1    0    0    0  0.32630024232E+01  0.21666771288E+02 -0.18288798768E+02  0.28540783508E+02  0.00000000000E+00 0. -1.
</event>
<event>
 5    1  0.1724243E-003  0.9118800E+02  0.7818608E-02  0.1130116E+00
         25   -1    0    0    0    0  0.00000000000E+00  0.00000000000E+00  0.99999998245E-14  0.12500000000E+03  0.12500000000E+03 0.  0.
        -13    1    3    3    0    0 -0.26975200652E+02  0.32054753328E+02 -0.13578421005E+02  0.44040360377E+02  0.10566000000E+00 0.  1.
         23    2    1    0    0    0 -0.17262649115E+02  0.16936948078E+02  0.27200730397E+02  0.88603035858E+02  0.80782169842E+02 0.  0.
         13    1    3    3    0    0  0.97125515369E+01 -0.15117805250E+02  0.40779151402E+02  0.44562675481E+02  0.10566000000E+00 0. -1.
         22    1    1    0    0    0  0.17262649115E+02 -0.16936948078E+02 -0.27200730397E+02  0.36396964142E+02  0.00000000000E+00 0.  1.
</event>
<event>
 5    1  0.1724243E-003  0.9118800E+02  0.7818608E-02  0.1130116E+00
         25   -1    0    0    0    0  0.00000000000E+00  0.00000000000E+00  0.99999998245E-14  0.12500000000E+03  0.12500000000E+03 0.  0.
        -13    1    3    3    0    0 -0.51674916775E+01  0.46772321031E+01 -0.34879856035E+02  0.35569579579E+02  0.10566000000E+00 0. -1.
         23    2    1    0    0    0  0.13286080038E+02 -0.14327240075E+02  0.20328126540E+02  0.96803857364E+02  0.92606502693E+02 0.  0.
         13    1    3    3    0    0  0.18453571716E+02 -0.19004472178E+02  0.55207982574E+02  0.61234277785E+02  0.10566000000E+00 0.  1.
         22    1    1    0    0    0 -0.13286080038E+02  0.14327240075E+02 -0.20328126540E+02  0.28196142636E+02  0.00000000000E+00 0.  1.
</event>
<event>
 5    1  0.1724243E-003  0.9118800E+02  0.7818608E-02  0.1130116E+00
         25   -1    0    0    0    0  0.00000000000E+00  0.00000000000E+00  0.99999998245E-14  0.12500000000E+03  0.12500000000E+03 0.  0.
        -13    1    3    3    0    0 -0.80122455944E+01 -0.29466267073E+02  0.18263372452E+02  0.35581159510E+02  0.10566000000E+00 0.  1.
         23    2    1    0    0    0  0.22581167432E+02  0.19109436748E+02  0.15236042129E+01  0.95379043479E+02  0.90662896874E+02 0.  0.
         13    1    3    3    0    0  0.30593413027E+02  0.48575703822E+02 -0.16739768239E+02  0.59797883969E+02  0.10566000000E+00 0. -1.
         22    1    1    0    0    0 -0.22581167432E+02 -0.19109436748E+02 -0.15236042129E+01  0.29620956521E+02  0.00000000000E+00 0. -1.
</event>
<event>
 5    1  0.1724243E-003  0.9118800E+02  0.7818608E-02  0.1130116E+00
         25   -1    0    0    0    0  0.00000000000E+00  0.00000000000E+00  0.99999998245E-14  0.12500000000E+03  0.12500000000E+03 0.  0.
        -13    1    3    3    0    0 -0.24089071078E+02 -0.19583392697E+02  0.30577666380E+02  0.43575193175E+02  0.10566000000E+00 0. -1.
         23    2    1    0    0    0 -0.23584972850E+02  0.19871135880E+02 -0.10465312719E+01  0.94142128829E+02  0.88941172733E+02 0.  0.
         13    1    3    3    0    0  0.50409822788E+00  0.39454528577E+02 -0.31624197652E+02  0.50566935654E+02  0.10566000000E+00 0.  1.
         22    1    1    0    0    0  0.23584972850E+02 -0.19871135880E+02  0.10465312719E+01  0.30857871171E+02  0.00000000000E+00 0.  1.
</event>
<event>
 5    1  0.1724243E-003  0.9118800E+02  0.7818608E-02  0.1130116E+00
         25   -1    0    0    0    0  0.00000000000E+00  0.00000000000E+00  0.99999998245E-14  0.12500000000E+03  0.12500000000E+03 0.  0.
        -13    1    3    3    0    0  0.94101560982E+01 -0.42174363512E+02  0.88399720250E+01  0.44106510232E+02  0.10566000000E+00 0.  1.
         23    2    1    0    0    0 -0.29677630684E+00 -0.66774110165E+01 -0.28020916550E+02  0.96192923468E+02  0.91778161165E+02 0.  0.
         13    1    3    3    0    0 -0.97069324050E+01  0.35496952495E+02 -0.36860888575E+02  0.52086413235E+02  0.10566000000E+00 0. -1.
         22    1    1    0    0    0  0.29677630684E+00  0.66774110165E+01  0.28020916550E+02  0.28807076532E+02  0.00000000000E+00 0.  1.
</event>
<event>
 5    1  0.1724243E-003  0.9118800E+02  0.7818608E-02  0.1130116E+00
         25   -1    0    0    0    0  0.00000000000E+00  0.00000000000E+00  0.99999998245E-14  0.12500000000E+03  0.12500000000E+03 0.  0.
        -13    1    3    3    0    0  0.13926740777E+02 -0.24899832185E+02  0.23428862932E+02  0.36917184804E+02  0.10566000000E+00 0.  1.
         23    2    1    0    0    0 -0.68228177527E+01 -0.54242036511E+01 -0.27989133154E+02  0.95685082261E+02  0.91083865559E+02 0.  0.
         13    1    3    3    0    0 -0.20749558530E+02  0.19475628534E+02 -0.51417996086E+02  0.58767897457E+02  0.10566000000E+00 0. -1.
         22    1    1    0    0    0  0.68228177527E+01  0.54242036511E+01  0.27989133154E+02  0.29314917739E+02  0.00000000000E+00 0. -1.
</event>
<event>
 5    1  0.1724243E-003  0.9118800E+02  0.7818608E-02  0.1130116E+00
         25   -1    0    0    0    0  0.00000000000E+00  0.00000000000E+00  0.99999998245E-14  0.12500000000E+03  0.12500000000E+03 0.  0.
        -13    1    3    3    0    0  0.35189550152E+02 -0.23210041738E+02  0.30124679505E+02  0.51812334021E+02  0.10566000000E+00 0. -1.
         23    2    1    0    0    0 -0.53866809917E+01 -0.51470222490E+01  0.27723944060E+02  0.96292418347E+02  0.91913571287E+02 0.  0.
         13    1    3    3    0    0 -0.40576231144E+02  0.18063019489E+02 -0.24007354454E+01  0.44480084326E+02  0.10566000000E+00 0.  1.
         22    1    1    0    0    0  0.53866809917E+01  0.51470222490E+01 -0.27723944060E+02  0.28707581653E+02  0.00000000000E+00 0. -1.
</event>
<event>
 5    1  0.1724243E-003  0.9118800E+02  0.7818608E-02  0.1130116E+00
         25   -1    0    0    0    0  0.00000000000E+00  0.00000000000E+00  0.99999998245E-14  0.12500000000E+03  0.12500000000E+03 0.  0.
        -13    1    3    3    0    0 -0.28710536724E+02  0.41325163861E+02  0.17920218877E+02  0.53415442484E+02  0.10566000000E+00 0.  1.
         23    2    1    0    0    0  0.42185931579E+01  0.16824034106E+02  0.24497793139E+02  0.94983562495E+02  0.90115984285E+02 0.  0.
         13    1    3    3    0    0  0.32929129882E+02 -0.24501129755E+02  0.65775742617E+01  0.41568120011E+02  0.10566000000E+00 0. -1.
         22    1    1    0    0    0 -0.42185931579E+01 -0.16824034106E+02 -0.24497793139E+02  0.30016437505E+02  0.00000000000E+00 0.  1.
</event>
<event>
 5    1  0.1724243E-003  0.9118800E+02  0.7818608E-02  0.1130116E+00
         25   -1    0    0    0    0  0.00000000000E+00  0.00000000000E+00  0.99999998245E-14  0.12500000000E+03  0.12500000000E+03 0.  0.
        -13    1    3    3    0    0  0.43496805452E+02 -0.17120616329E+02  0.16580103636E+02  0.49598372843E+02  0.10566000000E+00 0.  1.
         23    2    1    0    0    0  0.20650503060E+02  0.15903544653E+02 -0.92471611835E+01  0.97343608350E+02  0.93332213557E+02 0.  0.
         13    1    3    3    0    0 -0.22846302392E+02  0.33024160982E+02 -0.25827264819E+02  0.47745235507E+02  0.10566000000E+00 0. -1.
         22    1    1    0    0    0 -0.20650503060E+02 -0.15903544653E+02  0.92471611835E+01  0.27656391650E+02  0.00000000000E+00 0.  1.
</event>
<event>
 5    1  0.1724243E-003  0.9118800E+02  0.7818608E-02  0.1130116E+00
         25   -1    0    0    0    0  0.00000000000E+00  0.00000000000E+00  0.99999998245E-14  0.12500000000E+03  0.12500000000E+03 0.  0.
        -13    1    3    3    0    0  0.47457829882E+02  0.15098541291E+02  0.25623429332E+02  0.56006989394E+02  0.10566000000E+00 0.  1.
         23    2    1    0    0    0  0.21471296372E+02  0.21695672233E+02 -0.18823583032E+01  0.94417945878E+02  0.89327971372E+02 0.  0.
         13    1    3    3    0    0 -0.25986533510E+02  0.65971309422E+01 -0.27505787635E+02  0.38410956484E+02  0.10566000000E+00 0. -1.
         22    1    1    0    0    0 -0.21471296372E+02 -0.21695672233E+02  0.18823583032E+01  0.30582054122E+02  0.00000000000E+00 0.  1.
</event>
<event>
 5    1  0.1724243E-003  0.9118800E+02  0.7818608E-02  0.1130116E+00
         25   -1    0    0    0    0  0.00000000000E+00  0.00000000000E+00  0.99999998245E-14  0.12500000000E+03  0.12500000000E+03 0.  0.
        -13    1    3    3    0    0 -0.54505404663E+02  0.52466202282E+01 -0.15293814473E+02  0.56853127323E+02  0.10566000000E+00 0.  1.
         23    2    1    0    0    0 -0.18203535459E+02 -0.83966294944E+01 -0.20903037555E+02  0.96037799305E+02  0.91566641448E+02 0.  0.
         13    1    3    3    0    0  0.36301869203E+02 -0.13643249723E+02 -0.56092230822E+01  0.39184671981E+02  0.10566000000E+00 0. -1.
         22    1    1    0    0    0  0.18203535459E+02  0.83966294944E+01  0.20903037555E+02  0.28962200695E+02  0.00000000000E+00 0.  1.
</event>
<event>
 5    1  0.1724243E-003  0.9118800E+02  0.7818608E-02  0.1130116E+00
         25   -1    0    0    0    0  0.00000000000E+00  0.00000000000E+00  0.99999998245E-14  0.12500000000E+03  0.12500000000E+03 0.  0.
        -13    1    3    3    0    0  0.11071622476E+01 -0.17640637149E+02  0.34712369573E+02  0.38953531966E+02  0.10566000000E+00 0. -1.
         23    2    1    0    0    0  0.23385817576E+02  0.11347403800E+02 -0.10384873923E+02  0.97008829194E+02  0.92882761041E+02 0.  0.
         13    1    3    3    0    0  0.22278655328E+02  0.28988040949E+02 -0.45097243496E+02  0.58055297228E+02  0.10566000000E+00 0.  1.
         22    1    1    0    0    0 -0.23385817576E+02 -0.11347403800E+02  0.10384873923E+02  0.27991170806E+02  0.00000000000E+00 0.  1.
</event>
<event>
 5    1  0.1724243E-003  0.9118800E+02  0.7818608E-02  0.1130116E+00
         25   -1    0    0    0    0  0.00000000000E+00  0.00000000000E+00  0.99999998245E-14  0.12500000000E+03  0.12500000000E+03 0.  0.
        -13    1    3    3    0    0 -0.29334446361E+02  0.17660536650E+02 -0.14473275858E+02  0.37173796902E+02  0.10566000000E+00 0. -1.
         23    2    1    0    0    0 -0.22363186642E+01 -0.25086650030E+02  0.14943566986E+02  0.95714315354E+02  0.91123975103E+02 0.  0.
         13    1    3    3    0    0  0.27098127696E+02 -0.42747186679E+02  0.29416842844E+02  0.58540518452E+02  0.10566000000E+00 0.  1.
         22    1    1    0    0    0  0.22363186642E+01  0.25086650030E+02 -0.14943566986E+02  0.29285684646E+02  0.00000000000E+00 0.  1.
</event>
<event>
 5    1  0.1724243E-003  0.9118800E+02  0.7818608E-02  0.1130116E+00
         25   -1    0    0    0    0  0.00000000000E+00  0.00000000000E+00  0.99999998245E-14  0.12500000000E+03  0.12500000000E+03 0.  0.
        -13    1    3    3    0    0 -0.30332252481E+02  0.35852068960E+02  0.27379265333E+02  0.54360387448E+02  0.10566000000E+00 0.  1.
         23    2    1    0    0    0 -0.13570935811E+02  0.23589043574E+02 -0.90723561949E+01  0.96313401692E+02  0.91942103647E+02 0.  0.
         13    1    3    3    0    0  0.16761316670E+02 -0.12263025386E+02 -0.36451621527E+02  0.41953014244E+02  0.10566000000E+00 0. -1.
         22    1    1    0    0    0  0.13570935811E+02 -0.23589043574E+02  0.90723561949E+01  0.28686598308E+02  0.00000000000E+00 0.  1.
</event>
<event>
 5    1  0.1724243E-003  0.9118800E+02  0.7818608E-02  0.1130116E+00
         25   -1    0    0    0    0  0.00000000000E+00  0.00000000000E+00  0.99999998245E-14  0.12500000000E+03  0.12500000000E+03 0.  0.
        -13    1    3    3    0    0 -0.37604106475E+02 -0.20645747236E+01 -0.10349133894E+02  0.39056971580E+02  0.10566000000E+00 0.  1.
         23    2    1    0    0    0  0.44921131148E+01  0.21570342403E+02  0.19297730152E+02  0.95710733354E+02  0.91119061334E+02 0.  0.
         13    1    3    3    0    0  0.42096219590E+02  0.23634917127E+02  0.29646864047E+02  0.56653761774E+02  0.10566000000E+00 0. -1.
         22    1    1    0    0    0 -0.44921131148E+01 -0.21570342403E+02 -0.19297730152E+02  0.29289266646E+02  0.00000000000E+00 0. -1.
</event>
<event>
 5    1  0.1724243E-003  0.9118800E+02  0.7818608E-02  0.1130116E+00
         25   -1    0    0    0    0  0.00000000000E+00  0.00000000000E+00  0.99999998245E-14  0.12500000000E+03  0.12500000000E+03 0.  0.
        -13    1    3    3    0    0  0.18382805899E+02  0.38700142912E+02  0.44786091696E+02  0.61979301283E+02  0.10566000000E+00 0. -1.
         23    2    1    0    0    0  0.98334545799E+01  0.16311438357E+02  0.27582704461E+02  0.91480372382E+02  0.85118112618E+02 0.  0.
         13    1    3    3    0    0 -0.85493513189E+01 -0.22388704555E+02 -0.17203387235E+02  0.29501071099E+02  0.10566000000E+00 0.  1.
         22    1    1    0    0    0 -0.98334545799E+01 -0.16311438357E+02 -0.27582704461E+02  0.33519627618E+02  0.00000000000E+00 0. -1.
</event>
<event>
 5    1  0.1724243E-003  0.9118800E+02  0.7818608E-02  0.1130116E+00
         25   -1    0    0    0    0  0.00000000000E+00  0.00000000000E+00  0.99999998245E-14  0.12500000000E+03  0.12500000000E+03 0.  0.
        -13    1    3    3    0    0 -0.50518420400E+01  0.25685153027E+02  0.66062921115E+01  0.26998193523E+02  0.10566000000E+00 0.  1.
         23    2    1    0    0    0 -0.21777267475E+02 -0.31146435003E+02  0.75750402875E+01  0.86247825514E+02  0.77051647474E+02 0.  0.
         13    1    3    3    0    0 -0.16725425435E+02 -0.56831588030E+02  0.96874817600E+00  0.59249631991E+02  0.10566000000E+00 0. -1.
         22    1    1    0    0    0  0.21777267475E+02  0.31146435003E+02 -0.75750402875E+01  0.38752174486E+02  0.00000000000E+00 0. -1.
</event>
<event>
 5    1  0.1724243E-003  0.9118800E+02  0.7818608E-02  0.1130116E+00
         25   -1    0    0    0    0  0.00000000000E+00  0.00000000000E+00  0.99999998245E-14  0.12500000000E+03  0.12500000000E+03 0.  0.
        -13    1    3    3    0    0  0.17549679651E+02 -0.30978860128E+02 -0.10603042021E+02  0.37149921868E+02  0.10566000000E+00 0.  1.
         23    2    1    0    0    0 -0.20216005611E+02  0.62671424428E+01  0.17823679364E+02  0.97329663838E+02  0.93313535779E+02 0.  0.
         13    1    3    3    0    0 -0.37765685262E+02  0.37246002571E+02  0.28426721385E+02  0.60179741970E+02  0.10566000000E+00 0. -1.
         22    1    1    0    0    0  0.20216005611E+02 -0.62671424428E+01 -0.17823679364E+02  0.27670336162E+02  0.00000000000E+00 0. -1.
</event>
<event>
 5    1  0.1724243E-003  0.9118800E+02  0.7818608E-02  0.1130116E+00
         25   -1    0    0    0    0  0.00000000000E+00  0.00000000000E+00  0.99999998245E-14  0.12500000000E+03  0.12500000000E+03 0.  0.
        -13    1    3    3    0    0 -0.85496069703E+01  0.18546589883E+02  0.53017491476E+02  0.56814939427E+02  0.10566000000E+00 0.  1.
         23    2    1    0    0    0 -0.18898319047E+02 -0.27505007683E+01  0.21369253175E+02  0.96340678679E+02  0.91979180633E+02 0.  0.
         13    1    3    3    0    0 -0.10348712077E+02 -0.21297090651E+02 -0.31648238301E+02  0.39525739252E+02  0.10566000000E+00 0. -1.
         22    1    1    0    0    0  0.18898319047E+02  0.27505007683E+01 -0.21369253175E+02  0.28659321321E+02  0.00000000000E+00 0.  1.
</event>
<event>
 5    1  0.1724243E-003  0.9118800E+02  0.7818608E-02  0.1130116E+00
         25   -1    0    0    0    0  0.00000000000E+00  0.00000000000E+00  0.99999998245E-14  0.12500000000E+03  0.12500000000E+03 0.  0.
        -13    1    3    3    0    0 -0.28172372328E+02  0.30047884371E+02 -0.69469111280E+01  0.41771146214E+02  0.10566000000E+00 0.  1.
         23    2    1    0    0    0  0.10623622676E+01  0.24857782048E+01  0.29114775749E+02  0.95759995318E+02  0.91186615408E+02 0.  0.
         13    1    3    3    0    0  0.29234734596E+02 -0.27562106166E+02  0.36061686877E+02  0.53988849105E+02  0.10566000000E+00 0. -1.
         22    1    1    0    0    0 -0.10623622676E+01 -0.24857782048E+01 -0.29114775749E+02  0.29240004682E+02  0.00000000000E+00 0. -1.
</event>
<event>
 5    1  0.1724243E-003  0.9118800E+02  0.7818608E-02  0.1130116E+00
         25   -1    0    0    0    0  0.00000000000E+00  0.00000000000E+00  0.99999998245E-14  0.12500000000E+03  0.12500000000E+03 0.  0.
        -13    1    3    3    0    0 -0.33887535408E+01 -0.55327385600E+02 -0.68766591473E+01  0.55856090563E+02  0.10566000000E+00 0. -1.
         23    2    1    0    0    0  0.18064441277E+02 -0.25584230254E+02 -0.84445875614E+01  0.92562553500E+02  0.86692781562E+02 0.  0.
         13    1    3    3    0    0  0.21453194818E+02  0.29743155346E+02 -0.15679284141E+01  0.36706462937E+02  0.10566000000E+00 0.  1.
         22    1    1    0    0    0 -0.18064441277E+02  0.25584230254E+02  0.84445875614E+01  0.32437446500E+02  0.00000000000E+00 0. -1.
</event>
<event>
 5    1  0.1724243E-003  0.9118800E+02  0.7818608E-02  0.1130116E+00
         25   -1    0    0    0    0  0.00000000000E+00  0.00000000000E+00  0.99999998245E-14  0.12500000000E+03  0.12500000000E+03 0.  0.
        -13    1    3    3    0    0 -0.42248824977E+02  0.16969573920E+02 -0.38254177625E+02  0.59466990177E+02  0.10566000000E+00 0.  1.
         23    2    1    0    0    0 -0.10991584815E+02  0.57834058723E+00 -0.25895015179E+02  0.96862814183E+02  0.92686048280E+02 0.  0.
         13    1    3    3    0    0  0.31257240162E+02 -0.16391233333E+02  0.12359162446E+02  0.37395824006E+02  0.10566000000E+00 0. -1.
         22    1    1    0    0    0  0.10991584815E+02 -0.57834058723E+00  0.25895015179E+02  0.28137185817E+02  0.00000000000E+00 0.  1.
</event>
<event>
 5    1  0.1724243E-003  0.9118800E+02  0.7818608E-02  0.1130116E+00
         25   -1    0    0    0    0  0.00000000000E+00  0.00000000000E+00  0.99999998245E-14  0.12500000000E+03  0.12500000000E+03 0.  0.
        -13    1    3    3    0    0  0.24332858227E+02 -0.44063926989E+02  0.16629643440E+02  0.53012016149E+02  0.10566000000E+00 0.  1.
         23    2    1    0    0    0 -0.11283893420E+02 -0.26376637627E+02  0.14547869102E+02  0.92833343993E+02  0.87082351819E+02 0.  0.
         13    1    3    3    0    0 -0.35616751647E+02  0.17687289361E+02 -0.20817743382E+01  0.39821327844E+02  0.10566000000E+00 0. -1.
         22    1    1    0    0    0  0.11283893420E+02  0.26376637627E+02 -0.14547869102E+02  0.32166656007E+02  0.00000000000E+00 0. -1.
</event>
<event>
 5    1  0.1724243E-003  0.9118800E+02  0.7818608E-02  0.1130116E+00
         25   -1    0    0    0    0  0.00000000000E+00  0.00000000000E+00  0.99999998245E-14  0.12500000000E+03  0.12500000000E+03 0.  0.
        -13    1    3    3    0    0 -0.35104058973E+02 -0.21318625402E+02  0.26507348596E+02  0.48881790465E+02  0.10566000000E+00 0.  1.
         23    2    1    0    0    0 -0.17359095474E+02  0.19528884087E+02  0.14966418565E+02  0.94888387721E+02  0.89983870389E+02 0.  0.
         13    1    3    3    0    0  0.17744963499E+02  0.40847509489E+02 -0.11540930030E+02  0.46006597256E+02  0.10566000000E+00 0. -1.
         22    1    1    0    0    0  0.17359095474E+02 -0.19528884087E+02 -0.14966418565E+02  0.30111612279E+02  0.00000000000E+00 0.  1.
</event>
<event>
 4    1  0.1724243E-003  0.9118800E+02  0.7818608E-02  0.1130116E+00
         25   -1    0    0    0    0  0.00000000000E+00  0.00000000000E+00  0.99999998245E-14  0.12500000000E+03  0.12500000000E+03 0.  0.
        -13    1    1    0    0    0  0.32201916798E+02 -0.21260611525E+02 -0.47443070619E+02  0.61154175341E+02  0.10566000000E+00 0.  1.
         13    1    1    0    0    0  0.19973952862E+01  0.17784109540E+01  0.66120154601E+01  0.71331792302E+01  0.10566000000E+00 0. -1.
         22    1    1    0    0    0 -0.34199312084E+02  0.19482200571E+02  0.40831055159E+02  0.56712645429E+02  0.00000000000E+00 0.  1.
</event>
<event>
 5    1  0.1724243E-003  0.9118800E+02  0.7818608E-02  0.1130116E+00
         25   -1    0    0    0    0  0.00000000000E+00  0.00000000000E+00  0.99999998245E-14  0.12500000000E+03  0.12500000000E+03 0.  0.
        -13    1    3    3    0    0 -0.30815043001E+02  0.25712406960E+02 -0.24068813486E+02  0.46797582133E+02  0.10566000000E+00 0. -1.
         23    2    1    0    0    0 -0.14677765656E+02  0.15505076864E+02  0.20572249049E+02  0.95351026255E+02  0.90624260348E+02 0.  0.
         13    1    3    3    0    0  0.16137277346E+02 -0.10207330096E+02  0.44641062535E+02  0.48553444122E+02  0.10566000000E+00 0.  1.
         22    1    1    0    0    0  0.14677765656E+02 -0.15505076864E+02 -0.20572249049E+02  0.29648973745E+02  0.00000000000E+00 0. -1.
</event>
<event>
 5    1  0.1724243E-003  0.9118800E+02  0.7818608E-02  0.1130116E+00
         25   -1    0    0    0    0  0.00000000000E+00  0.00000000000E+00  0.99999998245E-14  0.12500000000E+03  0.12500000000E+03 0.  0.
        -13    1    3    3    0    0 -0.21412046062E+02 -0.26725547730E+02 -0.76894505398E+01  0.35097997545E+02  0.10566000000E+00 0. -1.
         23    2    1    0    0    0  0.18501560138E+02  0.18718339118E+02 -0.12677706863E+02  0.95786848883E+02  0.91223419256E+02 0.  0.
         13    1    3    3    0    0  0.39913606199E+02  0.45443886847E+02 -0.49882563236E+01  0.60688851339E+02  0.10566000000E+00 0.  1.
         22    1    1    0    0    0 -0.18501560138E+02 -0.18718339118E+02  0.12677706863E+02  0.29213151117E+02  0.00000000000E+00 0.  1.
</event>
<event>
 5    1  0.1724243E-003  0.9118800E+02  0.7818608E-02  0.1130116E+00
         25   -1    0    0    0    0  0.00000000000E+00  0.00000000000E+00  0.99999998245E-14  0.12500000000E+03  0.12500000000E+03 0.  0.
        -13    1    3    3    0    0  0.15964665454E+02 -0.10283382095E+02  0.58944842757E+02  0.61928379133E+02  0.10566000000E+00 0.  1.
         23    2    1    0    0    0  0.77732660943E+01 -0.10235720913E+02  0.24507742058E+02  0.97326491564E+02  0.93309286199E+02 0.  0.
         13    1    3    3    0    0 -0.81913993601E+01  0.47661182205E-01 -0.34437100699E+02  0.35398112431E+02  0.10566000000E+00 0. -1.
         22    1    1    0    0    0 -0.77732660943E+01  0.10235720913E+02 -0.24507742058E+02  0.27673508436E+02  0.00000000000E+00 0.  1.
</event>
<event>
 5    1  0.1724243E-003  0.9118800E+02  0.7818608E-02  0.1130116E+00
         25   -1    0    0    0    0  0.00000000000E+00  0.00000000000E+00  0.99999998245E-14  0.12500000000E+03  0.12500000000E+03 0.  0.
        -13    1    3    3    0    0 -0.45152739941E+02 -0.22427302318E+02 -0.99168805764E+01  0.51381995853E+02  0.10566000000E+00 0.  1.
         23    2    1    0    0    0 -0.26130353324E+02  0.15298053952E+02 -0.26857731718E+00  0.94719677126E+02  0.89749202122E+02 0.  0.
         13    1    3    3    0    0  0.19022386617E+02  0.37725356271E+02  0.96483032593E+01  0.43337681273E+02  0.10566000000E+00 0. -1.
         22    1    1    0    0    0  0.26130353324E+02 -0.15298053952E+02  0.26857731718E+00  0.30280322874E+02  0.00000000000E+00 0.  1.
</event>
<event>
 5    1  0.1724243E-003  0.9118800E+02  0.7818608E-02  0.1130116E+00
         25   -1    0    0    0    0  0.00000000000E+00  0.00000000000E+00  0.99999998245E-14  0.12500000000E+03  0.12500000000E+03 0.  0.
        -13    1    3    3    0    0  0.71473097388E+01 -0.22373790509E+02 -0.27103861469E+02  0.35865038810E+02  0.10566000000E+00 0. -1.
         23    2    1    0    0    0 -0.28159695273E+02  0.53421561710E+01  0.10554839364E+02  0.94456396669E+02  0.89381760820E+02 0.  0.
         13    1    3    3    0    0 -0.35307005012E+02  0.27715946680E+02  0.37658700833E+02  0.58591357859E+02  0.10566000000E+00 0.  1.
         22    1    1    0    0    0  0.28159695273E+02 -0.53421561710E+01 -0.10554839364E+02  0.30543603331E+02  0.00000000000E+00 0.  1.
</event>
<event>
 5    1  0.1724243E-003  0.9118800E+02  0.7818608E-02  0.1130116E+00
         25   -1    0    0    0    0  0.00000000000E+00  0.00000000000E+00  0.99999998245E-14  0.12500000000E+03  0.12500000000E+03 0.  0.
        -13    1    3    3    0    0  0.29769195950E+02 -0.44161181278E+02 -0.75883304008E+01  0.53795993175E+02  0.10566000000E+00 0. -1.
         23    2    1    0    0    0 -0.72669564584E+01 -0.26189577073E+02 -0.12177938742E+02  0.95217374269E+02  0.90439723393E+02 0.  0.
         13    1    3    3    0    0 -0.37036152409E+02  0.17971604205E+02 -0.45896083408E+01  0.41421381094E+02  0.10566000000E+00 0.  1.
         22    1    1    0    0    0  0.72669564584E+01  0.26189577073E+02  0.12177938742E+02  0.29782625731E+02  0.00000000000E+00 0. -1.
</event>
<event>
 5    1  0.1724243E-003  0.9118800E+02  0.7818608E-02  0.1130116E+00
         25   -1    0    0    0    0  0.00000000000E+00  0.00000000000E+00  0.99999998245E-14  0.12500000000E+03  0.12500000000E+03 0.  0.
        -13    1    3    3    0    0 -0.25892697818E+02  0.19930139261E+02 -0.53112733092E+02  0.62358767081E+02  0.10566000000E+00 0.  1.
         23    2    1    0    0    0 -0.87733213326E+01  0.91582215859E+01 -0.24680988597E+02  0.97251209253E+02  0.93208381131E+02 0.  0.
         13    1    3    3    0    0  0.17119376486E+02 -0.10771917675E+02  0.28431744495E+02  0.34892442172E+02  0.10566000000E+00 0. -1.
         22    1    1    0    0    0  0.87733213326E+01 -0.91582215859E+01  0.24680988597E+02  0.27748790747E+02  0.00000000000E+00 0.  1.
</event>
<event>
 5    1  0.1724243E-003  0.9118800E+02  0.7818608E-02  0.1130116E+00
         25   -1    0    0    0    0  0.00000000000E+00  0.00000000000E+00  0.99999998245E-14  0.12500000000E+03  0.12500000000E+03 0.  0.
        -13    1    3    3    0    0 -0.24011747772E+02  0.37051663287E+02 -0.20155317296E+02  0.48534912823E+02  0.10566000000E+00 0.  1.
         23    2    1    0    0    0  0.86141425054E+01  0.26009638349E+02  0.11471509076E+02  0.95296460504E+02  0.90548965350E+02 0.  0.
         13    1    3    3    0    0  0.32625890277E+02 -0.11042024938E+02  0.31626826372E+02  0.46761547681E+02  0.10566000000E+00 0. -1.
         22    1    1    0    0    0 -0.86141425054E+01 -0.26009638349E+02 -0.11471509076E+02  0.29703539496E+02  0.00000000000E+00 0.  1.
</event>
<event>
 5    1  0.1724243E-003  0.9118800E+02  0.7818608E-02  0.1130116E+00
         25   -1    0    0    0    0  0.00000000000E+00  0.00000000000E+00  0.99999998245E-14  0.12500000000E+03  0.12500000000E+03 0.  0.
        -13    1    3    3    0    0  0.42138459522E+02 -0.16976758747E+02  0.25107464074E+02  0.51906223372E+02  0.10566000000E+00 0.  1.
         23    2    1    0    0    0  0.11919632863E+01 -0.35303703279E+01  0.29534901951E+02  0.95230977101E+02  0.90458522402E+02 0.  0.
         13    1    3    3    0    0 -0.40946496235E+02  0.13446388420E+02  0.44274378769E+01  0.43324753729E+02  0.10566000000E+00 0. -1.
         22    1    1    0    0    0 -0.11919632863E+01  0.35303703279E+01 -0.29534901951E+02  0.29769022899E+02  0.00000000000E+00 0.  1.
</event>
<event>
 5    1  0.1724243E-003  0.9118800E+02  0.7818608E-02  0.1130116E+00
         25   -1    0    0    0    0  0.00000000000E+00  0.00000000000E+00  0.99999998245E-14  0.12500000000E+03  0.12500000000E+03 0.  0.
        -13    1    3    3    0    0  0.17813356000E+02 -0.74316030076E+01 -0.26785062465E+02  0.33015073990E+02  0.10566000000E+00 0. -1.
         23    2    1    0    0    0 -0.20757793333E+02 -0.14735844162E+02  0.18932965009E+02  0.93274801005E+02  0.87713740379E+02 0.  0.
         13    1    3    3    0    0 -0.38571149334E+02 -0.73042411540E+01  0.45718027474E+02  0.60259727015E+02  0.10566000000E+00 0.  1.
         22    1    1    0    0    0  0.20757793333E+02  0.14735844162E+02 -0.18932965009E+02  0.31725198995E+02  0.00000000000E+00 0.  1.
</event>
<event>
 5    1  0.1724243E-003  0.9118800E+02  0.7818608E-02  0.1130116E+00
         25   -1    0    0    0    0  0.00000000000E+00  0.00000000000E+00  0.99999998245E-14  0.12500000000E+03  0.12500000000E+03 0.  0.
        -13    1    3    3    0    0  0.27694342061E+02  0.16239441231E+01 -0.40161622846E+02  0.48811688051E+02  0.10566000000E+00 0. -1.
         23    2    1    0    0    0  0.34770226180E+02  0.55963536831E+01 -0.28124019157E-02  0.89782279871E+02  0.82586742082E+02 0.  0.
         13    1    3    3    0    0  0.70758841193E+01  0.39724095600E+01  0.40158810444E+02  0.40970591820E+02  0.10566000000E+00 0.  1.
         22    1    1    0    0    0 -0.34770226180E+02 -0.55963536831E+01  0.28124019157E-02  0.35217720129E+02  0.00000000000E+00 0. -1.
</event>
<event>
 5    1  0.1724243E-003  0.9118800E+02  0.7818608E-02  0.1130116E+00
         25   -1    0    0    0    0  0.00000000000E+00  0.00000000000E+00  0.99999998245E-14  0.12500000000E+03  0.12500000000E+03 0.  0.
        -13    1    3    3    0    0  0.16378583857E+02  0.46306432073E+02  0.37441770898E+02  0.61761161197E+02  0.10566000000E+00 0. -1.
         23    2    1    0    0    0  0.94874271720E+01  0.10084287940E+02  0.13069492217E+02  0.10596015325E+03  0.10423549449E+03 0.  0.
         13    1    3    3    0    0 -0.68911566847E+01 -0.36222144132E+02 -0.24372278681E+02  0.44198992049E+02  0.10566000000E+00 0.  1.
         22    1    1    0    0    0 -0.94874271720E+01 -0.10084287940E+02 -0.13069492217E+02  0.19039846754E+02  0.00000000000E+00 0. -1.
</event>
<event>
 5    1  0.1724243E-003  0.9118800E+02  0.7818608E-02  0.1130116E+00
         25   -1    0    0    0    0  0.00000000000E+00  0.00000000000E+00  0.99999998245E-14  0.12500000000E+03  0.12500000000E+03 0.  0.
        -13    1    3    3    0    0 -0.52402954930E+02  0.27388044429E+01 -0.20425592551E+02  0.56309739214E+02  0.10566000000E+00 0.  1.
         23    2    1    0    0    0 -0.17133477221E+02 -0.15694509522E+02 -0.16914005314E+02  0.96260528075E+02  0.91870191132E+02 0.  0.
         13    1    3    3    0    0  0.35269477710E+02 -0.18433313965E+02  0.35115872374E+01  0.39950788861E+02  0.10566000000E+00 0. -1.
         22    1    1    0    0    0  0.17133477221E+02  0.15694509522E+02  0.16914005314E+02  0.28739471925E+02  0.00000000000E+00 0.  1.
</event>
<event>
 5    1  0.1724243E-003  0.9118800E+02  0.7818608E-02  0.1130116E+00
         25   -1    0    0    0    0  0.00000000000E+00  0.00000000000E+00  0.99999998245E-14  0.12500000000E+03  0.12500000000E+03 0.  0.
        -13    1    3    3    0    0 -0.38783018141E+02  0.26768932013E+02 -0.42126009079E+01  0.47312317505E+02  0.10566000000E+00 0.  1.
         23    2    1    0    0    0  0.10566577891E+02  0.21263142765E+02 -0.13287985903E+02  0.97790729926E+02  0.93929135424E+02 0.  0.
         13    1    3    3    0    0  0.49349596032E+02 -0.55057892476E+01 -0.90753849955E+01  0.50478412421E+02  0.10566000000E+00 0. -1.
         22    1    1    0    0    0 -0.10566577891E+02 -0.21263142765E+02  0.13287985903E+02  0.27209270074E+02  0.00000000000E+00 0. -1.
</event>
<event>
 5    1  0.1724243E-003  0.9118800E+02  0.7818608E-02  0.1130116E+00
         25   -1    0    0    0    0  0.00000000000E+00  0.00000000000E+00  0.99999998245E-14  0.12500000000E+03  0.12500000000E+03 0.  0.
        -13    1    3    3    0    0 -0.21269528225E+02  0.69341267898E+01 -0.28540640543E+02  0.36263677032E+02  0.10566000000E+00 0.  1.
         23    2    1    0    0    0  0.29201152998E+02 -0.36953360858E+01  0.70769858194E+00  0.95557451155E+02  0.90908540791E+02 0.  0.
         13    1    3    3    0    0  0.50470681223E+02 -0.10629462876E+02  0.29248339125E+02  0.59293774123E+02  0.10566000000E+00 0. -1.
         22    1    1    0    0    0 -0.29201152998E+02  0.36953360858E+01 -0.70769858194E+00  0.29442548845E+02  0.00000000000E+00 0. -1.
</event>
<event>
 5    1  0.1724243E-003  0.9118800E+02  0.7818608E-02  0.1130116E+00
         25   -1    0    0    0    0  0.00000000000E+00  0.00000000000E+00  0.99999998245E-14  0.12500000000E+03  0.12500000000E+03 0.  0.
        -13    1    3    3    0    0  0.94086708766E+01  0.35890025316E+02 -0.46145944105E+02  0.59212129891E+02  0.10566000000E+00 0.  1.
         23    2    1    0    0    0 -0.35001382772E+01  0.71661573364E+01 -0.28698753736E+02  0.95213707097E+02  0.90434654719E+02 0.  0.
         13    1    3    3    0    0 -0.12908809154E+02 -0.28723867980E+02  0.17447190369E+02  0.36001577206E+02  0.10566000000E+00 0. -1.
         22    1    1    0    0    0  0.35001382772E+01 -0.71661573364E+01  0.28698753736E+02  0.29786292903E+02  0.00000000000E+00 0.  1.
</event>
<event>
 5    1  0.1724243E-003  0.9118800E+02  0.7818608E-02  0.1130116E+00
         25   -1    0    0    0    0  0.00000000000E+00  0.00000000000E+00  0.99999998245E-14  0.12500000000E+03  0.12500000000E+03 0.  0.
        -13    1    3    3    0    0 -0.13451269564E+01 -0.52711052177E+02 -0.24157606618E+02  0.57998840589E+02  0.10566000000E+00 0.  1.
         23    2    1    0    0    0  0.19521160978E+01 -0.18882353594E+02 -0.26875388135E+02  0.92096496814E+02  0.86018162055E+02 0.  0.
         13    1    3    3    0    0  0.32972430542E+01  0.33828698583E+02 -0.27177815177E+01  0.34097656224E+02  0.10566000000E+00 0. -1.
         22    1    1    0    0    0 -0.19521160978E+01  0.18882353594E+02  0.26875388135E+02  0.32903503186E+02  0.00000000000E+00 0.  1.
</event>
<event>
 5    1  0.1724243E-003  0.9118800E+02  0.7818608E-02  0.1130116E+00
         25   -1    0    0    0    0  0.00000000000E+00  0.00000000000E+00  0.99999998245E-14  0.12500000000E+03  0.12500000000E+03 0.  0.
        -13    1    3    3    0    0  0.43226171332E+02  0.39573017118E+02  0.11364844634E+02  0.59696703673E+02  0.10566000000E+00 0.  1.
         23    2    1    0    0    0  0.12855187261E+02  0.20627591979E+02  0.16160687214E+02  0.95812310787E+02  0.91258302070E+02 0.  0.
         13    1    3    3    0    0 -0.30370984071E+02 -0.18945425139E+02  0.47958425801E+01  0.36115607114E+02  0.10566000000E+00 0. -1.
         22    1    1    0    0    0 -0.12855187261E+02 -0.20627591979E+02 -0.16160687214E+02  0.29187689213E+02  0.00000000000E+00 0.  1.
</event>
<event>
 5    1  0.1724243E-003  0.9118800E+02  0.7818608E-02  0.1130116E+00
         25   -1    0    0    0    0  0.00000000000E+00  0.00000000000E+00  0.99999998245E-14  0.12500000000E+03  0.12500000000E+03 0.  0.
        -13    1    3    3    0    0 -0.25854794874E+02  0.22702991013E+01  0.39302417012E+02  0.47099000233E+02  0.10566000000E+00 0. -1.
         23    2    1    0    0    0 -0.23369763132E+02 -0.18078368558E+02 -0.41685658789E+01  0.95161263766E+02  0.90362137765E+02 0.  0.
         13    1    3    3    0    0  0.24850317413E+01 -0.20348667660E+02 -0.43470982891E+02  0.48062263532E+02  0.10566000000E+00 0.  1.
         22    1    1    0    0    0  0.23369763132E+02  0.18078368558E+02  0.41685658789E+01  0.29838736234E+02  0.00000000000E+00 0.  1.
</event>
<event>
 5    1  0.1724243E-003  0.9118800E+02  0.7818608E-02  0.1130116E+00
         25   -1    0    0    0    0  0.00000000000E+00  0.00000000000E+00  0.99999998245E-14  0.12500000000E+03  0.12500000000E+03 0.  0.
        -13    1    3    3    0    0  0.10239920601E+02  0.23521087085E+02  0.21433137996E+02  0.33428851011E+02  0.10566000000E+00 0.  1.
         23    2    1    0    0    0 -0.15373494264E+02 -0.22785913373E+02 -0.10885343225E+02  0.95435953064E+02  0.90741326119E+02 0.  0.
         13    1    3    3    0    0 -0.25613414865E+02 -0.46307000458E+02 -0.32318481221E+02  0.62007102052E+02  0.10566000000E+00 0. -1.
         22    1    1    0    0    0  0.15373494264E+02  0.22785913373E+02  0.10885343225E+02  0.29564046936E+02  0.00000000000E+00 0. -1.
</event>
<event>
 5    1  0.1724243E-003  0.9118800E+02  0.7818608E-02  0.1130116E+00
         25   -1    0    0    0    0  0.00000000000E+00  0.00000000000E+00  0.99999998245E-14  0.12500000000E+03  0.12500000000E+03 0.  0.
        -13    1    3    3    0    0  0.41633525613E+02 -0.92263267101E+01  0.15928003889E+02  0.45521292067E+02  0.10566000000E+00 0. -1.
         23    2    1    0    0    0  0.20324451299E+02  0.14094547400E+02 -0.19876443805E+02  0.93269689486E+02  0.87706455700E+02 0.  0.
         13    1    3    3    0    0 -0.21309074314E+02  0.23320874110E+02 -0.35804447694E+02  0.47748397419E+02  0.10566000000E+00 0.  1.
         22    1    1    0    0    0 -0.20324451299E+02 -0.14094547400E+02  0.19876443805E+02  0.31730310514E+02  0.00000000000E+00 0. -1.
</event>
<event>
 5    1  0.1724243E-003  0.9118800E+02  0.7818608E-02  0.1130116E+00
         25   -1    0    0    0    0  0.00000000000E+00  0.00000000000E+00  0.99999998245E-14  0.12500000000E+03  0.12500000000E+03 0.  0.
        -13    1    3    3    0    0 -0.13304524651E+02  0.52635785432E+02 -0.25299103462E+02  0.59896511453E+02  0.10566000000E+00 0.  1.
         23    2    1    0    0    0  0.65699025442E+01  0.25432446218E+02 -0.12095383886E+02  0.96081645077E+02  0.91626476901E+02 0.  0.
         13    1    3    3    0    0  0.19874427195E+02 -0.27203339214E+02  0.13203719576E+02  0.36185133624E+02  0.10566000000E+00 0. -1.
         22    1    1    0    0    0 -0.65699025442E+01 -0.25432446218E+02  0.12095383886E+02  0.28918354923E+02  0.00000000000E+00 0.  1.
</event>
<event>
 5    1  0.1724243E-003  0.9118800E+02  0.7818608E-02  0.1130116E+00
         25   -1    0    0    0    0  0.00000000000E+00  0.00000000000E+00  0.99999998245E-14  0.12500000000E+03  0.12500000000E+03 0.  0.
        -13    1    3    3    0    0 -0.49751499666E+01  0.30677791523E+02  0.19089208258E+02  0.36473114014E+02  0.10566000000E+00 0.  1.
         23    2    1    0    0    0 -0.22761930723E+02 -0.18059744494E+02 -0.78084497284E+01  0.94912930542E+02  0.90017957294E+02 0.  0.
         13    1    3    3    0    0 -0.17786780756E+02 -0.48737536017E+02 -0.26897657986E+02  0.58439816528E+02  0.10566000000E+00 0. -1.
         22    1    1    0    0    0  0.22761930723E+02  0.18059744494E+02  0.78084497284E+01  0.30087069458E+02  0.00000000000E+00 0. -1.
</event>
<event>
 5    1  0.1724243E-003  0.9118800E+02  0.7818608E-02  0.1130116E+00
         25   -1    0    0    0    0  0.00000000000E+00  0.00000000000E+00  0.99999998245E-14  0.12500000000E+03  0.12500000000E+03 0.  0.
        -13    1    3    3    0    0  0.24153073371E+00  0.33876013757E+02  0.39437226458E+02  0.51989889786E+02  0.10566000000E+00 0. -1.
         23    2    1    0    0    0 -0.24399700326E+02  0.88115495229E+01  0.12924001911E+02  0.96016925518E+02  0.91538141666E+02 0.  0.
         13    1    3    3    0    0 -0.24641231060E+02 -0.25064464234E+02 -0.26513224547E+02  0.44027035733E+02  0.10566000000E+00 0.  1.
         22    1    1    0    0    0  0.24399700326E+02 -0.88115495229E+01 -0.12924001911E+02  0.28983074482E+02  0.00000000000E+00 0. -1.
</event>
<event>
 5    1  0.1724243E-003  0.9118800E+02  0.7818608E-02  0.1130116E+00
         25   -1    0    0    0    0  0.00000000000E+00  0.00000000000E+00  0.99999998245E-14  0.12500000000E+03  0.12500000000E+03 0.  0.
        -13    1    3    3    0    0  0.98518844891E+01 -0.22174550962E+02 -0.32389666948E+02  0.40470631665E+02  0.10566000000E+00 0. -1.
         23    2    1    0    0    0 -0.28045167754E+02 -0.21438363363E+01  0.38610700416E+01  0.96609238643E+02  0.92343433230E+02 0.  0.
         13    1    3    3    0    0 -0.37897052243E+02  0.20030714626E+02  0.36250736989E+02  0.56138606978E+02  0.10566000000E+00 0.  1.
         22    1    1    0    0    0  0.28045167754E+02  0.21438363363E+01 -0.38610700416E+01  0.28390761357E+02  0.00000000000E+00 0.  1.
</event>
<event>
 5    1  0.1724243E-003  0.9118800E+02  0.7818608E-02  0.1130116E+00
         25   -1    0    0    0    0  0.00000000000E+00  0.00000000000E+00  0.99999998245E-14  0.12500000000E+03  0.12500000000E+03 0.  0.
        -13    1    3    3    0    0 -0.28325565697E+02 -0.14473256907E+02  0.19741315618E+02  0.37437194659E+02  0.10566000000E+00 0. -1.
         23    2    1    0    0    0  0.10200018921E+02 -0.11161600366E+02 -0.24509199056E+02  0.96202039185E+02  0.91790575749E+02 0.  0.
         13    1    3    3    0    0  0.38525584618E+02  0.33116565413E+01 -0.44250514674E+02  0.58764844526E+02  0.10566000000E+00 0.  1.
         22    1    1    0    0    0 -0.10200018921E+02  0.11161600366E+02  0.24509199056E+02  0.28797960815E+02  0.00000000000E+00 0.  1.
</event>
<event>
 5    1  0.1724243E-003  0.9118800E+02  0.7818608E-02  0.1130116E+00
         25   -1    0    0    0    0  0.00000000000E+00  0.00000000000E+00  0.99999998245E-14  0.12500000000E+03  0.12500000000E+03 0.  0.
        -13    1    3    3    0    0  0.14068558646E+01  0.26294561255E+02 -0.50828227188E+02  0.57244240218E+02  0.10566000000E+00 0. -1.
         23    2    1    0    0    0 -0.82961620891E+01  0.23813189693E+02 -0.12508738520E+02  0.96851059556E+02  0.92670194178E+02 0.  0.
         13    1    3    3    0    0 -0.97030179536E+01 -0.24813715618E+01  0.38319488668E+02  0.39606819338E+02  0.10566000000E+00 0.  1.
         22    1    1    0    0    0  0.82961620891E+01 -0.23813189693E+02  0.12508738520E+02  0.28148940444E+02  0.00000000000E+00 0. -1.
</event>
<event>
 5    1  0.1724243E-003  0.9118800E+02  0.7818608E-02  0.1130116E+00
         25   -1    0    0    0    0  0.00000000000E+00  0.00000000000E+00  0.99999998245E-14  0.12500000000E+03  0.12500000000E+03 0.  0.
        -13    1    3    3    0    0  0.43083430973E+02  0.38063935424E+02  0.20941829224E+02  0.61185100961E+02  0.10566000000E+00 0. -1.
         23    2    1    0    0    0  0.18305925827E+02  0.24346299646E+02  0.37670627578E+01  0.94307330050E+02  0.89173048128E+02 0.  0.
         13    1    3    3    0    0 -0.24777505146E+02 -0.13717635778E+02 -0.17174766467E+02  0.33122229089E+02  0.10566000000E+00 0.  1.
         22    1    1    0    0    0 -0.18305925827E+02 -0.24346299646E+02 -0.37670627578E+01  0.30692669950E+02  0.00000000000E+00 0. -1.
</event>
<event>
 5    1  0.1724243E-003  0.9118800E+02  0.7818608E-02  0.1130116E+00
         25   -1    0    0    0    0  0.00000000000E+00  0.00000000000E+00  0.99999998245E-14  0.12500000000E+03  0.12500000000E+03 0.  0.
        -13    1    3    3    0    0 -0.59826667650E+02  0.69184391585E+01  0.16255755904E+02  0.62380732013E+02  0.10566000000E+00 0.  1.
         23    2    1    0    0    0 -0.26718593880E+02  0.52818213369E+01  0.90163582959E+01  0.96310705612E+02  0.91938438116E+02 0.  0.
         13    1    3    3    0    0  0.33108073770E+02 -0.16366178216E+01 -0.72393976083E+01  0.33929973599E+02  0.10566000000E+00 0. -1.
         22    1    1    0    0    0  0.26718593880E+02 -0.52818213369E+01 -0.90163582959E+01  0.28689294388E+02  0.00000000000E+00 0.  1.
</event>
<event>
 5    1  0.1724243E-003  0.9118800E+02  0.7818608E-02  0.1130116E+00
         25   -1    0    0    0    0  0.00000000000E+00  0.00000000000E+00  0.99999998245E-14  0.12500000000E+03  0.12500000000E+03 0.  0.
        -13    1    3    3    0    0 -0.14566366428E+02  0.24535380146E+02 -0.53594033365E+02  0.60716517408E+02  0.10566000000E+00 0. -1.
         23    2    1    0    0    0 -0.41237157528E+01  0.19387691003E+02 -0.17790307023E+02  0.98365762297E+02  0.94691290910E+02 0.  0.
         13    1    3    3    0    0  0.10442650676E+02 -0.51476891422E+01  0.35803726343E+02  0.37649244889E+02  0.10566000000E+00 0.  1.
         22    1    1    0    0    0  0.41237157528E+01 -0.19387691003E+02  0.17790307023E+02  0.26634237703E+02  0.00000000000E+00 0. -1.
</event>
<event>
 5    1  0.1724243E-003  0.9118800E+02  0.7818608E-02  0.1130116E+00
         25   -1    0    0    0    0  0.00000000000E+00  0.00000000000E+00  0.99999998245E-14  0.12500000000E+03  0.12500000000E+03 0.  0.
        -13    1    3    3    0    0  0.79813411618E+01 -0.40645807172E+02  0.76875512648E+01  0.42129479654E+02  0.10566000000E+00 0.  1.
         23    2    1    0    0    0 -0.10082484236E+02  0.55775405267E+01  0.27203709073E+02  0.95456688845E+02  0.90769886037E+02 0.  0.
         13    1    3    3    0    0 -0.18063825398E+02  0.46223347699E+02  0.19516157808E+02  0.53327209191E+02  0.10566000000E+00 0. -1.
         22    1    1    0    0    0  0.10082484236E+02 -0.55775405267E+01 -0.27203709073E+02  0.29543311155E+02  0.00000000000E+00 0. -1.
</event>
<event>
 5    1  0.1724243E-003  0.9118800E+02  0.7818608E-02  0.1130116E+00
         25   -1    0    0    0    0  0.00000000000E+00  0.00000000000E+00  0.99999998245E-14  0.12500000000E+03  0.12500000000E+03 0.  0.
        -13    1    3    3    0    0  0.32767144241E+01  0.19661764652E+02  0.50711312155E+02  0.54488257370E+02  0.10566000000E+00 0. -1.
         23    2    1    0    0    0  0.13685223019E+02  0.22963131219E+02  0.10294258367E+02  0.96354538233E+02  0.91998013883E+02 0.  0.
         13    1    3    3    0    0  0.10408508595E+02  0.33013665672E+01 -0.40417053788E+02  0.41866280864E+02  0.10566000000E+00 0.  1.
         22    1    1    0    0    0 -0.13685223019E+02 -0.22963131219E+02 -0.10294258367E+02  0.28645461767E+02  0.00000000000E+00 0. -1.
</event>
<event>
 5    1  0.1724243E-003  0.9118800E+02  0.7818608E-02  0.1130116E+00
         25   -1    0    0    0    0  0.00000000000E+00  0.00000000000E+00  0.99999998245E-14  0.12500000000E+03  0.12500000000E+03 0.  0.
        -13    1    3    3    0    0 -0.48631680405E+02  0.24687396427E+02 -0.25492352999E+02  0.60202816436E+02  0.10566000000E+00 0.  1.
         23    2    1    0    0    0 -0.14267492504E+02  0.17273690404E+02 -0.18267487669E+02  0.96092512592E+02  0.91641301540E+02 0.  0.
         13    1    3    3    0    0  0.34364187901E+02 -0.74137060236E+01  0.72248653295E+01  0.35889696156E+02  0.10566000000E+00 0. -1.
         22    1    1    0    0    0  0.14267492504E+02 -0.17273690404E+02  0.18267487669E+02  0.28907487408E+02  0.00000000000E+00 0.  1.
</event>
<event>
 4    1  0.1724243E-003  0.9118800E+02  0.7818608E-02  0.1130116E+00
         25   -1    0    0    0    0  0.00000000000E+00  0.00000000000E+00  0.99999998245E-14  0.12500000000E+03  0.12500000000E+03 0.  0.
        -13    1    1    0    0    0 -0.34050876807E+02  0.36416761880E+02 -0.37661404295E+02  0.62482279845E+02  0.10566000000E+00 0.  1.
         13    1    1    0    0    0  0.56485780077E+01 -0.72261223434E+01  0.69677215295E+01  0.11518836095E+02  0.10566000000E+00 0. -1.
         22    1    1    0    0    0  0.28402298799E+02 -0.29190639537E+02  0.30693682765E+02  0.50998884060E+02  0.00000000000E+00 0.  1.
</event>
<event>
 5    1  0.1724243E-003  0.9118800E+02  0.7818608E-02  0.1130116E+00
         25   -1    0    0    0    0  0.00000000000E+00  0.00000000000E+00  0.99999998245E-14  0.12500000000E+03  0.12500000000E+03 0.  0.
        -13    1    3    3    0    0  0.38228751066E+02  0.33763337967E+01 -0.81793472405E+01  0.39239647339E+02  0.10566000000E+00 0. -1.
         23    2    1    0    0    0 -0.17785818743E+02 -0.15750978041E+02 -0.11665968003E+02  0.98532596140E+02  0.94911269273E+02 0.  0.
         13    1    3    3    0    0 -0.56014569810E+02 -0.19127311838E+02 -0.34866207625E+01  0.59292948801E+02  0.10566000000E+00 0.  1.
         22    1    1    0    0    0  0.17785818743E+02  0.15750978041E+02  0.11665968003E+02  0.26467403860E+02  0.00000000000E+00 0.  1.
</event>
<event>
 5    1  0.1724243E-003  0.9118800E+02  0.7818608E-02  0.1130116E+00
         25   -1    0    0    0    0  0.00000000000E+00  0.00000000000E+00  0.99999998245E-14  0.12500000000E+03  0.12500000000E+03 0.  0.
        -13    1    3    3    0    0 -0.12437042459E+02  0.29701384389E+02  0.38616588546E+02  0.50280257902E+02  0.10566000000E+00 0.  1.
         23    2    1    0    0    0 -0.19965549461E+01  0.32045313188E+02 -0.25275798190E+01  0.92793215176E+02  0.87024730933E+02 0.  0.
         13    1    3    3    0    0  0.10440487513E+02  0.23439287991E+01 -0.41144168365E+02  0.42512957274E+02  0.10566000000E+00 0. -1.
         22    1    1    0    0    0  0.19965549461E+01 -0.32045313188E+02  0.25275798190E+01  0.32206784824E+02  0.00000000000E+00 0. -1.
</event>
<event>
 5    1  0.1724243E-003  0.9118800E+02  0.7818608E-02  0.1130116E+00
         25   -1    0    0    0    0  0.00000000000E+00  0.00000000000E+00  0.99999998245E-14  0.12500000000E+03  0.12500000000E+03 0.  0.
        -13    1    3    3    0    0 -0.36316624318E+02 -0.77007025782E+00  0.10272803060E+02  0.37749594127E+02  0.10566000000E+00 0.  1.
         23    2    1    0    0    0  0.23440048999E+02 -0.93338835752E+01  0.92566036522E+01  0.98125439709E+02  0.94373512847E+02 0.  0.
         13    1    3    3    0    0  0.59756673317E+02 -0.85638133173E+01 -0.10161994075E+01  0.60375845582E+02  0.10566000000E+00 0. -1.
         22    1    1    0    0    0 -0.23440048999E+02  0.93338835752E+01 -0.92566036522E+01  0.26874560291E+02  0.00000000000E+00 0. -1.
</event>
<event>
 5    1  0.1724243E-003  0.9118800E+02  0.7818608E-02  0.1130116E+00
         25   -1    0    0    0    0  0.00000000000E+00  0.00000000000E+00  0.99999998245E-14  0.12500000000E+03  0.12500000000E+03 0.  0.
        -13    1    3    3    0    0 -0.81343018701E+01 -0.44960752262E+02 -0.28044050844E+02  0.53610783081E+02  0.10566000000E+00 0. -1.
         23    2    1    0    0    0  0.11832240338E+02 -0.26279523334E+02  0.41861434862E+01  0.95877172951E+02  0.91347103061E+02 0.  0.
         13    1    3    3    0    0  0.19966542208E+02  0.18681228928E+02  0.32230194330E+02  0.42266389869E+02  0.10566000000E+00 0.  1.
         22    1    1    0    0    0 -0.11832240338E+02  0.26279523334E+02 -0.41861434862E+01  0.29122827049E+02  0.00000000000E+00 0. -1.
</event>
<event>
 5    1  0.1724243E-003  0.9118800E+02  0.7818608E-02  0.1130116E+00
         25   -1    0    0    0    0  0.00000000000E+00  0.00000000000E+00  0.99999998245E-14  0.12500000000E+03  0.12500000000E+03 0.  0.
        -13    1    3    3    0    0  0.11055920006E+02  0.20491207377E+02 -0.23851307660E+02  0.33331951460E+02  0.10566000000E+00 0. -1.
         23    2    1    0    0    0  0.11563144933E+01 -0.16231189867E+02  0.24955441926E+02  0.95208009979E+02  0.90426779743E+02 0.  0.
         13    1    3    3    0    0 -0.98996055128E+01 -0.36722397244E+02  0.48806749586E+02  0.61876058519E+02  0.10566000000E+00 0.  1.
         22    1    1    0    0    0 -0.11563144933E+01  0.16231189867E+02 -0.24955441926E+02  0.29791990021E+02  0.00000000000E+00 0.  1.
</event>
<event>
 5    1  0.1724243E-003  0.9118800E+02  0.7818608E-02  0.1130116E+00
         25   -1    0    0    0    0  0.00000000000E+00  0.00000000000E+00  0.99999998245E-14  0.12500000000E+03  0.12500000000E+03 0.  0.
        -13    1    3    3    0    0 -0.12685890334E+02 -0.31186762086E+02  0.52475105663E+02  0.62347364189E+02  0.10566000000E+00 0.  1.
         23    2    1    0    0    0 -0.19523074902E+01 -0.12402177389E+02  0.20749903154E+02  0.10074749519E+03  0.97784834193E+02 0.  0.
         13    1    3    3    0    0  0.10733582844E+02  0.18784584696E+02 -0.31725202509E+02  0.38400131004E+02  0.10566000000E+00 0. -1.
         22    1    1    0    0    0  0.19523074902E+01  0.12402177389E+02 -0.20749903154E+02  0.24252504807E+02  0.00000000000E+00 0.  1.
</event>
<event>
 5    1  0.1724243E-003  0.9118800E+02  0.7818608E-02  0.1130116E+00
         25   -1    0    0    0    0  0.00000000000E+00  0.00000000000E+00  0.99999998245E-14  0.12500000000E+03  0.12500000000E+03 0.  0.
        -13    1    3    3    0    0 -0.27775142471E+02 -0.40887716343E+02  0.35343998677E+02  0.60765724661E+02  0.10566000000E+00 0.  1.
         23    2    1    0    0    0 -0.38881086807E+01 -0.18064564376E+02  0.21669523265E+02  0.96521690469E+02  0.92224848156E+02 0.  0.
         13    1    3    3    0    0  0.23887033791E+02  0.22823151967E+02 -0.13674475413E+02  0.35755965808E+02  0.10566000000E+00 0. -1.
         22    1    1    0    0    0  0.38881086807E+01  0.18064564376E+02 -0.21669523265E+02  0.28478309531E+02  0.00000000000E+00 0.  1.
</event>
<event>
 5    1  0.1724243E-003  0.9118800E+02  0.7818608E-02  0.1130116E+00
         25   -1    0    0    0    0  0.00000000000E+00  0.00000000000E+00  0.99999998245E-14  0.12500000000E+03  0.12500000000E+03 0.  0.
        -13    1    3    3    0    0 -0.28588653726E+01  0.30217551746E+02 -0.47399717514E+02  0.56285148390E+02  0.10566000000E+00 0. -1.
         23    2    1    0    0    0  0.16516352945E+02  0.18938286172E+02 -0.14841451992E+02  0.95815804020E+02  0.91263086761E+02 0.  0.
         13    1    3    3    0    0  0.19375218318E+02 -0.11279265575E+02  0.32558265522E+02  0.39530655631E+02  0.10566000000E+00 0.  1.
         22    1    1    0    0    0 -0.16516352945E+02 -0.18938286172E+02  0.14841451992E+02  0.29184195980E+02  0.00000000000E+00 0. -1.
</event>
<event>
 5    1  0.1724243E-003  0.9118800E+02  0.7818608E-02  0.1130116E+00
         25   -1    0    0    0    0  0.00000000000E+00  0.00000000000E+00  0.99999998245E-14  0.12500000000E+03  0.12500000000E+03 0.  0.
        -13    1    3    3    0    0 -0.65416827560E+01 -0.43137865931E+02  0.25001062990E+02  0.50286513152E+02  0.10566000000E+00 0.  1.
         23    2    1    0    0    0 -0.26438551156E+02 -0.13391163300E+02 -0.22642236351E+01  0.95277164496E+02  0.90522323898E+02 0.  0.
         13    1    3    3    0    0 -0.19896868400E+02  0.29746702631E+02 -0.27265286625E+02  0.44990651344E+02  0.10566000000E+00 0. -1.
         22    1    1    0    0    0  0.26438551156E+02  0.13391163300E+02  0.22642236351E+01  0.29722835504E+02  0.00000000000E+00 0.  1.
</event>
<event>
 5    1  0.1724243E-003  0.9118800E+02  0.7818608E-02  0.1130116E+00
         25   -1    0    0    0    0  0.00000000000E+00  0.00000000000E+00  0.99999998245E-14  0.12500000000E+03  0.12500000000E+03 0.  0.
        -13    1    3    3    0    0  0.13578497153E+02  0.37442658013E+02  0.10156906058E+02  0.41103553723E+02  0.10566000000E+00 0.  1.
         23    2    1    0    0    0 -0.10790470674E+02 -0.50281433507E+01  0.29063866698E+02  0.93592599114E+02  0.88165468176E+02 0.  0.
         13    1    3    3    0    0 -0.24368967827E+02 -0.42470801363E+02  0.18906960641E+02  0.52489045391E+02  0.10566000000E+00 0. -1.
         22    1    1    0    0    0  0.10790470674E+02  0.50281433507E+01 -0.29063866698E+02  0.31407400886E+02  0.00000000000E+00 0. -1.
</event>
<event>
 5    1  0.1724243E-003  0.9118800E+02  0.7818608E-02  0.1130116E+00
         25   -1    0    0    0    0  0.00000000000E+00  0.00000000000E+00  0.99999998245E-14  0.12500000000E+03  0.12500000000E+03 0.  0.
        -13    1    3    3    0    0 -0.16163120571E+02  0.15904119011E+02  0.25155571423E+02  0.33867409198E+02  0.10566000000E+00 0. -1.
         23    2    1    0    0    0  0.66963637466E+01 -0.11474973255E+02 -0.25749748331E+02  0.96024737486E+02  0.91548808685E+02 0.  0.
         13    1    3    3    0    0  0.22859484317E+02 -0.27379092267E+02 -0.50905319754E+02  0.62157328288E+02  0.10566000000E+00 0.  1.
         22    1    1    0    0    0 -0.66963637466E+01  0.11474973255E+02  0.25749748331E+02  0.28975262514E+02  0.00000000000E+00 0.  1.
</event>
<event>
 5    1  0.1724243E-003  0.9118800E+02  0.7818608E-02  0.1130116E+00
         25   -1    0    0    0    0  0.00000000000E+00  0.00000000000E+00  0.99999998245E-14  0.12500000000E+03  0.12500000000E+03 0.  0.
        -13    1    3    3    0    0  0.20877587539E+02 -0.30356210861E+02  0.47260980635E+02  0.59924825022E+02  0.10566000000E+00 0.  1.
         23    2    1    0    0    0 -0.14743086322E+01 -0.20078759164E+02  0.21272518966E+02  0.95710919805E+02  0.91119317114E+02 0.  0.
         13    1    3    3    0    0 -0.22351896171E+02  0.10277451697E+02 -0.25988461669E+02  0.35786094783E+02  0.10566000000E+00 0. -1.
         22    1    1    0    0    0  0.14743086322E+01  0.20078759164E+02 -0.21272518966E+02  0.29289080195E+02  0.00000000000E+00 0.  1.
</event>
<event>
 5    1  0.1724243E-003  0.9118800E+02  0.7818608E-02  0.1130116E+00
         25   -1    0    0    0    0  0.00000000000E+00  0.00000000000E+00  0.99999998245E-14  0.12500000000E+03  0.12500000000E+03 0.  0.
        -13    1    3    3    0    0 -0.23901177398E+02  0.34227018961E+02  0.25913821300E+01  0.41826804006E+02  0.10566000000E+00 0. -1.
         23    2    1    0    0    0  0.24285025607E+02  0.78423062990E+01 -0.89372423537E+01  0.97960426451E+02  0.94154695118E+02 0.  0.
         13    1    3    3    0    0  0.48186203005E+02 -0.26384712662E+02 -0.11528624484E+02  0.56133622445E+02  0.10566000000E+00 0.  1.
         22    1    1    0    0    0 -0.24285025607E+02 -0.78423062990E+01  0.89372423537E+01  0.27039573549E+02  0.00000000000E+00 0.  1.
</event>
<event>
 5    1  0.1724243E-003  0.9118800E+02  0.7818608E-02  0.1130116E+00
         25   -1    0    0    0    0  0.00000000000E+00  0.00000000000E+00  0.99999998245E-14  0.12500000000E+03  0.12500000000E+03 0.  0.
        -13    1    3    3    0    0 -0.62656313169E+01 -0.26663993907E+00  0.44138288812E+02  0.44581710779E+02  0.10566000000E+00 0.  1.
         23    2    1    0    0    0 -0.33511114845E+02 -0.58602480635E+01  0.82357750406E+01  0.89997638422E+02  0.82912059470E+02 0.  0.
         13    1    3    3    0    0 -0.27245483528E+02 -0.55936081244E+01 -0.35902513772E+02  0.45415927643E+02  0.10566000000E+00 0. -1.
         22    1    1    0    0    0  0.33511114845E+02  0.58602480635E+01 -0.82357750406E+01  0.35002361578E+02  0.00000000000E+00 0.  1.
</event>
<event>
 5    1  0.1724243E-003  0.9118800E+02  0.7818608E-02  0.1130116E+00
         25   -1    0    0    0    0  0.00000000000E+00  0.00000000000E+00  0.99999998245E-14  0.12500000000E+03  0.12500000000E+03 0.  0.
        -13    1    3    3    0    0 -0.17216474073E+02  0.28350693316E+02 -0.17557593806E+02  0.37529309283E+02  0.10566000000E+00 0. -1.
         23    2    1    0    0    0  0.25369000747E+02 -0.11003032094E+02 -0.42323691505E+01  0.97025621315E+02  0.92905356836E+02 0.  0.
         13    1    3    3    0    0  0.42585474821E+02 -0.39353725409E+02  0.13325224655E+02  0.59496312032E+02  0.10566000000E+00 0.  1.
         22    1    1    0    0    0 -0.25369000747E+02  0.11003032094E+02  0.42323691505E+01  0.27974378685E+02  0.00000000000E+00 0.  1.
</event>
<event>
 5    1  0.1724243E-003  0.9118800E+02  0.7818608E-02  0.1130116E+00
         25   -1    0    0    0    0  0.00000000000E+00  0.00000000000E+00  0.99999998245E-14  0.12500000000E+03  0.12500000000E+03 0.  0.
        -13    1    3    3    0    0 -0.76473694546E+01 -0.46295391155E+02 -0.18225241300E+02  0.50338018299E+02  0.10566000000E+00 0. -1.
         23    2    1    0    0    0 -0.15114690377E+02 -0.95805023186E+00 -0.23972312637E+02  0.96644339214E+02  0.92390934639E+02 0.  0.
         13    1    3    3    0    0 -0.74673209225E+01  0.45337340923E+02 -0.57470713367E+01  0.46306320915E+02  0.10566000000E+00 0.  1.
         22    1    1    0    0    0  0.15114690377E+02  0.95805023186E+00  0.23972312637E+02  0.28355660786E+02  0.00000000000E+00 0. -1.
</event>
<event>
 5    1  0.1724243E-003  0.9118800E+02  0.7818608E-02  0.1130116E+00
         25   -1    0    0    0    0  0.00000000000E+00  0.00000000000E+00  0.99999998245E-14  0.12500000000E+03  0.12500000000E+03 0.  0.
        -13    1    3    3    0    0  0.29261111964E+02 -0.38352929277E+02  0.44784776850E+01  0.48448196911E+02  0.10566000000E+00 0.  1.
         23    2    1    0    0    0  0.18409497936E+02  0.19415437108E+01 -0.20734938697E+02  0.97204013077E+02  0.93145065727E+02 0.  0.
         13    1    3    3    0    0 -0.10851614029E+02  0.40294472988E+02 -0.25213416382E+02  0.48755816167E+02  0.10566000000E+00 0. -1.
         22    1    1    0    0    0 -0.18409497936E+02 -0.19415437108E+01  0.20734938697E+02  0.27795986923E+02  0.00000000000E+00 0. -1.
</event>
<event>
 5    1  0.1724243E-003  0.9118800E+02  0.7818608E-02  0.1130116E+00
         25   -1    0    0    0    0  0.00000000000E+00  0.00000000000E+00  0.99999998245E-14  0.12500000000E+03  0.12500000000E+03 0.  0.
        -13    1    3    3    0    0  0.14101135552E+01  0.33618695800E+02  0.17998368188E+02  0.38159632453E+02  0.10566000000E+00 0. -1.
         23    2    1    0    0    0 -0.28949998731E+02 -0.45904251123E+01 -0.95139676797E+01  0.94182959093E+02  0.88998538040E+02 0.  0.
         13    1    3    3    0    0 -0.30360112286E+02 -0.38209120912E+02 -0.27512335867E+02  0.56023326640E+02  0.10566000000E+00 0.  1.
         22    1    1    0    0    0  0.28949998731E+02  0.45904251123E+01  0.95139676797E+01  0.30817040907E+02  0.00000000000E+00 0.  1.
</event>
<event>
 5    1  0.1724243E-003  0.9118800E+02  0.7818608E-02  0.1130116E+00
         25   -1    0    0    0    0  0.00000000000E+00  0.00000000000E+00  0.99999998245E-14  0.12500000000E+03  0.12500000000E+03 0.  0.
        -13    1    3    3    0    0  0.31431869816E+02  0.35949611830E+02 -0.24128832140E+02  0.53502791846E+02  0.10566000000E+00 0.  1.
         23    2    1    0    0    0 -0.13012228471E+01  0.27744678287E+02  0.33527682781E+01  0.97023198730E+02  0.92902097299E+02 0.  0.
         13    1    3    3    0    0 -0.32733092663E+02 -0.82049335430E+01  0.27481600418E+02  0.43520406884E+02  0.10566000000E+00 0. -1.
         22    1    1    0    0    0  0.13012228471E+01 -0.27744678287E+02 -0.33527682781E+01  0.27976801270E+02  0.00000000000E+00 0. -1.
</event>
<event>
 5    1  0.1724243E-003  0.9118800E+02  0.7818608E-02  0.1130116E+00
         25   -1    0    0    0    0  0.00000000000E+00  0.00000000000E+00  0.99999998245E-14  0.12500000000E+03  0.12500000000E+03 0.  0.
        -13    1    3    3    0    0  0.43330563161E+02  0.36158918359E+02 -0.14743120388E+02  0.58329888081E+02  0.10566000000E+00 0.  1.
         23    2    1    0    0    0  0.16793946235E+02  0.21161810281E+02  0.85180452333E+01  0.96673052775E+02  0.92429774390E+02 0.  0.
         13    1    3    3    0    0 -0.26536616926E+02 -0.14997108078E+02  0.23261165622E+02  0.38343164694E+02  0.10566000000E+00 0. -1.
         22    1    1    0    0    0 -0.16793946235E+02 -0.21161810281E+02 -0.85180452333E+01  0.28326947225E+02  0.00000000000E+00 0.  1.
</event>
<event>
 5    1  0.1724243E-003  0.9118800E+02  0.7818608E-02  0.1130116E+00
         25   -1    0    0    0    0  0.00000000000E+00  0.00000000000E+00  0.99999998245E-14  0.12500000000E+03  0.12500000000E+03 0.  0.
        -13    1    3    3    0    0 -0.31620865792E+02 -0.36143408646E+02 -0.30212088686E+02  0.56736290051E+02  0.10566000000E+00 0. -1.
         23    2    1    0    0    0  0.24393071994E+01 -0.18846562720E+02 -0.22216089756E+02  0.95764785104E+02  0.91193181083E+02 0.  0.
         13    1    3    3    0    0  0.34060172991E+02  0.17296845926E+02  0.79959989306E+01  0.39028495053E+02  0.10566000000E+00 0.  1.
         22    1    1    0    0    0 -0.24393071994E+01  0.18846562720E+02  0.22216089756E+02  0.29235214896E+02  0.00000000000E+00 0. -1.
</event>
<event>
 5    1  0.1724243E-003  0.9118800E+02  0.7818608E-02  0.1130116E+00
         25   -1    0    0    0    0  0.00000000000E+00  0.00000000000E+00  0.99999998245E-14  0.12500000000E+03  0.12500000000E+03 0.  0.
        -13    1    3    3    0    0 -0.27274000236E+02 -0.27900314550E+02  0.13088434772E+02  0.41153577362E+02  0.10566000000E+00 0. -1.
         23    2    1    0    0    0 -0.14725864581E+02  0.24689690487E+02  0.49570814240E+01  0.95828017547E+02  0.91279813687E+02 0.  0.
         13    1    3    3    0    0  0.12548135655E+02  0.52590005037E+02 -0.81313533483E+01  0.54674440185E+02  0.10566000000E+00 0.  1.
         22    1    1    0    0    0  0.14725864581E+02 -0.24689690487E+02 -0.49570814240E+01  0.29171982453E+02  0.00000000000E+00 0. -1.
</event>
<event>
 5    1  0.1724243E-003  0.9118800E+02  0.7818608E-02  0.1130116E+00
         25   -1    0    0    0    0  0.00000000000E+00  0.00000000000E+00  0.99999998245E-14  0.12500000000E+03  0.12500000000E+03 0.  0.
        -13    1    3    3    0    0 -0.28569909914E+02  0.33858419463E+02 -0.40755275362E+02  0.60196644050E+02  0.10566000000E+00 0.  1.
         23    2    1    0    0    0 -0.19869284908E+02  0.58969679921E+01 -0.20822333716E+02  0.95620886746E+02  0.90995723451E+02 0.  0.
         13    1    3    3    0    0  0.87006250061E+01 -0.27961451470E+02  0.19932941647E+02  0.35424242696E+02  0.10566000000E+00 0. -1.
         22    1    1    0    0    0  0.19869284908E+02 -0.58969679921E+01  0.20822333716E+02  0.29379113254E+02  0.00000000000E+00 0.  1.
</event>
<event>
 5    1  0.1724243E-003  0.9118800E+02  0.7818608E-02  0.1130116E+00
         25   -1    0    0    0    0  0.00000000000E+00  0.00000000000E+00  0.99999998245E-14  0.12500000000E+03  0.12500000000E+03 0.  0.
        -13    1    3    3    0    0 -0.18523905030E+02 -0.26028511447E+02 -0.83097105522E+01  0.33010315346E+02  0.10566000000E+00 0.  1.
         23    2    1    0    0    0  0.20401232973E+02  0.61538077404E+01  0.23951952211E+02  0.92941059418E+02  0.87236831984E+02 0.  0.
         13    1    3    3    0    0  0.38925138003E+02  0.32182319188E+02  0.32261662763E+02  0.59930744073E+02  0.10566000000E+00 0. -1.
         22    1    1    0    0    0 -0.20401232973E+02 -0.61538077404E+01 -0.23951952211E+02  0.32058940582E+02  0.00000000000E+00 0. -1.
</event>
<event>
 5    1  0.1724243E-003  0.9118800E+02  0.7818608E-02  0.1130116E+00
         25   -1    0    0    0    0  0.00000000000E+00  0.00000000000E+00  0.99999998245E-14  0.12500000000E+03  0.12500000000E+03 0.  0.
        -13    1    3    3    0    0  0.40774045169E+02 -0.29657522778E+02  0.13478965679E+02  0.52189894583E+02  0.10566000000E+00 0.  1.
         23    2    1    0    0    0 -0.34443070455E+01 -0.19705367560E+02  0.18450449757E+02  0.97786329576E+02  0.93923279298E+02 0.  0.
         13    1    3    3    0    0 -0.44218352215E+02  0.99521552176E+01  0.49714840778E+01  0.45596434993E+02  0.10566000000E+00 0. -1.
         22    1    1    0    0    0  0.34443070455E+01  0.19705367560E+02 -0.18450449757E+02  0.27213670424E+02  0.00000000000E+00 0.  1.
</event>
<event>
 5    1  0.1724243E-003  0.9118800E+02  0.7818608E-02  0.1130116E+00
         25   -1    0    0    0    0  0.00000000000E+00  0.00000000000E+00  0.99999998245E-14  0.12500000000E+03  0.12500000000E+03 0.  0.
        -13    1    3    3    0    0  0.45251416016E+00 -0.40665480025E+01 -0.52310169051E+02  0.52470053668E+02  0.10566000000E+00 0. -1.
         23    2    1    0    0    0 -0.69237292885E+01  0.17896877272E+02 -0.49677127608E+01  0.10517793115E+03  0.10329318849E+03 0.  0.
         13    1    3    3    0    0 -0.73762434487E+01  0.21963425275E+02  0.47342456290E+02  0.52707877484E+02  0.10566000000E+00 0.  1.
         22    1    1    0    0    0  0.69237292885E+01 -0.17896877272E+02  0.49677127608E+01  0.19822068848E+02  0.00000000000E+00 0.  1.
</event>
<event>
 5    1  0.1724243E-003  0.9118800E+02  0.7818608E-02  0.1130116E+00
         25   -1    0    0    0    0  0.00000000000E+00  0.00000000000E+00  0.99999998245E-14  0.12500000000E+03  0.12500000000E+03 0.  0.
        -13    1    3    3    0    0  0.38327420685E+02  0.44885827982E+02 -0.10932308449E+02  0.60027121054E+02  0.10566000000E+00 0. -1.
         23    2    1    0    0    0  0.25107824540E+02  0.14301385140E+02  0.25966858354E+01  0.95988360140E+02  0.91499125870E+02 0.  0.
         13    1    3    3    0    0 -0.13219596145E+02 -0.30584442842E+02  0.13528994284E+02  0.35961239086E+02  0.10566000000E+00 0.  1.
         22    1    1    0    0    0 -0.25107824540E+02 -0.14301385140E+02 -0.25966858354E+01  0.29011639860E+02  0.00000000000E+00 0. -1.
</event>
<event>
 5    1  0.1724243E-003  0.9118800E+02  0.7818608E-02  0.1130116E+00
         25   -1    0    0    0    0  0.00000000000E+00  0.00000000000E+00  0.99999998245E-14  0.12500000000E+03  0.12500000000E+03 0.  0.
        -13    1    3    3    0    0  0.11854464778E+02 -0.34004659450E+02  0.16576195901E+02  0.39643746469E+02  0.10566000000E+00 0.  1.
         23    2    1    0    0    0  0.28373251364E+01  0.20871956791E+02  0.20775080640E+02  0.95414649406E+02  0.90711974686E+02 0.  0.
         13    1    3    3    0    0 -0.90171396418E+01  0.54876616241E+02  0.41988847385E+01  0.55770902937E+02  0.10566000000E+00 0. -1.
         22    1    1    0    0    0 -0.28373251364E+01 -0.20871956791E+02 -0.20775080640E+02  0.29585350594E+02  0.00000000000E+00 0. -1.
</event>
<event>
 5    1  0.1724243E-003  0.9118800E+02  0.7818608E-02  0.1130116E+00
         25   -1    0    0    0    0  0.00000000000E+00  0.00000000000E+00  0.99999998245E-14  0.12500000000E+03  0.12500000000E+03 0.  0.
        -13    1    3    3    0    0 -0.55458029576E+02  0.89448089522E+01  0.80493070968E+01  0.56748613731E+02  0.10566000000E+00 0.  1.
         23    2    1    0    0    0 -0.10780910481E+02  0.19006206768E+02  0.45663131018E+01  0.10267702659E+03  0.10022103895E+03 0.  0.
         13    1    3    3    0    0  0.44677119095E+02  0.10061397815E+02 -0.34829939950E+01  0.45928412859E+02  0.10566000000E+00 0. -1.
         22    1    1    0    0    0  0.10780910481E+02 -0.19006206768E+02 -0.45663131018E+01  0.22322973409E+02  0.00000000000E+00 0.  1.
</event>
<event>
 5    1  0.1724243E-003  0.9118800E+02  0.7818608E-02  0.1130116E+00
         25   -1    0    0    0    0  0.00000000000E+00  0.00000000000E+00  0.99999998245E-14  0.12500000000E+03  0.12500000000E+03 0.  0.
        -13    1    3    3    0    0 -0.41370938931E+01 -0.35049188182E+02 -0.34413823646E+01  0.35460053789E+02  0.10566000000E+00 0. -1.
         23    2    1    0    0    0  0.12131242736E+02  0.20327489918E+02 -0.18323356927E+02  0.95064748109E+02  0.90228526683E+02 0.  0.
         13    1    3    3    0    0  0.16268336629E+02  0.55376678100E+02 -0.14881974562E+02  0.59604694320E+02  0.10566000000E+00 0.  1.
         22    1    1    0    0    0 -0.12131242736E+02 -0.20327489918E+02  0.18323356927E+02  0.29935251891E+02  0.00000000000E+00 0.  1.
</event>
<event>
 5    1  0.1724243E-003  0.9118800E+02  0.7818608E-02  0.1130116E+00
         25   -1    0    0    0    0  0.00000000000E+00  0.00000000000E+00  0.99999998245E-14  0.12500000000E+03  0.12500000000E+03 0.  0.
        -13    1    3    3    0    0  0.27613541324E+02  0.33449709926E+01  0.28494200699E+02  0.39819933863E+02  0.10566000000E+00 0. -1.
         23    2    1    0    0    0 -0.10060276648E+02 -0.28019721276E+02  0.29887236621E+01  0.95079331295E+02  0.90248727547E+02 0.  0.
         13    1    3    3    0    0 -0.37673817972E+02 -0.31364692269E+02 -0.25505477036E+02  0.55259397432E+02  0.10566000000E+00 0.  1.
         22    1    1    0    0    0  0.10060276648E+02  0.28019721276E+02 -0.29887236621E+01  0.29920668705E+02  0.00000000000E+00 0.  1.
</event>
<event>
 5    1  0.1724243E-003  0.9118800E+02  0.7818608E-02  0.1130116E+00
         25   -1    0    0    0    0  0.00000000000E+00  0.00000000000E+00  0.99999998245E-14  0.12500000000E+03  0.12500000000E+03 0.  0.
        -13    1    3    3    0    0  0.42203560301E+02  0.18898380097E+00  0.34649428890E+02  0.54605588573E+02  0.10566000000E+00 0. -1.
         23    2    1    0    0    0  0.23397781944E+02  0.21995278593E+02  0.14412353864E+02  0.89801073536E+02  0.82615182528E+02 0.  0.
         13    1    3    3    0    0 -0.18805778357E+02  0.21806294792E+02 -0.20237075026E+02  0.35195484964E+02  0.10566000000E+00 0.  1.
         22    1    1    0    0    0 -0.23397781944E+02 -0.21995278593E+02 -0.14412353864E+02  0.35198926464E+02  0.00000000000E+00 0. -1.
</event>
<event>
 5    1  0.1724243E-003  0.9118800E+02  0.7818608E-02  0.1130116E+00
         25   -1    0    0    0    0  0.00000000000E+00  0.00000000000E+00  0.99999998245E-14  0.12500000000E+03  0.12500000000E+03 0.  0.
        -13    1    3    3    0    0 -0.29914712161E+02 -0.30396385518E+01 -0.20314485118E+02  0.36287999061E+02  0.10566000000E+00 0. -1.
         23    2    1    0    0    0  0.18470407712E+01  0.87586947046E+01  0.28172050773E+02  0.95440048422E+02  0.90746967473E+02 0.  0.
         13    1    3    3    0    0  0.31761752932E+02  0.11798333256E+02  0.48486535891E+02  0.59152049361E+02  0.10566000000E+00 0.  1.
         22    1    1    0    0    0 -0.18470407712E+01 -0.87586947046E+01 -0.28172050773E+02  0.29559951578E+02  0.00000000000E+00 0.  1.
</event>
<event>
 5    1  0.1724243E-003  0.9118800E+02  0.7818608E-02  0.1130116E+00
         25   -1    0    0    0    0  0.00000000000E+00  0.00000000000E+00  0.99999998245E-14  0.12500000000E+03  0.12500000000E+03 0.  0.
        -13    1    3    3    0    0  0.21427081560E+02  0.38952138222E+02  0.22303481159E+01  0.44512633185E+02  0.10566000000E+00 0.  1.
         23    2    1    0    0    0  0.23284420664E+01  0.15569725796E+00  0.29351004733E+02  0.95556369739E+02  0.90907053823E+02 0.  0.
         13    1    3    3    0    0 -0.19098639494E+02 -0.38796440964E+02  0.27120656618E+02  0.51043736554E+02  0.10566000000E+00 0. -1.
         22    1    1    0    0    0 -0.23284420664E+01 -0.15569725796E+00 -0.29351004733E+02  0.29443630261E+02  0.00000000000E+00 0. -1.
</event>
<event>
 5    1  0.1724243E-003  0.9118800E+02  0.7818608E-02  0.1130116E+00
         25   -1    0    0    0    0  0.00000000000E+00  0.00000000000E+00  0.99999998245E-14  0.12500000000E+03  0.12500000000E+03 0.  0.
        -13    1    3    3    0    0  0.48582249554E+02 -0.13425933411E+02 -0.24202937385E+02  0.55913182719E+02  0.10566000000E+00 0. -1.
         23    2    1    0    0    0  0.15359845632E+02  0.79491736101E+01 -0.23998883459E+02  0.95418576332E+02  0.90717385782E+02 0.  0.
         13    1    3    3    0    0 -0.33222403922E+02  0.21375107021E+02  0.20405392555E+00  0.39505393613E+02  0.10566000000E+00 0.  1.
         22    1    1    0    0    0 -0.15359845632E+02 -0.79491736101E+01  0.23998883459E+02  0.29581423668E+02  0.00000000000E+00 0. -1.
</event>
<event>
 5    1  0.1724243E-003  0.9118800E+02  0.7818608E-02  0.1130116E+00
         25   -1    0    0    0    0  0.00000000000E+00  0.00000000000E+00  0.99999998245E-14  0.12500000000E+03  0.12500000000E+03 0.  0.
        -13    1    3    3    0    0 -0.35293266688E+02  0.26368937400E+02 -0.11796659927E+02  0.45608199730E+02  0.10566000000E+00 0.  1.
         23    2    1    0    0    0 -0.81359454274E+01 -0.13510073251E+02 -0.24829473429E+02  0.95585404337E+02  0.90946968527E+02 0.  0.
         13    1    3    3    0    0  0.27157321260E+02 -0.39879010651E+02 -0.13032813501E+02  0.49977204607E+02  0.10566000000E+00 0. -1.
         22    1    1    0    0    0  0.81359454274E+01  0.13510073251E+02  0.24829473429E+02  0.29414595663E+02  0.00000000000E+00 0. -1.
</event>
<event>
 5    1  0.1724243E-003  0.9118800E+02  0.7818608E-02  0.1130116E+00
         25   -1    0    0    0    0  0.00000000000E+00  0.00000000000E+00  0.99999998245E-14  0.12500000000E+03  0.12500000000E+03 0.  0.
        -13    1    3    3    0    0 -0.47666540484E+02  0.11266804054E+02 -0.13742124776E+02  0.50871378128E+02  0.10566000000E+00 0. -1.
         23    2    1    0    0    0 -0.11041901829E+02 -0.18623503081E+02 -0.15811312773E+02  0.98190373471E+02  0.94459480031E+02 0.  0.
         13    1    3    3    0    0  0.36624638655E+02 -0.29890307135E+02 -0.20691879973E+01  0.47318995343E+02  0.10566000000E+00 0.  1.
         22    1    1    0    0    0  0.11041901829E+02  0.18623503081E+02  0.15811312773E+02  0.26809626529E+02  0.00000000000E+00 0.  1.
</event>
<event>
 5    1  0.1724243E-003  0.9118800E+02  0.7818608E-02  0.1130116E+00
         25   -1    0    0    0    0  0.00000000000E+00  0.00000000000E+00  0.99999998245E-14  0.12500000000E+03  0.12500000000E+03 0.  0.
        -13    1    3    3    0    0 -0.96581433554E+01 -0.13549989576E+02 -0.43275876256E+02  0.46364798936E+02  0.10566000000E+00 0. -1.
         23    2    1    0    0    0  0.16747235174E+02  0.17947951426E+02 -0.15669723315E+02  0.95877172611E+02  0.91347102596E+02 0.  0.
         13    1    3    3    0    0  0.26405378530E+02  0.31497941003E+02  0.27606152941E+02  0.49512373675E+02  0.10566000000E+00 0.  1.
         22    1    1    0    0    0 -0.16747235174E+02 -0.17947951426E+02  0.15669723315E+02  0.29122827389E+02  0.00000000000E+00 0. -1.
</event>
<event>
 5    1  0.1724243E-003  0.9118800E+02  0.7818608E-02  0.1130116E+00
         25   -1    0    0    0    0  0.00000000000E+00  0.00000000000E+00  0.99999998245E-14  0.12500000000E+03  0.12500000000E+03 0.  0.
        -13    1    3    3    0    0  0.13696959063E+02 -0.16932254227E+00 -0.47763174304E+02  0.49688704364E+02  0.10566000000E+00 0.  1.
         23    2    1    0    0    0  0.77647915457E+01 -0.26343609990E+02 -0.10530097256E+02  0.95586385409E+02  0.90948316930E+02 0.  0.
         13    1    3    3    0    0 -0.59321675171E+01 -0.26174287448E+02  0.37233077048E+02  0.45897681046E+02  0.10566000000E+00 0. -1.
         22    1    1    0    0    0 -0.77647915457E+01  0.26343609990E+02  0.10530097256E+02  0.29413614591E+02  0.00000000000E+00 0.  1.
</event>
<event>
 5    1  0.1724243E-003  0.9118800E+02  0.7818608E-02  0.1130116E+00
         25   -1    0    0    0    0  0.00000000000E+00  0.00000000000E+00  0.99999998245E-14  0.12500000000E+03  0.12500000000E+03 0.  0.
        -13    1    3    3    0    0 -0.22805369714E+02  0.19952856909E+02  0.25967994714E+02  0.39906757574E+02  0.10566000000E+00 0.  1.
         23    2    1    0    0    0  0.23047104238E+02  0.24344524682E+02  0.30995913394E+01  0.91333512773E+02  0.84902168366E+02 0.  0.
         13    1    3    3    0    0  0.45852473952E+02  0.43916677732E+01 -0.22868403374E+02  0.51426755198E+02  0.10566000000E+00 0. -1.
         22    1    1    0    0    0 -0.23047104238E+02 -0.24344524682E+02 -0.30995913394E+01  0.33666487227E+02  0.00000000000E+00 0. -1.
</event>
<event>
 5    1  0.1724243E-003  0.9118800E+02  0.7818608E-02  0.1130116E+00
         25   -1    0    0    0    0  0.00000000000E+00  0.00000000000E+00  0.99999998245E-14  0.12500000000E+03  0.12500000000E+03 0.  0.
        -13    1    3    3    0    0  0.31648221510E+02  0.38536063641E+02 -0.35389998479E+02  0.61148191160E+02  0.10566000000E+00 0. -1.
         23    2    1    0    0    0  0.20793235299E+02  0.17833957148E+02 -0.95573202225E+01  0.95987054069E+02  0.91497341586E+02 0.  0.
         13    1    3    3    0    0 -0.10854986212E+02 -0.20702106493E+02  0.25832678256E+02  0.34838862909E+02  0.10566000000E+00 0.  1.
         22    1    1    0    0    0 -0.20793235299E+02 -0.17833957148E+02  0.95573202225E+01  0.29012945931E+02  0.00000000000E+00 0. -1.
</event>
<event>
 5    1  0.1724243E-003  0.9118800E+02  0.7818608E-02  0.1130116E+00
         25   -1    0    0    0    0  0.00000000000E+00  0.00000000000E+00  0.99999998245E-14  0.12500000000E+03  0.12500000000E+03 0.  0.
        -13    1    3    3    0    0 -0.54806067588E+02  0.14943198207E+02  0.15815297379E+02  0.58967270687E+02  0.10566000000E+00 0.  1.
         23    2    1    0    0    0 -0.22019048230E+02 -0.34273175450E+01  0.17616845354E+02  0.96593341788E+02  0.92321912063E+02 0.  0.
         13    1    3    3    0    0  0.32787019357E+02 -0.18370515752E+02  0.18015479750E+01  0.37626071101E+02  0.10566000000E+00 0. -1.
         22    1    1    0    0    0  0.22019048230E+02  0.34273175450E+01 -0.17616845354E+02  0.28406658212E+02  0.00000000000E+00 0.  1.
</event>
<event>
 5    1  0.1724243E-003  0.9118800E+02  0.7818608E-02  0.1130116E+00
         25   -1    0    0    0    0  0.00000000000E+00  0.00000000000E+00  0.99999998245E-14  0.12500000000E+03  0.12500000000E+03 0.  0.
        -13    1    3    3    0    0  0.12204026040E+02 -0.97643330517E+01  0.42749421442E+02  0.45517080851E+02  0.10566000000E+00 0.  1.
         23    2    1    0    0    0  0.16702033098E+02  0.22023379431E+02  0.21501306138E+01  0.97276179685E+02  0.93241862494E+02 0.  0.
         13    1    3    3    0    0  0.44980070580E+01  0.31787712483E+02 -0.40599290828E+02  0.51759098835E+02  0.10566000000E+00 0. -1.
         22    1    1    0    0    0 -0.16702033098E+02 -0.22023379431E+02 -0.21501306138E+01  0.27723820315E+02  0.00000000000E+00 0. -1.
</event>
<event>
 5    1  0.1724243E-003  0.9118800E+02  0.7818608E-02  0.1130116E+00
         25   -1    0    0    0    0  0.00000000000E+00  0.00000000000E+00  0.99999998245E-14  0.12500000000E+03  0.12500000000E+03 0.  0.
        -13    1    3    3    0    0  0.38111310509E+02 -0.21768327911E+02 -0.43490982528E+02  0.61788419740E+02  0.10566000000E+00 0.  1.
         23    2    1    0    0    0  0.20865797974E+02 -0.43118081078E+01 -0.21287867426E+02  0.94881126950E+02  0.89973783612E+02 0.  0.
         13    1    3    3    0    0 -0.17245512535E+02  0.17456519803E+02  0.22203115102E+02  0.33092707210E+02  0.10566000000E+00 0. -1.
         22    1    1    0    0    0 -0.20865797974E+02  0.43118081078E+01  0.21287867426E+02  0.30118873050E+02  0.00000000000E+00 0.  1.
</event>
<event>
 5    1  0.1724243E-003  0.9118800E+02  0.7818608E-02  0.1130116E+00
         25   -1    0    0    0    0  0.00000000000E+00  0.00000000000E+00  0.99999998245E-14  0.12500000000E+03  0.12500000000E+03 0.  0.
        -13    1    3    3    0    0  0.33406161936E+02 -0.21548192543E+02 -0.18216946123E+02  0.43728303731E+02  0.10566000000E+00 0.  1.
         23    2    1    0    0    0  0.19159658437E+02  0.23898025125E+02 -0.10595926670E+01  0.94351495095E+02  0.89234935837E+02 0.  0.
         13    1    3    3    0    0 -0.14246503499E+02  0.45446217667E+02  0.17157353456E+02  0.50623191364E+02  0.10566000000E+00 0. -1.
         22    1    1    0    0    0 -0.19159658437E+02 -0.23898025125E+02  0.10595926670E+01  0.30648504905E+02  0.00000000000E+00 0. -1.
</event>
<event>
 5    1  0.1724243E-003  0.9118800E+02  0.7818608E-02  0.1130116E+00
         25   -1    0    0    0    0  0.00000000000E+00  0.00000000000E+00  0.99999998245E-14  0.12500000000E+03  0.12500000000E+03 0.  0.
        -13    1    3    3    0    0  0.59370605619E+02  0.61663046505E+01 -0.35412775467E+01  0.59795015974E+02  0.10566000000E+00 0.  1.
         23    2    1    0    0    0  0.21655809865E+02 -0.92646765886E+01 -0.62374775755E+01  0.10063374342E+03  0.97639315109E+02 0.  0.
         13    1    3    3    0    0 -0.37714795754E+02 -0.15430981239E+02 -0.26962000288E+01  0.40838727446E+02  0.10566000000E+00 0. -1.
         22    1    1    0    0    0 -0.21655809865E+02  0.92646765886E+01  0.62374775755E+01  0.24366256580E+02  0.00000000000E+00 0.  1.
</event>
<event>
 5    1  0.1724243E-003  0.9118800E+02  0.7818608E-02  0.1130116E+00
         25   -1    0    0    0    0  0.00000000000E+00  0.00000000000E+00  0.99999998245E-14  0.12500000000E+03  0.12500000000E+03 0.  0.
        -13    1    3    3    0    0  0.22846167648E+02 -0.19977466614E+01  0.37580597585E+02  0.44025570374E+02  0.10566000000E+00 0.  1.
         23    2    1    0    0    0  0.43604733352E+02 -0.12878115277E+02  0.13633832658E+02  0.77533169300E+02  0.61304912731E+02 0.  0.
         13    1    3    3    0    0  0.20758565704E+02 -0.10880368616E+02 -0.23946764926E+02  0.33507598925E+02  0.10566000000E+00 0. -1.
         22    1    1    0    0    0 -0.43604733352E+02  0.12878115277E+02 -0.13633832658E+02  0.47466830700E+02  0.00000000000E+00 0.  1.
</event>
<event>
 5    1  0.1724243E-003  0.9118800E+02  0.7818608E-02  0.1130116E+00
         25   -1    0    0    0    0  0.00000000000E+00  0.00000000000E+00  0.99999998245E-14  0.12500000000E+03  0.12500000000E+03 0.  0.
        -13    1    3    3    0    0 -0.31935246402E+02  0.41416601843E+02  0.15266301536E+02  0.54481795102E+02  0.10566000000E+00 0.  1.
         23    2    1    0    0    0 -0.18913494413E+02  0.15798258264E+02 -0.14945439371E+02  0.96178629577E+02  0.91758691110E+02 0.  0.
         13    1    3    3    0    0  0.13021751989E+02 -0.25618343579E+02 -0.30211740906E+02  0.41696834475E+02  0.10566000000E+00 0. -1.
         22    1    1    0    0    0  0.18913494413E+02 -0.15798258264E+02  0.14945439371E+02  0.28821370423E+02  0.00000000000E+00 0.  1.
</event>
<event>
 5    1  0.1724243E-003  0.9118800E+02  0.7818608E-02  0.1130116E+00
         25   -1    0    0    0    0  0.00000000000E+00  0.00000000000E+00  0.99999998245E-14  0.12500000000E+03  0.12500000000E+03 0.  0.
        -13    1    3    3    0    0 -0.59210548681E+02  0.57077120713E+01  0.15021491453E+02  0.61352452450E+02  0.10566000000E+00 0. -1.
         23    2    1    0    0    0 -0.30737535578E+02 -0.29757577569E+01  0.14048720268E+01  0.94086816840E+02  0.88863401972E+02 0.  0.
         13    1    3    3    0    0  0.28473013103E+02 -0.86834698281E+01 -0.13616619426E+02  0.32734364390E+02  0.10566000000E+00 0.  1.
         22    1    1    0    0    0  0.30737535578E+02  0.29757577569E+01 -0.14048720268E+01  0.30913183160E+02  0.00000000000E+00 0. -1.
</event>
<event>
 5    1  0.1724243E-003  0.9118800E+02  0.7818608E-02  0.1130116E+00
         25   -1    0    0    0    0  0.00000000000E+00  0.00000000000E+00  0.99999998245E-14  0.12500000000E+03  0.12500000000E+03 0.  0.
        -13    1    3    3    0    0 -0.28743423359E+02  0.12530214983E+02  0.40897446364E+02  0.51534483184E+02  0.10566000000E+00 0. -1.
         23    2    1    0    0    0 -0.27848774113E+02  0.11588837438E+02 -0.22972609535E+01  0.94748838359E+02  0.89789807828E+02 0.  0.
         13    1    3    3    0    0  0.89464924629E+00 -0.94137754500E+00 -0.43194707317E+02  0.43214355175E+02  0.10566000000E+00 0.  1.
         22    1    1    0    0    0  0.27848774113E+02 -0.11588837438E+02  0.22972609535E+01  0.30251161641E+02  0.00000000000E+00 0. -1.
</event>
<event>
 5    1  0.1724243E-003  0.9118800E+02  0.7818608E-02  0.1130116E+00
         25   -1    0    0    0    0  0.00000000000E+00  0.00000000000E+00  0.99999998245E-14  0.12500000000E+03  0.12500000000E+03 0.  0.
        -13    1    3    3    0    0 -0.21698132924E+02  0.14839207392E+02 -0.55166410544E+02  0.61109369697E+02  0.10566000000E+00 0.  1.
         23    2    1    0    0    0 -0.16729560798E+02  0.10332483981E+01 -0.36358589713E+02  0.84963855672E+02  0.74939735240E+02 0.  0.
         13    1    3    3    0    0  0.49685721263E+01 -0.13805958993E+02  0.18807820830E+02  0.23854485975E+02  0.10566000000E+00 0. -1.
         22    1    1    0    0    0  0.16729560798E+02 -0.10332483981E+01  0.36358589713E+02  0.40036144328E+02  0.00000000000E+00 0.  1.
</event>
<event>
 5    1  0.1724243E-003  0.9118800E+02  0.7818608E-02  0.1130116E+00
         25   -1    0    0    0    0  0.00000000000E+00  0.00000000000E+00  0.99999998245E-14  0.12500000000E+03  0.12500000000E+03 0.  0.
        -13    1    3    3    0    0 -0.76460638589E+00 -0.39566596928E+02  0.25856328817E+02  0.47272202395E+02  0.10566000000E+00 0.  1.
         23    2    1    0    0    0 -0.27633410670E+02 -0.11900846479E+02 -0.19999689450E+01  0.94846469395E+02  0.89925621203E+02 0.  0.
         13    1    3    3    0    0 -0.26868804284E+02  0.27665750449E+02 -0.27856297762E+02  0.47574267000E+02  0.10566000000E+00 0. -1.
         22    1    1    0    0    0  0.27633410670E+02  0.11900846479E+02  0.19999689450E+01  0.30153530605E+02  0.00000000000E+00 0. -1.
</event>
<event>
 5    1  0.1724243E-003  0.9118800E+02  0.7818608E-02  0.1130116E+00
         25   -1    0    0    0    0  0.00000000000E+00  0.00000000000E+00  0.99999998245E-14  0.12500000000E+03  0.12500000000E+03 0.  0.
        -13    1    3    3    0    0  0.12148846237E+02 -0.31481445960E+02  0.48464543044E+02  0.59055050598E+02  0.10566000000E+00 0. -1.
         23    2    1    0    0    0 -0.81166519616E+01 -0.11765873467E+02  0.26622436292E+02  0.94782952964E+02  0.89837287586E+02 0.  0.
         13    1    3    3    0    0 -0.20265498199E+02  0.19715572494E+02 -0.21842106752E+02  0.35727902365E+02  0.10566000000E+00 0.  1.
         22    1    1    0    0    0  0.81166519616E+01  0.11765873467E+02 -0.26622436292E+02  0.30217047036E+02  0.00000000000E+00 0. -1.
</event>
<event>
 5    1  0.1724243E-003  0.9118800E+02  0.7818608E-02  0.1130116E+00
         25   -1    0    0    0    0  0.00000000000E+00  0.00000000000E+00  0.99999998245E-14  0.12500000000E+03  0.12500000000E+03 0.  0.
        -13    1    3    3    0    0  0.61176687492E+01  0.38235009600E+02 -0.27899597295E+02  0.47725679915E+02  0.10566000000E+00 0.  1.
         23    2    1    0    0    0  0.24656882036E+02  0.96918034991E+01  0.81280339777E+01  0.97287948053E+02  0.93257637828E+02 0.  0.
         13    1    3    3    0    0  0.18539213287E+02 -0.28543206101E+02  0.36027631273E+02  0.49562268138E+02  0.10566000000E+00 0. -1.
         22    1    1    0    0    0 -0.24656882036E+02 -0.96918034991E+01 -0.81280339777E+01  0.27712051947E+02  0.00000000000E+00 0. -1.
</event>
<event>
 5    1  0.1724243E-003  0.9118800E+02  0.7818608E-02  0.1130116E+00
         25   -1    0    0    0    0  0.00000000000E+00  0.00000000000E+00  0.99999998245E-14  0.12500000000E+03  0.12500000000E+03 0.  0.
        -13    1    3    3    0    0 -0.66184068472E+01 -0.60893008803E+02 -0.10323881209E+02  0.62115662418E+02  0.10566000000E+00 0. -1.
         23    2    1    0    0    0 -0.19564303354E+01 -0.29339379727E+02 -0.15065767595E+00  0.95595076600E+02  0.90960261378E+02 0.  0.
         13    1    3    3    0    0  0.46619765118E+01  0.31553629076E+02  0.10173223534E+02  0.33479414182E+02  0.10566000000E+00 0.  1.
         22    1    1    0    0    0  0.19564303354E+01  0.29339379727E+02  0.15065767595E+00  0.29404923400E+02  0.00000000000E+00 0. -1.
</event>
<event>
 5    1  0.1724243E-003  0.9118800E+02  0.7818608E-02  0.1130116E+00
         25   -1    0    0    0    0  0.00000000000E+00  0.00000000000E+00  0.99999998245E-14  0.12500000000E+03  0.12500000000E+03 0.  0.
        -13    1    3    3    0    0  0.37619806136E+02 -0.28860908816E+02  0.28840663987E+02  0.55497720085E+02  0.10566000000E+00 0. -1.
         23    2    1    0    0    0  0.72354012930E+01 -0.28247379168E+02  0.24671995393E+01  0.95736498240E+02  0.91154399564E+02 0.  0.
         13    1    3    3    0    0 -0.30384404844E+02  0.61352964797E+00 -0.26373464448E+02  0.40238778154E+02  0.10566000000E+00 0.  1.
         22    1    1    0    0    0 -0.72354012930E+01  0.28247379168E+02 -0.24671995393E+01  0.29263501760E+02  0.00000000000E+00 0. -1.
</event>
<event>
 5    1  0.1724243E-003  0.9118800E+02  0.7818608E-02  0.1130116E+00
         25   -1    0    0    0    0  0.00000000000E+00  0.00000000000E+00  0.99999998245E-14  0.12500000000E+03  0.12500000000E+03 0.  0.
        -13    1    3    3    0    0  0.19729132524E+02  0.20066428906E+02 -0.23541387782E+02  0.36689349162E+02  0.10566000000E+00 0.  1.
         23    2    1    0    0    0 -0.90160013494E+01 -0.26417480981E+02  0.19958020297E+01  0.97015096794E+02  0.92891195484E+02 0.  0.
         13    1    3    3    0    0 -0.28745133874E+02 -0.46483909887E+02  0.25537189812E+02  0.60325747632E+02  0.10566000000E+00 0. -1.
         22    1    1    0    0    0  0.90160013494E+01  0.26417480981E+02 -0.19958020297E+01  0.27984903206E+02  0.00000000000E+00 0. -1.
</event>
<event>
 5    1  0.1724243E-003  0.9118800E+02  0.7818608E-02  0.1130116E+00
         25   -1    0    0    0    0  0.00000000000E+00  0.00000000000E+00  0.99999998245E-14  0.12500000000E+03  0.12500000000E+03 0.  0.
        -13    1    3    3    0    0 -0.41956554182E+02  0.27776110676E+02 -0.28571990473E+02  0.57863931484E+02  0.10566000000E+00 0.  1.
         23    2    1    0    0    0 -0.12217180232E+02  0.26160992246E+02 -0.53385908151E+01  0.95637480353E+02  0.91018515085E+02 0.  0.
         13    1    3    3    0    0  0.29739373950E+02 -0.16151184296E+01  0.23233399658E+02  0.37773548869E+02  0.10566000000E+00 0. -1.
         22    1    1    0    0    0  0.12217180232E+02 -0.26160992246E+02  0.53385908151E+01  0.29362519647E+02  0.00000000000E+00 0.  1.
</event>
<event>
 5    1  0.1724243E-003  0.9118800E+02  0.7818608E-02  0.1130116E+00
         25   -1    0    0    0    0  0.00000000000E+00  0.00000000000E+00  0.99999998245E-14  0.12500000000E+03  0.12500000000E+03 0.  0.
        -13    1    3    3    0    0 -0.28588796151E+02 -0.13297136091E+02  0.50437461584E+02  0.59481776946E+02  0.10566000000E+00 0.  1.
         23    2    1    0    0    0 -0.11129843909E+02  0.69812873521E+01  0.26659835836E+02  0.95278650008E+02  0.90524375182E+02 0.  0.
         13    1    3    3    0    0  0.17458952243E+02  0.20278423443E+02 -0.23777625748E+02  0.35796873062E+02  0.10566000000E+00 0. -1.
         22    1    1    0    0    0  0.11129843909E+02 -0.69812873521E+01 -0.26659835836E+02  0.29721349992E+02  0.00000000000E+00 0.  1.
</event>
<event>
 5    1  0.1724243E-003  0.9118800E+02  0.7818608E-02  0.1130116E+00
         25   -1    0    0    0    0  0.00000000000E+00  0.00000000000E+00  0.99999998245E-14  0.12500000000E+03  0.12500000000E+03 0.  0.
        -13    1    3    3    0    0 -0.23398775079E+02  0.24236122304E+02 -0.48889043279E+02  0.59372064275E+02  0.10566000000E+00 0. -1.
         23    2    1    0    0    0 -0.20657223127E+02  0.14001168202E+01 -0.21217121818E+02  0.95354638598E+02  0.90629242795E+02 0.  0.
         13    1    3    3    0    0  0.27415519522E+01 -0.22836005484E+02  0.27671921461E+02  0.35982574323E+02  0.10566000000E+00 0.  1.
         22    1    1    0    0    0  0.20657223127E+02 -0.14001168202E+01  0.21217121818E+02  0.29645361402E+02  0.00000000000E+00 0. -1.
</event>
<event>
 5    1  0.1724243E-003  0.9118800E+02  0.7818608E-02  0.1130116E+00
         25   -1    0    0    0    0  0.00000000000E+00  0.00000000000E+00  0.99999998245E-14  0.12500000000E+03  0.12500000000E+03 0.  0.
        -13    1    3    3    0    0 -0.28611735757E+02 -0.19007996598E+02  0.21755509031E+01  0.34419174067E+02  0.10566000000E+00 0. -1.
         23    2    1    0    0    0  0.18697275980E+02  0.21330684500E+02 -0.14242848172E+00  0.96634413171E+02  0.92377504257E+02 0.  0.
         13    1    3    3    0    0  0.47309011737E+02  0.40338681098E+02 -0.23179793848E+01  0.62215239103E+02  0.10566000000E+00 0.  1.
         22    1    1    0    0    0 -0.18697275980E+02 -0.21330684500E+02  0.14242848172E+00  0.28365586829E+02  0.00000000000E+00 0.  1.
</event>
<event>
 5    1  0.1724243E-003  0.9118800E+02  0.7818608E-02  0.1130116E+00
         25   -1    0    0    0    0  0.00000000000E+00  0.00000000000E+00  0.99999998245E-14  0.12500000000E+03  0.12500000000E+03 0.  0.
        -13    1    3    3    0    0  0.13080085389E+02 -0.41735213632E+02  0.88105316230E+01  0.44615617470E+02  0.10566000000E+00 0. -1.
         23    2    1    0    0    0 -0.79795068695E+01  0.33519025951E+01  0.26260867980E+02  0.97349666043E+02  0.93340326283E+02 0.  0.
         13    1    3    3    0    0 -0.21059592259E+02  0.45087116228E+02  0.17450336357E+02  0.52734048572E+02  0.10566000000E+00 0.  1.
         22    1    1    0    0    0  0.79795068695E+01 -0.33519025951E+01 -0.26260867980E+02  0.27650333957E+02  0.00000000000E+00 0.  1.
</event>
<event>
 5    1  0.1724243E-003  0.9118800E+02  0.7818608E-02  0.1130116E+00
         25   -1    0    0    0    0  0.00000000000E+00  0.00000000000E+00  0.99999998245E-14  0.12500000000E+03  0.12500000000E+03 0.  0.
        -13    1    3    3    0    0  0.80295898274E+01 -0.38004029151E+02 -0.53989163004E+01  0.39216578201E+02  0.10566000000E+00 0.  1.
         23    2    1    0    0    0 -0.33929904593E+02 -0.20175964459E+02  0.23246069140E+01  0.85456204471E+02  0.75756525248E+02 0.  0.
         13    1    3    3    0    0 -0.41959494421E+02  0.17828064692E+02  0.77235232144E+01  0.46239626270E+02  0.10566000000E+00 0. -1.
         22    1    1    0    0    0  0.33929904593E+02  0.20175964459E+02 -0.23246069140E+01  0.39543795529E+02  0.00000000000E+00 0. -1.
</event>
<event>
 5    1  0.1724243E-003  0.9118800E+02  0.7818608E-02  0.1130116E+00
         25   -1    0    0    0    0  0.00000000000E+00  0.00000000000E+00  0.99999998245E-14  0.12500000000E+03  0.12500000000E+03 0.  0.
        -13    1    3    3    0    0 -0.17772930065E+02 -0.28603780042E+02 -0.36023595284E+02  0.49312917750E+02  0.10566000000E+00 0.  1.
         23    2    1    0    0    0 -0.74306269119E+01  0.16838737585E+02 -0.17924502708E+02  0.99308657157E+02  0.95927911940E+02 0.  0.
         13    1    3    3    0    0  0.10342303153E+02  0.45442517627E+02  0.18099092576E+02  0.49995739407E+02  0.10566000000E+00 0. -1.
         22    1    1    0    0    0  0.74306269119E+01 -0.16838737585E+02  0.17924502708E+02  0.25691342843E+02  0.00000000000E+00 0. -1.
</event>
<event>
 5    1  0.1724243E-003  0.9118800E+02  0.7818608E-02  0.1130116E+00
         25   -1    0    0    0    0  0.00000000000E+00  0.00000000000E+00  0.99999998245E-14  0.12500000000E+03  0.12500000000E+03 0.  0.
        -13    1    3    3    0    0  0.41328029301E+02  0.25063533340E+02  0.14218937559E+02  0.50382299061E+02  0.10566000000E+00 0. -1.
         23    2    1    0    0    0  0.25908500424E+02 -0.10725899855E+02 -0.87599274188E+01  0.95622599667E+02  0.90998076446E+02 0.  0.
         13    1    3    3    0    0 -0.15419528876E+02 -0.35789433195E+02 -0.22978864977E+02  0.45240300606E+02  0.10566000000E+00 0.  1.
         22    1    1    0    0    0 -0.25908500424E+02  0.10725899855E+02  0.87599274188E+01  0.29377400333E+02  0.00000000000E+00 0. -1.
</event>
<event>
 5    1  0.1724243E-003  0.9118800E+02  0.7818608E-02  0.1130116E+00
         25   -1    0    0    0    0  0.00000000000E+00  0.00000000000E+00  0.99999998245E-14  0.12500000000E+03  0.12500000000E+03 0.  0.
        -13    1    3    3    0    0 -0.15340692356E+02 -0.26932503151E+02 -0.52755158844E+02  0.61186718466E+02  0.10566000000E+00 0.  1.
         23    2    1    0    0    0 -0.81550437083E+00 -0.18572298570E+02 -0.22129491569E+02  0.96098274816E+02  0.91649160956E+02 0.  0.
         13    1    3    3    0    0  0.14525187985E+02  0.83602045816E+01  0.30625667275E+02  0.34911556349E+02  0.10566000000E+00 0. -1.
         22    1    1    0    0    0  0.81550437083E+00  0.18572298570E+02  0.22129491569E+02  0.28901725184E+02  0.00000000000E+00 0.  1.
</event>
<event>
 5    1  0.1724243E-003  0.9118800E+02  0.7818608E-02  0.1130116E+00
         25   -1    0    0    0    0  0.00000000000E+00  0.00000000000E+00  0.99999998245E-14  0.12500000000E+03  0.12500000000E+03 0.  0.
        -13    1    3    3    0    0 -0.40513517439E+02 -0.10763592808E+02 -0.44503679169E+01  0.42154679029E+02  0.10566000000E+00 0. -1.
         23    2    1    0    0    0 -0.46184025776E+01  0.18202142041E+02  0.22592134829E+02  0.95622250369E+02  0.90997596629E+02 0.  0.
         13    1    3    3    0    0  0.35895114861E+02  0.28965734849E+02  0.27042502746E+02  0.53467571340E+02  0.10566000000E+00 0.  1.
         22    1    1    0    0    0  0.46184025776E+01 -0.18202142041E+02 -0.22592134829E+02  0.29377749631E+02  0.00000000000E+00 0.  1.
</event>
<event>
 5    1  0.1724243E-003  0.9118800E+02  0.7818608E-02  0.1130116E+00
         25   -1    0    0    0    0  0.00000000000E+00  0.00000000000E+00  0.99999998245E-14  0.12500000000E+03  0.12500000000E+03 0.  0.
        -13    1    3    3    0    0  0.31676910611E+02  0.42404045450E+02 -0.33015883758E+02  0.62382605595E+02  0.10566000000E+00 0. -1.
         23    2    1    0    0    0  0.15834413762E+02  0.20957855838E+02 -0.13202911721E+02  0.95601407204E+02  0.90968960645E+02 0.  0.
         13    1    3    3    0    0 -0.15842496849E+02 -0.21446189613E+02  0.19812972038E+02  0.33218801609E+02  0.10566000000E+00 0.  1.
         22    1    1    0    0    0 -0.15834413762E+02 -0.20957855838E+02  0.13202911721E+02  0.29398592796E+02  0.00000000000E+00 0. -1.
</event>
<event>
 5    1  0.1724243E-003  0.9118800E+02  0.7818608E-02  0.1130116E+00
         25   -1    0    0    0    0  0.00000000000E+00  0.00000000000E+00  0.99999998245E-14  0.12500000000E+03  0.12500000000E+03 0.  0.
        -13    1    3    3    0    0 -0.79765956370E+01  0.30828553108E+02 -0.11053536450E+02  0.33707826936E+02  0.10566000000E+00 0. -1.
         23    2    1    0    0    0  0.27964812055E+02 -0.88076977908E+01  0.13671858040E+02  0.92649946586E+02  0.86818699866E+02 0.  0.
         13    1    3    3    0    0  0.35941407692E+02 -0.39636250898E+02  0.24725394489E+02  0.58942119650E+02  0.10566000000E+00 0.  1.
         22    1    1    0    0    0 -0.27964812055E+02  0.88076977908E+01 -0.13671858040E+02  0.32350053414E+02  0.00000000000E+00 0.  1.
</event>
<event>
 5    1  0.1724243E-003  0.9118800E+02  0.7818608E-02  0.1130116E+00
         25   -1    0    0    0    0  0.00000000000E+00  0.00000000000E+00  0.99999998245E-14  0.12500000000E+03  0.12500000000E+03 0.  0.
        -13    1    3    3    0    0 -0.23899111604E+02  0.18083356241E+02  0.13614948978E+02  0.32917370917E+02  0.10566000000E+00 0. -1.
         23    2    1    0    0    0  0.31829711035E+02  0.15044459802E+02  0.67946118324E+01  0.89144274861E+02  0.81615370583E+02 0.  0.
         13    1    3    3    0    0  0.55728822639E+02 -0.30388964391E+01 -0.68203371453E+01  0.56226903944E+02  0.10566000000E+00 0.  1.
         22    1    1    0    0    0 -0.31829711035E+02 -0.15044459802E+02 -0.67946118324E+01  0.35855725139E+02  0.00000000000E+00 0.  1.
</event>
<event>
 5    1  0.1724243E-003  0.9118800E+02  0.7818608E-02  0.1130116E+00
         25   -1    0    0    0    0  0.00000000000E+00  0.00000000000E+00  0.99999998245E-14  0.12500000000E+03  0.12500000000E+03 0.  0.
        -13    1    3    3    0    0 -0.36190745221E+02  0.20187810851E+02 -0.13283833804E+01  0.41461952596E+02  0.10566000000E+00 0.  1.
         23    2    1    0    0    0 -0.80177763241E+01 -0.23530469160E+02  0.14989544348E+02  0.95971494082E+02  0.91476081685E+02 0.  0.
         13    1    3    3    0    0  0.28172968897E+02 -0.43718280011E+02  0.16317927728E+02  0.54509541486E+02  0.10566000000E+00 0. -1.
         22    1    1    0    0    0  0.80177763241E+01  0.23530469160E+02 -0.14989544348E+02  0.29028505918E+02  0.00000000000E+00 0. -1.
</event>
<event>
 5    1  0.1724243E-003  0.9118800E+02  0.7818608E-02  0.1130116E+00
         25   -1    0    0    0    0  0.00000000000E+00  0.00000000000E+00  0.99999998245E-14  0.12500000000E+03  0.12500000000E+03 0.  0.
        -13    1    3    3    0    0  0.19667881155E+02  0.24628778592E+02 -0.14224064588E+02  0.34579436975E+02  0.10566000000E+00 0. -1.
         23    2    1    0    0    0 -0.16399875346E+02 -0.12664227509E+02  0.19571934029E+02  0.96497383078E+02  0.92191896442E+02 0.  0.
         13    1    3    3    0    0 -0.36067756501E+02 -0.37293006101E+02  0.33795998617E+02  0.61917946103E+02  0.10566000000E+00 0.  1.
         22    1    1    0    0    0  0.16399875346E+02  0.12664227509E+02 -0.19571934029E+02  0.28502616922E+02  0.00000000000E+00 0.  1.
</event>
<event>
 5    1  0.1724243E-003  0.9118800E+02  0.7818608E-02  0.1130116E+00
         25   -1    0    0    0    0  0.00000000000E+00  0.00000000000E+00  0.99999998245E-14  0.12500000000E+03  0.12500000000E+03 0.  0.
        -13    1    3    3    0    0 -0.11178349936E+02  0.53202768018E+02 -0.17644539287E+02  0.57156197938E+02  0.10566000000E+00 0. -1.
         23    2    1    0    0    0 -0.67578464959E+01  0.30252986469E+02  0.91186560206E+01  0.92688058443E+02  0.86873555301E+02 0.  0.
         13    1    3    3    0    0  0.44205034400E+01 -0.22949781549E+02  0.26763195307E+02  0.35531860504E+02  0.10566000000E+00 0.  1.
         22    1    1    0    0    0  0.67578464959E+01 -0.30252986469E+02 -0.91186560206E+01  0.32311941557E+02  0.00000000000E+00 0. -1.
</event>
<event>
 5    1  0.1724243E-003  0.9118800E+02  0.7818608E-02  0.1130116E+00
         25   -1    0    0    0    0  0.00000000000E+00  0.00000000000E+00  0.99999998245E-14  0.12500000000E+03  0.12500000000E+03 0.  0.
        -13    1    3    3    0    0  0.42447047852E+02  0.13142141518E+02 -0.17026369812E+02  0.47585461940E+02  0.10566000000E+00 0.  1.
         23    2    1    0    0    0  0.43838766784E+01  0.28179071388E+02  0.77767106295E+01  0.95440641630E+02  0.90747784588E+02 0.  0.
         13    1    3    3    0    0 -0.38063171174E+02  0.15036929870E+02  0.24803080442E+02  0.47855179690E+02  0.10566000000E+00 0. -1.
         22    1    1    0    0    0 -0.43838766784E+01 -0.28179071388E+02 -0.77767106295E+01  0.29559358370E+02  0.00000000000E+00 0.  1.
</event>
<event>
 5    1  0.1724243E-003  0.9118800E+02  0.7818608E-02  0.1130116E+00
         25   -1    0    0    0    0  0.00000000000E+00  0.00000000000E+00  0.99999998245E-14  0.12500000000E+03  0.12500000000E+03 0.  0.
        -13    1    3    3    0    0 -0.26278854199E+01 -0.24796742772E+02 -0.54274741492E+02  0.59728912278E+02  0.10566000000E+00 0. -1.
         23    2    1    0    0    0 -0.98810548302E+00 -0.32175098371E+01 -0.38111217716E+02  0.86740443837E+02  0.77846714505E+02 0.  0.
         13    1    3    3    0    0  0.16397799369E+01  0.21579232934E+02  0.16163523776E+02  0.27011531559E+02  0.10566000000E+00 0.  1.
         22    1    1    0    0    0  0.98810548302E+00  0.32175098371E+01  0.38111217716E+02  0.38259556163E+02  0.00000000000E+00 0. -1.
</event>
<event>
 5    1  0.1724243E-003  0.9118800E+02  0.7818608E-02  0.1130116E+00
         25   -1    0    0    0    0  0.00000000000E+00  0.00000000000E+00  0.99999998245E-14  0.12500000000E+03  0.12500000000E+03 0.  0.
        -13    1    3    3    0    0  0.14639326308E+02  0.47938279174E+02 -0.54107759822E+01  0.50415038883E+02  0.10566000000E+00 0. -1.
         23    2    1    0    0    0  0.12057644403E+02  0.18601702927E+02  0.24202757033E+02  0.92179524861E+02  0.86138732376E+02 0.  0.
         13    1    3    3    0    0 -0.25816819046E+01 -0.29336576246E+02  0.29613533015E+02  0.41764485978E+02  0.10566000000E+00 0.  1.
         22    1    1    0    0    0 -0.12057644403E+02 -0.18601702927E+02 -0.24202757033E+02  0.32820475139E+02  0.00000000000E+00 0. -1.
</event>
<event>
 5    1  0.1724243E-003  0.9118800E+02  0.7818608E-02  0.1130116E+00
         25   -1    0    0    0    0  0.00000000000E+00  0.00000000000E+00  0.99999998245E-14  0.12500000000E+03  0.12500000000E+03 0.  0.
        -13    1    3    3    0    0 -0.32030398181E+02  0.22656554461E+02  0.37040381207E+02  0.53956156939E+02  0.10566000000E+00 0.  1.
         23    2    1    0    0    0  0.39815290571E+01  0.26343289742E+01  0.28585534856E+02  0.96018539275E+02  0.91540345305E+02 0.  0.
         13    1    3    3    0    0  0.36011927238E+02 -0.20022225487E+02 -0.84548463506E+01  0.42062382335E+02  0.10566000000E+00 0. -1.
         22    1    1    0    0    0 -0.39815290571E+01 -0.26343289742E+01 -0.28585534856E+02  0.28981460725E+02  0.00000000000E+00 0. -1.
</event>
<event>
 5    1  0.1724243E-003  0.9118800E+02  0.7818608E-02  0.1130116E+00
         25   -1    0    0    0    0  0.00000000000E+00  0.00000000000E+00  0.99999998245E-14  0.12500000000E+03  0.12500000000E+03 0.  0.
        -13    1    3    3    0    0  0.13575091228E+02 -0.40146308765E+02  0.20118610133E+02  0.46912459400E+02  0.10566000000E+00 0.  1.
         23    2    1    0    0    0  0.28362703603E+02 -0.20581746764E+02 -0.12563061501E+02  0.87772566973E+02  0.79486739418E+02 0.  0.
         13    1    3    3    0    0  0.14787612374E+02  0.19564562001E+02 -0.32681671634E+02  0.40860107573E+02  0.10566000000E+00 0. -1.
         22    1    1    0    0    0 -0.28362703603E+02  0.20581746764E+02  0.12563061501E+02  0.37227433027E+02  0.00000000000E+00 0. -1.
</event>
<event>
 5    1  0.1724243E-003  0.9118800E+02  0.7818608E-02  0.1130116E+00
         25   -1    0    0    0    0  0.00000000000E+00  0.00000000000E+00  0.99999998245E-14  0.12500000000E+03  0.12500000000E+03 0.  0.
        -13    1    3    3    0    0  0.65080575962E+01  0.18132463531E+02  0.34551078409E+02  0.39559186426E+02  0.10566000000E+00 0.  1.
         23    2    1    0    0    0 -0.45176306011E+01  0.23948530778E+01 -0.23625693394E+02  0.10082733577E+03  0.97886842544E+02 0.  0.
         13    1    3    3    0    0 -0.11025688197E+02 -0.15737610453E+02 -0.58176771803E+02  0.61268149347E+02  0.10566000000E+00 0. -1.
         22    1    1    0    0    0  0.45176306011E+01 -0.23948530778E+01  0.23625693394E+02  0.24172664227E+02  0.00000000000E+00 0. -1.
</event>
<event>
 5    1  0.1724243E-003  0.9118800E+02  0.7818608E-02  0.1130116E+00
         25   -1    0    0    0    0  0.00000000000E+00  0.00000000000E+00  0.99999998245E-14  0.12500000000E+03  0.12500000000E+03 0.  0.
        -13    1    3    3    0    0  0.15254394781E+02  0.44841220333E+02 -0.32193425445E+02  0.57270056810E+02  0.10566000000E+00 0. -1.
         23    2    1    0    0    0 -0.35831343088E+01  0.12714435095E+02 -0.27090600709E+02  0.94860385570E+02  0.89944963130E+02 0.  0.
         13    1    3    3    0    0 -0.18837529090E+02 -0.32126785238E+02  0.51028247365E+01  0.37590328760E+02  0.10566000000E+00 0.  1.
         22    1    1    0    0    0  0.35831343088E+01 -0.12714435095E+02  0.27090600709E+02  0.30139614430E+02  0.00000000000E+00 0. -1.
</event>
<event>
 5    1  0.1724243E-003  0.9118800E+02  0.7818608E-02  0.1130116E+00
         25   -1    0    0    0    0  0.00000000000E+00  0.00000000000E+00  0.99999998245E-14  0.12500000000E+03  0.12500000000E+03 0.  0.
        -13    1    3    3    0    0  0.10936430321E+02 -0.45065319014E+02  0.39950969947E+02  0.61209310155E+02  0.10566000000E+00 0.  1.
         23    2    1    0    0    0 -0.15180523806E+01 -0.18191677599E+02  0.23986141473E+02  0.94857395606E+02  0.89940807765E+02 0.  0.
         13    1    3    3    0    0 -0.12454482702E+02  0.26873641415E+02 -0.15964828473E+02  0.33648085451E+02  0.10566000000E+00 0. -1.
         22    1    1    0    0    0  0.15180523806E+01  0.18191677599E+02 -0.23986141473E+02  0.30142604394E+02  0.00000000000E+00 0.  1.
</event>
<event>
 5    1  0.1724243E-003  0.9118800E+02  0.7818608E-02  0.1130116E+00
         25   -1    0    0    0    0  0.00000000000E+00  0.00000000000E+00  0.99999998245E-14  0.12500000000E+03  0.12500000000E+03 0.  0.
        -13    1    3    3    0    0  0.32755410686E+02 -0.20587358281E+02  0.25382698673E+01  0.38771255179E+02  0.10566000000E+00 0. -1.
         23    2    1    0    0    0 -0.83430536762E+01 -0.11406502070E+02 -0.29900416824E+02  0.91928112235E+02  0.85773119674E+02 0.  0.
         13    1    3    3    0    0 -0.41098464363E+02  0.91808562105E+01 -0.32438686691E+02  0.53156857055E+02  0.10566000000E+00 0.  1.
         22    1    1    0    0    0  0.83430536762E+01  0.11406502070E+02  0.29900416824E+02  0.33071887765E+02  0.00000000000E+00 0.  1.
</event>
<event>
 5    1  0.1724243E-003  0.9118800E+02  0.7818608E-02  0.1130116E+00
         25   -1    0    0    0    0  0.00000000000E+00  0.00000000000E+00  0.99999998245E-14  0.12500000000E+03  0.12500000000E+03 0.  0.
        -13    1    3    3    0    0  0.51281353820E+02 -0.96223269944E+01 -0.19194834524E+02  0.55595137043E+02  0.10566000000E+00 0.  1.
         23    2    1    0    0    0  0.81733637728E+01 -0.84467914068E+01 -0.23288840302E+02  0.98913178748E+02  0.95411187431E+02 0.  0.
         13    1    3    3    0    0 -0.43107990047E+02  0.11755355876E+01 -0.40940057786E+01  0.43318041705E+02  0.10566000000E+00 0. -1.
         22    1    1    0    0    0 -0.81733637728E+01  0.84467914068E+01  0.23288840302E+02  0.26086821252E+02  0.00000000000E+00 0.  1.
</event>
<event>
 5    1  0.1724243E-003  0.9118800E+02  0.7818608E-02  0.1130116E+00
         25   -1    0    0    0    0  0.00000000000E+00  0.00000000000E+00  0.99999998245E-14  0.12500000000E+03  0.12500000000E+03 0.  0.
        -13    1    3    3    0    0 -0.39073753695E+02 -0.16847643083E+02 -0.82725615686E+01  0.43347984316E+02  0.10566000000E+00 0. -1.
         23    2    1    0    0    0 -0.10507003911E+02  0.26928519800E+02 -0.43665961772E+01  0.95766295617E+02  0.91195251544E+02 0.  0.
         13    1    3    3    0    0  0.28566749784E+02  0.43776162883E+02  0.39059653914E+01  0.52418311301E+02  0.10566000000E+00 0.  1.
         22    1    1    0    0    0  0.10507003911E+02 -0.26928519800E+02  0.43665961772E+01  0.29233704383E+02  0.00000000000E+00 0. -1.
</event>
<event>
 5    1  0.1724243E-003  0.9118800E+02  0.7818608E-02  0.1130116E+00
         25   -1    0    0    0    0  0.00000000000E+00  0.00000000000E+00  0.99999998245E-14  0.12500000000E+03  0.12500000000E+03 0.  0.
        -13    1    3    3    0    0  0.15620914519E+02  0.39066363933E+01 -0.48796778053E+02  0.51384934472E+02  0.10566000000E+00 0. -1.
         23    2    1    0    0    0 -0.18731025026E+02 -0.54616665920E+01 -0.17469272223E+02  0.98811136480E+02  0.95277406135E+02 0.  0.
         13    1    3    3    0    0 -0.34351939545E+02 -0.93683029853E+01  0.31327505830E+02  0.47426202008E+02  0.10566000000E+00 0.  1.
         22    1    1    0    0    0  0.18731025026E+02  0.54616665920E+01  0.17469272223E+02  0.26188863520E+02  0.00000000000E+00 0.  1.
</event>
<event>
 5    1  0.1724243E-003  0.9118800E+02  0.7818608E-02  0.1130116E+00
         25   -1    0    0    0    0  0.00000000000E+00  0.00000000000E+00  0.99999998245E-14  0.12500000000E+03  0.12500000000E+03 0.  0.
        -13    1    3    3    0    0 -0.57399303366E+01  0.52278249814E+02  0.30529099034E+02  0.60811177063E+02  0.10566000000E+00 0. -1.
         23    2    1    0    0    0  0.14782727533E+01  0.28619919760E+02  0.58528606897E+01  0.95750366231E+02  0.91173414753E+02 0.  0.
         13    1    3    3    0    0  0.72182030899E+01 -0.23658330055E+02 -0.24676238344E+02  0.34939189168E+02  0.10566000000E+00 0.  1.
         22    1    1    0    0    0 -0.14782727533E+01 -0.28619919760E+02 -0.58528606897E+01  0.29249633769E+02  0.00000000000E+00 0. -1.
</event>
<event>
 5    1  0.1724243E-003  0.9118800E+02  0.7818608E-02  0.1130116E+00
         25   -1    0    0    0    0  0.00000000000E+00  0.00000000000E+00  0.99999998245E-14  0.12500000000E+03  0.12500000000E+03 0.  0.
        -13    1    3    3    0    0  0.65173102804E+01 -0.37382111621E+02 -0.63752013692E+01  0.38477941201E+02  0.10566000000E+00 0.  1.
         23    2    1    0    0    0  0.21142756647E+01  0.17317175273E+02 -0.23288680547E+02  0.95901591751E+02  0.91380511805E+02 0.  0.
         13    1    3    3    0    0 -0.44030346157E+01  0.54699286894E+02 -0.16913479178E+02  0.57423650550E+02  0.10566000000E+00 0. -1.
         22    1    1    0    0    0 -0.21142756647E+01 -0.17317175273E+02  0.23288680547E+02  0.29098408249E+02  0.00000000000E+00 0. -1.
</event>
<event>
 4    1  0.1724243E-003  0.9118800E+02  0.7818608E-02  0.1130116E+00
         25   -1    0    0    0    0  0.00000000000E+00  0.00000000000E+00  0.99999998245E-14  0.12500000000E+03  0.12500000000E+03 0.  0.
        -13    1    1    0    0    0  0.16056679547E+01  0.69270414549E+01 -0.14124102820E+02  0.15813396770E+02  0.10566000000E+00 0.  1.
         13    1    1    0    0    0  0.35764440377E+02  0.34730184757E+02  0.18210659892E+02  0.53074666522E+02  0.10566000000E+00 0. -1.
         22    1    1    0    0    0 -0.37370108331E+02 -0.41657226212E+02 -0.40865570723E+01  0.56111936708E+02  0.00000000000E+00 0. -1.
</event>
<event>
 5    1  0.1724243E-003  0.9118800E+02  0.7818608E-02  0.1130116E+00
         25   -1    0    0    0    0  0.00000000000E+00  0.00000000000E+00  0.99999998245E-14  0.12500000000E+03  0.12500000000E+03 0.  0.
        -13    1    3    3    0    0  0.30756665582E+02  0.38558457181E+02  0.20923916423E+02  0.53577500319E+02  0.10566000000E+00 0.  1.
         23    2    1    0    0    0  0.25139792015E+02 -0.38758737347E+01  0.90898603125E+01  0.97987834217E+02  0.94191074706E+02 0.  0.
         13    1    3    3    0    0 -0.56168735669E+01 -0.42434330916E+02 -0.11834056110E+02  0.44410333899E+02  0.10566000000E+00 0. -1.
         22    1    1    0    0    0 -0.25139792015E+02  0.38758737347E+01 -0.90898603125E+01  0.27012165783E+02  0.00000000000E+00 0.  1.
</event>
<event>
 4    1  0.1724243E-003  0.9118800E+02  0.7818608E-02  0.1130116E+00
         25   -1    0    0    0    0  0.00000000000E+00  0.00000000000E+00  0.99999998245E-14  0.12500000000E+03  0.12500000000E+03 0.  0.
        -13    1    1    0    0    0  0.11677196667E+02  0.15723606273E+02 -0.20924583940E+02  0.28660741326E+02  0.10566000000E+00 0.  1.
         13    1    1    0    0    0 -0.36535142241E+02 -0.62645277980E+01 -0.23980242190E+02  0.44148885678E+02  0.10566000000E+00 0. -1.
         22    1    1    0    0    0  0.24857945574E+02 -0.94590784753E+01  0.44904826130E+02  0.52190372996E+02  0.00000000000E+00 0. -1.
</event>
<event>
 5    1  0.1724243E-003  0.9118800E+02  0.7818608E-02  0.1130116E+00
         25   -1    0    0    0    0  0.00000000000E+00  0.00000000000E+00  0.99999998245E-14  0.12500000000E+03  0.12500000000E+03 0.  0.
        -13    1    3    3    0    0  0.17930813975E+02  0.46131526611E+02  0.13170039783E+02  0.51216139538E+02  0.10566000000E+00 0.  1.
         23    2    1    0    0    0 -0.11763397265E+02  0.18573651674E+02  0.23289485393E+02  0.92972540194E+02  0.87281928534E+02 0.  0.
         13    1    3    3    0    0 -0.29694211240E+02 -0.27557874938E+02  0.10119445610E+02  0.41756400656E+02  0.10566000000E+00 0. -1.
         22    1    1    0    0    0  0.11763397265E+02 -0.18573651674E+02 -0.23289485393E+02  0.32027459806E+02  0.00000000000E+00 0.  1.
</event>
<event>
 5    1  0.1724243E-003  0.9118800E+02  0.7818608E-02  0.1130116E+00
         25   -1    0    0    0    0  0.00000000000E+00  0.00000000000E+00  0.99999998245E-14  0.12500000000E+03  0.12500000000E+03 0.  0.
        -13    1    3    3    0    0  0.21566031598E+02 -0.27535011833E+02 -0.47700838261E+02  0.59149401775E+02  0.10566000000E+00 0.  1.
         23    2    1    0    0    0 -0.19203240450E+01 -0.20888234352E+02 -0.21287854363E+02  0.95113904200E+02  0.90296600434E+02 0.  0.
         13    1    3    3    0    0 -0.23486355643E+02  0.66467774802E+01  0.26412983898E+02  0.35964502425E+02  0.10566000000E+00 0. -1.
         22    1    1    0    0    0  0.19203240450E+01  0.20888234352E+02  0.21287854363E+02  0.29886095800E+02  0.00000000000E+00 0.  1.
</event>
<event>
 5    1  0.1724243E-003  0.9118800E+02  0.7818608E-02  0.1130116E+00
         25   -1    0    0    0    0  0.00000000000E+00  0.00000000000E+00  0.99999998245E-14  0.12500000000E+03  0.12500000000E+03 0.  0.
        -13    1    3    3    0    0  0.33947123487E+02 -0.11456163964E+02  0.55213143029E+01  0.36251164967E+02  0.10566000000E+00 0. -1.
         23    2    1    0    0    0 -0.17447315823E+02  0.17881868867E+01 -0.22662157952E+02  0.96343764294E+02  0.91983373897E+02 0.  0.
         13    1    3    3    0    0 -0.51394439310E+02  0.13244350850E+02 -0.28183472255E+02  0.60092599327E+02  0.10566000000E+00 0.  1.
         22    1    1    0    0    0  0.17447315823E+02 -0.17881868867E+01  0.22662157952E+02  0.28656235706E+02  0.00000000000E+00 0.  1.
</event>
<event>
 5    1  0.1724243E-003  0.9118800E+02  0.7818608E-02  0.1130116E+00
         25   -1    0    0    0    0  0.00000000000E+00  0.00000000000E+00  0.99999998245E-14  0.12500000000E+03  0.12500000000E+03 0.  0.
        -13    1    3    3    0    0 -0.54939679185E+02  0.24949872051E+01 -0.23028649786E+01  0.55044597021E+02  0.10566000000E+00 0.  1.
         23    2    1    0    0    0 -0.19168496009E+02  0.18469523888E+02  0.10683919561E+02  0.96317240560E+02  0.91947322637E+02 0.  0.
         13    1    3    3    0    0  0.35771183176E+02  0.15974536683E+02  0.12986784539E+02  0.41272643539E+02  0.10566000000E+00 0. -1.
         22    1    1    0    0    0  0.19168496009E+02 -0.18469523888E+02 -0.10683919561E+02  0.28682759440E+02  0.00000000000E+00 0.  1.
</event>
<event>
 5    1  0.1724243E-003  0.9118800E+02  0.7818608E-02  0.1130116E+00
         25   -1    0    0    0    0  0.00000000000E+00  0.00000000000E+00  0.99999998245E-14  0.12500000000E+03  0.12500000000E+03 0.  0.
        -13    1    3    3    0    0  0.24247897178E+02  0.45868359394E+02  0.31555125158E+02  0.60725645314E+02  0.10566000000E+00 0. -1.
         23    2    1    0    0    0  0.12932765047E+02  0.13769187128E+02  0.21847279737E+02  0.96118335266E+02  0.91676517258E+02 0.  0.
         13    1    3    3    0    0 -0.11315132130E+02 -0.32099172266E+02 -0.97078454211E+01  0.35392689952E+02  0.10566000000E+00 0.  1.
         22    1    1    0    0    0 -0.12932765047E+02 -0.13769187128E+02 -0.21847279737E+02  0.28881664734E+02  0.00000000000E+00 0. -1.
</event>
<event>
 5    1  0.1724243E-003  0.9118800E+02  0.7818608E-02  0.1130116E+00
         25   -1    0    0    0    0  0.00000000000E+00  0.00000000000E+00  0.99999998245E-14  0.12500000000E+03  0.12500000000E+03 0.  0.
        -13    1    3    3    0    0 -0.21499859980E+02 -0.21474390667E+02  0.20943627833E+02  0.36905828056E+02  0.10566000000E+00 0. -1.
         23    2    1    0    0    0 -0.49135912489E+01  0.17536568038E+02 -0.21452772219E+02  0.96859352648E+02  0.92681379802E+02 0.  0.
         13    1    3    3    0    0  0.16586268731E+02  0.39010958705E+02 -0.42396400052E+02  0.59953524591E+02  0.10566000000E+00 0.  1.
         22    1    1    0    0    0  0.49135912489E+01 -0.17536568038E+02  0.21452772219E+02  0.28140647352E+02  0.00000000000E+00 0.  1.
</event>
<event>
 5    1  0.1724243E-003  0.9118800E+02  0.7818608E-02  0.1130116E+00
         25   -1    0    0    0    0  0.00000000000E+00  0.00000000000E+00  0.99999998245E-14  0.12500000000E+03  0.12500000000E+03 0.  0.
        -13    1    3    3    0    0 -0.57269315394E+01 -0.27682028385E+02  0.25211182657E+02  0.37877530745E+02  0.10566000000E+00 0.  1.
         23    2    1    0    0    0 -0.67632582487E+01  0.26108875358E+02  0.18941313535E+02  0.92042627637E+02  0.85939844713E+02 0.  0.
         13    1    3    3    0    0 -0.10363267093E+01  0.53790903743E+02 -0.62698691217E+01  0.54165096892E+02  0.10566000000E+00 0. -1.
         22    1    1    0    0    0  0.67632582487E+01 -0.26108875358E+02 -0.18941313535E+02  0.32957372363E+02  0.00000000000E+00 0. -1.
</event>
<event>
 5    1  0.1724243E-003  0.9118800E+02  0.7818608E-02  0.1130116E+00
         25   -1    0    0    0    0  0.00000000000E+00  0.00000000000E+00  0.99999998245E-14  0.12500000000E+03  0.12500000000E+03 0.  0.
        -13    1    3    3    0    0  0.17634899023E+01  0.42050490990E+02 -0.27687412011E+02  0.50378146423E+02  0.10566000000E+00 0.  1.
         23    2    1    0    0    0  0.65879768259E+01  0.36905886454E-01 -0.31480315841E+02  0.92837707075E+02  0.87088614462E+02 0.  0.
         13    1    3    3    0    0  0.48244869237E+01 -0.42013585103E+02 -0.37929038297E+01  0.42459560652E+02  0.10566000000E+00 0. -1.
         22    1    1    0    0    0 -0.65879768259E+01 -0.36905886454E-01  0.31480315841E+02  0.32162292925E+02  0.00000000000E+00 0.  1.
</event>
<event>
 5    1  0.1724243E-003  0.9118800E+02  0.7818608E-02  0.1130116E+00
         25   -1    0    0    0    0  0.00000000000E+00  0.00000000000E+00  0.99999998245E-14  0.12500000000E+03  0.12500000000E+03 0.  0.
        -13    1    3    3    0    0  0.40534635609E+02 -0.16858815291E+02  0.11712717054E+02  0.45436496804E+02  0.10566000000E+00 0.  1.
         23    2    1    0    0    0 -0.74931344882E+01 -0.96594540354E+01  0.26176856760E+02  0.96109171930E+02  0.91664022291E+02 0.  0.
         13    1    3    3    0    0 -0.48027770097E+02  0.71993612555E+01  0.14464139706E+02  0.50672675127E+02  0.10566000000E+00 0. -1.
         22    1    1    0    0    0  0.74931344882E+01  0.96594540354E+01 -0.26176856760E+02  0.28890828070E+02  0.00000000000E+00 0. -1.
</event>
<event>
 5    1  0.1724243E-003  0.9118800E+02  0.7818608E-02  0.1130116E+00
         25   -1    0    0    0    0  0.00000000000E+00  0.00000000000E+00  0.99999998245E-14  0.12500000000E+03  0.12500000000E+03 0.  0.
        -13    1    3    3    0    0 -0.23180208420E+02 -0.39540397955E+02 -0.35985258694E+02  0.58272764995E+02  0.10566000000E+00 0. -1.
         23    2    1    0    0    0  0.97836825803E+00 -0.26747337365E+02 -0.88018349617E+01  0.96824663991E+02  0.92634583162E+02 0.  0.
         13    1    3    3    0    0  0.24158576678E+02  0.12793060590E+02  0.27183423732E+02  0.38551898996E+02  0.10566000000E+00 0.  1.
         22    1    1    0    0    0 -0.97836825803E+00  0.26747337365E+02  0.88018349617E+01  0.28175336009E+02  0.00000000000E+00 0. -1.
</event>
<event>
 5    1  0.1724243E-003  0.9118800E+02  0.7818608E-02  0.1130116E+00
         25   -1    0    0    0    0  0.00000000000E+00  0.00000000000E+00  0.99999998245E-14  0.12500000000E+03  0.12500000000E+03 0.  0.
        -13    1    3    3    0    0  0.17472882689E+02 -0.20209141437E+02 -0.20937780398E+02  0.33942787733E+02  0.10566000000E+00 0. -1.
         23    2    1    0    0    0 -0.24566099860E+02  0.12592537575E+02  0.10058094984E+02  0.95619214789E+02  0.90993426671E+02 0.  0.
         13    1    3    3    0    0 -0.42038982549E+02  0.32801679011E+02  0.30995875381E+02  0.61676427056E+02  0.10566000000E+00 0.  1.
         22    1    1    0    0    0  0.24566099860E+02 -0.12592537575E+02 -0.10058094984E+02  0.29380785211E+02  0.00000000000E+00 0.  1.
</event>
<event>
 5    1  0.1724243E-003  0.9118800E+02  0.7818608E-02  0.1130116E+00
         25   -1    0    0    0    0  0.00000000000E+00  0.00000000000E+00  0.99999998245E-14  0.12500000000E+03  0.12500000000E+03 0.  0.
        -13    1    3    3    0    0  0.47581227966E+01 -0.38688552738E+02 -0.71249100047E+00  0.38986698411E+02  0.10566000000E+00 0.  1.
         23    2    1    0    0    0  0.52175886867E+01  0.12178561520E+02  0.25537919658E+02  0.96229773500E+02  0.91828336449E+02 0.  0.
         13    1    3    3    0    0  0.45946589010E+00  0.50867114258E+02  0.26250410658E+02  0.57243075089E+02  0.10566000000E+00 0. -1.
         22    1    1    0    0    0 -0.52175886867E+01 -0.12178561520E+02 -0.25537919658E+02  0.28770226500E+02  0.00000000000E+00 0. -1.
</event>
<event>
 5    1  0.1724243E-003  0.9118800E+02  0.7818608E-02  0.1130116E+00
         25   -1    0    0    0    0  0.00000000000E+00  0.00000000000E+00  0.99999998245E-14  0.12500000000E+03  0.12500000000E+03 0.  0.
        -13    1    3    3    0    0 -0.26761987288E+02 -0.58304607857E+01  0.21510539762E+02  0.34826896524E+02  0.10566000000E+00 0. -1.
         23    2    1    0    0    0  0.23753468740E+02 -0.86351390105E+01 -0.13493689645E+02  0.96349126311E+02  0.91990660275E+02 0.  0.
         13    1    3    3    0    0  0.50515456028E+02 -0.28046782248E+01 -0.35004229407E+02  0.61522229788E+02  0.10566000000E+00 0.  1.
         22    1    1    0    0    0 -0.23753468740E+02  0.86351390105E+01  0.13493689645E+02  0.28650873689E+02  0.00000000000E+00 0.  1.
</event>
<event>
 5    1  0.1724243E-003  0.9118800E+02  0.7818608E-02  0.1130116E+00
         25   -1    0    0    0    0  0.00000000000E+00  0.00000000000E+00  0.99999998245E-14  0.12500000000E+03  0.12500000000E+03 0.  0.
        -13    1    3    3    0    0  0.21443938651E+01  0.22960553975E+02  0.24641285541E+02  0.33748919702E+02  0.10566000000E+00 0.  1.
         23    2    1    0    0    0  0.24770452268E+01 -0.14426932908E+02 -0.25080766126E+02  0.95960079620E+02  0.91460482751E+02 0.  0.
         13    1    3    3    0    0  0.33265136172E+00 -0.37387486883E+02 -0.49722051667E+02  0.62211159918E+02  0.10566000000E+00 0. -1.
         22    1    1    0    0    0 -0.24770452268E+01  0.14426932908E+02  0.25080766126E+02  0.29039920380E+02  0.00000000000E+00 0. -1.
</event>
<event>
 5    1  0.1724243E-003  0.9118800E+02  0.7818608E-02  0.1130116E+00
         25   -1    0    0    0    0  0.00000000000E+00  0.00000000000E+00  0.99999998245E-14  0.12500000000E+03  0.12500000000E+03 0.  0.
        -13    1    3    3    0    0  0.10059892350E+02 -0.26930338190E+02 -0.36308187143E+02  0.46311339505E+02  0.10566000000E+00 0.  1.
         23    2    1    0    0    0 -0.16181065694E+02  0.84364820946E+01 -0.28681266732E+02  0.91005644903E+02  0.84418074046E+02 0.  0.
         13    1    3    3    0    0 -0.26240958043E+02  0.35366820284E+02  0.76269204106E+01  0.44694305398E+02  0.10566000000E+00 0. -1.
         22    1    1    0    0    0  0.16181065694E+02 -0.84364820946E+01  0.28681266732E+02  0.33994355097E+02  0.00000000000E+00 0. -1.
</event>
<event>
 5    1  0.1724243E-003  0.9118800E+02  0.7818608E-02  0.1130116E+00
         25   -1    0    0    0    0  0.00000000000E+00  0.00000000000E+00  0.99999998245E-14  0.12500000000E+03  0.12500000000E+03 0.  0.
        -13    1    3    3    0    0  0.84549155898E+01 -0.60896776416E+02 -0.37855608992E+01  0.61597439970E+02  0.10566000000E+00 0. -1.
         23    2    1    0    0    0  0.10802064790E+02 -0.25233840573E+02 -0.34155980002E+01  0.97339601892E+02  0.93326847547E+02 0.  0.
         13    1    3    3    0    0  0.23471492001E+01  0.35662935843E+02  0.36996289904E+00  0.35742161922E+02  0.10566000000E+00 0.  1.
         22    1    1    0    0    0 -0.10802064790E+02  0.25233840573E+02  0.34155980002E+01  0.27660398108E+02  0.00000000000E+00 0. -1.
</event>
<event>
 5    1  0.1724243E-003  0.9118800E+02  0.7818608E-02  0.1130116E+00
         25   -1    0    0    0    0  0.00000000000E+00  0.00000000000E+00  0.99999998245E-14  0.12500000000E+03  0.12500000000E+03 0.  0.
        -13    1    3    3    0    0  0.38960683628E+02  0.23173747623E+02 -0.30296646333E+02  0.54523897428E+02  0.10566000000E+00 0. -1.
         23    2    1    0    0    0  0.26779802374E+02 -0.93317851123E+01 -0.90094451585E+01  0.95244158042E+02  0.90476734636E+02 0.  0.
         13    1    3    3    0    0 -0.12180881253E+02 -0.32505532736E+02  0.21287201175E+02  0.40720260614E+02  0.10566000000E+00 0.  1.
         22    1    1    0    0    0 -0.26779802374E+02  0.93317851123E+01  0.90094451585E+01  0.29755841958E+02  0.00000000000E+00 0. -1.
</event>
<event>
 5    1  0.1724243E-003  0.9118800E+02  0.7818608E-02  0.1130116E+00
         25   -1    0    0    0    0  0.00000000000E+00  0.00000000000E+00  0.99999998245E-14  0.12500000000E+03  0.12500000000E+03 0.  0.
        -13    1    3    3    0    0 -0.13376925183E+02 -0.18567958595E+02  0.47600788539E+02  0.52816261201E+02  0.10566000000E+00 0. -1.
         23    2    1    0    0    0  0.70671006975E+01  0.10728822430E+02  0.29411161961E+02  0.92905327687E+02  0.87185617631E+02 0.  0.
         13    1    3    3    0    0  0.20444025881E+02  0.29296781025E+02 -0.18189626578E+02  0.40089066486E+02  0.10566000000E+00 0.  1.
         22    1    1    0    0    0 -0.70671006975E+01 -0.10728822430E+02 -0.29411161961E+02  0.32094672313E+02  0.00000000000E+00 0.  1.
</event>
<event>
 5    1  0.1724243E-003  0.9118800E+02  0.7818608E-02  0.1130116E+00
         25   -1    0    0    0    0  0.00000000000E+00  0.00000000000E+00  0.99999998245E-14  0.12500000000E+03  0.12500000000E+03 0.  0.
        -13    1    3    3    0    0 -0.33684025495E+02 -0.99869542203E+01  0.42564714305E+02  0.55191656037E+02  0.10566000000E+00 0.  1.
         23    2    1    0    0    0 -0.27556279157E+02  0.66424668332E+01  0.57117253916E+01  0.96084697934E+02  0.91630641619E+02 0.  0.
         13    1    3    3    0    0  0.61277463382E+01  0.16629421053E+02 -0.36852988913E+02  0.40893041898E+02  0.10566000000E+00 0. -1.
         22    1    1    0    0    0  0.27556279157E+02 -0.66424668332E+01 -0.57117253916E+01  0.28915302066E+02  0.00000000000E+00 0.  1.
</event>
<event>
 5    1  0.1724243E-003  0.9118800E+02  0.7818608E-02  0.1130116E+00
         25   -1    0    0    0    0  0.00000000000E+00  0.00000000000E+00  0.99999998245E-14  0.12500000000E+03  0.12500000000E+03 0.  0.
        -13    1    3    3    0    0  0.42100117103E+02  0.55472637322E+01  0.39427236805E+02  0.57945751882E+02  0.10566000000E+00 0.  1.
         23    2    1    0    0    0  0.79090994129E+01  0.13502273025E+02  0.24134323229E+02  0.96236641572E+02  0.91837685037E+02 0.  0.
         13    1    3    3    0    0 -0.34191017691E+02  0.79550092929E+01 -0.15292913576E+02  0.38290889690E+02  0.10566000000E+00 0. -1.
         22    1    1    0    0    0 -0.79090994129E+01 -0.13502273025E+02 -0.24134323229E+02  0.28763358428E+02  0.00000000000E+00 0.  1.
</event>
<event>
 5    1  0.1724243E-003  0.9118800E+02  0.7818608E-02  0.1130116E+00
         25   -1    0    0    0    0  0.00000000000E+00  0.00000000000E+00  0.99999998245E-14  0.12500000000E+03  0.12500000000E+03 0.  0.
        -13    1    3    3    0    0  0.32250460618E+01  0.89398373708E+01 -0.37919809142E+02  0.39092770479E+02  0.10566000000E+00 0.  1.
         23    2    1    0    0    0  0.31950396756E+02  0.74509839996E+00  0.62698953816E+01  0.92431693127E+02  0.86503891714E+02 0.  0.
         13    1    3    3    0    0  0.28725350694E+02 -0.81947389708E+01  0.44189704523E+02  0.53338922648E+02  0.10566000000E+00 0. -1.
         22    1    1    0    0    0 -0.31950396756E+02 -0.74509839996E+00 -0.62698953816E+01  0.32568306873E+02  0.00000000000E+00 0. -1.
</event>
<event>
 5    1  0.1724243E-003  0.9118800E+02  0.7818608E-02  0.1130116E+00
         25   -1    0    0    0    0  0.00000000000E+00  0.00000000000E+00  0.99999998245E-14  0.12500000000E+03  0.12500000000E+03 0.  0.
        -13    1    3    3    0    0  0.88561984987E+01  0.48066077879E+02  0.24151959712E+02  0.54517047026E+02  0.10566000000E+00 0.  1.
         23    2    1    0    0    0 -0.14854705852E+02  0.24353667995E+02 -0.10328754054E+01  0.96454768132E+02  0.92134098102E+02 0.  0.
         13    1    3    3    0    0 -0.23710904351E+02 -0.23712409883E+02 -0.25184835117E+02  0.41937721106E+02  0.10566000000E+00 0. -1.
         22    1    1    0    0    0  0.14854705852E+02 -0.24353667995E+02  0.10328754054E+01  0.28545231868E+02  0.00000000000E+00 0.  1.
</event>
<event>
 5    1  0.1724243E-003  0.9118800E+02  0.7818608E-02  0.1130116E+00
         25   -1    0    0    0    0  0.00000000000E+00  0.00000000000E+00  0.99999998245E-14  0.12500000000E+03  0.12500000000E+03 0.  0.
        -13    1    3    3    0    0  0.24223496869E+02  0.10036193419E+01  0.47558699719E+02  0.53381889582E+02  0.10566000000E+00 0.  1.
         23    2    1    0    0    0  0.92539438677E+01 -0.21560921725E+02  0.10462170372E+02  0.99310199852E+02  0.95929922147E+02 0.  0.
         13    1    3    3    0    0 -0.14969553001E+02 -0.22564541067E+02 -0.37096529348E+02  0.45928310270E+02  0.10566000000E+00 0. -1.
         22    1    1    0    0    0 -0.92539438677E+01  0.21560921725E+02 -0.10462170372E+02  0.25689800148E+02  0.00000000000E+00 0.  1.
</event>
<event>
 5    1  0.1724243E-003  0.9118800E+02  0.7818608E-02  0.1130116E+00
         25   -1    0    0    0    0  0.00000000000E+00  0.00000000000E+00  0.99999998245E-14  0.12500000000E+03  0.12500000000E+03 0.  0.
        -13    1    3    3    0    0  0.87987824455E+01 -0.44097297681E+02 -0.39466773080E+01  0.45139535455E+02  0.10566000000E+00 0.  1.
         23    2    1    0    0    0  0.25102358212E+02  0.14773255882E+01  0.13337365433E+02  0.96536054465E+02  0.92244314818E+02 0.  0.
         13    1    3    3    0    0  0.16303575767E+02  0.45574623269E+02  0.17284042741E+02  0.51396519010E+02  0.10566000000E+00 0. -1.
         22    1    1    0    0    0 -0.25102358212E+02 -0.14773255882E+01 -0.13337365433E+02  0.28463945535E+02  0.00000000000E+00 0. -1.
</event>
<event>
 5    1  0.1724243E-003  0.9118800E+02  0.7818608E-02  0.1130116E+00
         25   -1    0    0    0    0  0.00000000000E+00  0.00000000000E+00  0.99999998245E-14  0.12500000000E+03  0.12500000000E+03 0.  0.
        -13    1    3    3    0    0  0.45462142018E+02  0.39935568094E+01  0.24577806708E+02  0.51834685293E+02  0.10566000000E+00 0.  1.
         23    2    1    0    0    0  0.11621010510E+02 -0.22089562268E+02  0.15817800838E+02  0.95450051272E+02  0.90760744918E+02 0.  0.
         13    1    3    3    0    0 -0.33841131508E+02 -0.26083119078E+02 -0.87600058704E+01  0.43615365979E+02  0.10566000000E+00 0. -1.
         22    1    1    0    0    0 -0.11621010510E+02  0.22089562268E+02 -0.15817800838E+02  0.29549948728E+02  0.00000000000E+00 0.  1.
</event>
<event>
 5    1  0.1724243E-003  0.9118800E+02  0.7818608E-02  0.1130116E+00
         25   -1    0    0    0    0  0.00000000000E+00  0.00000000000E+00  0.99999998245E-14  0.12500000000E+03  0.12500000000E+03 0.  0.
        -13    1    3    3    0    0 -0.89208168321E+01  0.39287128539E+02  0.45711902905E+02  0.60931508048E+02  0.10566000000E+00 0.  1.
         23    2    1    0    0    0 -0.10981729718E+02  0.11980828211E+02  0.24631660740E+02  0.95489707845E+02  0.90815345407E+02 0.  0.
         13    1    3    3    0    0 -0.20609128855E+01 -0.27306300327E+02 -0.21080242165E+02  0.34558199797E+02  0.10566000000E+00 0. -1.
         22    1    1    0    0    0  0.10981729718E+02 -0.11980828211E+02 -0.24631660740E+02  0.29510292155E+02  0.00000000000E+00 0.  1.
</event>
<event>
 5    1  0.1724243E-003  0.9118800E+02  0.7818608E-02  0.1130116E+00
         25   -1    0    0    0    0  0.00000000000E+00  0.00000000000E+00  0.99999998245E-14  0.12500000000E+03  0.12500000000E+03 0.  0.
        -13    1    3    3    0    0  0.33477685891E+01  0.47089396193E+02 -0.28593359721E+02  0.55192482935E+02  0.10566000000E+00 0. -1.
         23    2    1    0    0    0 -0.15984919517E+02  0.91743710091E+01 -0.18402419607E+02  0.98955119836E+02  0.95466119430E+02 0.  0.
         13    1    3    3    0    0 -0.19332688106E+02 -0.37915025184E+02  0.10190940114E+02  0.43762636901E+02  0.10566000000E+00 0.  1.
         22    1    1    0    0    0  0.15984919517E+02 -0.91743710091E+01  0.18402419607E+02  0.26044880164E+02  0.00000000000E+00 0. -1.
</event>
<event>
 5    1  0.1724243E-003  0.9118800E+02  0.7818608E-02  0.1130116E+00
         25   -1    0    0    0    0  0.00000000000E+00  0.00000000000E+00  0.99999998245E-14  0.12500000000E+03  0.12500000000E+03 0.  0.
        -13    1    3    3    0    0  0.33313069281E+02  0.41027870340E+02  0.88429601054E+01  0.53584100600E+02  0.10566000000E+00 0.  1.
         23    2    1    0    0    0  0.23971481458E+02  0.76412513381E+01 -0.15043938197E+02  0.95685486159E+02  0.91084419851E+02 0.  0.
         13    1    3    3    0    0 -0.93415878235E+01 -0.33386619002E+02 -0.23886898302E+02  0.42101385559E+02  0.10566000000E+00 0. -1.
         22    1    1    0    0    0 -0.23971481458E+02 -0.76412513381E+01  0.15043938197E+02  0.29314513841E+02  0.00000000000E+00 0.  1.
</event>
<event>
 5    1  0.1724243E-003  0.9118800E+02  0.7818608E-02  0.1130116E+00
         25   -1    0    0    0    0  0.00000000000E+00  0.00000000000E+00  0.99999998245E-14  0.12500000000E+03  0.12500000000E+03 0.  0.
        -13    1    3    3    0    0 -0.37176283876E+02 -0.29158110731E+02  0.33293446135E+02  0.57799102274E+02  0.10566000000E+00 0.  1.
         23    2    1    0    0    0 -0.17674322272E+02  0.11452522124E+01  0.24281355916E+02  0.94945424383E+02  0.90063067324E+02 0.  0.
         13    1    3    3    0    0  0.19501961604E+02  0.30303362943E+02 -0.90120902186E+01  0.37146322108E+02  0.10566000000E+00 0. -1.
         22    1    1    0    0    0  0.17674322272E+02 -0.11452522124E+01 -0.24281355916E+02  0.30054575617E+02  0.00000000000E+00 0.  1.
</event>
<event>
 5    1  0.1724243E-003  0.9118800E+02  0.7818608E-02  0.1130116E+00
         25   -1    0    0    0    0  0.00000000000E+00  0.00000000000E+00  0.99999998245E-14  0.12500000000E+03  0.12500000000E+03 0.  0.
        -13    1    3    3    0    0  0.46670083807E+00 -0.36748195877E+02  0.62204364176E+01  0.37274021827E+02  0.10566000000E+00 0.  1.
         23    2    1    0    0    0  0.18823575166E+02  0.19553322438E+02  0.85653543456E+01  0.96539067207E+02  0.92248397285E+02 0.  0.
         13    1    3    3    0    0  0.18356874328E+02  0.56301518316E+02  0.23449179281E+01  0.59265045380E+02  0.10566000000E+00 0. -1.
         22    1    1    0    0    0 -0.18823575166E+02 -0.19553322438E+02 -0.85653543456E+01  0.28460932793E+02  0.00000000000E+00 0. -1.
</event>
<event>
 5    1  0.1724243E-003  0.9118800E+02  0.7818608E-02  0.1130116E+00
         25   -1    0    0    0    0  0.00000000000E+00  0.00000000000E+00  0.99999998245E-14  0.12500000000E+03  0.12500000000E+03 0.  0.
        -13    1    3    3    0    0 -0.12123766587E+02  0.10662752388E+02 -0.26907700557E+02  0.31380177151E+02  0.10566000000E+00 0.  1.
         23    2    1    0    0    0  0.26841331888E+02  0.30662893043E+01  0.18924630868E+02  0.92015141639E+02  0.85899856867E+02 0.  0.
         13    1    3    3    0    0  0.38965098475E+02 -0.75964630839E+01  0.45832331425E+02  0.60634964488E+02  0.10566000000E+00 0. -1.
         22    1    1    0    0    0 -0.26841331888E+02 -0.30662893043E+01 -0.18924630868E+02  0.32984858361E+02  0.00000000000E+00 0. -1.
</event>
<event>
 5    1  0.1724243E-003  0.9118800E+02  0.7818608E-02  0.1130116E+00
         25   -1    0    0    0    0  0.00000000000E+00  0.00000000000E+00  0.99999998245E-14  0.12500000000E+03  0.12500000000E+03 0.  0.
        -13    1    3    3    0    0 -0.12709838374E+02  0.85869378076E+01  0.34244558796E+02  0.37523012454E+02  0.10566000000E+00 0.  1.
         23    2    1    0    0    0  0.26886030634E+02 -0.82490949743E+01 -0.57818716740E+01  0.96288743476E+02  0.91908573425E+02 0.  0.
         13    1    3    3    0    0  0.39595869008E+02 -0.16836032782E+02 -0.40026430470E+02  0.58765731022E+02  0.10566000000E+00 0. -1.
         22    1    1    0    0    0 -0.26886030634E+02  0.82490949743E+01  0.57818716740E+01  0.28711256524E+02  0.00000000000E+00 0. -1.
</event>
<event>
 5    1  0.1724243E-003  0.9118800E+02  0.7818608E-02  0.1130116E+00
         25   -1    0    0    0    0  0.00000000000E+00  0.00000000000E+00  0.99999998245E-14  0.12500000000E+03  0.12500000000E+03 0.  0.
        -13    1    3    3    0    0  0.33746191413E+02  0.22159036464E+02  0.19183670265E+02  0.44697345567E+02  0.10566000000E+00 0.  1.
         23    2    1    0    0    0  0.11342681155E+02  0.20472965669E+02 -0.22806768231E+02  0.92320535252E+02  0.86343116767E+02 0.  0.
         13    1    3    3    0    0 -0.22403510258E+02 -0.16860707950E+01 -0.41990438496E+02  0.47623189685E+02  0.10566000000E+00 0. -1.
         22    1    1    0    0    0 -0.11342681155E+02 -0.20472965669E+02  0.22806768231E+02  0.32679464748E+02  0.00000000000E+00 0. -1.
</event>
<event>
 5    1  0.1724243E-003  0.9118800E+02  0.7818608E-02  0.1130116E+00
         25   -1    0    0    0    0  0.00000000000E+00  0.00000000000E+00  0.99999998245E-14  0.12500000000E+03  0.12500000000E+03 0.  0.
        -13    1    3    3    0    0  0.37182721559E+02 -0.43806861882E+02 -0.20745669420E+02  0.61090014684E+02  0.10566000000E+00 0. -1.
         23    2    1    0    0    0  0.99645752297E+01 -0.26005119936E+02 -0.11183470725E+02  0.94989517834E+02  0.90124244565E+02 0.  0.
         13    1    3    3    0    0 -0.27218146329E+02  0.17801741945E+02  0.95621986947E+01  0.33899503149E+02  0.10566000000E+00 0.  1.
         22    1    1    0    0    0 -0.99645752297E+01  0.26005119936E+02  0.11183470725E+02  0.30010482166E+02  0.00000000000E+00 0. -1.
</event>
<event>
 5    1  0.1724243E-003  0.9118800E+02  0.7818608E-02  0.1130116E+00
         25   -1    0    0    0    0  0.00000000000E+00  0.00000000000E+00  0.99999998245E-14  0.12500000000E+03  0.12500000000E+03 0.  0.
        -13    1    3    3    0    0  0.42602089174E+02 -0.35326061711E+02 -0.24026034001E+00  0.55343812003E+02  0.10566000000E+00 0.  1.
         23    2    1    0    0    0  0.54747534807E+01 -0.24419667043E+02 -0.13891199547E+02  0.96377308145E+02  0.92028946731E+02 0.  0.
         13    1    3    3    0    0 -0.37127335693E+02  0.10906394669E+02 -0.13650939207E+02  0.41033496142E+02  0.10566000000E+00 0. -1.
         22    1    1    0    0    0 -0.54747534807E+01  0.24419667043E+02  0.13891199547E+02  0.28622691855E+02  0.00000000000E+00 0.  1.
</event>
<event>
 5    1  0.1724243E-003  0.9118800E+02  0.7818608E-02  0.1130116E+00
         25   -1    0    0    0    0  0.00000000000E+00  0.00000000000E+00  0.99999998245E-14  0.12500000000E+03  0.12500000000E+03 0.  0.
        -13    1    3    3    0    0  0.23655718521E+02  0.40644722783E+01 -0.56309314518E+02  0.61211624870E+02  0.10566000000E+00 0.  1.
         23    2    1    0    0    0  0.17006014122E+02 -0.37874917228E+01 -0.22555138752E+02  0.96499405374E+02  0.92194638367E+02 0.  0.
         13    1    3    3    0    0 -0.66497043989E+01 -0.78519640011E+01  0.33754175766E+02  0.35287780504E+02  0.10566000000E+00 0. -1.
         22    1    1    0    0    0 -0.17006014122E+02  0.37874917228E+01  0.22555138752E+02  0.28500594626E+02  0.00000000000E+00 0.  1.
</event>
<event>
 5    1  0.1724243E-003  0.9118800E+02  0.7818608E-02  0.1130116E+00
         25   -1    0    0    0    0  0.00000000000E+00  0.00000000000E+00  0.99999998245E-14  0.12500000000E+03  0.12500000000E+03 0.  0.
        -13    1    3    3    0    0  0.30509728780E+02  0.16934760933E+02 -0.14006528461E+02  0.37600846821E+02  0.10566000000E+00 0. -1.
         23    2    1    0    0    0 -0.70052314349E+01 -0.27294613580E+02 -0.64944813454E+01  0.96082055988E+02  0.91627037478E+02 0.  0.
         13    1    3    3    0    0 -0.37514960215E+02 -0.44229374513E+02  0.75120471158E+01  0.58481209167E+02  0.10566000000E+00 0.  1.
         22    1    1    0    0    0  0.70052314349E+01  0.27294613580E+02  0.64944813454E+01  0.28917944012E+02  0.00000000000E+00 0.  1.
</event>
<event>
 5    1  0.1724243E-003  0.9118800E+02  0.7818608E-02  0.1130116E+00
         25   -1    0    0    0    0  0.00000000000E+00  0.00000000000E+00  0.99999998245E-14  0.12500000000E+03  0.12500000000E+03 0.  0.
        -13    1    3    3    0    0  0.21460017817E+02  0.38005927988E+01 -0.26434775237E+02  0.34260551312E+02  0.10566000000E+00 0. -1.
         23    2    1    0    0    0 -0.46936387897E+00 -0.67000383575E+01  0.29232377609E+02  0.95005955306E+02  0.90147040031E+02 0.  0.
         13    1    3    3    0    0 -0.21929381696E+02 -0.10500631156E+02  0.55667152847E+02  0.60745403993E+02  0.10566000000E+00 0.  1.
         22    1    1    0    0    0  0.46936387897E+00  0.67000383575E+01 -0.29232377609E+02  0.29994044694E+02  0.00000000000E+00 0.  1.
</event>
<event>
 5    1  0.1724243E-003  0.9118800E+02  0.7818608E-02  0.1130116E+00
         25   -1    0    0    0    0  0.00000000000E+00  0.00000000000E+00  0.99999998245E-14  0.12500000000E+03  0.12500000000E+03 0.  0.
        -13    1    3    3    0    0  0.31305847017E+02  0.45405894349E+01 -0.25504127281E+02  0.40634279645E+02  0.10566000000E+00 0.  1.
         23    2    1    0    0    0  0.15387458011E+02  0.66464001603E+01  0.25711152145E+02  0.94307788549E+02  0.89173690836E+02 0.  0.
         13    1    3    3    0    0 -0.15918389006E+02  0.21058107254E+01  0.51215279426E+02  0.53673508904E+02  0.10566000000E+00 0. -1.
         22    1    1    0    0    0 -0.15387458011E+02 -0.66464001603E+01 -0.25711152145E+02  0.30692211451E+02  0.00000000000E+00 0. -1.
</event>
<event>
 5    1  0.1724243E-003  0.9118800E+02  0.7818608E-02  0.1130116E+00
         25   -1    0    0    0    0  0.00000000000E+00  0.00000000000E+00  0.99999998245E-14  0.12500000000E+03  0.12500000000E+03 0.  0.
        -13    1    3    3    0    0  0.28441613135E+02 -0.45390723493E+02 -0.13564703489E+02  0.55256270972E+02  0.10566000000E+00 0.  1.
         23    2    1    0    0    0  0.24646186922E+02 -0.55535968666E+01 -0.15568671124E+02  0.95324075608E+02  0.90587079112E+02 0.  0.
         13    1    3    3    0    0 -0.37954262137E+01  0.39837126627E+02 -0.20039676353E+01  0.40067804636E+02  0.10566000000E+00 0. -1.
         22    1    1    0    0    0 -0.24646186922E+02  0.55535968666E+01  0.15568671124E+02  0.29675924392E+02  0.00000000000E+00 0. -1.
</event>
<event>
 5    1  0.1724243E-003  0.9118800E+02  0.7818608E-02  0.1130116E+00
         25   -1    0    0    0    0  0.00000000000E+00  0.00000000000E+00  0.99999998245E-14  0.12500000000E+03  0.12500000000E+03 0.  0.
        -13    1    3    3    0    0 -0.68561971773E+01  0.86161839696E+01  0.49368895114E+02  0.50582062382E+02  0.10566000000E+00 0.  1.
         23    2    1    0    0    0 -0.44522517392E+01  0.28169281295E+02  0.96947159511E+01  0.94878272434E+02  0.89969817764E+02 0.  0.
         13    1    3    3    0    0  0.24039454380E+01  0.19553097325E+02 -0.39674179163E+02  0.44296210052E+02  0.10566000000E+00 0. -1.
         22    1    1    0    0    0  0.44522517392E+01 -0.28169281295E+02 -0.96947159511E+01  0.30121727566E+02  0.00000000000E+00 0. -1.
</event>
<event>
 5    1  0.1724243E-003  0.9118800E+02  0.7818608E-02  0.1130116E+00
         25   -1    0    0    0    0  0.00000000000E+00  0.00000000000E+00  0.99999998245E-14  0.12500000000E+03  0.12500000000E+03 0.  0.
        -13    1    3    3    0    0 -0.30837179806E+02  0.49823805915E+01  0.12619931438E+02  0.33690200478E+02  0.10566000000E+00 0. -1.
         23    2    1    0    0    0  0.24682436239E+02 -0.17755945434E+02  0.54003999291E+01  0.94118604689E+02  0.88908105211E+02 0.  0.
         13    1    3    3    0    0  0.55519616045E+02 -0.22738326026E+02 -0.72195315089E+01  0.60428404211E+02  0.10566000000E+00 0.  1.
         22    1    1    0    0    0 -0.24682436239E+02  0.17755945434E+02 -0.54003999291E+01  0.30881395311E+02  0.00000000000E+00 0.  1.
</event>
<event>
 5    1  0.1724243E-003  0.9118800E+02  0.7818608E-02  0.1130116E+00
         25   -1    0    0    0    0  0.00000000000E+00  0.00000000000E+00  0.99999998245E-14  0.12500000000E+03  0.12500000000E+03 0.  0.
        -13    1    3    3    0    0 -0.17645478766E-02  0.20115185093E+02  0.29067028924E+02  0.35348606889E+02  0.10566000000E+00 0.  1.
         23    2    1    0    0    0  0.44725625362E+01 -0.30732405258E+02  0.29676717190E+00  0.93942430563E+02  0.88660067904E+02 0.  0.
         13    1    3    3    0    0  0.44743270841E+01 -0.50847590352E+02 -0.28770261752E+02  0.58593823674E+02  0.10566000000E+00 0. -1.
         22    1    1    0    0    0 -0.44725625362E+01  0.30732405258E+02 -0.29676717190E+00  0.31057569437E+02  0.00000000000E+00 0. -1.
</event>
<event>
 5    1  0.1724243E-003  0.9118800E+02  0.7818608E-02  0.1130116E+00
         25   -1    0    0    0    0  0.00000000000E+00  0.00000000000E+00  0.99999998245E-14  0.12500000000E+03  0.12500000000E+03 0.  0.
        -13    1    3    3    0    0  0.25718756411E+02  0.58303408292E+01 -0.20640604795E+02  0.33488700122E+02  0.10566000000E+00 0. -1.
         23    2    1    0    0    0 -0.27290396766E+02 -0.30364731781E+01  0.10497529816E+02  0.95602992377E+02  0.90971138798E+02 0.  0.
         13    1    3    3    0    0 -0.53009153177E+02 -0.88668140073E+01  0.31138134611E+02  0.62114292254E+02  0.10566000000E+00 0.  1.
         22    1    1    0    0    0  0.27290396766E+02  0.30364731781E+01 -0.10497529816E+02  0.29397007623E+02  0.00000000000E+00 0.  1.
</event>
<event>
 5    1  0.1724243E-003  0.9118800E+02  0.7818608E-02  0.1130116E+00
         25   -1    0    0    0    0  0.00000000000E+00  0.00000000000E+00  0.99999998245E-14  0.12500000000E+03  0.12500000000E+03 0.  0.
        -13    1    3    3    0    0 -0.20405661695E+02 -0.37205675501E+02 -0.42133724941E+02  0.59798957016E+02  0.10566000000E+00 0. -1.
         23    2    1    0    0    0 -0.20473026670E+02 -0.10880595583E+02 -0.16495912398E+02  0.96545697915E+02  0.92257381703E+02 0.  0.
         13    1    3    3    0    0 -0.67364974954E-01  0.26325079918E+02  0.25637812543E+02  0.36746740899E+02  0.10566000000E+00 0.  1.
         22    1    1    0    0    0  0.20473026670E+02  0.10880595583E+02  0.16495912398E+02  0.28454302085E+02  0.00000000000E+00 0. -1.
</event>
<event>
 5    1  0.1724243E-003  0.9118800E+02  0.7818608E-02  0.1130116E+00
         25   -1    0    0    0    0  0.00000000000E+00  0.00000000000E+00  0.99999998245E-14  0.12500000000E+03  0.12500000000E+03 0.  0.
        -13    1    3    3    0    0  0.53400139305E+02 -0.20281267355E+02 -0.14944412314E+02  0.59044485829E+02  0.10566000000E+00 0.  1.
         23    2    1    0    0    0  0.27632559756E+02  0.50665194880E+01 -0.67616894243E+01  0.96104525921E+02  0.91657686422E+02 0.  0.
         13    1    3    3    0    0 -0.25767579550E+02  0.25347786843E+02  0.81827228900E+01  0.37060040092E+02  0.10566000000E+00 0. -1.
         22    1    1    0    0    0 -0.27632559756E+02 -0.50665194880E+01  0.67616894243E+01  0.28895474079E+02  0.00000000000E+00 0.  1.
</event>
<event>
 5    1  0.1724243E-003  0.9118800E+02  0.7818608E-02  0.1130116E+00
         25   -1    0    0    0    0  0.00000000000E+00  0.00000000000E+00  0.99999998245E-14  0.12500000000E+03  0.12500000000E+03 0.  0.
        -13    1    3    3    0    0  0.26493717155E+02 -0.22842873657E+02  0.20022914129E+02  0.40306850284E+02  0.10566000000E+00 0. -1.
         23    2    1    0    0    0 -0.18791009521E+02 -0.18930110373E+02 -0.11841145178E+02  0.95816719913E+02  0.91264341219E+02 0.  0.
         13    1    3    3    0    0 -0.45284726675E+02  0.39127632838E+01 -0.31864059307E+02  0.55509869628E+02  0.10566000000E+00 0.  1.
         22    1    1    0    0    0  0.18791009521E+02  0.18930110373E+02  0.11841145178E+02  0.29183280087E+02  0.00000000000E+00 0.  1.
</event>
<event>
 5    1  0.1724243E-003  0.9118800E+02  0.7818608E-02  0.1130116E+00
         25   -1    0    0    0    0  0.00000000000E+00  0.00000000000E+00  0.99999998245E-14  0.12500000000E+03  0.12500000000E+03 0.  0.
        -13    1    3    3    0    0 -0.30831608778E+02 -0.12853605272E+02  0.72864510023E+01  0.34189279030E+02  0.10566000000E+00 0.  1.
         23    2    1    0    0    0  0.25535264259E+02  0.11209995147E+02  0.95581748743E+01  0.95519965758E+02  0.90856983438E+02 0.  0.
         13    1    3    3    0    0  0.56366873037E+02  0.24063600420E+02  0.22717238719E+01  0.61330686728E+02  0.10566000000E+00 0. -1.
         22    1    1    0    0    0 -0.25535264259E+02 -0.11209995147E+02 -0.95581748743E+01  0.29480034242E+02  0.00000000000E+00 0. -1.
</event>
<event>
 5    1  0.1724243E-003  0.9118800E+02  0.7818608E-02  0.1130116E+00
         25   -1    0    0    0    0  0.00000000000E+00  0.00000000000E+00  0.99999998245E-14  0.12500000000E+03  0.12500000000E+03 0.  0.
        -13    1    3    3    0    0 -0.16311227297E+02  0.16850744124E+02 -0.23859848144E+02  0.33456049243E+02  0.10566000000E+00 0.  1.
         23    2    1    0    0    0  0.22355358694E+02 -0.95359528860E+01  0.16794803299E+02  0.95457456480E+02  0.90770943148E+02 0.  0.
         13    1    3    3    0    0  0.38666585991E+02 -0.26386697010E+02  0.40654651443E+02  0.62001407237E+02  0.10566000000E+00 0. -1.
         22    1    1    0    0    0 -0.22355358694E+02  0.95359528860E+01 -0.16794803299E+02  0.29542543520E+02  0.00000000000E+00 0. -1.
</event>
<event>
 5    1  0.1724243E-003  0.9118800E+02  0.7818608E-02  0.1130116E+00
         25   -1    0    0    0    0  0.00000000000E+00  0.00000000000E+00  0.99999998245E-14  0.12500000000E+03  0.12500000000E+03 0.  0.
        -13    1    3    3    0    0 -0.74727678841E+01 -0.32464742451E+02  0.18811434254E+02  0.38258110055E+02  0.10566000000E+00 0.  1.
         23    2    1    0    0    0  0.34734042912E+02 -0.21185722216E+02  0.54021688652E+01  0.83957680484E+02  0.73242201776E+02 0.  0.
         13    1    3    3    0    0  0.42206810796E+02  0.11279020236E+02 -0.13409265389E+02  0.45699570429E+02  0.10566000000E+00 0. -1.
         22    1    1    0    0    0 -0.34734042912E+02  0.21185722216E+02 -0.54021688652E+01  0.41042319516E+02  0.00000000000E+00 0.  1.
</event>
<event>
 5    1  0.1724243E-003  0.9118800E+02  0.7818608E-02  0.1130116E+00
         25   -1    0    0    0    0  0.00000000000E+00  0.00000000000E+00  0.99999998245E-14  0.12500000000E+03  0.12500000000E+03 0.  0.
        -13    1    3    3    0    0  0.24454384999E+02 -0.99054481104E+01 -0.48334126049E+02  0.55066630121E+02  0.10566000000E+00 0.  1.
         23    2    1    0    0    0  0.67076281652E+01 -0.24662695052E+02 -0.15815565734E+02  0.94943837200E+02  0.90060864419E+02 0.  0.
         13    1    3    3    0    0 -0.17746756833E+02 -0.14757246941E+02  0.32518560315E+02  0.39877207079E+02  0.10566000000E+00 0. -1.
         22    1    1    0    0    0 -0.67076281652E+01  0.24662695052E+02  0.15815565734E+02  0.30056162800E+02  0.00000000000E+00 0.  1.
</event>
<event>
 5    1  0.1724243E-003  0.9118800E+02  0.7818608E-02  0.1130116E+00
         25   -1    0    0    0    0  0.00000000000E+00  0.00000000000E+00  0.99999998245E-14  0.12500000000E+03  0.12500000000E+03 0.  0.
        -13    1    3    3    0    0 -0.12201687064E+02 -0.35207581724E+02  0.89685036546E+01  0.38326233834E+02  0.10566000000E+00 0. -1.
         23    2    1    0    0    0 -0.21406402345E+02  0.19928093369E+02 -0.33374281987E+01  0.95563604268E+02  0.90917000979E+02 0.  0.
         13    1    3    3    0    0 -0.92047152811E+01  0.55135675093E+02 -0.12305931853E+02  0.57237370434E+02  0.10566000000E+00 0.  1.
         22    1    1    0    0    0  0.21406402345E+02 -0.19928093369E+02  0.33374281987E+01  0.29436395732E+02  0.00000000000E+00 0.  1.
</event>
<event>
 5    1  0.1724243E-003  0.9118800E+02  0.7818608E-02  0.1130116E+00
         25   -1    0    0    0    0  0.00000000000E+00  0.00000000000E+00  0.99999998245E-14  0.12500000000E+03  0.12500000000E+03 0.  0.
        -13    1    3    3    0    0 -0.50308958684E+00 -0.54975722535E+02 -0.60616005257E+01  0.55311276719E+02  0.10566000000E+00 0. -1.
         23    2    1    0    0    0  0.18655773543E+02 -0.21701669390E+02  0.63928598915E+01  0.95676477047E+02  0.91072055328E+02 0.  0.
         13    1    3    3    0    0  0.19158863130E+02  0.33274053145E+02  0.12454460417E+02  0.40365200327E+02  0.10566000000E+00 0.  1.
         22    1    1    0    0    0 -0.18655773543E+02  0.21701669390E+02 -0.63928598915E+01  0.29323522953E+02  0.00000000000E+00 0. -1.
</event>
<event>
 5    1  0.1724243E-003  0.9118800E+02  0.7818608E-02  0.1130116E+00
         25   -1    0    0    0    0  0.00000000000E+00  0.00000000000E+00  0.99999998245E-14  0.12500000000E+03  0.12500000000E+03 0.  0.
        -13    1    3    3    0    0  0.97792877143E+01 -0.12622626238E+02  0.37042293646E+02  0.40337424854E+02  0.10566000000E+00 0. -1.
         23    2    1    0    0    0  0.27233013319E+01 -0.24783735731E+02 -0.16108244361E+02  0.95316242433E+02  0.90576269565E+02 0.  0.
         13    1    3    3    0    0 -0.70559863824E+01 -0.12161109493E+02 -0.53150538006E+02  0.54978817579E+02  0.10566000000E+00 0.  1.
         22    1    1    0    0    0 -0.27233013319E+01  0.24783735731E+02  0.16108244361E+02  0.29683757567E+02  0.00000000000E+00 0.  1.
</event>
<event>
 5    1  0.1724243E-003  0.9118800E+02  0.7818608E-02  0.1130116E+00
         25   -1    0    0    0    0  0.00000000000E+00  0.00000000000E+00  0.99999998245E-14  0.12500000000E+03  0.12500000000E+03 0.  0.
        -13    1    3    3    0    0  0.18281647689E+02  0.53157646360E+02 -0.50538303172E+01  0.56440290340E+02  0.10566000000E+00 0. -1.
         23    2    1    0    0    0  0.10080938438E+02  0.18396003473E+02 -0.20786962034E+02  0.95468050281E+02  0.90785530622E+02 0.  0.
         13    1    3    3    0    0 -0.82007092509E+01 -0.34761642886E+02 -0.15733131717E+02  0.39027759941E+02  0.10566000000E+00 0.  1.
         22    1    1    0    0    0 -0.10080938438E+02 -0.18396003473E+02  0.20786962034E+02  0.29531949719E+02  0.00000000000E+00 0. -1.
</event>
<event>
 5    1  0.1724243E-003  0.9118800E+02  0.7818608E-02  0.1130116E+00
         25   -1    0    0    0    0  0.00000000000E+00  0.00000000000E+00  0.99999998245E-14  0.12500000000E+03  0.12500000000E+03 0.  0.
        -13    1    3    3    0    0 -0.14749071752E+02  0.29998938400E+02  0.19964256204E+02  0.38936539555E+02  0.10566000000E+00 0. -1.
         23    2    1    0    0    0 -0.16087973691E+02 -0.23556579420E+02 -0.97909532929E+00  0.96457155728E+02  0.92137337339E+02 0.  0.
         13    1    3    3    0    0 -0.13389019390E+01 -0.53555517820E+02 -0.20943351534E+02  0.57520616173E+02  0.10566000000E+00 0.  1.
         22    1    1    0    0    0  0.16087973691E+02  0.23556579420E+02  0.97909532929E+00  0.28542844272E+02  0.00000000000E+00 0.  1.
</event>
<event>
 5    1  0.1724243E-003  0.9118800E+02  0.7818608E-02  0.1130116E+00
         25   -1    0    0    0    0  0.00000000000E+00  0.00000000000E+00  0.99999998245E-14  0.12500000000E+03  0.12500000000E+03 0.  0.
        -13    1    3    3    0    0 -0.36885815909E+02  0.19614013707E+02  0.11803969382E+02  0.43412184997E+02  0.10566000000E+00 0.  1.
         23    2    1    0    0    0  0.14452130048E+02  0.25133882629E+02  0.62239830116E+01  0.95346769427E+02  0.90618388623E+02 0.  0.
         13    1    3    3    0    0  0.51337945957E+02  0.55198689218E+01 -0.55799863700E+01  0.51934584430E+02  0.10566000000E+00 0. -1.
         22    1    1    0    0    0 -0.14452130048E+02 -0.25133882629E+02 -0.62239830116E+01  0.29653230573E+02  0.00000000000E+00 0. -1.
</event>
<event>
 5    1  0.1724243E-003  0.9118800E+02  0.7818608E-02  0.1130116E+00
         25   -1    0    0    0    0  0.00000000000E+00  0.00000000000E+00  0.99999998245E-14  0.12500000000E+03  0.12500000000E+03 0.  0.
        -13    1    3    3    0    0  0.48293774381E+02  0.12581894141E+02 -0.15542298023E+02  0.52270133882E+02  0.10566000000E+00 0. -1.
         23    2    1    0    0    0  0.10743173626E+02 -0.93796177772E+01 -0.24469238691E+02  0.96677982923E+02  0.92436441573E+02 0.  0.
         13    1    3    3    0    0 -0.37550600755E+02 -0.21961511918E+02 -0.89269406674E+01  0.44407849041E+02  0.10566000000E+00 0.  1.
         22    1    1    0    0    0 -0.10743173626E+02  0.93796177772E+01  0.24469238691E+02  0.28322017077E+02  0.00000000000E+00 0.  1.
</event>
<event>
 5    1  0.1724243E-003  0.9118800E+02  0.7818608E-02  0.1130116E+00
         25   -1    0    0    0    0  0.00000000000E+00  0.00000000000E+00  0.99999998245E-14  0.12500000000E+03  0.12500000000E+03 0.  0.
        -13    1    3    3    0    0 -0.19086075220E+02 -0.31389698481E+02  0.55226633462E+01  0.37149729643E+02  0.10566000000E+00 0. -1.
         23    2    1    0    0    0  0.18681223221E+02 -0.47984719463E+00 -0.24300980327E+02  0.94344560039E+02  0.89225220705E+02 0.  0.
         13    1    3    3    0    0  0.37767298441E+02  0.30909851287E+02 -0.29823643673E+02  0.57194830396E+02  0.10566000000E+00 0.  1.
         22    1    1    0    0    0 -0.18681223221E+02  0.47984719463E+00  0.24300980327E+02  0.30655439961E+02  0.00000000000E+00 0.  1.
</event>
<event>
 5    1  0.1724243E-003  0.9118800E+02  0.7818608E-02  0.1130116E+00
         25   -1    0    0    0    0  0.00000000000E+00  0.00000000000E+00  0.99999998245E-14  0.12500000000E+03  0.12500000000E+03 0.  0.
        -13    1    3    3    0    0  0.65044708643E+01 -0.49048364822E+02  0.70560818384E+01  0.49978492253E+02  0.10566000000E+00 0.  1.
         23    2    1    0    0    0 -0.23062084465E+02 -0.12041891040E+02  0.92268659552E+01  0.97395617467E+02  0.93401843487E+02 0.  0.
         13    1    3    3    0    0 -0.29566555329E+02  0.37006473782E+02  0.21707841168E+01  0.47417125214E+02  0.10566000000E+00 0. -1.
         22    1    1    0    0    0  0.23062084465E+02  0.12041891040E+02 -0.92268659552E+01  0.27604382533E+02  0.00000000000E+00 0. -1.
</event>
<event>
 5    1  0.1724243E-003  0.9118800E+02  0.7818608E-02  0.1130116E+00
         25   -1    0    0    0    0  0.00000000000E+00  0.00000000000E+00  0.99999998245E-14  0.12500000000E+03  0.12500000000E+03 0.  0.
        -13    1    3    3    0    0 -0.30585407752E+02 -0.32677392228E+02 -0.16021191484E+02  0.47539129891E+02  0.10566000000E+00 0.  1.
         23    2    1    0    0    0  0.13029525130E+02 -0.10442182591E+02 -0.22563371726E+02  0.96930204026E+02  0.92776888321E+02 0.  0.
         13    1    3    3    0    0  0.43614932882E+02  0.22235209637E+02 -0.65421802416E+01  0.49391074135E+02  0.10566000000E+00 0. -1.
         22    1    1    0    0    0 -0.13029525130E+02  0.10442182591E+02  0.22563371726E+02  0.28069795974E+02  0.00000000000E+00 0.  1.
</event>
<event>
 5    1  0.1724243E-003  0.9118800E+02  0.7818608E-02  0.1130116E+00
         25   -1    0    0    0    0  0.00000000000E+00  0.00000000000E+00  0.99999998245E-14  0.12500000000E+03  0.12500000000E+03 0.  0.
        -13    1    3    3    0    0 -0.35625107740E+00 -0.29765292607E+02  0.50073593129E+02  0.58253544542E+02  0.10566000000E+00 0. -1.
         23    2    1    0    0    0  0.15636514289E+02 -0.15167071637E+02  0.19208989757E+02  0.95956482158E+02  0.91455565929E+02 0.  0.
         13    1    3    3    0    0  0.15992765367E+02  0.14598220970E+02 -0.30864603371E+02  0.37702937616E+02  0.10566000000E+00 0.  1.
         22    1    1    0    0    0 -0.15636514289E+02  0.15167071637E+02 -0.19208989757E+02  0.29043517842E+02  0.00000000000E+00 0. -1.
</event>
<event>
 5    1  0.1724243E-003  0.9118800E+02  0.7818608E-02  0.1130116E+00
         25   -1    0    0    0    0  0.00000000000E+00  0.00000000000E+00  0.99999998245E-14  0.12500000000E+03  0.12500000000E+03 0.  0.
        -13    1    3    3    0    0  0.35787576292E+02 -0.39715213484E+01  0.10801720313E+02  0.37592711055E+02  0.10566000000E+00 0.  1.
         23    2    1    0    0    0 -0.18599838637E+02  0.15753755093E+02  0.16253518971E+02  0.95703043234E+02  0.91108511174E+02 0.  0.
         13    1    3    3    0    0 -0.54387414929E+02  0.19725276441E+02  0.54517986580E+01  0.58110332179E+02  0.10566000000E+00 0. -1.
         22    1    1    0    0    0  0.18599838637E+02 -0.15753755093E+02 -0.16253518971E+02  0.29296956766E+02  0.00000000000E+00 0. -1.
</event>
<event>
 5    1  0.1724243E-003  0.9118800E+02  0.7818608E-02  0.1130116E+00
         25   -1    0    0    0    0  0.00000000000E+00  0.00000000000E+00  0.99999998245E-14  0.12500000000E+03  0.12500000000E+03 0.  0.
        -13    1    3    3    0    0 -0.15802012207E-01 -0.25211716870E+02  0.25781208250E+02  0.36059849973E+02  0.10566000000E+00 0. -1.
         23    2    1    0    0    0 -0.15038195979E+02  0.25213590511E+02 -0.20278926351E+01  0.95572379755E+02  0.90929065423E+02 0.  0.
         13    1    3    3    0    0 -0.15022393967E+02  0.50425307381E+02 -0.27809100885E+02  0.59512529782E+02  0.10566000000E+00 0.  1.
         22    1    1    0    0    0  0.15038195979E+02 -0.25213590511E+02  0.20278926351E+01  0.29427620245E+02  0.00000000000E+00 0.  1.
</event>
<event>
 5    1  0.1724243E-003  0.9118800E+02  0.7818608E-02  0.1130116E+00
         25   -1    0    0    0    0  0.00000000000E+00  0.00000000000E+00  0.99999998245E-14  0.12500000000E+03  0.12500000000E+03 0.  0.
        -13    1    3    3    0    0 -0.43783780462E+02 -0.15108001300E+02  0.28219050172E+02  0.54236492249E+02  0.10566000000E+00 0.  1.
         23    2    1    0    0    0 -0.26559364826E+02  0.12501726802E+02  0.28334707760E+01  0.95508957468E+02  0.90841837096E+02 0.  0.
         13    1    3    3    0    0  0.17224415636E+02  0.27609728103E+02 -0.25385579396E+02  0.41272465218E+02  0.10566000000E+00 0. -1.
         22    1    1    0    0    0  0.26559364826E+02 -0.12501726802E+02 -0.28334707760E+01  0.29491042532E+02  0.00000000000E+00 0.  1.
</event>
<event>
 5    1  0.1724243E-003  0.9118800E+02  0.7818608E-02  0.1130116E+00
         25   -1    0    0    0    0  0.00000000000E+00  0.00000000000E+00  0.99999998245E-14  0.12500000000E+03  0.12500000000E+03 0.  0.
        -13    1    3    3    0    0 -0.39398900073E+02  0.27386733569E+02  0.16052796493E+02  0.50596540809E+02  0.10566000000E+00 0.  1.
         23    2    1    0    0    0 -0.63837742119E+01 -0.19141212310E+01  0.27911328490E+02  0.96304030050E+02  0.91929361537E+02 0.  0.
         13    1    3    3    0    0  0.33015125861E+02 -0.29300854800E+02  0.11858531997E+02  0.45707489242E+02  0.10566000000E+00 0. -1.
         22    1    1    0    0    0  0.63837742119E+01  0.19141212310E+01 -0.27911328490E+02  0.28695969950E+02  0.00000000000E+00 0.  1.
</event>
<event>
 5    1  0.1724243E-003  0.9118800E+02  0.7818608E-02  0.1130116E+00
         25   -1    0    0    0    0  0.00000000000E+00  0.00000000000E+00  0.99999998245E-14  0.12500000000E+03  0.12500000000E+03 0.  0.
        -13    1    3    3    0    0  0.17667308288E+02 -0.33740440464E+02 -0.21835691943E+02  0.43901705109E+02  0.10566000000E+00 0.  1.
         23    2    1    0    0    0 -0.20197246304E+02 -0.20391033131E+02  0.94313397618E+01  0.94789519035E+02  0.89846423183E+02 0.  0.
         13    1    3    3    0    0 -0.37864554591E+02  0.13349407332E+02  0.31267031705E+02  0.50887813926E+02  0.10566000000E+00 0. -1.
         22    1    1    0    0    0  0.20197246304E+02  0.20391033131E+02 -0.94313397618E+01  0.30210480965E+02  0.00000000000E+00 0. -1.
</event>
<event>
 5    1  0.1724243E-003  0.9118800E+02  0.7818608E-02  0.1130116E+00
         25   -1    0    0    0    0  0.00000000000E+00  0.00000000000E+00  0.99999998245E-14  0.12500000000E+03  0.12500000000E+03 0.  0.
        -13    1    3    3    0    0 -0.70490976849E+01 -0.36740448035E+02  0.48521255471E+02  0.61268864005E+02  0.10566000000E+00 0.  1.
         23    2    1    0    0    0 -0.97176893301E+01 -0.10373366615E+02  0.22334128401E+02  0.98526361937E+02  0.94903058350E+02 0.  0.
         13    1    3    3    0    0 -0.26685916452E+01  0.26367081419E+02 -0.26187127070E+02  0.37257497932E+02  0.10566000000E+00 0. -1.
         22    1    1    0    0    0  0.97176893301E+01  0.10373366615E+02 -0.22334128401E+02  0.26473638063E+02  0.00000000000E+00 0.  1.
</event>
<event>
 5    1  0.1724243E-003  0.9118800E+02  0.7818608E-02  0.1130116E+00
         25   -1    0    0    0    0  0.00000000000E+00  0.00000000000E+00  0.99999998245E-14  0.12500000000E+03  0.12500000000E+03 0.  0.
        -13    1    3    3    0    0  0.32749011313E+02 -0.25184872952E+02  0.16568357222E+02  0.44511764654E+02  0.10566000000E+00 0. -1.
         23    2    1    0    0    0  0.19486618607E+02 -0.20165308312E+02 -0.24377130135E+02  0.87843406539E+02  0.79598063008E+02 0.  0.
         13    1    3    3    0    0 -0.13262392706E+02  0.50195646404E+01 -0.40945487357E+02  0.43331641884E+02  0.10566000000E+00 0.  1.
         22    1    1    0    0    0 -0.19486618607E+02  0.20165308312E+02  0.24377130135E+02  0.37156593461E+02  0.00000000000E+00 0.  1.
</event>
<event>
 5    1  0.1724243E-003  0.9118800E+02  0.7818608E-02  0.1130116E+00
         25   -1    0    0    0    0  0.00000000000E+00  0.00000000000E+00  0.99999998245E-14  0.12500000000E+03  0.12500000000E+03 0.  0.
        -13    1    3    3    0    0 -0.49064500657E+01 -0.58254513098E+00 -0.35414239724E+02  0.35757406930E+02  0.10566000000E+00 0. -1.
         23    2    1    0    0    0 -0.23564757773E+02  0.15375028479E+02  0.15927656436E+02  0.92667670217E+02  0.86844214281E+02 0.  0.
         13    1    3    3    0    0 -0.18658307708E+02  0.15957573610E+02  0.51341896160E+02  0.56910263287E+02  0.10566000000E+00 0.  1.
         22    1    1    0    0    0  0.23564757773E+02 -0.15375028479E+02 -0.15927656436E+02  0.32332329783E+02  0.00000000000E+00 0.  1.
</event>
<event>
 5    1  0.1724243E-003  0.9118800E+02  0.7818608E-02  0.1130116E+00
         25   -1    0    0    0    0  0.00000000000E+00  0.00000000000E+00  0.99999998245E-14  0.12500000000E+03  0.12500000000E+03 0.  0.
        -13    1    3    3    0    0 -0.45062645125E+02  0.37361259809E+01  0.36610315787E+02  0.58180125551E+02  0.10566000000E+00 0.  1.
         23    2    1    0    0    0 -0.10386457788E+02  0.14447978096E+02  0.44835333902E+01  0.10664994147E+03  0.10505943731E+03 0.  0.
         13    1    3    3    0    0  0.34676187337E+02  0.10711852115E+02 -0.32126782397E+02  0.48469815918E+02  0.10566000000E+00 0. -1.
         22    1    1    0    0    0  0.10386457788E+02 -0.14447978096E+02 -0.44835333902E+01  0.18350058531E+02  0.00000000000E+00 0.  1.
</event>
<event>
 5    1  0.1724243E-003  0.9118800E+02  0.7818608E-02  0.1130116E+00
         25   -1    0    0    0    0  0.00000000000E+00  0.00000000000E+00  0.99999998245E-14  0.12500000000E+03  0.12500000000E+03 0.  0.
        -13    1    3    3    0    0 -0.19869452898E+02  0.25617880819E+02 -0.20833577506E+02  0.38537255894E+02  0.10566000000E+00 0. -1.
         23    2    1    0    0    0 -0.39396369175E+01 -0.20659212583E+02 -0.30031698827E+02  0.88336302177E+02  0.80368374030E+02 0.  0.
         13    1    3    3    0    0  0.15929815980E+02 -0.46277093402E+02 -0.91981213216E+01  0.49799046284E+02  0.10566000000E+00 0.  1.
         22    1    1    0    0    0  0.39396369175E+01  0.20659212583E+02  0.30031698827E+02  0.36663697823E+02  0.00000000000E+00 0.  1.
</event>
<event>
 5    1  0.1724243E-003  0.9118800E+02  0.7818608E-02  0.1130116E+00
         25   -1    0    0    0    0  0.00000000000E+00  0.00000000000E+00  0.99999998245E-14  0.12500000000E+03  0.12500000000E+03 0.  0.
        -13    1    3    3    0    0 -0.28471953456E+01  0.40632317257E+02  0.40864847107E+02  0.57697821624E+02  0.10566000000E+00 0.  1.
         23    2    1    0    0    0 -0.18173158859E+02  0.16648281128E+02  0.15059451502E+02  0.96117201538E+02  0.91674971419E+02 0.  0.
         13    1    3    3    0    0 -0.15325963514E+02 -0.23984036129E+02 -0.25805395605E+02  0.38419379915E+02  0.10566000000E+00 0. -1.
         22    1    1    0    0    0  0.18173158859E+02 -0.16648281128E+02 -0.15059451502E+02  0.28882798462E+02  0.00000000000E+00 0.  1.
</event>
<event>
 5    1  0.1724243E-003  0.9118800E+02  0.7818608E-02  0.1130116E+00
         25   -1    0    0    0    0  0.00000000000E+00  0.00000000000E+00  0.99999998245E-14  0.12500000000E+03  0.12500000000E+03 0.  0.
        -13    1    3    3    0    0 -0.22469162316E+02 -0.46063484918E+02  0.11325607623E+02  0.52487983863E+02  0.10566000000E+00 0.  1.
         23    2    1    0    0    0 -0.16914628486E+01 -0.12008985871E+02  0.27040511064E+02  0.95364446575E+02  0.90642769396E+02 0.  0.
         13    1    3    3    0    0  0.20777699467E+02  0.34054499047E+02  0.15714903441E+02  0.42876462712E+02  0.10566000000E+00 0. -1.
         22    1    1    0    0    0  0.16914628486E+01  0.12008985871E+02 -0.27040511064E+02  0.29635553425E+02  0.00000000000E+00 0.  1.
</event>
<event>
 4    1  0.1724243E-003  0.9118800E+02  0.7818608E-02  0.1130116E+00
         25   -1    0    0    0    0  0.00000000000E+00  0.00000000000E+00  0.99999998245E-14  0.12500000000E+03  0.12500000000E+03 0.  0.
        -13    1    1    0    0    0  0.15289977115E+01  0.18871656344E+01 -0.24832996137E+00  0.24437798466E+01  0.10566000000E+00 0. -1.
         13    1    1    0    0    0 -0.31223123968E+02 -0.38519245202E+02  0.37739636125E+02  0.62312976338E+02  0.10566000000E+00 0.  1.
         22    1    1    0    0    0  0.29694126256E+02  0.36632079568E+02 -0.37491306163E+02  0.60243243815E+02  0.00000000000E+00 0.  1.
</event>
<event>
 5    1  0.1724243E-003  0.9118800E+02  0.7818608E-02  0.1130116E+00
         25   -1    0    0    0    0  0.00000000000E+00  0.00000000000E+00  0.99999998245E-14  0.12500000000E+03  0.12500000000E+03 0.  0.
        -13    1    3    3    0    0  0.19795233041E+02  0.39749962071E+02 -0.22097181236E+01  0.44461272519E+02  0.10566000000E+00 0. -1.
         23    2    1    0    0    0  0.60533485280E+01 -0.32958277971E+01 -0.27777955761E+02  0.96379721603E+02  0.92032224795E+02 0.  0.
         13    1    3    3    0    0 -0.13741884513E+02 -0.43045789868E+02 -0.25568237637E+02  0.51918449084E+02  0.10566000000E+00 0.  1.
         22    1    1    0    0    0 -0.60533485280E+01  0.32958277971E+01  0.27777955761E+02  0.28620278397E+02  0.00000000000E+00 0.  1.
</event>
<event>
 5    1  0.1724243E-003  0.9118800E+02  0.7818608E-02  0.1130116E+00
         25   -1    0    0    0    0  0.00000000000E+00  0.00000000000E+00  0.99999998245E-14  0.12500000000E+03  0.12500000000E+03 0.  0.
        -13    1    3    3    0    0  0.20201209910E+02 -0.11828107334E+02  0.87763948812E+01  0.25000585515E+02  0.10566000000E+00 0.  1.
         23    2    1    0    0    0 -0.19871782241E+02  0.29113328388E+02 -0.14562713672E+02  0.86861486018E+02  0.78040832290E+02 0.  0.
         13    1    3    3    0    0 -0.40072992151E+02  0.40941435723E+02 -0.23339108553E+02  0.61860900503E+02  0.10566000000E+00 0. -1.
         22    1    1    0    0    0  0.19871782241E+02 -0.29113328388E+02  0.14562713672E+02  0.38138513982E+02  0.00000000000E+00 0. -1.
</event>
<event>
 5    1  0.1724243E-003  0.9118800E+02  0.7818608E-02  0.1130116E+00
         25   -1    0    0    0    0  0.00000000000E+00  0.00000000000E+00  0.99999998245E-14  0.12500000000E+03  0.12500000000E+03 0.  0.
        -13    1    3    3    0    0 -0.42162040237E+02 -0.44406886598E+02  0.80408499589E+01  0.61759822266E+02  0.10566000000E+00 0.  1.
         23    2    1    0    0    0 -0.32477603281E+02 -0.26423281767E+02  0.88689274607E+01  0.82202308374E+02  0.70182455739E+02 0.  0.
         13    1    3    3    0    0  0.96844369565E+01  0.17983604831E+02  0.82807750181E+00  0.20442486108E+02  0.10566000000E+00 0. -1.
         22    1    1    0    0    0  0.32477603281E+02  0.26423281767E+02 -0.88689274607E+01  0.42797691626E+02  0.00000000000E+00 0.  1.
</event>
<event>
 5    1  0.1724243E-003  0.9118800E+02  0.7818608E-02  0.1130116E+00
         25   -1    0    0    0    0  0.00000000000E+00  0.00000000000E+00  0.99999998245E-14  0.12500000000E+03  0.12500000000E+03 0.  0.
        -13    1    3    3    0    0  0.41158366778E+02 -0.23827188392E+02  0.21848749340E+02  0.52336651348E+02  0.10566000000E+00 0. -1.
         23    2    1    0    0    0  0.27870296150E+02  0.49930268461E+01 -0.76558462619E+01  0.95669202081E+02  0.91062069602E+02 0.  0.
         13    1    3    3    0    0 -0.13288070628E+02  0.28820215238E+02 -0.29504595602E+02  0.43332550733E+02  0.10566000000E+00 0.  1.
         22    1    1    0    0    0 -0.27870296150E+02 -0.49930268461E+01  0.76558462619E+01  0.29330797919E+02  0.00000000000E+00 0. -1.
</event>
<event>
 5    1  0.1724243E-003  0.9118800E+02  0.7818608E-02  0.1130116E+00
         25   -1    0    0    0    0  0.00000000000E+00  0.00000000000E+00  0.99999998245E-14  0.12500000000E+03  0.12500000000E+03 0.  0.
        -13    1    3    3    0    0  0.25727373972E+02 -0.18585303866E+02 -0.45458519907E+01  0.32062239872E+02  0.10566000000E+00 0. -1.
         23    2    1    0    0    0 -0.17157885033E+02 -0.95851315151E+01  0.30870103484E+02  0.88404494073E+02  0.80474365597E+02 0.  0.
         13    1    3    3    0    0 -0.42885259004E+02  0.90001723508E+01  0.35415955475E+02  0.56342254201E+02  0.10566000000E+00 0.  1.
         22    1    1    0    0    0  0.17157885033E+02  0.95851315151E+01 -0.30870103484E+02  0.36595505927E+02  0.00000000000E+00 0.  1.
</event>
<event>
 5    1  0.1724243E-003  0.9118800E+02  0.7818608E-02  0.1130116E+00
         25   -1    0    0    0    0  0.00000000000E+00  0.00000000000E+00  0.99999998245E-14  0.12500000000E+03  0.12500000000E+03 0.  0.
        -13    1    3    3    0    0 -0.27826449613E+02 -0.24327023644E+02  0.43488313820E+02  0.57073286049E+02  0.10566000000E+00 0.  1.
         23    2    1    0    0    0 -0.21176398200E+02  0.52588296573E+01  0.19459265324E+02  0.95763753028E+02  0.91191766388E+02 0.  0.
         13    1    3    3    0    0  0.66500514132E+01  0.29585853301E+02 -0.24029048497E+02  0.38690466979E+02  0.10566000000E+00 0. -1.
         22    1    1    0    0    0  0.21176398200E+02 -0.52588296573E+01 -0.19459265324E+02  0.29236246972E+02  0.00000000000E+00 0.  1.
</event>
<event>
 5    1  0.1724243E-003  0.9118800E+02  0.7818608E-02  0.1130116E+00
         25   -1    0    0    0    0  0.00000000000E+00  0.00000000000E+00  0.99999998245E-14  0.12500000000E+03  0.12500000000E+03 0.  0.
        -13    1    3    3    0    0 -0.40438932146E+02 -0.22254972119E+02 -0.20242601370E+02  0.50402034596E+02  0.10566000000E+00 0.  1.
         23    2    1    0    0    0 -0.25492037802E+01 -0.27182782877E+02  0.63689733223E+01  0.96964915801E+02  0.92823644349E+02 0.  0.
         13    1    3    3    0    0  0.37889728366E+02 -0.49278107586E+01  0.26611574692E+02  0.46562881205E+02  0.10566000000E+00 0. -1.
         22    1    1    0    0    0  0.25492037802E+01  0.27182782877E+02 -0.63689733223E+01  0.28035084199E+02  0.00000000000E+00 0. -1.
</event>
<event>
 5    1  0.1724243E-003  0.9118800E+02  0.7818608E-02  0.1130116E+00
         25   -1    0    0    0    0  0.00000000000E+00  0.00000000000E+00  0.99999998245E-14  0.12500000000E+03  0.12500000000E+03 0.  0.
        -13    1    3    3    0    0 -0.83229087692E+01  0.27700038241E+02 -0.22562606430E+02  0.36683038340E+02  0.10566000000E+00 0.  1.
         23    2    1    0    0    0 -0.78816141264E+01 -0.36788259288E+01  0.27715732513E+02  0.95951498658E+02  0.91448754309E+02 0.  0.
         13    1    3    3    0    0  0.44129464279E+00 -0.31378864170E+02  0.50278338943E+02  0.59268460318E+02  0.10566000000E+00 0. -1.
         22    1    1    0    0    0  0.78816141264E+01  0.36788259288E+01 -0.27715732513E+02  0.29048501342E+02  0.00000000000E+00 0. -1.
</event>
<event>
 5    1  0.1724243E-003  0.9118800E+02  0.7818608E-02  0.1130116E+00
         25   -1    0    0    0    0  0.00000000000E+00  0.00000000000E+00  0.99999998245E-14  0.12500000000E+03  0.12500000000E+03 0.  0.
        -13    1    3    3    0    0 -0.30788778264E+02 -0.10295400998E+02  0.26730581392E+02  0.42053291124E+02  0.10566000000E+00 0.  1.
         23    2    1    0    0    0  0.13800325166E+02  0.17603562020E+02  0.19840185900E+02  0.95100713269E+02  0.90278338029E+02 0.  0.
         13    1    3    3    0    0  0.44589103430E+02  0.27898963018E+02 -0.68903954921E+01  0.53047422145E+02  0.10566000000E+00 0. -1.
         22    1    1    0    0    0 -0.13800325166E+02 -0.17603562020E+02 -0.19840185900E+02  0.29899286731E+02  0.00000000000E+00 0. -1.
</event>
<event>
 5    1  0.1724243E-003  0.9118800E+02  0.7818608E-02  0.1130116E+00
         25   -1    0    0    0    0  0.00000000000E+00  0.00000000000E+00  0.99999998245E-14  0.12500000000E+03  0.12500000000E+03 0.  0.
        -13    1    3    3    0    0 -0.52576675390E+02  0.21090858410E+02 -0.23983880247E+02  0.61517223437E+02  0.10566000000E+00 0. -1.
         23    2    1    0    0    0 -0.25475152841E+02  0.12805894143E+02 -0.39685451777E+01  0.96212438660E+02  0.91804736616E+02 0.  0.
         13    1    3    3    0    0  0.27101522550E+02 -0.82849642669E+01  0.20015335070E+02  0.34695215224E+02  0.10566000000E+00 0.  1.
         22    1    1    0    0    0  0.25475152841E+02 -0.12805894143E+02  0.39685451777E+01  0.28787561340E+02  0.00000000000E+00 0. -1.
</event>
<event>
 5    1  0.1724243E-003  0.9118800E+02  0.7818608E-02  0.1130116E+00
         25   -1    0    0    0    0  0.00000000000E+00  0.00000000000E+00  0.99999998245E-14  0.12500000000E+03  0.12500000000E+03 0.  0.
        -13    1    3    3    0    0  0.11929481087E+02 -0.27895471884E+02 -0.27982301850E+02  0.41273360071E+02  0.10566000000E+00 0. -1.
         23    2    1    0    0    0 -0.15356910860E+02 -0.15051151827E+02  0.18467762664E+02  0.96655156725E+02  0.92405568995E+02 0.  0.
         13    1    3    3    0    0 -0.27286391946E+02  0.12844320058E+02  0.46450064515E+02  0.55381796654E+02  0.10566000000E+00 0.  1.
         22    1    1    0    0    0  0.15356910860E+02  0.15051151827E+02 -0.18467762664E+02  0.28344843275E+02  0.00000000000E+00 0.  1.
</event>
<event>
 5    1  0.1724243E-003  0.9118800E+02  0.7818608E-02  0.1130116E+00
         25   -1    0    0    0    0  0.00000000000E+00  0.00000000000E+00  0.99999998245E-14  0.12500000000E+03  0.12500000000E+03 0.  0.
        -13    1    3    3    0    0 -0.56262793791E+02 -0.94612787508E+01 -0.17535979793E+02  0.59687012927E+02  0.10566000000E+00 0. -1.
         23    2    1    0    0    0 -0.25433662372E+02  0.87865596591E+01 -0.99806512197E+01  0.96300031166E+02  0.91923923935E+02 0.  0.
         13    1    3    3    0    0  0.30829131419E+02  0.18247838410E+02  0.75553285730E+01  0.36613018239E+02  0.10566000000E+00 0.  1.
         22    1    1    0    0    0  0.25433662372E+02 -0.87865596591E+01  0.99806512197E+01  0.28699968834E+02  0.00000000000E+00 0. -1.
</event>
<event>
 5    1  0.1724243E-003  0.9118800E+02  0.7818608E-02  0.1130116E+00
         25   -1    0    0    0    0  0.00000000000E+00  0.00000000000E+00  0.99999998245E-14  0.12500000000E+03  0.12500000000E+03 0.  0.
        -13    1    3    3    0    0  0.48570224055E+02 -0.25873351430E+02 -0.51522785236E+01  0.55272543971E+02  0.10566000000E+00 0. -1.
         23    2    1    0    0    0  0.11599438425E+02 -0.28958735354E+02 -0.88973429369E+01  0.92560548148E+02  0.86689890051E+02 0.  0.
         13    1    3    3    0    0 -0.36970785630E+02 -0.30853839244E+01 -0.37450644133E+01  0.37288004177E+02  0.10566000000E+00 0.  1.
         22    1    1    0    0    0 -0.11599438425E+02  0.28958735354E+02  0.88973429369E+01  0.32439451852E+02  0.00000000000E+00 0. -1.
</event>
<event>
 5    1  0.1724243E-003  0.9118800E+02  0.7818608E-02  0.1130116E+00
         25   -1    0    0    0    0  0.00000000000E+00  0.00000000000E+00  0.99999998245E-14  0.12500000000E+03  0.12500000000E+03 0.  0.
        -13    1    3    3    0    0  0.32866638757E+02  0.67282032203E+01  0.38767642595E+02  0.51268176661E+02  0.10566000000E+00 0. -1.
         23    2    1    0    0    0  0.10217711632E+01  0.25404467872E+02  0.11897776433E+02  0.96928874476E+02  0.92775096976E+02 0.  0.
         13    1    3    3    0    0 -0.31844867593E+02  0.18676264651E+02 -0.26869866162E+02  0.45660697815E+02  0.10566000000E+00 0.  1.
         22    1    1    0    0    0 -0.10217711632E+01 -0.25404467872E+02 -0.11897776433E+02  0.28071125524E+02  0.00000000000E+00 0. -1.
</event>
<event>
 5    1  0.1724243E-003  0.9118800E+02  0.7818608E-02  0.1130116E+00
         25   -1    0    0    0    0  0.00000000000E+00  0.00000000000E+00  0.99999998245E-14  0.12500000000E+03  0.12500000000E+03 0.  0.
        -13    1    3    3    0    0 -0.40491372814E+02 -0.24073141865E+02  0.11501011457E+02  0.48490739943E+02  0.10566000000E+00 0. -1.
         23    2    1    0    0    0 -0.19640286471E+02  0.17996672812E+02  0.12763549725E+02  0.95461393287E+02  0.90776364335E+02 0.  0.
         13    1    3    3    0    0  0.20851086344E+02  0.42069814677E+02  0.12625382689E+01  0.46970653344E+02  0.10566000000E+00 0.  1.
         22    1    1    0    0    0  0.19640286471E+02 -0.17996672812E+02 -0.12763549725E+02  0.29538606713E+02  0.00000000000E+00 0. -1.
</event>
<event>
 5    1  0.1724243E-003  0.9118800E+02  0.7818608E-02  0.1130116E+00
         25   -1    0    0    0    0  0.00000000000E+00  0.00000000000E+00  0.99999998245E-14  0.12500000000E+03  0.12500000000E+03 0.  0.
        -13    1    3    3    0    0  0.72237826171E+01 -0.36771092363E+02  0.47711411503E+02  0.60668659293E+02  0.10566000000E+00 0. -1.
         23    2    1    0    0    0 -0.52350672558E-01 -0.87023290837E+01  0.27867264859E+02  0.95805518967E+02  0.91248998580E+02 0.  0.
         13    1    3    3    0    0 -0.72761332897E+01  0.28068763279E+02 -0.19844146644E+02  0.35136859674E+02  0.10566000000E+00 0.  1.
         22    1    1    0    0    0  0.52350672558E-01  0.87023290837E+01 -0.27867264859E+02  0.29194481033E+02  0.00000000000E+00 0. -1.
</event>
<event>
 5    1  0.1724243E-003  0.9118800E+02  0.7818608E-02  0.1130116E+00
         25   -1    0    0    0    0  0.00000000000E+00  0.00000000000E+00  0.99999998245E-14  0.12500000000E+03  0.12500000000E+03 0.  0.
        -13    1    3    3    0    0 -0.46222222436E+02 -0.39089635438E+02 -0.15177151315E+02  0.62408737623E+02  0.10566000000E+00 0. -1.
         23    2    1    0    0    0 -0.20587324997E+02 -0.20290900185E+02 -0.81794102990E+01  0.94959005780E+02  0.90081915195E+02 0.  0.
         13    1    3    3    0    0  0.25634897439E+02  0.18798735253E+02  0.69977410161E+01  0.32550268158E+02  0.10566000000E+00 0.  1.
         22    1    1    0    0    0  0.20587324997E+02  0.20290900185E+02  0.81794102990E+01  0.30040994220E+02  0.00000000000E+00 0. -1.
</event>
<event>
 5    1  0.1724243E-003  0.9118800E+02  0.7818608E-02  0.1130116E+00
         25   -1    0    0    0    0  0.00000000000E+00  0.00000000000E+00  0.99999998245E-14  0.12500000000E+03  0.12500000000E+03 0.  0.
        -13    1    3    3    0    0 -0.16862907975E+02  0.18343585907E+02 -0.49476816911E+02  0.55396853566E+02  0.10566000000E+00 0. -1.
         23    2    1    0    0    0 -0.25821553823E+02  0.31621362291E+01 -0.12981624371E+02  0.95926398250E+02  0.91414438480E+02 0.  0.
         13    1    3    3    0    0 -0.89586458476E+01 -0.15181449678E+02  0.36495192540E+02  0.40529544684E+02  0.10566000000E+00 0.  1.
         22    1    1    0    0    0  0.25821553823E+02 -0.31621362291E+01  0.12981624371E+02  0.29073601750E+02  0.00000000000E+00 0. -1.
</event>
<event>
 5    1  0.1724243E-003  0.9118800E+02  0.7818608E-02  0.1130116E+00
         25   -1    0    0    0    0  0.00000000000E+00  0.00000000000E+00  0.99999998245E-14  0.12500000000E+03  0.12500000000E+03 0.  0.
        -13    1    3    3    0    0  0.31424213001E+02  0.39047609495E+02  0.34159909758E+02  0.60655647460E+02  0.10566000000E+00 0.  1.
         23    2    1    0    0    0  0.21953075322E+02  0.18096527134E+02  0.80784234084E+01  0.95424964325E+02  0.90726187407E+02 0.  0.
         13    1    3    3    0    0 -0.94711376790E+01 -0.20951082362E+02 -0.26081486350E+02  0.34769316866E+02  0.10566000000E+00 0. -1.
         22    1    1    0    0    0 -0.21953075322E+02 -0.18096527134E+02 -0.80784234084E+01  0.29575035675E+02  0.00000000000E+00 0.  1.
</event>
<event>
 5    1  0.1724243E-003  0.9118800E+02  0.7818608E-02  0.1130116E+00
         25   -1    0    0    0    0  0.00000000000E+00  0.00000000000E+00  0.99999998245E-14  0.12500000000E+03  0.12500000000E+03 0.  0.
        -13    1    3    3    0    0  0.22793119100E+02  0.23220201285E+02 -0.29410698237E+01  0.32670553741E+02  0.10566000000E+00 0.  1.
         23    2    1    0    0    0  0.32690468500E+01 -0.31933707564E+02 -0.94451563711E+01  0.91538689133E+02  0.85203710501E+02 0.  0.
         13    1    3    3    0    0 -0.19524072250E+02 -0.55153908849E+02 -0.65040865474E+01  0.58868135391E+02  0.10566000000E+00 0. -1.
         22    1    1    0    0    0 -0.32690468500E+01  0.31933707564E+02  0.94451563711E+01  0.33461310867E+02  0.00000000000E+00 0. -1.
</event>
<event>
 5    1  0.1724243E-003  0.9118800E+02  0.7818608E-02  0.1130116E+00
         25   -1    0    0    0    0  0.00000000000E+00  0.00000000000E+00  0.99999998245E-14  0.12500000000E+03  0.12500000000E+03 0.  0.
        -13    1    3    3    0    0  0.82596856982E+01  0.14219671273E+02 -0.90761415116E+00  0.16469862975E+02  0.10566000000E+00 0.  1.
         23    2    1    0    0    0 -0.44306473142E+02 -0.44754897361E+01  0.20173683558E+02  0.76111646797E+02  0.58334481220E+02 0.  0.
         13    1    3    3    0    0 -0.52566158840E+02 -0.18695161009E+02  0.21081297709E+02  0.59641783822E+02  0.10566000000E+00 0. -1.
         22    1    1    0    0    0  0.44306473142E+02  0.44754897361E+01 -0.20173683558E+02  0.48888353203E+02  0.00000000000E+00 0. -1.
</event>
<event>
 5    1  0.1724243E-003  0.9118800E+02  0.7818608E-02  0.1130116E+00
         25   -1    0    0    0    0  0.00000000000E+00  0.00000000000E+00  0.99999998245E-14  0.12500000000E+03  0.12500000000E+03 0.  0.
        -13    1    3    3    0    0  0.49061005309E+02 -0.26293757144E+02  0.23907354516E+02  0.60579837162E+02  0.10566000000E+00 0.  1.
         23    2    1    0    0    0  0.25610415073E+02 -0.75837916600E+01  0.10954504163E+01  0.98267860771E+02  0.94561964831E+02 0.  0.
         13    1    3    3    0    0 -0.23450590236E+02  0.18709965484E+02 -0.22811904100E+02  0.37688023608E+02  0.10566000000E+00 0. -1.
         22    1    1    0    0    0 -0.25610415073E+02  0.75837916600E+01 -0.10954504163E+01  0.26732139229E+02  0.00000000000E+00 0.  1.
</event>
<event>
 5    1  0.1724243E-003  0.9118800E+02  0.7818608E-02  0.1130116E+00
         25   -1    0    0    0    0  0.00000000000E+00  0.00000000000E+00  0.99999998245E-14  0.12500000000E+03  0.12500000000E+03 0.  0.
        -13    1    3    3    0    0  0.56422488456E+02  0.21124658592E+02 -0.62691825068E+01  0.60572784463E+02  0.10566000000E+00 0. -1.
         23    2    1    0    0    0  0.22514530361E+02  0.19007970961E+02  0.17576996499E+01  0.95482267271E+02  0.90805103478E+02 0.  0.
         13    1    3    3    0    0 -0.33907958095E+02 -0.21166876312E+01  0.80268821567E+01  0.34909482808E+02  0.10566000000E+00 0.  1.
         22    1    1    0    0    0 -0.22514530361E+02 -0.19007970961E+02 -0.17576996499E+01  0.29517732729E+02  0.00000000000E+00 0. -1.
</event>
<event>
 5    1  0.1724243E-003  0.9118800E+02  0.7818608E-02  0.1130116E+00
         25   -1    0    0    0    0  0.00000000000E+00  0.00000000000E+00  0.99999998245E-14  0.12500000000E+03  0.12500000000E+03 0.  0.
        -13    1    3    3    0    0  0.56071069006E+02 -0.19525860284E+02  0.17418909198E+02  0.61876114625E+02  0.10566000000E+00 0. -1.
         23    2    1    0    0    0  0.27995097476E+02 -0.10389525599E+02  0.22908233884E+01  0.95051450842E+02  0.90210103151E+02 0.  0.
         13    1    3    3    0    0 -0.28075971531E+02  0.91363346849E+01 -0.15128085809E+02  0.33175336218E+02  0.10566000000E+00 0.  1.
         22    1    1    0    0    0 -0.27995097476E+02  0.10389525599E+02 -0.22908233884E+01  0.29948549158E+02  0.00000000000E+00 0. -1.
</event>
<event>
 5    1  0.1724243E-003  0.9118800E+02  0.7818608E-02  0.1130116E+00
         25   -1    0    0    0    0  0.00000000000E+00  0.00000000000E+00  0.99999998245E-14  0.12500000000E+03  0.12500000000E+03 0.  0.
        -13    1    3    3    0    0  0.18717616202E+02  0.26133558488E+02 -0.56344847755E+00  0.32150282639E+02  0.10566000000E+00 0.  1.
         23    2    1    0    0    0 -0.93996931738E+01 -0.29207436611E+02 -0.21203561002E+01  0.94244114463E+02  0.89084390416E+02 0.  0.
         13    1    3    3    0    0 -0.28117309376E+02 -0.55340995100E+02 -0.15569076227E+01  0.62093831824E+02  0.10566000000E+00 0. -1.
         22    1    1    0    0    0  0.93996931738E+01  0.29207436611E+02  0.21203561002E+01  0.30755885537E+02  0.00000000000E+00 0. -1.
</event>
<event>
 5    1  0.1724243E-003  0.9118800E+02  0.7818608E-02  0.1130116E+00
         25   -1    0    0    0    0  0.00000000000E+00  0.00000000000E+00  0.99999998245E-14  0.12500000000E+03  0.12500000000E+03 0.  0.
        -13    1    3    3    0    0  0.58126561238E+02  0.14855247840E+02 -0.15208147249E+02  0.61892442322E+02  0.10566000000E+00 0. -1.
         23    2    1    0    0    0  0.26766165286E+02  0.12098223108E+02 -0.10909624469E+02  0.93666080479E+02  0.88269587740E+02 0.  0.
         13    1    3    3    0    0 -0.31360395952E+02 -0.27570247321E+01  0.42985227795E+01  0.31773638157E+02  0.10566000000E+00 0.  1.
         22    1    1    0    0    0 -0.26766165286E+02 -0.12098223108E+02  0.10909624469E+02  0.31333919521E+02  0.00000000000E+00 0. -1.
</event>
<event>
 5    1  0.1724243E-003  0.9118800E+02  0.7818608E-02  0.1130116E+00
         25   -1    0    0    0    0  0.00000000000E+00  0.00000000000E+00  0.99999998245E-14  0.12500000000E+03  0.12500000000E+03 0.  0.
        -13    1    3    3    0    0  0.12568961578E+02  0.32454767393E+02  0.17855952550E+02  0.39116964698E+02  0.10566000000E+00 0.  1.
         23    2    1    0    0    0  0.23829112649E+02 -0.17688495320E+02 -0.41728052287E+01  0.95031320019E+02  0.90182204479E+02 0.  0.
         13    1    3    3    0    0  0.11260151071E+02 -0.50143262713E+02 -0.22028757779E+02  0.55914355321E+02  0.10566000000E+00 0. -1.
         22    1    1    0    0    0 -0.23829112649E+02  0.17688495320E+02  0.41728052287E+01  0.29968679981E+02  0.00000000000E+00 0. -1.
</event>
<event>
 5    1  0.1724243E-003  0.9118800E+02  0.7818608E-02  0.1130116E+00
         25   -1    0    0    0    0  0.00000000000E+00  0.00000000000E+00  0.99999998245E-14  0.12500000000E+03  0.12500000000E+03 0.  0.
        -13    1    3    3    0    0  0.44709203656E+01  0.23129551762E+02 -0.42235158482E+02  0.48360987062E+02  0.10566000000E+00 0.  1.
         23    2    1    0    0    0  0.11818042242E+02  0.28330416508E+02  0.26961671384E+01  0.94185264252E+02  0.89001775618E+02 0.  0.
         13    1    3    3    0    0  0.73471218767E+01  0.52008647457E+01  0.44931325620E+02  0.45824277190E+02  0.10566000000E+00 0. -1.
         22    1    1    0    0    0 -0.11818042242E+02 -0.28330416508E+02 -0.26961671384E+01  0.30814735748E+02  0.00000000000E+00 0.  1.
</event>
<event>
 5    1  0.1724243E-003  0.9118800E+02  0.7818608E-02  0.1130116E+00
         25   -1    0    0    0    0  0.00000000000E+00  0.00000000000E+00  0.99999998245E-14  0.12500000000E+03  0.12500000000E+03 0.  0.
        -13    1    3    3    0    0  0.41965842824E+02  0.12154156354E+02 -0.21613219896E+02  0.48744209081E+02  0.10566000000E+00 0.  1.
         23    2    1    0    0    0 -0.22659870713E+01 -0.46545835848E+01 -0.28030507901E+02  0.96495452662E+02  0.92189279016E+02 0.  0.
         13    1    3    3    0    0 -0.44231829895E+02 -0.16808739939E+02 -0.64172880051E+01  0.47751243581E+02  0.10566000000E+00 0. -1.
         22    1    1    0    0    0  0.22659870713E+01  0.46545835848E+01  0.28030507901E+02  0.28504547338E+02  0.00000000000E+00 0.  1.
</event>
<event>
 5    1  0.1724243E-003  0.9118800E+02  0.7818608E-02  0.1130116E+00
         25   -1    0    0    0    0  0.00000000000E+00  0.00000000000E+00  0.99999998245E-14  0.12500000000E+03  0.12500000000E+03 0.  0.
        -13    1    3    3    0    0 -0.37317800125E+01  0.35268475751E+02 -0.35789905831E+02  0.50385713127E+02  0.10566000000E+00 0.  1.
         23    2    1    0    0    0 -0.23517092465E+02 -0.15938085910E+01 -0.14476164133E+02  0.97338597436E+02  0.93325502189E+02 0.  0.
         13    1    3    3    0    0 -0.19785312452E+02 -0.36862284342E+02  0.21313741697E+02  0.46952884309E+02  0.10566000000E+00 0. -1.
         22    1    1    0    0    0  0.23517092465E+02  0.15938085910E+01  0.14476164133E+02  0.27661402564E+02  0.00000000000E+00 0.  1.
</event>
<event>
 5    1  0.1724243E-003  0.9118800E+02  0.7818608E-02  0.1130116E+00
         25   -1    0    0    0    0  0.00000000000E+00  0.00000000000E+00  0.99999998245E-14  0.12500000000E+03  0.12500000000E+03 0.  0.
        -13    1    3    3    0    0  0.36551448706E+02  0.28494274955E+02 -0.17082101453E+02  0.49393739095E+02  0.10566000000E+00 0.  1.
         23    2    1    0    0    0  0.35153335916E+01  0.24979314776E+02  0.15060817393E+02  0.95620552124E+02  0.90995263784E+02 0.  0.
         13    1    3    3    0    0 -0.33036115114E+02 -0.35149601786E+01  0.32142918846E+02  0.46226813029E+02  0.10566000000E+00 0. -1.
         22    1    1    0    0    0 -0.35153335916E+01 -0.24979314776E+02 -0.15060817393E+02  0.29379447876E+02  0.00000000000E+00 0.  1.
</event>
<event>
 5    1  0.1724243E-003  0.9118800E+02  0.7818608E-02  0.1130116E+00
         25   -1    0    0    0    0  0.00000000000E+00  0.00000000000E+00  0.99999998245E-14  0.12500000000E+03  0.12500000000E+03 0.  0.
        -13    1    3    3    0    0 -0.12868442652E+02 -0.53655464574E+02 -0.18908768688E+02  0.58327166846E+02  0.10566000000E+00 0.  1.
         23    2    1    0    0    0  0.10282788588E+02 -0.25337742269E+02 -0.87658817826E+01  0.96284540612E+02  0.91902857154E+02 0.  0.
         13    1    3    3    0    0  0.23151231240E+02  0.28317722305E+02  0.10142886905E+02  0.37957373767E+02  0.10566000000E+00 0. -1.
         22    1    1    0    0    0 -0.10282788588E+02  0.25337742269E+02  0.87658817826E+01  0.28715459388E+02  0.00000000000E+00 0.  1.
</event>
<event>
 5    1  0.1724243E-003  0.9118800E+02  0.7818608E-02  0.1130116E+00
         25   -1    0    0    0    0  0.00000000000E+00  0.00000000000E+00  0.99999998245E-14  0.12500000000E+03  0.12500000000E+03 0.  0.
        -13    1    3    3    0    0 -0.26987693918E+02 -0.24175202003E+02  0.13755558829E+02  0.38755678005E+02  0.10566000000E+00 0. -1.
         23    2    1    0    0    0 -0.93369123746E+01  0.28008155923E+02  0.24724397172E+00  0.95475504061E+02  0.90795792938E+02 0.  0.
         13    1    3    3    0    0  0.17650781544E+02  0.52183357925E+02 -0.13508314857E+02  0.56719826056E+02  0.10566000000E+00 0.  1.
         22    1    1    0    0    0  0.93369123746E+01 -0.28008155923E+02 -0.24724397172E+00  0.29524495939E+02  0.00000000000E+00 0.  1.
</event>
<event>
 5    1  0.1724243E-003  0.9118800E+02  0.7818608E-02  0.1130116E+00
         25   -1    0    0    0    0  0.00000000000E+00  0.00000000000E+00  0.99999998245E-14  0.12500000000E+03  0.12500000000E+03 0.  0.
        -13    1    3    3    0    0 -0.32588312988E+02 -0.23112546043E+02  0.64683010960E+01  0.40472682282E+02  0.10566000000E+00 0. -1.
         23    2    1    0    0    0 -0.36966248455E+01  0.19938182201E+02  0.22470101116E+02  0.94732829850E+02  0.89767518972E+02 0.  0.
         13    1    3    3    0    0  0.28891688143E+02  0.43050728245E+02  0.16001800020E+02  0.54260147567E+02  0.10566000000E+00 0.  1.
         22    1    1    0    0    0  0.36966248455E+01 -0.19938182201E+02 -0.22470101116E+02  0.30267170150E+02  0.00000000000E+00 0.  1.
</event>
<event>
 5    1  0.1724243E-003  0.9118800E+02  0.7818608E-02  0.1130116E+00
         25   -1    0    0    0    0  0.00000000000E+00  0.00000000000E+00  0.99999998245E-14  0.12500000000E+03  0.12500000000E+03 0.  0.
        -13    1    3    3    0    0  0.26294448087E+02  0.17936282554E+01  0.55914610053E+02  0.61814803114E+02  0.10566000000E+00 0. -1.
         23    2    1    0    0    0  0.10714092416E+02  0.65532305178E+01  0.30649828242E+02  0.91876766798E+02  0.85698259606E+02 0.  0.
         13    1    3    3    0    0 -0.15580355671E+02  0.47596022624E+01 -0.25264781812E+02  0.30061963684E+02  0.10566000000E+00 0.  1.
         22    1    1    0    0    0 -0.10714092416E+02 -0.65532305178E+01 -0.30649828242E+02  0.33123233202E+02  0.00000000000E+00 0. -1.
</event>
<event>
 5    1  0.1724243E-003  0.9118800E+02  0.7818608E-02  0.1130116E+00
         25   -1    0    0    0    0  0.00000000000E+00  0.00000000000E+00  0.99999998245E-14  0.12500000000E+03  0.12500000000E+03 0.  0.
        -13    1    3    3    0    0  0.15741043839E+02  0.80359524369E+01  0.36636657017E+01  0.18049670443E+02  0.10566000000E+00 0.  1.
         23    2    1    0    0    0 -0.36430093656E+02 -0.12838709793E+01 -0.27325920667E+02  0.79442278495E+02  0.65081254011E+02 0.  0.
         13    1    3    3    0    0 -0.52171137495E+02 -0.93198234162E+01 -0.30989586369E+02  0.61392608051E+02  0.10566000000E+00 0. -1.
         22    1    1    0    0    0  0.36430093656E+02  0.12838709793E+01  0.27325920667E+02  0.45557721505E+02  0.00000000000E+00 0. -1.
</event>
<event>
 5    1  0.1724243E-003  0.9118800E+02  0.7818608E-02  0.1130116E+00
         25   -1    0    0    0    0  0.00000000000E+00  0.00000000000E+00  0.99999998245E-14  0.12500000000E+03  0.12500000000E+03 0.  0.
        -13    1    3    3    0    0 -0.21954647095E+01 -0.75838070698E+01 -0.35793394458E+02  0.36653955391E+02  0.10566000000E+00 0. -1.
         23    2    1    0    0    0  0.24700553356E+02  0.69726178174E+01  0.14504165636E+02  0.95519403735E+02  0.90856210210E+02 0.  0.
         13    1    3    3    0    0  0.26896018066E+02  0.14556424887E+02  0.50297560094E+02  0.58865448344E+02  0.10566000000E+00 0.  1.
         22    1    1    0    0    0 -0.24700553356E+02 -0.69726178174E+01 -0.14504165636E+02  0.29480596265E+02  0.00000000000E+00 0.  1.
</event>
<event>
 5    1  0.1724243E-003  0.9118800E+02  0.7818608E-02  0.1130116E+00
         25   -1    0    0    0    0  0.00000000000E+00  0.00000000000E+00  0.99999998245E-14  0.12500000000E+03  0.12500000000E+03 0.  0.
        -13    1    3    3    0    0 -0.55755434460E+01 -0.83079496395E+01  0.49145482740E+02  0.50153747116E+02  0.10566000000E+00 0.  1.
         23    2    1    0    0    0  0.38679146240E+01  0.22981363777E+02  0.15808782860E+02  0.96839363287E+02  0.92654416094E+02 0.  0.
         13    1    3    3    0    0  0.94434580701E+01  0.31289313416E+02 -0.33336699880E+02  0.46685616171E+02  0.10566000000E+00 0. -1.
         22    1    1    0    0    0 -0.38679146240E+01 -0.22981363777E+02 -0.15808782860E+02  0.28160636713E+02  0.00000000000E+00 0.  1.
</event>
<event>
 5    1  0.1724243E-003  0.9118800E+02  0.7818608E-02  0.1130116E+00
         25   -1    0    0    0    0  0.00000000000E+00  0.00000000000E+00  0.99999998245E-14  0.12500000000E+03  0.12500000000E+03 0.  0.
        -13    1    3    3    0    0  0.16473101857E+01 -0.45699993755E+02 -0.25255627936E+02  0.52240415069E+02  0.10566000000E+00 0. -1.
         23    2    1    0    0    0  0.23649490098E+02 -0.11952749766E+02 -0.17439002835E+02  0.93277997719E+02  0.87718295867E+02 0.  0.
         13    1    3    3    0    0  0.22002179912E+02  0.33747243989E+02  0.78166251018E+01  0.41037582650E+02  0.10566000000E+00 0.  1.
         22    1    1    0    0    0 -0.23649490098E+02  0.11952749766E+02  0.17439002835E+02  0.31722002281E+02  0.00000000000E+00 0. -1.
</event>
<event>
 5    1  0.1724243E-003  0.9118800E+02  0.7818608E-02  0.1130116E+00
         25   -1    0    0    0    0  0.00000000000E+00  0.00000000000E+00  0.99999998245E-14  0.12500000000E+03  0.12500000000E+03 0.  0.
        -13    1    3    3    0    0  0.31185532792E+02 -0.69434779527E+01  0.24871391087E+01  0.32046003910E+02  0.10566000000E+00 0.  1.
         23    2    1    0    0    0 -0.90418484040E+01  0.33076994035E+02 -0.80913974199E+01  0.89767724043E+02  0.82564708021E+02 0.  0.
         13    1    3    3    0    0 -0.40227381196E+02  0.40020471987E+02 -0.10578536529E+02  0.57721720133E+02  0.10566000000E+00 0. -1.
         22    1    1    0    0    0  0.90418484040E+01 -0.33076994035E+02  0.80913974199E+01  0.35232275957E+02  0.00000000000E+00 0. -1.
</event>
<event>
 5    1  0.1724243E-003  0.9118800E+02  0.7818608E-02  0.1130116E+00
         25   -1    0    0    0    0  0.00000000000E+00  0.00000000000E+00  0.99999998245E-14  0.12500000000E+03  0.12500000000E+03 0.  0.
        -13    1    3    3    0    0  0.15232382286E+01 -0.38150517102E+01  0.34032775436E+02  0.34279962692E+02  0.10566000000E+00 0.  1.
         23    2    1    0    0    0 -0.11753792109E+01 -0.14276826497E+02 -0.26020170093E+02  0.95297162715E+02  0.90549934725E+02 0.  0.
         13    1    3    3    0    0 -0.26986174395E+01 -0.10461774787E+02 -0.60052945529E+02  0.61017200022E+02  0.10566000000E+00 0. -1.
         22    1    1    0    0    0  0.11753792109E+01  0.14276826497E+02  0.26020170093E+02  0.29702837285E+02  0.00000000000E+00 0. -1.
</event>
<event>
 5    1  0.1724243E-003  0.9118800E+02  0.7818608E-02  0.1130116E+00
         25   -1    0    0    0    0  0.00000000000E+00  0.00000000000E+00  0.99999998245E-14  0.12500000000E+03  0.12500000000E+03 0.  0.
        -13    1    3    3    0    0 -0.10608523711E+02 -0.43061881155E+02  0.72218420141E+01  0.44933646080E+02  0.10566000000E+00 0. -1.
         23    2    1    0    0    0  0.26429547162E+02 -0.85140853104E+01  0.95495352554E+01  0.95636685551E+02  0.91017423539E+02 0.  0.
         13    1    3    3    0    0  0.37038070873E+02  0.34547795845E+02  0.23276932413E+01  0.50703039471E+02  0.10566000000E+00 0.  1.
         22    1    1    0    0    0 -0.26429547162E+02  0.85140853104E+01 -0.95495352554E+01  0.29363314449E+02  0.00000000000E+00 0.  1.
</event>
<event>
 5    1  0.1724243E-003  0.9118800E+02  0.7818608E-02  0.1130116E+00
         25   -1    0    0    0    0  0.00000000000E+00  0.00000000000E+00  0.99999998245E-14  0.12500000000E+03  0.12500000000E+03 0.  0.
        -13    1    3    3    0    0 -0.28901255919E+01  0.20615889194E+02  0.54115575946E+02  0.57981673288E+02  0.10566000000E+00 0. -1.
         23    2    1    0    0    0  0.15346898624E+02  0.10571225423E+02  0.23459922044E+02  0.95039258243E+02  0.90193206844E+02 0.  0.
         13    1    3    3    0    0  0.18237024216E+02 -0.10044663772E+02 -0.30655653902E+02  0.37057584955E+02  0.10566000000E+00 0.  1.
         22    1    1    0    0    0 -0.15346898624E+02 -0.10571225423E+02 -0.23459922044E+02  0.29960741757E+02  0.00000000000E+00 0. -1.
</event>
<event>
 5    1  0.1724243E-003  0.9118800E+02  0.7818608E-02  0.1130116E+00
         25   -1    0    0    0    0  0.00000000000E+00  0.00000000000E+00  0.99999998245E-14  0.12500000000E+03  0.12500000000E+03 0.  0.
        -13    1    3    3    0    0 -0.39736715945E+02 -0.88572541614E+01  0.26942081219E+01  0.40801071883E+02  0.10566000000E+00 0.  1.
         23    2    1    0    0    0  0.14746977342E+02 -0.12520832261E+02  0.19095293228E+02  0.97817748351E+02  0.93965084408E+02 0.  0.
         13    1    3    3    0    0  0.54483693287E+02 -0.36635780994E+01  0.16401085106E+02  0.57016676468E+02  0.10566000000E+00 0. -1.
         22    1    1    0    0    0 -0.14746977342E+02  0.12520832261E+02 -0.19095293228E+02  0.27182251649E+02  0.00000000000E+00 0. -1.
</event>
<event>
 5    1  0.1724243E-003  0.9118800E+02  0.7818608E-02  0.1130116E+00
         25   -1    0    0    0    0  0.00000000000E+00  0.00000000000E+00  0.99999998245E-14  0.12500000000E+03  0.12500000000E+03 0.  0.
        -13    1    3    3    0    0 -0.62556793428E+01 -0.32240967961E+02  0.20852409020E+02  0.38903054700E+02  0.10566000000E+00 0.  1.
         23    2    1    0    0    0  0.23918183986E+02  0.14736162544E+01 -0.15084764003E+02  0.96683906077E+02  0.92444450992E+02 0.  0.
         13    1    3    3    0    0  0.30173863328E+02  0.33714584215E+02 -0.35937173022E+02  0.57780851377E+02  0.10566000000E+00 0. -1.
         22    1    1    0    0    0 -0.23918183986E+02 -0.14736162544E+01  0.15084764003E+02  0.28316093923E+02  0.00000000000E+00 0. -1.
</event>
<event>
 5    1  0.1724243E-003  0.9118800E+02  0.7818608E-02  0.1130116E+00
         25   -1    0    0    0    0  0.00000000000E+00  0.00000000000E+00  0.99999998245E-14  0.12500000000E+03  0.12500000000E+03 0.  0.
        -13    1    3    3    0    0  0.75011679725E+01 -0.32191201665E+02 -0.52944191732E+02  0.62415058983E+02  0.10566000000E+00 0. -1.
         23    2    1    0    0    0  0.34332669708E+01 -0.16322853763E+02 -0.22440192182E+02  0.97039579721E+02  0.92924135348E+02 0.  0.
         13    1    3    3    0    0 -0.40679010018E+01  0.15868347903E+02  0.30503999551E+02  0.34624520738E+02  0.10566000000E+00 0.  1.
         22    1    1    0    0    0 -0.34332669708E+01  0.16322853763E+02  0.22440192182E+02  0.27960420279E+02  0.00000000000E+00 0. -1.
</event>
<event>
 5    1  0.1724243E-003  0.9118800E+02  0.7818608E-02  0.1130116E+00
         25   -1    0    0    0    0  0.00000000000E+00  0.00000000000E+00  0.99999998245E-14  0.12500000000E+03  0.12500000000E+03 0.  0.
        -13    1    3    3    0    0  0.26727000119E+02 -0.31141058799E+02  0.34566549893E+02  0.53655900086E+02  0.10566000000E+00 0.  1.
         23    2    1    0    0    0  0.88587495786E+01 -0.40978961398E+02  0.25010494676E+02  0.76181176117E+02  0.58483279912E+02 0.  0.
         13    1    3    3    0    0 -0.17868250540E+02 -0.98379025995E+01 -0.95560552170E+01  0.22525276031E+02  0.10566000000E+00 0. -1.
         22    1    1    0    0    0 -0.88587495786E+01  0.40978961398E+02 -0.25010494676E+02  0.48818823883E+02  0.00000000000E+00 0. -1.
</event>
<event>
 5    1  0.1724243E-003  0.9118800E+02  0.7818608E-02  0.1130116E+00
         25   -1    0    0    0    0  0.00000000000E+00  0.00000000000E+00  0.99999998245E-14  0.12500000000E+03  0.12500000000E+03 0.  0.
        -13    1    3    3    0    0  0.35384517076E+02 -0.19209284050E+02  0.58302230642E+00  0.40266757027E+02  0.10566000000E+00 0. -1.
         23    2    1    0    0    0  0.68110631820E+01  0.26632670448E+02 -0.10789056521E+02  0.95468771487E+02  0.90786523624E+02 0.  0.
         13    1    3    3    0    0 -0.28573453894E+02  0.45841954498E+02 -0.11372078827E+02  0.55202014461E+02  0.10566000000E+00 0.  1.
         22    1    1    0    0    0 -0.68110631820E+01 -0.26632670448E+02  0.10789056521E+02  0.29531228513E+02  0.00000000000E+00 0.  1.
</event>
<event>
 5    1  0.1724243E-003  0.9118800E+02  0.7818608E-02  0.1130116E+00
         25   -1    0    0    0    0  0.00000000000E+00  0.00000000000E+00  0.99999998245E-14  0.12500000000E+03  0.12500000000E+03 0.  0.
        -13    1    3    3    0    0 -0.46674254661E+02  0.12978757913E+02 -0.10846507910E+02  0.49644658353E+02  0.10566000000E+00 0. -1.
         23    2    1    0    0    0 -0.11714862413E+02  0.13710687481E+02 -0.30359739226E+02  0.89688037177E+02  0.82443976700E+02 0.  0.
         13    1    3    3    0    0  0.34959392247E+02  0.73192956827E+00 -0.19513231316E+02  0.40043378824E+02  0.10566000000E+00 0.  1.
         22    1    1    0    0    0  0.11714862413E+02 -0.13710687481E+02  0.30359739226E+02  0.35311962823E+02  0.00000000000E+00 0. -1.
</event>
<event>
 5    1  0.1724243E-003  0.9118800E+02  0.7818608E-02  0.1130116E+00
         25   -1    0    0    0    0  0.00000000000E+00  0.00000000000E+00  0.99999998245E-14  0.12500000000E+03  0.12500000000E+03 0.  0.
        -13    1    3    3    0    0 -0.33689717072E+02 -0.97213349953E+01  0.26289221797E+02  0.43825058326E+02  0.10566000000E+00 0.  1.
         23    2    1    0    0    0 -0.52307063820E+00 -0.32559697468E+02 -0.91650538680E+00  0.92423206354E+02  0.86491627274E+02 0.  0.
         13    1    3    3    0    0  0.33166646434E+02 -0.22838362473E+02 -0.27205727184E+02  0.48598148028E+02  0.10566000000E+00 0. -1.
         22    1    1    0    0    0  0.52307063820E+00  0.32559697468E+02  0.91650538680E+00  0.32576793646E+02  0.00000000000E+00 0. -1.
</event>
<event>
 5    1  0.1724243E-003  0.9118800E+02  0.7818608E-02  0.1130116E+00
         25   -1    0    0    0    0  0.00000000000E+00  0.00000000000E+00  0.99999998245E-14  0.12500000000E+03  0.12500000000E+03 0.  0.
        -13    1    3    3    0    0  0.12513257951E+02 -0.73504997922E+01 -0.52857960133E+02  0.54814109363E+02  0.10566000000E+00 0. -1.
         23    2    1    0    0    0  0.19581685475E+02  0.12088787383E+02 -0.16364377736E+02  0.96762187672E+02  0.92550239967E+02 0.  0.
         13    1    3    3    0    0  0.70684275234E+01  0.19439287175E+02  0.36493582398E+02  0.41948078309E+02  0.10566000000E+00 0.  1.
         22    1    1    0    0    0 -0.19581685475E+02 -0.12088787383E+02  0.16364377736E+02  0.28237812328E+02  0.00000000000E+00 0. -1.
</event>
<event>
 5    1  0.1724243E-003  0.9118800E+02  0.7818608E-02  0.1130116E+00
         25   -1    0    0    0    0  0.00000000000E+00  0.00000000000E+00  0.99999998245E-14  0.12500000000E+03  0.12500000000E+03 0.  0.
        -13    1    3    3    0    0  0.18646367877E+02 -0.14364904913E+02  0.52346444639E+02  0.57395112671E+02  0.10566000000E+00 0. -1.
         23    2    1    0    0    0 -0.86457155006E+01 -0.73888665578E+01  0.28541223693E+02  0.94276308890E+02  0.89129553025E+02 0.  0.
         13    1    3    3    0    0 -0.27292083377E+02  0.69760383552E+01 -0.23805220945E+02  0.36881196219E+02  0.10566000000E+00 0.  1.
         22    1    1    0    0    0  0.86457155006E+01  0.73888665578E+01 -0.28541223693E+02  0.30723691110E+02  0.00000000000E+00 0. -1.
</event>
<event>
 5    1  0.1724243E-003  0.9118800E+02  0.7818608E-02  0.1130116E+00
         25   -1    0    0    0    0  0.00000000000E+00  0.00000000000E+00  0.99999998245E-14  0.12500000000E+03  0.12500000000E+03 0.  0.
        -13    1    3    3    0    0 -0.40788202876E+02  0.37426990568E+01 -0.17630388574E+02  0.44592903644E+02  0.10566000000E+00 0. -1.
         23    2    1    0    0    0 -0.15463971676E+02  0.54086986732E+01  0.25532128127E+02  0.94663915743E+02  0.89671505708E+02 0.  0.
         13    1    3    3    0    0  0.25324231201E+02  0.16659996164E+01  0.43162516701E+02  0.50071012099E+02  0.10566000000E+00 0.  1.
         22    1    1    0    0    0  0.15463971676E+02 -0.54086986732E+01 -0.25532128127E+02  0.30336084257E+02  0.00000000000E+00 0. -1.
</event>
<event>
 5    1  0.1724243E-003  0.9118800E+02  0.7818608E-02  0.1130116E+00
         25   -1    0    0    0    0  0.00000000000E+00  0.00000000000E+00  0.99999998245E-14  0.12500000000E+03  0.12500000000E+03 0.  0.
        -13    1    3    3    0    0  0.20033176672E+02 -0.23962154478E+02  0.51151251430E+02  0.59933085201E+02  0.10566000000E+00 0. -1.
         23    2    1    0    0    0  0.10374478189E+01 -0.20581888238E+02  0.22357930762E+02  0.94593298611E+02  0.89573012971E+02 0.  0.
         13    1    3    3    0    0 -0.18995728853E+02  0.33802662399E+01 -0.28793320668E+02  0.34660213410E+02  0.10566000000E+00 0.  1.
         22    1    1    0    0    0 -0.10374478189E+01  0.20581888238E+02 -0.22357930762E+02  0.30406701389E+02  0.00000000000E+00 0. -1.
</event>
<event>
 5    1  0.1724243E-003  0.9118800E+02  0.7818608E-02  0.1130116E+00
         25   -1    0    0    0    0  0.00000000000E+00  0.00000000000E+00  0.99999998245E-14  0.12500000000E+03  0.12500000000E+03 0.  0.
        -13    1    3    3    0    0  0.40789003458E+02  0.11790556733E+01  0.32091036410E+02  0.51913184811E+02  0.10566000000E+00 0.  1.
         23    2    1    0    0    0 -0.41353381029E+01  0.26648586954E+01  0.27462999418E+02  0.97099841755E+02  0.93005163505E+02 0.  0.
         13    1    3    3    0    0 -0.44924341560E+02  0.14858030221E+01 -0.46280369926E+01  0.45186656943E+02  0.10566000000E+00 0. -1.
         22    1    1    0    0    0  0.41353381029E+01 -0.26648586954E+01 -0.27462999418E+02  0.27900158245E+02  0.00000000000E+00 0. -1.
</event>
<event>
 5    1  0.1724243E-003  0.9118800E+02  0.7818608E-02  0.1130116E+00
         25   -1    0    0    0    0  0.00000000000E+00  0.00000000000E+00  0.99999998245E-14  0.12500000000E+03  0.12500000000E+03 0.  0.
        -13    1    3    3    0    0 -0.27902095324E+02 -0.70319197474E+01  0.50512370555E+02  0.58133342944E+02  0.10566000000E+00 0.  1.
         23    2    1    0    0    0 -0.25337525073E+02  0.47882600513E+01  0.16121886160E+02  0.94588935821E+02  0.89566924449E+02 0.  0.
         13    1    3    3    0    0  0.25645702506E+01  0.11820179799E+02 -0.34390484395E+02  0.36455592877E+02  0.10566000000E+00 0. -1.
         22    1    1    0    0    0  0.25337525073E+02 -0.47882600513E+01 -0.16121886160E+02  0.30411064179E+02  0.00000000000E+00 0.  1.
</event>
<event>
 5    1  0.1724243E-003  0.9118800E+02  0.7818608E-02  0.1130116E+00
         25   -1    0    0    0    0  0.00000000000E+00  0.00000000000E+00  0.99999998245E-14  0.12500000000E+03  0.12500000000E+03 0.  0.
        -13    1    3    3    0    0 -0.41818573214E+02  0.34588165635E+01 -0.88901373976E+01  0.42892915320E+02  0.10566000000E+00 0. -1.
         23    2    1    0    0    0  0.47019503623E+01  0.27584400453E+02 -0.99313485349E+01  0.95307590712E+02  0.90564328950E+02 0.  0.
         13    1    3    3    0    0  0.46520523576E+02  0.24125583890E+02 -0.10412111372E+01  0.52414675392E+02  0.10566000000E+00 0.  1.
         22    1    1    0    0    0 -0.47019503623E+01 -0.27584400453E+02  0.99313485349E+01  0.29692409288E+02  0.00000000000E+00 0.  1.
</event>
<event>
 5    1  0.1724243E-003  0.9118800E+02  0.7818608E-02  0.1130116E+00
         25   -1    0    0    0    0  0.00000000000E+00  0.00000000000E+00  0.99999998245E-14  0.12500000000E+03  0.12500000000E+03 0.  0.
        -13    1    3    3    0    0  0.43429078600E+02  0.13400873297E+02  0.60426658150E+01  0.45849680995E+02  0.10566000000E+00 0. -1.
         23    2    1    0    0    0 -0.11316870630E+02  0.34242396189E+01  0.18659640844E+02  0.10290974934E+03  0.10051088167E+03 0.  0.
         13    1    3    3    0    0 -0.54745949230E+02 -0.99766336783E+01  0.12616975029E+02  0.57060068345E+02  0.10566000000E+00 0.  1.
         22    1    1    0    0    0  0.11316870630E+02 -0.34242396189E+01 -0.18659640844E+02  0.22090250660E+02  0.00000000000E+00 0.  1.
</event>
<event>
 5    1  0.1724243E-003  0.9118800E+02  0.7818608E-02  0.1130116E+00
         25   -1    0    0    0    0  0.00000000000E+00  0.00000000000E+00  0.99999998245E-14  0.12500000000E+03  0.12500000000E+03 0.  0.
        -13    1    3    3    0    0  0.34748277977E+02 -0.27756557418E+02 -0.28364391200E+02  0.52748641255E+02  0.10566000000E+00 0.  1.
         23    2    1    0    0    0  0.12080149086E+02  0.62180259424E+01 -0.28317967080E+02  0.93591384811E+02  0.88163746533E+02 0.  0.
         13    1    3    3    0    0 -0.22668128891E+02  0.33974583360E+02  0.46424119844E-01  0.40842743556E+02  0.10566000000E+00 0. -1.
         22    1    1    0    0    0 -0.12080149086E+02 -0.62180259424E+01  0.28317967080E+02  0.31408615189E+02  0.00000000000E+00 0. -1.
</event>
<event>
 5    1  0.1724243E-003  0.9118800E+02  0.7818608E-02  0.1130116E+00
         25   -1    0    0    0    0  0.00000000000E+00  0.00000000000E+00  0.99999998245E-14  0.12500000000E+03  0.12500000000E+03 0.  0.
        -13    1    3    3    0    0 -0.47537605029E+02  0.16137181989E+02 -0.28588256425E+02  0.57771377895E+02  0.10566000000E+00 0. -1.
         23    2    1    0    0    0 -0.16606037008E+02  0.21562793559E+02 -0.43562297876E+01  0.97437502488E+02  0.93457881540E+02 0.  0.
         13    1    3    3    0    0  0.30931568021E+02  0.54256115696E+01  0.24232026638E+02  0.39666124592E+02  0.10566000000E+00 0.  1.
         22    1    1    0    0    0  0.16606037008E+02 -0.21562793559E+02  0.43562297876E+01  0.27562497512E+02  0.00000000000E+00 0. -1.
</event>
<event>
 5    1  0.1724243E-003  0.9118800E+02  0.7818608E-02  0.1130116E+00
         25   -1    0    0    0    0  0.00000000000E+00  0.00000000000E+00  0.99999998245E-14  0.12500000000E+03  0.12500000000E+03 0.  0.
        -13    1    3    3    0    0 -0.19150618751E+02 -0.88061823540E+01  0.42534029802E+02  0.47470516128E+02  0.10566000000E+00 0. -1.
         23    2    1    0    0    0  0.12931375978E+02  0.18018530788E+02  0.20772293054E+02  0.94612895907E+02  0.89600357012E+02 0.  0.
         13    1    3    3    0    0  0.32081994729E+02  0.26824713142E+02 -0.21761736747E+02  0.47142379779E+02  0.10566000000E+00 0.  1.
         22    1    1    0    0    0 -0.12931375978E+02 -0.18018530788E+02 -0.20772293054E+02  0.30387104093E+02  0.00000000000E+00 0.  1.
</event>
<event>
 5    1  0.1724243E-003  0.9118800E+02  0.7818608E-02  0.1130116E+00
         25   -1    0    0    0    0  0.00000000000E+00  0.00000000000E+00  0.99999998245E-14  0.12500000000E+03  0.12500000000E+03 0.  0.
        -13    1    3    3    0    0 -0.58811097381E+01 -0.56799297634E+02 -0.97372972567E+01  0.57927314674E+02  0.10566000000E+00 0. -1.
         23    2    1    0    0    0  0.73266905296E+01 -0.29386134041E+02  0.86786129342E+01  0.93495340179E+02  0.88027467559E+02 0.  0.
         13    1    3    3    0    0  0.13207800268E+02  0.27413163594E+02  0.18415910191E+02  0.35568025505E+02  0.10566000000E+00 0.  1.
         22    1    1    0    0    0 -0.73266905296E+01  0.29386134041E+02 -0.86786129342E+01  0.31504659821E+02  0.00000000000E+00 0. -1.
</event>
<event>
 5    1  0.1724243E-003  0.9118800E+02  0.7818608E-02  0.1130116E+00
         25   -1    0    0    0    0  0.00000000000E+00  0.00000000000E+00  0.99999998245E-14  0.12500000000E+03  0.12500000000E+03 0.  0.
        -13    1    3    3    0    0 -0.49579557566E+02  0.13887213374E+02  0.28975293649E+02  0.59081012431E+02  0.10566000000E+00 0. -1.
         23    2    1    0    0    0 -0.24704889589E+02 -0.73923113445E+01  0.78349452619E+01  0.98048855240E+02  0.94272020293E+02 0.  0.
         13    1    3    3    0    0  0.24874667978E+02 -0.21279524719E+02 -0.21140348387E+02  0.38967842809E+02  0.10566000000E+00 0.  1.
         22    1    1    0    0    0  0.24704889589E+02  0.73923113445E+01 -0.78349452619E+01  0.26951144760E+02  0.00000000000E+00 0. -1.
</event>
<event>
 5    1  0.1724243E-003  0.9118800E+02  0.7818608E-02  0.1130116E+00
         25   -1    0    0    0    0  0.00000000000E+00  0.00000000000E+00  0.99999998245E-14  0.12500000000E+03  0.12500000000E+03 0.  0.
        -13    1    3    3    0    0  0.47634435283E+01  0.40661647749E+02 -0.45503034590E+02  0.61209454440E+02  0.10566000000E+00 0. -1.
         23    2    1    0    0    0 -0.37568105628E+01  0.14018414485E+02 -0.25710116737E+02  0.95476455618E+02  0.90797102952E+02 0.  0.
         13    1    3    3    0    0 -0.85202540911E+01 -0.26643233263E+02  0.19792917854E+02  0.34267001178E+02  0.10566000000E+00 0.  1.
         22    1    1    0    0    0  0.37568105628E+01 -0.14018414485E+02  0.25710116737E+02  0.29523544382E+02  0.00000000000E+00 0. -1.
</event>
<event>
 5    1  0.1724243E-003  0.9118800E+02  0.7818608E-02  0.1130116E+00
         25   -1    0    0    0    0  0.00000000000E+00  0.00000000000E+00  0.99999998245E-14  0.12500000000E+03  0.12500000000E+03 0.  0.
        -13    1    3    3    0    0  0.45506025683E+02  0.20085206300E+02  0.11628491986E+01  0.49755173277E+02  0.10566000000E+00 0. -1.
         23    2    1    0    0    0 -0.22325097435E+01  0.26686486215E+02 -0.25978402829E+01  0.98094583809E+02  0.94332634609E+02 0.  0.
         13    1    3    3    0    0 -0.47738535426E+02  0.66012799151E+01 -0.37606894815E+01  0.48339410532E+02  0.10566000000E+00 0.  1.
         22    1    1    0    0    0  0.22325097435E+01 -0.26686486215E+02  0.25978402829E+01  0.26905416191E+02  0.00000000000E+00 0. -1.
</event>
<event>
 5    1  0.1724243E-003  0.9118800E+02  0.7818608E-02  0.1130116E+00
         25   -1    0    0    0    0  0.00000000000E+00  0.00000000000E+00  0.99999998245E-14  0.12500000000E+03  0.12500000000E+03 0.  0.
        -13    1    3    3    0    0  0.22229522667E+02 -0.17307794274E+02  0.33051738837E+02  0.43429713617E+02  0.10566000000E+00 0.  1.
         23    2    1    0    0    0 -0.19370119606E+02  0.12574231500E+02  0.71594936817E+01  0.10082209312E+03  0.97880147526E+02 0.  0.
         13    1    3    3    0    0 -0.41599642274E+02  0.29882025774E+02 -0.25892245155E+02  0.57392379502E+02  0.10566000000E+00 0. -1.
         22    1    1    0    0    0  0.19370119606E+02 -0.12574231500E+02 -0.71594936817E+01  0.24177906881E+02  0.00000000000E+00 0. -1.
</event>
<event>
 5    1  0.1724243E-003  0.9118800E+02  0.7818608E-02  0.1130116E+00
         25   -1    0    0    0    0  0.00000000000E+00  0.00000000000E+00  0.99999998245E-14  0.12500000000E+03  0.12500000000E+03 0.  0.
        -13    1    3    3    0    0 -0.20154918813E+02 -0.83985573506E+01 -0.52242337298E+02  0.56621811066E+02  0.10566000000E+00 0.  1.
         23    2    1    0    0    0 -0.89141301649E+01  0.15362254796E+02 -0.22971617411E+02  0.95962854901E+02  0.91464275677E+02 0.  0.
         13    1    3    3    0    0  0.11240788648E+02  0.23760812147E+02  0.29270719887E+02  0.39341043835E+02  0.10566000000E+00 0. -1.
         22    1    1    0    0    0  0.89141301649E+01 -0.15362254796E+02  0.22971617411E+02  0.29037145099E+02  0.00000000000E+00 0.  1.
</event>
<event>
 5    1  0.1724243E-003  0.9118800E+02  0.7818608E-02  0.1130116E+00
         25   -1    0    0    0    0  0.00000000000E+00  0.00000000000E+00  0.99999998245E-14  0.12500000000E+03  0.12500000000E+03 0.  0.
        -13    1    3    3    0    0  0.14102449933E+02 -0.43304771767E+02  0.41403797776E+02  0.61550531973E+02  0.10566000000E+00 0.  1.
         23    2    1    0    0    0  0.18390854353E+01 -0.26595864830E+02  0.17894479741E+02  0.92891828665E+02  0.87166261628E+02 0.  0.
         13    1    3    3    0    0 -0.12263364498E+02  0.16708906937E+02 -0.23509318034E+02  0.31341296691E+02  0.10566000000E+00 0. -1.
         22    1    1    0    0    0 -0.18390854353E+01  0.26595864830E+02 -0.17894479741E+02  0.32108171335E+02  0.00000000000E+00 0.  1.
</event>
<event>
 5    1  0.1724243E-003  0.9118800E+02  0.7818608E-02  0.1130116E+00
         25   -1    0    0    0    0  0.00000000000E+00  0.00000000000E+00  0.99999998245E-14  0.12500000000E+03  0.12500000000E+03 0.  0.
        -13    1    3    3    0    0  0.24735499482E+02  0.19408146678E+02  0.33317616250E+02  0.45810433404E+02  0.10566000000E+00 0. -1.
         23    2    1    0    0    0  0.23041503629E+02 -0.19227152917E+02  0.32141236119E+01  0.94818467743E+02  0.89886689425E+02 0.  0.
         13    1    3    3    0    0 -0.16939958531E+01 -0.38635299595E+02 -0.30103492638E+02  0.49008034339E+02  0.10566000000E+00 0.  1.
         22    1    1    0    0    0 -0.23041503629E+02  0.19227152917E+02 -0.32141236119E+01  0.30181532257E+02  0.00000000000E+00 0. -1.
</event>
<event>
 5    1  0.1724243E-003  0.9118800E+02  0.7818608E-02  0.1130116E+00
         25   -1    0    0    0    0  0.00000000000E+00  0.00000000000E+00  0.99999998245E-14  0.12500000000E+03  0.12500000000E+03 0.  0.
        -13    1    3    3    0    0  0.24396940098E+02 -0.10570984383E+02  0.33354542970E+02  0.42655516616E+02  0.10566000000E+00 0. -1.
         23    2    1    0    0    0 -0.18976310722E+02 -0.22638593531E+02  0.76991570418E+01  0.94473236253E+02  0.89405307803E+02 0.  0.
         13    1    3    3    0    0 -0.43373250821E+02 -0.12067609147E+02 -0.25655385928E+02  0.51817719638E+02  0.10566000000E+00 0.  1.
         22    1    1    0    0    0  0.18976310722E+02  0.22638593531E+02 -0.76991570418E+01  0.30526763747E+02  0.00000000000E+00 0.  1.
</event>
<event>
 5    1  0.1724243E-003  0.9118800E+02  0.7818608E-02  0.1130116E+00
         25   -1    0    0    0    0  0.00000000000E+00  0.00000000000E+00  0.99999998245E-14  0.12500000000E+03  0.12500000000E+03 0.  0.
        -13    1    3    3    0    0  0.37300184590E+02  0.37497016265E+02  0.31310547955E+02  0.61462928473E+02  0.10566000000E+00 0.  1.
         23    2    1    0    0    0  0.18899119057E+02  0.11061741522E+02  0.19209153083E+02  0.95870455053E+02  0.91337909782E+02 0.  0.
         13    1    3    3    0    0 -0.18401065533E+02 -0.26435274743E+02 -0.12101394872E+02  0.34407526580E+02  0.10566000000E+00 0. -1.
         22    1    1    0    0    0 -0.18899119057E+02 -0.11061741522E+02 -0.19209153083E+02  0.29129544947E+02  0.00000000000E+00 0.  1.
</event>
<event>
 5    1  0.1724243E-003  0.9118800E+02  0.7818608E-02  0.1130116E+00
         25   -1    0    0    0    0  0.00000000000E+00  0.00000000000E+00  0.99999998245E-14  0.12500000000E+03  0.12500000000E+03 0.  0.
        -13    1    3    3    0    0  0.19628077169E+02  0.32231802610E+01  0.33776140599E+02  0.39198075745E+02  0.10566000000E+00 0. -1.
         23    2    1    0    0    0 -0.20780038728E+02 -0.19475678756E+02  0.45884131526E-01  0.96519933674E+02  0.92222466995E+02 0.  0.
         13    1    3    3    0    0 -0.40408115897E+02 -0.22698859017E+02 -0.33730256467E+02  0.57321857929E+02  0.10566000000E+00 0.  1.
         22    1    1    0    0    0  0.20780038728E+02  0.19475678756E+02 -0.45884131526E-01  0.28480066326E+02  0.00000000000E+00 0.  1.
</event>
<event>
 5    1  0.1724243E-003  0.9118800E+02  0.7818608E-02  0.1130116E+00
         25   -1    0    0    0    0  0.00000000000E+00  0.00000000000E+00  0.99999998245E-14  0.12500000000E+03  0.12500000000E+03 0.  0.
        -13    1    3    3    0    0 -0.48904504109E+02 -0.14097165525E+02 -0.30767878856E+02  0.59473137897E+02  0.10566000000E+00 0. -1.
         23    2    1    0    0    0 -0.33670897063E+02  0.32385383169E+01 -0.24004408826E+02  0.83521944567E+02  0.72494731820E+02 0.  0.
         13    1    3    3    0    0  0.15233607046E+02  0.17335703842E+02  0.67634700305E+01  0.24048806669E+02  0.10566000000E+00 0.  1.
         22    1    1    0    0    0  0.33670897063E+02 -0.32385383169E+01  0.24004408826E+02  0.41478055433E+02  0.00000000000E+00 0. -1.
</event>
<event>
 5    1  0.1724243E-003  0.9118800E+02  0.7818608E-02  0.1130116E+00
         25   -1    0    0    0    0  0.00000000000E+00  0.00000000000E+00  0.99999998245E-14  0.12500000000E+03  0.12500000000E+03 0.  0.
        -13    1    3    3    0    0 -0.34597444929E+02 -0.27762786366E+01  0.42245900288E+02  0.54675572003E+02  0.10566000000E+00 0.  1.
         23    2    1    0    0    0 -0.12784868616E+02  0.20595265852E+02  0.17529109633E+02  0.95085329259E+02  0.90257034710E+02 0.  0.
         13    1    3    3    0    0  0.21812576313E+02  0.23371544488E+02 -0.24716790654E+02  0.40409757256E+02  0.10566000000E+00 0. -1.
         22    1    1    0    0    0  0.12784868616E+02 -0.20595265852E+02 -0.17529109633E+02  0.29914670741E+02  0.00000000000E+00 0. -1.
</event>
<event>
 5    1  0.1724243E-003  0.9118800E+02  0.7818608E-02  0.1130116E+00
         25   -1    0    0    0    0  0.00000000000E+00  0.00000000000E+00  0.99999998245E-14  0.12500000000E+03  0.12500000000E+03 0.  0.
        -13    1    3    3    0    0 -0.20902146115E+02  0.38960664940E+02  0.21531434593E+02  0.49177708003E+02  0.10566000000E+00 0.  1.
         23    2    1    0    0    0  0.19710340806E+02  0.19271804792E+02  0.79665123382E+01  0.96305657117E+02  0.91931573898E+02 0.  0.
         13    1    3    3    0    0  0.40612486921E+02 -0.19688860148E+02 -0.13564922255E+02  0.47127949114E+02  0.10566000000E+00 0. -1.
         22    1    1    0    0    0 -0.19710340806E+02 -0.19271804792E+02 -0.79665123382E+01  0.28694342883E+02  0.00000000000E+00 0. -1.
</event>
<event>
 5    1  0.1724243E-003  0.9118800E+02  0.7818608E-02  0.1130116E+00
         25   -1    0    0    0    0  0.00000000000E+00  0.00000000000E+00  0.99999998245E-14  0.12500000000E+03  0.12500000000E+03 0.  0.
        -13    1    3    3    0    0  0.99189855330E+01  0.26753372182E+02 -0.55080285464E+02  0.62032074026E+02  0.10566000000E+00 0. -1.
         23    2    1    0    0    0  0.66728506241E+01  0.17323744172E+02 -0.24095649264E+02  0.94582252532E+02  0.89557596735E+02 0.  0.
         13    1    3    3    0    0 -0.32461349089E+01 -0.94296280107E+01  0.30984636200E+02  0.32550178506E+02  0.10566000000E+00 0.  1.
         22    1    1    0    0    0 -0.66728506241E+01 -0.17323744172E+02  0.24095649264E+02  0.30417747468E+02  0.00000000000E+00 0. -1.
</event>
<event>
 5    1  0.1724243E-003  0.9118800E+02  0.7818608E-02  0.1130116E+00
         25   -1    0    0    0    0  0.00000000000E+00  0.00000000000E+00  0.99999998245E-14  0.12500000000E+03  0.12500000000E+03 0.  0.
        -13    1    3    3    0    0  0.11204940991E+02  0.31446112282E+02  0.40527650413E+02  0.52506288122E+02  0.10566000000E+00 0. -1.
         23    2    1    0    0    0  0.26219014925E+02  0.10132747394E+02  0.51969525048E+01  0.96414730564E+02  0.92079762385E+02 0.  0.
         13    1    3    3    0    0  0.15014073934E+02 -0.21313364888E+02 -0.35330697909E+02  0.43908442442E+02  0.10566000000E+00 0.  1.
         22    1    1    0    0    0 -0.26219014925E+02 -0.10132747394E+02 -0.51969525048E+01  0.28585269436E+02  0.00000000000E+00 0. -1.
</event>
<event>
 5    1  0.1724243E-003  0.9118800E+02  0.7818608E-02  0.1130116E+00
         25   -1    0    0    0    0  0.00000000000E+00  0.00000000000E+00  0.99999998245E-14  0.12500000000E+03  0.12500000000E+03 0.  0.
        -13    1    3    3    0    0 -0.31812843996E+02  0.42100547777E+02  0.16243124088E+02  0.55211986112E+02  0.10566000000E+00 0.  1.
         23    2    1    0    0    0 -0.27128766164E+02  0.65788101550E+01 -0.46682406813E+01  0.96697293987E+02  0.92462551861E+02 0.  0.
         13    1    3    3    0    0  0.46840778327E+01 -0.35521737622E+02 -0.20911364770E+02  0.41485307874E+02  0.10566000000E+00 0. -1.
         22    1    1    0    0    0  0.27128766164E+02 -0.65788101550E+01  0.46682406813E+01  0.28302706013E+02  0.00000000000E+00 0.  1.
</event>
<event>
 5    1  0.1724243E-003  0.9118800E+02  0.7818608E-02  0.1130116E+00
         25   -1    0    0    0    0  0.00000000000E+00  0.00000000000E+00  0.99999998245E-14  0.12500000000E+03  0.12500000000E+03 0.  0.
        -13    1    3    3    0    0 -0.13698639281E+01 -0.31346297871E+02 -0.12114798427E+02  0.33634006933E+02  0.10566000000E+00 0.  1.
         23    2    1    0    0    0 -0.21402249271E+02  0.23036049600E+02  0.26643813616E+01  0.93443466872E+02  0.87953776031E+02 0.  0.
         13    1    3    3    0    0 -0.20032385342E+02  0.54382347471E+02  0.14779179789E+02  0.59809459939E+02  0.10566000000E+00 0. -1.
         22    1    1    0    0    0  0.21402249271E+02 -0.23036049600E+02 -0.26643813616E+01  0.31556533128E+02  0.00000000000E+00 0. -1.
</event>
<event>
 5    1  0.1724243E-003  0.9118800E+02  0.7818608E-02  0.1130116E+00
         25   -1    0    0    0    0  0.00000000000E+00  0.00000000000E+00  0.99999998245E-14  0.12500000000E+03  0.12500000000E+03 0.  0.
        -13    1    3    3    0    0 -0.41936455482E+02  0.20293327398E+02  0.41235038378E+02  0.62215954460E+02  0.10566000000E+00 0. -1.
         23    2    1    0    0    0 -0.16680146757E+02  0.50175117322E+01  0.19376548889E+02  0.98945185346E+02  0.95453110669E+02 0.  0.
         13    1    3    3    0    0  0.25256308725E+02 -0.15275815666E+02 -0.21858489489E+02  0.36729230886E+02  0.10566000000E+00 0.  1.
         22    1    1    0    0    0  0.16680146757E+02 -0.50175117322E+01 -0.19376548889E+02  0.26054814654E+02  0.00000000000E+00 0. -1.
</event>
<event>
 5    1  0.1724243E-003  0.9118800E+02  0.7818608E-02  0.1130116E+00
         25   -1    0    0    0    0  0.00000000000E+00  0.00000000000E+00  0.99999998245E-14  0.12500000000E+03  0.12500000000E+03 0.  0.
        -13    1    3    3    0    0 -0.54702504314E+01  0.32421641862E+02  0.14879065880E+02  0.36089946887E+02  0.10566000000E+00 0.  1.
         23    2    1    0    0    0 -0.17238767251E+01 -0.14402595994E+02 -0.23926698128E+02  0.97019767592E+02  0.92897480579E+02 0.  0.
         13    1    3    3    0    0  0.37463737063E+01 -0.46824237856E+02 -0.38805764008E+02  0.60929820704E+02  0.10566000000E+00 0. -1.
         22    1    1    0    0    0  0.17238767251E+01  0.14402595994E+02  0.23926698128E+02  0.27980232408E+02  0.00000000000E+00 0. -1.
</event>
<event>
 5    1  0.1724243E-003  0.9118800E+02  0.7818608E-02  0.1130116E+00
         25   -1    0    0    0    0  0.00000000000E+00  0.00000000000E+00  0.99999998245E-14  0.12500000000E+03  0.12500000000E+03 0.  0.
        -13    1    3    3    0    0 -0.85956995496E+01  0.34349306867E+02 -0.28146266549E+02  0.45232559265E+02  0.10566000000E+00 0.  1.
         23    2    1    0    0    0  0.23346171192E+02  0.14068310744E+02  0.69826261657E+01  0.96862513532E+02  0.92685642810E+02 0.  0.
         13    1    3    3    0    0  0.31941870742E+02 -0.20280996123E+02  0.35128892715E+02  0.51629954267E+02  0.10566000000E+00 0. -1.
         22    1    1    0    0    0 -0.23346171192E+02 -0.14068310744E+02 -0.69826261657E+01  0.28137486468E+02  0.00000000000E+00 0. -1.
</event>
<event>
 5    1  0.1724243E-003  0.9118800E+02  0.7818608E-02  0.1130116E+00
         25   -1    0    0    0    0  0.00000000000E+00  0.00000000000E+00  0.99999998245E-14  0.12500000000E+03  0.12500000000E+03 0.  0.
        -13    1    3    3    0    0 -0.38903092943E+02  0.92406424679E+01  0.31821844542E+02  0.51102652259E+02  0.10566000000E+00 0. -1.
         23    2    1    0    0    0 -0.16942536845E+02 -0.21964232792E+02  0.78285317065E+01  0.96177040652E+02  0.91756526541E+02 0.  0.
         13    1    3    3    0    0  0.21960556098E+02 -0.31204875260E+02 -0.23993312835E+02  0.45074388393E+02  0.10566000000E+00 0.  1.
         22    1    1    0    0    0  0.16942536845E+02  0.21964232792E+02 -0.78285317065E+01  0.28822959348E+02  0.00000000000E+00 0. -1.
</event>
<event>
 5    1  0.1724243E-003  0.9118800E+02  0.7818608E-02  0.1130116E+00
         25   -1    0    0    0    0  0.00000000000E+00  0.00000000000E+00  0.99999998245E-14  0.12500000000E+03  0.12500000000E+03 0.  0.
        -13    1    3    3    0    0 -0.32311195293E+02 -0.36653022215E+02  0.31900039765E+02  0.58353072582E+02  0.10566000000E+00 0. -1.
         23    2    1    0    0    0 -0.93903380637E+01 -0.54761908898E+01  0.25107077412E+02  0.97640678887E+02  0.93729236216E+02 0.  0.
         13    1    3    3    0    0  0.22920857229E+02  0.31176831325E+02 -0.67929623533E+01  0.39287606305E+02  0.10566000000E+00 0.  1.
         22    1    1    0    0    0  0.93903380637E+01  0.54761908898E+01 -0.25107077412E+02  0.27359321113E+02  0.00000000000E+00 0. -1.
</event>
<event>
 5    1  0.1724243E-003  0.9118800E+02  0.7818608E-02  0.1130116E+00
         25   -1    0    0    0    0  0.00000000000E+00  0.00000000000E+00  0.99999998245E-14  0.12500000000E+03  0.12500000000E+03 0.  0.
        -13    1    3    3    0    0 -0.34192515324E+02  0.32291865441E+02 -0.71022787205E+00  0.47036244169E+02  0.10566000000E+00 0.  1.
         23    2    1    0    0    0 -0.14117289296E+02 -0.82410799707E+01 -0.22456197504E+02  0.97224218058E+02  0.93172176719E+02 0.  0.
         13    1    3    3    0    0  0.20075226028E+02 -0.40532945412E+02 -0.21745969632E+02  0.50187973889E+02  0.10566000000E+00 0. -1.
         22    1    1    0    0    0  0.14117289296E+02  0.82410799707E+01  0.22456197504E+02  0.27775781942E+02  0.00000000000E+00 0. -1.
</event>
<event>
 5    1  0.1724243E-003  0.9118800E+02  0.7818608E-02  0.1130116E+00
         25   -1    0    0    0    0  0.00000000000E+00  0.00000000000E+00  0.99999998245E-14  0.12500000000E+03  0.12500000000E+03 0.  0.
        -13    1    3    3    0    0  0.30976243505E+02  0.24149782927E+02  0.11372481199E+01  0.39294327510E+02  0.10566000000E+00 0.  1.
         23    2    1    0    0    0  0.48595099544E+01 -0.22992401269E+02  0.17593051416E+02  0.95643896525E+02  0.91027326289E+02 0.  0.
         13    1    3    3    0    0 -0.26116733551E+02 -0.47142184196E+02  0.16455803296E+02  0.56349569016E+02  0.10566000000E+00 0. -1.
         22    1    1    0    0    0 -0.48595099544E+01  0.22992401269E+02 -0.17593051416E+02  0.29356103475E+02  0.00000000000E+00 0. -1.
</event>
<event>
 5    1  0.1724243E-003  0.9118800E+02  0.7818608E-02  0.1130116E+00
         25   -1    0    0    0    0  0.00000000000E+00  0.00000000000E+00  0.99999998245E-14  0.12500000000E+03  0.12500000000E+03 0.  0.
        -13    1    3    3    0    0 -0.15990530059E+02 -0.17080644206E+02  0.28532063688E+02  0.36898987525E+02  0.10566000000E+00 0.  1.
         23    2    1    0    0    0 -0.93801250066E+01  0.22141868877E+02 -0.15619855772E+02  0.96325464314E+02  0.91958501937E+02 0.  0.
         13    1    3    3    0    0  0.66104050526E+01  0.39222513082E+02 -0.44151919460E+02  0.59426476788E+02  0.10566000000E+00 0. -1.
         22    1    1    0    0    0  0.93801250066E+01 -0.22141868877E+02  0.15619855772E+02  0.28674535686E+02  0.00000000000E+00 0. -1.
</event>
<event>
 5    1  0.1724243E-003  0.9118800E+02  0.7818608E-02  0.1130116E+00
         25   -1    0    0    0    0  0.00000000000E+00  0.00000000000E+00  0.99999998245E-14  0.12500000000E+03  0.12500000000E+03 0.  0.
        -13    1    3    3    0    0  0.29576023748E+02 -0.17591911136E+02 -0.31045435379E+02  0.46347025148E+02  0.10566000000E+00 0.  1.
         23    2    1    0    0    0  0.22362429305E+02 -0.12275270182E+02  0.16427355626E+02  0.94658304014E+02  0.89663682745E+02 0.  0.
         13    1    3    3    0    0 -0.72135944429E+01  0.53166409547E+01  0.47472791005E+02  0.48311278866E+02  0.10566000000E+00 0. -1.
         22    1    1    0    0    0 -0.22362429305E+02  0.12275270182E+02 -0.16427355626E+02  0.30341695986E+02  0.00000000000E+00 0.  1.
</event>
<event>
 5    1  0.1724243E-003  0.9118800E+02  0.7818608E-02  0.1130116E+00
         25   -1    0    0    0    0  0.00000000000E+00  0.00000000000E+00  0.99999998245E-14  0.12500000000E+03  0.12500000000E+03 0.  0.
        -13    1    3    3    0    0 -0.28237073344E+02  0.22827292409E+02 -0.14273980028E+02  0.39015064522E+02  0.10566000000E+00 0. -1.
         23    2    1    0    0    0  0.23265784281E+02 -0.35895628754E+01 -0.15330137627E+02  0.96907388880E+02  0.92746143963E+02 0.  0.
         13    1    3    3    0    0  0.51502857625E+02 -0.26416855284E+02 -0.10561575996E+01  0.57892324358E+02  0.10566000000E+00 0.  1.
         22    1    1    0    0    0 -0.23265784281E+02  0.35895628754E+01  0.15330137627E+02  0.28092611120E+02  0.00000000000E+00 0.  1.
</event>
<event>
 5    1  0.1724243E-003  0.9118800E+02  0.7818608E-02  0.1130116E+00
         25   -1    0    0    0    0  0.00000000000E+00  0.00000000000E+00  0.99999998245E-14  0.12500000000E+03  0.12500000000E+03 0.  0.
        -13    1    3    3    0    0 -0.58607065658E+02 -0.25724796972E+01  0.17143967587E+02  0.61117367299E+02  0.10566000000E+00 0. -1.
         23    2    1    0    0    0 -0.30009063372E+02 -0.18761555263E+01 -0.86360184213E+00  0.94919945941E+02  0.90027698434E+02 0.  0.
         13    1    3    3    0    0  0.28598002286E+02  0.69632417091E+00 -0.18007569430E+02  0.33802578642E+02  0.10566000000E+00 0.  1.
         22    1    1    0    0    0  0.30009063372E+02  0.18761555263E+01  0.86360184213E+00  0.30080054059E+02  0.00000000000E+00 0.  1.
</event>
<event>
 5    1  0.1724243E-003  0.9118800E+02  0.7818608E-02  0.1130116E+00
         25   -1    0    0    0    0  0.00000000000E+00  0.00000000000E+00  0.99999998245E-14  0.12500000000E+03  0.12500000000E+03 0.  0.
        -13    1    3    3    0    0 -0.43104625873E+01  0.15620991421E+02  0.43826809464E+02  0.46726821554E+02  0.10566000000E+00 0.  1.
         23    2    1    0    0    0  0.73956341234E+01  0.24617044026E+02 -0.59241222824E+01  0.98622178151E+02  0.95029177297E+02 0.  0.
         13    1    3    3    0    0  0.11706096711E+02  0.89960526053E+01 -0.49750931746E+02  0.51895356597E+02  0.10566000000E+00 0. -1.
         22    1    1    0    0    0 -0.73956341234E+01 -0.24617044026E+02  0.59241222824E+01  0.26377821849E+02  0.00000000000E+00 0. -1.
</event>
<event>
 5    1  0.1724243E-003  0.9118800E+02  0.7818608E-02  0.1130116E+00
         25   -1    0    0    0    0  0.00000000000E+00  0.00000000000E+00  0.99999998245E-14  0.12500000000E+03  0.12500000000E+03 0.  0.
        -13    1    3    3    0    0  0.57509780059E+01  0.43983481203E+02  0.18213936263E+02  0.47951840476E+02  0.10566000000E+00 0.  1.
         23    2    1    0    0    0  0.15271785902E+01  0.20992688240E+02 -0.22054592642E+02  0.94513440821E+02  0.89461501246E+02 0.  0.
         13    1    3    3    0    0 -0.42237994157E+01 -0.22990792963E+02 -0.40268528904E+02  0.46561600345E+02  0.10566000000E+00 0. -1.
         22    1    1    0    0    0 -0.15271785902E+01 -0.20992688240E+02  0.22054592642E+02  0.30486559179E+02  0.00000000000E+00 0. -1.
</event>
<event>
 5    1  0.1724243E-003  0.9118800E+02  0.7818608E-02  0.1130116E+00
         25   -1    0    0    0    0  0.00000000000E+00  0.00000000000E+00  0.99999998245E-14  0.12500000000E+03  0.12500000000E+03 0.  0.
        -13    1    3    3    0    0 -0.50122641796E+02 -0.34874368887E+02 -0.29843422194E+01  0.61134428012E+02  0.10566000000E+00 0. -1.
         23    2    1    0    0    0 -0.23441125583E+02 -0.11872908354E+02 -0.96885752024E+01  0.96994271821E+02  0.92863167915E+02 0.  0.
         13    1    3    3    0    0  0.26681516213E+02  0.23001460533E+02 -0.67042329830E+01  0.35859843809E+02  0.10566000000E+00 0.  1.
         22    1    1    0    0    0  0.23441125583E+02  0.11872908354E+02  0.96885752024E+01  0.28005728179E+02  0.00000000000E+00 0. -1.
</event>
<event>
 5    1  0.1724243E-003  0.9118800E+02  0.7818608E-02  0.1130116E+00
         25   -1    0    0    0    0  0.00000000000E+00  0.00000000000E+00  0.99999998245E-14  0.12500000000E+03  0.12500000000E+03 0.  0.
        -13    1    3    3    0    0  0.46323534685E+02  0.18534383382E+02 -0.48706910501E+01  0.50131108390E+02  0.10566000000E+00 0. -1.
         23    2    1    0    0    0  0.81844493007E+01  0.14534005452E+02  0.22316283515E+02  0.97138933352E+02  0.93057688226E+02 0.  0.
         13    1    3    3    0    0 -0.38139085385E+02 -0.40003779306E+01  0.27186974565E+02  0.47007824962E+02  0.10566000000E+00 0.  1.
         22    1    1    0    0    0 -0.81844493007E+01 -0.14534005452E+02 -0.22316283515E+02  0.27861066648E+02  0.00000000000E+00 0.  1.
</event>
<event>
 5    1  0.1724243E-003  0.9118800E+02  0.7818608E-02  0.1130116E+00
         25   -1    0    0    0    0  0.00000000000E+00  0.00000000000E+00  0.99999998245E-14  0.12500000000E+03  0.12500000000E+03 0.  0.
        -13    1    3    3    0    0  0.19034740317E+02  0.22423537064E+02  0.19922232269E+02  0.35525242519E+02  0.10566000000E+00 0.  1.
         23    2    1    0    0    0 -0.31588436151E+01 -0.27484774666E+02 -0.70611551537E+01  0.96447398656E+02  0.92124099257E+02 0.  0.
         13    1    3    3    0    0 -0.22193583932E+02 -0.49908311730E+02 -0.26983387423E+02  0.60922156137E+02  0.10566000000E+00 0. -1.
         22    1    1    0    0    0  0.31588436151E+01  0.27484774666E+02  0.70611551537E+01  0.28552601344E+02  0.00000000000E+00 0. -1.
</event>
<event>
 5    1  0.1724243E-003  0.9118800E+02  0.7818608E-02  0.1130116E+00
         25   -1    0    0    0    0  0.00000000000E+00  0.00000000000E+00  0.99999998245E-14  0.12500000000E+03  0.12500000000E+03 0.  0.
        -13    1    3    3    0    0 -0.39448642630E+02 -0.13205849736E+01  0.45146593174E+02  0.59968036397E+02  0.10566000000E+00 0. -1.
         23    2    1    0    0    0 -0.63476130877E+01 -0.25682135665E+01  0.25752636382E+02  0.98352557469E+02  0.94673857887E+02 0.  0.
         13    1    3    3    0    0  0.33101029542E+02 -0.12476285929E+01 -0.19393956792E+02  0.38384521072E+02  0.10566000000E+00 0.  1.
         22    1    1    0    0    0  0.63476130877E+01  0.25682135665E+01 -0.25752636382E+02  0.26647442531E+02  0.00000000000E+00 0. -1.
</event>
<event>
 5    1  0.1724243E-003  0.9118800E+02  0.7818608E-02  0.1130116E+00
         25   -1    0    0    0    0  0.00000000000E+00  0.00000000000E+00  0.99999998245E-14  0.12500000000E+03  0.12500000000E+03 0.  0.
        -13    1    3    3    0    0 -0.31383312809E+02  0.43408787758E+02 -0.10237542174E+02  0.54534884352E+02  0.10566000000E+00 0.  1.
         23    2    1    0    0    0 -0.22844855610E+02  0.99611113104E+01  0.13716843049E+02  0.96552452661E+02  0.92266533289E+02 0.  0.
         13    1    3    3    0    0  0.85384571989E+01 -0.33447676448E+02  0.23954385223E+02  0.42017568309E+02  0.10566000000E+00 0. -1.
         22    1    1    0    0    0  0.22844855610E+02 -0.99611113104E+01 -0.13716843049E+02  0.28447547339E+02  0.00000000000E+00 0.  1.
</event>
<event>
 5    1  0.1724243E-003  0.9118800E+02  0.7818608E-02  0.1130116E+00
         25   -1    0    0    0    0  0.00000000000E+00  0.00000000000E+00  0.99999998245E-14  0.12500000000E+03  0.12500000000E+03 0.  0.
        -13    1    3    3    0    0  0.34861177232E+02 -0.38898435253E+02 -0.17494750265E+02  0.55085999982E+02  0.10566000000E+00 0. -1.
         23    2    1    0    0    0  0.16155480766E+02 -0.40850475916E+01 -0.24646653517E+02  0.95248618483E+02  0.90482896841E+02 0.  0.
         13    1    3    3    0    0 -0.18705696466E+02  0.34813387661E+02 -0.71519032518E+01  0.40162618501E+02  0.10566000000E+00 0.  1.
         22    1    1    0    0    0 -0.16155480766E+02  0.40850475916E+01  0.24646653517E+02  0.29751381517E+02  0.00000000000E+00 0. -1.
</event>
<event>
 5    1  0.1724243E-003  0.9118800E+02  0.7818608E-02  0.1130116E+00
         25   -1    0    0    0    0  0.00000000000E+00  0.00000000000E+00  0.99999998245E-14  0.12500000000E+03  0.12500000000E+03 0.  0.
        -13    1    3    3    0    0 -0.48845100118E+02 -0.14800274266E+02  0.18598394020E+02  0.54321297371E+02  0.10566000000E+00 0.  1.
         23    2    1    0    0    0 -0.99599873786E+01 -0.25088112722E+02  0.16885615840E+01  0.97954372095E+02  0.94146656997E+02 0.  0.
         13    1    3    3    0    0  0.38885112739E+02 -0.10287838457E+02 -0.16909832436E+02  0.43633074724E+02  0.10566000000E+00 0. -1.
         22    1    1    0    0    0  0.99599873786E+01  0.25088112722E+02 -0.16885615840E+01  0.27045627905E+02  0.00000000000E+00 0.  1.
</event>
<event>
 4    1  0.1724243E-003  0.9118800E+02  0.7818608E-02  0.1130116E+00
         25   -1    0    0    0    0  0.00000000000E+00  0.00000000000E+00  0.99999998245E-14  0.12500000000E+03  0.12500000000E+03 0.  0.
        -13    1    1    0    0    0 -0.95532808780E+01 -0.26996570606E+01 -0.89557467915E-01  0.99283688667E+01  0.10566000000E+00 0.  1.
         13    1    1    0    0    0  0.34331257526E+02  0.45853965789E+02  0.21115610984E+02  0.61049992737E+02  0.10566000000E+00 0. -1.
         22    1    1    0    0    0 -0.24777976648E+02 -0.43154308728E+02 -0.21026053516E+02  0.54021638397E+02  0.00000000000E+00 0. -1.
</event>
<event>
 5    1  0.1724243E-003  0.9118800E+02  0.7818608E-02  0.1130116E+00
         25   -1    0    0    0    0  0.00000000000E+00  0.00000000000E+00  0.99999998245E-14  0.12500000000E+03  0.12500000000E+03 0.  0.
        -13    1    3    3    0    0 -0.48486054848E+01  0.13108137349E+02 -0.31275774913E+02  0.34256641698E+02  0.10566000000E+00 0.  1.
         23    2    1    0    0    0  0.12525010110E+02 -0.12198959362E+02  0.22697846454E+02  0.96348949034E+02  0.91990419385E+02 0.  0.
         13    1    3    3    0    0  0.17373615595E+02 -0.25307096712E+02  0.53973621368E+02  0.62092307337E+02  0.10566000000E+00 0. -1.
         22    1    1    0    0    0 -0.12525010110E+02  0.12198959362E+02 -0.22697846454E+02  0.28651050966E+02  0.00000000000E+00 0. -1.
</event>
<event>
 5    1  0.1724243E-003  0.9118800E+02  0.7818608E-02  0.1130116E+00
         25   -1    0    0    0    0  0.00000000000E+00  0.00000000000E+00  0.99999998245E-14  0.12500000000E+03  0.12500000000E+03 0.  0.
        -13    1    3    3    0    0 -0.39723256008E+02  0.11621168361E+02 -0.10014339460E+02  0.42582705185E+02  0.10566000000E+00 0.  1.
         23    2    1    0    0    0  0.11132059181E+02  0.14879354562E+02 -0.23252977137E+02  0.95233930735E+02  0.90462603786E+02 0.  0.
         13    1    3    3    0    0  0.50855315190E+02  0.32581862005E+01 -0.13238637677E+02  0.52651225550E+02  0.10566000000E+00 0. -1.
         22    1    1    0    0    0 -0.11132059181E+02 -0.14879354562E+02  0.23252977137E+02  0.29766069265E+02  0.00000000000E+00 0. -1.
</event>
<event>
 5    1  0.1724243E-003  0.9118800E+02  0.7818608E-02  0.1130116E+00
         25   -1    0    0    0    0  0.00000000000E+00  0.00000000000E+00  0.99999998245E-14  0.12500000000E+03  0.12500000000E+03 0.  0.
        -13    1    3    3    0    0 -0.37897195481E+02 -0.85680578830E+01  0.43064177254E+02  0.58001237640E+02  0.10566000000E+00 0. -1.
         23    2    1    0    0    0 -0.20878739582E+02  0.11843128584E+02  0.14784193533E+02  0.96808621183E+02  0.92612932660E+02 0.  0.
         13    1    3    3    0    0  0.17018455899E+02  0.20411186467E+02 -0.28279983721E+02  0.38807383543E+02  0.10566000000E+00 0.  1.
         22    1    1    0    0    0  0.20878739582E+02 -0.11843128584E+02 -0.14784193533E+02  0.28191378817E+02  0.00000000000E+00 0. -1.
</event>
<event>
 5    1  0.1724243E-003  0.9118800E+02  0.7818608E-02  0.1130116E+00
         25   -1    0    0    0    0  0.00000000000E+00  0.00000000000E+00  0.99999998245E-14  0.12500000000E+03  0.12500000000E+03 0.  0.
        -13    1    3    3    0    0  0.32918347020E+02 -0.20862444325E+01  0.15202282993E+01  0.33019573657E+02  0.10566000000E+00 0. -1.
         23    2    1    0    0    0 -0.29253279665E+02  0.34617771453E+01 -0.14288194287E+01  0.95507970617E+02  0.90840479161E+02 0.  0.
         13    1    3    3    0    0 -0.62171626685E+02  0.55480215779E+01 -0.29490477280E+01  0.62488396960E+02  0.10566000000E+00 0.  1.
         22    1    1    0    0    0  0.29253279665E+02 -0.34617771453E+01  0.14288194287E+01  0.29492029383E+02  0.00000000000E+00 0.  1.
</event>
<event>
 5    1  0.1724243E-003  0.9118800E+02  0.7818608E-02  0.1130116E+00
         25   -1    0    0    0    0  0.00000000000E+00  0.00000000000E+00  0.99999998245E-14  0.12500000000E+03  0.12500000000E+03 0.  0.
        -13    1    3    3    0    0 -0.15714611777E+02 -0.22203149714E+02  0.36201139553E+02  0.45282033407E+02  0.10566000000E+00 0. -1.
         23    2    1    0    0    0 -0.17992366971E+01 -0.26232430423E+02 -0.12351068868E+02  0.95949585877E+02  0.91446139717E+02 0.  0.
         13    1    3    3    0    0  0.13915375080E+02 -0.40292807086E+01 -0.48552208421E+02  0.50667552469E+02  0.10566000000E+00 0.  1.
         22    1    1    0    0    0  0.17992366971E+01  0.26232430423E+02  0.12351068868E+02  0.29050414123E+02  0.00000000000E+00 0.  1.
</event>
<event>
 5    1  0.1724243E-003  0.9118800E+02  0.7818608E-02  0.1130116E+00
         25   -1    0    0    0    0  0.00000000000E+00  0.00000000000E+00  0.99999998245E-14  0.12500000000E+03  0.12500000000E+03 0.  0.
        -13    1    3    3    0    0 -0.39590364758E+02  0.21738940669E+02  0.34035849437E+02  0.56554652629E+02  0.10566000000E+00 0.  1.
         23    2    1    0    0    0 -0.77695043143E+01  0.26010545130E+02  0.13341887978E+02  0.94752361578E+02  0.89794712509E+02 0.  0.
         13    1    3    3    0    0  0.31820860444E+02  0.42716044612E+01 -0.20693961459E+02  0.38197708949E+02  0.10566000000E+00 0. -1.
         22    1    1    0    0    0  0.77695043143E+01 -0.26010545130E+02 -0.13341887978E+02  0.30247638422E+02  0.00000000000E+00 0.  1.
</event>
<event>
 5    1  0.1724243E-003  0.9118800E+02  0.7818608E-02  0.1130116E+00
         25   -1    0    0    0    0  0.00000000000E+00  0.00000000000E+00  0.99999998245E-14  0.12500000000E+03  0.12500000000E+03 0.  0.
        -13    1    3    3    0    0  0.29413580138E+02 -0.17426112835E+02 -0.10780569876E+02  0.35847732926E+02  0.10566000000E+00 0. -1.
         23    2    1    0    0    0 -0.11929579201E+02  0.96648083259E+01  0.24156742394E+02  0.96377079412E+02  0.92028636049E+02 0.  0.
         13    1    3    3    0    0 -0.41343159338E+02  0.27090921161E+02  0.34937312270E+02  0.60529346486E+02  0.10566000000E+00 0.  1.
         22    1    1    0    0    0  0.11929579201E+02 -0.96648083259E+01 -0.24156742394E+02  0.28622920588E+02  0.00000000000E+00 0.  1.
</event>
<event>
 5    1  0.1724243E-003  0.9118800E+02  0.7818608E-02  0.1130116E+00
         25   -1    0    0    0    0  0.00000000000E+00  0.00000000000E+00  0.99999998245E-14  0.12500000000E+03  0.12500000000E+03 0.  0.
        -13    1    3    3    0    0  0.18414785406E+00 -0.57608813548E+02  0.75931034975E+01  0.58107449554E+02  0.10566000000E+00 0. -1.
         23    2    1    0    0    0 -0.16318091288E+02 -0.24055833359E+02  0.32263612261E+01  0.95753245844E+02  0.91177362657E+02 0.  0.
         13    1    3    3    0    0 -0.16502239142E+02  0.33552980189E+02 -0.43667422714E+01  0.37645796291E+02  0.10566000000E+00 0.  1.
         22    1    1    0    0    0  0.16318091288E+02  0.24055833359E+02 -0.32263612261E+01  0.29246754156E+02  0.00000000000E+00 0. -1.
</event>
<event>
 5    1  0.1724243E-003  0.9118800E+02  0.7818608E-02  0.1130116E+00
         25   -1    0    0    0    0  0.00000000000E+00  0.00000000000E+00  0.99999998245E-14  0.12500000000E+03  0.12500000000E+03 0.  0.
        -13    1    3    3    0    0 -0.11251124840E+01  0.33029609984E+02 -0.18588160700E+02  0.37917698981E+02  0.10566000000E+00 0.  1.
         23    2    1    0    0    0  0.72718635060E+01 -0.23995378823E+02 -0.15248171957E+02  0.95654387863E+02  0.91041732001E+02 0.  0.
         13    1    3    3    0    0  0.83969759899E+01 -0.57024988806E+02  0.33399887437E+01  0.57736688881E+02  0.10566000000E+00 0. -1.
         22    1    1    0    0    0 -0.72718635060E+01  0.23995378823E+02  0.15248171957E+02  0.29345612137E+02  0.00000000000E+00 0. -1.
</event>
<event>
 5    1  0.1724243E-003  0.9118800E+02  0.7818608E-02  0.1130116E+00
         25   -1    0    0    0    0  0.00000000000E+00  0.00000000000E+00  0.99999998245E-14  0.12500000000E+03  0.12500000000E+03 0.  0.
        -13    1    3    3    0    0 -0.23622757092E+02 -0.30862096415E+02 -0.47791639861E+02  0.61599964711E+02  0.10566000000E+00 0.  1.
         23    2    1    0    0    0 -0.18843351837E+02 -0.18873399932E+02 -0.22052619550E+02  0.90393712097E+02  0.83507053739E+02 0.  0.
         13    1    3    3    0    0  0.47794052548E+01  0.11988696483E+02  0.25739020310E+02  0.28793747386E+02  0.10566000000E+00 0. -1.
         22    1    1    0    0    0  0.18843351837E+02  0.18873399932E+02  0.22052619550E+02  0.34606287903E+02  0.00000000000E+00 0.  1.
</event>
<event>
 5    1  0.1724243E-003  0.9118800E+02  0.7818608E-02  0.1130116E+00
         25   -1    0    0    0    0  0.00000000000E+00  0.00000000000E+00  0.99999998245E-14  0.12500000000E+03  0.12500000000E+03 0.  0.
        -13    1    3    3    0    0  0.36503768641E+02 -0.49664848587E+02 -0.50634200555E+01  0.61844738635E+02  0.10566000000E+00 0. -1.
         23    2    1    0    0    0  0.22223606672E+02 -0.19571433210E+02 -0.14250278018E+01  0.95352733758E+02  0.90626615513E+02 0.  0.
         13    1    3    3    0    0 -0.14280161969E+02  0.30093415377E+02  0.36383922537E+01  0.33507995122E+02  0.10566000000E+00 0.  1.
         22    1    1    0    0    0 -0.22223606672E+02  0.19571433210E+02  0.14250278018E+01  0.29647266242E+02  0.00000000000E+00 0. -1.
</event>
<event>
 5    1  0.1724243E-003  0.9118800E+02  0.7818608E-02  0.1130116E+00
         25   -1    0    0    0    0  0.00000000000E+00  0.00000000000E+00  0.99999998245E-14  0.12500000000E+03  0.12500000000E+03 0.  0.
        -13    1    3    3    0    0 -0.24693039426E+01  0.33434098139E+02 -0.51822276586E+01  0.33923487849E+02  0.10566000000E+00 0.  1.
         23    2    1    0    0    0  0.22619363333E+01 -0.12915862853E+02  0.29969504530E+02  0.92287508945E+02  0.86295290927E+02 0.  0.
         13    1    3    3    0    0  0.47312402759E+01 -0.46349960992E+02  0.35151732189E+02  0.58364021096E+02  0.10566000000E+00 0. -1.
         22    1    1    0    0    0 -0.22619363333E+01  0.12915862853E+02 -0.29969504530E+02  0.32712491055E+02  0.00000000000E+00 0. -1.
</event>
<event>
 5    1  0.1724243E-003  0.9118800E+02  0.7818608E-02  0.1130116E+00
         25   -1    0    0    0    0  0.00000000000E+00  0.00000000000E+00  0.99999998245E-14  0.12500000000E+03  0.12500000000E+03 0.  0.
        -13    1    3    3    0    0 -0.51098252821E+01 -0.43595604584E+02  0.34615589480E+02  0.55901138205E+02  0.10566000000E+00 0. -1.
         23    2    1    0    0    0  0.16020078589E+02 -0.15805426056E+02  0.44059839376E+01  0.10206820754E+03  0.99458794914E+02 0.  0.
         13    1    3    3    0    0  0.21129903871E+02  0.27790178528E+02 -0.30209605543E+02  0.46167069339E+02  0.10566000000E+00 0.  1.
         22    1    1    0    0    0 -0.16020078589E+02  0.15805426056E+02 -0.44059839376E+01  0.22931792457E+02  0.00000000000E+00 0. -1.
</event>
<event>
 5    1  0.1724243E-003  0.9118800E+02  0.7818608E-02  0.1130116E+00
         25   -1    0    0    0    0  0.00000000000E+00  0.00000000000E+00  0.99999998245E-14  0.12500000000E+03  0.12500000000E+03 0.  0.
        -13    1    3    3    0    0 -0.41926105341E+01  0.13809390681E+02  0.34381438854E+02  0.37287689065E+02  0.10566000000E+00 0.  1.
         23    2    1    0    0    0 -0.22968292544E+02 -0.10418140054E+02 -0.15181340395E+02  0.95562724298E+02  0.90915791117E+02 0.  0.
         13    1    3    3    0    0 -0.18775682010E+02 -0.24227530735E+02 -0.49562779249E+02  0.58275035233E+02  0.10566000000E+00 0. -1.
         22    1    1    0    0    0  0.22968292544E+02  0.10418140054E+02  0.15181340395E+02  0.29437275702E+02  0.00000000000E+00 0. -1.
</event>
<event>
 5    1  0.1724243E-003  0.9118800E+02  0.7818608E-02  0.1130116E+00
         25   -1    0    0    0    0  0.00000000000E+00  0.00000000000E+00  0.99999998245E-14  0.12500000000E+03  0.12500000000E+03 0.  0.
        -13    1    3    3    0    0 -0.23435569454E+02 -0.34699600031E+02 -0.22636350069E+02  0.47599408257E+02  0.10566000000E+00 0.  1.
         23    2    1    0    0    0 -0.28375539037E+02  0.81484602587E+01 -0.20108631809E+01  0.95409254978E+02  0.90704540925E+02 0.  0.
         13    1    3    3    0    0 -0.49399695830E+01  0.42848060289E+02  0.20625486888E+02  0.47809846721E+02  0.10566000000E+00 0. -1.
         22    1    1    0    0    0  0.28375539037E+02 -0.81484602587E+01  0.20108631809E+01  0.29590745022E+02  0.00000000000E+00 0.  1.
</event>
<event>
 4    1  0.1724243E-003  0.9118800E+02  0.7818608E-02  0.1130116E+00
         25   -1    0    0    0    0  0.00000000000E+00  0.00000000000E+00  0.99999998245E-14  0.12500000000E+03  0.12500000000E+03 0.  0.
        -13    1    1    0    0    0 -0.66354731162E+01  0.96523703078E+01  0.12259885686E+02  0.16956229448E+02  0.10566000000E+00 0.  1.
         13    1    1    0    0    0  0.27758999631E+02  0.32896317273E+02 -0.34906150339E+02  0.55418230269E+02  0.10566000000E+00 0. -1.
         22    1    1    0    0    0 -0.21123526515E+02 -0.42548687581E+02  0.22646264653E+02  0.52625540282E+02  0.00000000000E+00 0. -1.
</event>
<event>
 5    1  0.1724243E-003  0.9118800E+02  0.7818608E-02  0.1130116E+00
         25   -1    0    0    0    0  0.00000000000E+00  0.00000000000E+00  0.99999998245E-14  0.12500000000E+03  0.12500000000E+03 0.  0.
        -13    1    3    3    0    0 -0.91848619739E+01  0.12870963105E+02  0.52979932079E+02  0.55289309526E+02  0.10566000000E+00 0.  1.
         23    2    1    0    0    0 -0.13331293534E+02 -0.13286382764E+02  0.22247537113E+02  0.95858890519E+02  0.91322081829E+02 0.  0.
         13    1    3    3    0    0 -0.41464315601E+01 -0.26157345869E+02 -0.30732394966E+02  0.40569580993E+02  0.10566000000E+00 0. -1.
         22    1    1    0    0    0  0.13331293534E+02  0.13286382764E+02 -0.22247537113E+02  0.29141109481E+02  0.00000000000E+00 0.  1.
</event>
<event>
 5    1  0.1724243E-003  0.9118800E+02  0.7818608E-02  0.1130116E+00
         25   -1    0    0    0    0  0.00000000000E+00  0.00000000000E+00  0.99999998245E-14  0.12500000000E+03  0.12500000000E+03 0.  0.
        -13    1    3    3    0    0  0.40481662772E+02 -0.14392510160E+02  0.10426865107E+02  0.44211311330E+02  0.10566000000E+00 0.  1.
         23    2    1    0    0    0  0.74103829847E+01  0.23782175275E+02 -0.92661932171E+01  0.98422415958E+02  0.94766048717E+02 0.  0.
         13    1    3    3    0    0 -0.33071279788E+02  0.38174685435E+02 -0.19693058324E+02  0.54211104628E+02  0.10566000000E+00 0. -1.
         22    1    1    0    0    0 -0.74103829847E+01 -0.23782175275E+02  0.92661932171E+01  0.26577584042E+02  0.00000000000E+00 0. -1.
</event>
<event>
 5    1  0.1724243E-003  0.9118800E+02  0.7818608E-02  0.1130116E+00
         25   -1    0    0    0    0  0.00000000000E+00  0.00000000000E+00  0.99999998245E-14  0.12500000000E+03  0.12500000000E+03 0.  0.
        -13    1    3    3    0    0  0.19072903235E+02 -0.33297439728E+02 -0.14832982687E+02  0.41140292533E+02  0.10566000000E+00 0.  1.
         23    2    1    0    0    0 -0.25069061201E+02 -0.30687719599E+01 -0.16782589798E+02  0.94676238505E+02  0.89688681707E+02 0.  0.
         13    1    3    3    0    0 -0.44141964436E+02  0.30228667768E+02 -0.19496071113E+01  0.53535945973E+02  0.10566000000E+00 0. -1.
         22    1    1    0    0    0  0.25069061201E+02  0.30687719599E+01  0.16782589798E+02  0.30323761495E+02  0.00000000000E+00 0. -1.
</event>
<event>
 5    1  0.1724243E-003  0.9118800E+02  0.7818608E-02  0.1130116E+00
         25   -1    0    0    0    0  0.00000000000E+00  0.00000000000E+00  0.99999998245E-14  0.12500000000E+03  0.12500000000E+03 0.  0.
        -13    1    3    3    0    0 -0.28752925711E+02  0.62326731630E+01  0.27232739365E+02  0.40090026304E+02  0.10566000000E+00 0.  1.
         23    2    1    0    0    0  0.75329748612E+01 -0.27946522411E+02  0.19328120498E+01  0.95991560064E+02  0.91503497288E+02 0.  0.
         13    1    3    3    0    0  0.36285900572E+02 -0.34179195574E+02 -0.25299927315E+02  0.55901533759E+02  0.10566000000E+00 0. -1.
         22    1    1    0    0    0 -0.75329748612E+01  0.27946522411E+02 -0.19328120498E+01  0.29008439936E+02  0.00000000000E+00 0. -1.
</event>
<event>
 5    1  0.1724243E-003  0.9118800E+02  0.7818608E-02  0.1130116E+00
         25   -1    0    0    0    0  0.00000000000E+00  0.00000000000E+00  0.99999998245E-14  0.12500000000E+03  0.12500000000E+03 0.  0.
        -13    1    3    3    0    0  0.83826694706E+01  0.21903038769E+02 -0.51851053967E+02  0.56908305337E+02  0.10566000000E+00 0.  1.
         23    2    1    0    0    0  0.14825952132E+02 -0.51417629609E+01 -0.24476619450E+02  0.95925071236E+02  0.91412623903E+02 0.  0.
         13    1    3    3    0    0  0.64432826611E+01 -0.27044801730E+02  0.27374434517E+02  0.39016765899E+02  0.10566000000E+00 0. -1.
         22    1    1    0    0    0 -0.14825952132E+02  0.51417629609E+01  0.24476619450E+02  0.29074928764E+02  0.00000000000E+00 0.  1.
</event>
<event>
 5    1  0.1724243E-003  0.9118800E+02  0.7818608E-02  0.1130116E+00
         25   -1    0    0    0    0  0.00000000000E+00  0.00000000000E+00  0.99999998245E-14  0.12500000000E+03  0.12500000000E+03 0.  0.
        -13    1    3    3    0    0 -0.53647528156E+01 -0.39685889707E+02  0.17536963582E+01  0.40085371766E+02  0.10566000000E+00 0. -1.
         23    2    1    0    0    0 -0.78277856951E+01  0.56691318763E+01 -0.28663231289E+02  0.94751130384E+02  0.89792998592E+02 0.  0.
         13    1    3    3    0    0 -0.24630328795E+01  0.45355021584E+02 -0.30416927647E+02  0.54665758619E+02  0.10566000000E+00 0.  1.
         22    1    1    0    0    0  0.78277856951E+01 -0.56691318763E+01  0.28663231289E+02  0.30248869616E+02  0.00000000000E+00 0. -1.
</event>
<event>
 5    1  0.1724243E-003  0.9118800E+02  0.7818608E-02  0.1130116E+00
         25   -1    0    0    0    0  0.00000000000E+00  0.00000000000E+00  0.99999998245E-14  0.12500000000E+03  0.12500000000E+03 0.  0.
        -13    1    3    3    0    0 -0.94011770449E+01 -0.49347008478E+01  0.34270744292E+02  0.35877966507E+02  0.10566000000E+00 0. -1.
         23    2    1    0    0    0  0.19038846049E+02 -0.54524406103E+01 -0.19813386526E+02  0.96986127488E+02  0.92852204454E+02 0.  0.
         13    1    3    3    0    0  0.28440023094E+02 -0.51773976249E+00 -0.54084130818E+02  0.61108160981E+02  0.10566000000E+00 0.  1.
         22    1    1    0    0    0 -0.19038846049E+02  0.54524406103E+01  0.19813386526E+02  0.28013872512E+02  0.00000000000E+00 0.  1.
</event>
<event>
 4    1  0.1724243E-003  0.9118800E+02  0.7818608E-02  0.1130116E+00
         25   -1    0    0    0    0  0.00000000000E+00  0.00000000000E+00  0.99999998245E-14  0.12500000000E+03  0.12500000000E+03 0.  0.
        -13    1    1    0    0    0 -0.10593142426E+02  0.39841912924E+01 -0.46546385340E+02  0.47902667973E+02  0.10566000000E+00 0.  1.
         13    1    1    0    0    0  0.22186010776E+02  0.40347671447E+01 -0.54705971372E+01  0.23204245670E+02  0.10566000000E+00 0. -1.
         22    1    1    0    0    0 -0.11592868350E+02 -0.80189584371E+01  0.52016982477E+02  0.53893086357E+02  0.00000000000E+00 0. -1.
</event>
<event>
 5    1  0.1724243E-003  0.9118800E+02  0.7818608E-02  0.1130116E+00
         25   -1    0    0    0    0  0.00000000000E+00  0.00000000000E+00  0.99999998245E-14  0.12500000000E+03  0.12500000000E+03 0.  0.
        -13    1    3    3    0    0 -0.11772317997E+02 -0.47382726687E+02  0.32186928644E+01  0.48929351183E+02  0.10566000000E+00 0. -1.
         23    2    1    0    0    0 -0.69324646551E+01 -0.84516444962E+01  0.27733551187E+02  0.95189947629E+02  0.90401808097E+02 0.  0.
         13    1    3    3    0    0  0.48398533421E+01  0.38931082191E+02  0.24514858323E+02  0.46260596447E+02  0.10566000000E+00 0.  1.
         22    1    1    0    0    0  0.69324646551E+01  0.84516444962E+01 -0.27733551187E+02  0.29810052371E+02  0.00000000000E+00 0. -1.
</event>
<event>
 5    1  0.1724243E-003  0.9118800E+02  0.7818608E-02  0.1130116E+00
         25   -1    0    0    0    0  0.00000000000E+00  0.00000000000E+00  0.99999998245E-14  0.12500000000E+03  0.12500000000E+03 0.  0.
        -13    1    3    3    0    0  0.14206627004E+02 -0.44338416184E+02 -0.61389308689E+00  0.46562983466E+02  0.10566000000E+00 0.  1.
         23    2    1    0    0    0 -0.24873001184E+02 -0.12305259504E+02 -0.25646586303E+01  0.97131324515E+02  0.93047467074E+02 0.  0.
         13    1    3    3    0    0 -0.39079628188E+02  0.32033156680E+02 -0.19507655434E+01  0.50568341049E+02  0.10566000000E+00 0. -1.
         22    1    1    0    0    0  0.24873001184E+02  0.12305259504E+02  0.25646586303E+01  0.27868675485E+02  0.00000000000E+00 0. -1.
</event>
<event>
 5    1  0.1724243E-003  0.9118800E+02  0.7818608E-02  0.1130116E+00
         25   -1    0    0    0    0  0.00000000000E+00  0.00000000000E+00  0.99999998245E-14  0.12500000000E+03  0.12500000000E+03 0.  0.
        -13    1    3    3    0    0 -0.10574261030E+02  0.41899117744E+02  0.70385579227E+01  0.43782456826E+02  0.10566000000E+00 0.  1.
         23    2    1    0    0    0  0.14336340714E+02 -0.63157268454E+01  0.20015897532E+02  0.99582383576E+02  0.96283933727E+02 0.  0.
         13    1    3    3    0    0  0.24910601744E+02 -0.48214844589E+02  0.12977339610E+02  0.55799926750E+02  0.10566000000E+00 0. -1.
         22    1    1    0    0    0 -0.14336340714E+02  0.63157268454E+01 -0.20015897532E+02  0.25417616424E+02  0.00000000000E+00 0. -1.
</event>
<event>
 5    1  0.1724243E-003  0.9118800E+02  0.7818608E-02  0.1130116E+00
         25   -1    0    0    0    0  0.00000000000E+00  0.00000000000E+00  0.99999998245E-14  0.12500000000E+03  0.12500000000E+03 0.  0.
        -13    1    3    3    0    0  0.30048865220E+02 -0.34049638742E+02  0.35054544864E+02  0.57368497271E+02  0.10566000000E+00 0. -1.
         23    2    1    0    0    0  0.16410683223E+02 -0.34471785063E+02  0.10592118010E+02  0.85379204284E+02  0.75629366459E+02 0.  0.
         13    1    3    3    0    0 -0.13638181997E+02 -0.42214632092E+00 -0.24462426854E+02  0.28010707013E+02  0.10566000000E+00 0.  1.
         22    1    1    0    0    0 -0.16410683223E+02  0.34471785063E+02 -0.10592118010E+02  0.39620795716E+02  0.00000000000E+00 0. -1.
</event>
<event>
 5    1  0.1724243E-003  0.9118800E+02  0.7818608E-02  0.1130116E+00
         25   -1    0    0    0    0  0.00000000000E+00  0.00000000000E+00  0.99999998245E-14  0.12500000000E+03  0.12500000000E+03 0.  0.
        -13    1    3    3    0    0 -0.38671774583E+02  0.14098977939E+02 -0.71382661403E+01  0.41776229316E+02  0.10566000000E+00 0. -1.
         23    2    1    0    0    0  0.88855395006E+01  0.22883985346E+02  0.16314327848E+02  0.95524808895E+02  0.90863646326E+02 0.  0.
         13    1    3    3    0    0  0.47557314083E+02  0.87850074068E+01  0.23452593989E+02  0.53748579579E+02  0.10566000000E+00 0.  1.
         22    1    1    0    0    0 -0.88855395006E+01 -0.22883985346E+02 -0.16314327848E+02  0.29475191105E+02  0.00000000000E+00 0.  1.
</event>
<event>
 5    1  0.1724243E-003  0.9118800E+02  0.7818608E-02  0.1130116E+00
         25   -1    0    0    0    0  0.00000000000E+00  0.00000000000E+00  0.99999998245E-14  0.12500000000E+03  0.12500000000E+03 0.  0.
        -13    1    3    3    0    0 -0.30311558613E+02 -0.40876111632E+02  0.15363474706E+02  0.53157262973E+02  0.10566000000E+00 0.  1.
         23    2    1    0    0    0 -0.16508935850E+02 -0.19749663559E+02 -0.16966594170E+02  0.94170476952E+02  0.88981004929E+02 0.  0.
         13    1    3    3    0    0  0.13802622763E+02  0.21126448073E+02 -0.32330068876E+02  0.41013213979E+02  0.10566000000E+00 0. -1.
         22    1    1    0    0    0  0.16508935850E+02  0.19749663559E+02  0.16966594170E+02  0.30829523048E+02  0.00000000000E+00 0.  1.
</event>
<event>
 5    1  0.1724243E-003  0.9118800E+02  0.7818608E-02  0.1130116E+00
         25   -1    0    0    0    0  0.00000000000E+00  0.00000000000E+00  0.99999998245E-14  0.12500000000E+03  0.12500000000E+03 0.  0.
        -13    1    3    3    0    0  0.48999868538E+02 -0.12107579517E+02  0.27262976700E+02  0.57366032294E+02  0.10566000000E+00 0.  1.
         23    2    1    0    0    0  0.10724879673E+02 -0.15345980593E+02  0.21960172327E+02  0.96142222313E+02  0.91709081221E+02 0.  0.
         13    1    3    3    0    0 -0.38274988865E+02 -0.32384010765E+01 -0.53028043730E+01  0.38776190020E+02  0.10566000000E+00 0. -1.
         22    1    1    0    0    0 -0.10724879673E+02  0.15345980593E+02 -0.21960172327E+02  0.28857777687E+02  0.00000000000E+00 0.  1.
</event>
<event>
 5    1  0.1724243E-003  0.9118800E+02  0.7818608E-02  0.1130116E+00
         25   -1    0    0    0    0  0.00000000000E+00  0.00000000000E+00  0.99999998245E-14  0.12500000000E+03  0.12500000000E+03 0.  0.
        -13    1    3    3    0    0 -0.23714911718E+01  0.34929780478E+02  0.25302540570E+02  0.43196565349E+02  0.10566000000E+00 0. -1.
         23    2    1    0    0    0  0.19586915481E+02 -0.13968449739E+02  0.10057555011E+02  0.98924738564E+02  0.95426330962E+02 0.  0.
         13    1    3    3    0    0  0.21958406653E+02 -0.48898230217E+02 -0.15244985560E+02  0.55728173215E+02  0.10566000000E+00 0.  1.
         22    1    1    0    0    0 -0.19586915481E+02  0.13968449739E+02 -0.10057555011E+02  0.26075261436E+02  0.00000000000E+00 0.  1.
</event>
<event>
 5    1  0.1724243E-003  0.9118800E+02  0.7818608E-02  0.1130116E+00
         25   -1    0    0    0    0  0.00000000000E+00  0.00000000000E+00  0.99999998245E-14  0.12500000000E+03  0.12500000000E+03 0.  0.
        -13    1    3    3    0    0 -0.20010985533E+02  0.12957568566E+02  0.27127351447E+02  0.36114297525E+02  0.10566000000E+00 0.  1.
         23    2    1    0    0    0  0.37806833241E+00  0.56532869179E+01 -0.28569568835E+02  0.95874017578E+02  0.91342785125E+02 0.  0.
         13    1    3    3    0    0  0.20389053865E+02 -0.73042816479E+01 -0.55696920282E+02  0.59759720053E+02  0.10566000000E+00 0. -1.
         22    1    1    0    0    0 -0.37806833241E+00 -0.56532869179E+01  0.28569568835E+02  0.29125982422E+02  0.00000000000E+00 0. -1.
</event>
<event>
 5    1  0.1724243E-003  0.9118800E+02  0.7818608E-02  0.1130116E+00
         25   -1    0    0    0    0  0.00000000000E+00  0.00000000000E+00  0.99999998245E-14  0.12500000000E+03  0.12500000000E+03 0.  0.
        -13    1    3    3    0    0  0.46884234904E+02 -0.57176962386E+01 -0.28172910656E+02  0.54995887044E+02  0.10566000000E+00 0.  1.
         23    2    1    0    0    0  0.15552559439E+02  0.14056167569E+02  0.35096413893E+01  0.10374498801E+03  0.10154431054E+03 0.  0.
         13    1    3    3    0    0 -0.31331675466E+02  0.19773863807E+02  0.31682552046E+02  0.48749100971E+02  0.10566000000E+00 0. -1.
         22    1    1    0    0    0 -0.15552559439E+02 -0.14056167569E+02 -0.35096413893E+01  0.21255011985E+02  0.00000000000E+00 0.  1.
</event>
<event>
 5    1  0.1724243E-003  0.9118800E+02  0.7818608E-02  0.1130116E+00
         25   -1    0    0    0    0  0.00000000000E+00  0.00000000000E+00  0.99999998245E-14  0.12500000000E+03  0.12500000000E+03 0.  0.
        -13    1    3    3    0    0  0.59256027084E+02  0.15106459968E+02 -0.32329624725E+01  0.61236795221E+02  0.10566000000E+00 0.  1.
         23    2    1    0    0    0  0.12165139252E+02  0.97384665599E+01 -0.49081590736E+01  0.10866236341E+03  0.10742714206E+03 0.  0.
         13    1    3    3    0    0 -0.47090887832E+02 -0.53679934076E+01 -0.16751966011E+01  0.47425568186E+02  0.10566000000E+00 0. -1.
         22    1    1    0    0    0 -0.12165139252E+02 -0.97384665599E+01  0.49081590736E+01  0.16337636593E+02  0.00000000000E+00 0.  1.
</event>
<event>
 5    1  0.1724243E-003  0.9118800E+02  0.7818608E-02  0.1130116E+00
         25   -1    0    0    0    0  0.00000000000E+00  0.00000000000E+00  0.99999998245E-14  0.12500000000E+03  0.12500000000E+03 0.  0.
        -13    1    3    3    0    0  0.21370419374E+02  0.58108226526E+02  0.27443645249E+01  0.61974216533E+02  0.10566000000E+00 0.  1.
         23    2    1    0    0    0  0.11548274109E+02  0.27185213580E+02  0.68531991188E+01  0.94678970821E+02  0.89692489682E+02 0.  0.
         13    1    3    3    0    0 -0.98221452657E+01 -0.30923012946E+02  0.41088345939E+01  0.32704754288E+02  0.10566000000E+00 0. -1.
         22    1    1    0    0    0 -0.11548274109E+02 -0.27185213580E+02 -0.68531991188E+01  0.30321029179E+02  0.00000000000E+00 0.  1.
</event>
<event>
 5    1  0.1724243E-003  0.9118800E+02  0.7818608E-02  0.1130116E+00
         25   -1    0    0    0    0  0.00000000000E+00  0.00000000000E+00  0.99999998245E-14  0.12500000000E+03  0.12500000000E+03 0.  0.
        -13    1    3    3    0    0  0.41427434391E+02  0.39686535397E+02  0.11817846527E+02  0.58574107526E+02  0.10566000000E+00 0.  1.
         23    2    1    0    0    0  0.11711526829E+02  0.19104622455E+02  0.19226934995E+02  0.95473376605E+02  0.90792863989E+02 0.  0.
         13    1    3    3    0    0 -0.29715907562E+02 -0.20581912942E+02  0.74090884685E+01  0.36899269079E+02  0.10566000000E+00 0. -1.
         22    1    1    0    0    0 -0.11711526829E+02 -0.19104622455E+02 -0.19226934995E+02  0.29526623395E+02  0.00000000000E+00 0.  1.
</event>
<event>
 5    1  0.1724243E-003  0.9118800E+02  0.7818608E-02  0.1130116E+00
         25   -1    0    0    0    0  0.00000000000E+00  0.00000000000E+00  0.99999998245E-14  0.12500000000E+03  0.12500000000E+03 0.  0.
        -13    1    3    3    0    0 -0.27231010433E+02  0.11734631103E+02 -0.19210287810E+02  0.35330947031E+02  0.10566000000E+00 0. -1.
         23    2    1    0    0    0  0.16935553508E+02  0.15174364311E+02  0.20169910964E+02  0.94604282980E+02  0.89588340452E+02 0.  0.
         13    1    3    3    0    0  0.44166563941E+02  0.34397332080E+01  0.39380198774E+02  0.59273335949E+02  0.10566000000E+00 0.  1.
         22    1    1    0    0    0 -0.16935553508E+02 -0.15174364311E+02 -0.20169910964E+02  0.30395717020E+02  0.00000000000E+00 0.  1.
</event>
<event>
 5    1  0.1724243E-003  0.9118800E+02  0.7818608E-02  0.1130116E+00
         25   -1    0    0    0    0  0.00000000000E+00  0.00000000000E+00  0.99999998245E-14  0.12500000000E+03  0.12500000000E+03 0.  0.
        -13    1    3    3    0    0 -0.30544629057E+02 -0.12466415229E+02  0.27178010083E+02  0.42743903296E+02  0.10566000000E+00 0.  1.
         23    2    1    0    0    0  0.21497163704E+02 -0.11932703232E+01  0.18331986170E+02  0.96722559198E+02  0.92496701560E+02 0.  0.
         13    1    3    3    0    0  0.52041792761E+02  0.11273144905E+02 -0.88460239130E+01  0.53978655902E+02  0.10566000000E+00 0. -1.
         22    1    1    0    0    0 -0.21497163704E+02  0.11932703232E+01 -0.18331986170E+02  0.28277440802E+02  0.00000000000E+00 0.  1.
</event>
<event>
 5    1  0.1724243E-003  0.9118800E+02  0.7818608E-02  0.1130116E+00
         25   -1    0    0    0    0  0.00000000000E+00  0.00000000000E+00  0.99999998245E-14  0.12500000000E+03  0.12500000000E+03 0.  0.
        -13    1    3    3    0    0 -0.11103327163E+02 -0.10557742222E+02  0.43246696072E+02  0.45880689621E+02  0.10566000000E+00 0.  1.
         23    2    1    0    0    0 -0.19904360968E+02  0.20493602593E+02  0.48793270894E+01  0.96017605937E+02  0.91539070807E+02 0.  0.
         13    1    3    3    0    0 -0.88010338047E+01  0.31051344816E+02 -0.38367368983E+02  0.50136916315E+02  0.10566000000E+00 0. -1.
         22    1    1    0    0    0  0.19904360968E+02 -0.20493602593E+02 -0.48793270894E+01  0.28982394063E+02  0.00000000000E+00 0. -1.
</event>
<event>
 5    1  0.1724243E-003  0.9118800E+02  0.7818608E-02  0.1130116E+00
         25   -1    0    0    0    0  0.00000000000E+00  0.00000000000E+00  0.99999998245E-14  0.12500000000E+03  0.12500000000E+03 0.  0.
        -13    1    3    3    0    0 -0.26040901976E+02  0.11996605793E+02 -0.25396714494E+02  0.38302106958E+02  0.10566000000E+00 0.  1.
         23    2    1    0    0    0 -0.32149404086E+02 -0.13309812645E+02  0.15600962521E+02  0.86867004743E+02  0.78049671272E+02 0.  0.
         13    1    3    3    0    0 -0.61085021104E+01 -0.25306418438E+02  0.40997677015E+02  0.48564897785E+02  0.10566000000E+00 0. -1.
         22    1    1    0    0    0  0.32149404086E+02  0.13309812645E+02 -0.15600962521E+02  0.38132995257E+02  0.00000000000E+00 0. -1.
</event>
<event>
 5    1  0.1724243E-003  0.9118800E+02  0.7818608E-02  0.1130116E+00
         25   -1    0    0    0    0  0.00000000000E+00  0.00000000000E+00  0.99999998245E-14  0.12500000000E+03  0.12500000000E+03 0.  0.
        -13    1    3    3    0    0 -0.60500023498E+02 -0.28845578487E+00  0.65494184208E+01  0.60854269330E+02  0.10566000000E+00 0. -1.
         23    2    1    0    0    0 -0.43482726989E+02  0.18043716944E+01 -0.44934473353E+01  0.81248492911E+02  0.68462568077E+02 0.  0.
         13    1    3    3    0    0  0.17017296509E+02  0.20928274792E+01 -0.11042865756E+02  0.20394223581E+02  0.10566000000E+00 0.  1.
         22    1    1    0    0    0  0.43482726989E+02 -0.18043716944E+01  0.44934473353E+01  0.43751507089E+02  0.00000000000E+00 0. -1.
</event>
<event>
 5    1  0.1724243E-003  0.9118800E+02  0.7818608E-02  0.1130116E+00
         25   -1    0    0    0    0  0.00000000000E+00  0.00000000000E+00  0.99999998245E-14  0.12500000000E+03  0.12500000000E+03 0.  0.
        -13    1    3    3    0    0  0.41556131319E+02 -0.12953009280E+02  0.77650967905E+00  0.43535119512E+02  0.10566000000E+00 0.  1.
         23    2    1    0    0    0  0.37333956285E+01 -0.37599587255E+01  0.31458817513E+02  0.93098076361E+02  0.87461529202E+02 0.  0.
         13    1    3    3    0    0 -0.37822735690E+02  0.91930505541E+01  0.30682307834E+02  0.49562956849E+02  0.10566000000E+00 0. -1.
         22    1    1    0    0    0 -0.37333956285E+01  0.37599587255E+01 -0.31458817513E+02  0.31901923639E+02  0.00000000000E+00 0. -1.
</event>
<event>
 5    1  0.1724243E-003  0.9118800E+02  0.7818608E-02  0.1130116E+00
         25   -1    0    0    0    0  0.00000000000E+00  0.00000000000E+00  0.99999998245E-14  0.12500000000E+03  0.12500000000E+03 0.  0.
        -13    1    3    3    0    0 -0.50104231441E+02  0.13184535711E+02 -0.17917587965E+02  0.54820772639E+02  0.10566000000E+00 0.  1.
         23    2    1    0    0    0 -0.24695155247E+02  0.62965331860E+01  0.13782040215E+02  0.96026880470E+02  0.91551734650E+02 0.  0.
         13    1    3    3    0    0  0.25409076194E+02 -0.68880025248E+01  0.31699628180E+02  0.41206107831E+02  0.10566000000E+00 0. -1.
         22    1    1    0    0    0  0.24695155247E+02 -0.62965331860E+01 -0.13782040215E+02  0.28973119530E+02  0.00000000000E+00 0. -1.
</event>
<event>
 5    1  0.1724243E-003  0.9118800E+02  0.7818608E-02  0.1130116E+00
         25   -1    0    0    0    0  0.00000000000E+00  0.00000000000E+00  0.99999998245E-14  0.12500000000E+03  0.12500000000E+03 0.  0.
        -13    1    3    3    0    0 -0.77697731330E+01  0.36797334008E+02 -0.93618866393E+01  0.38756538160E+02  0.10566000000E+00 0.  1.
         23    2    1    0    0    0  0.31903451171E+02  0.41861935622E+00 -0.33825666726E+01  0.92915000451E+02  0.87199484589E+02 0.  0.
         13    1    3    3    0    0  0.39673224304E+02 -0.36378714652E+02  0.59793199667E+01  0.54158462291E+02  0.10566000000E+00 0. -1.
         22    1    1    0    0    0 -0.31903451171E+02 -0.41861935622E+00  0.33825666726E+01  0.32084999549E+02  0.00000000000E+00 0.  1.
</event>
<event>
 5    1  0.1724243E-003  0.9118800E+02  0.7818608E-02  0.1130116E+00
         25   -1    0    0    0    0  0.00000000000E+00  0.00000000000E+00  0.99999998245E-14  0.12500000000E+03  0.12500000000E+03 0.  0.
        -13    1    3    3    0    0 -0.36791804269E+02  0.31480032361E+02 -0.13892458248E+00  0.48421686906E+02  0.10566000000E+00 0.  1.
         23    2    1    0    0    0  0.13785814761E+01  0.17610900583E+02 -0.23751803341E+02  0.95399451556E+02  0.90691029815E+02 0.  0.
         13    1    3    3    0    0  0.38170385745E+02 -0.13869131777E+02 -0.23612878759E+02  0.46977764650E+02  0.10566000000E+00 0. -1.
         22    1    1    0    0    0 -0.13785814761E+01 -0.17610900583E+02  0.23751803341E+02  0.29600548444E+02  0.00000000000E+00 0. -1.
</event>
<event>
 5    1  0.1724243E-003  0.9118800E+02  0.7818608E-02  0.1130116E+00
         25   -1    0    0    0    0  0.00000000000E+00  0.00000000000E+00  0.99999998245E-14  0.12500000000E+03  0.12500000000E+03 0.  0.
        -13    1    3    3    0    0  0.38915445530E+02 -0.20800206627E+01  0.26969379817E+02  0.47393005797E+02  0.10566000000E+00 0.  1.
         23    2    1    0    0    0  0.22886506210E+02 -0.60569187171E+01 -0.17974518173E+02  0.95275233653E+02  0.90519657607E+02 0.  0.
         13    1    3    3    0    0 -0.16028939320E+02 -0.39768980543E+01 -0.44943897990E+02  0.47882227855E+02  0.10566000000E+00 0. -1.
         22    1    1    0    0    0 -0.22886506210E+02  0.60569187171E+01  0.17974518173E+02  0.29724766347E+02  0.00000000000E+00 0. -1.
</event>
<event>
 5    1  0.1724243E-003  0.9118800E+02  0.7818608E-02  0.1130116E+00
         25   -1    0    0    0    0  0.00000000000E+00  0.00000000000E+00  0.99999998245E-14  0.12500000000E+03  0.12500000000E+03 0.  0.
        -13    1    3    3    0    0 -0.25792610118E+02  0.38364226155E+02  0.78036183423E+01  0.46882621604E+02  0.10566000000E+00 0.  1.
         23    2    1    0    0    0  0.59152948720E+01  0.74767873774E+01  0.27914443088E+02  0.95502386608E+02  0.90832795025E+02 0.  0.
         13    1    3    3    0    0  0.31707904990E+02 -0.30887438778E+02  0.20110824746E+02  0.48619765004E+02  0.10566000000E+00 0. -1.
         22    1    1    0    0    0 -0.59152948720E+01 -0.74767873774E+01 -0.27914443088E+02  0.29497613392E+02  0.00000000000E+00 0. -1.
</event>
<event>
 5    1  0.1724243E-003  0.9118800E+02  0.7818608E-02  0.1130116E+00
         25   -1    0    0    0    0  0.00000000000E+00  0.00000000000E+00  0.99999998245E-14  0.12500000000E+03  0.12500000000E+03 0.  0.
        -13    1    3    3    0    0 -0.15335101352E+02  0.16444921295E+01 -0.58582363038E+02  0.60578660525E+02  0.10566000000E+00 0. -1.
         23    2    1    0    0    0 -0.10999690877E+02 -0.94443538608E+01 -0.26597804371E+02  0.94707555124E+02  0.89732317372E+02 0.  0.
         13    1    3    3    0    0  0.43354104753E+01 -0.11088845990E+02  0.31984558667E+02  0.34128894599E+02  0.10566000000E+00 0.  1.
         22    1    1    0    0    0  0.10999690877E+02  0.94443538608E+01  0.26597804371E+02  0.30292444876E+02  0.00000000000E+00 0. -1.
</event>
<event>
 5    1  0.1724243E-003  0.9118800E+02  0.7818608E-02  0.1130116E+00
         25   -1    0    0    0    0  0.00000000000E+00  0.00000000000E+00  0.99999998245E-14  0.12500000000E+03  0.12500000000E+03 0.  0.
        -13    1    3    3    0    0 -0.62787853233E+01 -0.34076316228E+02 -0.18574928190E+01  0.34699854703E+02  0.10566000000E+00 0.  1.
         23    2    1    0    0    0  0.36803349345E+01  0.24623841280E+02 -0.15353264237E+02  0.95749339369E+02  0.91172006901E+02 0.  0.
         13    1    3    3    0    0  0.99591202578E+01  0.58700157508E+02 -0.13495771417E+02  0.61049484666E+02  0.10566000000E+00 0. -1.
         22    1    1    0    0    0 -0.36803349345E+01 -0.24623841280E+02  0.15353264237E+02  0.29250660631E+02  0.00000000000E+00 0. -1.
</event>
<event>
 5    1  0.1724243E-003  0.9118800E+02  0.7818608E-02  0.1130116E+00
         25   -1    0    0    0    0  0.00000000000E+00  0.00000000000E+00  0.99999998245E-14  0.12500000000E+03  0.12500000000E+03 0.  0.
        -13    1    3    3    0    0 -0.11273301745E+02 -0.46542488483E+02 -0.25574633934E+02  0.54289627290E+02  0.10566000000E+00 0.  1.
         23    2    1    0    0    0  0.13288345731E+02 -0.15221329608E+02 -0.23301848157E+02  0.94157737845E+02  0.88963107304E+02 0.  0.
         13    1    3    3    0    0  0.24561647476E+02  0.31321158875E+02  0.22727857762E+01  0.39868110555E+02  0.10566000000E+00 0. -1.
         22    1    1    0    0    0 -0.13288345731E+02  0.15221329608E+02  0.23301848157E+02  0.30842262155E+02  0.00000000000E+00 0.  1.
</event>
<event>
 5    1  0.1724243E-003  0.9118800E+02  0.7818608E-02  0.1130116E+00
         25   -1    0    0    0    0  0.00000000000E+00  0.00000000000E+00  0.99999998245E-14  0.12500000000E+03  0.12500000000E+03 0.  0.
        -13    1    3    3    0    0  0.18314930742E+02  0.30560495570E+02 -0.12059672375E+02  0.37614191995E+02  0.10566000000E+00 0.  1.
         23    2    1    0    0    0  0.10450359246E+02 -0.14265159938E+02  0.23655480008E+02  0.95465502699E+02  0.90782022862E+02 0.  0.
         13    1    3    3    0    0 -0.78645714965E+01 -0.44825655508E+02  0.35715152383E+02  0.57851310705E+02  0.10566000000E+00 0. -1.
         22    1    1    0    0    0 -0.10450359246E+02  0.14265159938E+02 -0.23655480008E+02  0.29534497301E+02  0.00000000000E+00 0. -1.
</event>
<event>
 5    1  0.1724243E-003  0.9118800E+02  0.7818608E-02  0.1130116E+00
         25   -1    0    0    0    0  0.00000000000E+00  0.00000000000E+00  0.99999998245E-14  0.12500000000E+03  0.12500000000E+03 0.  0.
        -13    1    3    3    0    0 -0.32800674436E+02  0.51935673849E+00  0.40553275934E+02  0.52160649228E+02  0.10566000000E+00 0.  1.
         23    2    1    0    0    0 -0.15591770839E+02  0.22968268876E+02  0.63912220606E+01  0.96513294110E+02  0.92213467169E+02 0.  0.
         13    1    3    3    0    0  0.17208903597E+02  0.22448912137E+02 -0.34162053873E+02  0.44352644882E+02  0.10566000000E+00 0. -1.
         22    1    1    0    0    0  0.15591770839E+02 -0.22968268876E+02 -0.63912220606E+01  0.28486705890E+02  0.00000000000E+00 0. -1.
</event>
<event>
 5    1  0.1724243E-003  0.9118800E+02  0.7818608E-02  0.1130116E+00
         25   -1    0    0    0    0  0.00000000000E+00  0.00000000000E+00  0.99999998245E-14  0.12500000000E+03  0.12500000000E+03 0.  0.
        -13    1    3    3    0    0 -0.17080522605E+02 -0.38516536196E+02  0.44859628447E+02  0.61544010606E+02  0.10566000000E+00 0. -1.
         23    2    1    0    0    0 -0.14555321824E+01 -0.22070292219E+02  0.20289383131E+02  0.94985412873E+02  0.90118550910E+02 0.  0.
         13    1    3    3    0    0  0.15624990423E+02  0.16446243976E+02 -0.24570245316E+02  0.33441402267E+02  0.10566000000E+00 0.  1.
         22    1    1    0    0    0  0.14555321824E+01  0.22070292219E+02 -0.20289383131E+02  0.30014587127E+02  0.00000000000E+00 0. -1.
</event>
<event>
 5    1  0.1724243E-003  0.9118800E+02  0.7818608E-02  0.1130116E+00
         25   -1    0    0    0    0  0.00000000000E+00  0.00000000000E+00  0.99999998245E-14  0.12500000000E+03  0.12500000000E+03 0.  0.
        -13    1    3    3    0    0  0.54295398882E+02 -0.94864173635E+01  0.29236544449E+02  0.62392059988E+02  0.10566000000E+00 0.  1.
         23    2    1    0    0    0  0.18536174034E+02 -0.49910759963E+01  0.12183711345E+02  0.10226361045E+03  0.99704075211E+02 0.  0.
         13    1    3    3    0    0 -0.35759224847E+02  0.44953413672E+01 -0.17052833105E+02  0.39871550467E+02  0.10566000000E+00 0. -1.
         22    1    1    0    0    0 -0.18536174034E+02  0.49910759963E+01 -0.12183711345E+02  0.22736389545E+02  0.00000000000E+00 0.  1.
</event>
<event>
 5    1  0.1724243E-003  0.9118800E+02  0.7818608E-02  0.1130116E+00
         25   -1    0    0    0    0  0.00000000000E+00  0.00000000000E+00  0.99999998245E-14  0.12500000000E+03  0.12500000000E+03 0.  0.
        -13    1    3    3    0    0 -0.28304342414E+02  0.49708732711E+02  0.20329189184E+02  0.60707338964E+02  0.10566000000E+00 0.  1.
         23    2    1    0    0    0 -0.75891576590E+01  0.27551053882E+02  0.15545902705E+01  0.96380554952E+02  0.92033356659E+02 0.  0.
         13    1    3    3    0    0  0.20715184755E+02 -0.22157678829E+02 -0.18774598913E+02  0.35673215988E+02  0.10566000000E+00 0. -1.
         22    1    1    0    0    0  0.75891576590E+01 -0.27551053882E+02 -0.15545902705E+01  0.28619445048E+02  0.00000000000E+00 0.  1.
</event>
<event>
 5    1  0.1724243E-003  0.9118800E+02  0.7818608E-02  0.1130116E+00
         25   -1    0    0    0    0  0.00000000000E+00  0.00000000000E+00  0.99999998245E-14  0.12500000000E+03  0.12500000000E+03 0.  0.
        -13    1    3    3    0    0  0.18625713703E+02  0.22841854672E+02 -0.53095134247E+02  0.60727028418E+02  0.10566000000E+00 0. -1.
         23    2    1    0    0    0  0.17336217283E+02  0.14462942956E+02 -0.20172618515E+02  0.94723677793E+02  0.89754773958E+02 0.  0.
         13    1    3    3    0    0 -0.12894964198E+01 -0.83789117165E+01  0.32922515732E+02  0.33996649375E+02  0.10566000000E+00 0.  1.
         22    1    1    0    0    0 -0.17336217283E+02 -0.14462942956E+02  0.20172618515E+02  0.30276322207E+02  0.00000000000E+00 0. -1.
</event>
<event>
 5    1  0.1724243E-003  0.9118800E+02  0.7818608E-02  0.1130116E+00
         25   -1    0    0    0    0  0.00000000000E+00  0.00000000000E+00  0.99999998245E-14  0.12500000000E+03  0.12500000000E+03 0.  0.
        -13    1    3    3    0    0 -0.35822441002E+02 -0.44830847796E+02 -0.13865479836E+02  0.59036555528E+02  0.10566000000E+00 0.  1.
         23    2    1    0    0    0 -0.27179650714E+02 -0.15294038537E+02  0.21667506900E+01  0.93737629068E+02  0.88370850777E+02 0.  0.
         13    1    3    3    0    0  0.86427902877E+01  0.29536809259E+02  0.16032230526E+02  0.34701073541E+02  0.10566000000E+00 0. -1.
         22    1    1    0    0    0  0.27179650714E+02  0.15294038537E+02 -0.21667506900E+01  0.31262370932E+02  0.00000000000E+00 0.  1.
</event>
<event>
 5    1  0.1724243E-003  0.9118800E+02  0.7818608E-02  0.1130116E+00
         25   -1    0    0    0    0  0.00000000000E+00  0.00000000000E+00  0.99999998245E-14  0.12500000000E+03  0.12500000000E+03 0.  0.
        -13    1    3    3    0    0 -0.32649237565E+02 -0.41491184151E+02  0.32567248912E+02  0.62033280919E+02  0.10566000000E+00 0.  1.
         23    2    1    0    0    0 -0.96946025968E+01 -0.20657220295E+02  0.15420760595E+02  0.97459013686E+02  0.93486648359E+02 0.  0.
         13    1    3    3    0    0  0.22954634968E+02  0.20833963856E+02 -0.17146488316E+02  0.35425732767E+02  0.10566000000E+00 0. -1.
         22    1    1    0    0    0  0.96946025968E+01  0.20657220295E+02 -0.15420760595E+02  0.27540986314E+02  0.00000000000E+00 0.  1.
</event>
<event>
 5    1  0.1724243E-003  0.9118800E+02  0.7818608E-02  0.1130116E+00
         25   -1    0    0    0    0  0.00000000000E+00  0.00000000000E+00  0.99999998245E-14  0.12500000000E+03  0.12500000000E+03 0.  0.
        -13    1    3    3    0    0 -0.28657845679E+01 -0.26679955243E+02  0.21229302074E+02  0.34215890512E+02  0.10566000000E+00 0.  1.
         23    2    1    0    0    0 -0.15875105764E+00  0.15969136797E+02 -0.23827439798E+02  0.96315763575E+02  0.91945314692E+02 0.  0.
         13    1    3    3    0    0  0.27070335103E+01  0.42649092040E+02 -0.45056741872E+02  0.62099873063E+02  0.10566000000E+00 0. -1.
         22    1    1    0    0    0  0.15875105764E+00 -0.15969136797E+02  0.23827439798E+02  0.28684236425E+02  0.00000000000E+00 0. -1.
</event>
<event>
 5    1  0.1724243E-003  0.9118800E+02  0.7818608E-02  0.1130116E+00
         25   -1    0    0    0    0  0.00000000000E+00  0.00000000000E+00  0.99999998245E-14  0.12500000000E+03  0.12500000000E+03 0.  0.
        -13    1    3    3    0    0 -0.37832485759E+01  0.22192836729E+02  0.29508491361E+02  0.37115996529E+02  0.10566000000E+00 0.  1.
         23    2    1    0    0    0  0.23815813841E+02 -0.15041469269E+02 -0.68357753093E+01  0.96014372341E+02  0.91534655106E+02 0.  0.
         13    1    3    3    0    0  0.27599062417E+02 -0.37234305998E+02 -0.36344266671E+02  0.58898375812E+02  0.10566000000E+00 0. -1.
         22    1    1    0    0    0 -0.23815813841E+02  0.15041469269E+02  0.68357753093E+01  0.28985627659E+02  0.00000000000E+00 0. -1.
</event>
<event>
 5    1  0.1724243E-003  0.9118800E+02  0.7818608E-02  0.1130116E+00
         25   -1    0    0    0    0  0.00000000000E+00  0.00000000000E+00  0.99999998245E-14  0.12500000000E+03  0.12500000000E+03 0.  0.
        -13    1    3    3    0    0  0.19235606866E+02  0.57729071060E+02  0.13808634341E+02  0.62396664681E+02  0.10566000000E+00 0.  1.
         23    2    1    0    0    0  0.93742963904E+01  0.27404034920E+02  0.39834412651E+01  0.95764296365E+02  0.91192511157E+02 0.  0.
         13    1    3    3    0    0 -0.98613104760E+01 -0.30325036139E+02 -0.98251930759E+01  0.33367631684E+02  0.10566000000E+00 0. -1.
         22    1    1    0    0    0 -0.93742963904E+01 -0.27404034920E+02 -0.39834412651E+01  0.29235703635E+02  0.00000000000E+00 0.  1.
</event>
<event>
 5    1  0.1724243E-003  0.9118800E+02  0.7818608E-02  0.1130116E+00
         25   -1    0    0    0    0  0.00000000000E+00  0.00000000000E+00  0.99999998245E-14  0.12500000000E+03  0.12500000000E+03 0.  0.
        -13    1    3    3    0    0  0.89100815614E+01 -0.46592190414E+02 -0.12206310858E+02  0.48981904310E+02  0.10566000000E+00 0. -1.
         23    2    1    0    0    0  0.18402649514E+02 -0.19615506298E+01 -0.22609537955E+02  0.95781916618E+02  0.91216660509E+02 0.  0.
         13    1    3    3    0    0  0.94925679526E+01  0.44630639785E+02 -0.10403227097E+02  0.46800012307E+02  0.10566000000E+00 0.  1.
         22    1    1    0    0    0 -0.18402649514E+02  0.19615506298E+01  0.22609537955E+02  0.29218083382E+02  0.00000000000E+00 0. -1.
</event>
<event>
 5    1  0.1724243E-003  0.9118800E+02  0.7818608E-02  0.1130116E+00
         25   -1    0    0    0    0  0.00000000000E+00  0.00000000000E+00  0.99999998245E-14  0.12500000000E+03  0.12500000000E+03 0.  0.
        -13    1    3    3    0    0 -0.39055805258E+02  0.44027701875E+02 -0.10062994195E+02  0.59708202728E+02  0.10566000000E+00 0. -1.
         23    2    1    0    0    0 -0.24327582812E+02  0.11033776476E+02 -0.11609578684E+02  0.95873417192E+02  0.91341963511E+02 0.  0.
         13    1    3    3    0    0  0.14728222446E+02 -0.32993925399E+02 -0.15465844889E+01  0.36165214464E+02  0.10566000000E+00 0.  1.
         22    1    1    0    0    0  0.24327582812E+02 -0.11033776476E+02  0.11609578684E+02  0.29126582808E+02  0.00000000000E+00 0. -1.
</event>
<event>
 5    1  0.1724243E-003  0.9118800E+02  0.7818608E-02  0.1130116E+00
         25   -1    0    0    0    0  0.00000000000E+00  0.00000000000E+00  0.99999998245E-14  0.12500000000E+03  0.12500000000E+03 0.  0.
        -13    1    3    3    0    0  0.34578654557E+02  0.27152566312E+02 -0.89807045360E+01  0.44873259591E+02  0.10566000000E+00 0.  1.
         23    2    1    0    0    0 -0.27974960763E+01  0.14372521052E+02  0.24369461745E+02  0.96569980454E+02  0.92290276375E+02 0.  0.
         13    1    3    3    0    0 -0.37376150633E+02 -0.12780045260E+02  0.33350166281E+02  0.51696720863E+02  0.10566000000E+00 0. -1.
         22    1    1    0    0    0  0.27974960763E+01 -0.14372521052E+02 -0.24369461745E+02  0.28430019546E+02  0.00000000000E+00 0.  1.
</event>
<event>
 5    1  0.1724243E-003  0.9118800E+02  0.7818608E-02  0.1130116E+00
         25   -1    0    0    0    0  0.00000000000E+00  0.00000000000E+00  0.99999998245E-14  0.12500000000E+03  0.12500000000E+03 0.  0.
        -13    1    3    3    0    0 -0.39454165550E+02 -0.23182875047E+02  0.21834290915E+02  0.50703296722E+02  0.10566000000E+00 0.  1.
         23    2    1    0    0    0 -0.34100835397E+02  0.11244760602E+02  0.14300863984E+02  0.86349950499E+02  0.77217145924E+02 0.  0.
         13    1    3    3    0    0  0.53533301535E+01  0.34427635649E+02 -0.75334269315E+01  0.35646653777E+02  0.10566000000E+00 0. -1.
         22    1    1    0    0    0  0.34100835397E+02 -0.11244760602E+02 -0.14300863984E+02  0.38650049501E+02  0.00000000000E+00 0.  1.
</event>
<event>
 5    1  0.1724243E-003  0.9118800E+02  0.7818608E-02  0.1130116E+00
         25   -1    0    0    0    0  0.00000000000E+00  0.00000000000E+00  0.99999998245E-14  0.12500000000E+03  0.12500000000E+03 0.  0.
        -13    1    3    3    0    0  0.61906053627E+01 -0.47163333745E+02 -0.33724806404E+02  0.58310182436E+02  0.10566000000E+00 0.  1.
         23    2    1    0    0    0 -0.12594276285E+02 -0.25730728748E+02 -0.13046215151E+02  0.93521595866E+02  0.88064743039E+02 0.  0.
         13    1    3    3    0    0 -0.18784881647E+02  0.21432604997E+02  0.20678591253E+02  0.35211413430E+02  0.10566000000E+00 0. -1.
         22    1    1    0    0    0  0.12594276285E+02  0.25730728748E+02  0.13046215151E+02  0.31478404134E+02  0.00000000000E+00 0.  1.
</event>
<event>
 5    1  0.1724243E-003  0.9118800E+02  0.7818608E-02  0.1130116E+00
         25   -1    0    0    0    0  0.00000000000E+00  0.00000000000E+00  0.99999998245E-14  0.12500000000E+03  0.12500000000E+03 0.  0.
        -13    1    3    3    0    0 -0.80571169436E+01 -0.12549900533E+02  0.27808998373E+02  0.31555802816E+02  0.10566000000E+00 0.  1.
         23    2    1    0    0    0  0.14191157918E+02  0.19712783834E+02 -0.20114353137E+02  0.93463195919E+02  0.87981810505E+02 0.  0.
         13    1    3    3    0    0  0.22248274862E+02  0.32262684366E+02 -0.47923351510E+02  0.61907393103E+02  0.10566000000E+00 0. -1.
         22    1    1    0    0    0 -0.14191157918E+02 -0.19712783834E+02  0.20114353137E+02  0.31536804081E+02  0.00000000000E+00 0. -1.
</event>
<event>
 5    1  0.1724243E-003  0.9118800E+02  0.7818608E-02  0.1130116E+00
         25   -1    0    0    0    0  0.00000000000E+00  0.00000000000E+00  0.99999998245E-14  0.12500000000E+03  0.12500000000E+03 0.  0.
        -13    1    3    3    0    0  0.45664291969E+02  0.17623646042E+01  0.41644684435E+02  0.61827375779E+02  0.10566000000E+00 0.  1.
         23    2    1    0    0    0  0.15165073127E+02  0.10040764030E+01  0.22507904930E+02  0.97841329254E+02  0.93996448409E+02 0.  0.
         13    1    3    3    0    0 -0.30499218842E+02 -0.75828820126E+00 -0.19136779505E+02  0.36013953474E+02  0.10566000000E+00 0. -1.
         22    1    1    0    0    0 -0.15165073127E+02 -0.10040764030E+01 -0.22507904930E+02  0.27158670746E+02  0.00000000000E+00 0.  1.
</event>
<event>
 5    1  0.1724243E-003  0.9118800E+02  0.7818608E-02  0.1130116E+00
         25   -1    0    0    0    0  0.00000000000E+00  0.00000000000E+00  0.99999998245E-14  0.12500000000E+03  0.12500000000E+03 0.  0.
        -13    1    3    3    0    0  0.12501105761E+02 -0.13997487447E+02 -0.25409072973E+02  0.31588596889E+02  0.10566000000E+00 0.  1.
         23    2    1    0    0    0 -0.26468096257E+01 -0.38123440722E+00  0.32198310609E+02  0.92690834938E+02  0.86877550234E+02 0.  0.
         13    1    3    3    0    0 -0.15147915387E+02  0.13616253040E+02  0.57607383582E+02  0.61102238049E+02  0.10566000000E+00 0. -1.
         22    1    1    0    0    0  0.26468096257E+01  0.38123440722E+00 -0.32198310609E+02  0.32309165062E+02  0.00000000000E+00 0. -1.
</event>
<event>
 5    1  0.1724243E-003  0.9118800E+02  0.7818608E-02  0.1130116E+00
         25   -1    0    0    0    0  0.00000000000E+00  0.00000000000E+00  0.99999998245E-14  0.12500000000E+03  0.12500000000E+03 0.  0.
        -13    1    3    3    0    0 -0.16286170202E+01 -0.14264846184E+02 -0.44006194490E+02  0.46289248726E+02  0.10566000000E+00 0. -1.
         23    2    1    0    0    0 -0.28347545844E+02  0.39849651729E+01 -0.68382332969E+01  0.95568303864E+02  0.90923462132E+02 0.  0.
         13    1    3    3    0    0 -0.26718928824E+02  0.18249811357E+02  0.37167961193E+02  0.49279055139E+02  0.10566000000E+00 0.  1.
         22    1    1    0    0    0  0.28347545844E+02 -0.39849651729E+01  0.68382332969E+01  0.29431696136E+02  0.00000000000E+00 0. -1.
</event>
<event>
 4    1  0.1724243E-003  0.9118800E+02  0.7818608E-02  0.1130116E+00
         25   -1    0    0    0    0  0.00000000000E+00  0.00000000000E+00  0.99999998245E-14  0.12500000000E+03  0.12500000000E+03 0.  0.
        -13    1    1    0    0    0 -0.14534372153E+02  0.71016650536E+01  0.39079706845E+00  0.16181641042E+02  0.10566000000E+00 0. -1.
         13    1    1    0    0    0  0.29213340643E+02  0.45136634132E+02 -0.67407093127E+01  0.54186560496E+02  0.10566000000E+00 0.  1.
         22    1    1    0    0    0 -0.14678968489E+02 -0.52238299186E+02  0.63499122442E+01  0.54631798462E+02  0.00000000000E+00 0.  1.
</event>
<event>
 5    1  0.1724243E-003  0.9118800E+02  0.7818608E-02  0.1130116E+00
         25   -1    0    0    0    0  0.00000000000E+00  0.00000000000E+00  0.99999998245E-14  0.12500000000E+03  0.12500000000E+03 0.  0.
        -13    1    3    3    0    0 -0.29228908513E+02 -0.18806679064E+02  0.20547610288E+02  0.40376177665E+02  0.10566000000E+00 0. -1.
         23    2    1    0    0    0  0.20769811954E+02 -0.58305387393E+01 -0.10878234429E+02  0.10083977949E+03  0.97902731697E+02 0.  0.
         13    1    3    3    0    0  0.49998720467E+02  0.12976140324E+02 -0.31425844716E+02  0.60463601830E+02  0.10566000000E+00 0.  1.
         22    1    1    0    0    0 -0.20769811954E+02  0.58305387393E+01  0.10878234429E+02  0.24160220505E+02  0.00000000000E+00 0.  1.
</event>
<event>
 5    1  0.1724243E-003  0.9118800E+02  0.7818608E-02  0.1130116E+00
         25   -1    0    0    0    0  0.00000000000E+00  0.00000000000E+00  0.99999998245E-14  0.12500000000E+03  0.12500000000E+03 0.  0.
        -13    1    3    3    0    0  0.12971821498E+02  0.42639173664E+01 -0.28659367567E+02  0.31746175481E+02  0.10566000000E+00 0. -1.
         23    2    1    0    0    0  0.35187040065E+01 -0.18474276860E+01  0.31652187358E+02  0.93099291051E+02  0.87463265219E+02 0.  0.
         13    1    3    3    0    0 -0.94531174919E+01 -0.61113450524E+01  0.60311554925E+02  0.61353115570E+02  0.10566000000E+00 0.  1.
         22    1    1    0    0    0 -0.35187040065E+01  0.18474276860E+01 -0.31652187358E+02  0.31900708949E+02  0.00000000000E+00 0.  1.
</event>
<event>
 5    1  0.1724243E-003  0.9118800E+02  0.7818608E-02  0.1130116E+00
         25   -1    0    0    0    0  0.00000000000E+00  0.00000000000E+00  0.99999998245E-14  0.12500000000E+03  0.12500000000E+03 0.  0.
        -13    1    3    3    0    0 -0.15566035213E+02  0.41922034596E+02  0.23770345905E+02  0.50643844101E+02  0.10566000000E+00 0.  1.
         23    2    1    0    0    0 -0.17943337050E+02  0.32914706100E+02 -0.10428236636E+02  0.86088699052E+02  0.76793064550E+02 0.  0.
         13    1    3    3    0    0 -0.23773018370E+01 -0.90073284955E+01 -0.34198582541E+02  0.35444854951E+02  0.10566000000E+00 0. -1.
         22    1    1    0    0    0  0.17943337050E+02 -0.32914706100E+02  0.10428236636E+02  0.38911300948E+02  0.00000000000E+00 0.  1.
</event>
<event>
 5    1  0.1724243E-003  0.9118800E+02  0.7818608E-02  0.1130116E+00
         25   -1    0    0    0    0  0.00000000000E+00  0.00000000000E+00  0.99999998245E-14  0.12500000000E+03  0.12500000000E+03 0.  0.
        -13    1    3    3    0    0  0.21734210778E+02  0.10155361099E+02 -0.20553166957E+02  0.31590364246E+02  0.10566000000E+00 0.  1.
         23    2    1    0    0    0 -0.25160965372E+02 -0.19409225311E+02  0.53419599716E+01  0.92776891181E+02  0.87001280423E+02 0.  0.
         13    1    3    3    0    0 -0.46895176150E+02 -0.29564586410E+02  0.25895126928E+02  0.61186526935E+02  0.10566000000E+00 0. -1.
         22    1    1    0    0    0  0.25160965372E+02  0.19409225311E+02 -0.53419599716E+01  0.32223108819E+02  0.00000000000E+00 0. -1.
</event>
<event>
 5    1  0.1724243E-003  0.9118800E+02  0.7818608E-02  0.1130116E+00
         25   -1    0    0    0    0  0.00000000000E+00  0.00000000000E+00  0.99999998245E-14  0.12500000000E+03  0.12500000000E+03 0.  0.
        -13    1    3    3    0    0 -0.21336774441E+01  0.19822336410E+02  0.31132523478E+02  0.36969213981E+02  0.10566000000E+00 0.  1.
         23    2    1    0    0    0  0.23953688383E+02  0.14890725770E+01 -0.17622602286E+02  0.95224966236E+02  0.90450215915E+02 0.  0.
         13    1    3    3    0    0  0.26087365827E+02 -0.18333263833E+02 -0.48755125764E+02  0.58255752256E+02  0.10566000000E+00 0. -1.
         22    1    1    0    0    0 -0.23953688383E+02 -0.14890725770E+01  0.17622602286E+02  0.29775033764E+02  0.00000000000E+00 0. -1.
</event>
<event>
 5    1  0.1724243E-003  0.9118800E+02  0.7818608E-02  0.1130116E+00
         25   -1    0    0    0    0  0.00000000000E+00  0.00000000000E+00  0.99999998245E-14  0.12500000000E+03  0.12500000000E+03 0.  0.
        -13    1    3    3    0    0 -0.72532289831E+00  0.49808095991E+02  0.12207535047E+01  0.49828444915E+02  0.10566000000E+00 0.  1.
         23    2    1    0    0    0 -0.26306423094E+02  0.11064970812E+02 -0.21706620498E+01  0.96378797216E+02  0.92030969266E+02 0.  0.
         13    1    3    3    0    0 -0.25581100196E+02 -0.38743125178E+02 -0.33914155545E+01  0.46550352301E+02  0.10566000000E+00 0. -1.
         22    1    1    0    0    0  0.26306423094E+02 -0.11064970812E+02  0.21706620498E+01  0.28621202784E+02  0.00000000000E+00 0.  1.
</event>
<event>
 5    1  0.1724243E-003  0.9118800E+02  0.7818608E-02  0.1130116E+00
         25   -1    0    0    0    0  0.00000000000E+00  0.00000000000E+00  0.99999998245E-14  0.12500000000E+03  0.12500000000E+03 0.  0.
        -13    1    3    3    0    0 -0.60900301804E+02  0.56004266296E+00 -0.81368314533E+01  0.61444117682E+02  0.10566000000E+00 0.  1.
         23    2    1    0    0    0 -0.29974592077E+02  0.39818563814E+01  0.32745095031E+01  0.94585303504E+02  0.89561855028E+02 0.  0.
         13    1    3    3    0    0  0.30925709727E+02  0.34218137184E+01  0.11411340956E+02  0.33141185822E+02  0.10566000000E+00 0. -1.
         22    1    1    0    0    0  0.29974592077E+02 -0.39818563814E+01 -0.32745095031E+01  0.30414696496E+02  0.00000000000E+00 0.  1.
</event>
<event>
 5    1  0.1724243E-003  0.9118800E+02  0.7818608E-02  0.1130116E+00
         25   -1    0    0    0    0  0.00000000000E+00  0.00000000000E+00  0.99999998245E-14  0.12500000000E+03  0.12500000000E+03 0.  0.
        -13    1    3    3    0    0 -0.18104634242E+00  0.60229061203E+02 -0.71991507464E+01  0.60658153011E+02  0.10566000000E+00 0.  1.
         23    2    1    0    0    0 -0.80158482522E+01  0.29914917174E+02 -0.10857759844E+02  0.92181605134E+02  0.86141751105E+02 0.  0.
         13    1    3    3    0    0 -0.78348019098E+01 -0.30314144029E+02 -0.36586090974E+01  0.31523452123E+02  0.10566000000E+00 0. -1.
         22    1    1    0    0    0  0.80158482522E+01 -0.29914917174E+02  0.10857759844E+02  0.32818394866E+02  0.00000000000E+00 0.  1.
</event>
<event>
 5    1  0.1724243E-003  0.9118800E+02  0.7818608E-02  0.1130116E+00
         25   -1    0    0    0    0  0.00000000000E+00  0.00000000000E+00  0.99999998245E-14  0.12500000000E+03  0.12500000000E+03 0.  0.
        -13    1    3    3    0    0 -0.25993817967E+02 -0.14374638341E+02  0.40537449322E+02  0.50255395347E+02  0.10566000000E+00 0. -1.
         23    2    1    0    0    0 -0.15624814809E+02 -0.26185177498E+02 -0.81776691557E+00  0.94496441173E+02  0.89437745350E+02 0.  0.
         13    1    3    3    0    0  0.10369003159E+02 -0.11810539156E+02 -0.41355216237E+02  0.44241045826E+02  0.10566000000E+00 0.  1.
         22    1    1    0    0    0  0.15624814809E+02  0.26185177498E+02  0.81776691557E+00  0.30503558827E+02  0.00000000000E+00 0. -1.
</event>
<event>
 5    1  0.1724243E-003  0.9118800E+02  0.7818608E-02  0.1130116E+00
         25   -1    0    0    0    0  0.00000000000E+00  0.00000000000E+00  0.99999998245E-14  0.12500000000E+03  0.12500000000E+03 0.  0.
        -13    1    3    3    0    0  0.42340119776E+02 -0.32617567159E+02 -0.23434191627E+02  0.58358923322E+02  0.10566000000E+00 0.  1.
         23    2    1    0    0    0  0.24216143611E+02 -0.71326125062E+01 -0.24733173389E+02  0.89658443181E+02  0.82399094626E+02 0.  0.
         13    1    3    3    0    0 -0.18123976166E+02  0.25484954653E+02 -0.12989817619E+01  0.31299519859E+02  0.10566000000E+00 0. -1.
         22    1    1    0    0    0 -0.24216143611E+02  0.71326125062E+01  0.24733173389E+02  0.35341556819E+02  0.00000000000E+00 0.  1.
</event>
<event>
 5    1  0.1724243E-003  0.9118800E+02  0.7818608E-02  0.1130116E+00
         25   -1    0    0    0    0  0.00000000000E+00  0.00000000000E+00  0.99999998245E-14  0.12500000000E+03  0.12500000000E+03 0.  0.
        -13    1    3    3    0    0 -0.32779400956E+02  0.16594724554E+02 -0.46453360038E+02  0.59226681765E+02  0.10566000000E+00 0. -1.
         23    2    1    0    0    0 -0.44590261940E+01  0.17253967198E+02 -0.22300142066E+02  0.96453920851E+02  0.92132948572E+02 0.  0.
         13    1    3    3    0    0  0.28320374762E+02  0.65924264391E+00  0.24153217972E+02  0.37227239086E+02  0.10566000000E+00 0.  1.
         22    1    1    0    0    0  0.44590261940E+01 -0.17253967198E+02  0.22300142066E+02  0.28546079149E+02  0.00000000000E+00 0. -1.
</event>
<event>
 5    1  0.1724243E-003  0.9118800E+02  0.7818608E-02  0.1130116E+00
         25   -1    0    0    0    0  0.00000000000E+00  0.00000000000E+00  0.99999998245E-14  0.12500000000E+03  0.12500000000E+03 0.  0.
        -13    1    3    3    0    0  0.36613728551E+02 -0.32599316395E+02 -0.19646495883E+02  0.52813601585E+02  0.10566000000E+00 0. -1.
         23    2    1    0    0    0 -0.54728242147E+01 -0.25221186702E+02 -0.13155407726E+02  0.96032348801E+02  0.91559200522E+02 0.  0.
         13    1    3    3    0    0 -0.42086552766E+02  0.73781296926E+01  0.64910881571E+01  0.43218747217E+02  0.10566000000E+00 0.  1.
         22    1    1    0    0    0  0.54728242147E+01  0.25221186702E+02  0.13155407726E+02  0.28967651199E+02  0.00000000000E+00 0. -1.
</event>
<event>
 5    1  0.1724243E-003  0.9118800E+02  0.7818608E-02  0.1130116E+00
         25   -1    0    0    0    0  0.00000000000E+00  0.00000000000E+00  0.99999998245E-14  0.12500000000E+03  0.12500000000E+03 0.  0.
        -13    1    3    3    0    0 -0.88167449834E+00 -0.34119893233E+02  0.79392545349E+01  0.35042651023E+02  0.10566000000E+00 0.  1.
         23    2    1    0    0    0  0.17736010204E+02  0.21597212614E+02 -0.80352449085E+01  0.95921299695E+02  0.91407466456E+02 0.  0.
         13    1    3    3    0    0  0.18617684702E+02  0.55717105847E+02 -0.15974499443E+02  0.60878648672E+02  0.10566000000E+00 0. -1.
         22    1    1    0    0    0 -0.17736010204E+02 -0.21597212614E+02  0.80352449085E+01  0.29078700305E+02  0.00000000000E+00 0. -1.
</event>
<event>
 5    1  0.1724243E-003  0.9118800E+02  0.7818608E-02  0.1130116E+00
         25   -1    0    0    0    0  0.00000000000E+00  0.00000000000E+00  0.99999998245E-14  0.12500000000E+03  0.12500000000E+03 0.  0.
        -13    1    3    3    0    0 -0.19380754274E+01 -0.36293510815E+02 -0.33579338150E+02  0.49482907940E+02  0.10566000000E+00 0. -1.
         23    2    1    0    0    0  0.21901750558E+02  0.28204376227E+00 -0.20349132265E+02  0.95102618674E+02  0.90280976227E+02 0.  0.
         13    1    3    3    0    0  0.23839825986E+02  0.36575554577E+02  0.13230205885E+02  0.45619710734E+02  0.10566000000E+00 0.  1.
         22    1    1    0    0    0 -0.21901750558E+02 -0.28204376227E+00  0.20349132265E+02  0.29897381326E+02  0.00000000000E+00 0.  1.
</event>
<event>
 5    1  0.1724243E-003  0.9118800E+02  0.7818608E-02  0.1130116E+00
         25   -1    0    0    0    0  0.00000000000E+00  0.00000000000E+00  0.99999998245E-14  0.12500000000E+03  0.12500000000E+03 0.  0.
        -13    1    3    3    0    0  0.17757974707E+02 -0.18823201144E+02  0.31312854038E+02  0.40622217554E+02  0.10566000000E+00 0. -1.
         23    2    1    0    0    0 -0.28930417909E+02 -0.70466086812E+01  0.77367652079E+01  0.94235063624E+02  0.89071689700E+02 0.  0.
         13    1    3    3    0    0 -0.46688392617E+02  0.11776592462E+02 -0.23576088830E+02  0.53612846070E+02  0.10566000000E+00 0.  1.
         22    1    1    0    0    0  0.28930417909E+02  0.70466086812E+01 -0.77367652079E+01  0.30764936376E+02  0.00000000000E+00 0.  1.
</event>
<event>
 5    1  0.1724243E-003  0.9118800E+02  0.7818608E-02  0.1130116E+00
         25   -1    0    0    0    0  0.00000000000E+00  0.00000000000E+00  0.99999998245E-14  0.12500000000E+03  0.12500000000E+03 0.  0.
        -13    1    3    3    0    0  0.51915158092E+02 -0.19563032888E+02  0.11202908049E+02  0.56598694404E+02  0.10566000000E+00 0.  1.
         23    2    1    0    0    0  0.15031181835E+02 -0.17057066172E+02  0.20133941572E+02  0.94631339559E+02  0.89626083758E+02 0.  0.
         13    1    3    3    0    0 -0.36883976256E+02  0.25059667167E+01  0.89310335237E+01  0.38032645155E+02  0.10566000000E+00 0. -1.
         22    1    1    0    0    0 -0.15031181835E+02  0.17057066172E+02 -0.20133941572E+02  0.30368660441E+02  0.00000000000E+00 0.  1.
</event>
<event>
 5    1  0.1724243E-003  0.9118800E+02  0.7818608E-02  0.1130116E+00
         25   -1    0    0    0    0  0.00000000000E+00  0.00000000000E+00  0.99999998245E-14  0.12500000000E+03  0.12500000000E+03 0.  0.
        -13    1    3    3    0    0  0.27234216578E+02  0.51365232238E+02  0.15531573196E+02  0.60177492183E+02  0.10566000000E+00 0.  1.
         23    2    1    0    0    0  0.18420572940E+02  0.25645165332E+02 -0.33030828395E+01  0.93252521855E+02  0.87681984830E+02 0.  0.
         13    1    3    3    0    0 -0.88136436376E+01 -0.25720066906E+02 -0.18834656035E+02  0.33075029672E+02  0.10566000000E+00 0. -1.
         22    1    1    0    0    0 -0.18420572940E+02 -0.25645165332E+02  0.33030828395E+01  0.31747478145E+02  0.00000000000E+00 0.  1.
</event>
<event>
 5    1  0.1724243E-003  0.9118800E+02  0.7818608E-02  0.1130116E+00
         25   -1    0    0    0    0  0.00000000000E+00  0.00000000000E+00  0.99999998245E-14  0.12500000000E+03  0.12500000000E+03 0.  0.
        -13    1    3    3    0    0 -0.40829318173E+02 -0.74238926245E+01  0.88266548507E+01  0.42427213013E+02  0.10566000000E+00 0. -1.
         23    2    1    0    0    0  0.50943897973E+01 -0.25425579943E+02 -0.12556750280E+02  0.96188805987E+02  0.91772553069E+02 0.  0.
         13    1    3    3    0    0  0.45923707970E+02 -0.18001687319E+02 -0.21383405130E+02  0.53761592974E+02  0.10566000000E+00 0.  1.
         22    1    1    0    0    0 -0.50943897973E+01  0.25425579943E+02  0.12556750280E+02  0.28811194013E+02  0.00000000000E+00 0. -1.
</event>
<event>
 5    1  0.1724243E-003  0.9118800E+02  0.7818608E-02  0.1130116E+00
         25   -1    0    0    0    0  0.00000000000E+00  0.00000000000E+00  0.99999998245E-14  0.12500000000E+03  0.12500000000E+03 0.  0.
        -13    1    3    3    0    0  0.29161877474E+01  0.17570049430E+02 -0.43552217380E+02  0.47053348348E+02  0.10566000000E+00 0. -1.
         23    2    1    0    0    0 -0.19880796601E+02 -0.14901670014E+02 -0.14447415873E+02  0.96259198547E+02  0.91868382139E+02 0.  0.
         13    1    3    3    0    0 -0.22796984349E+02 -0.32471719444E+02  0.29104801507E+02  0.49205850200E+02  0.10566000000E+00 0.  1.
         22    1    1    0    0    0  0.19880796601E+02  0.14901670014E+02  0.14447415873E+02  0.28740801453E+02  0.00000000000E+00 0.  1.
</event>
<event>
 5    1  0.1724243E-003  0.9118800E+02  0.7818608E-02  0.1130116E+00
         25   -1    0    0    0    0  0.00000000000E+00  0.00000000000E+00  0.99999998245E-14  0.12500000000E+03  0.12500000000E+03 0.  0.
        -13    1    3    3    0    0 -0.34515829486E+02 -0.43268416281E+02  0.26255796046E+02  0.61260724144E+02  0.10566000000E+00 0.  1.
         23    2    1    0    0    0 -0.21605977563E+02 -0.13791105598E+02  0.14690650953E+02  0.95456335950E+02  0.90769400061E+02 0.  0.
         13    1    3    3    0    0  0.12909851922E+02  0.29477310683E+02 -0.11565145093E+02  0.34195611806E+02  0.10566000000E+00 0. -1.
         22    1    1    0    0    0  0.21605977563E+02  0.13791105598E+02 -0.14690650953E+02  0.29543664050E+02  0.00000000000E+00 0.  1.
</event>
<event>
 5    1  0.1724243E-003  0.9118800E+02  0.7818608E-02  0.1130116E+00
         25   -1    0    0    0    0  0.00000000000E+00  0.00000000000E+00  0.99999998245E-14  0.12500000000E+03  0.12500000000E+03 0.  0.
        -13    1    3    3    0    0 -0.12327512995E+02  0.11767083402E+02  0.20962137488E+02  0.27015813898E+02  0.10566000000E+00 0. -1.
         23    2    1    0    0    0 -0.45367932029E+02 -0.18425297016E+02  0.10009816953E+01  0.76023038160E+02  0.58144299290E+02 0.  0.
         13    1    3    3    0    0 -0.33040419034E+02 -0.30192380418E+02 -0.19961155793E+02  0.49007224262E+02  0.10566000000E+00 0.  1.
         22    1    1    0    0    0  0.45367932029E+02  0.18425297016E+02 -0.10009816953E+01  0.48976961840E+02  0.00000000000E+00 0.  1.
</event>
<event>
 5    1  0.1724243E-003  0.9118800E+02  0.7818608E-02  0.1130116E+00
         25   -1    0    0    0    0  0.00000000000E+00  0.00000000000E+00  0.99999998245E-14  0.12500000000E+03  0.12500000000E+03 0.  0.
        -13    1    3    3    0    0 -0.11014695236E+02 -0.32492021292E+02 -0.15679996591E+02  0.37721723396E+02  0.10566000000E+00 0.  1.
         23    2    1    0    0    0  0.17722484874E+02  0.18480345325E+02 -0.12965047957E+02  0.96299789165E+02  0.91923594856E+02 0.  0.
         13    1    3    3    0    0  0.28737180110E+02  0.50972366617E+02  0.27149486340E+01  0.58578065770E+02  0.10566000000E+00 0. -1.
         22    1    1    0    0    0 -0.17722484874E+02 -0.18480345325E+02  0.12965047957E+02  0.28700210835E+02  0.00000000000E+00 0. -1.
</event>
<event>
 5    1  0.1724243E-003  0.9118800E+02  0.7818608E-02  0.1130116E+00
         25   -1    0    0    0    0  0.00000000000E+00  0.00000000000E+00  0.99999998245E-14  0.12500000000E+03  0.12500000000E+03 0.  0.
        -13    1    3    3    0    0  0.26669457927E+02  0.49332510808E+02  0.11502674019E+02  0.57247526430E+02  0.10566000000E+00 0.  1.
         23    2    1    0    0    0  0.22889268136E+02  0.16745370765E+02  0.18953698406E+02  0.90888876871E+02  0.84244995209E+02 0.  0.
         13    1    3    3    0    0 -0.37801897909E+01 -0.32587140043E+02  0.74510243868E+01  0.33641350441E+02  0.10566000000E+00 0. -1.
         22    1    1    0    0    0 -0.22889268136E+02 -0.16745370765E+02 -0.18953698406E+02  0.34111123129E+02  0.00000000000E+00 0.  1.
</event>
<event>
 5    1  0.1724243E-003  0.9118800E+02  0.7818608E-02  0.1130116E+00
         25   -1    0    0    0    0  0.00000000000E+00  0.00000000000E+00  0.99999998245E-14  0.12500000000E+03  0.12500000000E+03 0.  0.
        -13    1    3    3    0    0  0.13818773530E+02  0.60517822851E+01 -0.59836976669E+02  0.61709460471E+02  0.10566000000E+00 0.  1.
         23    2    1    0    0    0  0.21968117565E+01  0.81906914357E+01 -0.30660068456E+02  0.93188788049E+02  0.87591078382E+02 0.  0.
         13    1    3    3    0    0 -0.11621961773E+02  0.21389091506E+01  0.29176908213E+02  0.31479327578E+02  0.10566000000E+00 0. -1.
         22    1    1    0    0    0 -0.21968117565E+01 -0.81906914357E+01  0.30660068456E+02  0.31811211951E+02  0.00000000000E+00 0.  1.
</event>
<event>
 5    1  0.1724243E-003  0.9118800E+02  0.7818608E-02  0.1130116E+00
         25   -1    0    0    0    0  0.00000000000E+00  0.00000000000E+00  0.99999998245E-14  0.12500000000E+03  0.12500000000E+03 0.  0.
        -13    1    3    3    0    0  0.38036491864E+02 -0.15053278161E+02  0.87080967482E+01  0.41823653711E+02  0.10566000000E+00 0. -1.
         23    2    1    0    0    0 -0.72870797091E+01  0.19946576776E+02 -0.92484183259E+01  0.10183751530E+03  0.99168436642E+02 0.  0.
         13    1    3    3    0    0 -0.45323571573E+02  0.34999854937E+02 -0.17956515074E+02  0.60013861594E+02  0.10566000000E+00 0.  1.
         22    1    1    0    0    0  0.72870797091E+01 -0.19946576776E+02  0.92484183259E+01  0.23162484696E+02  0.00000000000E+00 0.  1.
</event>
<event>
 5    1  0.1724243E-003  0.9118800E+02  0.7818608E-02  0.1130116E+00
         25   -1    0    0    0    0  0.00000000000E+00  0.00000000000E+00  0.99999998245E-14  0.12500000000E+03  0.12500000000E+03 0.  0.
        -13    1    3    3    0    0  0.20168580386E+02  0.14717242489E+02 -0.26640925863E+02  0.36511901568E+02  0.10566000000E+00 0.  1.
         23    2    1    0    0    0  0.11313217135E+02 -0.14700106208E+02  0.23344277874E+02  0.95183271240E+02  0.90392576079E+02 0.  0.
         13    1    3    3    0    0 -0.88553632504E+01 -0.29417348697E+02  0.49985203736E+02  0.58671369672E+02  0.10566000000E+00 0. -1.
         22    1    1    0    0    0 -0.11313217135E+02  0.14700106208E+02 -0.23344277874E+02  0.29816728760E+02  0.00000000000E+00 0. -1.
</event>
<event>
 5    1  0.1724243E-003  0.9118800E+02  0.7818608E-02  0.1130116E+00
         25   -1    0    0    0    0  0.00000000000E+00  0.00000000000E+00  0.99999998245E-14  0.12500000000E+03  0.12500000000E+03 0.  0.
        -13    1    3    3    0    0 -0.44033246917E+02  0.34707002076E+02  0.52146135445E+00  0.56069473987E+02  0.10566000000E+00 0.  1.
         23    2    1    0    0    0 -0.38658748834E+02  0.58560813881E+01 -0.37277007147E+01  0.85722929039E+02  0.76195355894E+02 0.  0.
         13    1    3    3    0    0  0.53744980832E+01 -0.28850920688E+02 -0.42491620692E+01  0.29653455052E+02  0.10566000000E+00 0. -1.
         22    1    1    0    0    0  0.38658748834E+02 -0.58560813881E+01  0.37277007147E+01  0.39277070961E+02  0.00000000000E+00 0.  1.
</event>
<event>
 5    1  0.1724243E-003  0.9118800E+02  0.7818608E-02  0.1130116E+00
         25   -1    0    0    0    0  0.00000000000E+00  0.00000000000E+00  0.99999998245E-14  0.12500000000E+03  0.12500000000E+03 0.  0.
        -13    1    3    3    0    0 -0.22505569154E+02  0.40148202068E+01  0.29936684543E+02  0.37667435135E+02  0.10566000000E+00 0.  1.
         23    2    1    0    0    0 -0.87028873149E+01  0.10649473067E+01 -0.27148014145E+02  0.96471259537E+02  0.92156469574E+02 0.  0.
         13    1    3    3    0    0  0.13802681839E+02 -0.29498729001E+01 -0.57084698687E+02  0.58803824402E+02  0.10566000000E+00 0. -1.
         22    1    1    0    0    0  0.87028873149E+01 -0.10649473067E+01  0.27148014145E+02  0.28528740463E+02  0.00000000000E+00 0. -1.
</event>
<event>
 5    1  0.1724243E-003  0.9118800E+02  0.7818608E-02  0.1130116E+00
         25   -1    0    0    0    0  0.00000000000E+00  0.00000000000E+00  0.99999998245E-14  0.12500000000E+03  0.12500000000E+03 0.  0.
        -13    1    3    3    0    0  0.63011888747E+01 -0.32048002741E+02  0.46648381061E+02  0.56946133149E+02  0.10566000000E+00 0. -1.
         23    2    1    0    0    0 -0.12380252507E+02 -0.44039118414E+01  0.25112048774E+02  0.96657803803E+02  0.92409149714E+02 0.  0.
         13    1    3    3    0    0 -0.18681441382E+02  0.27644090900E+02 -0.21536332287E+02  0.39711670655E+02  0.10566000000E+00 0.  1.
         22    1    1    0    0    0  0.12380252507E+02  0.44039118414E+01 -0.25112048774E+02  0.28342196197E+02  0.00000000000E+00 0. -1.
</event>
<event>
 5    1  0.1724243E-003  0.9118800E+02  0.7818608E-02  0.1130116E+00
         25   -1    0    0    0    0  0.00000000000E+00  0.00000000000E+00  0.99999998245E-14  0.12500000000E+03  0.12500000000E+03 0.  0.
        -13    1    3    3    0    0 -0.32916753129E+02  0.10084972092E+01 -0.16620306070E+02  0.36888689880E+02  0.10566000000E+00 0.  1.
         23    2    1    0    0    0  0.82936944785E+01 -0.24962431481E+02  0.14764684854E+02  0.94835380453E+02  0.89910205835E+02 0.  0.
         13    1    3    3    0    0  0.41210447607E+02 -0.25970928690E+02  0.31384990924E+02  0.57946690573E+02  0.10566000000E+00 0. -1.
         22    1    1    0    0    0 -0.82936944785E+01  0.24962431481E+02 -0.14764684854E+02  0.30164619547E+02  0.00000000000E+00 0. -1.
</event>
<event>
 5    1  0.1724243E-003  0.9118800E+02  0.7818608E-02  0.1130116E+00
         25   -1    0    0    0    0  0.00000000000E+00  0.00000000000E+00  0.99999998245E-14  0.12500000000E+03  0.12500000000E+03 0.  0.
        -13    1    3    3    0    0  0.13489368850E+02 -0.42247411776E+02  0.72434979348E+01  0.44936469600E+02  0.10566000000E+00 0.  1.
         23    2    1    0    0    0 -0.17770055189E+01 -0.70677901299E+01 -0.27418710677E+02  0.96629291494E+02  0.92370573634E+02 0.  0.
         13    1    3    3    0    0 -0.15266374369E+02  0.35179621646E+02 -0.34662208612E+02  0.51692821894E+02  0.10566000000E+00 0. -1.
         22    1    1    0    0    0  0.17770055189E+01  0.70677901299E+01  0.27418710677E+02  0.28370708506E+02  0.00000000000E+00 0. -1.
</event>
<event>
 5    1  0.1724243E-003  0.9118800E+02  0.7818608E-02  0.1130116E+00
         25   -1    0    0    0    0  0.00000000000E+00  0.00000000000E+00  0.99999998245E-14  0.12500000000E+03  0.12500000000E+03 0.  0.
        -13    1    3    3    0    0  0.17874502723E+02  0.30394318229E+02 -0.13528831334E+02  0.37767087119E+02  0.10566000000E+00 0. -1.
         23    2    1    0    0    0  0.45689495352E+02  0.86768100886E+01  0.60144824538E+01  0.78106599419E+02  0.62463187997E+02 0.  0.
         13    1    3    3    0    0  0.27814992629E+02 -0.21717508140E+02  0.19543313787E+02  0.40339512300E+02  0.10566000000E+00 0.  1.
         22    1    1    0    0    0 -0.45689495352E+02 -0.86768100886E+01 -0.60144824538E+01  0.46893400581E+02  0.00000000000E+00 0. -1.
</event>
<event>
 5    1  0.1724243E-003  0.9118800E+02  0.7818608E-02  0.1130116E+00
         25   -1    0    0    0    0  0.00000000000E+00  0.00000000000E+00  0.99999998245E-14  0.12500000000E+03  0.12500000000E+03 0.  0.
        -13    1    3    3    0    0 -0.26769927140E+02 -0.13835640010E+02 -0.34585246014E+02  0.45871607116E+02  0.10566000000E+00 0.  1.
         23    2    1    0    0    0 -0.21595210505E+02 -0.13390558780E+02  0.14843303620E+02  0.95572396572E+02  0.90929088541E+02 0.  0.
         13    1    3    3    0    0  0.51747166349E+01  0.44508122913E+00  0.49428549634E+02  0.49700789455E+02  0.10566000000E+00 0. -1.
         22    1    1    0    0    0  0.21595210505E+02  0.13390558780E+02 -0.14843303620E+02  0.29427603428E+02  0.00000000000E+00 0.  1.
</event>
<event>
 5    1  0.1724243E-003  0.9118800E+02  0.7818608E-02  0.1130116E+00
         25   -1    0    0    0    0  0.00000000000E+00  0.00000000000E+00  0.99999998245E-14  0.12500000000E+03  0.12500000000E+03 0.  0.
        -13    1    3    3    0    0  0.22050664274E+02  0.20329727854E+02  0.27667382282E+02  0.40804715854E+02  0.10566000000E+00 0. -1.
         23    2    1    0    0    0  0.11140391564E+02 -0.24460517748E+02 -0.54601182528E+01  0.97573039833E+02  0.93638987384E+02 0.  0.
         13    1    3    3    0    0 -0.10910272710E+02 -0.44790245602E+02 -0.33127500535E+02  0.56768323979E+02  0.10566000000E+00 0.  1.
         22    1    1    0    0    0 -0.11140391564E+02  0.24460517748E+02  0.54601182528E+01  0.27426960167E+02  0.00000000000E+00 0.  1.
</event>
<event>
 5    1  0.1724243E-003  0.9118800E+02  0.7818608E-02  0.1130116E+00
         25   -1    0    0    0    0  0.00000000000E+00  0.00000000000E+00  0.99999998245E-14  0.12500000000E+03  0.12500000000E+03 0.  0.
        -13    1    3    3    0    0  0.10868274695E+02  0.40480275951E+02  0.21496455944E+02  0.47104998865E+02  0.10566000000E+00 0. -1.
         23    2    1    0    0    0  0.18134257132E+02  0.15414354211E+02 -0.18494715694E+02  0.94858531786E+02  0.89942386819E+02 0.  0.
         13    1    3    3    0    0  0.72659824371E+01 -0.25065921740E+02 -0.39991171638E+02  0.47753532921E+02  0.10566000000E+00 0.  1.
         22    1    1    0    0    0 -0.18134257132E+02 -0.15414354211E+02  0.18494715694E+02  0.30141468214E+02  0.00000000000E+00 0.  1.
</event>
<event>
 5    1  0.1724243E-003  0.9118800E+02  0.7818608E-02  0.1130116E+00
         25   -1    0    0    0    0  0.00000000000E+00  0.00000000000E+00  0.99999998245E-14  0.12500000000E+03  0.12500000000E+03 0.  0.
        -13    1    3    3    0    0 -0.44954293788E+02  0.15838035756E+02  0.28455497770E+02  0.55510885635E+02  0.10566000000E+00 0.  1.
         23    2    1    0    0    0 -0.12521159541E+02 -0.87991725300E+01  0.24071104869E+02  0.96475923099E+02  0.92162794960E+02 0.  0.
         13    1    3    3    0    0  0.32433134248E+02 -0.24637208286E+02 -0.43843929012E+01  0.40965037464E+02  0.10566000000E+00 0. -1.
         22    1    1    0    0    0  0.12521159541E+02  0.87991725300E+01 -0.24071104869E+02  0.28524076901E+02  0.00000000000E+00 0.  1.
</event>
<event>
 5    1  0.1724243E-003  0.9118800E+02  0.7818608E-02  0.1130116E+00
         25   -1    0    0    0    0  0.00000000000E+00  0.00000000000E+00  0.99999998245E-14  0.12500000000E+03  0.12500000000E+03 0.  0.
        -13    1    3    3    0    0 -0.41992841043E+02  0.86763440918E+01  0.82158151113E+01  0.43659917862E+02  0.10566000000E+00 0.  1.
         23    2    1    0    0    0 -0.87324503101E+01 -0.26789801544E+02 -0.92800288955E+01  0.95334058392E+02  0.90600853186E+02 0.  0.
         13    1    3    3    0    0  0.33260390733E+02 -0.35466145636E+02 -0.17495844007E+02  0.51674140530E+02  0.10566000000E+00 0. -1.
         22    1    1    0    0    0  0.87324503101E+01  0.26789801544E+02  0.92800288955E+01  0.29665941608E+02  0.00000000000E+00 0. -1.
</event>
<event>
 5    1  0.1724243E-003  0.9118800E+02  0.7818608E-02  0.1130116E+00
         25   -1    0    0    0    0  0.00000000000E+00  0.00000000000E+00  0.99999998245E-14  0.12500000000E+03  0.12500000000E+03 0.  0.
        -13    1    3    3    0    0  0.36082858514E+02  0.90660686488E+01  0.79882189096E+00  0.37213110052E+02  0.10566000000E+00 0. -1.
         23    2    1    0    0    0 -0.79846062446E+01 -0.24081937555E+02  0.16727817389E+02  0.94610634626E+02  0.89597202280E+02 0.  0.
         13    1    3    3    0    0 -0.44067464759E+02 -0.33148006203E+02  0.15928995498E+02  0.57397524573E+02  0.10566000000E+00 0.  1.
         22    1    1    0    0    0  0.79846062446E+01  0.24081937555E+02 -0.16727817389E+02  0.30389365374E+02  0.00000000000E+00 0.  1.
</event>
<event>
 5    1  0.1724243E-003  0.9118800E+02  0.7818608E-02  0.1130116E+00
         25   -1    0    0    0    0  0.00000000000E+00  0.00000000000E+00  0.99999998245E-14  0.12500000000E+03  0.12500000000E+03 0.  0.
        -13    1    3    3    0    0 -0.20021973328E+02 -0.17784573988E+02  0.10204677760E+02  0.28658630464E+02  0.10566000000E+00 0. -1.
         23    2    1    0    0    0  0.73231927888E+01  0.74582746395E+01 -0.35727479470E+02  0.87774903593E+02  0.79490413876E+02 0.  0.
         13    1    3    3    0    0  0.27345166117E+02  0.25242848628E+02 -0.45932157230E+02  0.59116273129E+02  0.10566000000E+00 0.  1.
         22    1    1    0    0    0 -0.73231927888E+01 -0.74582746395E+01  0.35727479470E+02  0.37225096407E+02  0.00000000000E+00 0.  1.
</event>
<event>
 5    1  0.1724243E-003  0.9118800E+02  0.7818608E-02  0.1130116E+00
         25   -1    0    0    0    0  0.00000000000E+00  0.00000000000E+00  0.99999998245E-14  0.12500000000E+03  0.12500000000E+03 0.  0.
        -13    1    3    3    0    0 -0.10186611741E+02 -0.44103250868E+02 -0.33295041159E+02  0.56191055567E+02  0.10566000000E+00 0. -1.
         23    2    1    0    0    0 -0.20347488860E+02 -0.10959975585E+02 -0.23096283053E+02  0.92326162475E+02  0.86351262983E+02 0.  0.
         13    1    3    3    0    0 -0.10160877119E+02  0.33143275283E+02  0.10198758106E+02  0.36135106908E+02  0.10566000000E+00 0.  1.
         22    1    1    0    0    0  0.20347488860E+02  0.10959975585E+02  0.23096283053E+02  0.32673837525E+02  0.00000000000E+00 0. -1.
</event>
<event>
 5    1  0.1724243E-003  0.9118800E+02  0.7818608E-02  0.1130116E+00
         25   -1    0    0    0    0  0.00000000000E+00  0.00000000000E+00  0.99999998245E-14  0.12500000000E+03  0.12500000000E+03 0.  0.
        -13    1    3    3    0    0  0.71373040974E+01 -0.15423475126E+01  0.38237900496E+02  0.38929014167E+02  0.10566000000E+00 0.  1.
         23    2    1    0    0    0 -0.15108116944E+02  0.24373796273E+02 -0.68735227029E+01  0.95511316463E+02  0.90845083058E+02 0.  0.
         13    1    3    3    0    0 -0.22245421042E+02  0.25916143786E+02 -0.45111423199E+02  0.56582302296E+02  0.10566000000E+00 0. -1.
         22    1    1    0    0    0  0.15108116944E+02 -0.24373796273E+02  0.68735227029E+01  0.29488683537E+02  0.00000000000E+00 0. -1.
</event>
<event>
 5    1  0.1724243E-003  0.9118800E+02  0.7818608E-02  0.1130116E+00
         25   -1    0    0    0    0  0.00000000000E+00  0.00000000000E+00  0.99999998245E-14  0.12500000000E+03  0.12500000000E+03 0.  0.
        -13    1    3    3    0    0  0.28652268942E+02  0.31040482201E+02 -0.23496851930E+02  0.48338155379E+02  0.10566000000E+00 0. -1.
         23    2    1    0    0    0  0.21357961151E+02  0.69961896254E+01  0.17563563376E+02  0.96476537162E+02  0.92163627807E+02 0.  0.
         13    1    3    3    0    0 -0.72943077910E+01 -0.24044292576E+02  0.41060415305E+02  0.48138381783E+02  0.10566000000E+00 0.  1.
         22    1    1    0    0    0 -0.21357961151E+02 -0.69961896254E+01 -0.17563563376E+02  0.28523462838E+02  0.00000000000E+00 0.  1.
</event>
<event>
 5    1  0.1724243E-003  0.9118800E+02  0.7818608E-02  0.1130116E+00
         25   -1    0    0    0    0  0.00000000000E+00  0.00000000000E+00  0.99999998245E-14  0.12500000000E+03  0.12500000000E+03 0.  0.
        -13    1    3    3    0    0 -0.55308701642E+02  0.67373243266E+00  0.66908258036E+01  0.55716108143E+02  0.10566000000E+00 0. -1.
         23    2    1    0    0    0 -0.18023012814E+02  0.85687373429E+01  0.20629557039E+02  0.96297545851E+02  0.91920544291E+02 0.  0.
         13    1    3    3    0    0  0.37285688828E+02  0.78950049103E+01  0.13938731236E+02  0.40581437707E+02  0.10566000000E+00 0.  1.
         22    1    1    0    0    0  0.18023012814E+02 -0.85687373429E+01 -0.20629557039E+02  0.28702454149E+02  0.00000000000E+00 0. -1.
</event>
<event>
 5    1  0.1724243E-003  0.9118800E+02  0.7818608E-02  0.1130116E+00
         25   -1    0    0    0    0  0.00000000000E+00  0.00000000000E+00  0.99999998245E-14  0.12500000000E+03  0.12500000000E+03 0.  0.
        -13    1    3    3    0    0  0.17008090867E+02  0.39724008542E+02  0.37831749464E+02  0.57432781938E+02  0.10566000000E+00 0. -1.
         23    2    1    0    0    0 -0.91700138073E+01  0.23180780701E+02  0.15008777821E+02  0.95901870183E+02  0.91380892674E+02 0.  0.
         13    1    3    3    0    0 -0.26178104675E+02 -0.16543227841E+02 -0.22822971643E+02  0.38469088245E+02  0.10566000000E+00 0.  1.
         22    1    1    0    0    0  0.91700138073E+01 -0.23180780701E+02 -0.15008777821E+02  0.29098129817E+02  0.00000000000E+00 0. -1.
</event>
<event>
 5    1  0.1724243E-003  0.9118800E+02  0.7818608E-02  0.1130116E+00
         25   -1    0    0    0    0  0.00000000000E+00  0.00000000000E+00  0.99999998245E-14  0.12500000000E+03  0.12500000000E+03 0.  0.
        -13    1    3    3    0    0 -0.38302090657E+02  0.76392156814E+01 -0.17426881845E+02  0.42768155675E+02  0.10566000000E+00 0.  1.
         23    2    1    0    0    0  0.51624089888E+01 -0.23034499755E+02 -0.16898529472E+02  0.95969000296E+02  0.91472673919E+02 0.  0.
         13    1    3    3    0    0  0.43464499646E+02 -0.30673715436E+02  0.52835237366E+00  0.53200844621E+02  0.10566000000E+00 0. -1.
         22    1    1    0    0    0 -0.51624089888E+01  0.23034499755E+02  0.16898529472E+02  0.29030999704E+02  0.00000000000E+00 0. -1.
</event>
<event>
 5    1  0.1724243E-003  0.9118800E+02  0.7818608E-02  0.1130116E+00
         25   -1    0    0    0    0  0.00000000000E+00  0.00000000000E+00  0.99999998245E-14  0.12500000000E+03  0.12500000000E+03 0.  0.
        -13    1    3    3    0    0  0.43720798772E+00 -0.44714430903E+02  0.24882826089E+02  0.51173603352E+02  0.10566000000E+00 0. -1.
         23    2    1    0    0    0 -0.22407814546E+02 -0.38187227589E+02  0.88182497685E+01  0.79854280018E+02  0.65867822225E+02 0.  0.
         13    1    3    3    0    0 -0.22845022534E+02  0.65272033137E+01 -0.16064576320E+02  0.28680676667E+02  0.10566000000E+00 0.  1.
         22    1    1    0    0    0  0.22407814546E+02  0.38187227589E+02 -0.88182497685E+01  0.45145719982E+02  0.00000000000E+00 0. -1.
</event>
<event>
 5    1  0.1724243E-003  0.9118800E+02  0.7818608E-02  0.1130116E+00
         25   -1    0    0    0    0  0.00000000000E+00  0.00000000000E+00  0.99999998245E-14  0.12500000000E+03  0.12500000000E+03 0.  0.
        -13    1    3    3    0    0  0.13937006894E+02 -0.54518538565E+02  0.18364502987E+02  0.59192713593E+02  0.10566000000E+00 0. -1.
         23    2    1    0    0    0  0.18359026553E+01 -0.32656926608E+02 -0.31151684117E+01  0.92143498843E+02  0.86086437438E+02 0.  0.
         13    1    3    3    0    0 -0.12101104239E+02  0.21861611957E+02 -0.21479671399E+02  0.32950785250E+02  0.10566000000E+00 0.  1.
         22    1    1    0    0    0 -0.18359026553E+01  0.32656926608E+02  0.31151684117E+01  0.32856501157E+02  0.00000000000E+00 0. -1.
</event>
<event>
 5    1  0.1724243E-003  0.9118800E+02  0.7818608E-02  0.1130116E+00
         25   -1    0    0    0    0  0.00000000000E+00  0.00000000000E+00  0.99999998245E-14  0.12500000000E+03  0.12500000000E+03 0.  0.
        -13    1    3    3    0    0 -0.21135719461E+02  0.48755958217E+02 -0.27020965505E+02  0.59615483220E+02  0.10566000000E+00 0.  1.
         23    2    1    0    0    0  0.34481777687E+01  0.25264600030E+02 -0.12735040725E+02  0.96497873643E+02  0.92192561580E+02 0.  0.
         13    1    3    3    0    0  0.24583897229E+02 -0.23491358186E+02  0.14285924780E+02  0.36882390423E+02  0.10566000000E+00 0. -1.
         22    1    1    0    0    0 -0.34481777687E+01 -0.25264600030E+02  0.12735040725E+02  0.28502126357E+02  0.00000000000E+00 0.  1.
</event>
<event>
 5    1  0.1724243E-003  0.9118800E+02  0.7818608E-02  0.1130116E+00
         25   -1    0    0    0    0  0.00000000000E+00  0.00000000000E+00  0.99999998245E-14  0.12500000000E+03  0.12500000000E+03 0.  0.
        -13    1    3    3    0    0  0.68911967728E+01 -0.35540713102E+02  0.47732459359E+02  0.59908511259E+02  0.10566000000E+00 0.  1.
         23    2    1    0    0    0 -0.22619855427E+01 -0.25912279568E+02  0.15622775238E+02  0.94658050209E+02  0.89663328916E+02 0.  0.
         13    1    3    3    0    0 -0.91531823154E+01  0.96284335347E+01 -0.32109684121E+02  0.34749538950E+02  0.10566000000E+00 0. -1.
         22    1    1    0    0    0  0.22619855427E+01  0.25912279568E+02 -0.15622775238E+02  0.30341949791E+02  0.00000000000E+00 0.  1.
</event>
<event>
 5    1  0.1724243E-003  0.9118800E+02  0.7818608E-02  0.1130116E+00
         25   -1    0    0    0    0  0.00000000000E+00  0.00000000000E+00  0.99999998245E-14  0.12500000000E+03  0.12500000000E+03 0.  0.
        -13    1    3    3    0    0 -0.22198134241E+02 -0.13310836034E+02 -0.36024428322E+02  0.44358833614E+02  0.10566000000E+00 0. -1.
         23    2    1    0    0    0  0.10876658179E+02  0.21173406823E+02 -0.16808525994E+02  0.95859969188E+02  0.91323558280E+02 0.  0.
         13    1    3    3    0    0  0.33074792419E+02  0.34484242858E+02  0.19215902327E+02  0.51501135573E+02  0.10566000000E+00 0.  1.
         22    1    1    0    0    0 -0.10876658179E+02 -0.21173406823E+02  0.16808525994E+02  0.29140030812E+02  0.00000000000E+00 0.  1.
</event>
<event>
 5    1  0.1724243E-003  0.9118800E+02  0.7818608E-02  0.1130116E+00
         25   -1    0    0    0    0  0.00000000000E+00  0.00000000000E+00  0.99999998245E-14  0.12500000000E+03  0.12500000000E+03 0.  0.
        -13    1    3    3    0    0 -0.34093559335E+02  0.46250988680E+01  0.17013014030E+02  0.38382497809E+02  0.10566000000E+00 0. -1.
         23    2    1    0    0    0 -0.37778734428E+01 -0.56507107692E+01 -0.29433940747E+02  0.94791396460E+02  0.89849035136E+02 0.  0.
         13    1    3    3    0    0  0.30315685892E+02 -0.10275809637E+02 -0.46446954778E+02  0.56408898650E+02  0.10566000000E+00 0.  1.
         22    1    1    0    0    0  0.37778734428E+01  0.56507107692E+01  0.29433940747E+02  0.30208603540E+02  0.00000000000E+00 0.  1.
</event>
<event>
 5    1  0.1724243E-003  0.9118800E+02  0.7818608E-02  0.1130116E+00
         25   -1    0    0    0    0  0.00000000000E+00  0.00000000000E+00  0.99999998245E-14  0.12500000000E+03  0.12500000000E+03 0.  0.
        -13    1    3    3    0    0  0.13949613107E+02 -0.32084970835E+02  0.14273713607E+02  0.37786070495E+02  0.10566000000E+00 0.  1.
         23    2    1    0    0    0 -0.83732431943E+00  0.88058156786E+00 -0.30024973794E+02  0.94950447803E+02  0.90070039141E+02 0.  0.
         13    1    3    3    0    0 -0.14786937426E+02  0.32965552403E+02 -0.44298687400E+02  0.57164377308E+02  0.10566000000E+00 0. -1.
         22    1    1    0    0    0  0.83732431943E+00 -0.88058156786E+00  0.30024973794E+02  0.30049552197E+02  0.00000000000E+00 0. -1.
</event>
<event>
 5    1  0.1724243E-003  0.9118800E+02  0.7818608E-02  0.1130116E+00
         25   -1    0    0    0    0  0.00000000000E+00  0.00000000000E+00  0.99999998245E-14  0.12500000000E+03  0.12500000000E+03 0.  0.
        -13    1    3    3    0    0  0.29367331899E+02  0.31757768879E+02 -0.18267333497E+02  0.46954261831E+02  0.10566000000E+00 0. -1.
         23    2    1    0    0    0  0.22506018514E+02 -0.22964417409E+01  0.17185586933E+02  0.96589809711E+02  0.92317129655E+02 0.  0.
         13    1    3    3    0    0 -0.68613133855E+01 -0.34054210619E+02  0.35452920430E+02  0.49635547880E+02  0.10566000000E+00 0.  1.
         22    1    1    0    0    0 -0.22506018514E+02  0.22964417409E+01 -0.17185586933E+02  0.28410190289E+02  0.00000000000E+00 0.  1.
</event>
<event>
 5    1  0.1724243E-003  0.9118800E+02  0.7818608E-02  0.1130116E+00
         25   -1    0    0    0    0  0.00000000000E+00  0.00000000000E+00  0.99999998245E-14  0.12500000000E+03  0.12500000000E+03 0.  0.
        -13    1    3    3    0    0 -0.21517627419E+02 -0.30565365291E+02  0.36720287547E+02  0.52398859975E+02  0.10566000000E+00 0. -1.
         23    2    1    0    0    0 -0.25804034228E+02  0.52200380093E+01  0.18801828718E+02  0.92648713435E+02  0.86816924380E+02 0.  0.
         13    1    3    3    0    0 -0.42864068097E+01  0.35785403300E+02 -0.17918458829E+02  0.40249853460E+02  0.10566000000E+00 0.  1.
         22    1    1    0    0    0  0.25804034228E+02 -0.52200380093E+01 -0.18801828718E+02  0.32351286565E+02  0.00000000000E+00 0. -1.
</event>
<event>
 5    1  0.1724243E-003  0.9118800E+02  0.7818608E-02  0.1130116E+00
         25   -1    0    0    0    0  0.00000000000E+00  0.00000000000E+00  0.99999998245E-14  0.12500000000E+03  0.12500000000E+03 0.  0.
        -13    1    3    3    0    0  0.48570406167E+02 -0.14343601916E+02  0.81937809311E+01  0.51302753154E+02  0.10566000000E+00 0. -1.
         23    2    1    0    0    0  0.13372771838E+02  0.31455329518E+01 -0.20750646966E+02  0.10011396469E+03  0.96971599818E+02 0.  0.
         13    1    3    3    0    0 -0.35197634330E+02  0.17489134868E+02 -0.28944427897E+02  0.48811211531E+02  0.10566000000E+00 0.  1.
         22    1    1    0    0    0 -0.13372771838E+02 -0.31455329518E+01  0.20750646966E+02  0.24886035315E+02  0.00000000000E+00 0.  1.
</event>
<event>
 5    1  0.1724243E-003  0.9118800E+02  0.7818608E-02  0.1130116E+00
         25   -1    0    0    0    0  0.00000000000E+00  0.00000000000E+00  0.99999998245E-14  0.12500000000E+03  0.12500000000E+03 0.  0.
        -13    1    3    3    0    0 -0.10740048589E+02  0.15111446763E+02 -0.29086351303E+02  0.34492484154E+02  0.10566000000E+00 0.  1.
         23    2    1    0    0    0 -0.12514215412E+02 -0.24336087773E+02  0.15094418314E+02  0.93747924554E+02  0.88385412475E+02 0.  0.
         13    1    3    3    0    0 -0.17741668238E+01 -0.39447534536E+02  0.44180769617E+02  0.59255440399E+02  0.10566000000E+00 0. -1.
         22    1    1    0    0    0  0.12514215412E+02  0.24336087773E+02 -0.15094418314E+02  0.31252075446E+02  0.00000000000E+00 0. -1.
</event>
<event>
 5    1  0.1724243E-003  0.9118800E+02  0.7818608E-02  0.1130116E+00
         25   -1    0    0    0    0  0.00000000000E+00  0.00000000000E+00  0.99999998245E-14  0.12500000000E+03  0.12500000000E+03 0.  0.
        -13    1    3    3    0    0 -0.95233765030E+01 -0.10518327748E+02  0.42602941096E+02  0.44903804657E+02  0.10566000000E+00 0.  1.
         23    2    1    0    0    0 -0.22526171108E+02 -0.12274525993E+02 -0.87414190293E+01  0.97898251352E+02  0.94072115093E+02 0.  0.
         13    1    3    3    0    0 -0.13002794605E+02 -0.17561982454E+01 -0.51344360125E+02  0.52994446695E+02  0.10566000000E+00 0. -1.
         22    1    1    0    0    0  0.22526171108E+02  0.12274525993E+02  0.87414190293E+01  0.27101748648E+02  0.00000000000E+00 0.  1.
</event>
<event>
 5    1  0.1724243E-003  0.9118800E+02  0.7818608E-02  0.1130116E+00
         25   -1    0    0    0    0  0.00000000000E+00  0.00000000000E+00  0.99999998245E-14  0.12500000000E+03  0.12500000000E+03 0.  0.
        -13    1    3    3    0    0 -0.16272831718E+02 -0.31315204878E+02  0.59636905525E+01  0.35791393906E+02  0.10566000000E+00 0.  1.
         23    2    1    0    0    0  0.10269366725E+02  0.22189095009E+02  0.15174533820E+02  0.96223580714E+02  0.91819906221E+02 0.  0.
         13    1    3    3    0    0  0.26542198443E+02  0.53504299888E+02  0.92108432678E+01  0.60432186808E+02  0.10566000000E+00 0. -1.
         22    1    1    0    0    0 -0.10269366725E+02 -0.22189095009E+02 -0.15174533820E+02  0.28776419286E+02  0.00000000000E+00 0. -1.
</event>
<event>
 5    1  0.1724243E-003  0.9118800E+02  0.7818608E-02  0.1130116E+00
         25   -1    0    0    0    0  0.00000000000E+00  0.00000000000E+00  0.99999998245E-14  0.12500000000E+03  0.12500000000E+03 0.  0.
        -13    1    3    3    0    0 -0.21925681615E+02 -0.47109705898E+02 -0.30211188816E+02  0.60106463861E+02  0.10566000000E+00 0.  1.
         23    2    1    0    0    0 -0.10715893094E+01 -0.28186555954E+02 -0.88975813734E+01  0.95423029322E+02  0.90723521373E+02 0.  0.
         13    1    3    3    0    0  0.20854092306E+02  0.18923149944E+02  0.21313607443E+02  0.35316565461E+02  0.10566000000E+00 0. -1.
         22    1    1    0    0    0  0.10715893094E+01  0.28186555954E+02  0.88975813734E+01  0.29576970678E+02  0.00000000000E+00 0.  1.
</event>
<event>
 5    1  0.1724243E-003  0.9118800E+02  0.7818608E-02  0.1130116E+00
         25   -1    0    0    0    0  0.00000000000E+00  0.00000000000E+00  0.99999998245E-14  0.12500000000E+03  0.12500000000E+03 0.  0.
        -13    1    3    3    0    0  0.89268647262E+01  0.50634561095E+02 -0.95198848062E+01  0.52289454595E+02  0.10566000000E+00 0. -1.
         23    2    1    0    0    0  0.19942152608E+02  0.17103936160E+02  0.14510033537E+02  0.94987083513E+02  0.90120868162E+02 0.  0.
         13    1    3    3    0    0  0.11015287882E+02 -0.33530624935E+02  0.24029918343E+02  0.42697628918E+02  0.10566000000E+00 0.  1.
         22    1    1    0    0    0 -0.19942152608E+02 -0.17103936160E+02 -0.14510033537E+02  0.30012916487E+02  0.00000000000E+00 0. -1.
</event>
<event>
 5    1  0.1724243E-003  0.9118800E+02  0.7818608E-02  0.1130116E+00
         25   -1    0    0    0    0  0.00000000000E+00  0.00000000000E+00  0.99999998245E-14  0.12500000000E+03  0.12500000000E+03 0.  0.
        -13    1    3    3    0    0 -0.36399634562E+02  0.14543233105E+02 -0.55173411700E+01  0.39583977099E+02  0.10566000000E+00 0.  1.
         23    2    1    0    0    0  0.18839920729E+01 -0.16189632700E+02  0.23341393074E+02  0.96531170314E+02  0.92237696082E+02 0.  0.
         13    1    3    3    0    0  0.38283626634E+02 -0.30732865805E+02  0.28858734243E+02  0.56947193215E+02  0.10566000000E+00 0. -1.
         22    1    1    0    0    0 -0.18839920729E+01  0.16189632700E+02 -0.23341393074E+02  0.28468829686E+02  0.00000000000E+00 0. -1.
</event>
<event>
 5    1  0.1724243E-003  0.9118800E+02  0.7818608E-02  0.1130116E+00
         25   -1    0    0    0    0  0.00000000000E+00  0.00000000000E+00  0.99999998245E-14  0.12500000000E+03  0.12500000000E+03 0.  0.
        -13    1    3    3    0    0 -0.35546569101E+02 -0.32415363836E+02  0.27247314525E+02  0.55287807882E+02  0.10566000000E+00 0. -1.
         23    2    1    0    0    0  0.77858228741E+00 -0.19860454902E+02  0.23970703537E+02  0.93860981271E+02  0.88545159765E+02 0.  0.
         13    1    3    3    0    0  0.36325151389E+02  0.12554908934E+02 -0.32766109876E+01  0.38573173390E+02  0.10566000000E+00 0.  1.
         22    1    1    0    0    0 -0.77858228741E+00  0.19860454902E+02 -0.23970703537E+02  0.31139018729E+02  0.00000000000E+00 0. -1.
</event>
<event>
 5    1  0.1724243E-003  0.9118800E+02  0.7818608E-02  0.1130116E+00
         25   -1    0    0    0    0  0.00000000000E+00  0.00000000000E+00  0.99999998245E-14  0.12500000000E+03  0.12500000000E+03 0.  0.
        -13    1    3    3    0    0  0.47262904791E+02 -0.82432095193E+01  0.36554958717E+02  0.60315908709E+02  0.10566000000E+00 0.  1.
         23    2    1    0    0    0  0.21299808718E+02 -0.15572348171E+02  0.17848824824E+02  0.93144695472E+02  0.87528131866E+02 0.  0.
         13    1    3    3    0    0 -0.25963096073E+02 -0.73291386516E+01 -0.18706133894E+02  0.32828786763E+02  0.10566000000E+00 0. -1.
         22    1    1    0    0    0 -0.21299808718E+02  0.15572348171E+02 -0.17848824824E+02  0.31855304528E+02  0.00000000000E+00 0.  1.
</event>
<event>
 5    1  0.1724243E-003  0.9118800E+02  0.7818608E-02  0.1130116E+00
         25   -1    0    0    0    0  0.00000000000E+00  0.00000000000E+00  0.99999998245E-14  0.12500000000E+03  0.12500000000E+03 0.  0.
        -13    1    3    3    0    0 -0.13593217234E+02  0.16985176664E+02 -0.55047785290E+02  0.59190722334E+02  0.10566000000E+00 0. -1.
         23    2    1    0    0    0 -0.32600672365E+01  0.20899190070E+02 -0.20186679389E+02  0.95761220807E+02  0.91188295311E+02 0.  0.
         13    1    3    3    0    0  0.10333149998E+02  0.39140134055E+01  0.34861105901E+02  0.36570498472E+02  0.10566000000E+00 0.  1.
         22    1    1    0    0    0  0.32600672365E+01 -0.20899190070E+02  0.20186679389E+02  0.29238779193E+02  0.00000000000E+00 0. -1.
</event>
<event>
 5    1  0.1724243E-003  0.9118800E+02  0.7818608E-02  0.1130116E+00
         25   -1    0    0    0    0  0.00000000000E+00  0.00000000000E+00  0.99999998245E-14  0.12500000000E+03  0.12500000000E+03 0.  0.
        -13    1    3    3    0    0  0.42174578099E+02 -0.19391701541E+02 -0.31859707511E+02  0.56300845937E+02  0.10566000000E+00 0.  1.
         23    2    1    0    0    0  0.28148380368E+02  0.63340926540E+01 -0.56797083338E+01  0.95594028942E+02  0.90958821648E+02 0.  0.
         13    1    3    3    0    0 -0.14026197731E+02  0.25725794195E+02  0.26179999177E+02  0.39293183005E+02  0.10566000000E+00 0. -1.
         22    1    1    0    0    0 -0.28148380368E+02 -0.63340926540E+01  0.56797083338E+01  0.29405971058E+02  0.00000000000E+00 0.  1.
</event>
<event>
 5    1  0.1724243E-003  0.9118800E+02  0.7818608E-02  0.1130116E+00
         25   -1    0    0    0    0  0.00000000000E+00  0.00000000000E+00  0.99999998245E-14  0.12500000000E+03  0.12500000000E+03 0.  0.
        -13    1    3    3    0    0  0.95090172995E+01  0.30064644320E+02  0.87618768390E+01  0.32727448691E+02  0.10566000000E+00 0.  1.
         23    2    1    0    0    0  0.12348532526E+02  0.14427857754E+02 -0.38218537301E+02  0.82323239013E+02  0.70397512408E+02 0.  0.
         13    1    3    3    0    0  0.28395152269E+01 -0.15636786566E+02 -0.46980414140E+02  0.49595790322E+02  0.10566000000E+00 0. -1.
         22    1    1    0    0    0 -0.12348532526E+02 -0.14427857754E+02  0.38218537301E+02  0.42676760987E+02  0.00000000000E+00 0. -1.
</event>
<event>
 5    1  0.1724243E-003  0.9118800E+02  0.7818608E-02  0.1130116E+00
         25   -1    0    0    0    0  0.00000000000E+00  0.00000000000E+00  0.99999998245E-14  0.12500000000E+03  0.12500000000E+03 0.  0.
        -13    1    3    3    0    0 -0.36197545462E+02 -0.28440855535E+02  0.24444286268E+02  0.52121769504E+02  0.10566000000E+00 0.  1.
         23    2    1    0    0    0 -0.30996946662E+02  0.39104204054E+01 -0.12057502429E+01  0.93734109260E+02  0.88365871890E+02 0.  0.
         13    1    3    3    0    0  0.52005987999E+01  0.32351275941E+02 -0.25650036511E+02  0.41612339755E+02  0.10566000000E+00 0. -1.
         22    1    1    0    0    0  0.30996946662E+02 -0.39104204054E+01  0.12057502429E+01  0.31265890740E+02  0.00000000000E+00 0.  1.
</event>
<event>
 5    1  0.1724243E-003  0.9118800E+02  0.7818608E-02  0.1130116E+00
         25   -1    0    0    0    0  0.00000000000E+00  0.00000000000E+00  0.99999998245E-14  0.12500000000E+03  0.12500000000E+03 0.  0.
        -13    1    3    3    0    0  0.33381572058E+02  0.36025227370E+02  0.36608222103E+02  0.61256178870E+02  0.10566000000E+00 0. -1.
         23    2    1    0    0    0  0.21135668994E+02  0.13016878404E+02  0.10820936213E+02  0.97921442289E+02  0.94102925418E+02 0.  0.
         13    1    3    3    0    0 -0.12245903064E+02 -0.23008348967E+02 -0.25787285889E+02  0.36665263419E+02  0.10566000000E+00 0.  1.
         22    1    1    0    0    0 -0.21135668994E+02 -0.13016878404E+02 -0.10820936213E+02  0.27078557711E+02  0.00000000000E+00 0. -1.
</event>
<event>
 5    1  0.1724243E-003  0.9118800E+02  0.7818608E-02  0.1130116E+00
         25   -1    0    0    0    0  0.00000000000E+00  0.00000000000E+00  0.99999998245E-14  0.12500000000E+03  0.12500000000E+03 0.  0.
        -13    1    3    3    0    0 -0.23389584767E+02 -0.16019439861E+02 -0.20514089952E+02  0.34993344791E+02  0.10566000000E+00 0.  1.
         23    2    1    0    0    0  0.24704439649E+02  0.72472885401E+01  0.10979152118E+02  0.97011175252E+02  0.92885918271E+02 0.  0.
         13    1    3    3    0    0  0.48094024416E+02  0.23266728401E+02  0.31493242070E+02  0.62017830461E+02  0.10566000000E+00 0. -1.
         22    1    1    0    0    0 -0.24704439649E+02 -0.72472885401E+01 -0.10979152118E+02  0.27988824748E+02  0.00000000000E+00 0. -1.
</event>
<event>
 5    1  0.1724243E-003  0.9118800E+02  0.7818608E-02  0.1130116E+00
         25   -1    0    0    0    0  0.00000000000E+00  0.00000000000E+00  0.99999998245E-14  0.12500000000E+03  0.12500000000E+03 0.  0.
        -13    1    3    3    0    0  0.22448935041E+02 -0.22911308009E+02  0.35785441029E+02  0.48057170879E+02  0.10566000000E+00 0. -1.
         23    2    1    0    0    0  0.23706296298E+00 -0.40018976087E+02  0.19470662780E+02  0.80495153579E+02  0.67073007944E+02 0.  0.
         13    1    3    3    0    0 -0.22211872078E+02 -0.17107668077E+02 -0.16314778249E+02  0.32437982700E+02  0.10566000000E+00 0.  1.
         22    1    1    0    0    0 -0.23706296298E+00  0.40018976087E+02 -0.19470662780E+02  0.44504846421E+02  0.00000000000E+00 0. -1.
</event>
<event>
 5    1  0.1724243E-003  0.9118800E+02  0.7818608E-02  0.1130116E+00
         25   -1    0    0    0    0  0.00000000000E+00  0.00000000000E+00  0.99999998245E-14  0.12500000000E+03  0.12500000000E+03 0.  0.
        -13    1    3    3    0    0  0.34008824965E+02 -0.24911988239E+02  0.16108619338E+02  0.45129880507E+02  0.10566000000E+00 0.  1.
         23    2    1    0    0    0 -0.62218015262E+01 -0.25637086164E+02 -0.13764120257E+02  0.95243958467E+02  0.90476458910E+02 0.  0.
         13    1    3    3    0    0 -0.40230626492E+02 -0.72509792574E+00 -0.29872739595E+02  0.50114077961E+02  0.10566000000E+00 0. -1.
         22    1    1    0    0    0  0.62218015262E+01  0.25637086164E+02  0.13764120257E+02  0.29756041533E+02  0.00000000000E+00 0.  1.
</event>
<event>
 5    1  0.1724243E-003  0.9118800E+02  0.7818608E-02  0.1130116E+00
         25   -1    0    0    0    0  0.00000000000E+00  0.00000000000E+00  0.99999998245E-14  0.12500000000E+03  0.12500000000E+03 0.  0.
        -13    1    3    3    0    0 -0.19055650161E+02 -0.23595550545E+02  0.20486229920E+02  0.36600062691E+02  0.10566000000E+00 0.  1.
         23    2    1    0    0    0  0.12918163327E+02 -0.34234825987E+01 -0.25547539914E+02  0.96168143097E+02  0.91744404594E+02 0.  0.
         13    1    3    3    0    0  0.31973813488E+02  0.20172067946E+02 -0.46033769833E+02  0.59568080406E+02  0.10566000000E+00 0. -1.
         22    1    1    0    0    0 -0.12918163327E+02  0.34234825987E+01  0.25547539914E+02  0.28831856903E+02  0.00000000000E+00 0. -1.
</event>
<event>
 5    1  0.1724243E-003  0.9118800E+02  0.7818608E-02  0.1130116E+00
         25   -1    0    0    0    0  0.00000000000E+00  0.00000000000E+00  0.99999998245E-14  0.12500000000E+03  0.12500000000E+03 0.  0.
        -13    1    3    3    0    0 -0.16494782654E+02 -0.32221682340E+02 -0.48132909352E+01  0.36517031660E+02  0.10566000000E+00 0. -1.
         23    2    1    0    0    0 -0.13148406828E+02  0.25351175437E+02  0.74707808001E+01  0.95480933891E+02  0.90803267963E+02 0.  0.
         13    1    3    3    0    0  0.33463758259E+01  0.57572857778E+02  0.12284071735E+02  0.58963902231E+02  0.10566000000E+00 0.  1.
         22    1    1    0    0    0  0.13148406828E+02 -0.25351175437E+02 -0.74707808001E+01  0.29519066109E+02  0.00000000000E+00 0.  1.
</event>
<event>
 5    1  0.1724243E-003  0.9118800E+02  0.7818608E-02  0.1130116E+00
         25   -1    0    0    0    0  0.00000000000E+00  0.00000000000E+00  0.99999998245E-14  0.12500000000E+03  0.12500000000E+03 0.  0.
        -13    1    3    3    0    0 -0.19414785532E+02  0.21567512867E+02  0.20716197539E+02  0.35654782471E+02  0.10566000000E+00 0. -1.
         23    2    1    0    0    0  0.21489395345E+02 -0.18961301786E+02  0.17204828418E+01  0.96289633599E+02  0.91909784026E+02 0.  0.
         13    1    3    3    0    0  0.40904180877E+02 -0.40528814653E+02 -0.18995714697E+02  0.60634851128E+02  0.10566000000E+00 0.  1.
         22    1    1    0    0    0 -0.21489395345E+02  0.18961301786E+02 -0.17204828418E+01  0.28710366401E+02  0.00000000000E+00 0.  1.
</event>
<event>
 5    1  0.1724243E-003  0.9118800E+02  0.7818608E-02  0.1130116E+00
         25   -1    0    0    0    0  0.00000000000E+00  0.00000000000E+00  0.99999998245E-14  0.12500000000E+03  0.12500000000E+03 0.  0.
        -13    1    3    3    0    0  0.34886897283E+02  0.86316950500E-01  0.11457301109E+02  0.36720348111E+02  0.10566000000E+00 0. -1.
         23    2    1    0    0    0 -0.17268363014E+02  0.23270677535E+02  0.11572596606E+02  0.93796702317E+02  0.88454370040E+02 0.  0.
         13    1    3    3    0    0 -0.52155260297E+02  0.23184360584E+02  0.11529549710E+00  0.57076354206E+02  0.10566000000E+00 0.  1.
         22    1    1    0    0    0  0.17268363014E+02 -0.23270677535E+02 -0.11572596606E+02  0.31203297683E+02  0.00000000000E+00 0.  1.
</event>
<event>
 5    1  0.1724243E-003  0.9118800E+02  0.7818608E-02  0.1130116E+00
         25   -1    0    0    0    0  0.00000000000E+00  0.00000000000E+00  0.99999998245E-14  0.12500000000E+03  0.12500000000E+03 0.  0.
        -13    1    3    3    0    0  0.65378124940E+01  0.20697168387E+02 -0.23909061237E+02  0.32291951702E+02  0.10566000000E+00 0.  1.
         23    2    1    0    0    0 -0.17099037755E+01 -0.13644874482E+02  0.27260721615E+02  0.94467176456E+02  0.89396835034E+02 0.  0.
         13    1    3    3    0    0 -0.82477162695E+01 -0.34342042869E+02  0.51169782852E+02  0.62175224755E+02  0.10566000000E+00 0. -1.
         22    1    1    0    0    0  0.17099037755E+01  0.13644874482E+02 -0.27260721615E+02  0.30532823544E+02  0.00000000000E+00 0. -1.
</event>
<event>
 5    1  0.1724243E-003  0.9118800E+02  0.7818608E-02  0.1130116E+00
         25   -1    0    0    0    0  0.00000000000E+00  0.00000000000E+00  0.99999998245E-14  0.12500000000E+03  0.12500000000E+03 0.  0.
        -13    1    3    3    0    0  0.41758463628E+02 -0.79942567309E+01  0.11266912259E+02  0.43984450675E+02  0.10566000000E+00 0.  1.
         23    2    1    0    0    0 -0.76599976880E+01  0.11930251900E+02  0.22467773058E+02  0.98432965895E+02  0.94779963461E+02 0.  0.
         13    1    3    3    0    0 -0.49418461316E+02  0.19924508631E+02  0.11200860798E+02  0.54448515220E+02  0.10566000000E+00 0. -1.
         22    1    1    0    0    0  0.76599976880E+01 -0.11930251900E+02 -0.22467773058E+02  0.26567034105E+02  0.00000000000E+00 0. -1.
</event>
<event>
 5    1  0.1724243E-003  0.9118800E+02  0.7818608E-02  0.1130116E+00
         25   -1    0    0    0    0  0.00000000000E+00  0.00000000000E+00  0.99999998245E-14  0.12500000000E+03  0.12500000000E+03 0.  0.
        -13    1    3    3    0    0 -0.12813015087E+02 -0.72552583166E+01  0.30745342192E+02  0.34089578457E+02  0.10566000000E+00 0.  1.
         23    2    1    0    0    0  0.20727530809E+02 -0.80643820930E+01 -0.20110297144E+02  0.95015189792E+02  0.90159843877E+02 0.  0.
         13    1    3    3    0    0  0.33540545896E+02 -0.80912377635E+00 -0.50855639336E+02  0.60925611335E+02  0.10566000000E+00 0. -1.
         22    1    1    0    0    0 -0.20727530809E+02  0.80643820930E+01  0.20110297144E+02  0.29984810208E+02  0.00000000000E+00 0. -1.
</event>
<event>
 5    1  0.1724243E-003  0.9118800E+02  0.7818608E-02  0.1130116E+00
         25   -1    0    0    0    0  0.00000000000E+00  0.00000000000E+00  0.99999998245E-14  0.12500000000E+03  0.12500000000E+03 0.  0.
        -13    1    3    3    0    0  0.17338519481E+02 -0.76703817864E+01 -0.56859304925E+02  0.59937056443E+02  0.10566000000E+00 0.  1.
         23    2    1    0    0    0  0.17481531311E+02 -0.84339817030E+01 -0.18886419208E+02  0.97918035247E+02  0.94098399624E+02 0.  0.
         13    1    3    3    0    0  0.14301183066E+00 -0.76359991662E+00  0.37972885717E+02  0.37980978804E+02  0.10566000000E+00 0. -1.
         22    1    1    0    0    0 -0.17481531311E+02  0.84339817030E+01  0.18886419208E+02  0.27081964753E+02  0.00000000000E+00 0.  1.
</event>
<event>
 5    1  0.1724243E-003  0.9118800E+02  0.7818608E-02  0.1130116E+00
         25   -1    0    0    0    0  0.00000000000E+00  0.00000000000E+00  0.99999998245E-14  0.12500000000E+03  0.12500000000E+03 0.  0.
        -13    1    3    3    0    0  0.68291168227E+01  0.35833367689E+02 -0.12599006554E+02  0.38592916535E+02  0.10566000000E+00 0. -1.
         23    2    1    0    0    0 -0.10958163677E+02 -0.17064424120E+02 -0.21879119382E+02  0.95167605080E+02  0.90370909424E+02 0.  0.
         13    1    3    3    0    0 -0.17787280500E+02 -0.52897791809E+02 -0.92801128279E+01  0.56574688545E+02  0.10566000000E+00 0.  1.
         22    1    1    0    0    0  0.10958163677E+02  0.17064424120E+02  0.21879119382E+02  0.29832394920E+02  0.00000000000E+00 0.  1.
</event>
<event>
 5    1  0.1724243E-003  0.9118800E+02  0.7818608E-02  0.1130116E+00
         25   -1    0    0    0    0  0.00000000000E+00  0.00000000000E+00  0.99999998245E-14  0.12500000000E+03  0.12500000000E+03 0.  0.
        -13    1    3    3    0    0 -0.45169199540E+02 -0.19791622702E+02 -0.24694253128E+02  0.55152354599E+02  0.10566000000E+00 0.  1.
         23    2    1    0    0    0 -0.12567142481E+02  0.28016076079E+01 -0.27209749897E+02  0.94897631908E+02  0.89996710923E+02 0.  0.
         13    1    3    3    0    0  0.32602057059E+02  0.22593230310E+02 -0.25154967688E+01  0.39745277308E+02  0.10566000000E+00 0. -1.
         22    1    1    0    0    0  0.12567142481E+02 -0.28016076079E+01  0.27209749897E+02  0.30102368092E+02  0.00000000000E+00 0.  1.
</event>
<event>
 5    1  0.1724243E-003  0.9118800E+02  0.7818608E-02  0.1130116E+00
         25   -1    0    0    0    0  0.00000000000E+00  0.00000000000E+00  0.99999998245E-14  0.12500000000E+03  0.12500000000E+03 0.  0.
        -13    1    3    3    0    0 -0.30747585337E+02  0.25232651539E+02  0.29838854143E+02  0.49723928730E+02  0.10566000000E+00 0.  1.
         23    2    1    0    0    0 -0.24428219724E+02 -0.14180688803E+02  0.63147801180E+01  0.96056843612E+02  0.91592635637E+02 0.  0.
         13    1    3    3    0    0  0.63193656133E+01 -0.39413340342E+02 -0.23524074025E+02  0.46332914882E+02  0.10566000000E+00 0. -1.
         22    1    1    0    0    0  0.24428219724E+02  0.14180688803E+02 -0.63147801180E+01  0.28943156388E+02  0.00000000000E+00 0. -1.
</event>
<event>
 5    1  0.1724243E-003  0.9118800E+02  0.7818608E-02  0.1130116E+00
         25   -1    0    0    0    0  0.00000000000E+00  0.00000000000E+00  0.99999998245E-14  0.12500000000E+03  0.12500000000E+03 0.  0.
        -13    1    3    3    0    0 -0.45975728224E+02 -0.52425751047E-01  0.56676574570E+01  0.46323901383E+02  0.10566000000E+00 0. -1.
         23    2    1    0    0    0 -0.67126242523E+01  0.27812134931E+02 -0.57779644147E+01  0.95811662491E+02  0.91257414070E+02 0.  0.
         13    1    3    3    0    0  0.39263103972E+02  0.27864560682E+02 -0.11445621872E+02  0.49487761109E+02  0.10566000000E+00 0.  1.
         22    1    1    0    0    0  0.67126242523E+01 -0.27812134931E+02  0.57779644147E+01  0.29188337509E+02  0.00000000000E+00 0.  1.
</event>
<event>
 5    1  0.1724243E-003  0.9118800E+02  0.7818608E-02  0.1130116E+00
         25   -1    0    0    0    0  0.00000000000E+00  0.00000000000E+00  0.99999998245E-14  0.12500000000E+03  0.12500000000E+03 0.  0.
        -13    1    3    3    0    0  0.30698156586E+02  0.17401879483E+02  0.15081316948E+02  0.38375246087E+02  0.10566000000E+00 0.  1.
         23    2    1    0    0    0  0.47099237276E+00 -0.16769670957E+02 -0.22116898260E+02  0.97240301039E+02  0.93193751183E+02 0.  0.
         13    1    3    3    0    0 -0.30227164213E+02 -0.34171550439E+02 -0.37198215208E+02  0.58865054952E+02  0.10566000000E+00 0. -1.
         22    1    1    0    0    0 -0.47099237276E+00  0.16769670957E+02  0.22116898260E+02  0.27759698961E+02  0.00000000000E+00 0. -1.
</event>
<event>
 5    1  0.1724243E-003  0.9118800E+02  0.7818608E-02  0.1130116E+00
         25   -1    0    0    0    0  0.00000000000E+00  0.00000000000E+00  0.99999998245E-14  0.12500000000E+03  0.12500000000E+03 0.  0.
        -13    1    3    3    0    0 -0.42460313634E+02  0.52665815320E+01  0.26264394962E+02  0.50204030931E+02  0.10566000000E+00 0.  1.
         23    2    1    0    0    0 -0.43228312684E+01  0.25275897631E+02  0.16931422997E+02  0.94271658751E+02  0.89123031186E+02 0.  0.
         13    1    3    3    0    0  0.38137482366E+02  0.20009316099E+02 -0.93329719657E+01  0.44067627820E+02  0.10566000000E+00 0. -1.
         22    1    1    0    0    0  0.43228312684E+01 -0.25275897631E+02 -0.16931422997E+02  0.30728341249E+02  0.00000000000E+00 0. -1.
</event>
<event>
 5    1  0.1724243E-003  0.9118800E+02  0.7818608E-02  0.1130116E+00
         25   -1    0    0    0    0  0.00000000000E+00  0.00000000000E+00  0.99999998245E-14  0.12500000000E+03  0.12500000000E+03 0.  0.
        -13    1    3    3    0    0 -0.15218070906E+02 -0.33623471021E+02  0.27450167462E+02  0.45996199227E+02  0.10566000000E+00 0.  1.
         23    2    1    0    0    0 -0.26876221524E+02  0.78262920655E+01  0.98295148072E-01  0.97007290363E+02  0.92880690085E+02 0.  0.
         13    1    3    3    0    0 -0.11658150618E+02  0.41449763086E+02 -0.27351872314E+02  0.51011091136E+02  0.10566000000E+00 0. -1.
         22    1    1    0    0    0  0.26876221524E+02 -0.78262920655E+01 -0.98295148072E-01  0.27992709637E+02  0.00000000000E+00 0. -1.
</event>
<event>
 5    1  0.1724243E-003  0.9118800E+02  0.7818608E-02  0.1130116E+00
         25   -1    0    0    0    0  0.00000000000E+00  0.00000000000E+00  0.99999998245E-14  0.12500000000E+03  0.12500000000E+03 0.  0.
        -13    1    3    3    0    0 -0.26220910421E+02 -0.33942857261E+00 -0.27341372155E+02  0.37884207137E+02  0.10566000000E+00 0. -1.
         23    2    1    0    0    0  0.66417026950E+01  0.24835879785E+02  0.13435797083E+02  0.95992177216E+02  0.91504340357E+02 0.  0.
         13    1    3    3    0    0  0.32862613116E+02  0.25175308358E+02  0.40777169238E+02  0.58107970080E+02  0.10566000000E+00 0.  1.
         22    1    1    0    0    0 -0.66417026950E+01 -0.24835879785E+02 -0.13435797083E+02  0.29007822784E+02  0.00000000000E+00 0.  1.
</event>
<event>
 5    1  0.1724243E-003  0.9118800E+02  0.7818608E-02  0.1130116E+00
         25   -1    0    0    0    0  0.00000000000E+00  0.00000000000E+00  0.99999998245E-14  0.12500000000E+03  0.12500000000E+03 0.  0.
        -13    1    3    3    0    0 -0.95861989269E+01 -0.19145557714E+02  0.25331118357E+02  0.33168121914E+02  0.10566000000E+00 0. -1.
         23    2    1    0    0    0  0.17864013527E+02  0.18104183115E+02 -0.15783173581E+02  0.95066857936E+02  0.90231449528E+02 0.  0.
         13    1    3    3    0    0  0.27450212454E+02  0.37249740829E+02 -0.41114291938E+02  0.61898736022E+02  0.10566000000E+00 0.  1.
         22    1    1    0    0    0 -0.17864013527E+02 -0.18104183115E+02  0.15783173581E+02  0.29933142064E+02  0.00000000000E+00 0.  1.
</event>
<event>
 5    1  0.1724243E-003  0.9118800E+02  0.7818608E-02  0.1130116E+00
         25   -1    0    0    0    0  0.00000000000E+00  0.00000000000E+00  0.99999998245E-14  0.12500000000E+03  0.12500000000E+03 0.  0.
        -13    1    3    3    0    0 -0.62850203956E+01  0.56374524469E+02 -0.15752592370E+02  0.58870568376E+02  0.10566000000E+00 0.  1.
         23    2    1    0    0    0  0.54997802051E+01  0.14916592247E+02 -0.16647864901E+02  0.10198036246E+03  0.99348329709E+02 0.  0.
         13    1    3    3    0    0  0.11784800601E+02 -0.41457932222E+02 -0.89527253129E+00  0.43109794088E+02  0.10566000000E+00 0. -1.
         22    1    1    0    0    0 -0.54997802051E+01 -0.14916592247E+02  0.16647864901E+02  0.23019637537E+02  0.00000000000E+00 0.  1.
</event>
<event>
 5    1  0.1724243E-003  0.9118800E+02  0.7818608E-02  0.1130116E+00
         25   -1    0    0    0    0  0.00000000000E+00  0.00000000000E+00  0.99999998245E-14  0.12500000000E+03  0.12500000000E+03 0.  0.
        -13    1    3    3    0    0  0.29125453032E+02  0.32071353061E+02 -0.66921082271E+01  0.43836733204E+02  0.10566000000E+00 0.  1.
         23    2    1    0    0    0  0.26476108233E+02 -0.15712846133E+02 -0.11933319751E+02  0.91980582061E+02  0.85849551631E+02 0.  0.
         13    1    3    3    0    0 -0.26493447986E+01 -0.47784199194E+02 -0.52412115234E+01  0.48143848857E+02  0.10566000000E+00 0. -1.
         22    1    1    0    0    0 -0.26476108233E+02  0.15712846133E+02  0.11933319751E+02  0.33019417939E+02  0.00000000000E+00 0. -1.
</event>
<event>
 5    1  0.1724243E-003  0.9118800E+02  0.7818608E-02  0.1130116E+00
         25   -1    0    0    0    0  0.00000000000E+00  0.00000000000E+00  0.99999998245E-14  0.12500000000E+03  0.12500000000E+03 0.  0.
        -13    1    3    3    0    0 -0.12333694861E+02  0.25767447773E+02  0.53697235507E+02  0.60823397297E+02  0.10566000000E+00 0. -1.
         23    2    1    0    0    0 -0.23096334057E+01  0.20889005939E+02  0.21334466716E+02  0.95052638753E+02  0.90211749169E+02 0.  0.
         13    1    3    3    0    0  0.10024061455E+02 -0.48784418337E+01 -0.32362768791E+02  0.34229241455E+02  0.10566000000E+00 0.  1.
         22    1    1    0    0    0  0.23096334057E+01 -0.20889005939E+02 -0.21334466716E+02  0.29947361247E+02  0.00000000000E+00 0. -1.
</event>
<event>
 5    1  0.1724243E-003  0.9118800E+02  0.7818608E-02  0.1130116E+00
         25   -1    0    0    0    0  0.00000000000E+00  0.00000000000E+00  0.99999998245E-14  0.12500000000E+03  0.12500000000E+03 0.  0.
        -13    1    3    3    0    0 -0.72126318318E+01  0.43417527766E+02  0.28560921303E+02  0.52467524860E+02  0.10566000000E+00 0.  1.
         23    2    1    0    0    0 -0.19538000297E+02  0.19950596290E+01  0.20830564800E+02  0.96370886349E+02  0.92020223795E+02 0.  0.
         13    1    3    3    0    0 -0.12325368465E+02 -0.41422468137E+02 -0.77303565034E+01  0.43903361489E+02  0.10566000000E+00 0. -1.
         22    1    1    0    0    0  0.19538000297E+02 -0.19950596290E+01 -0.20830564800E+02  0.28629113651E+02  0.00000000000E+00 0.  1.
</event>
<event>
 5    1  0.1724243E-003  0.9118800E+02  0.7818608E-02  0.1130116E+00
         25   -1    0    0    0    0  0.00000000000E+00  0.00000000000E+00  0.99999998245E-14  0.12500000000E+03  0.12500000000E+03 0.  0.
        -13    1    3    3    0    0  0.20001877832E+02  0.88355462344E+01  0.24051313426E+02  0.32505673899E+02  0.10566000000E+00 0. -1.
         23    2    1    0    0    0 -0.19461995466E+02 -0.17754050120E+02 -0.15545819518E+02  0.94411635093E+02  0.89319140017E+02 0.  0.
         13    1    3    3    0    0 -0.39463873299E+02 -0.26589596354E+02 -0.39597132944E+02  0.61905961194E+02  0.10566000000E+00 0.  1.
         22    1    1    0    0    0  0.19461995466E+02  0.17754050120E+02  0.15545819518E+02  0.30588364907E+02  0.00000000000E+00 0.  1.
</event>
<event>
 5    1  0.1724243E-003  0.9118800E+02  0.7818608E-02  0.1130116E+00
         25   -1    0    0    0    0  0.00000000000E+00  0.00000000000E+00  0.99999998245E-14  0.12500000000E+03  0.12500000000E+03 0.  0.
        -13    1    3    3    0    0  0.94012855602E+01 -0.11144472821E+02  0.54284384402E+02  0.56208442413E+02  0.10566000000E+00 0.  1.
         23    2    1    0    0    0  0.21351276621E+02 -0.11802011723E+02  0.17269524282E+02  0.95110186300E+02  0.90291453500E+02 0.  0.
         13    1    3    3    0    0  0.11949991061E+02 -0.65753890255E+00 -0.37014860119E+02  0.38901743887E+02  0.10566000000E+00 0. -1.
         22    1    1    0    0    0 -0.21351276621E+02  0.11802011723E+02 -0.17269524282E+02  0.29889813700E+02  0.00000000000E+00 0.  1.
</event>
<event>
 5    1  0.1724243E-003  0.9118800E+02  0.7818608E-02  0.1130116E+00
         25   -1    0    0    0    0  0.00000000000E+00  0.00000000000E+00  0.99999998245E-14  0.12500000000E+03  0.12500000000E+03 0.  0.
        -13    1    3    3    0    0  0.24401496870E+02  0.80445081129E+01 -0.20961984909E+02  0.33159661271E+02  0.10566000000E+00 0. -1.
         23    2    1    0    0    0 -0.35674238100E+01  0.22141031507E+01  0.31673607065E+02  0.93049316910E+02  0.87391814419E+02 0.  0.
         13    1    3    3    0    0 -0.27968920680E+02 -0.58304049622E+01  0.52635591974E+02  0.59889655639E+02  0.10566000000E+00 0.  1.
         22    1    1    0    0    0  0.35674238100E+01 -0.22141031507E+01 -0.31673607065E+02  0.31950683090E+02  0.00000000000E+00 0.  1.
</event>
<event>
 5    1  0.1724243E-003  0.9118800E+02  0.7818608E-02  0.1130116E+00
         25   -1    0    0    0    0  0.00000000000E+00  0.00000000000E+00  0.99999998245E-14  0.12500000000E+03  0.12500000000E+03 0.  0.
        -13    1    3    3    0    0 -0.31605467720E+02  0.17299222200E+02  0.26803874131E+02  0.44906875988E+02  0.10566000000E+00 0. -1.
         23    2    1    0    0    0  0.24934426773E+01  0.27008335004E+02 -0.10076798591E+02  0.96065430953E+02  0.91604354363E+02 0.  0.
         13    1    3    3    0    0  0.34098910397E+02  0.97091128043E+01 -0.36880672722E+02  0.51158554965E+02  0.10566000000E+00 0.  1.
         22    1    1    0    0    0 -0.24934426773E+01 -0.27008335004E+02  0.10076798591E+02  0.28934569047E+02  0.00000000000E+00 0. -1.
</event>
<event>
 5    1  0.1724243E-003  0.9118800E+02  0.7818608E-02  0.1130116E+00
         25   -1    0    0    0    0  0.00000000000E+00  0.00000000000E+00  0.99999998245E-14  0.12500000000E+03  0.12500000000E+03 0.  0.
        -13    1    3    3    0    0 -0.39022378074E+02  0.44826802744E+02  0.15949086808E+02  0.61535134426E+02  0.10566000000E+00 0.  1.
         23    2    1    0    0    0 -0.13841925049E+02  0.27691710513E+02  0.86618843811E+01  0.92852559025E+02  0.87109929148E+02 0.  0.
         13    1    3    3    0    0  0.25180453025E+02 -0.17135092231E+02 -0.72872024272E+01  0.31317424599E+02  0.10566000000E+00 0. -1.
         22    1    1    0    0    0  0.13841925049E+02 -0.27691710513E+02 -0.86618843811E+01  0.32147440975E+02  0.00000000000E+00 0.  1.
</event>
<event>
 5    1  0.1724243E-003  0.9118800E+02  0.7818608E-02  0.1130116E+00
         25   -1    0    0    0    0  0.00000000000E+00  0.00000000000E+00  0.99999998245E-14  0.12500000000E+03  0.12500000000E+03 0.  0.
        -13    1    3    3    0    0  0.22055721141E+02  0.46673664582E+02  0.18897653268E+02  0.54972886623E+02  0.10566000000E+00 0.  1.
         23    2    1    0    0    0  0.27470025013E+02  0.91170698520E+01  0.38124312842E+01  0.95806544069E+02  0.91250402834E+02 0.  0.
         13    1    3    3    0    0  0.54143038719E+01 -0.37556594730E+02 -0.15085221983E+02  0.40833657446E+02  0.10566000000E+00 0. -1.
         22    1    1    0    0    0 -0.27470025013E+02 -0.91170698520E+01 -0.38124312842E+01  0.29193455931E+02  0.00000000000E+00 0.  1.
</event>
<event>
 5    1  0.1724243E-003  0.9118800E+02  0.7818608E-02  0.1130116E+00
         25   -1    0    0    0    0  0.00000000000E+00  0.00000000000E+00  0.99999998245E-14  0.12500000000E+03  0.12500000000E+03 0.  0.
        -13    1    3    3    0    0 -0.34372611950E+02 -0.18560067624E+02 -0.57853714837E+01  0.39489672697E+02  0.10566000000E+00 0.  1.
         23    2    1    0    0    0 -0.57839897595E+01  0.23890325322E+02  0.16587974591E+02  0.95345943236E+02  0.90617248960E+02 0.  0.
         13    1    3    3    0    0  0.28588622190E+02  0.42450392946E+02  0.22373346075E+02  0.55856270540E+02  0.10566000000E+00 0. -1.
         22    1    1    0    0    0  0.57839897595E+01 -0.23890325322E+02 -0.16587974591E+02  0.29654056764E+02  0.00000000000E+00 0. -1.
</event>
<event>
 5    1  0.1724243E-003  0.9118800E+02  0.7818608E-02  0.1130116E+00
         25   -1    0    0    0    0  0.00000000000E+00  0.00000000000E+00  0.99999998245E-14  0.12500000000E+03  0.12500000000E+03 0.  0.
        -13    1    3    3    0    0 -0.11047484851E+02 -0.59470919889E+02 -0.12915700413E+02  0.61851949971E+02  0.10566000000E+00 0. -1.
         23    2    1    0    0    0 -0.11748165554E+02 -0.31804618426E+02 -0.98292905460E+01  0.89698893789E+02  0.82460435647E+02 0.  0.
         13    1    3    3    0    0 -0.70068070362E+00  0.27666301463E+02  0.30864098669E+01  0.27846943818E+02  0.10566000000E+00 0.  1.
         22    1    1    0    0    0  0.11748165554E+02  0.31804618426E+02  0.98292905460E+01  0.35301106211E+02  0.00000000000E+00 0. -1.
</event>
<event>
 5    1  0.1724243E-003  0.9118800E+02  0.7818608E-02  0.1130116E+00
         25   -1    0    0    0    0  0.00000000000E+00  0.00000000000E+00  0.99999998245E-14  0.12500000000E+03  0.12500000000E+03 0.  0.
        -13    1    3    3    0    0  0.16781489620E+02  0.20553232615E+02  0.28411742168E+02  0.38875339508E+02  0.10566000000E+00 0. -1.
         23    2    1    0    0    0 -0.19394782727E+02  0.17931766424E+02 -0.14343005240E+02  0.94942926899E+02  0.90059600958E+02 0.  0.
         13    1    3    3    0    0 -0.36176272347E+02 -0.26214661915E+01 -0.42754747408E+02  0.56067587391E+02  0.10566000000E+00 0.  1.
         22    1    1    0    0    0  0.19394782727E+02 -0.17931766424E+02  0.14343005240E+02  0.30057073101E+02  0.00000000000E+00 0.  1.
</event>
<event>
 5    1  0.1724243E-003  0.9118800E+02  0.7818608E-02  0.1130116E+00
         25   -1    0    0    0    0  0.00000000000E+00  0.00000000000E+00  0.99999998245E-14  0.12500000000E+03  0.12500000000E+03 0.  0.
        -13    1    3    3    0    0  0.33555059489E+02 -0.11673530566E+02  0.18799648065E+02  0.40195164691E+02  0.10566000000E+00 0. -1.
         23    2    1    0    0    0 -0.15761693199E+02  0.15225652053E+02  0.18420026868E+02  0.96372236504E+02  0.92022057824E+02 0.  0.
         13    1    3    3    0    0 -0.49316752688E+02  0.26899182619E+02 -0.37962119695E+00  0.56177071813E+02  0.10566000000E+00 0.  1.
         22    1    1    0    0    0  0.15761693199E+02 -0.15225652053E+02 -0.18420026868E+02  0.28627763496E+02  0.00000000000E+00 0.  1.
</event>
<event>
 5    1  0.1724243E-003  0.9118800E+02  0.7818608E-02  0.1130116E+00
         25   -1    0    0    0    0  0.00000000000E+00  0.00000000000E+00  0.99999998245E-14  0.12500000000E+03  0.12500000000E+03 0.  0.
        -13    1    3    3    0    0 -0.80312177298E+01  0.12196528124E+02 -0.51361571919E+02  0.53397359396E+02  0.10566000000E+00 0. -1.
         23    2    1    0    0    0 -0.26048071508E+02  0.10870124432E+02 -0.17463301255E+02  0.91809210236E+02  0.85599664479E+02 0.  0.
         13    1    3    3    0    0 -0.18016853779E+02 -0.13264036925E+01  0.33898270664E+02  0.38411850839E+02  0.10566000000E+00 0.  1.
         22    1    1    0    0    0  0.26048071508E+02 -0.10870124432E+02  0.17463301255E+02  0.33190789764E+02  0.00000000000E+00 0. -1.
</event>
<event>
 5    1  0.1724243E-003  0.9118800E+02  0.7818608E-02  0.1130116E+00
         25   -1    0    0    0    0  0.00000000000E+00  0.00000000000E+00  0.99999998245E-14  0.12500000000E+03  0.12500000000E+03 0.  0.
        -13    1    3    3    0    0  0.30243253376E+02  0.16741276893E+02 -0.16046585149E+02  0.38110743705E+02  0.10566000000E+00 0.  1.
         23    2    1    0    0    0 -0.18493697022E+02 -0.12496551780E+02 -0.19929068372E+02  0.95077627064E+02  0.90246367052E+02 0.  0.
         13    1    3    3    0    0 -0.48736950398E+02 -0.29237828673E+02 -0.38824832227E+01  0.56966883359E+02  0.10566000000E+00 0. -1.
         22    1    1    0    0    0  0.18493697022E+02  0.12496551780E+02  0.19929068372E+02  0.29922372936E+02  0.00000000000E+00 0. -1.
</event>
<event>
 5    1  0.1724243E-003  0.9118800E+02  0.7818608E-02  0.1130116E+00
         25   -1    0    0    0    0  0.00000000000E+00  0.00000000000E+00  0.99999998245E-14  0.12500000000E+03  0.12500000000E+03 0.  0.
        -13    1    3    3    0    0  0.16901523386E+02  0.79560525309E-01  0.30315658903E+02  0.34709050137E+02  0.10566000000E+00 0.  1.
         23    2    1    0    0    0 -0.25714807878E+02  0.22042443459E+02  0.57797639038E+00  0.91125899059E+02  0.84595950050E+02 0.  0.
         13    1    3    3    0    0 -0.42616331264E+02  0.21962882933E+02 -0.29737682513E+02  0.56416848923E+02  0.10566000000E+00 0. -1.
         22    1    1    0    0    0  0.25714807878E+02 -0.22042443459E+02 -0.57797639038E+00  0.33874100941E+02  0.00000000000E+00 0.  1.
</event>
<event>
 5    1  0.1724243E-003  0.9118800E+02  0.7818608E-02  0.1130116E+00
         25   -1    0    0    0    0  0.00000000000E+00  0.00000000000E+00  0.99999998245E-14  0.12500000000E+03  0.12500000000E+03 0.  0.
        -13    1    3    3    0    0  0.21807620818E+02 -0.19575625898E+02  0.32800994561E+02  0.43985155033E+02  0.10566000000E+00 0. -1.
         23    2    1    0    0    0  0.28409718818E+02  0.16245719929E+02  0.11292627587E+01  0.92253843375E+02  0.86246512067E+02 0.  0.
         13    1    3    3    0    0  0.66020980004E+01  0.35821345827E+02 -0.31671731802E+02  0.48268688342E+02  0.10566000000E+00 0.  1.
         22    1    1    0    0    0 -0.28409718818E+02 -0.16245719929E+02 -0.11292627587E+01  0.32746156625E+02  0.00000000000E+00 0.  1.
</event>
<event>
 5    1  0.1724243E-003  0.9118800E+02  0.7818608E-02  0.1130116E+00
         25   -1    0    0    0    0  0.00000000000E+00  0.00000000000E+00  0.99999998245E-14  0.12500000000E+03  0.12500000000E+03 0.  0.
        -13    1    3    3    0    0 -0.16974107641E+02  0.33056702670E+02  0.38634665448E+02  0.53605171952E+02  0.10566000000E+00 0. -1.
         23    2    1    0    0    0 -0.11654690390E+02 -0.66341851020E+01  0.26250634940E+02  0.95522210822E+02  0.90860072119E+02 0.  0.
         13    1    3    3    0    0  0.53194172508E+01 -0.39690887772E+02 -0.12384030508E+02  0.41917038871E+02  0.10566000000E+00 0.  1.
         22    1    1    0    0    0  0.11654690390E+02  0.66341851020E+01 -0.26250634940E+02  0.29477789178E+02  0.00000000000E+00 0. -1.
</event>
<event>
 5    1  0.1724243E-003  0.9118800E+02  0.7818608E-02  0.1130116E+00
         25   -1    0    0    0    0  0.00000000000E+00  0.00000000000E+00  0.99999998245E-14  0.12500000000E+03  0.12500000000E+03 0.  0.
        -13    1    3    3    0    0 -0.13821185658E+02  0.11006106039E+02 -0.32419496872E+02  0.36921463739E+02  0.10566000000E+00 0.  1.
         23    2    1    0    0    0  0.26667346651E+02  0.94477601631E+01  0.94359751205E+01  0.95176432541E+02  0.90383118641E+02 0.  0.
         13    1    3    3    0    0  0.40488532309E+02 -0.15583458759E+01  0.41855471993E+02  0.58254968802E+02  0.10566000000E+00 0. -1.
         22    1    1    0    0    0 -0.26667346651E+02 -0.94477601631E+01 -0.94359751205E+01  0.29823567459E+02  0.00000000000E+00 0. -1.
</event>
<event>
 5    1  0.1724243E-003  0.9118800E+02  0.7818608E-02  0.1130116E+00
         25   -1    0    0    0    0  0.00000000000E+00  0.00000000000E+00  0.99999998245E-14  0.12500000000E+03  0.12500000000E+03 0.  0.
        -13    1    3    3    0    0  0.52235598279E+02 -0.13583476680E+02  0.11617422574E+02  0.55209095606E+02  0.10566000000E+00 0.  1.
         23    2    1    0    0    0  0.14428679358E+02 -0.25344278228E+02  0.34956025143E+01  0.95627590091E+02  0.91004931310E+02 0.  0.
         13    1    3    3    0    0 -0.37806918921E+02 -0.11760801548E+02 -0.81218200600E+01  0.40418494485E+02  0.10566000000E+00 0. -1.
         22    1    1    0    0    0 -0.14428679358E+02  0.25344278228E+02 -0.34956025143E+01  0.29372409909E+02  0.00000000000E+00 0.  1.
</event>
<event>
 5    1  0.1724243E-003  0.9118800E+02  0.7818608E-02  0.1130116E+00
         25   -1    0    0    0    0  0.00000000000E+00  0.00000000000E+00  0.99999998245E-14  0.12500000000E+03  0.12500000000E+03 0.  0.
        -13    1    3    3    0    0  0.10649678361E+02 -0.32706058353E+02  0.13991108122E+02  0.37133060373E+02  0.10566000000E+00 0. -1.
         23    2    1    0    0    0 -0.17301437652E+02  0.47721646503E+01 -0.22340279309E+02  0.96343388548E+02  0.91982863279E+02 0.  0.
         13    1    3    3    0    0 -0.27951116013E+02  0.37478223003E+02 -0.36331387432E+02  0.59210328175E+02  0.10566000000E+00 0.  1.
         22    1    1    0    0    0  0.17301437652E+02 -0.47721646503E+01  0.22340279309E+02  0.28656611452E+02  0.00000000000E+00 0.  1.
</event>
<event>
 5    1  0.1724243E-003  0.9118800E+02  0.7818608E-02  0.1130116E+00
         25   -1    0    0    0    0  0.00000000000E+00  0.00000000000E+00  0.99999998245E-14  0.12500000000E+03  0.12500000000E+03 0.  0.
        -13    1    3    3    0    0  0.55583116441E+02 -0.39505428121E+01 -0.47663240328E+01  0.55926904354E+02  0.10566000000E+00 0.  1.
         23    2    1    0    0    0  0.22171088725E+02  0.18096486715E+02  0.96033934767E+00  0.96365016879E+02  0.92012250379E+02 0.  0.
         13    1    3    3    0    0 -0.33412027717E+02  0.22047029527E+02  0.57266633804E+01  0.40438112525E+02  0.10566000000E+00 0. -1.
         22    1    1    0    0    0 -0.22171088725E+02 -0.18096486715E+02 -0.96033934767E+00  0.28634983121E+02  0.00000000000E+00 0.  1.
</event>
<event>
 5    1  0.1724243E-003  0.9118800E+02  0.7818608E-02  0.1130116E+00
         25   -1    0    0    0    0  0.00000000000E+00  0.00000000000E+00  0.99999998245E-14  0.12500000000E+03  0.12500000000E+03 0.  0.
        -13    1    3    3    0    0  0.21739693856E+02 -0.11591126986E+01 -0.30797945374E+02  0.37715811466E+02  0.10566000000E+00 0. -1.
         23    2    1    0    0    0 -0.55906800317E+01  0.80078570798E+01  0.23699099365E+02  0.99367427188E+02  0.96004462381E+02 0.  0.
         13    1    3    3    0    0 -0.27330373888E+02  0.91669697785E+01  0.54497044740E+02  0.61651615722E+02  0.10566000000E+00 0.  1.
         22    1    1    0    0    0  0.55906800317E+01 -0.80078570798E+01 -0.23699099365E+02  0.25632572812E+02  0.00000000000E+00 0.  1.
</event>
<event>
 5    1  0.1724243E-003  0.9118800E+02  0.7818608E-02  0.1130116E+00
         25   -1    0    0    0    0  0.00000000000E+00  0.00000000000E+00  0.99999998245E-14  0.12500000000E+03  0.12500000000E+03 0.  0.
        -13    1    3    3    0    0  0.32556801326E+02  0.30881997530E+02  0.37554592537E+02  0.58514969612E+02  0.10566000000E+00 0.  1.
         23    2    1    0    0    0  0.60893456563E+01  0.87675723427E+01  0.29067744471E+02  0.94034144224E+02  0.88789278948E+02 0.  0.
         13    1    3    3    0    0 -0.26467455670E+02 -0.22114425187E+02 -0.84868480666E+01  0.35519174612E+02  0.10566000000E+00 0. -1.
         22    1    1    0    0    0 -0.60893456563E+01 -0.87675723427E+01 -0.29067744471E+02  0.30965855776E+02  0.00000000000E+00 0.  1.
</event>
<event>
 5    1  0.1724243E-003  0.9118800E+02  0.7818608E-02  0.1130116E+00
         25   -1    0    0    0    0  0.00000000000E+00  0.00000000000E+00  0.99999998245E-14  0.12500000000E+03  0.12500000000E+03 0.  0.
        -13    1    3    3    0    0  0.20170707787E+02 -0.29492421484E+02  0.53849343479E+01  0.36134042945E+02  0.10566000000E+00 0. -1.
         23    2    1    0    0    0 -0.22434933788E+02  0.14313561280E+02  0.77322206029E+01  0.97287339968E+02  0.93256822764E+02 0.  0.
         13    1    3    3    0    0 -0.42605641575E+02  0.43805982764E+02  0.23472862550E+01  0.61153297023E+02  0.10566000000E+00 0.  1.
         22    1    1    0    0    0  0.22434933788E+02 -0.14313561280E+02 -0.77322206029E+01  0.27712660032E+02  0.00000000000E+00 0.  1.
</event>
<event>
 5    1  0.1724243E-003  0.9118800E+02  0.7818608E-02  0.1130116E+00
         25   -1    0    0    0    0  0.00000000000E+00  0.00000000000E+00  0.99999998245E-14  0.12500000000E+03  0.12500000000E+03 0.  0.
        -13    1    3    3    0    0  0.23650928231E+02 -0.10421052749E+02 -0.35634819039E+01  0.26089735796E+02  0.10566000000E+00 0.  1.
         23    2    1    0    0    0 -0.10708297315E+02 -0.22363996713E+02 -0.40232329505E+02  0.77740542558E+02  0.61726296175E+02 0.  0.
         13    1    3    3    0    0 -0.34359225547E+02 -0.11942943964E+02 -0.36668847601E+02  0.51650806762E+02  0.10566000000E+00 0. -1.
         22    1    1    0    0    0  0.10708297315E+02  0.22363996713E+02  0.40232329505E+02  0.47259457442E+02  0.00000000000E+00 0. -1.
</event>
<event>
 5    1  0.1724243E-003  0.9118800E+02  0.7818608E-02  0.1130116E+00
         25   -1    0    0    0    0  0.00000000000E+00  0.00000000000E+00  0.99999998245E-14  0.12500000000E+03  0.12500000000E+03 0.  0.
        -13    1    3    3    0    0  0.47648559465E+02  0.12118843007E+02  0.27458063965E+02  0.56313479875E+02  0.10566000000E+00 0.  1.
         23    2    1    0    0    0  0.11351360539E+02  0.20102834645E+02  0.20502791768E+02  0.94123766144E+02  0.88915361642E+02 0.  0.
         13    1    3    3    0    0 -0.36297198926E+02  0.79839916377E+01 -0.69552721965E+01  0.37810286268E+02  0.10566000000E+00 0. -1.
         22    1    1    0    0    0 -0.11351360539E+02 -0.20102834645E+02 -0.20502791768E+02  0.30876233856E+02  0.00000000000E+00 0.  1.
</event>
<event>
 5    1  0.1724243E-003  0.9118800E+02  0.7818608E-02  0.1130116E+00
         25   -1    0    0    0    0  0.00000000000E+00  0.00000000000E+00  0.99999998245E-14  0.12500000000E+03  0.12500000000E+03 0.  0.
        -13    1    3    3    0    0  0.52936456393E+02 -0.61564253417E+01  0.26735904191E+02  0.59623734581E+02  0.10566000000E+00 0.  1.
         23    2    1    0    0    0  0.19806625471E+02 -0.94120757163E+01  0.23160688496E+02  0.93104748418E+02  0.87471064385E+02 0.  0.
         13    1    3    3    0    0 -0.33129830922E+02 -0.32556503746E+01 -0.35752156955E+01  0.33481013837E+02  0.10566000000E+00 0. -1.
         22    1    1    0    0    0 -0.19806625471E+02  0.94120757163E+01 -0.23160688496E+02  0.31895251582E+02  0.00000000000E+00 0.  1.
</event>
<event>
 5    1  0.1724243E-003  0.9118800E+02  0.7818608E-02  0.1130116E+00
         25   -1    0    0    0    0  0.00000000000E+00  0.00000000000E+00  0.99999998245E-14  0.12500000000E+03  0.12500000000E+03 0.  0.
        -13    1    3    3    0    0 -0.29400754073E+02 -0.38107419173E+02  0.33760645248E+02  0.58790918242E+02  0.10566000000E+00 0. -1.
         23    2    1    0    0    0 -0.65033060469E+01 -0.27885316997E+02  0.68808077613E+01  0.95551240960E+02  0.90900001320E+02 0.  0.
         13    1    3    3    0    0  0.22897448026E+02  0.10222102177E+02 -0.26879837487E+02  0.36760322718E+02  0.10566000000E+00 0.  1.
         22    1    1    0    0    0  0.65033060469E+01  0.27885316997E+02 -0.68808077613E+01  0.29448759040E+02  0.00000000000E+00 0. -1.
</event>
<event>
 5    1  0.1724243E-003  0.9118800E+02  0.7818608E-02  0.1130116E+00
         25   -1    0    0    0    0  0.00000000000E+00  0.00000000000E+00  0.99999998245E-14  0.12500000000E+03  0.12500000000E+03 0.  0.
        -13    1    3    3    0    0 -0.26155027760E+02  0.13809432443E+02 -0.25786868529E+02  0.39239771331E+02  0.10566000000E+00 0.  1.
         23    2    1    0    0    0  0.26286219694E+02  0.11768666047E+02 -0.46073997741E+01  0.95833324169E+02  0.91287080369E+02 0.  0.
         13    1    3    3    0    0  0.52441247454E+02 -0.20407663962E+01  0.21179468755E+02  0.56593552838E+02  0.10566000000E+00 0. -1.
         22    1    1    0    0    0 -0.26286219694E+02 -0.11768666047E+02  0.46073997741E+01  0.29166675831E+02  0.00000000000E+00 0. -1.
</event>
<event>
 5    1  0.1724243E-003  0.9118800E+02  0.7818608E-02  0.1130116E+00
         25   -1    0    0    0    0  0.00000000000E+00  0.00000000000E+00  0.99999998245E-14  0.12500000000E+03  0.12500000000E+03 0.  0.
        -13    1    3    3    0    0  0.22487611088E+02 -0.25905337059E+01  0.52774872596E+02  0.57424749532E+02  0.10566000000E+00 0. -1.
         23    2    1    0    0    0  0.14587112157E+02 -0.18359418866E+02  0.22272744644E+02  0.92659201368E+02  0.86832023713E+02 0.  0.
         13    1    3    3    0    0 -0.79004989309E+01 -0.15768885160E+02 -0.30502127952E+02  0.35234451836E+02  0.10566000000E+00 0.  1.
         22    1    1    0    0    0 -0.14587112157E+02  0.18359418866E+02 -0.22272744644E+02  0.32340798632E+02  0.00000000000E+00 0. -1.
</event>
<event>
 5    1  0.1724243E-003  0.9118800E+02  0.7818608E-02  0.1130116E+00
         25   -1    0    0    0    0  0.00000000000E+00  0.00000000000E+00  0.99999998245E-14  0.12500000000E+03  0.12500000000E+03 0.  0.
        -13    1    3    3    0    0  0.35562519308E+02  0.85176770251E+01  0.91769669076E+01  0.37702406914E+02  0.10566000000E+00 0.  1.
         23    2    1    0    0    0 -0.22467552424E+02  0.89449547327E+01  0.15803648562E+02  0.96111274951E+02  0.91666890084E+02 0.  0.
         13    1    3    3    0    0 -0.58030071733E+02  0.42727770756E+00  0.66266816543E+01  0.58408868037E+02  0.10566000000E+00 0. -1.
         22    1    1    0    0    0  0.22467552424E+02 -0.89449547327E+01 -0.15803648562E+02  0.28888725049E+02  0.00000000000E+00 0. -1.
</event>
<event>
 5    1  0.1724243E-003  0.9118800E+02  0.7818608E-02  0.1130116E+00
         25   -1    0    0    0    0  0.00000000000E+00  0.00000000000E+00  0.99999998245E-14  0.12500000000E+03  0.12500000000E+03 0.  0.
        -13    1    3    3    0    0 -0.29379672148E+02  0.37730741931E+02  0.19044653883E+02  0.51473138895E+02  0.10566000000E+00 0. -1.
         23    2    1    0    0    0 -0.25782974593E+02  0.78310929003E+01 -0.12683631889E+02  0.95218087490E+02  0.90440709155E+02 0.  0.
         13    1    3    3    0    0  0.35966975551E+01 -0.29899649030E+02 -0.31728285772E+02  0.43744948594E+02  0.10566000000E+00 0.  1.
         22    1    1    0    0    0  0.25782974593E+02 -0.78310929003E+01  0.12683631889E+02  0.29781912510E+02  0.00000000000E+00 0. -1.
</event>
<event>
 5    1  0.1724243E-003  0.9118800E+02  0.7818608E-02  0.1130116E+00
         25   -1    0    0    0    0  0.00000000000E+00  0.00000000000E+00  0.99999998245E-14  0.12500000000E+03  0.12500000000E+03 0.  0.
        -13    1    3    3    0    0 -0.30171459426E+02  0.22904310740E+02 -0.50619281905E+01  0.38217256513E+02  0.10566000000E+00 0. -1.
         23    2    1    0    0    0  0.11587351985E+02 -0.19730346291E+01  0.26388429683E+02  0.96112133813E+02  0.91668061250E+02 0.  0.
         13    1    3    3    0    0  0.41758811412E+02 -0.24877345369E+02  0.31450357874E+02  0.57894877300E+02  0.10566000000E+00 0.  1.
         22    1    1    0    0    0 -0.11587351985E+02  0.19730346291E+01 -0.26388429683E+02  0.28887866187E+02  0.00000000000E+00 0.  1.
</event>
<event>
 5    1  0.1724243E-003  0.9118800E+02  0.7818608E-02  0.1130116E+00
         25   -1    0    0    0    0  0.00000000000E+00  0.00000000000E+00  0.99999998245E-14  0.12500000000E+03  0.12500000000E+03 0.  0.
        -13    1    3    3    0    0  0.30920778155E+02  0.27510747151E+02 -0.19297373548E+02  0.45665474051E+02  0.10566000000E+00 0. -1.
         23    2    1    0    0    0  0.22101049140E+02 -0.19138240678E+02 -0.43243628654E+01  0.95446172100E+02  0.90755402181E+02 0.  0.
         13    1    3    3    0    0 -0.88197290147E+01 -0.46648987828E+02  0.14973010682E+02  0.49780698049E+02  0.10566000000E+00 0.  1.
         22    1    1    0    0    0 -0.22101049140E+02  0.19138240678E+02  0.43243628654E+01  0.29553827900E+02  0.00000000000E+00 0.  1.
</event>
<event>
 5    1  0.1724243E-003  0.9118800E+02  0.7818608E-02  0.1130116E+00
         25   -1    0    0    0    0  0.00000000000E+00  0.00000000000E+00  0.99999998245E-14  0.12500000000E+03  0.12500000000E+03 0.  0.
        -13    1    3    3    0    0  0.27169868495E+02 -0.18591395582E+02 -0.23391977450E+02  0.40386105492E+02  0.10566000000E+00 0. -1.
         23    2    1    0    0    0  0.33793797126E+01  0.28227218479E+02 -0.43919402056E+01  0.96233957361E+02  0.91834031493E+02 0.  0.
         13    1    3    3    0    0 -0.23790488782E+02  0.46818614061E+02  0.19000037245E+02  0.55847851870E+02  0.10566000000E+00 0.  1.
         22    1    1    0    0    0 -0.33793797126E+01 -0.28227218479E+02  0.43919402056E+01  0.28766042639E+02  0.00000000000E+00 0.  1.
</event>
<event>
 5    1  0.1724243E-003  0.9118800E+02  0.7818608E-02  0.1130116E+00
         25   -1    0    0    0    0  0.00000000000E+00  0.00000000000E+00  0.99999998245E-14  0.12500000000E+03  0.12500000000E+03 0.  0.
        -13    1    3    3    0    0  0.35919966999E+02  0.39209194386E+02  0.97769946730E+01  0.54066678671E+02  0.10566000000E+00 0. -1.
         23    2    1    0    0    0  0.32104316164E+02  0.22212770325E+01 -0.10710470999E+01  0.92801112909E+02  0.87036074287E+02 0.  0.
         13    1    3    3    0    0 -0.38156508352E+01 -0.36987917353E+02 -0.10848041773E+02  0.38734434238E+02  0.10566000000E+00 0.  1.
         22    1    1    0    0    0 -0.32104316164E+02 -0.22212770325E+01  0.10710470999E+01  0.32198887091E+02  0.00000000000E+00 0. -1.
</event>
<event>
 5    1  0.1724243E-003  0.9118800E+02  0.7818608E-02  0.1130116E+00
         25   -1    0    0    0    0  0.00000000000E+00  0.00000000000E+00  0.99999998245E-14  0.12500000000E+03  0.12500000000E+03 0.  0.
        -13    1    3    3    0    0 -0.31696120269E+02 -0.15511645336E+02 -0.10754155274E+02  0.36890624837E+02  0.10566000000E+00 0. -1.
         23    2    1    0    0    0  0.25975889905E+02 -0.13187362469E+02  0.12374676015E+01  0.95842072925E+02  0.91299059312E+02 0.  0.
         13    1    3    3    0    0  0.57672010175E+02  0.23242828668E+01  0.11991622876E+02  0.58951448088E+02  0.10566000000E+00 0.  1.
         22    1    1    0    0    0 -0.25975889905E+02  0.13187362469E+02 -0.12374676015E+01  0.29157927075E+02  0.00000000000E+00 0.  1.
</event>
<event>
 5    1  0.1724243E-003  0.9118800E+02  0.7818608E-02  0.1130116E+00
         25   -1    0    0    0    0  0.00000000000E+00  0.00000000000E+00  0.99999998245E-14  0.12500000000E+03  0.12500000000E+03 0.  0.
        -13    1    3    3    0    0  0.19655814397E+02  0.28524421597E+02 -0.15926905559E+01  0.34677680060E+02  0.10566000000E+00 0.  1.
         23    2    1    0    0    0 -0.28979484440E+01 -0.27573204576E+02  0.85548238905E+01  0.95985094734E+02  0.91494664782E+02 0.  0.
         13    1    3    3    0    0 -0.22553762841E+02 -0.56097626173E+02  0.10147514446E+02  0.61307414675E+02  0.10566000000E+00 0. -1.
         22    1    1    0    0    0  0.28979484440E+01  0.27573204576E+02 -0.85548238905E+01  0.29014905266E+02  0.00000000000E+00 0. -1.
</event>
<event>
 5    1  0.1724243E-003  0.9118800E+02  0.7818608E-02  0.1130116E+00
         25   -1    0    0    0    0  0.00000000000E+00  0.00000000000E+00  0.99999998245E-14  0.12500000000E+03  0.12500000000E+03 0.  0.
        -13    1    3    3    0    0  0.51103391569E+02 -0.15073456025E+02  0.62702350037E+01  0.53647858460E+02  0.10566000000E+00 0. -1.
         23    2    1    0    0    0  0.16165299152E+02  0.50252807105E+01  0.22280519033E+02  0.97018008089E+02  0.92895113017E+02 0.  0.
         13    1    3    3    0    0 -0.34938092417E+02  0.20098736735E+02  0.16010284030E+02  0.43370149629E+02  0.10566000000E+00 0.  1.
         22    1    1    0    0    0 -0.16165299152E+02 -0.50252807105E+01 -0.22280519033E+02  0.27981991911E+02  0.00000000000E+00 0. -1.
</event>
<event>
 5    1  0.1724243E-003  0.9118800E+02  0.7818608E-02  0.1130116E+00
         25   -1    0    0    0    0  0.00000000000E+00  0.00000000000E+00  0.99999998245E-14  0.12500000000E+03  0.12500000000E+03 0.  0.
        -13    1    3    3    0    0  0.19515454986E+02  0.44593344254E+02  0.11253774370E+02  0.49960763972E+02  0.10566000000E+00 0. -1.
         23    2    1    0    0    0 -0.14297094025E+02  0.24006412466E+02 -0.10523972440E+02  0.95142526346E+02  0.90336214148E+02 0.  0.
         13    1    3    3    0    0 -0.33812549011E+02 -0.20586931788E+02 -0.21777746810E+02  0.45181762374E+02  0.10566000000E+00 0.  1.
         22    1    1    0    0    0  0.14297094025E+02 -0.24006412466E+02  0.10523972440E+02  0.29857473654E+02  0.00000000000E+00 0.  1.
</event>
<event>
 5    1  0.1724243E-003  0.9118800E+02  0.7818608E-02  0.1130116E+00
         25   -1    0    0    0    0  0.00000000000E+00  0.00000000000E+00  0.99999998245E-14  0.12500000000E+03  0.12500000000E+03 0.  0.
        -13    1    3    3    0    0 -0.24800183513E+02 -0.43016659373E+02 -0.24473491277E+02  0.55357429720E+02  0.10566000000E+00 0.  1.
         23    2    1    0    0    0 -0.26059720377E+02 -0.46268501973E+01 -0.66039696476E+01  0.97721268651E+02  0.93836651490E+02 0.  0.
         13    1    3    3    0    0 -0.12595368638E+01  0.38389809176E+02  0.17869521629E+02  0.42363838931E+02  0.10566000000E+00 0. -1.
         22    1    1    0    0    0  0.26059720377E+02  0.46268501973E+01  0.66039696476E+01  0.27278731349E+02  0.00000000000E+00 0.  1.
</event>
<event>
 5    1  0.1724243E-003  0.9118800E+02  0.7818608E-02  0.1130116E+00
         25   -1    0    0    0    0  0.00000000000E+00  0.00000000000E+00  0.99999998245E-14  0.12500000000E+03  0.12500000000E+03 0.  0.
        -13    1    3    3    0    0  0.50677265015E+02 -0.15896003670E+02 -0.27338616568E+02  0.59735075475E+02  0.10566000000E+00 0.  1.
         23    2    1    0    0    0  0.26012929279E+02  0.24837462942E+01 -0.35321772141E+01  0.98631121351E+02  0.95040940324E+02 0.  0.
         13    1    3    3    0    0 -0.24664335736E+02  0.18379749964E+02  0.23806439354E+02  0.38896045876E+02  0.10566000000E+00 0. -1.
         22    1    1    0    0    0 -0.26012929279E+02 -0.24837462942E+01  0.35321772141E+01  0.26368878649E+02  0.00000000000E+00 0.  1.
</event>
<event>
 5    1  0.1724243E-003  0.9118800E+02  0.7818608E-02  0.1130116E+00
         25   -1    0    0    0    0  0.00000000000E+00  0.00000000000E+00  0.99999998245E-14  0.12500000000E+03  0.12500000000E+03 0.  0.
        -13    1    3    3    0    0  0.32945659756E+02  0.32929720408E+02  0.39508935707E+02  0.61079866958E+02  0.10566000000E+00 0.  1.
         23    2    1    0    0    0  0.11474867570E+02  0.23064088319E+02  0.14703985374E+02  0.95338038811E+02  0.90606344715E+02 0.  0.
         13    1    3    3    0    0 -0.21470792186E+02 -0.98656320887E+01 -0.24804950334E+02  0.34258171853E+02  0.10566000000E+00 0. -1.
         22    1    1    0    0    0 -0.11474867570E+02 -0.23064088319E+02 -0.14703985374E+02  0.29661961189E+02  0.00000000000E+00 0.  1.
</event>
<event>
 5    1  0.1724243E-003  0.9118800E+02  0.7818608E-02  0.1130116E+00
         25   -1    0    0    0    0  0.00000000000E+00  0.00000000000E+00  0.99999998245E-14  0.12500000000E+03  0.12500000000E+03 0.  0.
        -13    1    3    3    0    0 -0.23148069705E+01 -0.36405666242E+02 -0.46011668455E+01  0.36768366380E+02  0.10566000000E+00 0. -1.
         23    2    1    0    0    0  0.90802996676E+01  0.56078792325E+00  0.33032535846E+02  0.90737560659E+02  0.84020177129E+02 0.  0.
         13    1    3    3    0    0  0.11395106638E+02  0.36966454165E+02  0.37633702692E+02  0.53969194280E+02  0.10566000000E+00 0.  1.
         22    1    1    0    0    0 -0.90802996676E+01 -0.56078792325E+00 -0.33032535846E+02  0.34262439341E+02  0.00000000000E+00 0.  1.
</event>
<event>
 5    1  0.1724243E-003  0.9118800E+02  0.7818608E-02  0.1130116E+00
         25   -1    0    0    0    0  0.00000000000E+00  0.00000000000E+00  0.99999998245E-14  0.12500000000E+03  0.12500000000E+03 0.  0.
        -13    1    3    3    0    0 -0.11300606690E+02 -0.20713612252E+02 -0.33306629344E+02  0.40817890273E+02  0.10566000000E+00 0.  1.
         23    2    1    0    0    0  0.11412502848E+02  0.24325167369E+02 -0.11306038815E+02  0.95848919360E+02  0.91308432469E+02 0.  0.
         13    1    3    3    0    0  0.22713109538E+02  0.45038779621E+02  0.22000590529E+02  0.55031029086E+02  0.10566000000E+00 0. -1.
         22    1    1    0    0    0 -0.11412502848E+02 -0.24325167369E+02  0.11306038815E+02  0.29151080640E+02  0.00000000000E+00 0. -1.
</event>
<event>
 5    1  0.1724243E-003  0.9118800E+02  0.7818608E-02  0.1130116E+00
         25   -1    0    0    0    0  0.00000000000E+00  0.00000000000E+00  0.99999998245E-14  0.12500000000E+03  0.12500000000E+03 0.  0.
        -13    1    3    3    0    0 -0.17387448553E+01  0.57536886521E+01 -0.55072444062E+02  0.55399579654E+02  0.10566000000E+00 0. -1.
         23    2    1    0    0    0  0.62416749408E+00 -0.17669994498E+02 -0.15297342254E+02  0.10161994502E+03  0.98893813033E+02 0.  0.
         13    1    3    3    0    0  0.23629123494E+01 -0.23423683150E+02  0.39775101809E+02  0.46220365371E+02  0.10566000000E+00 0.  1.
         22    1    1    0    0    0 -0.62416749408E+00  0.17669994498E+02  0.15297342254E+02  0.23380054975E+02  0.00000000000E+00 0. -1.
</event>
<event>
 5    1  0.1724243E-003  0.9118800E+02  0.7818608E-02  0.1130116E+00
         25   -1    0    0    0    0  0.00000000000E+00  0.00000000000E+00  0.99999998245E-14  0.12500000000E+03  0.12500000000E+03 0.  0.
        -13    1    3    3    0    0 -0.39354934680E+02  0.71760381466E+01  0.11811591552E+02  0.41711284638E+02  0.10566000000E+00 0.  1.
         23    2    1    0    0    0  0.16131306943E+02  0.10868469975E+02  0.19031546306E+02  0.97787090231E+02  0.93924291628E+02 0.  0.
         13    1    3    3    0    0  0.55486241623E+02  0.36924318288E+01  0.72199547543E+01  0.56075805593E+02  0.10566000000E+00 0. -1.
         22    1    1    0    0    0 -0.16131306943E+02 -0.10868469975E+02 -0.19031546306E+02  0.27212909769E+02  0.00000000000E+00 0. -1.
</event>
<event>
 5    1  0.1724243E-003  0.9118800E+02  0.7818608E-02  0.1130116E+00
         25   -1    0    0    0    0  0.00000000000E+00  0.00000000000E+00  0.99999998245E-14  0.12500000000E+03  0.12500000000E+03 0.  0.
        -13    1    3    3    0    0 -0.60737329042E+02 -0.23884547838E+01 -0.53561085855E+01  0.61019889533E+02  0.10566000000E+00 0.  1.
         23    2    1    0    0    0 -0.28129181612E+02 -0.10445394152E+02 -0.47937672170E+01  0.94613533913E+02  0.89601247079E+02 0.  0.
         13    1    3    3    0    0  0.32608147431E+02 -0.80569393681E+01  0.56234136844E+00  0.33593644379E+02  0.10566000000E+00 0. -1.
         22    1    1    0    0    0  0.28129181612E+02  0.10445394152E+02  0.47937672170E+01  0.30386466087E+02  0.00000000000E+00 0.  1.
</event>
<event>
 5    1  0.1724243E-003  0.9118800E+02  0.7818608E-02  0.1130116E+00
         25   -1    0    0    0    0  0.00000000000E+00  0.00000000000E+00  0.99999998245E-14  0.12500000000E+03  0.12500000000E+03 0.  0.
        -13    1    3    3    0    0 -0.41216578522E+01  0.37052584900E+01 -0.33594185937E+02  0.34048458067E+02  0.10566000000E+00 0. -1.
         23    2    1    0    0    0 -0.14822339076E+02 -0.31587451637E+01  0.25957564558E+02  0.94942146376E+02  0.90058517609E+02 0.  0.
         13    1    3    3    0    0 -0.10700681224E+02 -0.68640036537E+01  0.59551750495E+02  0.60893688309E+02  0.10566000000E+00 0.  1.
         22    1    1    0    0    0  0.14822339076E+02  0.31587451637E+01 -0.25957564558E+02  0.30057853624E+02  0.00000000000E+00 0.  1.
</event>
<event>
 5    1  0.1724243E-003  0.9118800E+02  0.7818608E-02  0.1130116E+00
         25   -1    0    0    0    0  0.00000000000E+00  0.00000000000E+00  0.99999998245E-14  0.12500000000E+03  0.12500000000E+03 0.  0.
        -13    1    3    3    0    0  0.30083239852E+02 -0.26919390127E+01 -0.26065445531E+02  0.39895694886E+02  0.10566000000E+00 0.  1.
         23    2    1    0    0    0 -0.14935905477E+02 -0.26229050891E+02 -0.85971986465E+01  0.93615988026E+02  0.88198622474E+02 0.  0.
         13    1    3    3    0    0 -0.45019145329E+02 -0.23537111878E+02  0.17468246885E+02  0.53720293140E+02  0.10566000000E+00 0. -1.
         22    1    1    0    0    0  0.14935905477E+02  0.26229050891E+02  0.85971986465E+01  0.31384011974E+02  0.00000000000E+00 0. -1.
</event>
<event>
 5    1  0.1724243E-003  0.9118800E+02  0.7818608E-02  0.1130116E+00
         25   -1    0    0    0    0  0.00000000000E+00  0.00000000000E+00  0.99999998245E-14  0.12500000000E+03  0.12500000000E+03 0.  0.
        -13    1    3    3    0    0  0.51178390332E+02  0.81367556422E+01  0.16015270189E+02  0.54239602438E+02  0.10566000000E+00 0.  1.
         23    2    1    0    0    0  0.14455943777E+02 -0.15177570891E+01  0.27488009645E+02  0.93905489692E+02  0.88607970426E+02 0.  0.
         13    1    3    3    0    0 -0.36722446555E+02 -0.96545127313E+01  0.11472739456E+02  0.39665887255E+02  0.10566000000E+00 0. -1.
         22    1    1    0    0    0 -0.14455943777E+02  0.15177570891E+01 -0.27488009645E+02  0.31094510308E+02  0.00000000000E+00 0.  1.
</event>
<event>
 5    1  0.1724243E-003  0.9118800E+02  0.7818608E-02  0.1130116E+00
         25   -1    0    0    0    0  0.00000000000E+00  0.00000000000E+00  0.99999998245E-14  0.12500000000E+03  0.12500000000E+03 0.  0.
        -13    1    3    3    0    0  0.24337840746E+02 -0.24812150528E+02  0.43840756956E+01  0.35031479982E+02  0.10566000000E+00 0.  1.
         23    2    1    0    0    0 -0.29785965673E+02  0.78620208429E+00 -0.13179338949E+01  0.95174527421E+02  0.90380483818E+02 0.  0.
         13    1    3    3    0    0 -0.54123806419E+02  0.25598352613E+02 -0.57020095905E+01  0.60143047439E+02  0.10566000000E+00 0. -1.
         22    1    1    0    0    0  0.29785965673E+02 -0.78620208429E+00  0.13179338949E+01  0.29825472579E+02  0.00000000000E+00 0. -1.
</event>
<event>
 5    1  0.1724243E-003  0.9118800E+02  0.7818608E-02  0.1130116E+00
         25   -1    0    0    0    0  0.00000000000E+00  0.00000000000E+00  0.99999998245E-14  0.12500000000E+03  0.12500000000E+03 0.  0.
        -13    1    3    3    0    0  0.27104321802E+02  0.67942467391E+01  0.43016649253E+02  0.51295704752E+02  0.10566000000E+00 0. -1.
         23    2    1    0    0    0 -0.12038238314E+02 -0.68689736239E+01  0.24820395214E+02  0.96571950491E+02  0.92292944599E+02 0.  0.
         13    1    3    3    0    0 -0.39142560115E+02 -0.13663220363E+02 -0.18196254039E+02  0.45276245738E+02  0.10566000000E+00 0.  1.
         22    1    1    0    0    0  0.12038238314E+02  0.68689736239E+01 -0.24820395214E+02  0.28428049509E+02  0.00000000000E+00 0. -1.
</event>
<event>
 5    1  0.1724243E-003  0.9118800E+02  0.7818608E-02  0.1130116E+00
         25   -1    0    0    0    0  0.00000000000E+00  0.00000000000E+00  0.99999998245E-14  0.12500000000E+03  0.12500000000E+03 0.  0.
        -13    1    3    3    0    0  0.14981676612E+01 -0.12869103408E+02 -0.35260939063E+02  0.37565986164E+02  0.10566000000E+00 0. -1.
         23    2    1    0    0    0 -0.16840472055E+02 -0.14651378927E+02  0.19510366372E+02  0.95353435283E+02  0.90627583113E+02 0.  0.
         13    1    3    3    0    0 -0.18338639717E+02 -0.17822755198E+01  0.54771305435E+02  0.57787449119E+02  0.10566000000E+00 0.  1.
         22    1    1    0    0    0  0.16840472055E+02  0.14651378927E+02 -0.19510366372E+02  0.29646564717E+02  0.00000000000E+00 0.  1.
</event>
<event>
 5    1  0.1724243E-003  0.9118800E+02  0.7818608E-02  0.1130116E+00
         25   -1    0    0    0    0  0.00000000000E+00  0.00000000000E+00  0.99999998245E-14  0.12500000000E+03  0.12500000000E+03 0.  0.
        -13    1    3    3    0    0 -0.34700851317E+02 -0.44178575739E+02 -0.67132442728E+00  0.56181469160E+02  0.10566000000E+00 0.  1.
         23    2    1    0    0    0 -0.49161266382E+01 -0.22415293511E+02  0.16365232813E+02  0.96814285013E+02  0.92620576835E+02 0.  0.
         13    1    3    3    0    0  0.29784724678E+02  0.21763282229E+02  0.17036557240E+02  0.40632815853E+02  0.10566000000E+00 0. -1.
         22    1    1    0    0    0  0.49161266382E+01  0.22415293511E+02 -0.16365232813E+02  0.28185714987E+02  0.00000000000E+00 0.  1.
</event>
<event>
 5    1  0.1724243E-003  0.9118800E+02  0.7818608E-02  0.1130116E+00
         25   -1    0    0    0    0  0.00000000000E+00  0.00000000000E+00  0.99999998245E-14  0.12500000000E+03  0.12500000000E+03 0.  0.
        -13    1    3    3    0    0  0.16510245048E+02 -0.43028105166E+02 -0.34000682802E+02  0.57271839683E+02  0.10566000000E+00 0.  1.
         23    2    1    0    0    0  0.22773179405E+02 -0.17689155154E+02 -0.60100612369E+01  0.95544189939E+02  0.90890304680E+02 0.  0.
         13    1    3    3    0    0  0.62629343575E+01  0.25338950012E+02  0.27990621565E+02  0.38272350256E+02  0.10566000000E+00 0. -1.
         22    1    1    0    0    0 -0.22773179405E+02  0.17689155154E+02  0.60100612369E+01  0.29455810061E+02  0.00000000000E+00 0.  1.
</event>
<event>
 5    1  0.1724243E-003  0.9118800E+02  0.7818608E-02  0.1130116E+00
         25   -1    0    0    0    0  0.00000000000E+00  0.00000000000E+00  0.99999998245E-14  0.12500000000E+03  0.12500000000E+03 0.  0.
        -13    1    3    3    0    0  0.45247916576E+02 -0.11847601093E+02  0.29273694252E+02  0.55178799782E+02  0.10566000000E+00 0. -1.
         23    2    1    0    0    0  0.31112848281E+02  0.74233797902E+00 -0.41622563608E+01  0.93601197924E+02  0.88177658627E+02 0.  0.
         13    1    3    3    0    0 -0.14135068296E+02  0.12589939072E+02 -0.33435950613E+02  0.38422398142E+02  0.10566000000E+00 0.  1.
         22    1    1    0    0    0 -0.31112848281E+02 -0.74233797902E+00  0.41622563608E+01  0.31398802076E+02  0.00000000000E+00 0. -1.
</event>
<event>
 5    1  0.1724243E-003  0.9118800E+02  0.7818608E-02  0.1130116E+00
         25   -1    0    0    0    0  0.00000000000E+00  0.00000000000E+00  0.99999998245E-14  0.12500000000E+03  0.12500000000E+03 0.  0.
        -13    1    3    3    0    0  0.19179372294E+02  0.59244884581E+01  0.45787605198E+02  0.49994638102E+02  0.10566000000E+00 0. -1.
         23    2    1    0    0    0  0.26969215914E+02  0.86865233521E+01 -0.14598029151E+00  0.96665999132E+02  0.92420234705E+02 0.  0.
         13    1    3    3    0    0  0.77898436197E+01  0.27620348941E+01 -0.45933585490E+02  0.46671361030E+02  0.10566000000E+00 0.  1.
         22    1    1    0    0    0 -0.26969215914E+02 -0.86865233521E+01  0.14598029151E+00  0.28334000868E+02  0.00000000000E+00 0. -1.
</event>
<event>
 5    1  0.1724243E-003  0.9118800E+02  0.7818608E-02  0.1130116E+00
         25   -1    0    0    0    0  0.00000000000E+00  0.00000000000E+00  0.99999998245E-14  0.12500000000E+03  0.12500000000E+03 0.  0.
        -13    1    3    3    0    0 -0.47603587837E+02  0.23113872080E+02 -0.26792768662E+02  0.59314553645E+02  0.10566000000E+00 0.  1.
         23    2    1    0    0    0 -0.14376188781E+02  0.99118380806E+01 -0.24193351595E+02  0.95163150311E+02  0.90364747428E+02 0.  0.
         13    1    3    3    0    0  0.33227399057E+02 -0.13202034000E+02  0.25994170670E+01  0.35848596666E+02  0.10566000000E+00 0. -1.
         22    1    1    0    0    0  0.14376188781E+02 -0.99118380806E+01  0.24193351595E+02  0.29836849689E+02  0.00000000000E+00 0.  1.
</event>
<event>
 5    1  0.1724243E-003  0.9118800E+02  0.7818608E-02  0.1130116E+00
         25   -1    0    0    0    0  0.00000000000E+00  0.00000000000E+00  0.99999998245E-14  0.12500000000E+03  0.12500000000E+03 0.  0.
        -13    1    3    3    0    0 -0.83085733592E+01 -0.51215230367E+02  0.25452202110E+02  0.57791504299E+02  0.10566000000E+00 0. -1.
         23    2    1    0    0    0  0.64341815810E+01 -0.29083955221E+02 -0.85894030644E+00  0.95200454327E+02  0.90416334706E+02 0.  0.
         13    1    3    3    0    0  0.14742754940E+02  0.22131275147E+02 -0.26311142417E+02  0.37408950028E+02  0.10566000000E+00 0.  1.
         22    1    1    0    0    0 -0.64341815810E+01  0.29083955221E+02  0.85894030644E+00  0.29799545673E+02  0.00000000000E+00 0. -1.
</event>
<event>
 5    1  0.1724243E-003  0.9118800E+02  0.7818608E-02  0.1130116E+00
         25   -1    0    0    0    0  0.00000000000E+00  0.00000000000E+00  0.99999998245E-14  0.12500000000E+03  0.12500000000E+03 0.  0.
        -13    1    3    3    0    0  0.63421994618E+00  0.29317380563E+02 -0.15126848347E+02  0.32996117089E+02  0.10566000000E+00 0.  1.
         23    2    1    0    0    0 -0.77043476243E+00 -0.29435347685E+02  0.50334231672E+01  0.95127460572E+02  0.90315364933E+02 0.  0.
         13    1    3    3    0    0 -0.14046547086E+01 -0.58752728248E+02  0.20160271514E+02  0.62131343483E+02  0.10566000000E+00 0. -1.
         22    1    1    0    0    0  0.77043476243E+00  0.29435347685E+02 -0.50334231672E+01  0.29872539428E+02  0.00000000000E+00 0. -1.
</event>
<event>
 5    1  0.1724243E-003  0.9118800E+02  0.7818608E-02  0.1130116E+00
         25   -1    0    0    0    0  0.00000000000E+00  0.00000000000E+00  0.99999998245E-14  0.12500000000E+03  0.12500000000E+03 0.  0.
        -13    1    3    3    0    0  0.46026068190E+02  0.35707076290E+02  0.15759162841E+02  0.60346968671E+02  0.10566000000E+00 0. -1.
         23    2    1    0    0    0  0.25910533130E+02  0.19416070072E+02 -0.32456323138E+01  0.92459661446E+02  0.86544297105E+02 0.  0.
         13    1    3    3    0    0 -0.20115535060E+02 -0.16291006219E+02 -0.19004795155E+02  0.32112692775E+02  0.10566000000E+00 0.  1.
         22    1    1    0    0    0 -0.25910533130E+02 -0.19416070072E+02  0.32456323138E+01  0.32540338554E+02  0.00000000000E+00 0. -1.
</event>
<event>
 5    1  0.1724243E-003  0.9118800E+02  0.7818608E-02  0.1130116E+00
         25   -1    0    0    0    0  0.00000000000E+00  0.00000000000E+00  0.99999998245E-14  0.12500000000E+03  0.12500000000E+03 0.  0.
        -13    1    3    3    0    0  0.22929712640E+02  0.92104677682E+01  0.41059604574E+02  0.47921881538E+02  0.10566000000E+00 0. -1.
         23    2    1    0    0    0  0.35703488309E+01  0.33769048590E+02  0.21038288666E+02  0.85053715775E+02  0.75089472922E+02 0.  0.
         13    1    3    3    0    0 -0.19359363809E+02  0.24558580822E+02 -0.20021315909E+02  0.37131834237E+02  0.10566000000E+00 0.  1.
         22    1    1    0    0    0 -0.35703488309E+01 -0.33769048590E+02 -0.21038288666E+02  0.39946284225E+02  0.00000000000E+00 0. -1.
</event>
<event>
 5    1  0.1724243E-003  0.9118800E+02  0.7818608E-02  0.1130116E+00
         25   -1    0    0    0    0  0.00000000000E+00  0.00000000000E+00  0.99999998245E-14  0.12500000000E+03  0.12500000000E+03 0.  0.
        -13    1    3    3    0    0 -0.37458509307E+02 -0.35411282892E+02 -0.13643206495E+01  0.51565215120E+02  0.10566000000E+00 0.  1.
         23    2    1    0    0    0 -0.23980190246E+02  0.44664753797E+01 -0.15651450991E+02  0.96017818496E+02  0.91539361065E+02 0.  0.
         13    1    3    3    0    0  0.13478319061E+02  0.39877758272E+02 -0.14287130342E+02  0.44452603376E+02  0.10566000000E+00 0. -1.
         22    1    1    0    0    0  0.23980190246E+02 -0.44664753797E+01  0.15651450991E+02  0.28982181504E+02  0.00000000000E+00 0.  1.
</event>
<event>
 5    1  0.1724243E-003  0.9118800E+02  0.7818608E-02  0.1130116E+00
         25   -1    0    0    0    0  0.00000000000E+00  0.00000000000E+00  0.99999998245E-14  0.12500000000E+03  0.12500000000E+03 0.  0.
        -13    1    3    3    0    0 -0.26595902227E+02 -0.13733703059E+02 -0.33941271567E+02  0.45254587553E+02  0.10566000000E+00 0.  1.
         23    2    1    0    0    0 -0.22367424698E+01  0.25626505937E+02 -0.14603690015E+02  0.95419794026E+02  0.90719063634E+02 0.  0.
         13    1    3    3    0    0  0.24359159757E+02  0.39360208995E+02  0.19337581552E+02  0.50165206474E+02  0.10566000000E+00 0. -1.
         22    1    1    0    0    0  0.22367424698E+01 -0.25626505937E+02  0.14603690015E+02  0.29580205974E+02  0.00000000000E+00 0.  1.
</event>
<event>
 5    1  0.1724243E-003  0.9118800E+02  0.7818608E-02  0.1130116E+00
         25   -1    0    0    0    0  0.00000000000E+00  0.00000000000E+00  0.99999998245E-14  0.12500000000E+03  0.12500000000E+03 0.  0.
        -13    1    3    3    0    0  0.65815130146E+01  0.46257051466E+02 -0.26432152466E+02  0.53681476990E+02  0.10566000000E+00 0.  1.
         23    2    1    0    0    0  0.17712848875E+02  0.25020722975E+02  0.57458554428E+01  0.93810315035E+02  0.88473604870E+02 0.  0.
         13    1    3    3    0    0  0.11131335860E+02 -0.21236328490E+02  0.32178007909E+02  0.40128838044E+02  0.10566000000E+00 0. -1.
         22    1    1    0    0    0 -0.17712848875E+02 -0.25020722975E+02 -0.57458554428E+01  0.31189684965E+02  0.00000000000E+00 0.  1.
</event>
<event>
 5    1  0.1724243E-003  0.9118800E+02  0.7818608E-02  0.1130116E+00
         25   -1    0    0    0    0  0.00000000000E+00  0.00000000000E+00  0.99999998245E-14  0.12500000000E+03  0.12500000000E+03 0.  0.
        -13    1    3    3    0    0 -0.95156300640E+01  0.38984188388E+02  0.36258103587E+02  0.54083041700E+02  0.10566000000E+00 0.  1.
         23    2    1    0    0    0 -0.67812164350E+01 -0.22030107817E+01  0.27905967549E+02  0.96197549102E+02  0.91784460970E+02 0.  0.
         13    1    3    3    0    0  0.27344136290E+01 -0.41187199169E+02 -0.83521360378E+01  0.42114507402E+02  0.10566000000E+00 0. -1.
         22    1    1    0    0    0  0.67812164350E+01  0.22030107817E+01 -0.27905967549E+02  0.28802450898E+02  0.00000000000E+00 0.  1.
</event>
<event>
 5    1  0.1724243E-003  0.9118800E+02  0.7818608E-02  0.1130116E+00
         25   -1    0    0    0    0  0.00000000000E+00  0.00000000000E+00  0.99999998245E-14  0.12500000000E+03  0.12500000000E+03 0.  0.
        -13    1    3    3    0    0 -0.35340639341E+02 -0.20180786068E+02  0.65375192785E+01  0.41218627315E+02  0.10566000000E+00 0.  1.
         23    2    1    0    0    0  0.18549406796E+02 -0.12004703631E+02  0.17496559940E+02  0.96816263352E+02  0.92623246747E+02 0.  0.
         13    1    3    3    0    0  0.53890046137E+02  0.81760824371E+01  0.10959040661E+02  0.55597636037E+02  0.10566000000E+00 0. -1.
         22    1    1    0    0    0 -0.18549406796E+02  0.12004703631E+02 -0.17496559940E+02  0.28183736648E+02  0.00000000000E+00 0. -1.
</event>
<event>
 5    1  0.1724243E-003  0.9118800E+02  0.7818608E-02  0.1130116E+00
         25   -1    0    0    0    0  0.00000000000E+00  0.00000000000E+00  0.99999998245E-14  0.12500000000E+03  0.12500000000E+03 0.  0.
        -13    1    3    3    0    0 -0.33521052804E+02  0.49802437068E+02 -0.17224872742E+02  0.62455192931E+02  0.10566000000E+00 0. -1.
         23    2    1    0    0    0 -0.16425728084E+02  0.22247711067E+02 -0.91293780580E+01  0.95877659185E+02  0.91347768425E+02 0.  0.
         13    1    3    3    0    0  0.17095324720E+02 -0.27554726001E+02  0.80954946838E+01  0.33422466254E+02  0.10566000000E+00 0.  1.
         22    1    1    0    0    0  0.16425728084E+02 -0.22247711067E+02  0.91293780580E+01  0.29122340815E+02  0.00000000000E+00 0. -1.
</event>
<event>
 5    1  0.1724243E-003  0.9118800E+02  0.7818608E-02  0.1130116E+00
         25   -1    0    0    0    0  0.00000000000E+00  0.00000000000E+00  0.99999998245E-14  0.12500000000E+03  0.12500000000E+03 0.  0.
        -13    1    3    3    0    0 -0.58240041911E+02 -0.40055971487E+01  0.18732790129E+02  0.61309671997E+02  0.10566000000E+00 0.  1.
         23    2    1    0    0    0 -0.27244370671E+02 -0.74391866651E+01  0.20326599892E+01  0.96685181651E+02  0.92446175760E+02 0.  0.
         13    1    3    3    0    0  0.30995671239E+02 -0.34335895164E+01 -0.16700130140E+02  0.35375509654E+02  0.10566000000E+00 0. -1.
         22    1    1    0    0    0  0.27244370671E+02  0.74391866651E+01 -0.20326599892E+01  0.28314818349E+02  0.00000000000E+00 0.  1.
</event>
<event>
 5    1  0.1724243E-003  0.9118800E+02  0.7818608E-02  0.1130116E+00
         25   -1    0    0    0    0  0.00000000000E+00  0.00000000000E+00  0.99999998245E-14  0.12500000000E+03  0.12500000000E+03 0.  0.
        -13    1    3    3    0    0 -0.40066748391E+02 -0.43771212578E+02 -0.73908930061E+01  0.59798828088E+02  0.10566000000E+00 0. -1.
         23    2    1    0    0    0 -0.22861646931E+02 -0.11127109014E+02 -0.11813861491E+02  0.96963688211E+02  0.92821991213E+02 0.  0.
         13    1    3    3    0    0  0.17205101460E+02  0.32644103564E+02 -0.44229684848E+01  0.37164860124E+02  0.10566000000E+00 0.  1.
         22    1    1    0    0    0  0.22861646931E+02  0.11127109014E+02  0.11813861491E+02  0.28036311789E+02  0.00000000000E+00 0. -1.
</event>
<event>
 5    1  0.1724243E-003  0.9118800E+02  0.7818608E-02  0.1130116E+00
         25   -1    0    0    0    0  0.00000000000E+00  0.00000000000E+00  0.99999998245E-14  0.12500000000E+03  0.12500000000E+03 0.  0.
        -13    1    3    3    0    0 -0.28547083679E+02  0.29557342295E+02 -0.30604742416E+01  0.41206190515E+02  0.10566000000E+00 0. -1.
         23    2    1    0    0    0 -0.18139536610E+02 -0.21610421685E+02 -0.12279266657E+02  0.94229340218E+02  0.89063657315E+02 0.  0.
         13    1    3    3    0    0  0.10407547070E+02 -0.51167763980E+02 -0.92187924150E+01  0.53023149703E+02  0.10566000000E+00 0.  1.
         22    1    1    0    0    0  0.18139536610E+02  0.21610421685E+02  0.12279266657E+02  0.30770659782E+02  0.00000000000E+00 0.  1.
</event>
<event>
 5    1  0.1724243E-003  0.9118800E+02  0.7818608E-02  0.1130116E+00
         25   -1    0    0    0    0  0.00000000000E+00  0.00000000000E+00  0.99999998245E-14  0.12500000000E+03  0.12500000000E+03 0.  0.
        -13    1    3    3    0    0 -0.55538010856E+02 -0.16713501935E+02 -0.12524366932E+02  0.59335341306E+02  0.10566000000E+00 0. -1.
         23    2    1    0    0    0 -0.27424120549E+02 -0.10904421706E+02  0.77574012759E+01  0.94484986070E+02  0.89421734033E+02 0.  0.
         13    1    3    3    0    0  0.28113890308E+02  0.58090802286E+01  0.20281768208E+02  0.35149644764E+02  0.10566000000E+00 0.  1.
         22    1    1    0    0    0  0.27424120549E+02  0.10904421706E+02 -0.77574012759E+01  0.30515013930E+02  0.00000000000E+00 0. -1.
</event>
<event>
 5    1  0.1724243E-003  0.9118800E+02  0.7818608E-02  0.1130116E+00
         25   -1    0    0    0    0  0.00000000000E+00  0.00000000000E+00  0.99999998245E-14  0.12500000000E+03  0.12500000000E+03 0.  0.
        -13    1    3    3    0    0  0.15474045528E+02 -0.11399033805E+01  0.41731885461E+02  0.44523105158E+02  0.10566000000E+00 0. -1.
         23    2    1    0    0    0 -0.19643801618E+02  0.15892924215E+02  0.29239174723E+01  0.99563544360E+02  0.96259472729E+02 0.  0.
         13    1    3    3    0    0 -0.35117847146E+02  0.17032827596E+02 -0.38807967989E+02  0.55040439202E+02  0.10566000000E+00 0.  1.
         22    1    1    0    0    0  0.19643801618E+02 -0.15892924215E+02 -0.29239174723E+01  0.25436455640E+02  0.00000000000E+00 0.  1.
</event>
<event>
 5    1  0.1724243E-003  0.9118800E+02  0.7818608E-02  0.1130116E+00
         25   -1    0    0    0    0  0.00000000000E+00  0.00000000000E+00  0.99999998245E-14  0.12500000000E+03  0.12500000000E+03 0.  0.
        -13    1    3    3    0    0  0.27596680847E+02  0.29015921781E+02  0.42334990631E+02  0.58273176560E+02  0.10566000000E+00 0.  1.
         23    2    1    0    0    0  0.22389285798E+02  0.26969716184E+01  0.98863585558E+01  0.10037696485E+03  0.97310026270E+02 0.  0.
         13    1    3    3    0    0 -0.52073950485E+01 -0.26318950163E+02 -0.32448632075E+02  0.42103788291E+02  0.10566000000E+00 0. -1.
         22    1    1    0    0    0 -0.22389285798E+02 -0.26969716184E+01 -0.98863585558E+01  0.24623035149E+02  0.00000000000E+00 0.  1.
</event>
<event>
 5    1  0.1724243E-003  0.9118800E+02  0.7818608E-02  0.1130116E+00
         25   -1    0    0    0    0  0.00000000000E+00  0.00000000000E+00  0.99999998245E-14  0.12500000000E+03  0.12500000000E+03 0.  0.
        -13    1    3    3    0    0  0.44200259571E+02  0.34694041820E+02 -0.22840294724E+02  0.60655005656E+02  0.10566000000E+00 0.  1.
         23    2    1    0    0    0  0.24684524900E+02  0.85032738322E+01 -0.33829847075E+01  0.98673662980E+02  0.95096875579E+02 0.  0.
         13    1    3    3    0    0 -0.19515734672E+02 -0.26190767988E+02  0.19457310017E+02  0.38018657324E+02  0.10566000000E+00 0. -1.
         22    1    1    0    0    0 -0.24684524900E+02 -0.85032738322E+01  0.33829847075E+01  0.26326337020E+02  0.00000000000E+00 0.  1.
</event>
<event>
 5    1  0.1724243E-003  0.9118800E+02  0.7818608E-02  0.1130116E+00
         25   -1    0    0    0    0  0.00000000000E+00  0.00000000000E+00  0.99999998245E-14  0.12500000000E+03  0.12500000000E+03 0.  0.
        -13    1    3    3    0    0 -0.63093386882E+01  0.91740314999E+01  0.60870936211E+02  0.61880955453E+02  0.10566000000E+00 0.  1.
         23    2    1    0    0    0 -0.54062629982E+00  0.99880311042E+01  0.27938899442E+02  0.95324502630E+02  0.90587668353E+02 0.  0.
         13    1    3    3    0    0  0.57687123884E+01  0.81399960432E+00 -0.32932036769E+02  0.33443547177E+02  0.10566000000E+00 0. -1.
         22    1    1    0    0    0  0.54062629982E+00 -0.99880311042E+01 -0.27938899442E+02  0.29675497370E+02  0.00000000000E+00 0.  1.
</event>
<event>
 5    1  0.1724243E-003  0.9118800E+02  0.7818608E-02  0.1130116E+00
         25   -1    0    0    0    0  0.00000000000E+00  0.00000000000E+00  0.99999998245E-14  0.12500000000E+03  0.12500000000E+03 0.  0.
        -13    1    3    3    0    0  0.24906846190E+02 -0.16725394497E+02 -0.34098058190E+02  0.45417821883E+02  0.10566000000E+00 0. -1.
         23    2    1    0    0    0 -0.11881063936E+02 -0.25857971130E+02  0.20867336211E+00  0.96542349082E+02  0.92252844241E+02 0.  0.
         13    1    3    3    0    0 -0.36787910127E+02 -0.91325766322E+01  0.34306731553E+02  0.51124527199E+02  0.10566000000E+00 0.  1.
         22    1    1    0    0    0  0.11881063936E+02  0.25857971130E+02 -0.20867336211E+00  0.28457650918E+02  0.00000000000E+00 0.  1.
</event>
<event>
 5    1  0.1724243E-003  0.9118800E+02  0.7818608E-02  0.1130116E+00
         25   -1    0    0    0    0  0.00000000000E+00  0.00000000000E+00  0.99999998245E-14  0.12500000000E+03  0.12500000000E+03 0.  0.
        -13    1    3    3    0    0 -0.37179873463E+02  0.35923488799E+02  0.20960366113E+02  0.55786989073E+02  0.10566000000E+00 0.  1.
         23    2    1    0    0    0 -0.40403715783E+01  0.12822652585E+02  0.25233003276E+02  0.96408926635E+02  0.92071883107E+02 0.  0.
         13    1    3    3    0    0  0.33139501885E+02 -0.23100836214E+02  0.42726371627E+01  0.40621937562E+02  0.10566000000E+00 0. -1.
         22    1    1    0    0    0  0.40403715783E+01 -0.12822652585E+02 -0.25233003276E+02  0.28591073365E+02  0.00000000000E+00 0.  1.
</event>
<event>
 5    1  0.1724243E-003  0.9118800E+02  0.7818608E-02  0.1130116E+00
         25   -1    0    0    0    0  0.00000000000E+00  0.00000000000E+00  0.99999998245E-14  0.12500000000E+03  0.12500000000E+03 0.  0.
        -13    1    3    3    0    0  0.13786206714E+02 -0.97735080973E+01  0.32485662376E+02  0.36618443169E+02  0.10566000000E+00 0.  1.
         23    2    1    0    0    0 -0.23324338562E+02 -0.23070769735E+02  0.36118121612E+02  0.76206517912E+02  0.58537419467E+02 0.  0.
         13    1    3    3    0    0 -0.37110545276E+02 -0.13297261637E+02  0.36324592368E+01  0.39588074743E+02  0.10566000000E+00 0. -1.
         22    1    1    0    0    0  0.23324338562E+02  0.23070769735E+02 -0.36118121612E+02  0.48793482088E+02  0.00000000000E+00 0. -1.
</event>
<event>
 5    1  0.1724243E-003  0.9118800E+02  0.7818608E-02  0.1130116E+00
         25   -1    0    0    0    0  0.00000000000E+00  0.00000000000E+00  0.99999998245E-14  0.12500000000E+03  0.12500000000E+03 0.  0.
        -13    1    3    3    0    0 -0.10455794094E+02  0.24070080360E+02  0.20224899566E+02  0.33132312403E+02  0.10566000000E+00 0.  1.
         23    2    1    0    0    0  0.14910475068E+02 -0.19126549221E+02 -0.16863271986E+02  0.95461599672E+02  0.90776648528E+02 0.  0.
         13    1    3    3    0    0  0.25366269162E+02 -0.43196629581E+02 -0.37088171552E+02  0.62329287269E+02  0.10566000000E+00 0. -1.
         22    1    1    0    0    0 -0.14910475068E+02  0.19126549221E+02  0.16863271986E+02  0.29538400328E+02  0.00000000000E+00 0. -1.
</event>
<event>
 5    1  0.1724243E-003  0.9118800E+02  0.7818608E-02  0.1130116E+00
         25   -1    0    0    0    0  0.00000000000E+00  0.00000000000E+00  0.99999998245E-14  0.12500000000E+03  0.12500000000E+03 0.  0.
        -13    1    3    3    0    0  0.29476969860E+02 -0.43637288678E+02  0.33103248730E+02  0.62200811536E+02  0.10566000000E+00 0. -1.
         23    2    1    0    0    0  0.12915105171E+02 -0.18058625986E+02  0.18997703853E+02  0.95779687446E+02  0.91213605682E+02 0.  0.
         13    1    3    3    0    0 -0.16561864689E+02  0.25578662691E+02 -0.14105544877E+02  0.33578875910E+02  0.10566000000E+00 0.  1.
         22    1    1    0    0    0 -0.12915105171E+02  0.18058625986E+02 -0.18997703853E+02  0.29220312554E+02  0.00000000000E+00 0. -1.
</event>
<event>
 5    1  0.1724243E-003  0.9118800E+02  0.7818608E-02  0.1130116E+00
         25   -1    0    0    0    0  0.00000000000E+00  0.00000000000E+00  0.99999998245E-14  0.12500000000E+03  0.12500000000E+03 0.  0.
        -13    1    3    3    0    0  0.23476760383E+02  0.50239568638E+02  0.14806237694E+02  0.57396936972E+02  0.10566000000E+00 0.  1.
         23    2    1    0    0    0  0.11294611626E+02  0.24461175550E+02 -0.11042578362E+02  0.95882034790E+02  0.91353755793E+02 0.  0.
         13    1    3    3    0    0 -0.12182148758E+02 -0.25778393087E+02 -0.25848816057E+02  0.38485097818E+02  0.10566000000E+00 0. -1.
         22    1    1    0    0    0 -0.11294611626E+02 -0.24461175550E+02  0.11042578362E+02  0.29117965210E+02  0.00000000000E+00 0.  1.
</event>
<event>
 5    1  0.1724243E-003  0.9118800E+02  0.7818608E-02  0.1130116E+00
         25   -1    0    0    0    0  0.00000000000E+00  0.00000000000E+00  0.99999998245E-14  0.12500000000E+03  0.12500000000E+03 0.  0.
        -13    1    3    3    0    0  0.77365594538E+01 -0.35960501864E+02  0.10029168990E+02  0.38126204127E+02  0.10566000000E+00 0.  1.
         23    2    1    0    0    0  0.75709629248E+01  0.23108759136E+02  0.13294135265E+02  0.97285955530E+02  0.93254967066E+02 0.  0.
         13    1    3    3    0    0 -0.16559652901E+00  0.59069261000E+02  0.32649662748E+01  0.59159751403E+02  0.10566000000E+00 0. -1.
         22    1    1    0    0    0 -0.75709629248E+01 -0.23108759136E+02 -0.13294135265E+02  0.27714044470E+02  0.00000000000E+00 0. -1.
</event>
<event>
 5    1  0.1724243E-003  0.9118800E+02  0.7818608E-02  0.1130116E+00
         25   -1    0    0    0    0  0.00000000000E+00  0.00000000000E+00  0.99999998245E-14  0.12500000000E+03  0.12500000000E+03 0.  0.
        -13    1    3    3    0    0  0.11885033395E+02  0.10464867192E+02  0.30426421765E+02  0.34300812958E+02  0.10566000000E+00 0.  1.
         23    2    1    0    0    0 -0.25314126213E+01  0.22877687464E+02 -0.23873940614E+02  0.91837345191E+02  0.85640739708E+02 0.  0.
         13    1    3    3    0    0 -0.14416446016E+02  0.12412820272E+02 -0.54300362379E+02  0.57536532233E+02  0.10566000000E+00 0. -1.
         22    1    1    0    0    0  0.25314126213E+01 -0.22877687464E+02  0.23873940614E+02  0.33162654809E+02  0.00000000000E+00 0. -1.
</event>
<event>
 5    1  0.1724243E-003  0.9118800E+02  0.7818608E-02  0.1130116E+00
         25   -1    0    0    0    0  0.00000000000E+00  0.00000000000E+00  0.99999998245E-14  0.12500000000E+03  0.12500000000E+03 0.  0.
        -13    1    3    3    0    0  0.19178938444E+02 -0.37862644959E+02  0.16111332212E+02  0.45398213102E+02  0.10566000000E+00 0.  1.
         23    2    1    0    0    0  0.12444875469E+02 -0.10374846579E+02 -0.24939800869E+02  0.95259353835E+02  0.90497726262E+02 0.  0.
         13    1    3    3    0    0 -0.67340629751E+01  0.27487798381E+02 -0.41051133080E+02  0.49861140733E+02  0.10566000000E+00 0. -1.
         22    1    1    0    0    0 -0.12444875469E+02  0.10374846579E+02  0.24939800869E+02  0.29740646165E+02  0.00000000000E+00 0. -1.
</event>
<event>
 5    1  0.1724243E-003  0.9118800E+02  0.7818608E-02  0.1130116E+00
         25   -1    0    0    0    0  0.00000000000E+00  0.00000000000E+00  0.99999998245E-14  0.12500000000E+03  0.12500000000E+03 0.  0.
        -13    1    3    3    0    0  0.59176254053E+01 -0.61691725320E+02  0.72113707992E+01  0.62393126995E+02  0.10566000000E+00 0.  1.
         23    2    1    0    0    0  0.52498220500E+01 -0.29178619815E+02  0.25906959126E+01  0.95239889262E+02  0.90470836823E+02 0.  0.
         13    1    3    3    0    0 -0.66780335532E+00  0.32513105506E+02 -0.46206748866E+01  0.32846762266E+02  0.10566000000E+00 0. -1.
         22    1    1    0    0    0 -0.52498220500E+01  0.29178619815E+02 -0.25906959126E+01  0.29760110738E+02  0.00000000000E+00 0.  1.
</event>
<event>
 5    1  0.1724243E-003  0.9118800E+02  0.7818608E-02  0.1130116E+00
         25   -1    0    0    0    0  0.00000000000E+00  0.00000000000E+00  0.99999998245E-14  0.12500000000E+03  0.12500000000E+03 0.  0.
        -13    1    3    3    0    0 -0.40203810514E+02  0.61790435630E+01 -0.39059522088E+02  0.56393123597E+02  0.10566000000E+00 0.  1.
         23    2    1    0    0    0 -0.25820275942E+02 -0.13613775095E+02 -0.10549517832E+02  0.93962702300E+02  0.88688644002E+02 0.  0.
         13    1    3    3    0    0  0.14383534572E+02 -0.19792818658E+02  0.28510004256E+02  0.37569578703E+02  0.10566000000E+00 0. -1.
         22    1    1    0    0    0  0.25820275942E+02  0.13613775095E+02  0.10549517832E+02  0.31037297700E+02  0.00000000000E+00 0.  1.
</event>
<event>
 5    1  0.1724243E-003  0.9118800E+02  0.7818608E-02  0.1130116E+00
         25   -1    0    0    0    0  0.00000000000E+00  0.00000000000E+00  0.99999998245E-14  0.12500000000E+03  0.12500000000E+03 0.  0.
        -13    1    3    3    0    0 -0.33917737712E+02  0.37989602635E+02  0.35164162182E+02  0.61888224290E+02  0.10566000000E+00 0.  1.
         23    2    1    0    0    0 -0.16857682812E+02  0.23501884152E+02  0.13339897173E+02  0.93149209035E+02  0.87534577504E+02 0.  0.
         13    1    3    3    0    0  0.17060054900E+02 -0.14487718483E+02 -0.21824265008E+02  0.31260984745E+02  0.10566000000E+00 0. -1.
         22    1    1    0    0    0  0.16857682812E+02 -0.23501884152E+02 -0.13339897173E+02  0.31850790965E+02  0.00000000000E+00 0.  1.
</event>
<event>
 5    1  0.1724243E-003  0.9118800E+02  0.7818608E-02  0.1130116E+00
         25   -1    0    0    0    0  0.00000000000E+00  0.00000000000E+00  0.99999998245E-14  0.12500000000E+03  0.12500000000E+03 0.  0.
        -13    1    3    3    0    0 -0.11094536430E+01  0.37525205743E+02 -0.24005994850E+02  0.44560867431E+02  0.10566000000E+00 0. -1.
         23    2    1    0    0    0  0.17446903775E+02 -0.10780956071E+02 -0.19821877570E+02  0.96477547519E+02  0.92164998127E+02 0.  0.
         13    1    3    3    0    0  0.18556357418E+02 -0.48306161814E+02  0.41841172802E+01  0.51916680087E+02  0.10566000000E+00 0.  1.
         22    1    1    0    0    0 -0.17446903775E+02  0.10780956071E+02  0.19821877570E+02  0.28522452481E+02  0.00000000000E+00 0. -1.
</event>
<event>
 5    1  0.1724243E-003  0.9118800E+02  0.7818608E-02  0.1130116E+00
         25   -1    0    0    0    0  0.00000000000E+00  0.00000000000E+00  0.99999998245E-14  0.12500000000E+03  0.12500000000E+03 0.  0.
        -13    1    3    3    0    0 -0.13096611987E+02  0.55387748381E+02  0.24421090134E+01  0.56967525632E+02  0.10566000000E+00 0.  1.
         23    2    1    0    0    0  0.12522913687E+02  0.26683476333E+02 -0.66622192567E-01  0.95523980680E+02  0.90862506954E+02 0.  0.
         13    1    3    3    0    0  0.25619525674E+02 -0.28704272047E+02 -0.25087312059E+01  0.38556455048E+02  0.10566000000E+00 0. -1.
         22    1    1    0    0    0 -0.12522913687E+02 -0.26683476333E+02  0.66622192567E-01  0.29476019320E+02  0.00000000000E+00 0.  1.
</event>
<event>
 5    1  0.1724243E-003  0.9118800E+02  0.7818608E-02  0.1130116E+00
         25   -1    0    0    0    0  0.00000000000E+00  0.00000000000E+00  0.99999998245E-14  0.12500000000E+03  0.12500000000E+03 0.  0.
        -13    1    3    3    0    0  0.42931445335E+02  0.12690765436E+02  0.30042206845E+02  0.53913911767E+02  0.10566000000E+00 0.  1.
         23    2    1    0    0    0  0.25206454138E+02 -0.11346150679E+02 -0.14549943401E+01  0.97319366445E+02  0.93299740682E+02 0.  0.
         13    1    3    3    0    0 -0.17724991196E+02 -0.24036916115E+02 -0.31497201185E+02  0.43405454678E+02  0.10566000000E+00 0. -1.
         22    1    1    0    0    0 -0.25206454138E+02  0.11346150679E+02  0.14549943401E+01  0.27680633555E+02  0.00000000000E+00 0. -1.
</event>
<event>
 5    1  0.1724243E-003  0.9118800E+02  0.7818608E-02  0.1130116E+00
         25   -1    0    0    0    0  0.00000000000E+00  0.00000000000E+00  0.99999998245E-14  0.12500000000E+03  0.12500000000E+03 0.  0.
        -13    1    3    3    0    0  0.36291776049E+02  0.25698722527E+01 -0.23720340941E+02  0.43432280514E+02  0.10566000000E+00 0.  1.
         23    2    1    0    0    0  0.16734922236E+01 -0.30273135267E+02 -0.96294627447E+01  0.93188212124E+02  0.87590256484E+02 0.  0.
         13    1    3    3    0    0 -0.34618283826E+02 -0.32843007520E+02  0.14090878197E+02  0.49755931610E+02  0.10566000000E+00 0. -1.
         22    1    1    0    0    0 -0.16734922236E+01  0.30273135267E+02  0.96294627447E+01  0.31811787876E+02  0.00000000000E+00 0. -1.
</event>
<event>
 5    1  0.1724243E-003  0.9118800E+02  0.7818608E-02  0.1130116E+00
         25   -1    0    0    0    0  0.00000000000E+00  0.00000000000E+00  0.99999998245E-14  0.12500000000E+03  0.12500000000E+03 0.  0.
        -13    1    3    3    0    0 -0.40398966755E+01  0.19057491289E+02 -0.47536333216E+02  0.51373367410E+02  0.10566000000E+00 0. -1.
         23    2    1    0    0    0  0.15714975719E+02  0.24396709170E+02 -0.96776124783E+01  0.94408889143E+02  0.89315297042E+02 0.  0.
         13    1    3    3    0    0  0.19754872395E+02  0.53392178815E+01  0.37858720738E+02  0.43035521733E+02  0.10566000000E+00 0.  1.
         22    1    1    0    0    0 -0.15714975719E+02 -0.24396709170E+02  0.96776124783E+01  0.30591110857E+02  0.00000000000E+00 0. -1.
</event>
<event>
 5    1  0.1724243E-003  0.9118800E+02  0.7818608E-02  0.1130116E+00
         25   -1    0    0    0    0  0.00000000000E+00  0.00000000000E+00  0.99999998245E-14  0.12500000000E+03  0.12500000000E+03 0.  0.
        -13    1    3    3    0    0 -0.34783068398E+02 -0.10005187717E+02  0.26559165826E+02  0.44892828847E+02  0.10566000000E+00 0.  1.
         23    2    1    0    0    0 -0.13698882139E+02  0.21843582023E+02 -0.95978945482E+01  0.97487802210E+02  0.93525133267E+02 0.  0.
         13    1    3    3    0    0  0.21084186259E+02  0.31848769740E+02 -0.36157060374E+02  0.52594973364E+02  0.10566000000E+00 0. -1.
         22    1    1    0    0    0  0.13698882139E+02 -0.21843582023E+02  0.95978945482E+01  0.27512197790E+02  0.00000000000E+00 0. -1.
</event>
<event>
 5    1  0.1724243E-003  0.9118800E+02  0.7818608E-02  0.1130116E+00
         25   -1    0    0    0    0  0.00000000000E+00  0.00000000000E+00  0.99999998245E-14  0.12500000000E+03  0.12500000000E+03 0.  0.
        -13    1    3    3    0    0 -0.16908662711E+02  0.29129395280E+02 -0.10678383178E+02  0.35333604053E+02  0.10566000000E+00 0. -1.
         23    2    1    0    0    0  0.12496644778E+01 -0.28522596568E+02 -0.22665733330E+01  0.96360210703E+02  0.92005720886E+02 0.  0.
         13    1    3    3    0    0  0.18158327189E+02 -0.57651991848E+02  0.84118098450E+01  0.61026606650E+02  0.10566000000E+00 0.  1.
         22    1    1    0    0    0 -0.12496644778E+01  0.28522596568E+02  0.22665733330E+01  0.28639789297E+02  0.00000000000E+00 0.  1.
</event>
<event>
 5    1  0.1724243E-003  0.9118800E+02  0.7818608E-02  0.1130116E+00
         25   -1    0    0    0    0  0.00000000000E+00  0.00000000000E+00  0.99999998245E-14  0.12500000000E+03  0.12500000000E+03 0.  0.
        -13    1    3    3    0    0 -0.47036984754E+02  0.34125934092E+02 -0.65290574311E+01  0.58478175992E+02  0.10566000000E+00 0.  1.
         23    2    1    0    0    0 -0.12614141216E+02  0.26453497374E+02  0.43186540314E+01  0.95376447637E+02  0.90659317830E+02 0.  0.
         13    1    3    3    0    0  0.34422843538E+02 -0.76724367178E+01  0.10847711463E+02  0.36898271645E+02  0.10566000000E+00 0. -1.
         22    1    1    0    0    0  0.12614141216E+02 -0.26453497374E+02 -0.43186540314E+01  0.29623552363E+02  0.00000000000E+00 0.  1.
</event>
<event>
 5    1  0.1724243E-003  0.9118800E+02  0.7818608E-02  0.1130116E+00
         25   -1    0    0    0    0  0.00000000000E+00  0.00000000000E+00  0.99999998245E-14  0.12500000000E+03  0.12500000000E+03 0.  0.
        -13    1    3    3    0    0 -0.25454005845E+02 -0.32752750206E+02 -0.17634208938E+01  0.41518307732E+02  0.10566000000E+00 0. -1.
         23    2    1    0    0    0 -0.10617070321E+02  0.14663323823E+02  0.21930873242E+02  0.96562376174E+02  0.92279976395E+02 0.  0.
         13    1    3    3    0    0  0.14836935524E+02  0.47416074029E+02  0.23694294135E+02  0.55044068442E+02  0.10566000000E+00 0.  1.
         22    1    1    0    0    0  0.10617070321E+02 -0.14663323823E+02 -0.21930873242E+02  0.28437623826E+02  0.00000000000E+00 0.  1.
</event>
<event>
 5    1  0.1724243E-003  0.9118800E+02  0.7818608E-02  0.1130116E+00
         25   -1    0    0    0    0  0.00000000000E+00  0.00000000000E+00  0.99999998245E-14  0.12500000000E+03  0.12500000000E+03 0.  0.
        -13    1    3    3    0    0 -0.31363192504E+02 -0.46020116934E+02 -0.17521111743E+02  0.58382373431E+02  0.10566000000E+00 0. -1.
         23    2    1    0    0    0 -0.97408004811E+01 -0.32676147479E+02  0.26153798294E+01  0.90802719118E+02  0.84117059979E+02 0.  0.
         13    1    3    3    0    0  0.21622392023E+02  0.13343969456E+02  0.20136491572E+02  0.32420345688E+02  0.10566000000E+00 0.  1.
         22    1    1    0    0    0  0.97408004811E+01  0.32676147479E+02 -0.26153798294E+01  0.34197280882E+02  0.00000000000E+00 0. -1.
</event>
<event>
 5    1  0.1724243E-003  0.9118800E+02  0.7818608E-02  0.1130116E+00
         25   -1    0    0    0    0  0.00000000000E+00  0.00000000000E+00  0.99999998245E-14  0.12500000000E+03  0.12500000000E+03 0.  0.
        -13    1    3    3    0    0 -0.57049190980E+01  0.14237011307E+02  0.36125997096E+02  0.39247132674E+02  0.10566000000E+00 0.  1.
         23    2    1    0    0    0  0.28901221221E+02  0.28102646221E+01 -0.64131384816E+01  0.95262708252E+02  0.90502359434E+02 0.  0.
         13    1    3    3    0    0  0.34606140319E+02 -0.11426746685E+02 -0.42539135578E+02  0.56015575578E+02  0.10566000000E+00 0. -1.
         22    1    1    0    0    0 -0.28901221221E+02 -0.28102646221E+01  0.64131384816E+01  0.29737291748E+02  0.00000000000E+00 0. -1.
</event>
<event>
 5    1  0.1724243E-003  0.9118800E+02  0.7818608E-02  0.1130116E+00
         25   -1    0    0    0    0  0.00000000000E+00  0.00000000000E+00  0.99999998245E-14  0.12500000000E+03  0.12500000000E+03 0.  0.
        -13    1    3    3    0    0  0.11843348393E+02  0.64248898910E+01  0.59040919490E+02  0.60558941945E+02  0.10566000000E+00 0.  1.
         23    2    1    0    0    0 -0.19213452694E+01 -0.51669050866E+01  0.28200209285E+02  0.96266043093E+02  0.91877694644E+02 0.  0.
         13    1    3    3    0    0 -0.13764693662E+02 -0.11591794978E+02 -0.30840710204E+02  0.35707101148E+02  0.10566000000E+00 0. -1.
         22    1    1    0    0    0  0.19213452694E+01  0.51669050866E+01 -0.28200209285E+02  0.28733956907E+02  0.00000000000E+00 0.  1.
</event>
<event>
 5    1  0.1724243E-003  0.9118800E+02  0.7818608E-02  0.1130116E+00
         25   -1    0    0    0    0  0.00000000000E+00  0.00000000000E+00  0.99999998245E-14  0.12500000000E+03  0.12500000000E+03 0.  0.
        -13    1    3    3    0    0  0.48062524055E+02  0.30542928213E+02  0.21512890382E+02  0.60874397730E+02  0.10566000000E+00 0. -1.
         23    2    1    0    0    0  0.14689214832E+02  0.20618621324E+02  0.12092868250E+02  0.96944019529E+02  0.92795500334E+02 0.  0.
         13    1    3    3    0    0 -0.33373309223E+02 -0.99243068891E+01 -0.94200221323E+01  0.36069621799E+02  0.10566000000E+00 0.  1.
         22    1    1    0    0    0 -0.14689214832E+02 -0.20618621324E+02 -0.12092868250E+02  0.28055980471E+02  0.00000000000E+00 0. -1.
</event>
<event>
 5    1  0.1724243E-003  0.9118800E+02  0.7818608E-02  0.1130116E+00
         25   -1    0    0    0    0  0.00000000000E+00  0.00000000000E+00  0.99999998245E-14  0.12500000000E+03  0.12500000000E+03 0.  0.
        -13    1    3    3    0    0  0.24661563000E+02  0.36915399961E+02  0.23390079706E+02  0.50180139862E+02  0.10566000000E+00 0. -1.
         23    2    1    0    0    0 -0.16187923474E+02  0.17097579307E+02  0.16838160604E+02  0.96053502161E+02  0.91588075317E+02 0.  0.
         13    1    3    3    0    0 -0.40849486474E+02 -0.19817820654E+02 -0.65519191019E+01  0.45873362299E+02  0.10566000000E+00 0.  1.
         22    1    1    0    0    0  0.16187923474E+02 -0.17097579307E+02 -0.16838160604E+02  0.28946497839E+02  0.00000000000E+00 0. -1.
</event>
<event>
 5    1  0.1724243E-003  0.9118800E+02  0.7818608E-02  0.1130116E+00
         25   -1    0    0    0    0  0.00000000000E+00  0.00000000000E+00  0.99999998245E-14  0.12500000000E+03  0.12500000000E+03 0.  0.
        -13    1    3    3    0    0  0.36854173262E+02  0.11683979095E+02 -0.38337440373E+02  0.54447368648E+02  0.10566000000E+00 0. -1.
         23    2    1    0    0    0  0.34850041126E+01 -0.91013453697E+01 -0.28367262065E+02  0.95005312166E+02  0.90146148234E+02 0.  0.
         13    1    3    3    0    0 -0.33369169150E+02 -0.20785324465E+02  0.99701783080E+01  0.40557943517E+02  0.10566000000E+00 0.  1.
         22    1    1    0    0    0 -0.34850041126E+01  0.91013453697E+01  0.28367262065E+02  0.29994687834E+02  0.00000000000E+00 0. -1.
</event>
<event>
 5    1  0.1724243E-003  0.9118800E+02  0.7818608E-02  0.1130116E+00
         25   -1    0    0    0    0  0.00000000000E+00  0.00000000000E+00  0.99999998245E-14  0.12500000000E+03  0.12500000000E+03 0.  0.
        -13    1    3    3    0    0 -0.26176743487E+01 -0.23368748210E+02 -0.24157282015E+02  0.33712550338E+02  0.10566000000E+00 0.  1.
         23    2    1    0    0    0  0.24695162189E+02  0.19046977507E+02  0.70396892161E+01  0.93028205994E+02  0.87361613415E+02 0.  0.
         13    1    3    3    0    0  0.27312836538E+02  0.42415725717E+02  0.31196971231E+02  0.59315655656E+02  0.10566000000E+00 0. -1.
         22    1    1    0    0    0 -0.24695162189E+02 -0.19046977507E+02 -0.70396892161E+01  0.31971794006E+02  0.00000000000E+00 0. -1.
</event>
<event>
 5    1  0.1724243E-003  0.9118800E+02  0.7818608E-02  0.1130116E+00
         25   -1    0    0    0    0  0.00000000000E+00  0.00000000000E+00  0.99999998245E-14  0.12500000000E+03  0.12500000000E+03 0.  0.
        -13    1    3    3    0    0  0.17920972331E+02 -0.33244581242E+02 -0.88523223187E+01  0.38790955205E+02  0.10566000000E+00 0. -1.
         23    2    1    0    0    0 -0.93253880795E+01  0.25598227160E+01  0.26999584312E+02  0.96320859354E+02  0.91952242162E+02 0.  0.
         13    1    3    3    0    0 -0.27246360410E+02  0.35804403958E+02  0.35851906630E+02  0.57529904150E+02  0.10566000000E+00 0.  1.
         22    1    1    0    0    0  0.93253880795E+01 -0.25598227160E+01 -0.26999584312E+02  0.28679140646E+02  0.00000000000E+00 0.  1.
</event>
<event>
 5    1  0.1724243E-003  0.9118800E+02  0.7818608E-02  0.1130116E+00
         25   -1    0    0    0    0  0.00000000000E+00  0.00000000000E+00  0.99999998245E-14  0.12500000000E+03  0.12500000000E+03 0.  0.
        -13    1    3    3    0    0  0.38327109473E+02 -0.37490913144E+02 -0.29324281968E+02  0.61110232906E+02  0.10566000000E+00 0. -1.
         23    2    1    0    0    0  0.15100570900E+02 -0.26284606513E+02 -0.10974659805E+02  0.92761033843E+02  0.86978494243E+02 0.  0.
         13    1    3    3    0    0 -0.23226538573E+02  0.11206306632E+02  0.18349622163E+02  0.31650800937E+02  0.10566000000E+00 0.  1.
         22    1    1    0    0    0 -0.15100570900E+02  0.26284606513E+02  0.10974659805E+02  0.32238966157E+02  0.00000000000E+00 0. -1.
</event>
<event>
 4    1  0.1724243E-003  0.9118800E+02  0.7818608E-02  0.1130116E+00
         25   -1    0    0    0    0  0.00000000000E+00  0.00000000000E+00  0.99999998245E-14  0.12500000000E+03  0.12500000000E+03 0.  0.
        -13    1    1    0    0    0  0.16079956346E+02 -0.39428875901E+02  0.10468179226E+02  0.43849688610E+02  0.10566000000E+00 0. -1.
         13    1    1    0    0    0  0.55127523832E+01 -0.12991271011E+02 -0.19157980638E+02  0.23795019384E+02  0.10566000000E+00 0.  1.
         22    1    1    0    0    0 -0.21592708729E+02  0.52420146912E+02  0.86898014116E+01  0.57355292006E+02  0.00000000000E+00 0. -1.
</event>
<event>
 5    1  0.1724243E-003  0.9118800E+02  0.7818608E-02  0.1130116E+00
         25   -1    0    0    0    0  0.00000000000E+00  0.00000000000E+00  0.99999998245E-14  0.12500000000E+03  0.12500000000E+03 0.  0.
        -13    1    3    3    0    0  0.47921494439E+02  0.12516279812E+02  0.18002080973E+02  0.52699269188E+02  0.10566000000E+00 0.  1.
         23    2    1    0    0    0  0.22814600052E+02 -0.63848965315E+01 -0.13942306571E+02  0.97510714964E+02  0.93555752047E+02 0.  0.
         13    1    3    3    0    0 -0.25106894387E+02 -0.18901176343E+02 -0.31944387545E+02  0.44811445776E+02  0.10566000000E+00 0. -1.
         22    1    1    0    0    0 -0.22814600052E+02  0.63848965315E+01  0.13942306571E+02  0.27489285036E+02  0.00000000000E+00 0.  1.
</event>
<event>
 5    1  0.1724243E-003  0.9118800E+02  0.7818608E-02  0.1130116E+00
         25   -1    0    0    0    0  0.00000000000E+00  0.00000000000E+00  0.99999998245E-14  0.12500000000E+03  0.12500000000E+03 0.  0.
        -13    1    3    3    0    0 -0.46408584490E+02 -0.13133472024E+02  0.37847223502E+02  0.61307979029E+02  0.10566000000E+00 0. -1.
         23    2    1    0    0    0 -0.24397725152E+02  0.14337823057E+01  0.14273828720E+02  0.96697227863E+02  0.92462462469E+02 0.  0.
         13    1    3    3    0    0  0.22010859338E+02  0.14567254330E+02 -0.23573394782E+02  0.35389248835E+02  0.10566000000E+00 0.  1.
         22    1    1    0    0    0  0.24397725152E+02 -0.14337823057E+01 -0.14273828720E+02  0.28302772137E+02  0.00000000000E+00 0. -1.
</event>
<event>
 5    1  0.1724243E-003  0.9118800E+02  0.7818608E-02  0.1130116E+00
         25   -1    0    0    0    0  0.00000000000E+00  0.00000000000E+00  0.99999998245E-14  0.12500000000E+03  0.12500000000E+03 0.  0.
        -13    1    3    3    0    0 -0.52722212720E+01 -0.91979582104E+01  0.61167929766E+02  0.62079993140E+02  0.10566000000E+00 0. -1.
         23    2    1    0    0    0 -0.74199086461E+01 -0.30381479103E+01  0.28466965195E+02  0.95425458677E+02  0.90726868508E+02 0.  0.
         13    1    3    3    0    0 -0.21476873741E+01  0.61598103002E+01 -0.32700964570E+02  0.33345465537E+02  0.10566000000E+00 0.  1.
         22    1    1    0    0    0  0.74199086461E+01  0.30381479103E+01 -0.28466965195E+02  0.29574541323E+02  0.00000000000E+00 0. -1.
</event>
<event>
 5    1  0.1724243E-003  0.9118800E+02  0.7818608E-02  0.1130116E+00
         25   -1    0    0    0    0  0.00000000000E+00  0.00000000000E+00  0.99999998245E-14  0.12500000000E+03  0.12500000000E+03 0.  0.
        -13    1    3    3    0    0 -0.25017736809E+02 -0.16350184052E+02  0.32463055266E+02  0.44125693137E+02  0.10566000000E+00 0.  1.
         23    2    1    0    0    0 -0.22995822586E+02 -0.16072430684E+02 -0.16047252289E+02  0.92679028627E+02  0.86860561572E+02 0.  0.
         13    1    3    3    0    0  0.20219142222E+01  0.27775336828E+00 -0.48510307555E+02  0.48553335490E+02  0.10566000000E+00 0. -1.
         22    1    1    0    0    0  0.22995822586E+02  0.16072430684E+02  0.16047252289E+02  0.32320971373E+02  0.00000000000E+00 0. -1.
</event>
<event>
 5    1  0.1724243E-003  0.9118800E+02  0.7818608E-02  0.1130116E+00
         25   -1    0    0    0    0  0.00000000000E+00  0.00000000000E+00  0.99999998245E-14  0.12500000000E+03  0.12500000000E+03 0.  0.
        -13    1    3    3    0    0  0.44061891584E+02  0.49668964024E+01  0.17589969823E+02  0.47702605298E+02  0.10566000000E+00 0. -1.
         23    2    1    0    0    0  0.21292196803E+02 -0.14436482165E+02 -0.17555059098E+02  0.93855983529E+02  0.88538104127E+02 0.  0.
         13    1    3    3    0    0 -0.22769694781E+02 -0.19403378567E+02 -0.35145028922E+02  0.46153378231E+02  0.10566000000E+00 0.  1.
         22    1    1    0    0    0 -0.21292196803E+02  0.14436482165E+02  0.17555059098E+02  0.31144016471E+02  0.00000000000E+00 0. -1.
</event>
<event>
 5    1  0.1724243E-003  0.9118800E+02  0.7818608E-02  0.1130116E+00
         25   -1    0    0    0    0  0.00000000000E+00  0.00000000000E+00  0.99999998245E-14  0.12500000000E+03  0.12500000000E+03 0.  0.
        -13    1    3    3    0    0 -0.40120164218E+02 -0.39014063970E+02  0.95583372561E+01  0.56772332518E+02  0.10566000000E+00 0. -1.
         23    2    1    0    0    0 -0.22637321312E+02 -0.12296954804E+02 -0.13268718414E+02  0.96022037649E+02  0.91545122275E+02 0.  0.
         13    1    3    3    0    0  0.17482842906E+02  0.26717109167E+02 -0.22827055670E+02  0.39249705131E+02  0.10566000000E+00 0.  1.
         22    1    1    0    0    0  0.22637321312E+02  0.12296954804E+02  0.13268718414E+02  0.28977962351E+02  0.00000000000E+00 0. -1.
</event>
<event>
 5    1  0.1724243E-003  0.9118800E+02  0.7818608E-02  0.1130116E+00
         25   -1    0    0    0    0  0.00000000000E+00  0.00000000000E+00  0.99999998245E-14  0.12500000000E+03  0.12500000000E+03 0.  0.
        -13    1    3    3    0    0  0.32842570138E+01 -0.50117822399E+02  0.15257841722E+02  0.52491859980E+02  0.10566000000E+00 0. -1.
         23    2    1    0    0    0 -0.23335708681E+02 -0.21057005307E+02  0.80207506649E+01  0.92561054065E+02  0.86690619540E+02 0.  0.
         13    1    3    3    0    0 -0.26619965695E+02  0.29060817091E+02 -0.72370910568E+01  0.40069194085E+02  0.10566000000E+00 0.  1.
         22    1    1    0    0    0  0.23335708681E+02  0.21057005307E+02 -0.80207506649E+01  0.32438945935E+02  0.00000000000E+00 0. -1.
</event>
<event>
 5    1  0.1724243E-003  0.9118800E+02  0.7818608E-02  0.1130116E+00
         25   -1    0    0    0    0  0.00000000000E+00  0.00000000000E+00  0.99999998245E-14  0.12500000000E+03  0.12500000000E+03 0.  0.
        -13    1    3    3    0    0 -0.33333427183E+02  0.34098318006E+02 -0.44980488672E+01  0.47896307439E+02  0.10566000000E+00 0.  1.
         23    2    1    0    0    0 -0.17511400661E+02 -0.20526234318E+01  0.23018814948E+02  0.96004685591E+02  0.91521425894E+02 0.  0.
         13    1    3    3    0    0  0.15822026522E+02 -0.36150941438E+02  0.27516863816E+02  0.48108378152E+02  0.10566000000E+00 0. -1.
         22    1    1    0    0    0  0.17511400661E+02  0.20526234318E+01 -0.23018814948E+02  0.28995314409E+02  0.00000000000E+00 0. -1.
</event>
<event>
 5    1  0.1724243E-003  0.9118800E+02  0.7818608E-02  0.1130116E+00
         25   -1    0    0    0    0  0.00000000000E+00  0.00000000000E+00  0.99999998245E-14  0.12500000000E+03  0.12500000000E+03 0.  0.
        -13    1    3    3    0    0 -0.16975988211E+02 -0.86005943061E+01  0.57025933339E+02  0.60117573433E+02  0.10566000000E+00 0. -1.
         23    2    1    0    0    0 -0.13287615058E+02 -0.14721121041E+02  0.24200271011E+02  0.93712219067E+02  0.88334901182E+02 0.  0.
         13    1    3    3    0    0  0.36883731523E+01 -0.61205267354E+01 -0.32825662328E+02  0.33594645635E+02  0.10566000000E+00 0.  1.
         22    1    1    0    0    0  0.13287615058E+02  0.14721121041E+02 -0.24200271011E+02  0.31287780933E+02  0.00000000000E+00 0. -1.
</event>
<event>
 5    1  0.1724243E-003  0.9118800E+02  0.7818608E-02  0.1130116E+00
         25   -1    0    0    0    0  0.00000000000E+00  0.00000000000E+00  0.99999998245E-14  0.12500000000E+03  0.12500000000E+03 0.  0.
        -13    1    3    3    0    0  0.23623294533E+02  0.45326185617E+02  0.26227429366E+02  0.57449215507E+02  0.10566000000E+00 0.  1.
         23    2    1    0    0    0  0.84898072334E+01  0.13545705347E+02  0.28069604212E+02  0.92697281216E+02  0.86886824686E+02 0.  0.
         13    1    3    3    0    0 -0.15133487300E+02 -0.31780480270E+02  0.18421748463E+01  0.35248065709E+02  0.10566000000E+00 0. -1.
         22    1    1    0    0    0 -0.84898072334E+01 -0.13545705347E+02 -0.28069604212E+02  0.32302718784E+02  0.00000000000E+00 0.  1.
</event>
<event>
 5    1  0.1724243E-003  0.9118800E+02  0.7818608E-02  0.1130116E+00
         25   -1    0    0    0    0  0.00000000000E+00  0.00000000000E+00  0.99999998245E-14  0.12500000000E+03  0.12500000000E+03 0.  0.
        -13    1    3    3    0    0  0.28568384052E+00  0.32749892092E+02  0.17102713690E+02  0.36947950240E+02  0.10566000000E+00 0.  1.
         23    2    1    0    0    0  0.10696802118E+02 -0.24762890769E+01 -0.27887460438E+02  0.95028946751E+02  0.90178914873E+02 0.  0.
         13    1    3    3    0    0  0.10411118278E+02 -0.35226181169E+02 -0.44990174129E+02  0.58080996511E+02  0.10566000000E+00 0. -1.
         22    1    1    0    0    0 -0.10696802118E+02  0.24762890769E+01  0.27887460438E+02  0.29971053249E+02  0.00000000000E+00 0. -1.
</event>
<event>
 5    1  0.1724243E-003  0.9118800E+02  0.7818608E-02  0.1130116E+00
         25   -1    0    0    0    0  0.00000000000E+00  0.00000000000E+00  0.99999998245E-14  0.12500000000E+03  0.12500000000E+03 0.  0.
        -13    1    3    3    0    0  0.28566869666E+02 -0.52292976366E+01 -0.35893147868E+02  0.46170778900E+02  0.10566000000E+00 0.  1.
         23    2    1    0    0    0  0.86924161332E+01  0.27228938633E+02 -0.33971404630E+01  0.96216085036E+02  0.91809701334E+02 0.  0.
         13    1    3    3    0    0 -0.19874453532E+02  0.32458236270E+02  0.32496007405E+02  0.50045306136E+02  0.10566000000E+00 0. -1.
         22    1    1    0    0    0 -0.86924161332E+01 -0.27228938633E+02  0.33971404630E+01  0.28783914964E+02  0.00000000000E+00 0. -1.
</event>
<event>
 5    1  0.1724243E-003  0.9118800E+02  0.7818608E-02  0.1130116E+00
         25   -1    0    0    0    0  0.00000000000E+00  0.00000000000E+00  0.99999998245E-14  0.12500000000E+03  0.12500000000E+03 0.  0.
        -13    1    3    3    0    0 -0.11441261934E+02 -0.75212008129E+01 -0.35984346225E+02  0.38501367165E+02  0.10566000000E+00 0.  1.
         23    2    1    0    0    0 -0.12442152996E+01 -0.18171892545E+02  0.20906396571E+02  0.97271978650E+02  0.93236230418E+02 0.  0.
         13    1    3    3    0    0  0.10197046635E+02 -0.10650691733E+02  0.56890742796E+02  0.58770611485E+02  0.10566000000E+00 0. -1.
         22    1    1    0    0    0  0.12442152996E+01  0.18171892545E+02 -0.20906396571E+02  0.27728021350E+02  0.00000000000E+00 0. -1.
</event>
<event>
 5    1  0.1724243E-003  0.9118800E+02  0.7818608E-02  0.1130116E+00
         25   -1    0    0    0    0  0.00000000000E+00  0.00000000000E+00  0.99999998245E-14  0.12500000000E+03  0.12500000000E+03 0.  0.
        -13    1    3    3    0    0 -0.36471437880E+02  0.10851522433E+02 -0.19326519101E+02  0.42678411694E+02  0.10566000000E+00 0. -1.
         23    2    1    0    0    0 -0.83449976195E+01  0.13198296412E+02  0.25174867210E+02  0.95375551440E+02  0.90658082155E+02 0.  0.
         13    1    3    3    0    0  0.28126440260E+02  0.23467739786E+01  0.44501386311E+02  0.52697139746E+02  0.10566000000E+00 0.  1.
         22    1    1    0    0    0  0.83449976195E+01 -0.13198296412E+02 -0.25174867210E+02  0.29624448560E+02  0.00000000000E+00 0. -1.
</event>
<event>
 5    1  0.1724243E-003  0.9118800E+02  0.7818608E-02  0.1130116E+00
         25   -1    0    0    0    0  0.00000000000E+00  0.00000000000E+00  0.99999998245E-14  0.12500000000E+03  0.12500000000E+03 0.  0.
        -13    1    3    3    0    0 -0.28541853251E+01  0.11449922785E+02  0.54360601974E+02  0.55626732033E+02  0.10566000000E+00 0.  1.
         23    2    1    0    0    0 -0.15746206605E+02 -0.95681060406E+01  0.24221132444E+02  0.94567206298E+02  0.89536593494E+02 0.  0.
         13    1    3    3    0    0 -0.12892021280E+02 -0.21018028826E+02 -0.30139469530E+02  0.38940474265E+02  0.10566000000E+00 0. -1.
         22    1    1    0    0    0  0.15746206605E+02  0.95681060406E+01 -0.24221132444E+02  0.30432793702E+02  0.00000000000E+00 0.  1.
</event>
<event>
 5    1  0.1724243E-003  0.9118800E+02  0.7818608E-02  0.1130116E+00
         25   -1    0    0    0    0  0.00000000000E+00  0.00000000000E+00  0.99999998245E-14  0.12500000000E+03  0.12500000000E+03 0.  0.
        -13    1    3    3    0    0 -0.18906080617E+02 -0.76076515065E+01  0.29725648382E+02  0.36040832142E+02  0.10566000000E+00 0. -1.
         23    2    1    0    0    0  0.27704574490E+02  0.81720885360E+01 -0.42002679950E+01  0.95811496614E+02  0.91257186859E+02 0.  0.
         13    1    3    3    0    0  0.46610655107E+02  0.15779740043E+02 -0.33925916377E+02  0.59770664471E+02  0.10566000000E+00 0.  1.
         22    1    1    0    0    0 -0.27704574490E+02 -0.81720885360E+01  0.42002679950E+01  0.29188503386E+02  0.00000000000E+00 0.  1.
</event>
<event>
 5    1  0.1724243E-003  0.9118800E+02  0.7818608E-02  0.1130116E+00
         25   -1    0    0    0    0  0.00000000000E+00  0.00000000000E+00  0.99999998245E-14  0.12500000000E+03  0.12500000000E+03 0.  0.
        -13    1    3    3    0    0 -0.15698286479E+02  0.26283407238E+02 -0.89784010388E+01  0.31904177527E+02  0.10566000000E+00 0.  1.
         23    2    1    0    0    0 -0.97004223090E+01 -0.31293929685E+02 -0.12579577040E+02  0.89905071782E+02  0.82772386371E+02 0.  0.
         13    1    3    3    0    0  0.59978641698E+01 -0.57577336923E+02 -0.36011760011E+01  0.58000894255E+02  0.10566000000E+00 0. -1.
         22    1    1    0    0    0  0.97004223090E+01  0.31293929685E+02  0.12579577040E+02  0.35094928218E+02  0.00000000000E+00 0. -1.
</event>
<event>
 5    1  0.1724243E-003  0.9118800E+02  0.7818608E-02  0.1130116E+00
         25   -1    0    0    0    0  0.00000000000E+00  0.00000000000E+00  0.99999998245E-14  0.12500000000E+03  0.12500000000E+03 0.  0.
        -13    1    3    3    0    0 -0.31967842689E+02  0.26341656480E+02  0.12223741052E+02  0.43188619353E+02  0.10566000000E+00 0. -1.
         23    2    1    0    0    0  0.18511000544E+02  0.23161836562E+02 -0.50847988630E+00  0.95345550656E+02  0.90616707423E+02 0.  0.
         13    1    3    3    0    0  0.50478843234E+02 -0.31798199177E+01 -0.12732220938E+02  0.52156931303E+02  0.10566000000E+00 0.  1.
         22    1    1    0    0    0 -0.18511000544E+02 -0.23161836562E+02  0.50847988630E+00  0.29654449344E+02  0.00000000000E+00 0.  1.
</event>
<event>
 5    1  0.1724243E-003  0.9118800E+02  0.7818608E-02  0.1130116E+00
         25   -1    0    0    0    0  0.00000000000E+00  0.00000000000E+00  0.99999998245E-14  0.12500000000E+03  0.12500000000E+03 0.  0.
        -13    1    3    3    0    0  0.42267532759E+02  0.39422727716E+00 -0.10684204133E+02  0.43598889007E+02  0.10566000000E+00 0.  1.
         23    2    1    0    0    0  0.78336169763E+01  0.19043778825E+02  0.22189325924E+02  0.94727946025E+02  0.89760718058E+02 0.  0.
         13    1    3    3    0    0 -0.34433915783E+02  0.18649551548E+02  0.32873530057E+02  0.51129057018E+02  0.10566000000E+00 0. -1.
         22    1    1    0    0    0 -0.78336169763E+01 -0.19043778825E+02 -0.22189325924E+02  0.30272053975E+02  0.00000000000E+00 0. -1.
</event>
<event>
 5    1  0.1724243E-003  0.9118800E+02  0.7818608E-02  0.1130116E+00
         25   -1    0    0    0    0  0.00000000000E+00  0.00000000000E+00  0.99999998245E-14  0.12500000000E+03  0.12500000000E+03 0.  0.
        -13    1    3    3    0    0 -0.19105505505E+02  0.27991567466E+02 -0.29109305702E+02  0.44675620111E+02  0.10566000000E+00 0.  1.
         23    2    1    0    0    0 -0.22984942152E+02  0.53614981932E+01  0.16815649482E+02  0.96020364113E+02  0.91542837122E+02 0.  0.
         13    1    3    3    0    0 -0.38794366473E+01 -0.22630069273E+02  0.45924955184E+02  0.51344744003E+02  0.10566000000E+00 0. -1.
         22    1    1    0    0    0  0.22984942152E+02 -0.53614981932E+01 -0.16815649482E+02  0.28979635887E+02  0.00000000000E+00 0. -1.
</event>
<event>
 5    1  0.1724243E-003  0.9118800E+02  0.7818608E-02  0.1130116E+00
         25   -1    0    0    0    0  0.00000000000E+00  0.00000000000E+00  0.99999998245E-14  0.12500000000E+03  0.12500000000E+03 0.  0.
        -13    1    3    3    0    0  0.17333254256E+02 -0.37524987520E+02  0.12045794501E+02  0.43054369356E+02  0.10566000000E+00 0. -1.
         23    2    1    0    0    0 -0.19226180705E+02 -0.13305981997E+02 -0.17380675613E+02  0.95866118244E+02  0.91331974472E+02 0.  0.
         13    1    3    3    0    0 -0.36559434961E+02  0.24219005523E+02 -0.29426470114E+02  0.52811748888E+02  0.10566000000E+00 0.  1.
         22    1    1    0    0    0  0.19226180705E+02  0.13305981997E+02  0.17380675613E+02  0.29133881756E+02  0.00000000000E+00 0. -1.
</event>
<event>
 5    1  0.1724243E-003  0.9118800E+02  0.7818608E-02  0.1130116E+00
         25   -1    0    0    0    0  0.00000000000E+00  0.00000000000E+00  0.99999998245E-14  0.12500000000E+03  0.12500000000E+03 0.  0.
        -13    1    3    3    0    0 -0.26730412222E+02 -0.10704341867E+02  0.43637817992E+02  0.52281623880E+02  0.10566000000E+00 0.  1.
         23    2    1    0    0    0 -0.30060912194E+02  0.78697241169E+00  0.28431305881E+01  0.94794683265E+02  0.89853607698E+02 0.  0.
         13    1    3    3    0    0 -0.33304999713E+01  0.11491314278E+02 -0.40794687404E+02  0.42513059386E+02  0.10566000000E+00 0. -1.
         22    1    1    0    0    0  0.30060912194E+02 -0.78697241169E+00 -0.28431305881E+01  0.30205316735E+02  0.00000000000E+00 0. -1.
</event>
<event>
 5    1  0.1724243E-003  0.9118800E+02  0.7818608E-02  0.1130116E+00
         25   -1    0    0    0    0  0.00000000000E+00  0.00000000000E+00  0.99999998245E-14  0.12500000000E+03  0.12500000000E+03 0.  0.
        -13    1    3    3    0    0 -0.52859668333E+02 -0.22846895361E+02  0.15521757966E+02  0.59641104100E+02  0.10566000000E+00 0.  1.
         23    2    1    0    0    0 -0.23933821138E+02  0.10844232093E+00  0.15344798673E+02  0.96569340487E+02  0.92289409587E+02 0.  0.
         13    1    3    3    0    0  0.28925847195E+02  0.22955337682E+02 -0.17695929253E+00  0.36928236387E+02  0.10566000000E+00 0. -1.
         22    1    1    0    0    0  0.23933821138E+02 -0.10844232093E+00 -0.15344798673E+02  0.28430659513E+02  0.00000000000E+00 0.  1.
</event>
<event>
 5    1  0.1724243E-003  0.9118800E+02  0.7818608E-02  0.1130116E+00
         25   -1    0    0    0    0  0.00000000000E+00  0.00000000000E+00  0.99999998245E-14  0.12500000000E+03  0.12500000000E+03 0.  0.
        -13    1    3    3    0    0 -0.16432885102E+01  0.27128669902E+02  0.51218922375E+02  0.57983224308E+02  0.10566000000E+00 0.  1.
         23    2    1    0    0    0 -0.14821724142E+02  0.27946238347E+01  0.22904972032E+02  0.97574990014E+02  0.93641590672E+02 0.  0.
         13    1    3    3    0    0 -0.13178435631E+02 -0.24334046067E+02 -0.28313950343E+02  0.39591765707E+02  0.10566000000E+00 0. -1.
         22    1    1    0    0    0  0.14821724142E+02 -0.27946238347E+01 -0.22904972032E+02  0.27425009986E+02  0.00000000000E+00 0.  1.
</event>
<event>
 5    1  0.1724243E-003  0.9118800E+02  0.7818608E-02  0.1130116E+00
         25   -1    0    0    0    0  0.00000000000E+00  0.00000000000E+00  0.99999998245E-14  0.12500000000E+03  0.12500000000E+03 0.  0.
        -13    1    3    3    0    0  0.45529990419E+02  0.71923853048E+01  0.28453919300E+02  0.54169614375E+02  0.10566000000E+00 0.  1.
         23    2    1    0    0    0  0.28032548460E+02 -0.73154951312E+01 -0.59691958431E+01  0.95420082130E+02  0.90719460606E+02 0.  0.
         13    1    3    3    0    0 -0.17497441959E+02 -0.14507880436E+02 -0.34423115144E+02  0.41250467756E+02  0.10566000000E+00 0. -1.
         22    1    1    0    0    0 -0.28032548460E+02  0.73154951312E+01  0.59691958431E+01  0.29579917870E+02  0.00000000000E+00 0.  1.
</event>
<event>
 5    1  0.1724243E-003  0.9118800E+02  0.7818608E-02  0.1130116E+00
         25   -1    0    0    0    0  0.00000000000E+00  0.00000000000E+00  0.99999998245E-14  0.12500000000E+03  0.12500000000E+03 0.  0.
        -13    1    3    3    0    0 -0.32809402299E+02  0.97804335658E+01  0.57080334936E+01  0.34708883162E+02  0.10566000000E+00 0. -1.
         23    2    1    0    0    0  0.22718340552E+02  0.92692007298E+01 -0.17467281256E+02  0.94881118977E+02  0.89973772535E+02 0.  0.
         13    1    3    3    0    0  0.55527742851E+02 -0.51123283599E+00 -0.23175314749E+02  0.60172235815E+02  0.10566000000E+00 0.  1.
         22    1    1    0    0    0 -0.22718340552E+02 -0.92692007298E+01  0.17467281256E+02  0.30118881023E+02  0.00000000000E+00 0.  1.
</event>
<event>
 5    1  0.1724243E-003  0.9118800E+02  0.7818608E-02  0.1130116E+00
         25   -1    0    0    0    0  0.00000000000E+00  0.00000000000E+00  0.99999998245E-14  0.12500000000E+03  0.12500000000E+03 0.  0.
        -13    1    3    3    0    0  0.82827220743E+00  0.57205556969E+02 -0.15912018287E+02  0.59383206995E+02  0.10566000000E+00 0. -1.
         23    2    1    0    0    0  0.90307026989E+01  0.27726774460E+02  0.35155314512E+01  0.95628473404E+02  0.91006144578E+02 0.  0.
         13    1    3    3    0    0  0.82024304914E+01 -0.29478782509E+02  0.19427549738E+02  0.36245266409E+02  0.10566000000E+00 0.  1.
         22    1    1    0    0    0 -0.90307026989E+01 -0.27726774460E+02 -0.35155314512E+01  0.29371526596E+02  0.00000000000E+00 0. -1.
</event>
<event>
 5    1  0.1724243E-003  0.9118800E+02  0.7818608E-02  0.1130116E+00
         25   -1    0    0    0    0  0.00000000000E+00  0.00000000000E+00  0.99999998245E-14  0.12500000000E+03  0.12500000000E+03 0.  0.
        -13    1    3    3    0    0  0.76098048972E+01 -0.25486429852E+02 -0.54347989180E+02  0.60507704709E+02  0.10566000000E+00 0.  1.
         23    2    1    0    0    0 -0.53686557835E+01 -0.17783545483E+02 -0.21979188902E+02  0.96222201271E+02  0.91818028283E+02 0.  0.
         13    1    3    3    0    0 -0.12978460681E+02  0.77028843688E+01  0.32368800278E+02  0.35714496563E+02  0.10566000000E+00 0. -1.
         22    1    1    0    0    0  0.53686557835E+01  0.17783545483E+02  0.21979188902E+02  0.28777798729E+02  0.00000000000E+00 0.  1.
</event>
<event>
 5    1  0.1724243E-003  0.9118800E+02  0.7818608E-02  0.1130116E+00
         25   -1    0    0    0    0  0.00000000000E+00  0.00000000000E+00  0.99999998245E-14  0.12500000000E+03  0.12500000000E+03 0.  0.
        -13    1    3    3    0    0 -0.21015365945E+02  0.22879481308E+02  0.52483164108E+02  0.60988605080E+02  0.10566000000E+00 0. -1.
         23    2    1    0    0    0 -0.10019979956E+02  0.17938042151E+01  0.28386051280E+02  0.94843978393E+02  0.89922158550E+02 0.  0.
         13    1    3    3    0    0  0.10995385989E+02 -0.21085677093E+02 -0.24097112828E+02  0.33855373314E+02  0.10566000000E+00 0.  1.
         22    1    1    0    0    0  0.10019979956E+02 -0.17938042151E+01 -0.28386051280E+02  0.30156021607E+02  0.00000000000E+00 0. -1.
</event>
<event>
 5    1  0.1724243E-003  0.9118800E+02  0.7818608E-02  0.1130116E+00
         25   -1    0    0    0    0  0.00000000000E+00  0.00000000000E+00  0.99999998245E-14  0.12500000000E+03  0.12500000000E+03 0.  0.
        -13    1    3    3    0    0  0.28398029992E+02 -0.18615212604E+02 -0.16620822724E+02  0.37805253071E+02  0.10566000000E+00 0.  1.
         23    2    1    0    0    0 -0.49867948938E+01  0.26173808454E+02  0.53332058722E+01  0.97826861477E+02  0.93977206648E+02 0.  0.
         13    1    3    3    0    0 -0.33384824886E+02  0.44789021058E+02  0.21954028596E+02  0.60021608406E+02  0.10566000000E+00 0. -1.
         22    1    1    0    0    0  0.49867948938E+01 -0.26173808454E+02 -0.53332058722E+01  0.27173138523E+02  0.00000000000E+00 0. -1.
</event>
<event>
 5    1  0.1724243E-003  0.9118800E+02  0.7818608E-02  0.1130116E+00
         25   -1    0    0    0    0  0.00000000000E+00  0.00000000000E+00  0.99999998245E-14  0.12500000000E+03  0.12500000000E+03 0.  0.
        -13    1    3    3    0    0  0.31637712123E+02 -0.63703837515E+01 -0.44383350468E+01  0.32576626583E+02  0.10566000000E+00 0. -1.
         23    2    1    0    0    0 -0.12268929176E+02  0.30666558328E+02  0.72223105168E+01  0.91189850755E+02  0.84690393131E+02 0.  0.
         13    1    3    3    0    0 -0.43906641299E+02  0.37036942079E+02  0.11660645564E+02  0.58613224171E+02  0.10566000000E+00 0.  1.
         22    1    1    0    0    0  0.12268929176E+02 -0.30666558328E+02 -0.72223105168E+01  0.33810149245E+02  0.00000000000E+00 0.  1.
</event>
<event>
 5    1  0.1724243E-003  0.9118800E+02  0.7818608E-02  0.1130116E+00
         25   -1    0    0    0    0  0.00000000000E+00  0.00000000000E+00  0.99999998245E-14  0.12500000000E+03  0.12500000000E+03 0.  0.
        -13    1    3    3    0    0  0.12854047120E+02 -0.15361663876E+02 -0.54527849489E+02  0.58090487847E+02  0.10566000000E+00 0.  1.
         23    2    1    0    0    0  0.11269404561E+02  0.86455999853E+01 -0.25670264582E+02  0.95662168417E+02  0.91052414050E+02 0.  0.
         13    1    3    3    0    0 -0.15846425590E+01  0.24007263861E+02  0.28857584907E+02  0.37571680570E+02  0.10566000000E+00 0. -1.
         22    1    1    0    0    0 -0.11269404561E+02 -0.86455999853E+01  0.25670264582E+02  0.29337831583E+02  0.00000000000E+00 0.  1.
</event>
<event>
 5    1  0.1724243E-003  0.9118800E+02  0.7818608E-02  0.1130116E+00
         25   -1    0    0    0    0  0.00000000000E+00  0.00000000000E+00  0.99999998245E-14  0.12500000000E+03  0.12500000000E+03 0.  0.
        -13    1    3    3    0    0  0.41758466362E+02 -0.28009605601E+02  0.14968329898E+02  0.52463030629E+02  0.10566000000E+00 0.  1.
         23    2    1    0    0    0  0.20990481957E+02 -0.10351815344E+02 -0.18168159471E+02  0.95371594165E+02  0.90652625673E+02 0.  0.
         13    1    3    3    0    0 -0.20767984404E+02  0.17657790257E+02 -0.33136489370E+02  0.42908563536E+02  0.10566000000E+00 0. -1.
         22    1    1    0    0    0 -0.20990481957E+02  0.10351815344E+02  0.18168159471E+02  0.29628405835E+02  0.00000000000E+00 0.  1.
</event>
<event>
 5    1  0.1724243E-003  0.9118800E+02  0.7818608E-02  0.1130116E+00
         25   -1    0    0    0    0  0.00000000000E+00  0.00000000000E+00  0.99999998245E-14  0.12500000000E+03  0.12500000000E+03 0.  0.
        -13    1    3    3    0    0  0.29938299139E+01 -0.84643402929E+01 -0.32580771859E+02  0.33795353721E+02  0.10566000000E+00 0.  1.
         23    2    1    0    0    0  0.10452460167E+01  0.17845748980E+02  0.23324468528E+02  0.95613027921E+02  0.90984927214E+02 0.  0.
         13    1    3    3    0    0 -0.19485838972E+01  0.26310089273E+02  0.55905240387E+02  0.61817674200E+02  0.10566000000E+00 0. -1.
         22    1    1    0    0    0 -0.10452460167E+01 -0.17845748980E+02 -0.23324468528E+02  0.29386972079E+02  0.00000000000E+00 0. -1.
</event>
<event>
 5    1  0.1724243E-003  0.9118800E+02  0.7818608E-02  0.1130116E+00
         25   -1    0    0    0    0  0.00000000000E+00  0.00000000000E+00  0.99999998245E-14  0.12500000000E+03  0.12500000000E+03 0.  0.
        -13    1    3    3    0    0 -0.54429602356E+01  0.26857251929E+02  0.46703222687E+02  0.54149237951E+02  0.10566000000E+00 0.  1.
         23    2    1    0    0    0  0.85370127011E+01 -0.75000368009E+01  0.25991958682E+02  0.96632535291E+02  0.92374963182E+02 0.  0.
         13    1    3    3    0    0  0.13979972937E+02 -0.34357288730E+02 -0.20711264005E+02  0.42483297340E+02  0.10566000000E+00 0. -1.
         22    1    1    0    0    0 -0.85370127011E+01  0.75000368009E+01 -0.25991958682E+02  0.28367464709E+02  0.00000000000E+00 0. -1.
</event>
<event>
 5    1  0.1724243E-003  0.9118800E+02  0.7818608E-02  0.1130116E+00
         25   -1    0    0    0    0  0.00000000000E+00  0.00000000000E+00  0.99999998245E-14  0.12500000000E+03  0.12500000000E+03 0.  0.
        -13    1    3    3    0    0 -0.26562995048E+02  0.15836420563E+02 -0.17227620698E+02  0.35400381369E+02  0.10566000000E+00 0. -1.
         23    2    1    0    0    0  0.29397626647E+02 -0.12114422343E+01 -0.62336823150E+01  0.94924314805E+02  0.90033764229E+02 0.  0.
         13    1    3    3    0    0  0.55960621695E+02 -0.17047862797E+02  0.10993938383E+02  0.59523933435E+02  0.10566000000E+00 0.  1.
         22    1    1    0    0    0 -0.29397626647E+02  0.12114422343E+01  0.62336823150E+01  0.30075685195E+02  0.00000000000E+00 0.  1.
</event>
<event>
 5    1  0.1724243E-003  0.9118800E+02  0.7818608E-02  0.1130116E+00
         25   -1    0    0    0    0  0.00000000000E+00  0.00000000000E+00  0.99999998245E-14  0.12500000000E+03  0.12500000000E+03 0.  0.
        -13    1    3    3    0    0  0.33926414135E+02 -0.32926435541E+01  0.10170638391E+02  0.35571001208E+02  0.10566000000E+00 0.  1.
         23    2    1    0    0    0 -0.23436630199E+02 -0.56599540140E+01 -0.13147741426E+02  0.97537774687E+02  0.93591899606E+02 0.  0.
         13    1    3    3    0    0 -0.57363044334E+02 -0.23673104599E+01 -0.23318379818E+02  0.61966773479E+02  0.10566000000E+00 0. -1.
         22    1    1    0    0    0  0.23436630199E+02  0.56599540140E+01  0.13147741426E+02  0.27462225313E+02  0.00000000000E+00 0. -1.
</event>
<event>
 5    1  0.1724243E-003  0.9118800E+02  0.7818608E-02  0.1130116E+00
         25   -1    0    0    0    0  0.00000000000E+00  0.00000000000E+00  0.99999998245E-14  0.12500000000E+03  0.12500000000E+03 0.  0.
        -13    1    3    3    0    0 -0.29935852456E+02  0.32627093701E+02  0.34025652877E+02  0.55842982758E+02  0.10566000000E+00 0. -1.
         23    2    1    0    0    0  0.14597620873E+01  0.58502972293E+01  0.26544397237E+02  0.97779384509E+02  0.93914035837E+02 0.  0.
         13    1    3    3    0    0  0.31395614543E+02 -0.26776796471E+02 -0.74812556397E+01  0.41936401750E+02  0.10566000000E+00 0.  1.
         22    1    1    0    0    0 -0.14597620873E+01 -0.58502972293E+01 -0.26544397237E+02  0.27220615491E+02  0.00000000000E+00 0. -1.
</event>
<event>
 5    1  0.1724243E-003  0.9118800E+02  0.7818608E-02  0.1130116E+00
         25   -1    0    0    0    0  0.00000000000E+00  0.00000000000E+00  0.99999998245E-14  0.12500000000E+03  0.12500000000E+03 0.  0.
        -13    1    3    3    0    0 -0.23916508248E+02  0.24952604070E+02 -0.35491450241E+02  0.49540751113E+02  0.10566000000E+00 0. -1.
         23    2    1    0    0    0 -0.37029704766E+01  0.29413734155E+02  0.49230117746E+01  0.94948114997E+02  0.90066801593E+02 0.  0.
         13    1    3    3    0    0  0.20213537771E+02  0.44611300855E+01  0.40414462015E+02  0.45407363884E+02  0.10566000000E+00 0.  1.
         22    1    1    0    0    0  0.37029704766E+01 -0.29413734155E+02 -0.49230117746E+01  0.30051885003E+02  0.00000000000E+00 0.  1.
</event>
<event>
 5    1  0.1724243E-003  0.9118800E+02  0.7818608E-02  0.1130116E+00
         25   -1    0    0    0    0  0.00000000000E+00  0.00000000000E+00  0.99999998245E-14  0.12500000000E+03  0.12500000000E+03 0.  0.
        -13    1    3    3    0    0  0.41103621687E+02 -0.91059872728E+01  0.24985203065E+01  0.42174405600E+02  0.10566000000E+00 0. -1.
         23    2    1    0    0    0 -0.99733923056E+01 -0.26863059409E+02  0.23338694442E+01  0.96250400673E+02  0.91856410600E+02 0.  0.
         13    1    3    3    0    0 -0.51077013992E+02 -0.17757072136E+02 -0.16465086224E+00  0.54075995073E+02  0.10566000000E+00 0.  1.
         22    1    1    0    0    0  0.99733923056E+01  0.26863059409E+02 -0.23338694442E+01  0.28749599327E+02  0.00000000000E+00 0.  1.
</event>
<event>
 5    1  0.1724243E-003  0.9118800E+02  0.7818608E-02  0.1130116E+00
         25   -1    0    0    0    0  0.00000000000E+00  0.00000000000E+00  0.99999998245E-14  0.12500000000E+03  0.12500000000E+03 0.  0.
        -13    1    3    3    0    0  0.29275905920E+02 -0.39337596259E+02  0.94704356778E+01  0.49942221244E+02  0.10566000000E+00 0.  1.
         23    2    1    0    0    0 -0.13638096264E+02 -0.25571039556E+02 -0.11822750111E+00  0.96019149229E+02  0.91541178205E+02 0.  0.
         13    1    3    3    0    0 -0.42914002184E+02  0.13766556703E+02 -0.95886631790E+01  0.46076927985E+02  0.10566000000E+00 0. -1.
         22    1    1    0    0    0  0.13638096264E+02  0.25571039556E+02  0.11822750111E+00  0.28980850771E+02  0.00000000000E+00 0. -1.
</event>
<event>
 5    1  0.1724243E-003  0.9118800E+02  0.7818608E-02  0.1130116E+00
         25   -1    0    0    0    0  0.00000000000E+00  0.00000000000E+00  0.99999998245E-14  0.12500000000E+03  0.12500000000E+03 0.  0.
        -13    1    3    3    0    0  0.25589152235E+02 -0.32770460398E+02 -0.11660919262E+02  0.43182125803E+02  0.10566000000E+00 0.  1.
         23    2    1    0    0    0  0.19854156510E+02  0.11634162428E+02  0.17040957548E+02  0.96365484110E+02  0.92012885116E+02 0.  0.
         13    1    3    3    0    0 -0.57349957257E+01  0.44404622826E+02  0.28701876810E+02  0.53183358306E+02  0.10566000000E+00 0. -1.
         22    1    1    0    0    0 -0.19854156510E+02 -0.11634162428E+02 -0.17040957548E+02  0.28634515890E+02  0.00000000000E+00 0. -1.
</event>
<event>
 5    1  0.1724243E-003  0.9118800E+02  0.7818608E-02  0.1130116E+00
         25   -1    0    0    0    0  0.00000000000E+00  0.00000000000E+00  0.99999998245E-14  0.12500000000E+03  0.12500000000E+03 0.  0.
        -13    1    3    3    0    0 -0.32178773091E+02  0.33764546366E+01  0.37064103013E+01  0.32567200139E+02  0.10566000000E+00 0. -1.
         23    2    1    0    0    0  0.26463392189E+02  0.42690858442E+01 -0.15195592063E+02  0.94186979404E+02  0.89004184458E+02 0.  0.
         13    1    3    3    0    0  0.58642165280E+02  0.89263120755E+00 -0.18902002364E+02  0.61619779265E+02  0.10566000000E+00 0.  1.
         22    1    1    0    0    0 -0.26463392189E+02 -0.42690858442E+01  0.15195592063E+02  0.30813020596E+02  0.00000000000E+00 0.  1.
</event>
<event>
 5    1  0.1724243E-003  0.9118800E+02  0.7818608E-02  0.1130116E+00
         25   -1    0    0    0    0  0.00000000000E+00  0.00000000000E+00  0.99999998245E-14  0.12500000000E+03  0.12500000000E+03 0.  0.
        -13    1    3    3    0    0  0.26133259644E+01 -0.14897875681E+02  0.34102574816E+02  0.37306473239E+02  0.10566000000E+00 0. -1.
         23    2    1    0    0    0 -0.24762946622E+02  0.15113626726E+02 -0.70644628757E+01  0.95141468992E+02  0.90334751054E+02 0.  0.
         13    1    3    3    0    0 -0.27376272587E+02  0.30011502407E+02 -0.41167037691E+02  0.57834995753E+02  0.10566000000E+00 0.  1.
         22    1    1    0    0    0  0.24762946622E+02 -0.15113626726E+02  0.70644628757E+01  0.29858531008E+02  0.00000000000E+00 0.  1.
</event>
<event>
 5    1  0.1724243E-003  0.9118800E+02  0.7818608E-02  0.1130116E+00
         25   -1    0    0    0    0  0.00000000000E+00  0.00000000000E+00  0.99999998245E-14  0.12500000000E+03  0.12500000000E+03 0.  0.
        -13    1    3    3    0    0 -0.30713894881E+02  0.17282169961E+00  0.12582428803E+02  0.33191894865E+02  0.10566000000E+00 0.  1.
         23    2    1    0    0    0  0.26536774113E+02 -0.10759307420E+02 -0.84314482333E+01  0.95149499237E+02  0.90345862159E+02 0.  0.
         13    1    3    3    0    0  0.57250668994E+02 -0.10932129119E+02 -0.21013877036E+02  0.61957604372E+02  0.10566000000E+00 0. -1.
         22    1    1    0    0    0 -0.26536774113E+02  0.10759307420E+02  0.84314482333E+01  0.29850500763E+02  0.00000000000E+00 0. -1.
</event>
<event>
 5    1  0.1724243E-003  0.9118800E+02  0.7818608E-02  0.1130116E+00
         25   -1    0    0    0    0  0.00000000000E+00  0.00000000000E+00  0.99999998245E-14  0.12500000000E+03  0.12500000000E+03 0.  0.
        -13    1    3    3    0    0 -0.62578203929E+00  0.29441435457E+01 -0.35502698161E+02  0.35630216462E+02  0.10566000000E+00 0. -1.
         23    2    1    0    0    0 -0.24838761726E+01 -0.16932944480E+02  0.22361165161E+02  0.96841236587E+02  0.92656943327E+02 0.  0.
         13    1    3    3    0    0 -0.18580941333E+01 -0.19877088025E+02  0.57863863322E+02  0.61211020125E+02  0.10566000000E+00 0.  1.
         22    1    1    0    0    0  0.24838761726E+01  0.16932944480E+02 -0.22361165161E+02  0.28158763413E+02  0.00000000000E+00 0.  1.
</event>
<event>
 5    1  0.1724243E-003  0.9118800E+02  0.7818608E-02  0.1130116E+00
         25   -1    0    0    0    0  0.00000000000E+00  0.00000000000E+00  0.99999998245E-14  0.12500000000E+03  0.12500000000E+03 0.  0.
        -13    1    3    3    0    0 -0.65028901932E+01 -0.16227048517E+02  0.43599873315E+02  0.46974086490E+02  0.10566000000E+00 0.  1.
         23    2    1    0    0    0  0.15381312683E+02  0.18215715263E+02  0.17702189812E+02  0.95305478847E+02  0.90561414033E+02 0.  0.
         13    1    3    3    0    0  0.21884202876E+02  0.34442763780E+02 -0.25897683503E+02  0.48331392357E+02  0.10566000000E+00 0. -1.
         22    1    1    0    0    0 -0.15381312683E+02 -0.18215715263E+02 -0.17702189812E+02  0.29694521153E+02  0.00000000000E+00 0. -1.
</event>
<event>
 5    1  0.1724243E-003  0.9118800E+02  0.7818608E-02  0.1130116E+00
         25   -1    0    0    0    0  0.00000000000E+00  0.00000000000E+00  0.99999998245E-14  0.12500000000E+03  0.12500000000E+03 0.  0.
        -13    1    3    3    0    0  0.50444858421E+02  0.39308092386E+01 -0.94744482372E+01  0.51477289515E+02  0.10566000000E+00 0.  1.
         23    2    1    0    0    0  0.13778975331E+02  0.41464650820E+01  0.21264685502E+02  0.99324327012E+02  0.95948328558E+02 0.  0.
         13    1    3    3    0    0 -0.36665883090E+02  0.21565584348E+00  0.30739133740E+02  0.47847037498E+02  0.10566000000E+00 0. -1.
         22    1    1    0    0    0 -0.13778975331E+02 -0.41464650820E+01 -0.21264685502E+02  0.25675672988E+02  0.00000000000E+00 0.  1.
</event>
<event>
 5    1  0.1724243E-003  0.9118800E+02  0.7818608E-02  0.1130116E+00
         25   -1    0    0    0    0  0.00000000000E+00  0.00000000000E+00  0.99999998245E-14  0.12500000000E+03  0.12500000000E+03 0.  0.
        -13    1    3    3    0    0  0.36327968242E+02 -0.21560565148E+02  0.45887515918E+02  0.62371904951E+02  0.10566000000E+00 0.  1.
         23    2    1    0    0    0  0.16592679712E+02 -0.94510055801E+01  0.24885416000E+02  0.93632461748E+02  0.88221966862E+02 0.  0.
         13    1    3    3    0    0 -0.19735288529E+02  0.12109559567E+02 -0.21002099918E+02  0.31260556797E+02  0.10566000000E+00 0. -1.
         22    1    1    0    0    0 -0.16592679712E+02  0.94510055801E+01 -0.24885416000E+02  0.31367538252E+02  0.00000000000E+00 0.  1.
</event>
<event>
 5    1  0.1724243E-003  0.9118800E+02  0.7818608E-02  0.1130116E+00
         25   -1    0    0    0    0  0.00000000000E+00  0.00000000000E+00  0.99999998245E-14  0.12500000000E+03  0.12500000000E+03 0.  0.
        -13    1    3    3    0    0 -0.37376971774E+02 -0.10614351007E+02  0.29285800300E+02  0.48655644375E+02  0.10566000000E+00 0. -1.
         23    2    1    0    0    0 -0.14264331272E+02 -0.26841887213E+02 -0.61695175758E+01  0.93983536583E+02  0.88718003504E+02 0.  0.
         13    1    3    3    0    0  0.23112640502E+02 -0.16227536205E+02 -0.35455317876E+02  0.45327892207E+02  0.10566000000E+00 0.  1.
         22    1    1    0    0    0  0.14264331272E+02  0.26841887213E+02  0.61695175758E+01  0.31016463417E+02  0.00000000000E+00 0.  1.
</event>
<event>
 5    1  0.1724243E-003  0.9118800E+02  0.7818608E-02  0.1130116E+00
         25   -1    0    0    0    0  0.00000000000E+00  0.00000000000E+00  0.99999998245E-14  0.12500000000E+03  0.12500000000E+03 0.  0.
        -13    1    3    3    0    0  0.13479173482E+02 -0.29463460799E+02 -0.17735911483E+02  0.36937208343E+02  0.10566000000E+00 0.  1.
         23    2    1    0    0    0  0.14030797735E+02  0.23066626803E+02  0.98348918916E+01  0.96265740733E+02  0.91877283281E+02 0.  0.
         13    1    3    3    0    0  0.55162425326E+00  0.52530087602E+02  0.27570803374E+02  0.59328532390E+02  0.10566000000E+00 0. -1.
         22    1    1    0    0    0 -0.14030797735E+02 -0.23066626803E+02 -0.98348918916E+01  0.28734259267E+02  0.00000000000E+00 0. -1.
</event>
<event>
 5    1  0.1724243E-003  0.9118800E+02  0.7818608E-02  0.1130116E+00
         25   -1    0    0    0    0  0.00000000000E+00  0.00000000000E+00  0.99999998245E-14  0.12500000000E+03  0.12500000000E+03 0.  0.
        -13    1    3    3    0    0  0.19754604135E+00  0.16232989344E+02  0.46802697775E+02  0.49538395721E+02  0.10566000000E+00 0.  1.
         23    2    1    0    0    0  0.16004527245E+02  0.23137482971E+02  0.28887390729E+01  0.96718684189E+02  0.92491464727E+02 0.  0.
         13    1    3    3    0    0  0.15806981203E+02  0.69044936271E+01 -0.43913958703E+02  0.47180288468E+02  0.10566000000E+00 0. -1.
         22    1    1    0    0    0 -0.16004527245E+02 -0.23137482971E+02 -0.28887390729E+01  0.28281315811E+02  0.00000000000E+00 0.  1.
</event>
<event>
 5    1  0.1724243E-003  0.9118800E+02  0.7818608E-02  0.1130116E+00
         25   -1    0    0    0    0  0.00000000000E+00  0.00000000000E+00  0.99999998245E-14  0.12500000000E+03  0.12500000000E+03 0.  0.
        -13    1    3    3    0    0  0.30009976043E+02 -0.27524971980E+02 -0.80742475658E+00  0.40729422330E+02  0.10566000000E+00 0. -1.
         23    2    1    0    0    0 -0.20282689371E+02 -0.11949811259E+02 -0.17169718568E+02  0.95862657758E+02  0.91327238212E+02 0.  0.
         13    1    3    3    0    0 -0.50292665414E+02  0.15575160721E+02 -0.16362293811E+02  0.55133235428E+02  0.10566000000E+00 0.  1.
         22    1    1    0    0    0  0.20282689371E+02  0.11949811259E+02  0.17169718568E+02  0.29137342242E+02  0.00000000000E+00 0.  1.
</event>
<event>
 5    1  0.1724243E-003  0.9118800E+02  0.7818608E-02  0.1130116E+00
         25   -1    0    0    0    0  0.00000000000E+00  0.00000000000E+00  0.99999998245E-14  0.12500000000E+03  0.12500000000E+03 0.  0.
        -13    1    3    3    0    0 -0.36941885523E+02 -0.16076952635E+02  0.47750722816E+02  0.62476507629E+02  0.10566000000E+00 0. -1.
         23    2    1    0    0    0 -0.17398139473E+02 -0.85229398525E+01  0.24240205728E+02  0.93968993980E+02  0.88697511211E+02 0.  0.
         13    1    3    3    0    0  0.19543746050E+02  0.75540127820E+01 -0.23510517088E+02  0.31492486351E+02  0.10566000000E+00 0.  1.
         22    1    1    0    0    0  0.17398139473E+02  0.85229398525E+01 -0.24240205728E+02  0.31031006020E+02  0.00000000000E+00 0. -1.
</event>
<event>
 5    1  0.1724243E-003  0.9118800E+02  0.7818608E-02  0.1130116E+00
         25   -1    0    0    0    0  0.00000000000E+00  0.00000000000E+00  0.99999998245E-14  0.12500000000E+03  0.12500000000E+03 0.  0.
        -13    1    3    3    0    0 -0.14890123904E+02  0.31977386224E+02  0.15464226477E+02  0.38515224057E+02  0.10566000000E+00 0.  1.
         23    2    1    0    0    0  0.27456953062E+02 -0.56741634008E+01  0.90310764193E+01  0.95544257894E+02  0.90890398137E+02 0.  0.
         13    1    3    3    0    0  0.42347076966E+02 -0.37651549625E+02 -0.64331500580E+01  0.57029033837E+02  0.10566000000E+00 0. -1.
         22    1    1    0    0    0 -0.27456953062E+02  0.56741634008E+01 -0.90310764193E+01  0.29455742106E+02  0.00000000000E+00 0. -1.
</event>
<event>
 5    1  0.1724243E-003  0.9118800E+02  0.7818608E-02  0.1130116E+00
         25   -1    0    0    0    0  0.00000000000E+00  0.00000000000E+00  0.99999998245E-14  0.12500000000E+03  0.12500000000E+03 0.  0.
        -13    1    3    3    0    0 -0.24589876163E+00 -0.36406795001E+02 -0.32902860269E+01  0.36556153170E+02  0.10566000000E+00 0. -1.
         23    2    1    0    0    0 -0.20819603060E+02  0.18268660623E+02  0.82410560623E+01  0.96101646456E+02  0.91653759410E+02 0.  0.
         13    1    3    3    0    0 -0.20573704299E+02  0.54675455624E+02  0.11531342089E+02  0.59545493286E+02  0.10566000000E+00 0.  1.
         22    1    1    0    0    0  0.20819603060E+02 -0.18268660623E+02 -0.82410560623E+01  0.28898353544E+02  0.00000000000E+00 0.  1.
</event>
<event>
 5    1  0.1724243E-003  0.9118800E+02  0.7818608E-02  0.1130116E+00
         25   -1    0    0    0    0  0.00000000000E+00  0.00000000000E+00  0.99999998245E-14  0.12500000000E+03  0.12500000000E+03 0.  0.
        -13    1    3    3    0    0 -0.38963376291E+02 -0.25610397058E+02 -0.26838349788E+02  0.53799120001E+02  0.10566000000E+00 0. -1.
         23    2    1    0    0    0 -0.15037187693E+02 -0.19785037778E+02  0.10084880596E+02  0.98180798851E+02  0.94446808908E+02 0.  0.
         13    1    3    3    0    0  0.23926188598E+02  0.58253592804E+01  0.36923230384E+02  0.44381678851E+02  0.10566000000E+00 0.  1.
         22    1    1    0    0    0  0.15037187693E+02  0.19785037778E+02 -0.10084880596E+02  0.26819201149E+02  0.00000000000E+00 0. -1.
</event>
<event>
 5    1  0.1724243E-003  0.9118800E+02  0.7818608E-02  0.1130116E+00
         25   -1    0    0    0    0  0.00000000000E+00  0.00000000000E+00  0.99999998245E-14  0.12500000000E+03  0.12500000000E+03 0.  0.
        -13    1    3    3    0    0  0.20133379120E+01  0.42418997855E+02  0.28472421215E+02  0.51128415215E+02  0.10566000000E+00 0.  1.
         23    2    1    0    0    0 -0.12862385137E+02  0.17329851011E+01  0.27648823778E+02  0.94456561342E+02  0.89381991114E+02 0.  0.
         13    1    3    3    0    0 -0.14875723049E+02 -0.40686012754E+02 -0.82359743706E+00  0.43328146127E+02  0.10566000000E+00 0. -1.
         22    1    1    0    0    0  0.12862385137E+02 -0.17329851011E+01 -0.27648823778E+02  0.30543438658E+02  0.00000000000E+00 0.  1.
</event>
<event>
 5    1  0.1724243E-003  0.9118800E+02  0.7818608E-02  0.1130116E+00
         25   -1    0    0    0    0  0.00000000000E+00  0.00000000000E+00  0.99999998245E-14  0.12500000000E+03  0.12500000000E+03 0.  0.
        -13    1    3    3    0    0 -0.14446168733E+02  0.26861894986E+02 -0.95565026447E+01  0.31962338778E+02  0.10566000000E+00 0.  1.
         23    2    1    0    0    0 -0.68110003882E+01 -0.16560426205E+02  0.29254836607E+02  0.90700103392E+02  0.83964432042E+02 0.  0.
         13    1    3    3    0    0  0.76351683449E+01 -0.43422321192E+02  0.38811339252E+02  0.58737764614E+02  0.10566000000E+00 0. -1.
         22    1    1    0    0    0  0.68110003882E+01  0.16560426205E+02 -0.29254836607E+02  0.34299896608E+02  0.00000000000E+00 0. -1.
</event>
<event>
 5    1  0.1724243E-003  0.9118800E+02  0.7818608E-02  0.1130116E+00
         25   -1    0    0    0    0  0.00000000000E+00  0.00000000000E+00  0.99999998245E-14  0.12500000000E+03  0.12500000000E+03 0.  0.
        -13    1    3    3    0    0 -0.46340257818E+01  0.23777997618E+02 -0.23596990890E+02  0.33818582300E+02  0.10566000000E+00 0.  1.
         23    2    1    0    0    0  0.10364034359E+02 -0.55884153890E+01  0.27757540961E+02  0.94848305604E+02  0.89928173566E+02 0.  0.
         13    1    3    3    0    0  0.14998060140E+02 -0.29366413008E+02  0.51354531851E+02  0.61029723304E+02  0.10566000000E+00 0. -1.
         22    1    1    0    0    0 -0.10364034359E+02  0.55884153890E+01 -0.27757540961E+02  0.30151694396E+02  0.00000000000E+00 0. -1.
</event>
<event>
 5    1  0.1724243E-003  0.9118800E+02  0.7818608E-02  0.1130116E+00
         25   -1    0    0    0    0  0.00000000000E+00  0.00000000000E+00  0.99999998245E-14  0.12500000000E+03  0.12500000000E+03 0.  0.
        -13    1    3    3    0    0 -0.15153936364E+00 -0.49726342408E+01  0.38886233332E+02  0.39203320807E+02  0.10566000000E+00 0. -1.
         23    2    1    0    0    0 -0.19433891932E+02  0.19649038958E+02 -0.85946014624E+01  0.96058195255E+02  0.91594480258E+02 0.  0.
         13    1    3    3    0    0 -0.19282352568E+02  0.24621673199E+02 -0.47480834795E+02  0.56854874448E+02  0.10566000000E+00 0.  1.
         22    1    1    0    0    0  0.19433891932E+02 -0.19649038958E+02  0.85946014624E+01  0.28941804745E+02  0.00000000000E+00 0.  1.
</event>
<event>
 5    1  0.1724243E-003  0.9118800E+02  0.7818608E-02  0.1130116E+00
         25   -1    0    0    0    0  0.00000000000E+00  0.00000000000E+00  0.99999998245E-14  0.12500000000E+03  0.12500000000E+03 0.  0.
        -13    1    3    3    0    0  0.21998448361E+01  0.61457695271E+02  0.78493408271E+01  0.61996055849E+02  0.10566000000E+00 0.  1.
         23    2    1    0    0    0 -0.21899102191E+01  0.33405910306E+02  0.87291362062E+01  0.90403058386E+02  0.83521042836E+02 0.  0.
         13    1    3    3    0    0 -0.43897550552E+01 -0.28051784965E+02  0.87979537915E+00  0.28407002537E+02  0.10566000000E+00 0. -1.
         22    1    1    0    0    0  0.21899102191E+01 -0.33405910306E+02 -0.87291362062E+01  0.34596941614E+02  0.00000000000E+00 0.  1.
</event>
<event>
 5    1  0.1724243E-003  0.9118800E+02  0.7818608E-02  0.1130116E+00
         25   -1    0    0    0    0  0.00000000000E+00  0.00000000000E+00  0.99999998245E-14  0.12500000000E+03  0.12500000000E+03 0.  0.
        -13    1    3    3    0    0  0.42411265119E+02  0.22258434408E+02  0.25743383729E+02  0.54377258860E+02  0.10566000000E+00 0.  1.
         23    2    1    0    0    0  0.28640924263E+01 -0.37552251084E+01  0.22703147904E+02  0.10181082870E+03  0.99134792954E+02 0.  0.
         13    1    3    3    0    0 -0.39547172693E+02 -0.26013659517E+02 -0.30402358249E+01  0.47433569836E+02  0.10566000000E+00 0. -1.
         22    1    1    0    0    0 -0.28640924263E+01  0.37552251084E+01 -0.22703147904E+02  0.23189171304E+02  0.00000000000E+00 0.  1.
</event>
<event>
 5    1  0.1724243E-003  0.9118800E+02  0.7818608E-02  0.1130116E+00
         25   -1    0    0    0    0  0.00000000000E+00  0.00000000000E+00  0.99999998245E-14  0.12500000000E+03  0.12500000000E+03 0.  0.
        -13    1    3    3    0    0  0.11484244986E+02  0.34024695860E+02  0.11093275965E+02  0.37585100066E+02  0.10566000000E+00 0.  1.
         23    2    1    0    0    0  0.26377807542E+02 -0.14704443442E+02 -0.10640093596E+02  0.92980927881E+02  0.87293940054E+02 0.  0.
         13    1    3    3    0    0  0.14893562556E+02 -0.48729139302E+02 -0.21733369561E+02  0.55395827814E+02  0.10566000000E+00 0. -1.
         22    1    1    0    0    0 -0.26377807542E+02  0.14704443442E+02  0.10640093596E+02  0.32019072119E+02  0.00000000000E+00 0. -1.
</event>
<event>
 5    1  0.1724243E-003  0.9118800E+02  0.7818608E-02  0.1130116E+00
         25   -1    0    0    0    0  0.00000000000E+00  0.00000000000E+00  0.99999998245E-14  0.12500000000E+03  0.12500000000E+03 0.  0.
        -13    1    3    3    0    0 -0.29786113677E+02  0.24293003030E+01 -0.37249892144E+02  0.47756462355E+02  0.10566000000E+00 0.  1.
         23    2    1    0    0    0  0.15080283575E+02  0.93791529023E+01 -0.24174732520E+02  0.95003314279E+02  0.90143377847E+02 0.  0.
         13    1    3    3    0    0  0.44866397251E+02  0.69498525993E+01  0.13075159624E+02  0.47246851924E+02  0.10566000000E+00 0. -1.
         22    1    1    0    0    0 -0.15080283575E+02 -0.93791529023E+01  0.24174732520E+02  0.29996685721E+02  0.00000000000E+00 0.  1.
</event>
<event>
 5    1  0.1724243E-003  0.9118800E+02  0.7818608E-02  0.1130116E+00
         25   -1    0    0    0    0  0.00000000000E+00  0.00000000000E+00  0.99999998245E-14  0.12500000000E+03  0.12500000000E+03 0.  0.
        -13    1    3    3    0    0 -0.18309790289E+02 -0.28979046699E+02  0.14360260059E+02  0.37165330632E+02  0.10566000000E+00 0.  1.
         23    2    1    0    0    0 -0.88293442857E+01  0.14254006583E+02 -0.23991440333E+02  0.95730165128E+02  0.91145714556E+02 0.  0.
         13    1    3    3    0    0  0.94804460034E+01  0.43233053282E+02 -0.38351700392E+02  0.58564834496E+02  0.10566000000E+00 0. -1.
         22    1    1    0    0    0  0.88293442857E+01 -0.14254006583E+02  0.23991440333E+02  0.29269834872E+02  0.00000000000E+00 0. -1.
</event>
<event>
 5    1  0.1724243E-003  0.9118800E+02  0.7818608E-02  0.1130116E+00
         25   -1    0    0    0    0  0.00000000000E+00  0.00000000000E+00  0.99999998245E-14  0.12500000000E+03  0.12500000000E+03 0.  0.
        -13    1    3    3    0    0 -0.32914111423E+02  0.25406971773E+02 -0.19147484265E+02  0.45776525241E+02  0.10566000000E+00 0.  1.
         23    2    1    0    0    0 -0.29921673068E+02  0.35794867855E+02  0.10366624603E+02  0.77208306270E+02  0.60638903086E+02 0.  0.
         13    1    3    3    0    0  0.29924383541E+01  0.10387896081E+02  0.29514108868E+02  0.31431781029E+02  0.10566000000E+00 0. -1.
         22    1    1    0    0    0  0.29921673068E+02 -0.35794867855E+02 -0.10366624603E+02  0.47791693730E+02  0.00000000000E+00 0. -1.
</event>
<event>
 5    1  0.1724243E-003  0.9118800E+02  0.7818608E-02  0.1130116E+00
         25   -1    0    0    0    0  0.00000000000E+00  0.00000000000E+00  0.99999998245E-14  0.12500000000E+03  0.12500000000E+03 0.  0.
        -13    1    3    3    0    0 -0.17334755391E+02  0.48879312768E+02 -0.17505112579E+02  0.54736834870E+02  0.10566000000E+00 0. -1.
         23    2    1    0    0    0 -0.19734732723E+01  0.11261737525E+02 -0.26309987468E+02  0.96313125485E+02  0.91941728129E+02 0.  0.
         13    1    3    3    0    0  0.15361282119E+02 -0.37617575243E+02 -0.88048748896E+01  0.41576290616E+02  0.10566000000E+00 0.  1.
         22    1    1    0    0    0  0.19734732723E+01 -0.11261737525E+02  0.26309987468E+02  0.28686874515E+02  0.00000000000E+00 0. -1.
</event>
<event>
 5    1  0.1724243E-003  0.9118800E+02  0.7818608E-02  0.1130116E+00
         25   -1    0    0    0    0  0.00000000000E+00  0.00000000000E+00  0.99999998245E-14  0.12500000000E+03  0.12500000000E+03 0.  0.
        -13    1    3    3    0    0  0.16374110570E+02  0.47289610417E+01  0.35982629297E+02  0.39815014061E+02  0.10566000000E+00 0.  1.
         23    2    1    0    0    0 -0.24592928439E+02  0.17442028357E+02  0.15673226451E+01  0.94809057936E+02  0.89873602821E+02 0.  0.
         13    1    3    3    0    0 -0.40967039010E+02  0.12713067316E+02 -0.34415306652E+02  0.54994043875E+02  0.10566000000E+00 0. -1.
         22    1    1    0    0    0  0.24592928439E+02 -0.17442028357E+02 -0.15673226451E+01  0.30190942064E+02  0.00000000000E+00 0. -1.
</event>
<event>
 5    1  0.1724243E-003  0.9118800E+02  0.7818608E-02  0.1130116E+00
         25   -1    0    0    0    0  0.00000000000E+00  0.00000000000E+00  0.99999998245E-14  0.12500000000E+03  0.12500000000E+03 0.  0.
        -13    1    3    3    0    0  0.14431821569E+02 -0.11476172319E+01  0.25645241996E+02  0.29449687608E+02  0.10566000000E+00 0. -1.
         23    2    1    0    0    0 -0.26802429583E+02 -0.78614325969E+00 -0.20435232341E+02  0.91286694413E+02  0.84833210497E+02 0.  0.
         13    1    3    3    0    0 -0.41234251152E+02  0.36147397219E+00 -0.46080474337E+02  0.61837006805E+02  0.10566000000E+00 0.  1.
         22    1    1    0    0    0  0.26802429583E+02  0.78614325969E+00  0.20435232341E+02  0.33713305587E+02  0.00000000000E+00 0.  1.
</event>
<event>
 5    1  0.1724243E-003  0.9118800E+02  0.7818608E-02  0.1130116E+00
         25   -1    0    0    0    0  0.00000000000E+00  0.00000000000E+00  0.99999998245E-14  0.12500000000E+03  0.12500000000E+03 0.  0.
        -13    1    3    3    0    0  0.51456891121E+01 -0.33643338794E+02 -0.21284440864E+02  0.40142134330E+02  0.10566000000E+00 0. -1.
         23    2    1    0    0    0  0.25296903857E+02  0.14850349480E+02 -0.41890525112E+01  0.95368692480E+02  0.90648624479E+02 0.  0.
         13    1    3    3    0    0  0.20151214745E+02  0.48493688274E+02  0.17095388353E+02  0.55226558150E+02  0.10566000000E+00 0.  1.
         22    1    1    0    0    0 -0.25296903857E+02 -0.14850349480E+02  0.41890525112E+01  0.29631307520E+02  0.00000000000E+00 0. -1.
</event>
<event>
 5    1  0.1724243E-003  0.9118800E+02  0.7818608E-02  0.1130116E+00
         25   -1    0    0    0    0  0.00000000000E+00  0.00000000000E+00  0.99999998245E-14  0.12500000000E+03  0.12500000000E+03 0.  0.
        -13    1    3    3    0    0 -0.20200376143E+02  0.30267963150E+02  0.17705452876E+02  0.40468494105E+02  0.10566000000E+00 0. -1.
         23    2    1    0    0    0  0.17457705859E+02  0.14385717001E+02  0.33745637718E+02  0.84373796480E+02  0.73948962941E+02 0.  0.
         13    1    3    3    0    0  0.37658082002E+02 -0.15882246149E+02  0.16040184841E+02  0.43905302375E+02  0.10566000000E+00 0.  1.
         22    1    1    0    0    0 -0.17457705859E+02 -0.14385717001E+02 -0.33745637718E+02  0.40626203520E+02  0.00000000000E+00 0. -1.
</event>
<event>
 5    1  0.1724243E-003  0.9118800E+02  0.7818608E-02  0.1130116E+00
         25   -1    0    0    0    0  0.00000000000E+00  0.00000000000E+00  0.99999998245E-14  0.12500000000E+03  0.12500000000E+03 0.  0.
        -13    1    3    3    0    0  0.63242746938E+01 -0.39331304005E+02 -0.25840355166E+02  0.47483502864E+02  0.10566000000E+00 0.  1.
         23    2    1    0    0    0 -0.25176431441E+02 -0.13867989376E+02  0.12774899703E+01  0.96228385341E+02  0.91826446819E+02 0.  0.
         13    1    3    3    0    0 -0.31500706135E+02  0.25463314629E+02  0.27117845136E+02  0.48744882477E+02  0.10566000000E+00 0. -1.
         22    1    1    0    0    0  0.25176431441E+02  0.13867989376E+02 -0.12774899703E+01  0.28771614659E+02  0.00000000000E+00 0. -1.
</event>
<event>
 5    1  0.1724243E-003  0.9118800E+02  0.7818608E-02  0.1130116E+00
         25   -1    0    0    0    0  0.00000000000E+00  0.00000000000E+00  0.99999998245E-14  0.12500000000E+03  0.12500000000E+03 0.  0.
        -13    1    3    3    0    0  0.54965221361E+01 -0.29416031224E+02  0.47445555411E+02  0.56094621318E+02  0.10566000000E+00 0. -1.
         23    2    1    0    0    0 -0.11767335826E+02 -0.38483168402E+00  0.26917858446E+02  0.95619915058E+02  0.90994388643E+02 0.  0.
         13    1    3    3    0    0 -0.17263857963E+02  0.29031199540E+02 -0.20527696965E+02  0.39525293740E+02  0.10566000000E+00 0.  1.
         22    1    1    0    0    0  0.11767335826E+02  0.38483168402E+00 -0.26917858446E+02  0.29380084942E+02  0.00000000000E+00 0. -1.
</event>
<event>
 5    1  0.1724243E-003  0.9118800E+02  0.7818608E-02  0.1130116E+00
         25   -1    0    0    0    0  0.00000000000E+00  0.00000000000E+00  0.99999998245E-14  0.12500000000E+03  0.12500000000E+03 0.  0.
        -13    1    3    3    0    0 -0.71440742810E+01  0.32942129727E+02  0.30696479125E+02  0.45590642713E+02  0.10566000000E+00 0.  1.
         23    2    1    0    0    0  0.23978862812E+02 -0.29004875064E+01  0.18426492272E+02  0.94620166113E+02  0.89610498985E+02 0.  0.
         13    1    3    3    0    0  0.31122937093E+02 -0.35842617234E+02 -0.12269986853E+02  0.49029523400E+02  0.10566000000E+00 0. -1.
         22    1    1    0    0    0 -0.23978862812E+02  0.29004875064E+01 -0.18426492272E+02  0.30379833887E+02  0.00000000000E+00 0. -1.
</event>
<event>
 5    1  0.1724243E-003  0.9118800E+02  0.7818608E-02  0.1130116E+00
         25   -1    0    0    0    0  0.00000000000E+00  0.00000000000E+00  0.99999998245E-14  0.12500000000E+03  0.12500000000E+03 0.  0.
        -13    1    3    3    0    0 -0.44251837014E+02 -0.41532047383E+01 -0.57846335456E+01  0.44821282200E+02  0.10566000000E+00 0. -1.
         23    2    1    0    0    0  0.34269221557E+01 -0.79324592601E+00 -0.27468610292E+02  0.97307084192E+02  0.93283283862E+02 0.  0.
         13    1    3    3    0    0  0.47678759170E+02  0.33599588122E+01 -0.21683976747E+02  0.52485801992E+02  0.10566000000E+00 0.  1.
         22    1    1    0    0    0 -0.34269221557E+01  0.79324592601E+00  0.27468610292E+02  0.27692915808E+02  0.00000000000E+00 0.  1.
</event>
<event>
 5    1  0.1724243E-003  0.9118800E+02  0.7818608E-02  0.1130116E+00
         25   -1    0    0    0    0  0.00000000000E+00  0.00000000000E+00  0.99999998245E-14  0.12500000000E+03  0.12500000000E+03 0.  0.
        -13    1    3    3    0    0 -0.16856491757E+02 -0.17030956934E+01 -0.54639243905E+02  0.57205768833E+02  0.10566000000E+00 0.  1.
         23    2    1    0    0    0 -0.21169718296E+02 -0.93121495078E+01 -0.15865714411E+02  0.96953716914E+02  0.92808562258E+02 0.  0.
         13    1    3    3    0    0 -0.43132265394E+01 -0.76090538144E+01  0.38773529494E+02  0.39747948080E+02  0.10566000000E+00 0. -1.
         22    1    1    0    0    0  0.21169718296E+02  0.93121495078E+01  0.15865714411E+02  0.28046283086E+02  0.00000000000E+00 0.  1.
</event>
<event>
 5    1  0.1724243E-003  0.9118800E+02  0.7818608E-02  0.1130116E+00
         25   -1    0    0    0    0  0.00000000000E+00  0.00000000000E+00  0.99999998245E-14  0.12500000000E+03  0.12500000000E+03 0.  0.
        -13    1    3    3    0    0 -0.40888263760E+02  0.87995877557E+01 -0.17844796352E+02  0.45472307824E+02  0.10566000000E+00 0.  1.
         23    2    1    0    0    0 -0.16969694017E+02  0.52966967117E+01  0.24796642318E+02  0.94489362816E+02  0.89427851948E+02 0.  0.
         13    1    3    3    0    0  0.23918569743E+02 -0.35028910440E+01  0.42641438670E+02  0.49017054992E+02  0.10566000000E+00 0. -1.
         22    1    1    0    0    0  0.16969694017E+02 -0.52966967117E+01 -0.24796642318E+02  0.30510637184E+02  0.00000000000E+00 0. -1.
</event>
<event>
 5    1  0.1724243E-003  0.9118800E+02  0.7818608E-02  0.1130116E+00
         25   -1    0    0    0    0  0.00000000000E+00  0.00000000000E+00  0.99999998245E-14  0.12500000000E+03  0.12500000000E+03 0.  0.
        -13    1    3    3    0    0  0.43747202156E+02  0.10018867552E+02  0.39912504196E+02  0.60060091231E+02  0.10566000000E+00 0. -1.
         23    2    1    0    0    0  0.25634693498E+02 -0.64151969692E+01  0.24473854599E+02  0.88982478961E+02  0.81367190810E+02 0.  0.
         13    1    3    3    0    0 -0.18112508659E+02 -0.16434064521E+02 -0.15438649597E+02  0.28922387730E+02  0.10566000000E+00 0.  1.
         22    1    1    0    0    0 -0.25634693498E+02  0.64151969692E+01 -0.24473854599E+02  0.36017521039E+02  0.00000000000E+00 0. -1.
</event>
<event>
 5    1  0.1724243E-003  0.9118800E+02  0.7818608E-02  0.1130116E+00
         25   -1    0    0    0    0  0.00000000000E+00  0.00000000000E+00  0.99999998245E-14  0.12500000000E+03  0.12500000000E+03 0.  0.
        -13    1    3    3    0    0  0.23836508935E+01  0.41412844453E+02  0.18554754019E+02  0.45442221975E+02  0.10566000000E+00 0.  1.
         23    2    1    0    0    0  0.17640378433E+02 -0.52059755079E+01  0.23963886994E+02  0.94791507616E+02  0.89849189779E+02 0.  0.
         13    1    3    3    0    0  0.15256727540E+02 -0.46618819960E+02  0.54091329750E+01  0.49349285641E+02  0.10566000000E+00 0. -1.
         22    1    1    0    0    0 -0.17640378433E+02  0.52059755079E+01 -0.23963886994E+02  0.30208492384E+02  0.00000000000E+00 0.  1.
</event>
<event>
 5    1  0.1724243E-003  0.9118800E+02  0.7818608E-02  0.1130116E+00
         25   -1    0    0    0    0  0.00000000000E+00  0.00000000000E+00  0.99999998245E-14  0.12500000000E+03  0.12500000000E+03 0.  0.
        -13    1    3    3    0    0  0.47399785588E+01 -0.28643213842E+02 -0.32748070632E+02  0.43764693420E+02  0.10566000000E+00 0.  1.
         23    2    1    0    0    0 -0.28501744482E+02 -0.19002043679E+01 -0.19789318003E+01  0.96366516345E+02  0.92014287402E+02 0.  0.
         13    1    3    3    0    0 -0.33241723041E+02  0.26743009474E+02  0.30769138832E+02  0.52601822925E+02  0.10566000000E+00 0. -1.
         22    1    1    0    0    0  0.28501744482E+02  0.19002043679E+01  0.19789318003E+01  0.28633483655E+02  0.00000000000E+00 0. -1.
</event>
<event>
 5    1  0.1724243E-003  0.9118800E+02  0.7818608E-02  0.1130116E+00
         25   -1    0    0    0    0  0.00000000000E+00  0.00000000000E+00  0.99999998245E-14  0.12500000000E+03  0.12500000000E+03 0.  0.
        -13    1    3    3    0    0 -0.67761903762E-01 -0.48752459043E+02 -0.36080695182E+02  0.60651748395E+02  0.10566000000E+00 0. -1.
         23    2    1    0    0    0 -0.71606105807E+01 -0.25083890335E+02 -0.87740509231E+01  0.97478011194E+02  0.93512046275E+02 0.  0.
         13    1    3    3    0    0 -0.70928486769E+01  0.23668568709E+02  0.27306644259E+02  0.36826262800E+02  0.10566000000E+00 0.  1.
         22    1    1    0    0    0  0.71606105807E+01  0.25083890335E+02  0.87740509231E+01  0.27521988806E+02  0.00000000000E+00 0. -1.
</event>
<event>
 5    1  0.1724243E-003  0.9118800E+02  0.7818608E-02  0.1130116E+00
         25   -1    0    0    0    0  0.00000000000E+00  0.00000000000E+00  0.99999998245E-14  0.12500000000E+03  0.12500000000E+03 0.  0.
        -13    1    3    3    0    0  0.11201636270E+02  0.17547469683E+02  0.28083238564E+02  0.34958114933E+02  0.10566000000E+00 0.  1.
         23    2    1    0    0    0 -0.19320096983E+02 -0.10034962720E+02 -0.18014062893E+02  0.96742733923E+02  0.92523961657E+02 0.  0.
         13    1    3    3    0    0 -0.30521733253E+02 -0.27582432403E+02 -0.46097301457E+02  0.61784618990E+02  0.10566000000E+00 0. -1.
         22    1    1    0    0    0  0.19320096983E+02  0.10034962720E+02  0.18014062893E+02  0.28257266077E+02  0.00000000000E+00 0. -1.
</event>
<event>
 5    1  0.1724243E-003  0.9118800E+02  0.7818608E-02  0.1130116E+00
         25   -1    0    0    0    0  0.00000000000E+00  0.00000000000E+00  0.99999998245E-14  0.12500000000E+03  0.12500000000E+03 0.  0.
        -13    1    3    3    0    0  0.50197096576E+01 -0.60666830815E+01  0.37182394482E+02  0.38007153960E+02  0.10566000000E+00 0.  1.
         23    2    1    0    0    0  0.15778381930E+02  0.20555052419E+02 -0.13140686385E+02  0.95945823794E+02  0.91440997089E+02 0.  0.
         13    1    3    3    0    0  0.10758672273E+02  0.26621735501E+02 -0.50323080868E+02  0.57938669835E+02  0.10566000000E+00 0. -1.
         22    1    1    0    0    0 -0.15778381930E+02 -0.20555052419E+02  0.13140686385E+02  0.29054176206E+02  0.00000000000E+00 0. -1.
</event>
<event>
 5    1  0.1724243E-003  0.9118800E+02  0.7818608E-02  0.1130116E+00
         25   -1    0    0    0    0  0.00000000000E+00  0.00000000000E+00  0.99999998245E-14  0.12500000000E+03  0.12500000000E+03 0.  0.
        -13    1    3    3    0    0  0.26532380900E+02 -0.12119758181E+02  0.48725827107E+02  0.56789727644E+02  0.10566000000E+00 0.  1.
         23    2    1    0    0    0 -0.30924039253E+01  0.29281408050E+01  0.29531704164E+02  0.95162799705E+02  0.90364262440E+02 0.  0.
         13    1    3    3    0    0 -0.29624784825E+02  0.15047898986E+02 -0.19194122944E+02  0.38373072061E+02  0.10566000000E+00 0. -1.
         22    1    1    0    0    0  0.30924039253E+01 -0.29281408050E+01 -0.29531704164E+02  0.29837200295E+02  0.00000000000E+00 0.  1.
</event>
<event>
 5    1  0.1724243E-003  0.9118800E+02  0.7818608E-02  0.1130116E+00
         25   -1    0    0    0    0  0.00000000000E+00  0.00000000000E+00  0.99999998245E-14  0.12500000000E+03  0.12500000000E+03 0.  0.
        -13    1    3    3    0    0 -0.36390313413E+02  0.39961333055E+01 -0.45453723704E+02  0.58363311714E+02  0.10566000000E+00 0.  1.
         23    2    1    0    0    0 -0.14618185300E+02  0.17472085143E+02 -0.17486716631E+02  0.96281532784E+02  0.91898766021E+02 0.  0.
         13    1    3    3    0    0  0.21772128113E+02  0.13475951837E+02  0.27967007073E+02  0.37918221070E+02  0.10566000000E+00 0. -1.
         22    1    1    0    0    0  0.14618185300E+02 -0.17472085143E+02  0.17486716631E+02  0.28718467216E+02  0.00000000000E+00 0.  1.
</event>
<event>
 5    1  0.1724243E-003  0.9118800E+02  0.7818608E-02  0.1130116E+00
         25   -1    0    0    0    0  0.00000000000E+00  0.00000000000E+00  0.99999998245E-14  0.12500000000E+03  0.12500000000E+03 0.  0.
        -13    1    3    3    0    0  0.26153161537E+02 -0.13363428377E+02  0.21052916021E+02  0.36135931057E+02  0.10566000000E+00 0.  1.
         23    2    1    0    0    0 -0.76267941335E+01  0.29528520813E+02  0.42560010493E+00  0.94499464503E+02  0.89441970717E+02 0.  0.
         13    1    3    3    0    0 -0.33779955670E+02  0.42891949190E+02 -0.20627315916E+02  0.58363533446E+02  0.10566000000E+00 0. -1.
         22    1    1    0    0    0  0.76267941335E+01 -0.29528520813E+02 -0.42560010493E+00  0.30500535497E+02  0.00000000000E+00 0. -1.
</event>
<event>
 5    1  0.1724243E-003  0.9118800E+02  0.7818608E-02  0.1130116E+00
         25   -1    0    0    0    0  0.00000000000E+00  0.00000000000E+00  0.99999998245E-14  0.12500000000E+03  0.12500000000E+03 0.  0.
        -13    1    3    3    0    0 -0.31105947789E+01  0.48344189722E+02  0.78456486434E+01  0.49075470924E+02  0.10566000000E+00 0. -1.
         23    2    1    0    0    0 -0.18414795356E+02  0.60348255776E+01  0.21462769944E+02  0.96083321397E+02  0.91628763766E+02 0.  0.
         13    1    3    3    0    0 -0.15304200577E+02 -0.42309364144E+02  0.13617121301E+02  0.47007850473E+02  0.10566000000E+00 0.  1.
         22    1    1    0    0    0  0.18414795356E+02 -0.60348255776E+01 -0.21462769944E+02  0.28916678603E+02  0.00000000000E+00 0. -1.
</event>
<event>
 5    1  0.1724243E-003  0.9118800E+02  0.7818608E-02  0.1130116E+00
         25   -1    0    0    0    0  0.00000000000E+00  0.00000000000E+00  0.99999998245E-14  0.12500000000E+03  0.12500000000E+03 0.  0.
        -13    1    3    3    0    0  0.19060419856E+02 -0.10798478889E+02  0.51661096628E+02  0.56114051897E+02  0.10566000000E+00 0.  1.
         23    2    1    0    0    0 -0.92560323046E+01  0.21566751198E+01  0.28597747133E+02  0.94864364571E+02  0.89950492733E+02 0.  0.
         13    1    3    3    0    0 -0.28316452161E+02  0.12955154009E+02 -0.23063349495E+02  0.38750312674E+02  0.10566000000E+00 0. -1.
         22    1    1    0    0    0  0.92560323046E+01 -0.21566751198E+01 -0.28597747133E+02  0.30135635429E+02  0.00000000000E+00 0.  1.
</event>
<event>
 5    1  0.1724243E-003  0.9118800E+02  0.7818608E-02  0.1130116E+00
         25   -1    0    0    0    0  0.00000000000E+00  0.00000000000E+00  0.99999998245E-14  0.12500000000E+03  0.12500000000E+03 0.  0.
        -13    1    3    3    0    0 -0.29924191971E+02 -0.98329956856E+01 -0.38799104761E+02  0.49975261516E+02  0.10566000000E+00 0. -1.
         23    2    1    0    0    0 -0.11139063481E+02  0.23451811967E+02 -0.14564754995E+02  0.95230916913E+02  0.90458439232E+02 0.  0.
         13    1    3    3    0    0  0.18785128490E+02  0.33284807652E+02  0.24234349766E+02  0.45255655397E+02  0.10566000000E+00 0.  1.
         22    1    1    0    0    0  0.11139063481E+02 -0.23451811967E+02  0.14564754995E+02  0.29769083087E+02  0.00000000000E+00 0. -1.
</event>
<event>
 5    1  0.1724243E-003  0.9118800E+02  0.7818608E-02  0.1130116E+00
         25   -1    0    0    0    0  0.00000000000E+00  0.00000000000E+00  0.99999998245E-14  0.12500000000E+03  0.12500000000E+03 0.  0.
        -13    1    3    3    0    0  0.27617342858E+02  0.18568808822E+02  0.74896673708E+01  0.34111941736E+02  0.10566000000E+00 0. -1.
         23    2    1    0    0    0 -0.23299871693E+02 -0.14099549957E+02 -0.81047224431E+01  0.96585780746E+02  0.92311674162E+02 0.  0.
         13    1    3    3    0    0 -0.50917214552E+02 -0.32668358779E+02 -0.15594389814E+02  0.62473839011E+02  0.10566000000E+00 0.  1.
         22    1    1    0    0    0  0.23299871693E+02  0.14099549957E+02  0.81047224431E+01  0.28414219254E+02  0.00000000000E+00 0.  1.
</event>
<event>
 5    1  0.1724243E-003  0.9118800E+02  0.7818608E-02  0.1130116E+00
         25   -1    0    0    0    0  0.00000000000E+00  0.00000000000E+00  0.99999998245E-14  0.12500000000E+03  0.12500000000E+03 0.  0.
        -13    1    3    3    0    0  0.26570388783E+02 -0.15894001456E+02 -0.16027781849E+02  0.34864104712E+02  0.10566000000E+00 0.  1.
         23    2    1    0    0    0 -0.42785772573E+01  0.23128328832E+02  0.18212040811E+02  0.95252659809E+02  0.90488479666E+02 0.  0.
         13    1    3    3    0    0 -0.30848966041E+02  0.39022330288E+02  0.34239822660E+02  0.60388555097E+02  0.10566000000E+00 0. -1.
         22    1    1    0    0    0  0.42785772573E+01 -0.23128328832E+02 -0.18212040811E+02  0.29747340191E+02  0.00000000000E+00 0. -1.
</event>
<event>
 5    1  0.1724243E-003  0.9118800E+02  0.7818608E-02  0.1130116E+00
         25   -1    0    0    0    0  0.00000000000E+00  0.00000000000E+00  0.99999998245E-14  0.12500000000E+03  0.12500000000E+03 0.  0.
        -13    1    3    3    0    0  0.59969581092E+01 -0.33526324826E+02  0.17452667173E+02  0.38269893107E+02  0.10566000000E+00 0. -1.
         23    2    1    0    0    0  0.22180522762E+02  0.17925817282E+02 -0.37719482043E+01  0.96233037900E+02  0.91832779959E+02 0.  0.
         13    1    3    3    0    0  0.16183564652E+02  0.51452142108E+02 -0.21224615377E+02  0.57963144793E+02  0.10566000000E+00 0.  1.
         22    1    1    0    0    0 -0.22180522762E+02 -0.17925817282E+02  0.37719482043E+01  0.28766962100E+02  0.00000000000E+00 0.  1.
</event>
<event>
 5    1  0.1724243E-003  0.9118800E+02  0.7818608E-02  0.1130116E+00
         25   -1    0    0    0    0  0.00000000000E+00  0.00000000000E+00  0.99999998245E-14  0.12500000000E+03  0.12500000000E+03 0.  0.
        -13    1    3    3    0    0 -0.16126366061E+02  0.17565291600E+02 -0.27672222342E+02  0.36528922852E+02  0.10566000000E+00 0.  1.
         23    2    1    0    0    0  0.21676685980E+02 -0.16793430744E+02  0.49431875813E+01  0.97137244668E+02  0.93055419869E+02 0.  0.
         13    1    3    3    0    0  0.37803052042E+02 -0.34358722344E+02  0.32615409924E+02  0.60608321816E+02  0.10566000000E+00 0. -1.
         22    1    1    0    0    0 -0.21676685980E+02  0.16793430744E+02 -0.49431875813E+01  0.27862755332E+02  0.00000000000E+00 0. -1.
</event>
<event>
 5    1  0.1724243E-003  0.9118800E+02  0.7818608E-02  0.1130116E+00
         25   -1    0    0    0    0  0.00000000000E+00  0.00000000000E+00  0.99999998245E-14  0.12500000000E+03  0.12500000000E+03 0.  0.
        -13    1    3    3    0    0  0.18626381442E+02  0.43710016140E+02 -0.23459285827E+02  0.52989214488E+02  0.10566000000E+00 0. -1.
         23    2    1    0    0    0 -0.11920235947E+02  0.13478380914E+02 -0.22778597087E+02  0.95972026210E+02  0.91476808824E+02 0.  0.
         13    1    3    3    0    0 -0.30546617389E+02 -0.30231635225E+02  0.68068874026E+00  0.42982811722E+02  0.10566000000E+00 0.  1.
         22    1    1    0    0    0  0.11920235947E+02 -0.13478380914E+02  0.22778597087E+02  0.29027973790E+02  0.00000000000E+00 0. -1.
</event>
<event>
 5    1  0.1724243E-003  0.9118800E+02  0.7818608E-02  0.1130116E+00
         25   -1    0    0    0    0  0.00000000000E+00  0.00000000000E+00  0.99999998245E-14  0.12500000000E+03  0.12500000000E+03 0.  0.
        -13    1    3    3    0    0  0.17683877319E+01 -0.22295286449E+02 -0.39201310492E+02  0.45132703236E+02  0.10566000000E+00 0. -1.
         23    2    1    0    0    0  0.21741239116E+00  0.23631045429E+02 -0.13247705504E+02  0.97908021901E+02  0.94085096988E+02 0.  0.
         13    1    3    3    0    0 -0.15509753407E+01  0.45926331878E+02  0.25953604988E+02  0.52775318665E+02  0.10566000000E+00 0.  1.
         22    1    1    0    0    0 -0.21741239116E+00 -0.23631045429E+02  0.13247705504E+02  0.27091978099E+02  0.00000000000E+00 0.  1.
</event>
<event>
 5    1  0.1724243E-003  0.9118800E+02  0.7818608E-02  0.1130116E+00
         25   -1    0    0    0    0  0.00000000000E+00  0.00000000000E+00  0.99999998245E-14  0.12500000000E+03  0.12500000000E+03 0.  0.
        -13    1    3    3    0    0 -0.36746449925E+02 -0.26799327915E+02 -0.19669115561E+02  0.49551900365E+02  0.10566000000E+00 0.  1.
         23    2    1    0    0    0  0.13746853634E+02  0.42649427275E+00 -0.10612348341E+02  0.10762818894E+03  0.10621698186E+03 0.  0.
         13    1    3    3    0    0  0.50493303559E+02  0.27225822188E+02  0.90567672199E+01  0.58076288575E+02  0.10566000000E+00 0. -1.
         22    1    1    0    0    0 -0.13746853634E+02 -0.42649427275E+00  0.10612348341E+02  0.17371811060E+02  0.00000000000E+00 0. -1.
</event>
<event>
 5    1  0.1724243E-003  0.9118800E+02  0.7818608E-02  0.1130116E+00
         25   -1    0    0    0    0  0.00000000000E+00  0.00000000000E+00  0.99999998245E-14  0.12500000000E+03  0.12500000000E+03 0.  0.
        -13    1    3    3    0    0  0.26957247880E+02  0.84094927943E+01 -0.44314395533E+02  0.52547022730E+02  0.10566000000E+00 0. -1.
         23    2    1    0    0    0  0.86077310332E+00 -0.18350389194E+02 -0.22960458086E+02  0.95594892461E+02  0.90960008329E+02 0.  0.
         13    1    3    3    0    0 -0.26096474777E+02 -0.26759881988E+02  0.21353937447E+02  0.43047869731E+02  0.10566000000E+00 0.  1.
         22    1    1    0    0    0 -0.86077310332E+00  0.18350389194E+02  0.22960458086E+02  0.29405107539E+02  0.00000000000E+00 0. -1.
</event>
<event>
 5    1  0.1724243E-003  0.9118800E+02  0.7818608E-02  0.1130116E+00
         25   -1    0    0    0    0  0.00000000000E+00  0.00000000000E+00  0.99999998245E-14  0.12500000000E+03  0.12500000000E+03 0.  0.
        -13    1    3    3    0    0  0.38363774202E+02  0.41243741581E+02 -0.11199735350E+02  0.57430572229E+02  0.10566000000E+00 0. -1.
         23    2    1    0    0    0  0.23639025337E+02  0.87031593495E+01  0.87398860709E+01  0.98336652309E+02  0.94652855621E+02 0.  0.
         13    1    3    3    0    0 -0.14724748864E+02 -0.32540582231E+02  0.19939621421E+02  0.40906080080E+02  0.10566000000E+00 0.  1.
         22    1    1    0    0    0 -0.23639025337E+02 -0.87031593495E+01 -0.87398860709E+01  0.26663347691E+02  0.00000000000E+00 0. -1.
</event>
<event>
 5    1  0.1724243E-003  0.9118800E+02  0.7818608E-02  0.1130116E+00
         25   -1    0    0    0    0  0.00000000000E+00  0.00000000000E+00  0.99999998245E-14  0.12500000000E+03  0.12500000000E+03 0.  0.
        -13    1    3    3    0    0  0.43593081478E+02 -0.14772399540E+02 -0.40319621675E+02  0.61190388109E+02  0.10566000000E+00 0.  1.
         23    2    1    0    0    0  0.16104270253E+02 -0.87477369497E+00 -0.24097473326E+02  0.96003431753E+02  0.91519713386E+02 0.  0.
         13    1    3    3    0    0 -0.27488811225E+02  0.13897625845E+02  0.16222148349E+02  0.34813043644E+02  0.10566000000E+00 0. -1.
         22    1    1    0    0    0 -0.16104270253E+02  0.87477369497E+00  0.24097473326E+02  0.28996568247E+02  0.00000000000E+00 0.  1.
</event>
<event>
 5    1  0.1724243E-003  0.9118800E+02  0.7818608E-02  0.1130116E+00
         25   -1    0    0    0    0  0.00000000000E+00  0.00000000000E+00  0.99999998245E-14  0.12500000000E+03  0.12500000000E+03 0.  0.
        -13    1    3    3    0    0  0.40959804635E+02 -0.35316498861E+02 -0.33355904217E+01  0.54185773179E+02  0.10566000000E+00 0. -1.
         23    2    1    0    0    0  0.15888378075E+02 -0.12079446089E+02  0.20908777418E+02  0.96094454706E+02  0.91643950572E+02 0.  0.
         13    1    3    3    0    0 -0.25071426560E+02  0.23237052773E+02  0.24244367839E+02  0.41908681526E+02  0.10566000000E+00 0.  1.
         22    1    1    0    0    0 -0.15888378075E+02  0.12079446089E+02 -0.20908777418E+02  0.28905545294E+02  0.00000000000E+00 0. -1.
</event>
<event>
 5    1  0.1724243E-003  0.9118800E+02  0.7818608E-02  0.1130116E+00
         25   -1    0    0    0    0  0.00000000000E+00  0.00000000000E+00  0.99999998245E-14  0.12500000000E+03  0.12500000000E+03 0.  0.
        -13    1    3    3    0    0  0.21702571869E+02  0.16296451774E+02  0.37323280305E+02  0.46147745156E+02  0.10566000000E+00 0. -1.
         23    2    1    0    0    0 -0.22524417891E+02  0.75249607116E+01  0.17993478234E+02  0.95205039117E+02  0.90422672927E+02 0.  0.
         13    1    3    3    0    0 -0.44226989760E+02 -0.87714910621E+01 -0.19329802071E+02  0.49057293962E+02  0.10566000000E+00 0.  1.
         22    1    1    0    0    0  0.22524417891E+02 -0.75249607116E+01 -0.17993478234E+02  0.29794960883E+02  0.00000000000E+00 0. -1.
</event>
<event>
 5    1  0.1724243E-003  0.9118800E+02  0.7818608E-02  0.1130116E+00
         25   -1    0    0    0    0  0.00000000000E+00  0.00000000000E+00  0.99999998245E-14  0.12500000000E+03  0.12500000000E+03 0.  0.
        -13    1    3    3    0    0  0.15056734639E+00  0.14805619635E+02  0.31071193968E+02  0.34418880022E+02  0.10566000000E+00 0. -1.
         23    2    1    0    0    0 -0.11016854508E+02  0.14629479808E+01 -0.27404179043E+02  0.95428048272E+02  0.90730436282E+02 0.  0.
         13    1    3    3    0    0 -0.11167421854E+02 -0.13342671655E+02 -0.58475373011E+02  0.61009168250E+02  0.10566000000E+00 0.  1.
         22    1    1    0    0    0  0.11016854508E+02 -0.14629479808E+01  0.27404179043E+02  0.29571951728E+02  0.00000000000E+00 0.  1.
</event>
<event>
 5    1  0.1724243E-003  0.9118800E+02  0.7818608E-02  0.1130116E+00
         25   -1    0    0    0    0  0.00000000000E+00  0.00000000000E+00  0.99999998245E-14  0.12500000000E+03  0.12500000000E+03 0.  0.
        -13    1    3    3    0    0  0.52476546454E+02 -0.15760884092E+02  0.20221395876E+02  0.58404703666E+02  0.10566000000E+00 0. -1.
         23    2    1    0    0    0  0.16454351135E+02 -0.20177169223E+02  0.14660543561E+02  0.95120318499E+02  0.90305479483E+02 0.  0.
         13    1    3    3    0    0 -0.36022195319E+02 -0.44162851314E+01 -0.55608523158E+01  0.36715614832E+02  0.10566000000E+00 0.  1.
         22    1    1    0    0    0 -0.16454351135E+02  0.20177169223E+02 -0.14660543561E+02  0.29879681501E+02  0.00000000000E+00 0. -1.
</event>
<event>
 5    1  0.1724243E-003  0.9118800E+02  0.7818608E-02  0.1130116E+00
         25   -1    0    0    0    0  0.00000000000E+00  0.00000000000E+00  0.99999998245E-14  0.12500000000E+03  0.12500000000E+03 0.  0.
        -13    1    3    3    0    0  0.20438477958E+02  0.23289107520E+02 -0.12593876897E+02  0.33447433529E+02  0.10566000000E+00 0. -1.
         23    2    1    0    0    0 -0.10539849064E+02 -0.27341378936E+02  0.48170348984E+01  0.95304154404E+02  0.90559585915E+02 0.  0.
         13    1    3    3    0    0 -0.30978327022E+02 -0.50630486456E+02  0.17410911795E+02  0.61856720876E+02  0.10566000000E+00 0.  1.
         22    1    1    0    0    0  0.10539849064E+02  0.27341378936E+02 -0.48170348984E+01  0.29695845596E+02  0.00000000000E+00 0.  1.
</event>
<event>
 5    1  0.1724243E-003  0.9118800E+02  0.7818608E-02  0.1130116E+00
         25   -1    0    0    0    0  0.00000000000E+00  0.00000000000E+00  0.99999998245E-14  0.12500000000E+03  0.12500000000E+03 0.  0.
        -13    1    3    3    0    0 -0.21782442042E+02 -0.34567968276E+02  0.37066105988E+02  0.55166353778E+02  0.10566000000E+00 0.  1.
         23    2    1    0    0    0 -0.12020573036E+02 -0.25750572611E+02 -0.21213421113E+01  0.96502872807E+02  0.92199339487E+02 0.  0.
         13    1    3    3    0    0  0.97618690060E+01  0.88173956651E+01 -0.39187448100E+02  0.41336519029E+02  0.10566000000E+00 0. -1.
         22    1    1    0    0    0  0.12020573036E+02  0.25750572611E+02  0.21213421113E+01  0.28497127193E+02  0.00000000000E+00 0.  1.
</event>
<event>
 5    1  0.1724243E-003  0.9118800E+02  0.7818608E-02  0.1130116E+00
         25   -1    0    0    0    0  0.00000000000E+00  0.00000000000E+00  0.99999998245E-14  0.12500000000E+03  0.12500000000E+03 0.  0.
        -13    1    3    3    0    0 -0.18530948422E+02  0.22255827220E+02 -0.41435486108E+02  0.50553225097E+02  0.10566000000E+00 0. -1.
         23    2    1    0    0    0  0.19205903710E+02  0.11791060628E+02 -0.17677710950E+02  0.96357421336E+02  0.92001931143E+02 0.  0.
         13    1    3    3    0    0  0.37736852133E+02 -0.10464766592E+02  0.23757775157E+02  0.45804196240E+02  0.10566000000E+00 0.  1.
         22    1    1    0    0    0 -0.19205903710E+02 -0.11791060628E+02  0.17677710950E+02  0.28642578664E+02  0.00000000000E+00 0. -1.
</event>
<event>
 5    1  0.1724243E-003  0.9118800E+02  0.7818608E-02  0.1130116E+00
         25   -1    0    0    0    0  0.00000000000E+00  0.00000000000E+00  0.99999998245E-14  0.12500000000E+03  0.12500000000E+03 0.  0.
        -13    1    3    3    0    0 -0.77885648920E-01 -0.20927853608E+02  0.26142566303E+02  0.33487700126E+02  0.10566000000E+00 0. -1.
         23    2    1    0    0    0 -0.35320460772E+01  0.13337859394E+02 -0.25760317539E+02  0.95777272502E+02  0.91210296160E+02 0.  0.
         13    1    3    3    0    0 -0.34541604283E+01  0.34265713002E+02 -0.51902883841E+02  0.62289572377E+02  0.10566000000E+00 0.  1.
         22    1    1    0    0    0  0.35320460772E+01 -0.13337859394E+02  0.25760317539E+02  0.29222727498E+02  0.00000000000E+00 0.  1.
</event>
<event>
 5    1  0.1724243E-003  0.9118800E+02  0.7818608E-02  0.1130116E+00
         25   -1    0    0    0    0  0.00000000000E+00  0.00000000000E+00  0.99999998245E-14  0.12500000000E+03  0.12500000000E+03 0.  0.
        -13    1    3    3    0    0  0.94539198706E+01 -0.34575669876E+02 -0.61676734390E+00  0.35850315400E+02  0.10566000000E+00 0.  1.
         23    2    1    0    0    0 -0.12443109248E+01  0.21070650444E+02 -0.20180297702E+02  0.95797859065E+02  0.91238504845E+02 0.  0.
         13    1    3    3    0    0 -0.10698230795E+02  0.55646320320E+02 -0.19563530358E+02  0.59947543665E+02  0.10566000000E+00 0. -1.
         22    1    1    0    0    0  0.12443109248E+01 -0.21070650444E+02  0.20180297702E+02  0.29202140935E+02  0.00000000000E+00 0. -1.
</event>
<event>
 5    1  0.1724243E-003  0.9118800E+02  0.7818608E-02  0.1130116E+00
         25   -1    0    0    0    0  0.00000000000E+00  0.00000000000E+00  0.99999998245E-14  0.12500000000E+03  0.12500000000E+03 0.  0.
        -13    1    3    3    0    0  0.39800981701E+02  0.11200971745E+02 -0.17284900686E+01  0.41383314927E+02  0.10566000000E+00 0. -1.
         23    2    1    0    0    0 -0.26669916539E+01 -0.79684232683E+01  0.27404985968E+02  0.96335703920E+02  0.91972419670E+02 0.  0.
         13    1    3    3    0    0 -0.42467973355E+02 -0.19169395014E+02  0.29133476036E+02  0.54952388993E+02  0.10566000000E+00 0.  1.
         22    1    1    0    0    0  0.26669916539E+01  0.79684232683E+01 -0.27404985968E+02  0.28664296080E+02  0.00000000000E+00 0.  1.
</event>
<event>
 5    1  0.1724243E-003  0.9118800E+02  0.7818608E-02  0.1130116E+00
         25   -1    0    0    0    0  0.00000000000E+00  0.00000000000E+00  0.99999998245E-14  0.12500000000E+03  0.12500000000E+03 0.  0.
        -13    1    3    3    0    0  0.11491772377E+02  0.35455790141E+02  0.25857330513E+01  0.37361357929E+02  0.10566000000E+00 0.  1.
         23    2    1    0    0    0  0.13613860128E+02 -0.22701500298E+02 -0.96416199563E+01  0.96828096643E+02  0.92639215027E+02 0.  0.
         13    1    3    3    0    0  0.21220877506E+01 -0.58157290439E+02 -0.12227353008E+02  0.59466738714E+02  0.10566000000E+00 0. -1.
         22    1    1    0    0    0 -0.13613860128E+02  0.22701500298E+02  0.96416199563E+01  0.28171903357E+02  0.00000000000E+00 0. -1.
</event>
<event>
 5    1  0.1724243E-003  0.9118800E+02  0.7818608E-02  0.1130116E+00
         25   -1    0    0    0    0  0.00000000000E+00  0.00000000000E+00  0.99999998245E-14  0.12500000000E+03  0.12500000000E+03 0.  0.
        -13    1    3    3    0    0 -0.13221671491E+02  0.37277832252E+02  0.21375151137E+02  0.44959510947E+02  0.10566000000E+00 0. -1.
         23    2    1    0    0    0  0.16543417198E+02  0.16618689106E+02 -0.15685188522E+02  0.96788466558E+02  0.92585725896E+02 0.  0.
         13    1    3    3    0    0  0.29765088689E+02 -0.20659143146E+02 -0.37060339659E+02  0.51828955612E+02  0.10566000000E+00 0.  1.
         22    1    1    0    0    0 -0.16543417198E+02 -0.16618689106E+02  0.15685188522E+02  0.28211533442E+02  0.00000000000E+00 0. -1.
</event>
<event>
 5    1  0.1724243E-003  0.9118800E+02  0.7818608E-02  0.1130116E+00
         25   -1    0    0    0    0  0.00000000000E+00  0.00000000000E+00  0.99999998245E-14  0.12500000000E+03  0.12500000000E+03 0.  0.
        -13    1    3    3    0    0 -0.37311549989E+02  0.10646624168E+02 -0.13625100557E+02  0.41123678069E+02  0.10566000000E+00 0. -1.
         23    2    1    0    0    0  0.12788254827E+02  0.33475241540E+01 -0.28239543720E+02  0.93819602168E+02  0.88486725230E+02 0.  0.
         13    1    3    3    0    0  0.50099804816E+02 -0.72991000143E+01 -0.14614443163E+02  0.52695924098E+02  0.10566000000E+00 0.  1.
         22    1    1    0    0    0 -0.12788254827E+02 -0.33475241540E+01  0.28239543720E+02  0.31180397832E+02  0.00000000000E+00 0. -1.
</event>
<event>
 5    1  0.1724243E-003  0.9118800E+02  0.7818608E-02  0.1130116E+00
         25   -1    0    0    0    0  0.00000000000E+00  0.00000000000E+00  0.99999998245E-14  0.12500000000E+03  0.12500000000E+03 0.  0.
        -13    1    3    3    0    0  0.22704320428E+02  0.19786583166E+02  0.29983804074E+02  0.42497467104E+02  0.10566000000E+00 0. -1.
         23    2    1    0    0    0  0.13156914161E+02 -0.15119145023E+02 -0.14807702339E+02  0.10008091123E+03  0.96928983323E+02 0.  0.
         13    1    3    3    0    0 -0.95474062671E+01 -0.34905728189E+02 -0.44791506413E+02  0.57583444128E+02  0.10566000000E+00 0.  1.
         22    1    1    0    0    0 -0.13156914161E+02  0.15119145023E+02  0.14807702339E+02  0.24919088768E+02  0.00000000000E+00 0.  1.
</event>
<event>
 5    1  0.1724243E-003  0.9118800E+02  0.7818608E-02  0.1130116E+00
         25   -1    0    0    0    0  0.00000000000E+00  0.00000000000E+00  0.99999998245E-14  0.12500000000E+03  0.12500000000E+03 0.  0.
        -13    1    3    3    0    0 -0.62362731535E+01 -0.10362373971E+02 -0.34429283172E+02  0.36491870341E+02  0.10566000000E+00 0.  1.
         23    2    1    0    0    0  0.16448977066E+02  0.21171334396E+02  0.10784974108E+02  0.96101731659E+02  0.91653875612E+02 0.  0.
         13    1    3    3    0    0  0.22685250219E+02  0.31533708367E+02  0.45214257281E+02  0.59609861318E+02  0.10566000000E+00 0. -1.
         22    1    1    0    0    0 -0.16448977066E+02 -0.21171334396E+02 -0.10784974108E+02  0.28898268341E+02  0.00000000000E+00 0. -1.
</event>
<event>
 5    1  0.1724243E-003  0.9118800E+02  0.7818608E-02  0.1130116E+00
         25   -1    0    0    0    0  0.00000000000E+00  0.00000000000E+00  0.99999998245E-14  0.12500000000E+03  0.12500000000E+03 0.  0.
        -13    1    3    3    0    0  0.46336728305E+02  0.54795656765E+01  0.15157596843E+02  0.49059983042E+02  0.10566000000E+00 0. -1.
         23    2    1    0    0    0  0.18026723502E+02 -0.43306485495E+01 -0.21634431647E+02  0.96508494077E+02  0.92206960254E+02 0.  0.
         13    1    3    3    0    0 -0.28310004803E+02 -0.98102142260E+01 -0.36792028489E+02  0.47448511035E+02  0.10566000000E+00 0.  1.
         22    1    1    0    0    0 -0.18026723502E+02  0.43306485495E+01  0.21634431647E+02  0.28491505923E+02  0.00000000000E+00 0.  1.
</event>
<event>
 5    1  0.1724243E-003  0.9118800E+02  0.7818608E-02  0.1130116E+00
         25   -1    0    0    0    0  0.00000000000E+00  0.00000000000E+00  0.99999998245E-14  0.12500000000E+03  0.12500000000E+03 0.  0.
        -13    1    3    3    0    0 -0.50350907648E+01  0.29017309212E+01 -0.59101417608E+02  0.59386538110E+02  0.10566000000E+00 0.  1.
         23    2    1    0    0    0 -0.82956659210E+01 -0.10967109079E+02 -0.22929773517E+02  0.98262945784E+02  0.94555467563E+02 0.  0.
         13    1    3    3    0    0 -0.32605751562E+01 -0.13868840000E+02  0.36171644092E+02  0.38876407674E+02  0.10566000000E+00 0. -1.
         22    1    1    0    0    0  0.82956659210E+01  0.10967109079E+02  0.22929773517E+02  0.26737054216E+02  0.00000000000E+00 0.  1.
</event>
<event>
 5    1  0.1724243E-003  0.9118800E+02  0.7818608E-02  0.1130116E+00
         25   -1    0    0    0    0  0.00000000000E+00  0.00000000000E+00  0.99999998245E-14  0.12500000000E+03  0.12500000000E+03 0.  0.
        -13    1    3    3    0    0  0.36938797743E+02  0.46680101683E+02 -0.76685593812E+01  0.60019368864E+02  0.10566000000E+00 0. -1.
         23    2    1    0    0    0  0.15268897038E+02  0.20973222871E+02  0.89925258380E+01  0.97543109875E+02  0.93599024935E+02 0.  0.
         13    1    3    3    0    0 -0.21669900704E+02 -0.25706878812E+02  0.16661085219E+02  0.37523741011E+02  0.10566000000E+00 0.  1.
         22    1    1    0    0    0 -0.15268897038E+02 -0.20973222871E+02 -0.89925258380E+01  0.27456890125E+02  0.00000000000E+00 0. -1.
</event>
<event>
 5    1  0.1724243E-003  0.9118800E+02  0.7818608E-02  0.1130116E+00
         25   -1    0    0    0    0  0.00000000000E+00  0.00000000000E+00  0.99999998245E-14  0.12500000000E+03  0.12500000000E+03 0.  0.
        -13    1    3    3    0    0 -0.26212862591E+02  0.16139026876E+02  0.52431333709E+02  0.60799985791E+02  0.10566000000E+00 0.  1.
         23    2    1    0    0    0 -0.20414264838E+02  0.78282509682E+01  0.18036498841E+02  0.96656764254E+02  0.92407743526E+02 0.  0.
         13    1    3    3    0    0  0.57985977530E+01 -0.83107759080E+01 -0.34394834868E+02  0.35856778463E+02  0.10566000000E+00 0. -1.
         22    1    1    0    0    0  0.20414264838E+02 -0.78282509682E+01 -0.18036498841E+02  0.28343235746E+02  0.00000000000E+00 0.  1.
</event>
<event>
 4    1  0.1724243E-003  0.9118800E+02  0.7818608E-02  0.1130116E+00
         25   -1    0    0    0    0  0.00000000000E+00  0.00000000000E+00  0.99999998245E-14  0.12500000000E+03  0.12500000000E+03 0.  0.
        -13    1    1    0    0    0  0.21801167230E+01 -0.31109900384E+01 -0.12065930238E+02  0.12650257092E+02  0.10566000000E+00 0.  1.
         13    1    1    0    0    0  0.29671004321E+02  0.21333406581E+02  0.48441635316E+02  0.60680193885E+02  0.10566000000E+00 0. -1.
         22    1    1    0    0    0 -0.31851121044E+02 -0.18222416542E+02 -0.36375705078E+02  0.51669549024E+02  0.00000000000E+00 0. -1.
</event>
<event>
 5    1  0.1724243E-003  0.9118800E+02  0.7818608E-02  0.1130116E+00
         25   -1    0    0    0    0  0.00000000000E+00  0.00000000000E+00  0.99999998245E-14  0.12500000000E+03  0.12500000000E+03 0.  0.
        -13    1    3    3    0    0  0.31425986167E+02 -0.21335759186E+02  0.12271123047E+02  0.39917400360E+02  0.10566000000E+00 0.  1.
         23    2    1    0    0    0 -0.83287500069E+01  0.74478071929E+01 -0.22372009167E+02  0.99993106893E+02  0.96815684284E+02 0.  0.
         13    1    3    3    0    0 -0.39754736174E+02  0.28783566379E+02 -0.34643132215E+02  0.60075706533E+02  0.10566000000E+00 0. -1.
         22    1    1    0    0    0  0.83287500069E+01 -0.74478071929E+01  0.22372009167E+02  0.25006893107E+02  0.00000000000E+00 0. -1.
</event>
<event>
 5    1  0.1724243E-003  0.9118800E+02  0.7818608E-02  0.1130116E+00
         25   -1    0    0    0    0  0.00000000000E+00  0.00000000000E+00  0.99999998245E-14  0.12500000000E+03  0.12500000000E+03 0.  0.
        -13    1    3    3    0    0  0.42971365399E+02  0.15386285775E+02  0.65092918389E+01  0.46104859597E+02  0.10566000000E+00 0.  1.
         23    2    1    0    0    0  0.40570768521E+01 -0.41523012861E+01 -0.24667021910E+02  0.99659055888E+02  0.96383421666E+02 0.  0.
         13    1    3    3    0    0 -0.38914288546E+02 -0.19538587061E+02 -0.31176313749E+02  0.53554196292E+02  0.10566000000E+00 0. -1.
         22    1    1    0    0    0 -0.40570768521E+01  0.41523012861E+01  0.24667021910E+02  0.25340944112E+02  0.00000000000E+00 0. -1.
</event>
<event>
 5    1  0.1724243E-003  0.9118800E+02  0.7818608E-02  0.1130116E+00
         25   -1    0    0    0    0  0.00000000000E+00  0.00000000000E+00  0.99999998245E-14  0.12500000000E+03  0.12500000000E+03 0.  0.
        -13    1    3    3    0    0 -0.55755282815E+02 -0.16135353345E+02 -0.10027847124E+02  0.58903056554E+02  0.10566000000E+00 0.  1.
         23    2    1    0    0    0 -0.20121548397E+02 -0.14852599277E+02 -0.16355670324E+02  0.95117155977E+02  0.90301101844E+02 0.  0.
         13    1    3    3    0    0  0.35633734418E+02  0.12827540686E+01 -0.63278231995E+01  0.36214099423E+02  0.10566000000E+00 0. -1.
         22    1    1    0    0    0  0.20121548397E+02  0.14852599277E+02  0.16355670324E+02  0.29882844023E+02  0.00000000000E+00 0.  1.
</event>
<event>
 5    1  0.1724243E-003  0.9118800E+02  0.7818608E-02  0.1130116E+00
         25   -1    0    0    0    0  0.00000000000E+00  0.00000000000E+00  0.99999998245E-14  0.12500000000E+03  0.12500000000E+03 0.  0.
        -13    1    3    3    0    0 -0.13803716881E+02 -0.18754226890E+02 -0.31291457557E+02  0.39005513791E+02  0.10566000000E+00 0. -1.
         23    2    1    0    0    0  0.73884449062E+01 -0.12611008732E+02  0.23078705279E+02  0.97682362900E+02  0.93784810737E+02 0.  0.
         13    1    3    3    0    0  0.21192161787E+02  0.61432181584E+01  0.54370162836E+02  0.58676849109E+02  0.10566000000E+00 0.  1.
         22    1    1    0    0    0 -0.73884449062E+01  0.12611008732E+02 -0.23078705279E+02  0.27317637100E+02  0.00000000000E+00 0.  1.
</event>
<event>
 5    1  0.1724243E-003  0.9118800E+02  0.7818608E-02  0.1130116E+00
         25   -1    0    0    0    0  0.00000000000E+00  0.00000000000E+00  0.99999998245E-14  0.12500000000E+03  0.12500000000E+03 0.  0.
        -13    1    3    3    0    0 -0.14185026970E+02  0.50550729650E+02  0.76451811077E+01  0.53057056237E+02  0.10566000000E+00 0. -1.
         23    2    1    0    0    0 -0.25689062400E+02  0.80146900970E+01  0.72777971513E+01  0.97122957192E+02  0.93036225730E+02 0.  0.
         13    1    3    3    0    0 -0.11504035430E+02 -0.42536039553E+02 -0.36738395648E+00  0.44065900955E+02  0.10566000000E+00 0.  1.
         22    1    1    0    0    0  0.25689062400E+02 -0.80146900970E+01 -0.72777971513E+01  0.27877042808E+02  0.00000000000E+00 0. -1.
</event>
<event>
 5    1  0.1724243E-003  0.9118800E+02  0.7818608E-02  0.1130116E+00
         25   -1    0    0    0    0  0.00000000000E+00  0.00000000000E+00  0.99999998245E-14  0.12500000000E+03  0.12500000000E+03 0.  0.
        -13    1    3    3    0    0 -0.24506780787E+02 -0.29878470028E+00 -0.52085279152E+02  0.57563521828E+02  0.10566000000E+00 0.  1.
         23    2    1    0    0    0 -0.51702327818E+01 -0.15645859703E+02 -0.30395725444E+02  0.90425090628E+02  0.83554010418E+02 0.  0.
         13    1    3    3    0    0  0.19336548005E+02 -0.15347075002E+02  0.21689553709E+02  0.32861568800E+02  0.10566000000E+00 0. -1.
         22    1    1    0    0    0  0.51702327818E+01  0.15645859703E+02  0.30395725444E+02  0.34574909372E+02  0.00000000000E+00 0.  1.
</event>
<event>
 5    1  0.1724243E-003  0.9118800E+02  0.7818608E-02  0.1130116E+00
         25   -1    0    0    0    0  0.00000000000E+00  0.00000000000E+00  0.99999998245E-14  0.12500000000E+03  0.12500000000E+03 0.  0.
        -13    1    3    3    0    0  0.13435523705E+02  0.32086846079E+02 -0.27243453411E+02  0.44184792704E+02  0.10566000000E+00 0.  1.
         23    2    1    0    0    0 -0.15553551198E+02  0.26990124906E+02  0.10570942729E+02  0.92104337254E+02  0.86029554884E+02 0.  0.
         13    1    3    3    0    0 -0.28989074904E+02 -0.50967211726E+01  0.37814396139E+02  0.47919544550E+02  0.10566000000E+00 0. -1.
         22    1    1    0    0    0  0.15553551198E+02 -0.26990124906E+02 -0.10570942729E+02  0.32895662746E+02  0.00000000000E+00 0.  1.
</event>
<event>
 5    1  0.1724243E-003  0.9118800E+02  0.7818608E-02  0.1130116E+00
         25   -1    0    0    0    0  0.00000000000E+00  0.00000000000E+00  0.99999998245E-14  0.12500000000E+03  0.12500000000E+03 0.  0.
        -13    1    3    3    0    0  0.10416265366E+02 -0.13115847111E+02 -0.35024663379E+02  0.38823475352E+02  0.10566000000E+00 0.  1.
         23    2    1    0    0    0  0.47435580346E+01  0.31451454995E+02 -0.51446834564E+01  0.92779461023E+02  0.87004972592E+02 0.  0.
         13    1    3    3    0    0 -0.56727073312E+01  0.44567302106E+02  0.29879979922E+02  0.53955985670E+02  0.10566000000E+00 0. -1.
         22    1    1    0    0    0 -0.47435580346E+01 -0.31451454995E+02  0.51446834564E+01  0.32220538977E+02  0.00000000000E+00 0. -1.
</event>
<event>
 5    1  0.1724243E-003  0.9118800E+02  0.7818608E-02  0.1130116E+00
         25   -1    0    0    0    0  0.00000000000E+00  0.00000000000E+00  0.99999998245E-14  0.12500000000E+03  0.12500000000E+03 0.  0.
        -13    1    3    3    0    0 -0.48313068638E+01  0.83162720896E+01  0.43703350310E+02  0.44749255858E+02  0.10566000000E+00 0. -1.
         23    2    1    0    0    0 -0.23777512913E+02 -0.16571994189E+02  0.33229502070E+01  0.95827356826E+02  0.91278908880E+02 0.  0.
         13    1    3    3    0    0 -0.18946206049E+02 -0.24888266278E+02 -0.40380400103E+02  0.51078100968E+02  0.10566000000E+00 0.  1.
         22    1    1    0    0    0  0.23777512913E+02  0.16571994189E+02 -0.33229502070E+01  0.29172643174E+02  0.00000000000E+00 0.  1.
</event>
<event>
 5    1  0.1724243E-003  0.9118800E+02  0.7818608E-02  0.1130116E+00
         25   -1    0    0    0    0  0.00000000000E+00  0.00000000000E+00  0.99999998245E-14  0.12500000000E+03  0.12500000000E+03 0.  0.
        -13    1    3    3    0    0 -0.99399626182E+01  0.10802886586E+02  0.36028013659E+02  0.38904166200E+02  0.10566000000E+00 0. -1.
         23    2    1    0    0    0  0.31167480707E+02  0.87260673869E+01  0.15494706597E+01  0.92596960559E+02  0.86742377993E+02 0.  0.
         13    1    3    3    0    0  0.41107443325E+02 -0.20768191988E+01 -0.34478542999E+02  0.53692794360E+02  0.10566000000E+00 0.  1.
         22    1    1    0    0    0 -0.31167480707E+02 -0.87260673869E+01 -0.15494706597E+01  0.32403039441E+02  0.00000000000E+00 0.  1.
</event>
<event>
 5    1  0.1724243E-003  0.9118800E+02  0.7818608E-02  0.1130116E+00
         25   -1    0    0    0    0  0.00000000000E+00  0.00000000000E+00  0.99999998245E-14  0.12500000000E+03  0.12500000000E+03 0.  0.
        -13    1    3    3    0    0  0.59448709446E+02 -0.11715845503E+02 -0.13406868274E+02  0.62057758351E+02  0.10566000000E+00 0. -1.
         23    2    1    0    0    0  0.26088533249E+02 -0.49989785393E+01 -0.11240455724E+02  0.96156470424E+02  0.91728499421E+02 0.  0.
         13    1    3    3    0    0 -0.33360176197E+02  0.67168669632E+01  0.21664125505E+01  0.34098712073E+02  0.10566000000E+00 0.  1.
         22    1    1    0    0    0 -0.26088533249E+02  0.49989785393E+01  0.11240455724E+02  0.28843529576E+02  0.00000000000E+00 0. -1.
</event>
<event>
 5    1  0.1724243E-003  0.9118800E+02  0.7818608E-02  0.1130116E+00
         25   -1    0    0    0    0  0.00000000000E+00  0.00000000000E+00  0.99999998245E-14  0.12500000000E+03  0.12500000000E+03 0.  0.
        -13    1    3    3    0    0 -0.11345188436E+02  0.10332146681E+02  0.32329236710E+02  0.35786272033E+02  0.10566000000E+00 0. -1.
         23    2    1    0    0    0 -0.90330729650E+01 -0.18221600054E+02 -0.20651055735E+02  0.96015707380E+02  0.91536478220E+02 0.  0.
         13    1    3    3    0    0  0.23121154710E+01 -0.28553746736E+02 -0.52980292445E+02  0.60229435347E+02  0.10566000000E+00 0.  1.
         22    1    1    0    0    0  0.90330729650E+01  0.18221600054E+02  0.20651055735E+02  0.28984292620E+02  0.00000000000E+00 0.  1.
</event>
<event>
 5    1  0.1724243E-003  0.9118800E+02  0.7818608E-02  0.1130116E+00
         25   -1    0    0    0    0  0.00000000000E+00  0.00000000000E+00  0.99999998245E-14  0.12500000000E+03  0.12500000000E+03 0.  0.
        -13    1    3    3    0    0  0.16419893598E+00 -0.30847408702E+02 -0.39421691796E+02  0.50056673211E+02  0.10566000000E+00 0. -1.
         23    2    1    0    0    0  0.21773825880E+02 -0.17890668261E+02 -0.28311340408E-01  0.96818866137E+02  0.92626759278E+02 0.  0.
         13    1    3    3    0    0  0.21609626944E+02  0.12956740441E+02  0.39393380455E+02  0.46762192926E+02  0.10566000000E+00 0.  1.
         22    1    1    0    0    0 -0.21773825880E+02  0.17890668261E+02  0.28311340408E-01  0.28181133863E+02  0.00000000000E+00 0. -1.
</event>
<event>
 5    1  0.1724243E-003  0.9118800E+02  0.7818608E-02  0.1130116E+00
         25   -1    0    0    0    0  0.00000000000E+00  0.00000000000E+00  0.99999998245E-14  0.12500000000E+03  0.12500000000E+03 0.  0.
        -13    1    3    3    0    0 -0.45252940748E+02  0.26617152863E+02 -0.38602706815E+01  0.52642324480E+02  0.10566000000E+00 0.  1.
         23    2    1    0    0    0 -0.32959785025E+01  0.29473499027E+02 -0.59637204725E+01  0.94749106111E+02  0.89790180576E+02 0.  0.
         13    1    3    3    0    0  0.41956962246E+02  0.28563461644E+01 -0.21034497910E+01  0.42106781631E+02  0.10566000000E+00 0. -1.
         22    1    1    0    0    0  0.32959785025E+01 -0.29473499027E+02  0.59637204725E+01  0.30250893889E+02  0.00000000000E+00 0.  1.
</event>
<event>
 5    1  0.1724243E-003  0.9118800E+02  0.7818608E-02  0.1130116E+00
         25   -1    0    0    0    0  0.00000000000E+00  0.00000000000E+00  0.99999998245E-14  0.12500000000E+03  0.12500000000E+03 0.  0.
        -13    1    3    3    0    0  0.26796738659E+02  0.16671379292E+02  0.51349112712E+02  0.60272237644E+02  0.10566000000E+00 0. -1.
         23    2    1    0    0    0  0.28801539251E+01  0.12872627033E+02  0.28628486682E+02  0.93478736334E+02  0.88003886753E+02 0.  0.
         13    1    3    3    0    0 -0.23916584734E+02 -0.37987522584E+01 -0.22720626030E+02  0.33206498691E+02  0.10566000000E+00 0.  1.
         22    1    1    0    0    0 -0.28801539251E+01 -0.12872627033E+02 -0.28628486682E+02  0.31521263666E+02  0.00000000000E+00 0. -1.
</event>
<event>
 5    1  0.1724243E-003  0.9118800E+02  0.7818608E-02  0.1130116E+00
         25   -1    0    0    0    0  0.00000000000E+00  0.00000000000E+00  0.99999998245E-14  0.12500000000E+03  0.12500000000E+03 0.  0.
        -13    1    3    3    0    0 -0.11590550831E+02  0.15929983275E+02  0.51418170786E+02  0.55063097322E+02  0.10566000000E+00 0. -1.
         23    2    1    0    0    0 -0.25670163506E+02  0.73214016778E+01  0.16676783511E+02  0.93525004762E+02  0.88069581528E+02 0.  0.
         13    1    3    3    0    0 -0.14079612674E+02 -0.86085815971E+01 -0.34741387274E+02  0.38461907440E+02  0.10566000000E+00 0.  1.
         22    1    1    0    0    0  0.25670163506E+02 -0.73214016778E+01 -0.16676783511E+02  0.31474995238E+02  0.00000000000E+00 0. -1.
</event>
<event>
 5    1  0.1724243E-003  0.9118800E+02  0.7818608E-02  0.1130116E+00
         25   -1    0    0    0    0  0.00000000000E+00  0.00000000000E+00  0.99999998245E-14  0.12500000000E+03  0.12500000000E+03 0.  0.
        -13    1    3    3    0    0 -0.15011305918E+02  0.18914464438E+02 -0.29275803852E+02  0.37949705211E+02  0.10566000000E+00 0. -1.
         23    2    1    0    0    0  0.18127420281E+02  0.11756595378E+02  0.18515882327E+02  0.96545495976E+02  0.92257108095E+02 0.  0.
         13    1    3    3    0    0  0.33138726199E+02 -0.71578690605E+01  0.47791686179E+02  0.58595790765E+02  0.10566000000E+00 0.  1.
         22    1    1    0    0    0 -0.18127420281E+02 -0.11756595378E+02 -0.18515882327E+02  0.28454504024E+02  0.00000000000E+00 0.  1.
</event>
<event>
 5    1  0.1724243E-003  0.9118800E+02  0.7818608E-02  0.1130116E+00
         25   -1    0    0    0    0  0.00000000000E+00  0.00000000000E+00  0.99999998245E-14  0.12500000000E+03  0.12500000000E+03 0.  0.
        -13    1    3    3    0    0  0.17188693775E+01 -0.26875386851E+02 -0.13486287206E+01  0.26964252146E+02  0.10566000000E+00 0.  1.
         23    2    1    0    0    0  0.47039354756E+00  0.29673167088E+02  0.21899133153E+02  0.88117888510E+02  0.80027945916E+02 0.  0.
         13    1    3    3    0    0 -0.12484758299E+01  0.56548553939E+02  0.23247761873E+02  0.61153636364E+02  0.10566000000E+00 0. -1.
         22    1    1    0    0    0 -0.47039354756E+00 -0.29673167088E+02 -0.21899133153E+02  0.36882111490E+02  0.00000000000E+00 0. -1.
</event>
<event>
 5    1  0.1724243E-003  0.9118800E+02  0.7818608E-02  0.1130116E+00
         25   -1    0    0    0    0  0.00000000000E+00  0.00000000000E+00  0.99999998245E-14  0.12500000000E+03  0.12500000000E+03 0.  0.
        -13    1    3    3    0    0  0.23227855401E+02  0.11525533959E+02  0.39175219655E+02  0.46979572141E+02  0.10566000000E+00 0.  1.
         23    2    1    0    0    0 -0.13386934925E+02  0.25045982035E+02  0.15151722090E+02  0.92811711367E+02  0.87051294315E+02 0.  0.
         13    1    3    3    0    0 -0.36614790325E+02  0.13520448077E+02 -0.24023497564E+02  0.45832139226E+02  0.10566000000E+00 0. -1.
         22    1    1    0    0    0  0.13386934925E+02 -0.25045982035E+02 -0.15151722090E+02  0.32188288633E+02  0.00000000000E+00 0. -1.
</event>
<event>
 5    1  0.1724243E-003  0.9118800E+02  0.7818608E-02  0.1130116E+00
         25   -1    0    0    0    0  0.00000000000E+00  0.00000000000E+00  0.99999998245E-14  0.12500000000E+03  0.12500000000E+03 0.  0.
        -13    1    3    3    0    0 -0.13844853965E+02  0.42539919032E+02  0.37589714026E+01  0.44893938596E+02  0.10566000000E+00 0. -1.
         23    2    1    0    0    0 -0.16252925908E+02 -0.52580649463E+01  0.22893247092E+02  0.96435938490E+02  0.92108548042E+02 0.  0.
         13    1    3    3    0    0 -0.24080719435E+01 -0.47797983979E+02  0.19134275689E+02  0.51541999894E+02  0.10566000000E+00 0.  1.
         22    1    1    0    0    0  0.16252925908E+02  0.52580649463E+01 -0.22893247092E+02  0.28564061510E+02  0.00000000000E+00 0.  1.
</event>
<event>
 5    1  0.1724243E-003  0.9118800E+02  0.7818608E-02  0.1130116E+00
         25   -1    0    0    0    0  0.00000000000E+00  0.00000000000E+00  0.99999998245E-14  0.12500000000E+03  0.12500000000E+03 0.  0.
        -13    1    3    3    0    0 -0.37792604738E+02 -0.14725627253E+02 -0.59391775648E+01  0.40992805040E+02  0.10566000000E+00 0.  1.
         23    2    1    0    0    0 -0.68363332384E+01  0.24160057410E+02  0.15897998927E+02  0.95281483952E+02  0.90528288330E+02 0.  0.
         13    1    3    3    0    0  0.30956271499E+02  0.38885684663E+02  0.21837176492E+02  0.54288678912E+02  0.10566000000E+00 0. -1.
         22    1    1    0    0    0  0.68363332384E+01 -0.24160057410E+02 -0.15897998927E+02  0.29718516048E+02  0.00000000000E+00 0. -1.
</event>
<event>
 5    1  0.1724243E-003  0.9118800E+02  0.7818608E-02  0.1130116E+00
         25   -1    0    0    0    0  0.00000000000E+00  0.00000000000E+00  0.99999998245E-14  0.12500000000E+03  0.12500000000E+03 0.  0.
        -13    1    3    3    0    0 -0.33357443064E+02  0.38052207880E+02  0.36304107276E+02  0.62279120911E+02  0.10566000000E+00 0. -1.
         23    2    1    0    0    0 -0.17734783109E+02  0.14636713527E+02  0.16019656157E+02  0.96975273450E+02  0.92837591323E+02 0.  0.
         13    1    3    3    0    0  0.15622659955E+02 -0.23415494353E+02 -0.20284451118E+02  0.34696152540E+02  0.10566000000E+00 0.  1.
         22    1    1    0    0    0  0.17734783109E+02 -0.14636713527E+02 -0.16019656157E+02  0.28024726550E+02  0.00000000000E+00 0. -1.
</event>
<event>
 5    1  0.1724243E-003  0.9118800E+02  0.7818608E-02  0.1130116E+00
         25   -1    0    0    0    0  0.00000000000E+00  0.00000000000E+00  0.99999998245E-14  0.12500000000E+03  0.12500000000E+03 0.  0.
        -13    1    3    3    0    0  0.26830220042E+02  0.35039964846E+02 -0.16991263399E+02  0.47290316555E+02  0.10566000000E+00 0.  1.
         23    2    1    0    0    0  0.18456205431E+02  0.11148491361E+02  0.22267259528E+02  0.94004012753E+02  0.88746848891E+02 0.  0.
         13    1    3    3    0    0 -0.83740146112E+01 -0.23891473485E+02  0.39258522927E+02  0.46713696198E+02  0.10566000000E+00 0. -1.
         22    1    1    0    0    0 -0.18456205431E+02 -0.11148491361E+02 -0.22267259528E+02  0.30995987247E+02  0.00000000000E+00 0.  1.
</event>
<event>
 5    1  0.1724243E-003  0.9118800E+02  0.7818608E-02  0.1130116E+00
         25   -1    0    0    0    0  0.00000000000E+00  0.00000000000E+00  0.99999998245E-14  0.12500000000E+03  0.12500000000E+03 0.  0.
        -13    1    3    3    0    0 -0.50507799486E+02 -0.26486395198E+02 -0.25130049775E+02  0.62322528071E+02  0.10566000000E+00 0.  1.
         23    2    1    0    0    0 -0.23284261401E+02 -0.85428725593E+01 -0.10227676852E+02  0.98171975951E+02  0.94435131110E+02 0.  0.
         13    1    3    3    0    0  0.27223538085E+02  0.17943522638E+02  0.14902372923E+02  0.35849447880E+02  0.10566000000E+00 0. -1.
         22    1    1    0    0    0  0.23284261401E+02  0.85428725593E+01  0.10227676852E+02  0.26828024049E+02  0.00000000000E+00 0.  1.
</event>
<event>
 5    1  0.1724243E-003  0.9118800E+02  0.7818608E-02  0.1130116E+00
         25   -1    0    0    0    0  0.00000000000E+00  0.00000000000E+00  0.99999998245E-14  0.12500000000E+03  0.12500000000E+03 0.  0.
        -13    1    3    3    0    0  0.14944522294E+02 -0.67352082624E+01 -0.30654637004E+02  0.34762331780E+02  0.10566000000E+00 0.  1.
         23    2    1    0    0    0 -0.26170844290E+02 -0.19564837726E+01  0.13670414468E+02  0.95409103574E+02  0.90704332275E+02 0.  0.
         13    1    3    3    0    0 -0.41115366584E+02  0.47787244897E+01  0.44325051471E+02  0.60646771794E+02  0.10566000000E+00 0. -1.
         22    1    1    0    0    0  0.26170844290E+02  0.19564837726E+01 -0.13670414468E+02  0.29590896426E+02  0.00000000000E+00 0. -1.
</event>
<event>
 5    1  0.1724243E-003  0.9118800E+02  0.7818608E-02  0.1130116E+00
         25   -1    0    0    0    0  0.00000000000E+00  0.00000000000E+00  0.99999998245E-14  0.12500000000E+03  0.12500000000E+03 0.  0.
        -13    1    3    3    0    0 -0.14234417366E+02  0.31915106789E+02 -0.15716285415E+02  0.38317169394E+02  0.10566000000E+00 0.  1.
         23    2    1    0    0    0  0.24976772056E+02 -0.41575493252E+01  0.10367324801E+02  0.97639338783E+02  0.93727448998E+02 0.  0.
         13    1    3    3    0    0  0.39211189421E+02 -0.36072656115E+02  0.26083610216E+02  0.59322169388E+02  0.10566000000E+00 0. -1.
         22    1    1    0    0    0 -0.24976772056E+02  0.41575493252E+01 -0.10367324801E+02  0.27360661217E+02  0.00000000000E+00 0. -1.
</event>
<event>
 5    1  0.1724243E-003  0.9118800E+02  0.7818608E-02  0.1130116E+00
         25   -1    0    0    0    0  0.00000000000E+00  0.00000000000E+00  0.99999998245E-14  0.12500000000E+03  0.12500000000E+03 0.  0.
        -13    1    3    3    0    0  0.13457192874E+02 -0.40757157246E+02 -0.27824078443E+01  0.43011566634E+02  0.10566000000E+00 0. -1.
         23    2    1    0    0    0 -0.11946638408E+01  0.18873584036E+02 -0.76307118955E+01  0.10460717871E+03  0.10260016900E+03 0.  0.
         13    1    3    3    0    0 -0.14651856715E+02  0.59630741282E+02 -0.48483040512E+01  0.61595612078E+02  0.10566000000E+00 0.  1.
         22    1    1    0    0    0  0.11946638408E+01 -0.18873584036E+02  0.76307118955E+01  0.20392821288E+02  0.00000000000E+00 0.  1.
</event>
<event>
 5    1  0.1724243E-003  0.9118800E+02  0.7818608E-02  0.1130116E+00
         25   -1    0    0    0    0  0.00000000000E+00  0.00000000000E+00  0.99999998245E-14  0.12500000000E+03  0.12500000000E+03 0.  0.
        -13    1    3    3    0    0  0.19866369637E+02 -0.22664043387E+02 -0.52781592912E+02  0.60780253533E+02  0.10566000000E+00 0. -1.
         23    2    1    0    0    0  0.68572783975E+01 -0.18657540814E+02 -0.17799050832E+02  0.98317940358E+02  0.94628141107E+02 0.  0.
         13    1    3    3    0    0 -0.13009091240E+02  0.40065025726E+01  0.34982542080E+02  0.37537686825E+02  0.10566000000E+00 0.  1.
         22    1    1    0    0    0 -0.68572783975E+01  0.18657540814E+02  0.17799050832E+02  0.26682059642E+02  0.00000000000E+00 0. -1.
</event>
<event>
 5    1  0.1724243E-003  0.9118800E+02  0.7818608E-02  0.1130116E+00
         25   -1    0    0    0    0  0.00000000000E+00  0.00000000000E+00  0.99999998245E-14  0.12500000000E+03  0.12500000000E+03 0.  0.
        -13    1    3    3    0    0  0.39167160380E+02 -0.28493427253E+02  0.28640707346E+02  0.56269380040E+02  0.10566000000E+00 0.  1.
         23    2    1    0    0    0  0.26564668509E+02  0.45126320964E+01  0.96599079096E+01  0.96375547476E+02  0.92026555239E+02 0.  0.
         13    1    3    3    0    0 -0.12602491870E+02  0.33006059350E+02 -0.18980799436E+02  0.40106167436E+02  0.10566000000E+00 0. -1.
         22    1    1    0    0    0 -0.26564668509E+02 -0.45126320964E+01 -0.96599079096E+01  0.28624452524E+02  0.00000000000E+00 0.  1.
</event>
<event>
 5    1  0.1724243E-003  0.9118800E+02  0.7818608E-02  0.1130116E+00
         25   -1    0    0    0    0  0.00000000000E+00  0.00000000000E+00  0.99999998245E-14  0.12500000000E+03  0.12500000000E+03 0.  0.
        -13    1    3    3    0    0  0.13647686763E+02 -0.11328325380E+02  0.35509698016E+02  0.39693074044E+02  0.10566000000E+00 0.  1.
         23    2    1    0    0    0  0.17431499256E+01  0.28727033791E+02 -0.24084239199E+01  0.96119529992E+02  0.91678146240E+02 0.  0.
         13    1    3    3    0    0 -0.11904536837E+02  0.40055359171E+02 -0.37918121936E+02  0.56426455948E+02  0.10566000000E+00 0. -1.
         22    1    1    0    0    0 -0.17431499256E+01 -0.28727033791E+02  0.24084239199E+01  0.28880470008E+02  0.00000000000E+00 0. -1.
</event>
<event>
 5    1  0.1724243E-003  0.9118800E+02  0.7818608E-02  0.1130116E+00
         25   -1    0    0    0    0  0.00000000000E+00  0.00000000000E+00  0.99999998245E-14  0.12500000000E+03  0.12500000000E+03 0.  0.
        -13    1    3    3    0    0 -0.33932903069E+02  0.10401956628E+02  0.96532804648E+01  0.36780967907E+02  0.10566000000E+00 0.  1.
         23    2    1    0    0    0  0.23842506023E+02 -0.39223806593E+01  0.15023234360E+02  0.96547447670E+02  0.92259752425E+02 0.  0.
         13    1    3    3    0    0  0.57775409092E+02 -0.14324337288E+02  0.53699538947E+01  0.59766479763E+02  0.10566000000E+00 0. -1.
         22    1    1    0    0    0 -0.23842506023E+02  0.39223806593E+01 -0.15023234360E+02  0.28452552330E+02  0.00000000000E+00 0. -1.
</event>
<event>
 5    1  0.1724243E-003  0.9118800E+02  0.7818608E-02  0.1130116E+00
         25   -1    0    0    0    0  0.00000000000E+00  0.00000000000E+00  0.99999998245E-14  0.12500000000E+03  0.12500000000E+03 0.  0.
        -13    1    3    3    0    0  0.15641671565E+02 -0.47435377131E+02  0.42879707395E+01  0.50131574382E+02  0.10566000000E+00 0.  1.
         23    2    1    0    0    0 -0.20140227049E+02 -0.20273500723E+02 -0.49563948598E+01  0.95996389412E+02  0.91510094268E+02 0.  0.
         13    1    3    3    0    0 -0.35781898614E+02  0.27161876408E+02 -0.92443655992E+01  0.45864815030E+02  0.10566000000E+00 0. -1.
         22    1    1    0    0    0  0.20140227049E+02  0.20273500723E+02  0.49563948598E+01  0.29003610588E+02  0.00000000000E+00 0.  1.
</event>
<event>
 5    1  0.1724243E-003  0.9118800E+02  0.7818608E-02  0.1130116E+00
         25   -1    0    0    0    0  0.00000000000E+00  0.00000000000E+00  0.99999998245E-14  0.12500000000E+03  0.12500000000E+03 0.  0.
        -13    1    3    3    0    0  0.28911595351E+01 -0.36139069962E+01  0.57616717355E+02  0.57802391041E+02  0.10566000000E+00 0.  1.
         23    2    1    0    0    0 -0.12544491326E+02  0.66420858889E+01  0.14620689703E+02  0.10462241096E+03  0.10261872510E+03 0.  0.
         13    1    3    3    0    0 -0.15435650861E+02  0.10255992885E+02 -0.42996027652E+02  0.46820019922E+02  0.10566000000E+00 0. -1.
         22    1    1    0    0    0  0.12544491326E+02 -0.66420858889E+01 -0.14620689703E+02  0.20377589037E+02  0.00000000000E+00 0.  1.
</event>
<event>
 5    1  0.1724243E-003  0.9118800E+02  0.7818608E-02  0.1130116E+00
         25   -1    0    0    0    0  0.00000000000E+00  0.00000000000E+00  0.99999998245E-14  0.12500000000E+03  0.12500000000E+03 0.  0.
        -13    1    3    3    0    0 -0.23625449697E+02 -0.24400815871E+02 -0.10977683807E+02  0.35694290781E+02  0.10566000000E+00 0.  1.
         23    2    1    0    0    0  0.24201060261E+02  0.13056323276E+02 -0.72734931876E+01  0.96555974294E+02  0.92271304171E+02 0.  0.
         13    1    3    3    0    0  0.47826509958E+02  0.37457139147E+02  0.37041906190E+01  0.60861683513E+02  0.10566000000E+00 0. -1.
         22    1    1    0    0    0 -0.24201060261E+02 -0.13056323276E+02  0.72734931876E+01  0.28444025706E+02  0.00000000000E+00 0. -1.
</event>
<event>
 5    1  0.1724243E-003  0.9118800E+02  0.7818608E-02  0.1130116E+00
         25   -1    0    0    0    0  0.00000000000E+00  0.00000000000E+00  0.99999998245E-14  0.12500000000E+03  0.12500000000E+03 0.  0.
        -13    1    3    3    0    0  0.14785774932E+02  0.16019057434E+02  0.29279038525E+02  0.36503460142E+02  0.10566000000E+00 0.  1.
         23    2    1    0    0    0  0.62467638055E+01 -0.73629502256E+01 -0.26073662739E+02  0.97195845945E+02  0.93134104850E+02 0.  0.
         13    1    3    3    0    0 -0.85390111262E+01 -0.23382007659E+02 -0.55352701264E+02  0.60692385803E+02  0.10566000000E+00 0. -1.
         22    1    1    0    0    0 -0.62467638055E+01  0.73629502256E+01  0.26073662739E+02  0.27804154055E+02  0.00000000000E+00 0. -1.
</event>
<event>
 5    1  0.1724243E-003  0.9118800E+02  0.7818608E-02  0.1130116E+00
         25   -1    0    0    0    0  0.00000000000E+00  0.00000000000E+00  0.99999998245E-14  0.12500000000E+03  0.12500000000E+03 0.  0.
        -13    1    3    3    0    0 -0.34493336914E+02 -0.49430095984E+01 -0.43672668728E+02  0.55870714987E+02  0.10566000000E+00 0.  1.
         23    2    1    0    0    0  0.17685547737E+01 -0.60337404008E+01 -0.29529461546E+02  0.94808562333E+02  0.89872913512E+02 0.  0.
         13    1    3    3    0    0  0.36261891688E+02 -0.10907308023E+01  0.14143207181E+02  0.38937847345E+02  0.10566000000E+00 0. -1.
         22    1    1    0    0    0 -0.17685547737E+01  0.60337404008E+01  0.29529461546E+02  0.30191437667E+02  0.00000000000E+00 0.  1.
</event>
<event>
 5    1  0.1724243E-003  0.9118800E+02  0.7818608E-02  0.1130116E+00
         25   -1    0    0    0    0  0.00000000000E+00  0.00000000000E+00  0.99999998245E-14  0.12500000000E+03  0.12500000000E+03 0.  0.
        -13    1    3    3    0    0  0.96963872203E+01 -0.42635169532E+02  0.38891336218E+01  0.43896630059E+02  0.10566000000E+00 0.  1.
         23    2    1    0    0    0  0.15618981255E+02 -0.27893821127E+00 -0.25009093842E+02  0.95512966294E+02  0.90847353146E+02 0.  0.
         13    1    3    3    0    0  0.59225940346E+01  0.42356231321E+02 -0.28898227464E+02  0.51616336236E+02  0.10566000000E+00 0. -1.
         22    1    1    0    0    0 -0.15618981255E+02  0.27893821127E+00  0.25009093842E+02  0.29487033706E+02  0.00000000000E+00 0. -1.
</event>
<event>
 5    1  0.1724243E-003  0.9118800E+02  0.7818608E-02  0.1130116E+00
         25   -1    0    0    0    0  0.00000000000E+00  0.00000000000E+00  0.99999998245E-14  0.12500000000E+03  0.12500000000E+03 0.  0.
        -13    1    3    3    0    0  0.37306017924E+02 -0.25980877538E+02 -0.21567989449E+02  0.50318329701E+02  0.10566000000E+00 0.  1.
         23    2    1    0    0    0  0.13375532015E+02 -0.13386671699E+02  0.18419828974E+02  0.98591707073E+02  0.94989087627E+02 0.  0.
         13    1    3    3    0    0 -0.23930485909E+02  0.12594205839E+02  0.39987818424E+02  0.48273377372E+02  0.10566000000E+00 0. -1.
         22    1    1    0    0    0 -0.13375532015E+02  0.13386671699E+02 -0.18419828974E+02  0.26408292927E+02  0.00000000000E+00 0.  1.
</event>
<event>
 5    1  0.1724243E-003  0.9118800E+02  0.7818608E-02  0.1130116E+00
         25   -1    0    0    0    0  0.00000000000E+00  0.00000000000E+00  0.99999998245E-14  0.12500000000E+03  0.12500000000E+03 0.  0.
        -13    1    3    3    0    0  0.13522437945E+02  0.17362753527E+02 -0.30755380782E+02  0.37818330861E+02  0.10566000000E+00 0.  1.
         23    2    1    0    0    0  0.28108112604E+02  0.91726886328E+01  0.18692960069E+02  0.90019563080E+02  0.82945106969E+02 0.  0.
         13    1    3    3    0    0  0.14585674660E+02 -0.81900648946E+01  0.49448340851E+02  0.52201232220E+02  0.10566000000E+00 0. -1.
         22    1    1    0    0    0 -0.28108112604E+02 -0.91726886328E+01 -0.18692960069E+02  0.34980436920E+02  0.00000000000E+00 0.  1.
</event>
<event>
 5    1  0.1724243E-003  0.9118800E+02  0.7818608E-02  0.1130116E+00
         25   -1    0    0    0    0  0.00000000000E+00  0.00000000000E+00  0.99999998245E-14  0.12500000000E+03  0.12500000000E+03 0.  0.
        -13    1    3    3    0    0 -0.95669443161E+00 -0.17380442966E+02 -0.30294228201E+02  0.34939182707E+02  0.10566000000E+00 0.  1.
         23    2    1    0    0    0  0.68858771142E+01  0.10375720752E+02  0.24868743178E+02  0.97187677695E+02  0.93123141182E+02 0.  0.
         13    1    3    3    0    0  0.78425715458E+01  0.27756163718E+02  0.55162971379E+02  0.62248494987E+02  0.10566000000E+00 0. -1.
         22    1    1    0    0    0 -0.68858771142E+01 -0.10375720752E+02 -0.24868743178E+02  0.27812322305E+02  0.00000000000E+00 0. -1.
</event>
<event>
 5    1  0.1724243E-003  0.9118800E+02  0.7818608E-02  0.1130116E+00
         25   -1    0    0    0    0  0.00000000000E+00  0.00000000000E+00  0.99999998245E-14  0.12500000000E+03  0.12500000000E+03 0.  0.
        -13    1    3    3    0    0 -0.15596133197E+01 -0.27570403211E+02 -0.43963493410E+02  0.51916851250E+02  0.10566000000E+00 0.  1.
         23    2    1    0    0    0 -0.22644374547E+02  0.10347910156E+01 -0.19922537024E+02  0.94821431900E+02  0.89890811405E+02 0.  0.
         13    1    3    3    0    0 -0.21084761228E+02  0.28605194226E+02  0.24040956386E+02  0.42904580650E+02  0.10566000000E+00 0. -1.
         22    1    1    0    0    0  0.22644374547E+02 -0.10347910156E+01  0.19922537024E+02  0.30178568100E+02  0.00000000000E+00 0.  1.
</event>
<event>
 5    1  0.1724243E-003  0.9118800E+02  0.7818608E-02  0.1130116E+00
         25   -1    0    0    0    0  0.00000000000E+00  0.00000000000E+00  0.99999998245E-14  0.12500000000E+03  0.12500000000E+03 0.  0.
        -13    1    3    3    0    0  0.29982781333E+02  0.30664181318E+02 -0.26855126662E+02  0.50601069005E+02  0.10566000000E+00 0.  1.
         23    2    1    0    0    0 -0.64386642020E+01  0.28031344110E+02  0.51116088478E+00  0.96234153328E+02  0.91834298233E+02 0.  0.
         13    1    3    3    0    0 -0.36421445535E+02 -0.26328372082E+01  0.27366287547E+02  0.45633084322E+02  0.10566000000E+00 0. -1.
         22    1    1    0    0    0  0.64386642020E+01 -0.28031344110E+02 -0.51116088478E+00  0.28765846672E+02  0.00000000000E+00 0. -1.
</event>
<event>
 5    1  0.1724243E-003  0.9118800E+02  0.7818608E-02  0.1130116E+00
         25   -1    0    0    0    0  0.00000000000E+00  0.00000000000E+00  0.99999998245E-14  0.12500000000E+03  0.12500000000E+03 0.  0.
        -13    1    3    3    0    0  0.17345771883E+02  0.12479829835E+02 -0.54573453023E+02  0.58607976367E+02  0.10566000000E+00 0.  1.
         23    2    1    0    0    0  0.18841599765E+02  0.13708401968E+02 -0.17183041793E+02  0.96048608125E+02  0.91581395661E+02 0.  0.
         13    1    3    3    0    0  0.14958278824E+01  0.12285721329E+01  0.37390411229E+02  0.37440631758E+02  0.10566000000E+00 0. -1.
         22    1    1    0    0    0 -0.18841599765E+02 -0.13708401968E+02  0.17183041793E+02  0.28951391875E+02  0.00000000000E+00 0.  1.
</event>
<event>
 5    1  0.1724243E-003  0.9118800E+02  0.7818608E-02  0.1130116E+00
         25   -1    0    0    0    0  0.00000000000E+00  0.00000000000E+00  0.99999998245E-14  0.12500000000E+03  0.12500000000E+03 0.  0.
        -13    1    3    3    0    0  0.29151507670E+02 -0.46146211946E+02 -0.17595884113E+02  0.57349015494E+02  0.10566000000E+00 0.  1.
         23    2    1    0    0    0  0.17016917382E+02 -0.13555170738E+02 -0.23887055121E+02  0.92690411125E+02  0.86876940446E+02 0.  0.
         13    1    3    3    0    0 -0.12134590288E+02  0.32591041208E+02 -0.62911710080E+01  0.35341395631E+02  0.10566000000E+00 0. -1.
         22    1    1    0    0    0 -0.17016917382E+02  0.13555170738E+02  0.23887055121E+02  0.32309588875E+02  0.00000000000E+00 0.  1.
</event>
<event>
 5    1  0.1724243E-003  0.9118800E+02  0.7818608E-02  0.1130116E+00
         25   -1    0    0    0    0  0.00000000000E+00  0.00000000000E+00  0.99999998245E-14  0.12500000000E+03  0.12500000000E+03 0.  0.
        -13    1    3    3    0    0 -0.43897324511E+02  0.38516596304E+02  0.40430057242E+01  0.58539391433E+02  0.10566000000E+00 0.  1.
         23    2    1    0    0    0 -0.78084053912E+01  0.26306839645E+02  0.67718823691E+01  0.96735545332E+02  0.92514249352E+02 0.  0.
         13    1    3    3    0    0  0.36088919120E+02 -0.12209756659E+02  0.27288766449E+01  0.38196153899E+02  0.10566000000E+00 0. -1.
         22    1    1    0    0    0  0.78084053912E+01 -0.26306839645E+02 -0.67718823691E+01  0.28264454668E+02  0.00000000000E+00 0.  1.
</event>
<event>
 5    1  0.1724243E-003  0.9118800E+02  0.7818608E-02  0.1130116E+00
         25   -1    0    0    0    0  0.00000000000E+00  0.00000000000E+00  0.99999998245E-14  0.12500000000E+03  0.12500000000E+03 0.  0.
        -13    1    3    3    0    0  0.19668917498E+02  0.10291795306E+01  0.36677075102E+02  0.41631052451E+02  0.10566000000E+00 0.  1.
         23    2    1    0    0    0 -0.13497432133E+01  0.28003036747E+02 -0.60112122668E+01  0.96327250799E+02  0.91960930290E+02 0.  0.
         13    1    3    3    0    0 -0.21018660711E+02  0.26973857217E+02 -0.42688287369E+02  0.54696198349E+02  0.10566000000E+00 0. -1.
         22    1    1    0    0    0  0.13497432133E+01 -0.28003036747E+02  0.60112122668E+01  0.28672749201E+02  0.00000000000E+00 0. -1.
</event>
<event>
 5    1  0.1724243E-003  0.9118800E+02  0.7818608E-02  0.1130116E+00
         25   -1    0    0    0    0  0.00000000000E+00  0.00000000000E+00  0.99999998245E-14  0.12500000000E+03  0.12500000000E+03 0.  0.
        -13    1    3    3    0    0  0.10910349196E+02 -0.50615528450E+02 -0.11063478671E+02  0.52946946694E+02  0.10566000000E+00 0. -1.
         23    2    1    0    0    0 -0.11681665541E+02 -0.41194694741E+02  0.44869646639E+01  0.81946579270E+02  0.69725496180E+02 0.  0.
         13    1    3    3    0    0 -0.22592014737E+02  0.94208337085E+01  0.15550443334E+02  0.28999632577E+02  0.10566000000E+00 0.  1.
         22    1    1    0    0    0  0.11681665541E+02  0.41194694741E+02 -0.44869646639E+01  0.43053420730E+02  0.00000000000E+00 0. -1.
</event>
<event>
 5    1  0.1724243E-003  0.9118800E+02  0.7818608E-02  0.1130116E+00
         25   -1    0    0    0    0  0.00000000000E+00  0.00000000000E+00  0.99999998245E-14  0.12500000000E+03  0.12500000000E+03 0.  0.
        -13    1    3    3    0    0 -0.43511213910E+02 -0.12079164990E+02  0.72811866478E+01  0.45740122495E+02  0.10566000000E+00 0. -1.
         23    2    1    0    0    0 -0.74478806961E+01  0.21092307847E+02  0.18459372888E+02  0.95998192736E+02  0.91512557520E+02 0.  0.
         13    1    3    3    0    0  0.36063333214E+02  0.33171472837E+02  0.11178186240E+02  0.50258070241E+02  0.10566000000E+00 0.  1.
         22    1    1    0    0    0  0.74478806961E+01 -0.21092307847E+02 -0.18459372888E+02  0.29001807264E+02  0.00000000000E+00 0. -1.
</event>
<event>
 5    1  0.1724243E-003  0.9118800E+02  0.7818608E-02  0.1130116E+00
         25   -1    0    0    0    0  0.00000000000E+00  0.00000000000E+00  0.99999998245E-14  0.12500000000E+03  0.12500000000E+03 0.  0.
        -13    1    3    3    0    0  0.64453130146E+01  0.26770963173E+02  0.20000623212E+02  0.34033257587E+02  0.10566000000E+00 0. -1.
         23    2    1    0    0    0 -0.17027926648E+02 -0.25763995803E+02  0.10673646077E+02  0.92324925613E+02  0.86349472512E+02 0.  0.
         13    1    3    3    0    0 -0.23473239662E+02 -0.52534958975E+02 -0.93269771350E+01  0.58291668026E+02  0.10566000000E+00 0.  1.
         22    1    1    0    0    0  0.17027926648E+02  0.25763995803E+02 -0.10673646077E+02  0.32675074387E+02  0.00000000000E+00 0.  1.
</event>
<event>
 5    1  0.1724243E-003  0.9118800E+02  0.7818608E-02  0.1130116E+00
         25   -1    0    0    0    0  0.00000000000E+00  0.00000000000E+00  0.99999998245E-14  0.12500000000E+03  0.12500000000E+03 0.  0.
        -13    1    3    3    0    0 -0.15981981518E+02 -0.40499601537E+02  0.26628606125E+02  0.51036607314E+02  0.10566000000E+00 0. -1.
         23    2    1    0    0    0  0.19660085148E+02 -0.18999228107E+02  0.11767262367E+02  0.95234952036E+02  0.90464014995E+02 0.  0.
         13    1    3    3    0    0  0.35642066665E+02  0.21500373430E+02 -0.14861343759E+02  0.44198344722E+02  0.10566000000E+00 0.  1.
         22    1    1    0    0    0 -0.19660085148E+02  0.18999228107E+02 -0.11767262367E+02  0.29765047964E+02  0.00000000000E+00 0. -1.
</event>
<event>
 5    1  0.1724243E-003  0.9118800E+02  0.7818608E-02  0.1130116E+00
         25   -1    0    0    0    0  0.00000000000E+00  0.00000000000E+00  0.99999998245E-14  0.12500000000E+03  0.12500000000E+03 0.  0.
        -13    1    3    3    0    0 -0.24465073700E+02  0.13858646470E+02  0.24075201064E+02  0.37016596054E+02  0.10566000000E+00 0. -1.
         23    2    1    0    0    0  0.28539061774E+02 -0.32789204823E+01  0.53961221548E+01  0.95770776597E+02  0.91201393351E+02 0.  0.
         13    1    3    3    0    0  0.53004135474E+02 -0.17137566952E+02 -0.18679078909E+02  0.58754180543E+02  0.10566000000E+00 0.  1.
         22    1    1    0    0    0 -0.28539061774E+02  0.32789204823E+01 -0.53961221548E+01  0.29229223403E+02  0.00000000000E+00 0.  1.
</event>
<event>
 5    1  0.1724243E-003  0.9118800E+02  0.7818608E-02  0.1130116E+00
         25   -1    0    0    0    0  0.00000000000E+00  0.00000000000E+00  0.99999998245E-14  0.12500000000E+03  0.12500000000E+03 0.  0.
        -13    1    3    3    0    0 -0.38741044650E+02  0.72755191475E+01  0.38550435590E+01  0.39606492452E+02  0.10566000000E+00 0.  1.
         23    2    1    0    0    0  0.15156179699E+02  0.12043908321E+02 -0.18567323768E+02  0.98176297373E+02  0.94440851030E+02 0.  0.
         13    1    3    3    0    0  0.53897224350E+02  0.47683891737E+01 -0.22422367327E+02  0.58569804921E+02  0.10566000000E+00 0. -1.
         22    1    1    0    0    0 -0.15156179699E+02 -0.12043908321E+02  0.18567323768E+02  0.26823702627E+02  0.00000000000E+00 0. -1.
</event>
<event>
 5    1  0.1724243E-003  0.9118800E+02  0.7818608E-02  0.1130116E+00
         25   -1    0    0    0    0  0.00000000000E+00  0.00000000000E+00  0.99999998245E-14  0.12500000000E+03  0.12500000000E+03 0.  0.
        -13    1    3    3    0    0 -0.11491501740E+02  0.39875714280E+02  0.12153407336E+01  0.41516447569E+02  0.10566000000E+00 0.  1.
         23    2    1    0    0    0 -0.15196916396E+02 -0.34229756877E+01 -0.27352553289E+02  0.93522623967E+02  0.88066202324E+02 0.  0.
         13    1    3    3    0    0 -0.37054146559E+01 -0.43298689968E+02 -0.28567894022E+02  0.52006176399E+02  0.10566000000E+00 0. -1.
         22    1    1    0    0    0  0.15196916396E+02  0.34229756877E+01  0.27352553289E+02  0.31477376033E+02  0.00000000000E+00 0. -1.
</event>
<event>
 5    1  0.1724243E-003  0.9118800E+02  0.7818608E-02  0.1130116E+00
         25   -1    0    0    0    0  0.00000000000E+00  0.00000000000E+00  0.99999998245E-14  0.12500000000E+03  0.12500000000E+03 0.  0.
        -13    1    3    3    0    0 -0.87618041997E+01 -0.59161489080E+02  0.18022711422E+02  0.62463431654E+02  0.10566000000E+00 0.  1.
         23    2    1    0    0    0 -0.55967464707E+01 -0.27498515613E+02  0.84724585847E+01  0.95686615917E+02  0.91085970265E+02 0.  0.
         13    1    3    3    0    0  0.31650577290E+01  0.31662973467E+02 -0.95502528375E+01  0.33223184262E+02  0.10566000000E+00 0. -1.
         22    1    1    0    0    0  0.55967464707E+01  0.27498515613E+02 -0.84724585847E+01  0.29313384083E+02  0.00000000000E+00 0.  1.
</event>
<event>
 5    1  0.1724243E-003  0.9118800E+02  0.7818608E-02  0.1130116E+00
         25   -1    0    0    0    0  0.00000000000E+00  0.00000000000E+00  0.99999998245E-14  0.12500000000E+03  0.12500000000E+03 0.  0.
        -13    1    3    3    0    0 -0.42994835022E+02  0.12724303631E+02  0.14950912735E+01  0.44863238887E+02  0.10566000000E+00 0.  1.
         23    2    1    0    0    0 -0.42456430332E+01  0.10554711185E+02 -0.28759181288E+02  0.94072376081E+02  0.88843086508E+02 0.  0.
         13    1    3    3    0    0  0.38749191989E+02 -0.21695924463E+01 -0.30254272561E+02  0.49209137194E+02  0.10566000000E+00 0. -1.
         22    1    1    0    0    0  0.42456430332E+01 -0.10554711185E+02  0.28759181288E+02  0.30927623919E+02  0.00000000000E+00 0.  1.
</event>
<event>
 5    1  0.1724243E-003  0.9118800E+02  0.7818608E-02  0.1130116E+00
         25   -1    0    0    0    0  0.00000000000E+00  0.00000000000E+00  0.99999998245E-14  0.12500000000E+03  0.12500000000E+03 0.  0.
        -13    1    3    3    0    0 -0.29905892618E+01  0.18694035180E+02 -0.24374029708E+02  0.30862842768E+02  0.10566000000E+00 0.  1.
         23    2    1    0    0    0  0.11040768875E+02  0.53981483248E+01  0.32139460848E+02  0.90590938312E+02  0.83801757607E+02 0.  0.
         13    1    3    3    0    0  0.14031358136E+02 -0.13295886856E+02  0.56513490556E+02  0.59728095544E+02  0.10566000000E+00 0. -1.
         22    1    1    0    0    0 -0.11040768875E+02 -0.53981483248E+01 -0.32139460848E+02  0.34409061688E+02  0.00000000000E+00 0. -1.
</event>
<event>
 5    1  0.1724243E-003  0.9118800E+02  0.7818608E-02  0.1130116E+00
         25   -1    0    0    0    0  0.00000000000E+00  0.00000000000E+00  0.99999998245E-14  0.12500000000E+03  0.12500000000E+03 0.  0.
        -13    1    3    3    0    0  0.31354482657E+02 -0.25739997128E+02  0.19174068950E+02  0.44869891007E+02  0.10566000000E+00 0.  1.
         23    2    1    0    0    0  0.23430856805E+02  0.10077769585E+02 -0.15338673581E+02  0.95236912162E+02  0.90466723388E+02 0.  0.
         13    1    3    3    0    0 -0.79236258525E+01  0.35817766713E+02 -0.34512742531E+02  0.50367021155E+02  0.10566000000E+00 0. -1.
         22    1    1    0    0    0 -0.23430856805E+02 -0.10077769585E+02  0.15338673581E+02  0.29763087838E+02  0.00000000000E+00 0. -1.
</event>
<event>
 5    1  0.1724243E-003  0.9118800E+02  0.7818608E-02  0.1130116E+00
         25   -1    0    0    0    0  0.00000000000E+00  0.00000000000E+00  0.99999998245E-14  0.12500000000E+03  0.12500000000E+03 0.  0.
        -13    1    3    3    0    0  0.24410087682E+02  0.18195879995E+02 -0.26600981830E+02  0.40429764132E+02  0.10566000000E+00 0. -1.
         23    2    1    0    0    0 -0.22183515518E+02 -0.87887114532E+01 -0.18343425227E+02  0.94902972592E+02  0.90004128505E+02 0.  0.
         13    1    3    3    0    0 -0.46593603200E+02 -0.26984591448E+02  0.82575566028E+01  0.54473208460E+02  0.10566000000E+00 0.  1.
         22    1    1    0    0    0  0.22183515518E+02  0.87887114532E+01  0.18343425227E+02  0.30097027408E+02  0.00000000000E+00 0.  1.
</event>
<event>
 5    1  0.1724243E-003  0.9118800E+02  0.7818608E-02  0.1130116E+00
         25   -1    0    0    0    0  0.00000000000E+00  0.00000000000E+00  0.99999998245E-14  0.12500000000E+03  0.12500000000E+03 0.  0.
        -13    1    3    3    0    0 -0.21432359135E+02  0.16483352287E+02  0.20825241317E+02  0.34128415736E+02  0.10566000000E+00 0.  1.
         23    2    1    0    0    0  0.26219713684E+02  0.15756802977E+01 -0.14221258857E+02  0.95130276909E+02  0.90319262770E+02 0.  0.
         13    1    3    3    0    0  0.47652072818E+02 -0.14907671990E+02 -0.35046500174E+02  0.61001861173E+02  0.10566000000E+00 0. -1.
         22    1    1    0    0    0 -0.26219713684E+02 -0.15756802977E+01  0.14221258857E+02  0.29869723091E+02  0.00000000000E+00 0. -1.
</event>
<event>
 5    1  0.1724243E-003  0.9118800E+02  0.7818608E-02  0.1130116E+00
         25   -1    0    0    0    0  0.00000000000E+00  0.00000000000E+00  0.99999998245E-14  0.12500000000E+03  0.12500000000E+03 0.  0.
        -13    1    3    3    0    0 -0.25018361769E+01  0.35617901288E+02  0.33203024270E+01  0.35859861247E+02  0.10566000000E+00 0.  1.
         23    2    1    0    0    0  0.18512861464E+02 -0.20665368370E+02 -0.58799593311E+01  0.96638804482E+02  0.92383446139E+02 0.  0.
         13    1    3    3    0    0  0.21014697641E+02 -0.56283269658E+02 -0.92002617580E+01  0.60778943235E+02  0.10566000000E+00 0. -1.
         22    1    1    0    0    0 -0.18512861464E+02  0.20665368370E+02  0.58799593311E+01  0.28361195518E+02  0.00000000000E+00 0. -1.
</event>
<event>
 5    1  0.1724243E-003  0.9118800E+02  0.7818608E-02  0.1130116E+00
         25   -1    0    0    0    0  0.00000000000E+00  0.00000000000E+00  0.99999998245E-14  0.12500000000E+03  0.12500000000E+03 0.  0.
        -13    1    3    3    0    0  0.24941953832E+00 -0.77223587947E+01 -0.35892478201E+02  0.36714822496E+02  0.10566000000E+00 0. -1.
         23    2    1    0    0    0  0.20576216374E+02  0.60087683633E+01  0.18692826978E+02  0.96558696269E+02  0.92274991559E+02 0.  0.
         13    1    3    3    0    0  0.20326796835E+02  0.13731127158E+02  0.54585305179E+02  0.59843873773E+02  0.10566000000E+00 0.  1.
         22    1    1    0    0    0 -0.20576216374E+02 -0.60087683633E+01 -0.18692826978E+02  0.28441303731E+02  0.00000000000E+00 0.  1.
</event>
<event>
 5    1  0.1724243E-003  0.9118800E+02  0.7818608E-02  0.1130116E+00
         25   -1    0    0    0    0  0.00000000000E+00  0.00000000000E+00  0.99999998245E-14  0.12500000000E+03  0.12500000000E+03 0.  0.
        -13    1    3    3    0    0  0.77445235435E+01  0.32070964368E+02  0.83894805201E+01  0.34042898640E+02  0.10566000000E+00 0.  1.
         23    2    1    0    0    0  0.25129179615E+01 -0.21293327653E+02 -0.20829171778E+02  0.95107275866E+02  0.90287424188E+02 0.  0.
         13    1    3    3    0    0 -0.52316055820E+01 -0.53364292021E+02 -0.29218652298E+02  0.61064377226E+02  0.10566000000E+00 0. -1.
         22    1    1    0    0    0 -0.25129179615E+01  0.21293327653E+02  0.20829171778E+02  0.29892724134E+02  0.00000000000E+00 0. -1.
</event>
<event>
 5    1  0.1724243E-003  0.9118800E+02  0.7818608E-02  0.1130116E+00
         25   -1    0    0    0    0  0.00000000000E+00  0.00000000000E+00  0.99999998245E-14  0.12500000000E+03  0.12500000000E+03 0.  0.
        -13    1    3    3    0    0  0.37835268068E+02  0.44560186865E+01  0.16040067233E+01  0.38130665007E+02  0.10566000000E+00 0. -1.
         23    2    1    0    0    0 -0.20202670905E+02  0.87727829301E+01  0.15626502199E+02  0.97994496802E+02  0.94199916138E+02 0.  0.
         13    1    3    3    0    0 -0.58037938973E+02  0.43167642436E+01  0.14022495476E+02  0.59863831794E+02  0.10566000000E+00 0.  1.
         22    1    1    0    0    0  0.20202670905E+02 -0.87727829301E+01 -0.15626502199E+02  0.27005503198E+02  0.00000000000E+00 0.  1.
</event>
<event>
 5    1  0.1724243E-003  0.9118800E+02  0.7818608E-02  0.1130116E+00
         25   -1    0    0    0    0  0.00000000000E+00  0.00000000000E+00  0.99999998245E-14  0.12500000000E+03  0.12500000000E+03 0.  0.
        -13    1    3    3    0    0 -0.47143063647E+02 -0.40900614177E+01 -0.17943525357E+02  0.50608085507E+02  0.10566000000E+00 0.  1.
         23    2    1    0    0    0 -0.42267878481E+01  0.28173805212E+01 -0.29079164738E+02  0.95480494747E+02  0.90802663435E+02 0.  0.
         13    1    3    3    0    0  0.42916275799E+02  0.69074419388E+01 -0.11135639381E+02  0.44872409240E+02  0.10566000000E+00 0. -1.
         22    1    1    0    0    0  0.42267878481E+01 -0.28173805212E+01  0.29079164738E+02  0.29519505253E+02  0.00000000000E+00 0. -1.
</event>
<event>
 5    1  0.1724243E-003  0.9118800E+02  0.7818608E-02  0.1130116E+00
         25   -1    0    0    0    0  0.00000000000E+00  0.00000000000E+00  0.99999998245E-14  0.12500000000E+03  0.12500000000E+03 0.  0.
        -13    1    3    3    0    0  0.28598679272E+02 -0.52919632585E+02  0.16553060140E+02  0.62388996891E+02  0.10566000000E+00 0.  1.
         23    2    1    0    0    0  0.14745793312E+02 -0.22308810564E+02  0.84946702871E+01  0.96941474157E+02  0.92792071532E+02 0.  0.
         13    1    3    3    0    0 -0.13852885960E+02  0.30610822020E+02 -0.80583898524E+01  0.34552477266E+02  0.10566000000E+00 0. -1.
         22    1    1    0    0    0 -0.14745793312E+02  0.22308810564E+02 -0.84946702871E+01  0.28058525843E+02  0.00000000000E+00 0.  1.
</event>
<event>
 5    1  0.1724243E-003  0.9118800E+02  0.7818608E-02  0.1130116E+00
         25   -1    0    0    0    0  0.00000000000E+00  0.00000000000E+00  0.99999998245E-14  0.12500000000E+03  0.12500000000E+03 0.  0.
        -13    1    3    3    0    0 -0.46196034968E+02 -0.49982180905E+01  0.25158341172E+02  0.52839465604E+02  0.10566000000E+00 0. -1.
         23    2    1    0    0    0 -0.25954292892E+02  0.11552520201E+02 -0.83938110809E+01  0.95376662798E+02  0.90659614490E+02 0.  0.
         13    1    3    3    0    0  0.20241742075E+02  0.16550738292E+02 -0.33552152253E+02  0.42537197193E+02  0.10566000000E+00 0.  1.
         22    1    1    0    0    0  0.25954292892E+02 -0.11552520201E+02  0.83938110809E+01  0.29623337202E+02  0.00000000000E+00 0. -1.
</event>
<event>
 5    1  0.1724243E-003  0.9118800E+02  0.7818608E-02  0.1130116E+00
         25   -1    0    0    0    0  0.00000000000E+00  0.00000000000E+00  0.99999998245E-14  0.12500000000E+03  0.12500000000E+03 0.  0.
        -13    1    3    3    0    0  0.47579775369E+02  0.40126946734E+01  0.12181337851E+02  0.49278117847E+02  0.10566000000E+00 0. -1.
         23    2    1    0    0    0  0.19159140184E+02 -0.34736848712E+01 -0.22832699538E+02  0.94992145905E+02  0.90127889559E+02 0.  0.
         13    1    3    3    0    0 -0.28420635185E+02 -0.74863795445E+01 -0.35014037389E+02  0.45714028058E+02  0.10566000000E+00 0.  1.
         22    1    1    0    0    0 -0.19159140184E+02  0.34736848712E+01  0.22832699538E+02  0.30007854095E+02  0.00000000000E+00 0. -1.
</event>
<event>
 5    1  0.1724243E-003  0.9118800E+02  0.7818608E-02  0.1130116E+00
         25   -1    0    0    0    0  0.00000000000E+00  0.00000000000E+00  0.99999998245E-14  0.12500000000E+03  0.12500000000E+03 0.  0.
        -13    1    3    3    0    0  0.35412363870E+02  0.43924069649E+02 -0.50653881714E+01  0.56648289742E+02  0.10566000000E+00 0. -1.
         23    2    1    0    0    0  0.12743712906E+02  0.22956190678E+02  0.16206119726E+02  0.94145061568E+02  0.88945294378E+02 0.  0.
         13    1    3    3    0    0 -0.22668650964E+02 -0.20967878971E+02  0.21271507898E+02  0.37496771826E+02  0.10566000000E+00 0.  1.
         22    1    1    0    0    0 -0.12743712906E+02 -0.22956190678E+02 -0.16206119726E+02  0.30854938432E+02  0.00000000000E+00 0. -1.
</event>
<event>
 5    1  0.1724243E-003  0.9118800E+02  0.7818608E-02  0.1130116E+00
         25   -1    0    0    0    0  0.00000000000E+00  0.00000000000E+00  0.99999998245E-14  0.12500000000E+03  0.12500000000E+03 0.  0.
        -13    1    3    3    0    0  0.28357601704E+02 -0.12164377652E+02  0.36030716375E+02  0.47437847176E+02  0.10566000000E+00 0. -1.
         23    2    1    0    0    0  0.15050722880E+02 -0.22762346159E+02 -0.95493756912E+01  0.96089115580E+02  0.91636667852E+02 0.  0.
         13    1    3    3    0    0 -0.13306878825E+02 -0.10597968507E+02 -0.45580092067E+02  0.48651268405E+02  0.10566000000E+00 0.  1.
         22    1    1    0    0    0 -0.15050722880E+02  0.22762346159E+02  0.95493756912E+01  0.28910884420E+02  0.00000000000E+00 0.  1.
</event>
<event>
 5    1  0.1724243E-003  0.9118800E+02  0.7818608E-02  0.1130116E+00
         25   -1    0    0    0    0  0.00000000000E+00  0.00000000000E+00  0.99999998245E-14  0.12500000000E+03  0.12500000000E+03 0.  0.
        -13    1    3    3    0    0  0.51250186161E+02  0.15699911786E+02 -0.18263231213E+01  0.53632223820E+02  0.10566000000E+00 0.  1.
         23    2    1    0    0    0  0.20152761254E+02  0.19955641952E+01  0.21971147714E+02  0.95119447888E+02  0.90304274384E+02 0.  0.
         13    1    3    3    0    0 -0.31097424907E+02 -0.13704347591E+02  0.23797470835E+02  0.41487224069E+02  0.10566000000E+00 0. -1.
         22    1    1    0    0    0 -0.20152761254E+02 -0.19955641952E+01 -0.21971147714E+02  0.29880552112E+02  0.00000000000E+00 0.  1.
</event>
<event>
 5    1  0.1724243E-003  0.9118800E+02  0.7818608E-02  0.1130116E+00
         25   -1    0    0    0    0  0.00000000000E+00  0.00000000000E+00  0.99999998245E-14  0.12500000000E+03  0.12500000000E+03 0.  0.
        -13    1    3    3    0    0  0.31518266751E+02  0.37612315365E+02 -0.38251322199E+02  0.62219468176E+02  0.10566000000E+00 0. -1.
         23    2    1    0    0    0  0.10005248595E+02  0.18369740340E+02 -0.15914297799E+02  0.98716597746E+02  0.95153294407E+02 0.  0.
         13    1    3    3    0    0 -0.21513018156E+02 -0.19242575024E+02  0.22337024400E+02  0.36497129570E+02  0.10566000000E+00 0.  1.
         22    1    1    0    0    0 -0.10005248595E+02 -0.18369740340E+02  0.15914297799E+02  0.26283402254E+02  0.00000000000E+00 0. -1.
</event>
<event>
 5    1  0.1724243E-003  0.9118800E+02  0.7818608E-02  0.1130116E+00
         25   -1    0    0    0    0  0.00000000000E+00  0.00000000000E+00  0.99999998245E-14  0.12500000000E+03  0.12500000000E+03 0.  0.
        -13    1    3    3    0    0 -0.10493789257E+02  0.21520658850E+02 -0.25118156300E+02  0.34701459771E+02  0.10566000000E+00 0.  1.
         23    2    1    0    0    0  0.11222842390E+02 -0.68481952079E+01  0.25296001195E+02  0.96491446101E+02  0.92183846336E+02 0.  0.
         13    1    3    3    0    0  0.21716631647E+02 -0.28368854058E+02  0.50414157495E+02  0.61789986330E+02  0.10566000000E+00 0. -1.
         22    1    1    0    0    0 -0.11222842390E+02  0.68481952079E+01 -0.25296001195E+02  0.28508553899E+02  0.00000000000E+00 0. -1.
</event>
<event>
 5    1  0.1724243E-003  0.9118800E+02  0.7818608E-02  0.1130116E+00
         25   -1    0    0    0    0  0.00000000000E+00  0.00000000000E+00  0.99999998245E-14  0.12500000000E+03  0.12500000000E+03 0.  0.
        -13    1    3    3    0    0  0.14678848574E+02 -0.19226585727E+02 -0.27634353352E+02  0.36725996833E+02  0.10566000000E+00 0. -1.
         23    2    1    0    0    0 -0.24446955033E+02 -0.47250984916E+01  0.14632183835E+02  0.96119539998E+02  0.91678159883E+02 0.  0.
         13    1    3    3    0    0 -0.39125803607E+02  0.14501487236E+02  0.42266537187E+02  0.59393543165E+02  0.10566000000E+00 0.  1.
         22    1    1    0    0    0  0.24446955033E+02  0.47250984916E+01 -0.14632183835E+02  0.28880460002E+02  0.00000000000E+00 0.  1.
</event>
<event>
 5    1  0.1724243E-003  0.9118800E+02  0.7818608E-02  0.1130116E+00
         25   -1    0    0    0    0  0.00000000000E+00  0.00000000000E+00  0.99999998245E-14  0.12500000000E+03  0.12500000000E+03 0.  0.
        -13    1    3    3    0    0 -0.32662764450E+02  0.13657828393E+02  0.14941448029E+02  0.38427210296E+02  0.10566000000E+00 0. -1.
         23    2    1    0    0    0 -0.17732693919E+02 -0.32093712545E+02  0.19240471844E+01  0.88282745526E+02  0.80285032113E+02 0.  0.
         13    1    3    3    0    0  0.14930070531E+02 -0.45751540938E+02 -0.13017400844E+02  0.49855535230E+02  0.10566000000E+00 0.  1.
         22    1    1    0    0    0  0.17732693919E+02  0.32093712545E+02 -0.19240471844E+01  0.36717254474E+02  0.00000000000E+00 0. -1.
</event>
<event>
 5    1  0.1724243E-003  0.9118800E+02  0.7818608E-02  0.1130116E+00
         25   -1    0    0    0    0  0.00000000000E+00  0.00000000000E+00  0.99999998245E-14  0.12500000000E+03  0.12500000000E+03 0.  0.
        -13    1    3    3    0    0  0.26883020309E+02  0.27665406042E+01 -0.23023586257E+02  0.35502777582E+02  0.10566000000E+00 0.  1.
         23    2    1    0    0    0 -0.16314293642E+02 -0.92186597689E+00  0.21729501658E+02  0.97812185520E+02  0.93957683986E+02 0.  0.
         13    1    3    3    0    0 -0.43197313951E+02 -0.36884065811E+01  0.44753087915E+02  0.62309407938E+02  0.10566000000E+00 0. -1.
         22    1    1    0    0    0  0.16314293642E+02  0.92186597689E+00 -0.21729501658E+02  0.27187814480E+02  0.00000000000E+00 0. -1.
</event>
<event>
 5    1  0.1724243E-003  0.9118800E+02  0.7818608E-02  0.1130116E+00
         25   -1    0    0    0    0  0.00000000000E+00  0.00000000000E+00  0.99999998245E-14  0.12500000000E+03  0.12500000000E+03 0.  0.
        -13    1    3    3    0    0 -0.38760282090E+02  0.27470536807E+02  0.15545484459E+02  0.49986629324E+02  0.10566000000E+00 0. -1.
         23    2    1    0    0    0  0.34405682054E+01  0.20339497502E+02  0.23725609056E+02  0.93560578992E+02  0.88120058716E+02 0.  0.
         13    1    3    3    0    0  0.42200850295E+02 -0.71310393048E+01  0.81801245976E+01  0.43573949668E+02  0.10566000000E+00 0.  1.
         22    1    1    0    0    0 -0.34405682054E+01 -0.20339497502E+02 -0.23725609056E+02  0.31439421008E+02  0.00000000000E+00 0. -1.
</event>
<event>
 5    1  0.1724243E-003  0.9118800E+02  0.7818608E-02  0.1130116E+00
         25   -1    0    0    0    0  0.00000000000E+00  0.00000000000E+00  0.99999998245E-14  0.12500000000E+03  0.12500000000E+03 0.  0.
        -13    1    3    3    0    0 -0.17314290001E+02 -0.58810822082E+02  0.14224063415E+00  0.61306841613E+02  0.10566000000E+00 0.  1.
         23    2    1    0    0    0 -0.68476419220E+01 -0.41327762778E+02  0.63993516354E+01  0.82622814187E+02  0.70927452701E+02 0.  0.
         13    1    3    3    0    0  0.10466648079E+02  0.17483059304E+02  0.62571110012E+01  0.21315972573E+02  0.10566000000E+00 0. -1.
         22    1    1    0    0    0  0.68476419220E+01  0.41327762778E+02 -0.63993516354E+01  0.42377185813E+02  0.00000000000E+00 0.  1.
</event>
<event>
 5    1  0.1724243E-003  0.9118800E+02  0.7818608E-02  0.1130116E+00
         25   -1    0    0    0    0  0.00000000000E+00  0.00000000000E+00  0.99999998245E-14  0.12500000000E+03  0.12500000000E+03 0.  0.
        -13    1    3    3    0    0 -0.17948063153E+02  0.32621049146E+02  0.15329333895E+02  0.40264940830E+02  0.10566000000E+00 0.  1.
         23    2    1    0    0    0  0.16501272158E+02 -0.15717904016E+02 -0.20596489464E+01  0.10211798428E+03  0.99521334752E+02 0.  0.
         13    1    3    3    0    0  0.34449335311E+02 -0.48338953162E+02 -0.17388982842E+02  0.61853043453E+02  0.10566000000E+00 0. -1.
         22    1    1    0    0    0 -0.16501272158E+02  0.15717904016E+02  0.20596489464E+01  0.22882015717E+02  0.00000000000E+00 0. -1.
</event>
<event>
 5    1  0.1724243E-003  0.9118800E+02  0.7818608E-02  0.1130116E+00
         25   -1    0    0    0    0  0.00000000000E+00  0.00000000000E+00  0.99999998245E-14  0.12500000000E+03  0.12500000000E+03 0.  0.
        -13    1    3    3    0    0 -0.49491409191E+02  0.26870165098E+02 -0.13978912884E+02  0.58024361483E+02  0.10566000000E+00 0.  1.
         23    2    1    0    0    0 -0.12802401146E+02  0.23559796540E+02  0.18572896063E+01  0.98122220836E+02  0.94369249276E+02 0.  0.
         13    1    3    3    0    0  0.36689008044E+02 -0.33103685582E+01  0.15836202491E+02  0.40097859352E+02  0.10566000000E+00 0. -1.
         22    1    1    0    0    0  0.12802401146E+02 -0.23559796540E+02 -0.18572896063E+01  0.26877779164E+02  0.00000000000E+00 0.  1.
</event>
<event>
 5    1  0.1724243E-003  0.9118800E+02  0.7818608E-02  0.1130116E+00
         25   -1    0    0    0    0  0.00000000000E+00  0.00000000000E+00  0.99999998245E-14  0.12500000000E+03  0.12500000000E+03 0.  0.
        -13    1    3    3    0    0 -0.33339212610E+02  0.11139149372E+02 -0.29549294588E+01  0.35275012663E+02  0.10566000000E+00 0. -1.
         23    2    1    0    0    0  0.16211253089E+02 -0.23158918935E+02 -0.76310502021E+01  0.95719064562E+02  0.91130489631E+02 0.  0.
         13    1    3    3    0    0  0.49550465700E+02 -0.34298068307E+02 -0.46761207433E+01  0.60444051899E+02  0.10566000000E+00 0.  1.
         22    1    1    0    0    0 -0.16211253089E+02  0.23158918935E+02  0.76310502021E+01  0.29280935438E+02  0.00000000000E+00 0.  1.
</event>
<event>
 5    1  0.1724243E-003  0.9118800E+02  0.7818608E-02  0.1130116E+00
         25   -1    0    0    0    0  0.00000000000E+00  0.00000000000E+00  0.99999998245E-14  0.12500000000E+03  0.12500000000E+03 0.  0.
        -13    1    3    3    0    0  0.22847428077E+02  0.28764518775E+02 -0.18969139745E+02  0.41342979292E+02  0.10566000000E+00 0.  1.
         23    2    1    0    0    0 -0.23229577862E+02  0.17958306457E+02  0.62649934863E+01  0.94977271912E+02  0.90107258187E+02 0.  0.
         13    1    3    3    0    0 -0.46077005938E+02 -0.10806212317E+02  0.25234133231E+02  0.53634292620E+02  0.10566000000E+00 0. -1.
         22    1    1    0    0    0  0.23229577862E+02 -0.17958306457E+02 -0.62649934863E+01  0.30022728088E+02  0.00000000000E+00 0. -1.
</event>
<event>
 5    1  0.1724243E-003  0.9118800E+02  0.7818608E-02  0.1130116E+00
         25   -1    0    0    0    0  0.00000000000E+00  0.00000000000E+00  0.99999998245E-14  0.12500000000E+03  0.12500000000E+03 0.  0.
        -13    1    3    3    0    0  0.22049629948E+02 -0.40352841506E+02  0.70419271041E+01  0.46520295569E+02  0.10566000000E+00 0.  1.
         23    2    1    0    0    0 -0.16062093694E+02 -0.51575643164E+01  0.18828594879E+02  0.99719428238E+02  0.96461687003E+02 0.  0.
         13    1    3    3    0    0 -0.38111723642E+02  0.35195277190E+02  0.11786667775E+02  0.53199132669E+02  0.10566000000E+00 0. -1.
         22    1    1    0    0    0  0.16062093694E+02  0.51575643164E+01 -0.18828594879E+02  0.25280571762E+02  0.00000000000E+00 0. -1.
</event>
<event>
 5    1  0.1724243E-003  0.9118800E+02  0.7818608E-02  0.1130116E+00
         25   -1    0    0    0    0  0.00000000000E+00  0.00000000000E+00  0.99999998245E-14  0.12500000000E+03  0.12500000000E+03 0.  0.
        -13    1    3    3    0    0  0.15512749001E+02  0.21305376281E+01  0.17420709398E+02  0.23423852205E+02  0.10566000000E+00 0.  1.
         23    2    1    0    0    0 -0.39858009377E+02 -0.14211820077E+02  0.84456088629E+01  0.81849506949E+02  0.69551252594E+02 0.  0.
         13    1    3    3    0    0 -0.55370758378E+02 -0.16342357705E+02 -0.89751005349E+01  0.58425654745E+02  0.10566000000E+00 0. -1.
         22    1    1    0    0    0  0.39858009377E+02  0.14211820077E+02 -0.84456088629E+01  0.43150493051E+02  0.00000000000E+00 0. -1.
</event>
<event>
 5    1  0.1724243E-003  0.9118800E+02  0.7818608E-02  0.1130116E+00
         25   -1    0    0    0    0  0.00000000000E+00  0.00000000000E+00  0.99999998245E-14  0.12500000000E+03  0.12500000000E+03 0.  0.
        -13    1    3    3    0    0 -0.27100498568E+02 -0.17594454667E+02  0.86581493386E+01  0.33451107182E+02  0.10566000000E+00 0.  1.
         23    2    1    0    0    0  0.23770087462E+02 -0.83050712859E+01 -0.20244163521E+02  0.92691836578E+02  0.86878991388E+02 0.  0.
         13    1    3    3    0    0  0.50870586031E+02  0.92893833815E+01 -0.28902312859E+02  0.59240729396E+02  0.10566000000E+00 0. -1.
         22    1    1    0    0    0 -0.23770087462E+02  0.83050712859E+01  0.20244163521E+02  0.32308163422E+02  0.00000000000E+00 0. -1.
</event>
<event>
 5    1  0.1724243E-003  0.9118800E+02  0.7818608E-02  0.1130116E+00
         25   -1    0    0    0    0  0.00000000000E+00  0.00000000000E+00  0.99999998245E-14  0.12500000000E+03  0.12500000000E+03 0.  0.
        -13    1    3    3    0    0  0.12641053408E+01  0.34393053577E+02 -0.75613124155E+01  0.35237263035E+02  0.10566000000E+00 0. -1.
         23    2    1    0    0    0 -0.21990297376E+02 -0.20285190771E+02 -0.45184429077E+00  0.95078998904E+02  0.90248267163E+02 0.  0.
         13    1    3    3    0    0 -0.23254402717E+02 -0.54678244349E+02  0.71094681247E+01  0.59841735869E+02  0.10566000000E+00 0.  1.
         22    1    1    0    0    0  0.21990297376E+02  0.20285190771E+02  0.45184429077E+00  0.29921001096E+02  0.00000000000E+00 0.  1.
</event>
<event>
 5    1  0.1724243E-003  0.9118800E+02  0.7818608E-02  0.1130116E+00
         25   -1    0    0    0    0  0.00000000000E+00  0.00000000000E+00  0.99999998245E-14  0.12500000000E+03  0.12500000000E+03 0.  0.
        -13    1    3    3    0    0  0.19852423608E+02 -0.15962636498E+02 -0.28399608527E+02  0.38150667302E+02  0.10566000000E+00 0.  1.
         23    2    1    0    0    0  0.97776648970E+01  0.25923910158E+02  0.96822408592E+01  0.95650423567E+02  0.91036288873E+02 0.  0.
         13    1    3    3    0    0 -0.10074758711E+02  0.41886546656E+02  0.38081849386E+02  0.57499756265E+02  0.10566000000E+00 0. -1.
         22    1    1    0    0    0 -0.97776648970E+01 -0.25923910158E+02 -0.96822408592E+01  0.29349576433E+02  0.00000000000E+00 0. -1.
</event>
<event>
 5    1  0.1724243E-003  0.9118800E+02  0.7818608E-02  0.1130116E+00
         25   -1    0    0    0    0  0.00000000000E+00  0.00000000000E+00  0.99999998245E-14  0.12500000000E+03  0.12500000000E+03 0.  0.
        -13    1    3    3    0    0  0.38104615735E+02 -0.23942530046E+02  0.11357311299E+02  0.46413426606E+02  0.10566000000E+00 0. -1.
         23    2    1    0    0    0 -0.59930386522E+01 -0.26193605938E+02 -0.11070901284E+02  0.95938231995E+02  0.91430618497E+02 0.  0.
         13    1    3    3    0    0 -0.44097654387E+02 -0.22510758927E+01 -0.22428212583E+02  0.49524805389E+02  0.10566000000E+00 0.  1.
         22    1    1    0    0    0  0.59930386522E+01  0.26193605938E+02  0.11070901284E+02  0.29061768005E+02  0.00000000000E+00 0. -1.
</event>
<event>
 5    1  0.1724243E-003  0.9118800E+02  0.7818608E-02  0.1130116E+00
         25   -1    0    0    0    0  0.00000000000E+00  0.00000000000E+00  0.99999998245E-14  0.12500000000E+03  0.12500000000E+03 0.  0.
        -13    1    3    3    0    0 -0.21943070329E+02  0.48854323453E+02  0.12510343381E+01  0.53570696341E+02  0.10566000000E+00 0.  1.
         23    2    1    0    0    0 -0.23551741617E+02  0.97610815885E+01 -0.14409912250E+02  0.95715041096E+02  0.91124970639E+02 0.  0.
         13    1    3    3    0    0 -0.16086712879E+01 -0.39093241864E+02 -0.15660946588E+02  0.42144344755E+02  0.10566000000E+00 0. -1.
         22    1    1    0    0    0  0.23551741617E+02 -0.97610815885E+01  0.14409912250E+02  0.29284958904E+02  0.00000000000E+00 0.  1.
</event>
<event>
 5    1  0.1724243E-003  0.9118800E+02  0.7818608E-02  0.1130116E+00
         25   -1    0    0    0    0  0.00000000000E+00  0.00000000000E+00  0.99999998245E-14  0.12500000000E+03  0.12500000000E+03 0.  0.
        -13    1    3    3    0    0  0.52419546598E+02 -0.16067825170E+02 -0.36050830643E+00  0.54828140599E+02  0.10566000000E+00 0. -1.
         23    2    1    0    0    0  0.20367483319E+02  0.25395746124E+01  0.19338221068E+02  0.96799811879E+02  0.92601041948E+02 0.  0.
         13    1    3    3    0    0 -0.32052063278E+02  0.18607399783E+02  0.19698729374E+02  0.41971671281E+02  0.10566000000E+00 0.  1.
         22    1    1    0    0    0 -0.20367483319E+02 -0.25395746124E+01 -0.19338221068E+02  0.28200188121E+02  0.00000000000E+00 0. -1.
</event>
<event>
 5    1  0.1724243E-003  0.9118800E+02  0.7818608E-02  0.1130116E+00
         25   -1    0    0    0    0  0.00000000000E+00  0.00000000000E+00  0.99999998245E-14  0.12500000000E+03  0.12500000000E+03 0.  0.
        -13    1    3    3    0    0  0.91554030236E+01  0.44691232089E+02 -0.45744017703E+01  0.45848270913E+02  0.10566000000E+00 0.  1.
         23    2    1    0    0    0  0.23622590906E+02 -0.99798868163E+00  0.14313733456E+02  0.97361155090E+02  0.93355710979E+02 0.  0.
         13    1    3    3    0    0  0.14467187882E+02 -0.45689220770E+02  0.18888135227E+02  0.51512884177E+02  0.10566000000E+00 0. -1.
         22    1    1    0    0    0 -0.23622590906E+02  0.99798868163E+00 -0.14313733456E+02  0.27638844910E+02  0.00000000000E+00 0.  1.
</event>
<event>
 5    1  0.1724243E-003  0.9118800E+02  0.7818608E-02  0.1130116E+00
         25   -1    0    0    0    0  0.00000000000E+00  0.00000000000E+00  0.99999998245E-14  0.12500000000E+03  0.12500000000E+03 0.  0.
        -13    1    3    3    0    0  0.88936129110E+01 -0.22605173069E+02 -0.30390948937E+02  0.38906440873E+02  0.10566000000E+00 0. -1.
         23    2    1    0    0    0 -0.21508809092E+02  0.19201891556E+02 -0.11919814838E+02  0.93800264526E+02  0.88459403861E+02 0.  0.
         13    1    3    3    0    0 -0.30402422003E+02  0.41807064625E+02  0.18471134099E+02  0.54893823652E+02  0.10566000000E+00 0.  1.
         22    1    1    0    0    0  0.21508809092E+02 -0.19201891556E+02  0.11919814838E+02  0.31199735474E+02  0.00000000000E+00 0.  1.
</event>
<event>
 5    1  0.1724243E-003  0.9118800E+02  0.7818608E-02  0.1130116E+00
         25   -1    0    0    0    0  0.00000000000E+00  0.00000000000E+00  0.99999998245E-14  0.12500000000E+03  0.12500000000E+03 0.  0.
        -13    1    3    3    0    0  0.23853924343E+02 -0.23583697664E+02 -0.20336204953E+02  0.39227195898E+02  0.10566000000E+00 0. -1.
         23    2    1    0    0    0  0.15642927426E+02  0.21091388295E+02  0.13123587162E+02  0.95643972021E+02  0.91027429961E+02 0.  0.
         13    1    3    3    0    0 -0.82109969174E+01  0.44675085959E+02  0.33459792114E+02  0.56416776124E+02  0.10566000000E+00 0.  1.
         22    1    1    0    0    0 -0.15642927426E+02 -0.21091388295E+02 -0.13123587162E+02  0.29356027979E+02  0.00000000000E+00 0.  1.
</event>
<event>
 5    1  0.1724243E-003  0.9118800E+02  0.7818608E-02  0.1130116E+00
         25   -1    0    0    0    0  0.00000000000E+00  0.00000000000E+00  0.99999998245E-14  0.12500000000E+03  0.12500000000E+03 0.  0.
        -13    1    3    3    0    0 -0.33361140938E+02 -0.37683889304E+02 -0.15130980382E+02  0.52554723566E+02  0.10566000000E+00 0.  1.
         23    2    1    0    0    0  0.81911938001E+01 -0.25598643766E+02 -0.10759178888E+02  0.96049246144E+02  0.91582266492E+02 0.  0.
         13    1    3    3    0    0  0.41552334738E+02  0.12085245538E+02  0.43718014946E+01  0.43494522577E+02  0.10566000000E+00 0. -1.
         22    1    1    0    0    0 -0.81911938001E+01  0.25598643766E+02  0.10759178888E+02  0.28950753856E+02  0.00000000000E+00 0.  1.
</event>
<event>
 5    1  0.1724243E-003  0.9118800E+02  0.7818608E-02  0.1130116E+00
         25   -1    0    0    0    0  0.00000000000E+00  0.00000000000E+00  0.99999998245E-14  0.12500000000E+03  0.12500000000E+03 0.  0.
        -13    1    3    3    0    0 -0.46840385524E+02  0.13323358231E+01 -0.84708813990E+01  0.47618944030E+02  0.10566000000E+00 0.  1.
         23    2    1    0    0    0 -0.68386029388E+01  0.27309889903E+02  0.30346009814E+01  0.96683831830E+02  0.92444350599E+02 0.  0.
         13    1    3    3    0    0  0.40001782586E+02  0.25977554080E+02  0.11505482380E+02  0.49064887800E+02  0.10566000000E+00 0. -1.
         22    1    1    0    0    0  0.68386029388E+01 -0.27309889903E+02 -0.30346009814E+01  0.28316168170E+02  0.00000000000E+00 0. -1.
</event>
<event>
 5    1  0.1724243E-003  0.9118800E+02  0.7818608E-02  0.1130116E+00
         25   -1    0    0    0    0  0.00000000000E+00  0.00000000000E+00  0.99999998245E-14  0.12500000000E+03  0.12500000000E+03 0.  0.
        -13    1    3    3    0    0 -0.45924976308E+02 -0.30720872818E+02  0.21308632740E+02  0.59219460221E+02  0.10566000000E+00 0.  1.
         23    2    1    0    0    0 -0.20738937135E+02 -0.43158298542E+01  0.20203534100E+02  0.95726928912E+02  0.91141276203E+02 0.  0.
         13    1    3    3    0    0  0.25186039173E+02  0.26405042963E+02 -0.11050986406E+01  0.36507468690E+02  0.10566000000E+00 0. -1.
         22    1    1    0    0    0  0.20738937135E+02  0.43158298542E+01 -0.20203534100E+02  0.29273071088E+02  0.00000000000E+00 0.  1.
</event>
<event>
 5    1  0.1724243E-003  0.9118800E+02  0.7818608E-02  0.1130116E+00
         25   -1    0    0    0    0  0.00000000000E+00  0.00000000000E+00  0.99999998245E-14  0.12500000000E+03  0.12500000000E+03 0.  0.
        -13    1    3    3    0    0  0.13241572954E+02  0.29202645423E+02 -0.16215774704E+02  0.35931828054E+02  0.10566000000E+00 0.  1.
         23    2    1    0    0    0 -0.90388564625E+01 -0.26232137943E+02 -0.32795847282E+01  0.97061108411E+02  0.92953090873E+02 0.  0.
         13    1    3    3    0    0 -0.22280429417E+02 -0.55434783366E+02  0.12936189976E+02  0.61129280357E+02  0.10566000000E+00 0. -1.
         22    1    1    0    0    0  0.90388564625E+01  0.26232137943E+02  0.32795847282E+01  0.27938891589E+02  0.00000000000E+00 0. -1.
</event>
<event>
 5    1  0.1724243E-003  0.9118800E+02  0.7818608E-02  0.1130116E+00
         25   -1    0    0    0    0  0.00000000000E+00  0.00000000000E+00  0.99999998245E-14  0.12500000000E+03  0.12500000000E+03 0.  0.
        -13    1    3    3    0    0 -0.28595373010E+02 -0.10179140722E+02  0.31050746542E+02  0.43422002352E+02  0.10566000000E+00 0. -1.
         23    2    1    0    0    0  0.19558986317E+02 -0.17517457673E+02  0.15274969484E+02  0.94623364870E+02  0.89614960902E+02 0.  0.
         13    1    3    3    0    0  0.48154359327E+02 -0.73383169514E+01 -0.15775777058E+02  0.51201362518E+02  0.10566000000E+00 0.  1.
         22    1    1    0    0    0 -0.19558986317E+02  0.17517457673E+02 -0.15274969484E+02  0.30376635130E+02  0.00000000000E+00 0. -1.
</event>
<event>
 5    1  0.1724243E-003  0.9118800E+02  0.7818608E-02  0.1130116E+00
         25   -1    0    0    0    0  0.00000000000E+00  0.00000000000E+00  0.99999998245E-14  0.12500000000E+03  0.12500000000E+03 0.  0.
        -13    1    3    3    0    0  0.17817202355E+02  0.39317367238E+02  0.44775632663E+02  0.62194666256E+02  0.10566000000E+00 0.  1.
         23    2    1    0    0    0  0.65171155757E+01  0.15427580771E+02  0.23609513135E+02  0.96053633141E+02  0.91588254079E+02 0.  0.
         13    1    3    3    0    0 -0.11300086779E+02 -0.23889786466E+02 -0.21166119528E+02  0.33858966885E+02  0.10566000000E+00 0. -1.
         22    1    1    0    0    0 -0.65171155757E+01 -0.15427580771E+02 -0.23609513135E+02  0.28946366859E+02  0.00000000000E+00 0.  1.
</event>
<event>
 5    1  0.1724243E-003  0.9118800E+02  0.7818608E-02  0.1130116E+00
         25   -1    0    0    0    0  0.00000000000E+00  0.00000000000E+00  0.99999998245E-14  0.12500000000E+03  0.12500000000E+03 0.  0.
        -13    1    3    3    0    0  0.63316908823E+01 -0.90542196066E+01 -0.41100541136E+02  0.42559779697E+02  0.10566000000E+00 0.  1.
         23    2    1    0    0    0  0.13799946431E+02 -0.25011098442E+02  0.85000895112E+01  0.95196559117E+02  0.90410949443E+02 0.  0.
         13    1    3    3    0    0  0.74682555488E+01 -0.15956878835E+02  0.49600630647E+02  0.52636779420E+02  0.10566000000E+00 0. -1.
         22    1    1    0    0    0 -0.13799946431E+02  0.25011098442E+02 -0.85000895112E+01  0.29803440883E+02  0.00000000000E+00 0. -1.
</event>
<event>
 5    1  0.1724243E-003  0.9118800E+02  0.7818608E-02  0.1130116E+00
         25   -1    0    0    0    0  0.00000000000E+00  0.00000000000E+00  0.99999998245E-14  0.12500000000E+03  0.12500000000E+03 0.  0.
        -13    1    3    3    0    0  0.32231914983E+02  0.21127115638E+02 -0.58343024664E+01  0.38978219661E+02  0.10566000000E+00 0.  1.
         23    2    1    0    0    0 -0.12540197171E+01 -0.24388678734E+02  0.11392476627E+02  0.98052481756E+02  0.94276828749E+02 0.  0.
         13    1    3    3    0    0 -0.33485934700E+02 -0.45515794372E+02  0.17226779093E+02  0.59074262095E+02  0.10566000000E+00 0. -1.
         22    1    1    0    0    0  0.12540197171E+01  0.24388678734E+02 -0.11392476627E+02  0.26947518244E+02  0.00000000000E+00 0. -1.
</event>
<event>
 5    1  0.1724243E-003  0.9118800E+02  0.7818608E-02  0.1130116E+00
         25   -1    0    0    0    0  0.00000000000E+00  0.00000000000E+00  0.99999998245E-14  0.12500000000E+03  0.12500000000E+03 0.  0.
        -13    1    3    3    0    0  0.13651060403E+02  0.28506399986E+02  0.16694029222E+02  0.35744483015E+02  0.10566000000E+00 0. -1.
         23    2    1    0    0    0  0.19733230507E+02 -0.18954309890E+02 -0.15630219261E+02  0.93488573441E+02  0.88017858189E+02 0.  0.
         13    1    3    3    0    0  0.60821701043E+01 -0.47460709876E+02 -0.32324248483E+02  0.57744090426E+02  0.10566000000E+00 0.  1.
         22    1    1    0    0    0 -0.19733230507E+02  0.18954309890E+02  0.15630219261E+02  0.31511426559E+02  0.00000000000E+00 0.  1.
</event>
<event>
 5    1  0.1724243E-003  0.9118800E+02  0.7818608E-02  0.1130116E+00
         25   -1    0    0    0    0  0.00000000000E+00  0.00000000000E+00  0.99999998245E-14  0.12500000000E+03  0.12500000000E+03 0.  0.
        -13    1    3    3    0    0  0.83531116555E+01 -0.57929054622E+02 -0.14822532766E+02  0.60376058876E+02  0.10566000000E+00 0.  1.
         23    2    1    0    0    0  0.14496459198E+02 -0.28242865015E+02 -0.23167357231E+01  0.93169605438E+02  0.87563698868E+02 0.  0.
         13    1    3    3    0    0  0.61433475423E+01  0.29686189607E+02  0.12505797043E+02  0.32793546562E+02  0.10566000000E+00 0. -1.
         22    1    1    0    0    0 -0.14496459198E+02  0.28242865015E+02  0.23167357231E+01  0.31830394562E+02  0.00000000000E+00 0.  1.
</event>
<event>
 5    1  0.1724243E-003  0.9118800E+02  0.7818608E-02  0.1130116E+00
         25   -1    0    0    0    0  0.00000000000E+00  0.00000000000E+00  0.99999998245E-14  0.12500000000E+03  0.12500000000E+03 0.  0.
        -13    1    3    3    0    0  0.22919804369E+02  0.31640467813E+02 -0.41026726602E+02  0.56653685629E+02  0.10566000000E+00 0. -1.
         23    2    1    0    0    0  0.10243466952E+01  0.81084648217E+00 -0.28473172335E+02  0.96496872085E+02  0.92191203600E+02 0.  0.
         13    1    3    3    0    0 -0.21895457674E+02 -0.30829621330E+02  0.12553554267E+02  0.39843186455E+02  0.10566000000E+00 0.  1.
         22    1    1    0    0    0 -0.10243466952E+01 -0.81084648217E+00  0.28473172335E+02  0.28503127915E+02  0.00000000000E+00 0. -1.
</event>
<event>
 5    1  0.1724243E-003  0.9118800E+02  0.7818608E-02  0.1130116E+00
         25   -1    0    0    0    0  0.00000000000E+00  0.00000000000E+00  0.99999998245E-14  0.12500000000E+03  0.12500000000E+03 0.  0.
        -13    1    3    3    0    0 -0.21337063018E+02  0.24563919197E+02 -0.21420997965E+02  0.38955445092E+02  0.10566000000E+00 0.  1.
         23    2    1    0    0    0  0.24819110756E+02  0.10851862495E+02  0.96322471578E+01  0.96250541506E+02  0.91856602248E+02 0.  0.
         13    1    3    3    0    0  0.46156173774E+02 -0.13712056701E+02  0.31053245122E+02  0.57295096414E+02  0.10566000000E+00 0. -1.
         22    1    1    0    0    0 -0.24819110756E+02 -0.10851862495E+02 -0.96322471578E+01  0.28749458494E+02  0.00000000000E+00 0. -1.
</event>
<event>
 5    1  0.1724243E-003  0.9118800E+02  0.7818608E-02  0.1130116E+00
         25   -1    0    0    0    0  0.00000000000E+00  0.00000000000E+00  0.99999998245E-14  0.12500000000E+03  0.12500000000E+03 0.  0.
        -13    1    3    3    0    0  0.16046153701E+02 -0.33361781019E+02  0.89511538380E+01  0.38087029294E+02  0.10566000000E+00 0.  1.
         23    2    1    0    0    0 -0.11093626736E+02 -0.87939509440E-01 -0.28092384087E+02  0.94796385461E+02  0.89855975680E+02 0.  0.
         13    1    3    3    0    0 -0.27139780437E+02  0.33273841509E+02 -0.37043537925E+02  0.56709356168E+02  0.10566000000E+00 0. -1.
         22    1    1    0    0    0  0.11093626736E+02  0.87939509440E-01  0.28092384087E+02  0.30203614539E+02  0.00000000000E+00 0. -1.
</event>
<event>
 5    1  0.1724243E-003  0.9118800E+02  0.7818608E-02  0.1130116E+00
         25   -1    0    0    0    0  0.00000000000E+00  0.00000000000E+00  0.99999998245E-14  0.12500000000E+03  0.12500000000E+03 0.  0.
        -13    1    3    3    0    0 -0.25720157581E+02 -0.37342548585E+02 -0.26970223119E+02  0.52757905000E+02  0.10566000000E+00 0. -1.
         23    2    1    0    0    0  0.50121922256E+01 -0.86417329718E+01 -0.28463058889E+02  0.94834666569E+02  0.89909213334E+02 0.  0.
         13    1    3    3    0    0  0.30732349807E+02  0.28700815613E+02 -0.14928357705E+01  0.42076761570E+02  0.10566000000E+00 0.  1.
         22    1    1    0    0    0 -0.50121922256E+01  0.86417329718E+01  0.28463058889E+02  0.30165333431E+02  0.00000000000E+00 0. -1.
</event>
<event>
 5    1  0.1724243E-003  0.9118800E+02  0.7818608E-02  0.1130116E+00
         25   -1    0    0    0    0  0.00000000000E+00  0.00000000000E+00  0.99999998245E-14  0.12500000000E+03  0.12500000000E+03 0.  0.
        -13    1    3    3    0    0  0.30435521286E+02  0.14817933154E+02  0.24978976035E+02  0.42069615006E+02  0.10566000000E+00 0.  1.
         23    2    1    0    0    0  0.79498637689E+01 -0.27892626337E+02  0.96709540922E+00  0.95980451219E+02  0.91488320592E+02 0.  0.
         13    1    3    3    0    0 -0.22485657517E+02 -0.42710559491E+02 -0.24011880626E+02  0.53910836214E+02  0.10566000000E+00 0. -1.
         22    1    1    0    0    0 -0.79498637689E+01  0.27892626337E+02 -0.96709540922E+00  0.29019548781E+02  0.00000000000E+00 0. -1.
</event>
<event>
 5    1  0.1724243E-003  0.9118800E+02  0.7818608E-02  0.1130116E+00
         25   -1    0    0    0    0  0.00000000000E+00  0.00000000000E+00  0.99999998245E-14  0.12500000000E+03  0.12500000000E+03 0.  0.
        -13    1    3    3    0    0  0.89004450168E+01  0.55534550604E+02  0.71262144699E+00  0.56247873077E+02  0.10566000000E+00 0. -1.
         23    2    1    0    0    0 -0.15784240379E+02  0.23418074611E+02  0.15326373908E+00  0.96758683589E+02  0.92545507170E+02 0.  0.
         13    1    3    3    0    0 -0.24684685395E+02 -0.32116475993E+02 -0.55935770792E+00  0.40510810512E+02  0.10566000000E+00 0.  1.
         22    1    1    0    0    0  0.15784240379E+02 -0.23418074611E+02 -0.15326373908E+00  0.28241316411E+02  0.00000000000E+00 0. -1.
</event>
<event>
 5    1  0.1724243E-003  0.9118800E+02  0.7818608E-02  0.1130116E+00
         25   -1    0    0    0    0  0.00000000000E+00  0.00000000000E+00  0.99999998245E-14  0.12500000000E+03  0.12500000000E+03 0.  0.
        -13    1    3    3    0    0  0.20050729774E+02 -0.52155111977E+01  0.30265938075E+02  0.36677942869E+02  0.10566000000E+00 0. -1.
         23    2    1    0    0    0 -0.27143355186E+02  0.11334692158E+02 -0.83783174565E+00  0.95573159546E+02  0.90930137394E+02 0.  0.
         13    1    3    3    0    0 -0.47194084960E+02  0.16550203355E+02 -0.31103769820E+02  0.58895216677E+02  0.10566000000E+00 0.  1.
         22    1    1    0    0    0  0.27143355186E+02 -0.11334692158E+02  0.83783174565E+00  0.29426840454E+02  0.00000000000E+00 0.  1.
</event>
<event>
 5    1  0.1724243E-003  0.9118800E+02  0.7818608E-02  0.1130116E+00
         25   -1    0    0    0    0  0.00000000000E+00  0.00000000000E+00  0.99999998245E-14  0.12500000000E+03  0.12500000000E+03 0.  0.
        -13    1    3    3    0    0 -0.38881350429E+01  0.45738114156E+01  0.33737657281E+02  0.34267740337E+02  0.10566000000E+00 0.  1.
         23    2    1    0    0    0 -0.22220970641E+02 -0.15380490495E+02 -0.17900960765E+02  0.92584333719E+02  0.86724180191E+02 0.  0.
         13    1    3    3    0    0 -0.18332835598E+02 -0.19954301911E+02 -0.51638618047E+02  0.58316593382E+02  0.10566000000E+00 0. -1.
         22    1    1    0    0    0  0.22220970641E+02  0.15380490495E+02  0.17900960765E+02  0.32415666281E+02  0.00000000000E+00 0. -1.
</event>
<event>
 5    1  0.1724243E-003  0.9118800E+02  0.7818608E-02  0.1130116E+00
         25   -1    0    0    0    0  0.00000000000E+00  0.00000000000E+00  0.99999998245E-14  0.12500000000E+03  0.12500000000E+03 0.  0.
        -13    1    3    3    0    0  0.21586311280E+02 -0.75478847933E+00  0.45237998704E+02  0.50130093069E+02  0.10566000000E+00 0. -1.
         23    2    1    0    0    0 -0.15303289209E+02  0.10866704256E+02  0.24870070089E+02  0.93842395659E+02  0.88518918401E+02 0.  0.
         13    1    3    3    0    0 -0.36889600489E+02  0.11621492735E+02 -0.20367928615E+02  0.43712302590E+02  0.10566000000E+00 0.  1.
         22    1    1    0    0    0  0.15303289209E+02 -0.10866704256E+02 -0.24870070089E+02  0.31157604341E+02  0.00000000000E+00 0. -1.
</event>
<event>
 4    1  0.1724243E-003  0.9118800E+02  0.7818608E-02  0.1130116E+00
         25   -1    0    0    0    0  0.00000000000E+00  0.00000000000E+00  0.99999998245E-14  0.12500000000E+03  0.12500000000E+03 0.  0.
        -13    1    1    0    0    0 -0.10673802362E+02  0.41138472357E+01 -0.11738220530E+02  0.16390569886E+02  0.10566000000E+00 0. -1.
         13    1    1    0    0    0  0.18044158326E+02  0.38640164442E+02 -0.26977113934E+02  0.50462162043E+02  0.10566000000E+00 0.  1.
         22    1    1    0    0    0 -0.73703559643E+01 -0.42754011678E+02  0.38715334464E+02  0.58147268072E+02  0.00000000000E+00 0.  1.
</event>
<event>
 5    1  0.1724243E-003  0.9118800E+02  0.7818608E-02  0.1130116E+00
         25   -1    0    0    0    0  0.00000000000E+00  0.00000000000E+00  0.99999998245E-14  0.12500000000E+03  0.12500000000E+03 0.  0.
        -13    1    3    3    0    0  0.18651809709E+02 -0.54540075229E+02 -0.15866817486E+01  0.57663147109E+02  0.10566000000E+00 0.  1.
         23    2    1    0    0    0  0.29682373394E+01 -0.25414787343E+02  0.15692334998E+02  0.94983817260E+02  0.90116337670E+02 0.  0.
         13    1    3    3    0    0 -0.15683572370E+02  0.29125287887E+02  0.17279016747E+02  0.37320670152E+02  0.10566000000E+00 0. -1.
         22    1    1    0    0    0 -0.29682373394E+01  0.25414787343E+02 -0.15692334998E+02  0.30016182740E+02  0.00000000000E+00 0.  1.
</event>
<event>
 5    1  0.1724243E-003  0.9118800E+02  0.7818608E-02  0.1130116E+00
         25   -1    0    0    0    0  0.00000000000E+00  0.00000000000E+00  0.99999998245E-14  0.12500000000E+03  0.12500000000E+03 0.  0.
        -13    1    3    3    0    0  0.17324152032E+02 -0.27714128453E+02  0.26574715794E+02  0.42123934327E+02  0.10566000000E+00 0.  1.
         23    2    1    0    0    0  0.24395825579E+02  0.53434945755E+01 -0.15123065859E+02  0.95803829687E+02  0.91246684443E+02 0.  0.
         13    1    3    3    0    0  0.70716735473E+01  0.33057623029E+02 -0.41697781653E+02  0.53679895360E+02  0.10566000000E+00 0. -1.
         22    1    1    0    0    0 -0.24395825579E+02 -0.53434945755E+01  0.15123065859E+02  0.29196170313E+02  0.00000000000E+00 0. -1.
</event>
<event>
 5    1  0.1724243E-003  0.9118800E+02  0.7818608E-02  0.1130116E+00
         25   -1    0    0    0    0  0.00000000000E+00  0.00000000000E+00  0.99999998245E-14  0.12500000000E+03  0.12500000000E+03 0.  0.
        -13    1    3    3    0    0 -0.16952378754E+02  0.36982204757E+02  0.45253771247E+02  0.60852128888E+02  0.10566000000E+00 0.  1.
         23    2    1    0    0    0 -0.97897190041E+01  0.94392704658E+01  0.27297412115E+02  0.94502670063E+02  0.89446450549E+02 0.  0.
         13    1    3    3    0    0  0.71626597497E+01 -0.27542934291E+02 -0.17956359132E+02  0.33650541175E+02  0.10566000000E+00 0. -1.
         22    1    1    0    0    0  0.97897190041E+01 -0.94392704658E+01 -0.27297412115E+02  0.30497329937E+02  0.00000000000E+00 0.  1.
</event>
<event>
 5    1  0.1724243E-003  0.9118800E+02  0.7818608E-02  0.1130116E+00
         25   -1    0    0    0    0  0.00000000000E+00  0.00000000000E+00  0.99999998245E-14  0.12500000000E+03  0.12500000000E+03 0.  0.
        -13    1    3    3    0    0  0.25444307047E+02 -0.56346784286E+02 -0.75821557636E+01  0.62288627458E+02  0.10566000000E+00 0. -1.
         23    2    1    0    0    0  0.10056446233E+02 -0.23500307529E+02 -0.67135613140E+01  0.98571445928E+02  0.94962421420E+02 0.  0.
         13    1    3    3    0    0 -0.15387860814E+02  0.32846476757E+02  0.86859444957E+00  0.36282818470E+02  0.10566000000E+00 0.  1.
         22    1    1    0    0    0 -0.10056446233E+02  0.23500307529E+02  0.67135613140E+01  0.26428554072E+02  0.00000000000E+00 0. -1.
</event>
<event>
 5    1  0.1724243E-003  0.9118800E+02  0.7818608E-02  0.1130116E+00
         25   -1    0    0    0    0  0.00000000000E+00  0.00000000000E+00  0.99999998245E-14  0.12500000000E+03  0.12500000000E+03 0.  0.
        -13    1    3    3    0    0  0.28213494457E+02 -0.28491118818E+02 -0.69375689795E+01  0.40692580999E+02  0.10566000000E+00 0. -1.
         23    2    1    0    0    0  0.14713737880E+01  0.23637795846E+02 -0.98423504606E+01  0.99352735119E+02  0.95985331065E+02 0.  0.
         13    1    3    3    0    0 -0.26742120669E+02  0.52128914664E+02 -0.29047814811E+01  0.58660154120E+02  0.10566000000E+00 0.  1.
         22    1    1    0    0    0 -0.14713737880E+01 -0.23637795846E+02  0.98423504606E+01  0.25647264881E+02  0.00000000000E+00 0.  1.
</event>
<event>
 5    1  0.1724243E-003  0.9118800E+02  0.7818608E-02  0.1130116E+00
         25   -1    0    0    0    0  0.00000000000E+00  0.00000000000E+00  0.99999998245E-14  0.12500000000E+03  0.12500000000E+03 0.  0.
        -13    1    3    3    0    0 -0.59428939955E+01 -0.16285931221E+02  0.45738396761E+02  0.48913818570E+02  0.10566000000E+00 0. -1.
         23    2    1    0    0    0 -0.23963897956E+02 -0.15068125620E+02  0.15514049490E+01  0.96649979325E+02  0.92398565093E+02 0.  0.
         13    1    3    3    0    0 -0.18021003961E+02  0.12178056010E+01 -0.44186991812E+02  0.47736160755E+02  0.10566000000E+00 0.  1.
         22    1    1    0    0    0  0.23963897956E+02  0.15068125620E+02 -0.15514049490E+01  0.28350020675E+02  0.00000000000E+00 0. -1.
</event>
<event>
 5    1  0.1724243E-003  0.9118800E+02  0.7818608E-02  0.1130116E+00
         25   -1    0    0    0    0  0.00000000000E+00  0.00000000000E+00  0.99999998245E-14  0.12500000000E+03  0.12500000000E+03 0.  0.
        -13    1    3    3    0    0 -0.53628662240E+01  0.39501779172E+02 -0.38456976580E+02  0.55390442348E+02  0.10566000000E+00 0.  1.
         23    2    1    0    0    0  0.10969091887E+02  0.51907251782E+01 -0.27504693588E+02  0.94937186192E+02  0.90051632679E+02 0.  0.
         13    1    3    3    0    0  0.16331958111E+02 -0.34311053993E+02  0.10952282992E+02  0.39546743844E+02  0.10566000000E+00 0. -1.
         22    1    1    0    0    0 -0.10969091887E+02 -0.51907251782E+01  0.27504693588E+02  0.30062813808E+02  0.00000000000E+00 0.  1.
</event>
<event>
 5    1  0.1724243E-003  0.9118800E+02  0.7818608E-02  0.1130116E+00
         25   -1    0    0    0    0  0.00000000000E+00  0.00000000000E+00  0.99999998245E-14  0.12500000000E+03  0.12500000000E+03 0.  0.
        -13    1    3    3    0    0  0.30210158473E+02 -0.33734390472E+02 -0.35287341277E+02  0.57409671606E+02  0.10566000000E+00 0.  1.
         23    2    1    0    0    0  0.14661599662E+02 -0.62450150504E+01 -0.32112023860E+02  0.89151083781E+02  0.81625798283E+02 0.  0.
         13    1    3    3    0    0 -0.15548558811E+02  0.27489375421E+02  0.31753174162E+01  0.31741412175E+02  0.10566000000E+00 0. -1.
         22    1    1    0    0    0 -0.14661599662E+02  0.62450150504E+01  0.32112023860E+02  0.35848916219E+02  0.00000000000E+00 0.  1.
</event>
<event>
 5    1  0.1724243E-003  0.9118800E+02  0.7818608E-02  0.1130116E+00
         25   -1    0    0    0    0  0.00000000000E+00  0.00000000000E+00  0.99999998245E-14  0.12500000000E+03  0.12500000000E+03 0.  0.
        -13    1    3    3    0    0  0.60338130249E+01  0.40575477126E+02 -0.36477356130E+02  0.54894306790E+02  0.10566000000E+00 0. -1.
         23    2    1    0    0    0 -0.11944955090E+02  0.52661314612E+01 -0.26043015348E+02  0.95868354989E+02  0.91335035705E+02 0.  0.
         13    1    3    3    0    0 -0.17978768115E+02 -0.35309345665E+02  0.10434340782E+02  0.40974048199E+02  0.10566000000E+00 0.  1.
         22    1    1    0    0    0  0.11944955090E+02 -0.52661314612E+01  0.26043015348E+02  0.29131645011E+02  0.00000000000E+00 0. -1.
</event>
<event>
 5    1  0.1724243E-003  0.9118800E+02  0.7818608E-02  0.1130116E+00
         25   -1    0    0    0    0  0.00000000000E+00  0.00000000000E+00  0.99999998245E-14  0.12500000000E+03  0.12500000000E+03 0.  0.
        -13    1    3    3    0    0  0.20349169727E+02  0.23548400000E+02  0.41889805135E+02  0.52186040177E+02  0.10566000000E+00 0.  1.
         23    2    1    0    0    0 -0.10860154499E+02 -0.59413024045E+01  0.22543694704E+02  0.99281131423E+02  0.95892037499E+02 0.  0.
         13    1    3    3    0    0 -0.31209324226E+02 -0.29489702405E+02 -0.19346110431E+02  0.47095091245E+02  0.10566000000E+00 0. -1.
         22    1    1    0    0    0  0.10860154499E+02  0.59413024045E+01 -0.22543694704E+02  0.25718868577E+02  0.00000000000E+00 0.  1.
</event>
<event>
 5    1  0.1724243E-003  0.9118800E+02  0.7818608E-02  0.1130116E+00
         25   -1    0    0    0    0  0.00000000000E+00  0.00000000000E+00  0.99999998245E-14  0.12500000000E+03  0.12500000000E+03 0.  0.
        -13    1    3    3    0    0  0.34855643998E+01 -0.37441162597E+02  0.14195437270E+01  0.37629989161E+02  0.10566000000E+00 0.  1.
         23    2    1    0    0    0  0.46967936189E+01  0.12764035405E+02 -0.26590490075E+02  0.95133051168E+02  0.90323102205E+02 0.  0.
         13    1    3    3    0    0  0.12112292190E+01  0.50205198002E+02 -0.28010033802E+02  0.57503062007E+02  0.10566000000E+00 0. -1.
         22    1    1    0    0    0 -0.46967936189E+01 -0.12764035405E+02  0.26590490075E+02  0.29866948832E+02  0.00000000000E+00 0. -1.
</event>
<event>
 5    1  0.1724243E-003  0.9118800E+02  0.7818608E-02  0.1130116E+00
         25   -1    0    0    0    0  0.00000000000E+00  0.00000000000E+00  0.99999998245E-14  0.12500000000E+03  0.12500000000E+03 0.  0.
        -13    1    3    3    0    0 -0.60053217966E+01 -0.24378586278E+02 -0.22651125282E+02  0.33815144527E+02  0.10566000000E+00 0. -1.
         23    2    1    0    0    0  0.23422406263E+00  0.29293228697E+02  0.61826614539E+01  0.95060504162E+02  0.90222647049E+02 0.  0.
         13    1    3    3    0    0  0.62395458592E+01  0.53671814975E+02  0.28833786736E+02  0.61245359635E+02  0.10566000000E+00 0.  1.
         22    1    1    0    0    0 -0.23422406263E+00 -0.29293228697E+02 -0.61826614539E+01  0.29939495838E+02  0.00000000000E+00 0.  1.
</event>
<event>
 5    1  0.1724243E-003  0.9118800E+02  0.7818608E-02  0.1130116E+00
         25   -1    0    0    0    0  0.00000000000E+00  0.00000000000E+00  0.99999998245E-14  0.12500000000E+03  0.12500000000E+03 0.  0.
        -13    1    3    3    0    0 -0.45708406047E+02 -0.85004166298E+00 -0.18720400103E+02  0.49400865360E+02  0.10566000000E+00 0. -1.
         23    2    1    0    0    0 -0.24126880557E+02 -0.87777209343E+01  0.18642697893E+02  0.93271386180E+02  0.87708873810E+02 0.  0.
         13    1    3    3    0    0  0.21581525491E+02 -0.79276792713E+01  0.37363097996E+02  0.43870520820E+02  0.10566000000E+00 0.  1.
         22    1    1    0    0    0  0.24126880557E+02  0.87777209343E+01 -0.18642697893E+02  0.31728613820E+02  0.00000000000E+00 0.  1.
</event>
<event>
 5    1  0.1724243E-003  0.9118800E+02  0.7818608E-02  0.1130116E+00
         25   -1    0    0    0    0  0.00000000000E+00  0.00000000000E+00  0.99999998245E-14  0.12500000000E+03  0.12500000000E+03 0.  0.
        -13    1    3    3    0    0  0.37088081897E+02 -0.45600030878E+02 -0.17151517999E+02  0.61229685354E+02  0.10566000000E+00 0. -1.
         23    2    1    0    0    0  0.15222602003E+02 -0.18643616230E+02 -0.16265101361E+02  0.95950635805E+02  0.91447574879E+02 0.  0.
         13    1    3    3    0    0 -0.21865479895E+02  0.26956414648E+02  0.88641663881E+00  0.34720950451E+02  0.10566000000E+00 0.  1.
         22    1    1    0    0    0 -0.15222602003E+02  0.18643616230E+02  0.16265101361E+02  0.29049364195E+02  0.00000000000E+00 0. -1.
</event>
<event>
 5    1  0.1724243E-003  0.9118800E+02  0.7818608E-02  0.1130116E+00
         25   -1    0    0    0    0  0.00000000000E+00  0.00000000000E+00  0.99999998245E-14  0.12500000000E+03  0.12500000000E+03 0.  0.
        -13    1    3    3    0    0  0.91622404740E+01 -0.16193139909E+01 -0.35576608349E+02  0.36773292673E+02  0.10566000000E+00 0.  1.
         23    2    1    0    0    0 -0.19935991580E+02 -0.31755352890E+02 -0.88155313480E+01  0.86482993491E+02  0.77432217925E+02 0.  0.
         13    1    3    3    0    0 -0.29098232054E+02 -0.30136038899E+02  0.26761077001E+02  0.49709700819E+02  0.10566000000E+00 0. -1.
         22    1    1    0    0    0  0.19935991580E+02  0.31755352890E+02  0.88155313480E+01  0.38517006509E+02  0.00000000000E+00 0. -1.
</event>
<event>
 5    1  0.1724243E-003  0.9118800E+02  0.7818608E-02  0.1130116E+00
         25   -1    0    0    0    0  0.00000000000E+00  0.00000000000E+00  0.99999998245E-14  0.12500000000E+03  0.12500000000E+03 0.  0.
        -13    1    3    3    0    0  0.36281542718E+02  0.22841544176E+02  0.52321271424E+01  0.43191119467E+02  0.10566000000E+00 0.  1.
         23    2    1    0    0    0 -0.65864552624E+01  0.22823496921E+02 -0.20869027722E+02  0.93380232090E+02  0.87863860730E+02 0.  0.
         13    1    3    3    0    0 -0.42867997980E+02 -0.18047254643E-01 -0.26101154865E+02  0.50189112623E+02  0.10566000000E+00 0. -1.
         22    1    1    0    0    0  0.65864552624E+01 -0.22823496921E+02  0.20869027722E+02  0.31619767910E+02  0.00000000000E+00 0. -1.
</event>
<event>
 5    1  0.1724243E-003  0.9118800E+02  0.7818608E-02  0.1130116E+00
         25   -1    0    0    0    0  0.00000000000E+00  0.00000000000E+00  0.99999998245E-14  0.12500000000E+03  0.12500000000E+03 0.  0.
        -13    1    3    3    0    0 -0.16262183879E+02 -0.25231880715E+02 -0.22248275491E+02  0.37364466480E+02  0.10566000000E+00 0. -1.
         23    2    1    0    0    0  0.68919082714E+01 -0.84850103791E+01  0.27873300695E+02  0.95059814757E+02  0.90221691900E+02 0.  0.
         13    1    3    3    0    0  0.23154092151E+02  0.16746870336E+02  0.50121576186E+02  0.57695348277E+02  0.10566000000E+00 0.  1.
         22    1    1    0    0    0 -0.68919082714E+01  0.84850103791E+01 -0.27873300695E+02  0.29940185243E+02  0.00000000000E+00 0.  1.
</event>
<event>
 5    1  0.1724243E-003  0.9118800E+02  0.7818608E-02  0.1130116E+00
         25   -1    0    0    0    0  0.00000000000E+00  0.00000000000E+00  0.99999998245E-14  0.12500000000E+03  0.12500000000E+03 0.  0.
        -13    1    3    3    0    0 -0.94256989943E+01 -0.23468060706E+02  0.36509126731E+02  0.44413074354E+02  0.10566000000E+00 0.  1.
         23    2    1    0    0    0 -0.17366325281E+02  0.20638124956E+02  0.12205218578E+02  0.95394446197E+02  0.90684130636E+02 0.  0.
         13    1    3    3    0    0 -0.79406262862E+01  0.44106185662E+02 -0.24303908153E+02  0.50981371843E+02  0.10566000000E+00 0. -1.
         22    1    1    0    0    0  0.17366325281E+02 -0.20638124956E+02 -0.12205218578E+02  0.29605553803E+02  0.00000000000E+00 0. -1.
</event>
<event>
 5    1  0.1724243E-003  0.9118800E+02  0.7818608E-02  0.1130116E+00
         25   -1    0    0    0    0  0.00000000000E+00  0.00000000000E+00  0.99999998245E-14  0.12500000000E+03  0.12500000000E+03 0.  0.
        -13    1    3    3    0    0  0.43877201264E+02 -0.27196078357E+02 -0.93631131524E+01  0.52464411945E+02  0.10566000000E+00 0.  1.
         23    2    1    0    0    0  0.25935119963E+02  0.10545565233E+02 -0.12432734271E+02  0.94366484449E+02  0.89255930404E+02 0.  0.
         13    1    3    3    0    0 -0.17942081301E+02  0.37741643590E+02 -0.30696211185E+01  0.41902072504E+02  0.10566000000E+00 0. -1.
         22    1    1    0    0    0 -0.25935119963E+02 -0.10545565233E+02  0.12432734271E+02  0.30633515551E+02  0.00000000000E+00 0.  1.
</event>
<event>
 5    1  0.1724243E-003  0.9118800E+02  0.7818608E-02  0.1130116E+00
         25   -1    0    0    0    0  0.00000000000E+00  0.00000000000E+00  0.99999998245E-14  0.12500000000E+03  0.12500000000E+03 0.  0.
        -13    1    3    3    0    0 -0.50259236520E+01 -0.11086112858E+02  0.47977324741E+02  0.49497440946E+02  0.10566000000E+00 0.  1.
         23    2    1    0    0    0 -0.29482054844E+02  0.15897604359E+01  0.17081731526E+02  0.90889818998E+02  0.84246393095E+02 0.  0.
         13    1    3    3    0    0 -0.24456131192E+02  0.12675873294E+02 -0.30895593215E+02  0.41392378052E+02  0.10566000000E+00 0. -1.
         22    1    1    0    0    0  0.29482054844E+02 -0.15897604359E+01 -0.17081731526E+02  0.34110181002E+02  0.00000000000E+00 0.  1.
</event>
<event>
 5    1  0.1724243E-003  0.9118800E+02  0.7818608E-02  0.1130116E+00
         25   -1    0    0    0    0  0.00000000000E+00  0.00000000000E+00  0.99999998245E-14  0.12500000000E+03  0.12500000000E+03 0.  0.
        -13    1    3    3    0    0 -0.41320491473E+02 -0.25213227545E+01 -0.27525057798E+02  0.49712976724E+02  0.10566000000E+00 0. -1.
         23    2    1    0    0    0 -0.24000028372E+02 -0.85423257827E+01  0.14587038536E+02  0.95644346628E+02  0.91027944374E+02 0.  0.
         13    1    3    3    0    0  0.17320463100E+02 -0.60210030282E+01  0.42112096334E+02  0.45931369903E+02  0.10566000000E+00 0.  1.
         22    1    1    0    0    0  0.24000028372E+02  0.85423257827E+01 -0.14587038536E+02  0.29355653372E+02  0.00000000000E+00 0.  1.
</event>
<event>
 5    1  0.1724243E-003  0.9118800E+02  0.7818608E-02  0.1130116E+00
         25   -1    0    0    0    0  0.00000000000E+00  0.00000000000E+00  0.99999998245E-14  0.12500000000E+03  0.12500000000E+03 0.  0.
        -13    1    3    3    0    0  0.44454078173E+02 -0.31559636191E+01  0.22582051537E+02  0.49960838546E+02  0.10566000000E+00 0.  1.
         23    2    1    0    0    0  0.16627853515E+02  0.42698046572E+01 -0.18260716823E+02  0.99936669750E+02  0.96742790106E+02 0.  0.
         13    1    3    3    0    0 -0.27826224658E+02  0.74257682762E+01 -0.40842768360E+02  0.49975831204E+02  0.10566000000E+00 0. -1.
         22    1    1    0    0    0 -0.16627853515E+02 -0.42698046572E+01  0.18260716823E+02  0.25063330250E+02  0.00000000000E+00 0. -1.
</event>
<event>
 5    1  0.1724243E-003  0.9118800E+02  0.7818608E-02  0.1130116E+00
         25   -1    0    0    0    0  0.00000000000E+00  0.00000000000E+00  0.99999998245E-14  0.12500000000E+03  0.12500000000E+03 0.  0.
        -13    1    3    3    0    0  0.25112931017E+02 -0.26752413839E+02  0.22213421643E+01  0.36759984705E+02  0.10566000000E+00 0.  1.
         23    2    1    0    0    0 -0.11815883580E+02  0.16233825975E+02 -0.19079846795E+02  0.97301755212E+02  0.93276142733E+02 0.  0.
         13    1    3    3    0    0 -0.36928814597E+02  0.42986239815E+02 -0.21301188960E+02  0.60541770507E+02  0.10566000000E+00 0. -1.
         22    1    1    0    0    0  0.11815883580E+02 -0.16233825975E+02  0.19079846795E+02  0.27698244788E+02  0.00000000000E+00 0. -1.
</event>
<event>
 5    1  0.1724243E-003  0.9118800E+02  0.7818608E-02  0.1130116E+00
         25   -1    0    0    0    0  0.00000000000E+00  0.00000000000E+00  0.99999998245E-14  0.12500000000E+03  0.12500000000E+03 0.  0.
        -13    1    3    3    0    0  0.34611724799E+02 -0.13133527757E+02 -0.26904913262E+02  0.45764031363E+02  0.10566000000E+00 0.  1.
         23    2    1    0    0    0  0.79326554850E+01  0.21679819059E+02  0.66361709553E+01  0.10097958488E+03  0.98081069635E+02 0.  0.
         13    1    3    3    0    0 -0.26679069314E+02  0.34813346815E+02  0.33541084218E+02  0.55215553520E+02  0.10566000000E+00 0. -1.
         22    1    1    0    0    0 -0.79326554850E+01 -0.21679819059E+02 -0.66361709553E+01  0.24020415117E+02  0.00000000000E+00 0. -1.
</event>
<event>
 5    1  0.1724243E-003  0.9118800E+02  0.7818608E-02  0.1130116E+00
         25   -1    0    0    0    0  0.00000000000E+00  0.00000000000E+00  0.99999998245E-14  0.12500000000E+03  0.12500000000E+03 0.  0.
        -13    1    3    3    0    0  0.19194285832E+02 -0.19989140682E+02 -0.32223541317E+02  0.42501225075E+02  0.10566000000E+00 0. -1.
         23    2    1    0    0    0  0.26117558352E+02  0.12166735407E+02  0.86038169712E+01  0.94930381260E+02  0.90042186307E+02 0.  0.
         13    1    3    3    0    0  0.69232725195E+01  0.32155876089E+02  0.40827358288E+02  0.52429156185E+02  0.10566000000E+00 0.  1.
         22    1    1    0    0    0 -0.26117558352E+02 -0.12166735407E+02 -0.86038169712E+01  0.30069618740E+02  0.00000000000E+00 0.  1.
</event>
<event>
 5    1  0.1724243E-003  0.9118800E+02  0.7818608E-02  0.1130116E+00
         25   -1    0    0    0    0  0.00000000000E+00  0.00000000000E+00  0.99999998245E-14  0.12500000000E+03  0.12500000000E+03 0.  0.
        -13    1    3    3    0    0 -0.36176390277E+02  0.29712534040E+02  0.39840703916E+02  0.61472422639E+02  0.10566000000E+00 0. -1.
         23    2    1    0    0    0 -0.14463173712E+02  0.81453334734E+01  0.23680396254E+02  0.96081303315E+02  0.91626010656E+02 0.  0.
         13    1    3    3    0    0  0.21713216564E+02 -0.21567200567E+02 -0.16160307663E+02  0.34608880676E+02  0.10566000000E+00 0.  1.
         22    1    1    0    0    0  0.14463173712E+02 -0.81453334734E+01 -0.23680396254E+02  0.28918696685E+02  0.00000000000E+00 0. -1.
</event>
<event>
 5    1  0.1724243E-003  0.9118800E+02  0.7818608E-02  0.1130116E+00
         25   -1    0    0    0    0  0.00000000000E+00  0.00000000000E+00  0.99999998245E-14  0.12500000000E+03  0.12500000000E+03 0.  0.
        -13    1    3    3    0    0 -0.33126565816E+02 -0.87570344032E+01  0.35329809113E+02  0.49216476817E+02  0.10566000000E+00 0. -1.
         23    2    1    0    0    0  0.59598927653E+01 -0.16549546081E+02  0.31066117989E+02  0.89299699102E+02  0.81853068211E+02 0.  0.
         13    1    3    3    0    0  0.39086458582E+02 -0.77925116782E+01 -0.42636911239E+01  0.40083222285E+02  0.10566000000E+00 0.  1.
         22    1    1    0    0    0 -0.59598927653E+01  0.16549546081E+02 -0.31066117989E+02  0.35700300898E+02  0.00000000000E+00 0. -1.
</event>
<event>
 5    1  0.1724243E-003  0.9118800E+02  0.7818608E-02  0.1130116E+00
         25   -1    0    0    0    0  0.00000000000E+00  0.00000000000E+00  0.99999998245E-14  0.12500000000E+03  0.12500000000E+03 0.  0.
        -13    1    3    3    0    0  0.28053307162E+02  0.11900151295E+02  0.39555706887E+02  0.49932622152E+02  0.10566000000E+00 0.  1.
         23    2    1    0    0    0 -0.13061652022E+02  0.16534047808E+02  0.20908421849E+02  0.95315937026E+02  0.90575848086E+02 0.  0.
         13    1    3    3    0    0 -0.41114959184E+02  0.46338965126E+01 -0.18647285038E+02  0.45383314874E+02  0.10566000000E+00 0. -1.
         22    1    1    0    0    0  0.13061652022E+02 -0.16534047808E+02 -0.20908421849E+02  0.29684062974E+02  0.00000000000E+00 0.  1.
</event>
<event>
 5    1  0.1724243E-003  0.9118800E+02  0.7818608E-02  0.1130116E+00
         25   -1    0    0    0    0  0.00000000000E+00  0.00000000000E+00  0.99999998245E-14  0.12500000000E+03  0.12500000000E+03 0.  0.
        -13    1    3    3    0    0 -0.84946313936E+01  0.13981124834E+01  0.33134801055E+02  0.34235065153E+02  0.10566000000E+00 0.  1.
         23    2    1    0    0    0  0.20593383942E+02 -0.66946560483E+01 -0.20112125826E+02  0.95446599400E+02  0.90755990712E+02 0.  0.
         13    1    3    3    0    0  0.29088015335E+02 -0.80927685317E+01 -0.53246926881E+02  0.61211534247E+02  0.10566000000E+00 0. -1.
         22    1    1    0    0    0 -0.20593383942E+02  0.66946560483E+01  0.20112125826E+02  0.29553400600E+02  0.00000000000E+00 0. -1.
</event>
<event>
 5    1  0.1724243E-003  0.9118800E+02  0.7818608E-02  0.1130116E+00
         25   -1    0    0    0    0  0.00000000000E+00  0.00000000000E+00  0.99999998245E-14  0.12500000000E+03  0.12500000000E+03 0.  0.
        -13    1    3    3    0    0 -0.24883570386E+02 -0.91361087553E+01 -0.20958413759E+02  0.33792407871E+02  0.10566000000E+00 0. -1.
         23    2    1    0    0    0  0.19740403807E+02 -0.43987978646E+01  0.21438165795E+02  0.95527505742E+02  0.90867356271E+02 0.  0.
         13    1    3    3    0    0  0.44623974193E+02  0.47373108907E+01  0.42396579554E+02  0.61735097872E+02  0.10566000000E+00 0.  1.
         22    1    1    0    0    0 -0.19740403807E+02  0.43987978646E+01 -0.21438165795E+02  0.29472494258E+02  0.00000000000E+00 0.  1.
</event>
<event>
 5    1  0.1724243E-003  0.9118800E+02  0.7818608E-02  0.1130116E+00
         25   -1    0    0    0    0  0.00000000000E+00  0.00000000000E+00  0.99999998245E-14  0.12500000000E+03  0.12500000000E+03 0.  0.
        -13    1    3    3    0    0  0.65927511244E+01 -0.32025108266E+02  0.24658194255E+02  0.40952529040E+02  0.10566000000E+00 0.  1.
         23    2    1    0    0    0 -0.13892475804E+02  0.14578043793E+02  0.26287855361E+02  0.91885477743E+02  0.85710964502E+02 0.  0.
         13    1    3    3    0    0 -0.20485226929E+02  0.46603152060E+02  0.16296611055E+01  0.50932948703E+02  0.10566000000E+00 0. -1.
         22    1    1    0    0    0  0.13892475804E+02 -0.14578043793E+02 -0.26287855361E+02  0.33114522257E+02  0.00000000000E+00 0. -1.
</event>
<event>
 5    1  0.1724243E-003  0.9118800E+02  0.7818608E-02  0.1130116E+00
         25   -1    0    0    0    0  0.00000000000E+00  0.00000000000E+00  0.99999998245E-14  0.12500000000E+03  0.12500000000E+03 0.  0.
        -13    1    3    3    0    0  0.10243584334E+02  0.49867864126E+02  0.21490222814E+02  0.55259168770E+02  0.10566000000E+00 0.  1.
         23    2    1    0    0    0  0.61532718155E+01  0.24520144469E+02 -0.11635415040E+02  0.97170463138E+02  0.93100031066E+02 0.  0.
         13    1    3    3    0    0 -0.40903125185E+01 -0.25347719657E+02 -0.33125637854E+02  0.41911294368E+02  0.10566000000E+00 0. -1.
         22    1    1    0    0    0 -0.61532718155E+01 -0.24520144469E+02  0.11635415040E+02  0.27829536862E+02  0.00000000000E+00 0.  1.
</event>
<event>
 5    1  0.1724243E-003  0.9118800E+02  0.7818608E-02  0.1130116E+00
         25   -1    0    0    0    0  0.00000000000E+00  0.00000000000E+00  0.99999998245E-14  0.12500000000E+03  0.12500000000E+03 0.  0.
        -13    1    3    3    0    0 -0.41546737625E+01  0.17792209069E+02 -0.41423458168E+02  0.45274033046E+02  0.10566000000E+00 0.  1.
         23    2    1    0    0    0 -0.85962275093E+01 -0.23945980428E+02 -0.10192758140E+02  0.97592018963E+02  0.93664319464E+02 0.  0.
         13    1    3    3    0    0 -0.44415537468E+01 -0.41738189497E+02  0.31230700028E+02  0.52317985917E+02  0.10566000000E+00 0. -1.
         22    1    1    0    0    0  0.85962275093E+01  0.23945980428E+02  0.10192758140E+02  0.27407981037E+02  0.00000000000E+00 0. -1.
</event>
<event>
 5    1  0.1724243E-003  0.9118800E+02  0.7818608E-02  0.1130116E+00
         25   -1    0    0    0    0  0.00000000000E+00  0.00000000000E+00  0.99999998245E-14  0.12500000000E+03  0.12500000000E+03 0.  0.
        -13    1    3    3    0    0 -0.15378172919E+02 -0.15616915345E+02 -0.29274048760E+02  0.36569896664E+02  0.10566000000E+00 0.  1.
         23    2    1    0    0    0  0.31874224738E+02  0.82381832475E+00 -0.32905306159E+01  0.92945788561E+02  0.87243608019E+02 0.  0.
         13    1    3    3    0    0  0.47252397657E+02  0.16440733669E+02  0.25983518144E+02  0.56375891896E+02  0.10566000000E+00 0. -1.
         22    1    1    0    0    0 -0.31874224738E+02 -0.82381832475E+00  0.32905306159E+01  0.32054211439E+02  0.00000000000E+00 0. -1.
</event>
<event>
 5    1  0.1724243E-003  0.9118800E+02  0.7818608E-02  0.1130116E+00
         25   -1    0    0    0    0  0.00000000000E+00  0.00000000000E+00  0.99999998245E-14  0.12500000000E+03  0.12500000000E+03 0.  0.
        -13    1    3    3    0    0  0.19112450051E+02 -0.11083316121E+02 -0.27015295900E+02  0.34899326925E+02  0.10566000000E+00 0.  1.
         23    2    1    0    0    0 -0.27688009786E+02 -0.29944909367E+01  0.10307848646E+02  0.95304131507E+02  0.90559554309E+02 0.  0.
         13    1    3    3    0    0 -0.46800459837E+02  0.80888251848E+01  0.37323144546E+02  0.60404804582E+02  0.10566000000E+00 0. -1.
         22    1    1    0    0    0  0.27688009786E+02  0.29944909367E+01 -0.10307848646E+02  0.29695868493E+02  0.00000000000E+00 0. -1.
</event>
<event>
 5    1  0.1724243E-003  0.9118800E+02  0.7818608E-02  0.1130116E+00
         25   -1    0    0    0    0  0.00000000000E+00  0.00000000000E+00  0.99999998245E-14  0.12500000000E+03  0.12500000000E+03 0.  0.
        -13    1    3    3    0    0  0.26919675683E+01 -0.58122610749E+02 -0.42274885964E+01  0.58338386964E+02  0.10566000000E+00 0.  1.
         23    2    1    0    0    0 -0.99171708886E+01 -0.25460868261E+02  0.96816284119E+01  0.96011381204E+02  0.91530570308E+02 0.  0.
         13    1    3    3    0    0 -0.12609138457E+02  0.32661742488E+02  0.13909117008E+02  0.37672994240E+02  0.10566000000E+00 0. -1.
         22    1    1    0    0    0  0.99171708886E+01  0.25460868261E+02 -0.96816284119E+01  0.28988618796E+02  0.00000000000E+00 0.  1.
</event>
<event>
 5    1  0.1724243E-003  0.9118800E+02  0.7818608E-02  0.1130116E+00
         25   -1    0    0    0    0  0.00000000000E+00  0.00000000000E+00  0.99999998245E-14  0.12500000000E+03  0.12500000000E+03 0.  0.
        -13    1    3    3    0    0 -0.24691512404E+02 -0.57241201055E+02 -0.22010688096E+01  0.62378535979E+02  0.10566000000E+00 0.  1.
         23    2    1    0    0    0 -0.10594384221E+02 -0.28801869469E+02  0.11020558205E+01  0.94291643011E+02  0.89151055814E+02 0.  0.
         13    1    3    3    0    0  0.14097128182E+02  0.28439331586E+02  0.33031246302E+01  0.31913107031E+02  0.10566000000E+00 0. -1.
         22    1    1    0    0    0  0.10594384221E+02  0.28801869469E+02 -0.11020558205E+01  0.30708356989E+02  0.00000000000E+00 0.  1.
</event>
<event>
 5    1  0.1724243E-003  0.9118800E+02  0.7818608E-02  0.1130116E+00
         25   -1    0    0    0    0  0.00000000000E+00  0.00000000000E+00  0.99999998245E-14  0.12500000000E+03  0.12500000000E+03 0.  0.
        -13    1    3    3    0    0 -0.22331644041E+02  0.37885497613E+02  0.12868389251E+02  0.45821609104E+02  0.10566000000E+00 0.  1.
         23    2    1    0    0    0 -0.23359005732E+02 -0.12326565846E+02  0.11842241766E+02  0.96054774757E+02  0.91589812148E+02 0.  0.
         13    1    3    3    0    0 -0.10273616908E+01 -0.50212063459E+02 -0.10261474850E+01  0.50233165653E+02  0.10566000000E+00 0. -1.
         22    1    1    0    0    0  0.23359005732E+02  0.12326565846E+02 -0.11842241766E+02  0.28945225243E+02  0.00000000000E+00 0. -1.
</event>
<event>
 5    1  0.1724243E-003  0.9118800E+02  0.7818608E-02  0.1130116E+00
         25   -1    0    0    0    0  0.00000000000E+00  0.00000000000E+00  0.99999998245E-14  0.12500000000E+03  0.12500000000E+03 0.  0.
        -13    1    3    3    0    0  0.55173029664E+01  0.70047548237E+01  0.50632796349E+02  0.51412045790E+02  0.10566000000E+00 0.  1.
         23    2    1    0    0    0 -0.10112504436E+02 -0.19813102186E+02  0.18778751921E+02  0.95888777285E+02  0.91362981132E+02 0.  0.
         13    1    3    3    0    0 -0.15629807402E+02 -0.26817857010E+02 -0.31854044428E+02  0.44476731495E+02  0.10566000000E+00 0. -1.
         22    1    1    0    0    0  0.10112504436E+02  0.19813102186E+02 -0.18778751921E+02  0.29111222715E+02  0.00000000000E+00 0.  1.
</event>
<event>
 5    1  0.1724243E-003  0.9118800E+02  0.7818608E-02  0.1130116E+00
         25   -1    0    0    0    0  0.00000000000E+00  0.00000000000E+00  0.99999998245E-14  0.12500000000E+03  0.12500000000E+03 0.  0.
        -13    1    3    3    0    0  0.78346664164E+01 -0.39315273808E+01 -0.57090515532E+02  0.57759648832E+02  0.10566000000E+00 0.  1.
         23    2    1    0    0    0  0.19166895680E+02 -0.68946124761E+01 -0.20827080638E+02  0.95868009695E+02  0.91334563139E+02 0.  0.
         13    1    3    3    0    0  0.11332229263E+02 -0.29630850953E+01  0.36263434894E+02  0.38108360864E+02  0.10566000000E+00 0. -1.
         22    1    1    0    0    0 -0.19166895680E+02  0.68946124761E+01  0.20827080638E+02  0.29131990305E+02  0.00000000000E+00 0.  1.
</event>
<event>
 5    1  0.1724243E-003  0.9118800E+02  0.7818608E-02  0.1130116E+00
         25   -1    0    0    0    0  0.00000000000E+00  0.00000000000E+00  0.99999998245E-14  0.12500000000E+03  0.12500000000E+03 0.  0.
        -13    1    3    3    0    0 -0.35482122692E+02  0.23324959922E+02  0.61944174944E+01  0.42911732175E+02  0.10566000000E+00 0.  1.
         23    2    1    0    0    0  0.17091975373E+02  0.11382582435E+02 -0.13628273184E+02  0.10035393267E+03  0.97280435682E+02 0.  0.
         13    1    3    3    0    0  0.52574098066E+02 -0.11942377487E+02 -0.19822690679E+02  0.57442200491E+02  0.10566000000E+00 0. -1.
         22    1    1    0    0    0 -0.17091975373E+02 -0.11382582435E+02  0.13628273184E+02  0.24646067334E+02  0.00000000000E+00 0. -1.
</event>
<event>
 5    1  0.1724243E-003  0.9118800E+02  0.7818608E-02  0.1130116E+00
         25   -1    0    0    0    0  0.00000000000E+00  0.00000000000E+00  0.99999998245E-14  0.12500000000E+03  0.12500000000E+03 0.  0.
        -13    1    3    3    0    0  0.23514518354E+02  0.15776014295E+02 -0.16346709760E+02  0.32696196789E+02  0.10566000000E+00 0.  1.
         23    2    1    0    0    0 -0.27671131486E+02 -0.13556721497E+02 -0.12275269407E+02  0.91831363392E+02  0.85632008314E+02 0.  0.
         13    1    3    3    0    0 -0.51185649839E+02 -0.29332735792E+02  0.40714403538E+01  0.59135166603E+02  0.10566000000E+00 0. -1.
         22    1    1    0    0    0  0.27671131486E+02  0.13556721497E+02  0.12275269407E+02  0.33168636608E+02  0.00000000000E+00 0. -1.
</event>
<event>
 5    1  0.1724243E-003  0.9118800E+02  0.7818608E-02  0.1130116E+00
         25   -1    0    0    0    0  0.00000000000E+00  0.00000000000E+00  0.99999998245E-14  0.12500000000E+03  0.12500000000E+03 0.  0.
        -13    1    3    3    0    0 -0.34559163737E+02  0.73639629488E+01 -0.57738014440E+01  0.35803794431E+02  0.10566000000E+00 0.  1.
         23    2    1    0    0    0  0.23925485267E+02 -0.76602009112E+00 -0.16645916606E+02  0.95843488348E+02  0.91300997185E+02 0.  0.
         13    1    3    3    0    0  0.58484649005E+02 -0.81299830399E+01 -0.10872115162E+02  0.60039693916E+02  0.10566000000E+00 0. -1.
         22    1    1    0    0    0 -0.23925485267E+02  0.76602009112E+00  0.16645916606E+02  0.29156511652E+02  0.00000000000E+00 0. -1.
</event>
<event>
 5    1  0.1724243E-003  0.9118800E+02  0.7818608E-02  0.1130116E+00
         25   -1    0    0    0    0  0.00000000000E+00  0.00000000000E+00  0.99999998245E-14  0.12500000000E+03  0.12500000000E+03 0.  0.
        -13    1    3    3    0    0 -0.22814204403E+02 -0.13503093856E+02 -0.47086438584E+02  0.54036703534E+02  0.10566000000E+00 0. -1.
         23    2    1    0    0    0 -0.17135764621E+02 -0.25444526410E+02 -0.11098011352E+02  0.92377550532E+02  0.86425619078E+02 0.  0.
         13    1    3    3    0    0  0.56784397824E+01 -0.11941432554E+02  0.35988427233E+02  0.38340846998E+02  0.10566000000E+00 0.  1.
         22    1    1    0    0    0  0.17135764621E+02  0.25444526410E+02  0.11098011352E+02  0.32622449468E+02  0.00000000000E+00 0. -1.
</event>
<event>
 5    1  0.1724243E-003  0.9118800E+02  0.7818608E-02  0.1130116E+00
         25   -1    0    0    0    0  0.00000000000E+00  0.00000000000E+00  0.99999998245E-14  0.12500000000E+03  0.12500000000E+03 0.  0.
        -13    1    3    3    0    0  0.21332367015E+02 -0.28649136929E+02 -0.12446219032E+02  0.37825420837E+02  0.10566000000E+00 0.  1.
         23    2    1    0    0    0 -0.77742946052E-01  0.15935040057E+02  0.21809908137E+02  0.97988823822E+02  0.94192387991E+02 0.  0.
         13    1    3    3    0    0 -0.21410109961E+02  0.44584176986E+02  0.34256127169E+02  0.60163402985E+02  0.10566000000E+00 0. -1.
         22    1    1    0    0    0  0.77742946052E-01 -0.15935040057E+02 -0.21809908137E+02  0.27011176178E+02  0.00000000000E+00 0. -1.
</event>
<event>
 5    1  0.1724243E-003  0.9118800E+02  0.7818608E-02  0.1130116E+00
         25   -1    0    0    0    0  0.00000000000E+00  0.00000000000E+00  0.99999998245E-14  0.12500000000E+03  0.12500000000E+03 0.  0.
        -13    1    3    3    0    0  0.25062352280E+02  0.17204370988E+02 -0.27483852193E+02  0.40981522401E+02  0.10566000000E+00 0. -1.
         23    2    1    0    0    0 -0.25867381179E+02  0.19546330424E+01 -0.12423377988E+02  0.96237484115E+02  0.91838831813E+02 0.  0.
         13    1    3    3    0    0 -0.50929733459E+02 -0.15249737946E+02  0.15060474205E+02  0.55255961714E+02  0.10566000000E+00 0.  1.
         22    1    1    0    0    0  0.25867381179E+02 -0.19546330424E+01  0.12423377988E+02  0.28762515885E+02  0.00000000000E+00 0.  1.
</event>
<event>
 5    1  0.1724243E-003  0.9118800E+02  0.7818608E-02  0.1130116E+00
         25   -1    0    0    0    0  0.00000000000E+00  0.00000000000E+00  0.99999998245E-14  0.12500000000E+03  0.12500000000E+03 0.  0.
        -13    1    3    3    0    0 -0.10109326376E+02  0.62903987272E+01  0.45645718325E+02  0.47173195369E+02  0.10566000000E+00 0.  1.
         23    2    1    0    0    0  0.24439963534E+02 -0.78468883513E+01  0.17296704724E+02  0.94047431954E+02  0.88807983810E+02 0.  0.
         13    1    3    3    0    0  0.34549289910E+02 -0.14137287078E+02 -0.28349013601E+02  0.46874236585E+02  0.10566000000E+00 0. -1.
         22    1    1    0    0    0 -0.24439963534E+02  0.78468883513E+01 -0.17296704724E+02  0.30952568046E+02  0.00000000000E+00 0. -1.
</event>
<event>
 5    1  0.1724243E-003  0.9118800E+02  0.7818608E-02  0.1130116E+00
         25   -1    0    0    0    0  0.00000000000E+00  0.00000000000E+00  0.99999998245E-14  0.12500000000E+03  0.12500000000E+03 0.  0.
        -13    1    3    3    0    0 -0.13082917634E+02  0.35612661319E+02 -0.17197612914E+02  0.41655653086E+02  0.10566000000E+00 0. -1.
         23    2    1    0    0    0  0.25500026648E+02 -0.16687140554E+01 -0.15033289106E+02  0.95351462987E+02  0.90624862741E+02 0.  0.
         13    1    3    3    0    0  0.38582944282E+02 -0.37281375375E+02  0.21643238079E+01  0.53695809901E+02  0.10566000000E+00 0.  1.
         22    1    1    0    0    0 -0.25500026648E+02  0.16687140554E+01  0.15033289106E+02  0.29648537013E+02  0.00000000000E+00 0.  1.
</event>
<event>
 5    1  0.1724243E-003  0.9118800E+02  0.7818608E-02  0.1130116E+00
         25   -1    0    0    0    0  0.00000000000E+00  0.00000000000E+00  0.99999998245E-14  0.12500000000E+03  0.12500000000E+03 0.  0.
        -13    1    3    3    0    0  0.45860260909E+02  0.67653541994E+01 -0.22868641573E+02  0.51690613069E+02  0.10566000000E+00 0. -1.
         23    2    1    0    0    0  0.17845721892E+02 -0.22386393581E+02 -0.48157953258E+01  0.95968770401E+02  0.91472359761E+02 0.  0.
         13    1    3    3    0    0 -0.28014539017E+02 -0.29151747781E+02  0.18052846247E+02  0.44278157331E+02  0.10566000000E+00 0.  1.
         22    1    1    0    0    0 -0.17845721892E+02  0.22386393581E+02  0.48157953258E+01  0.29031229599E+02  0.00000000000E+00 0.  1.
</event>
<event>
 5    1  0.1724243E-003  0.9118800E+02  0.7818608E-02  0.1130116E+00
         25   -1    0    0    0    0  0.00000000000E+00  0.00000000000E+00  0.99999998245E-14  0.12500000000E+03  0.12500000000E+03 0.  0.
        -13    1    3    3    0    0  0.11780194499E+02  0.26536045050E+02  0.24594195256E+02  0.38050233556E+02  0.10566000000E+00 0. -1.
         23    2    1    0    0    0 -0.19476918395E+02 -0.11027181427E+02 -0.12465624145E+02  0.99380849630E+02  0.96021937116E+02 0.  0.
         13    1    3    3    0    0 -0.31257112894E+02 -0.37563226477E+02 -0.37059819401E+02  0.61330616073E+02  0.10566000000E+00 0.  1.
         22    1    1    0    0    0  0.19476918395E+02  0.11027181427E+02  0.12465624145E+02  0.25619150370E+02  0.00000000000E+00 0.  1.
</event>
<event>
 5    1  0.1724243E-003  0.9118800E+02  0.7818608E-02  0.1130116E+00
         25   -1    0    0    0    0  0.00000000000E+00  0.00000000000E+00  0.99999998245E-14  0.12500000000E+03  0.12500000000E+03 0.  0.
        -13    1    3    3    0    0  0.18477637134E+02  0.49137033431E+01  0.47741247650E+02  0.51427671986E+02  0.10566000000E+00 0. -1.
         23    2    1    0    0    0  0.32615030001E+02 -0.10857739092E+02  0.33844577438E+02  0.76760119174E+02  0.59707870449E+02 0.  0.
         13    1    3    3    0    0  0.14137392867E+02 -0.15771442435E+02 -0.13896670212E+02  0.25332447189E+02  0.10566000000E+00 0.  1.
         22    1    1    0    0    0 -0.32615030001E+02  0.10857739092E+02 -0.33844577438E+02  0.48239880826E+02  0.00000000000E+00 0. -1.
</event>
<event>
 5    1  0.1724243E-003  0.9118800E+02  0.7818608E-02  0.1130116E+00
         25   -1    0    0    0    0  0.00000000000E+00  0.00000000000E+00  0.99999998245E-14  0.12500000000E+03  0.12500000000E+03 0.  0.
        -13    1    3    3    0    0 -0.80544258216E+01  0.49943426419E+02 -0.33402655832E+02  0.60621515969E+02  0.10566000000E+00 0.  1.
         23    2    1    0    0    0 -0.12807996885E+02  0.25341601999E+02 -0.10032992799E+02  0.94885177726E+02  0.89979411154E+02 0.  0.
         13    1    3    3    0    0 -0.47535710639E+01 -0.24601824420E+02  0.23369663033E+02  0.34263661757E+02  0.10566000000E+00 0. -1.
         22    1    1    0    0    0  0.12807996885E+02 -0.25341601999E+02  0.10032992799E+02  0.30114822274E+02  0.00000000000E+00 0.  1.
</event>
<event>
 5    1  0.1724243E-003  0.9118800E+02  0.7818608E-02  0.1130116E+00
         25   -1    0    0    0    0  0.00000000000E+00  0.00000000000E+00  0.99999998245E-14  0.12500000000E+03  0.12500000000E+03 0.  0.
        -13    1    3    3    0    0  0.15053986609E+02  0.11731273520E+02 -0.41762983353E+02  0.45917352208E+02  0.10566000000E+00 0.  1.
         23    2    1    0    0    0 -0.20664699982E+02  0.20462302999E+02 -0.10833974286E+02  0.93965975637E+02  0.88693257405E+02 0.  0.
         13    1    3    3    0    0 -0.35718686590E+02  0.87310294792E+01  0.30929009067E+02  0.48048623429E+02  0.10566000000E+00 0. -1.
         22    1    1    0    0    0  0.20664699982E+02 -0.20462302999E+02  0.10833974286E+02  0.31034024363E+02  0.00000000000E+00 0.  1.
</event>
<event>
 5    1  0.1724243E-003  0.9118800E+02  0.7818608E-02  0.1130116E+00
         25   -1    0    0    0    0  0.00000000000E+00  0.00000000000E+00  0.99999998245E-14  0.12500000000E+03  0.12500000000E+03 0.  0.
        -13    1    3    3    0    0  0.33636115343E+02  0.29928273852E+01  0.10690499595E+02  0.35420943194E+02  0.10566000000E+00 0. -1.
         23    2    1    0    0    0 -0.17481648930E+02 -0.14457297492E+02 -0.17499981994E+02  0.96349155861E+02  0.91990700427E+02 0.  0.
         13    1    3    3    0    0 -0.51117764273E+02 -0.17450124877E+02 -0.28190481589E+02  0.60928212667E+02  0.10566000000E+00 0.  1.
         22    1    1    0    0    0  0.17481648930E+02  0.14457297492E+02  0.17499981994E+02  0.28650844139E+02  0.00000000000E+00 0.  1.
</event>
<event>
 5    1  0.1724243E-003  0.9118800E+02  0.7818608E-02  0.1130116E+00
         25   -1    0    0    0    0  0.00000000000E+00  0.00000000000E+00  0.99999998245E-14  0.12500000000E+03  0.12500000000E+03 0.  0.
        -13    1    3    3    0    0 -0.15878924895E+02  0.43238009138E+02  0.15328001888E+01  0.46087160148E+02  0.10566000000E+00 0. -1.
         23    2    1    0    0    0 -0.71287254483E+01  0.52290581135E+01 -0.28402067708E+02  0.95253752752E+02  0.90489989435E+02 0.  0.
         13    1    3    3    0    0  0.87501994465E+01 -0.38008951024E+02 -0.29934867896E+02  0.49166592604E+02  0.10566000000E+00 0.  1.
         22    1    1    0    0    0  0.71287254483E+01 -0.52290581135E+01  0.28402067708E+02  0.29746247248E+02  0.00000000000E+00 0. -1.
</event>
<event>
 5    1  0.1724243E-003  0.9118800E+02  0.7818608E-02  0.1130116E+00
         25   -1    0    0    0    0  0.00000000000E+00  0.00000000000E+00  0.99999998245E-14  0.12500000000E+03  0.12500000000E+03 0.  0.
        -13    1    3    3    0    0 -0.29032786184E+02 -0.37610458008E+02  0.64628497974E+01  0.47950274418E+02  0.10566000000E+00 0. -1.
         23    2    1    0    0    0 -0.27591932537E+02 -0.83921414664E+01 -0.21969877308E+02  0.88745092905E+02  0.81001686565E+02 0.  0.
         13    1    3    3    0    0  0.14408536475E+01  0.29218316541E+02 -0.28432727105E+02  0.40794818488E+02  0.10566000000E+00 0.  1.
         22    1    1    0    0    0  0.27591932537E+02  0.83921414664E+01  0.21969877308E+02  0.36254907095E+02  0.00000000000E+00 0. -1.
</event>
<event>
 5    1  0.1724243E-003  0.9118800E+02  0.7818608E-02  0.1130116E+00
         25   -1    0    0    0    0  0.00000000000E+00  0.00000000000E+00  0.99999998245E-14  0.12500000000E+03  0.12500000000E+03 0.  0.
        -13    1    3    3    0    0  0.11282834389E+02  0.29558973737E+02  0.16263820855E+02  0.35574686409E+02  0.10566000000E+00 0. -1.
         23    2    1    0    0    0 -0.40971888044E+01 -0.10820061525E+02 -0.26325112902E+02  0.96244613430E+02  0.91848534868E+02 0.  0.
         13    1    3    3    0    0 -0.15380023194E+02 -0.40379035262E+02 -0.42588933757E+02  0.60669927021E+02  0.10566000000E+00 0.  1.
         22    1    1    0    0    0  0.40971888044E+01  0.10820061525E+02  0.26325112902E+02  0.28755386570E+02  0.00000000000E+00 0.  1.
</event>
<event>
 5    1  0.1724243E-003  0.9118800E+02  0.7818608E-02  0.1130116E+00
         25   -1    0    0    0    0  0.00000000000E+00  0.00000000000E+00  0.99999998245E-14  0.12500000000E+03  0.12500000000E+03 0.  0.
        -13    1    3    3    0    0 -0.18675770571E+02 -0.31932880393E+02 -0.46052084969E+02  0.59070288222E+02  0.10566000000E+00 0.  1.
         23    2    1    0    0    0 -0.17545251756E+02 -0.25219456948E+01 -0.18275878786E+02  0.99540152894E+02  0.96229092396E+02 0.  0.
         13    1    3    3    0    0  0.11305188147E+01  0.29410934698E+02  0.27776206183E+02  0.40469864672E+02  0.10566000000E+00 0. -1.
         22    1    1    0    0    0  0.17545251756E+02  0.25219456948E+01  0.18275878786E+02  0.25459847106E+02  0.00000000000E+00 0.  1.
</event>
<event>
 5    1  0.1724243E-003  0.9118800E+02  0.7818608E-02  0.1130116E+00
         25   -1    0    0    0    0  0.00000000000E+00  0.00000000000E+00  0.99999998245E-14  0.12500000000E+03  0.12500000000E+03 0.  0.
        -13    1    3    3    0    0 -0.57074729225E+01 -0.15637888911E+02 -0.29917148720E+02  0.34236906524E+02  0.10566000000E+00 0.  1.
         23    2    1    0    0    0 -0.35673389770E+01 -0.80479835500E+01  0.29520181869E+02  0.94195177583E+02  0.89015697468E+02 0.  0.
         13    1    3    3    0    0  0.21401339455E+01  0.75899053607E+01  0.59437330589E+02  0.59958271058E+02  0.10566000000E+00 0. -1.
         22    1    1    0    0    0  0.35673389770E+01  0.80479835500E+01 -0.29520181869E+02  0.30804822417E+02  0.00000000000E+00 0. -1.
</event>
<event>
 5    1  0.1724243E-003  0.9118800E+02  0.7818608E-02  0.1130116E+00
         25   -1    0    0    0    0  0.00000000000E+00  0.00000000000E+00  0.99999998245E-14  0.12500000000E+03  0.12500000000E+03 0.  0.
        -13    1    3    3    0    0 -0.31212506735E+02 -0.21436409729E+02 -0.22716697741E+02  0.44156536991E+02  0.10566000000E+00 0.  1.
         23    2    1    0    0    0  0.18587462712E+02 -0.63414251617E+01 -0.21035933458E+02  0.96221224146E+02  0.91816698027E+02 0.  0.
         13    1    3    3    0    0  0.49799969447E+02  0.15094984567E+02  0.16807642828E+01  0.52064687156E+02  0.10566000000E+00 0. -1.
         22    1    1    0    0    0 -0.18587462712E+02  0.63414251617E+01  0.21035933458E+02  0.28778775854E+02  0.00000000000E+00 0. -1.
</event>
<event>
 5    1  0.1724243E-003  0.9118800E+02  0.7818608E-02  0.1130116E+00
         25   -1    0    0    0    0  0.00000000000E+00  0.00000000000E+00  0.99999998245E-14  0.12500000000E+03  0.12500000000E+03 0.  0.
        -13    1    3    3    0    0  0.72375081321E+01 -0.54800822059E+02  0.21302568897E+02  0.59239532645E+02  0.10566000000E+00 0. -1.
         23    2    1    0    0    0  0.14645334799E+02 -0.25708549010E+02  0.11633375457E+01  0.95389720065E+02  0.90677615850E+02 0.  0.
         13    1    3    3    0    0  0.74078266672E+01  0.29092273049E+02 -0.20139231351E+02  0.36150187420E+02  0.10566000000E+00 0.  1.
         22    1    1    0    0    0 -0.14645334799E+02  0.25708549010E+02 -0.11633375457E+01  0.29610279935E+02  0.00000000000E+00 0. -1.
</event>
<event>
 5    1  0.1724243E-003  0.9118800E+02  0.7818608E-02  0.1130116E+00
         25   -1    0    0    0    0  0.00000000000E+00  0.00000000000E+00  0.99999998245E-14  0.12500000000E+03  0.12500000000E+03 0.  0.
        -13    1    3    3    0    0  0.49586784927E+02 -0.15892250457E+02 -0.40377087553E+01  0.52227647085E+02  0.10566000000E+00 0.  1.
         23    2    1    0    0    0  0.13065622095E+02 -0.25074928321E+02  0.13380659065E+02  0.93718942664E+02  0.88344415024E+02 0.  0.
         13    1    3    3    0    0 -0.36521162831E+02 -0.91826778638E+01  0.17418367820E+02  0.41491295579E+02  0.10566000000E+00 0. -1.
         22    1    1    0    0    0 -0.13065622095E+02  0.25074928321E+02 -0.13380659065E+02  0.31281057336E+02  0.00000000000E+00 0.  1.
</event>
<event>
 5    1  0.1724243E-003  0.9118800E+02  0.7818608E-02  0.1130116E+00
         25   -1    0    0    0    0  0.00000000000E+00  0.00000000000E+00  0.99999998245E-14  0.12500000000E+03  0.12500000000E+03 0.  0.
        -13    1    3    3    0    0 -0.41537816098E+02  0.37825025752E+02  0.26636495923E+02  0.62174245620E+02  0.10566000000E+00 0. -1.
         23    2    1    0    0    0 -0.21683694539E+02  0.13756397925E+02  0.12846274069E+02  0.96286800071E+02  0.91905930264E+02 0.  0.
         13    1    3    3    0    0  0.19854121559E+02 -0.24068627827E+02 -0.13790221854E+02  0.34112554451E+02  0.10566000000E+00 0.  1.
         22    1    1    0    0    0  0.21683694539E+02 -0.13756397925E+02 -0.12846274069E+02  0.28713199929E+02  0.00000000000E+00 0. -1.
</event>
<event>
 5    1  0.1724243E-003  0.9118800E+02  0.7818608E-02  0.1130116E+00
         25   -1    0    0    0    0  0.00000000000E+00  0.00000000000E+00  0.99999998245E-14  0.12500000000E+03  0.12500000000E+03 0.  0.
        -13    1    3    3    0    0 -0.95630031474E+01 -0.39006913291E+02  0.14649944555E+02  0.42750700032E+02  0.10566000000E+00 0. -1.
         23    2    1    0    0    0 -0.22159396523E+02  0.56053010687E+01 -0.14891193772E+02  0.97719862422E+02  0.93834778230E+02 0.  0.
         13    1    3    3    0    0 -0.12596393376E+02  0.44612214360E+02 -0.29541138327E+02  0.54969162390E+02  0.10566000000E+00 0.  1.
         22    1    1    0    0    0  0.22159396523E+02 -0.56053010687E+01  0.14891193772E+02  0.27280137578E+02  0.00000000000E+00 0.  1.
</event>
<event>
 5    1  0.1724243E-003  0.9118800E+02  0.7818608E-02  0.1130116E+00
         25   -1    0    0    0    0  0.00000000000E+00  0.00000000000E+00  0.99999998245E-14  0.12500000000E+03  0.12500000000E+03 0.  0.
        -13    1    3    3    0    0 -0.13417605374E+02 -0.48105206151E+02  0.29517760691E+02  0.58012518934E+02  0.10566000000E+00 0.  1.
         23    2    1    0    0    0 -0.24426170830E+01 -0.13247001807E+02  0.27219261447E+02  0.94629988001E+02  0.89624198743E+02 0.  0.
         13    1    3    3    0    0  0.10974988291E+02  0.34858204344E+02 -0.22984992440E+01  0.36617469067E+02  0.10566000000E+00 0. -1.
         22    1    1    0    0    0  0.24426170830E+01  0.13247001807E+02 -0.27219261447E+02  0.30370011999E+02  0.00000000000E+00 0.  1.
</event>
<event>
 5    1  0.1724243E-003  0.9118800E+02  0.7818608E-02  0.1130116E+00
         25   -1    0    0    0    0  0.00000000000E+00  0.00000000000E+00  0.99999998245E-14  0.12500000000E+03  0.12500000000E+03 0.  0.
        -13    1    3    3    0    0 -0.45917733970E+01  0.49995332109E+02 -0.28327935471E+02  0.57646341668E+02  0.10566000000E+00 0.  1.
         23    2    1    0    0    0 -0.17885028335E+02  0.27062153462E+02 -0.66550121259E+01  0.91886202650E+02  0.85712021692E+02 0.  0.
         13    1    3    3    0    0 -0.13293254938E+02 -0.22933178647E+02  0.21672923345E+02  0.34239860982E+02  0.10566000000E+00 0. -1.
         22    1    1    0    0    0  0.17885028335E+02 -0.27062153462E+02  0.66550121259E+01  0.33113797350E+02  0.00000000000E+00 0.  1.
</event>
<event>
 5    1  0.1724243E-003  0.9118800E+02  0.7818608E-02  0.1130116E+00
         25   -1    0    0    0    0  0.00000000000E+00  0.00000000000E+00  0.99999998245E-14  0.12500000000E+03  0.12500000000E+03 0.  0.
        -13    1    3    3    0    0 -0.22609009686E+02  0.45026593500E+02  0.17288179840E+02  0.53267755419E+02  0.10566000000E+00 0. -1.
         23    2    1    0    0    0 -0.25635976252E+02  0.11731942747E+02 -0.85703011197E+01  0.95533208178E+02  0.90875200382E+02 0.  0.
         13    1    3    3    0    0 -0.30269665653E+01 -0.33294650753E+02 -0.25858480959E+02  0.42265452759E+02  0.10566000000E+00 0.  1.
         22    1    1    0    0    0  0.25635976252E+02 -0.11731942747E+02  0.85703011197E+01  0.29466791822E+02  0.00000000000E+00 0. -1.
</event>
<event>
 5    1  0.1724243E-003  0.9118800E+02  0.7818608E-02  0.1130116E+00
         25   -1    0    0    0    0  0.00000000000E+00  0.00000000000E+00  0.99999998245E-14  0.12500000000E+03  0.12500000000E+03 0.  0.
        -13    1    3    3    0    0 -0.14313211884E+02 -0.18850972092E+02  0.23869966661E+02  0.33615675744E+02  0.10566000000E+00 0.  1.
         23    2    1    0    0    0 -0.14982262061E+01  0.20113499126E+02 -0.22002290816E+02  0.95152079972E+02  0.90349432721E+02 0.  0.
         13    1    3    3    0    0  0.12814985678E+02  0.38964471218E+02 -0.45872257478E+02  0.61536404228E+02  0.10566000000E+00 0. -1.
         22    1    1    0    0    0  0.14982262061E+01 -0.20113499126E+02  0.22002290816E+02  0.29847920028E+02  0.00000000000E+00 0. -1.
</event>
<event>
 5    1  0.1724243E-003  0.9118800E+02  0.7818608E-02  0.1130116E+00
         25   -1    0    0    0    0  0.00000000000E+00  0.00000000000E+00  0.99999998245E-14  0.12500000000E+03  0.12500000000E+03 0.  0.
        -13    1    3    3    0    0  0.14158613813E+02 -0.37274057921E+02  0.31811117795E+02  0.51007647647E+02  0.10566000000E+00 0.  1.
         23    2    1    0    0    0 -0.20579482161E+02 -0.15783388717E+02  0.13271571685E+02  0.95866427264E+02  0.91332397406E+02 0.  0.
         13    1    3    3    0    0 -0.34738095973E+02  0.21490669205E+02 -0.18539546111E+02  0.44858779617E+02  0.10566000000E+00 0. -1.
         22    1    1    0    0    0  0.20579482161E+02  0.15783388717E+02 -0.13271571685E+02  0.29133572736E+02  0.00000000000E+00 0.  1.
</event>
<event>
 5    1  0.1724243E-003  0.9118800E+02  0.7818608E-02  0.1130116E+00
         25   -1    0    0    0    0  0.00000000000E+00  0.00000000000E+00  0.99999998245E-14  0.12500000000E+03  0.12500000000E+03 0.  0.
        -13    1    3    3    0    0  0.48492259203E+02  0.17861280059E+02 -0.42597688988E-01  0.51677243604E+02  0.10566000000E+00 0. -1.
         23    2    1    0    0    0  0.93268873260E+01  0.19277226058E+02 -0.20035920796E+02  0.95673554702E+02  0.91068044206E+02 0.  0.
         13    1    3    3    0    0 -0.39165371877E+02  0.14159459989E+01 -0.19993323107E+02  0.43996311098E+02  0.10566000000E+00 0.  1.
         22    1    1    0    0    0 -0.93268873260E+01 -0.19277226058E+02  0.20035920796E+02  0.29326445298E+02  0.00000000000E+00 0.  1.
</event>
<event>
 5    1  0.1724243E-003  0.9118800E+02  0.7818608E-02  0.1130116E+00
         25   -1    0    0    0    0  0.00000000000E+00  0.00000000000E+00  0.99999998245E-14  0.12500000000E+03  0.12500000000E+03 0.  0.
        -13    1    3    3    0    0  0.19258917249E+02  0.62426610577E+01  0.24538033837E+02  0.31811994268E+02  0.10566000000E+00 0.  1.
         23    2    1    0    0    0 -0.21395483505E+02 -0.17988825248E+02 -0.14815057625E+02  0.93363778977E+02  0.87840450501E+02 0.  0.
         13    1    3    3    0    0 -0.40654400754E+02 -0.24231486306E+02 -0.39353091462E+02  0.61551784709E+02  0.10566000000E+00 0. -1.
         22    1    1    0    0    0  0.21395483505E+02  0.17988825248E+02  0.14815057625E+02  0.31636221023E+02  0.00000000000E+00 0. -1.
</event>
<event>
 4    1  0.1724243E-003  0.9118800E+02  0.7818608E-02  0.1130116E+00
         25   -1    0    0    0    0  0.00000000000E+00  0.00000000000E+00  0.99999998245E-14  0.12500000000E+03  0.12500000000E+03 0.  0.
        -13    1    1    0    0    0 -0.37093532497E+02 -0.43566686901E+02  0.17866784093E+02  0.59943469190E+02  0.10566000000E+00 0. -1.
         13    1    1    0    0    0  0.47152219088E+00  0.10902492692E+02  0.36033097572E+01  0.11492679641E+02  0.10566000000E+00 0.  1.
         22    1    1    0    0    0  0.36622010306E+02  0.32664194209E+02 -0.21470093850E+02  0.53563851169E+02  0.00000000000E+00 0. -1.
</event>
<event>
 5    1  0.1724243E-003  0.9118800E+02  0.7818608E-02  0.1130116E+00
         25   -1    0    0    0    0  0.00000000000E+00  0.00000000000E+00  0.99999998245E-14  0.12500000000E+03  0.12500000000E+03 0.  0.
        -13    1    3    3    0    0 -0.21472463243E+02  0.32790393843E+02  0.29512582497E+02  0.49064042799E+02  0.10566000000E+00 0. -1.
         23    2    1    0    0    0 -0.19113907068E+02  0.15987878783E+02 -0.14454983617E+02  0.96192010436E+02  0.91776917626E+02 0.  0.
         13    1    3    3    0    0  0.23585561748E+01 -0.16802515060E+02 -0.43967566114E+02  0.47127967637E+02  0.10566000000E+00 0.  1.
         22    1    1    0    0    0  0.19113907068E+02 -0.15987878783E+02  0.14454983617E+02  0.28807989564E+02  0.00000000000E+00 0.  1.
</event>
<event>
 5    1  0.1724243E-003  0.9118800E+02  0.7818608E-02  0.1130116E+00
         25   -1    0    0    0    0  0.00000000000E+00  0.00000000000E+00  0.99999998245E-14  0.12500000000E+03  0.12500000000E+03 0.  0.
        -13    1    3    3    0    0  0.20549920965E+02  0.38546791599E+02  0.13226607517E+02  0.45641085709E+02  0.10566000000E+00 0.  1.
         23    2    1    0    0    0  0.25393498753E+02 -0.11312860212E+02  0.83563652047E+01  0.95971747822E+02  0.91476428414E+02 0.  0.
         13    1    3    3    0    0  0.48435777877E+01 -0.49859651811E+02 -0.48702423126E+01  0.50330662113E+02  0.10566000000E+00 0. -1.
         22    1    1    0    0    0 -0.25393498753E+02  0.11312860212E+02 -0.83563652047E+01  0.29028252178E+02  0.00000000000E+00 0. -1.
</event>
<event>
 5    1  0.1724243E-003  0.9118800E+02  0.7818608E-02  0.1130116E+00
         25   -1    0    0    0    0  0.00000000000E+00  0.00000000000E+00  0.99999998245E-14  0.12500000000E+03  0.12500000000E+03 0.  0.
        -13    1    3    3    0    0  0.17705324921E+02  0.14494635771E+02  0.55597285712E+02  0.60121895672E+02  0.10566000000E+00 0. -1.
         23    2    1    0    0    0 -0.40535614622E+01  0.10519334148E+02  0.20395058133E+02  0.10169664943E+03  0.98990718545E+02 0.  0.
         13    1    3    3    0    0 -0.21758886384E+02 -0.39753016236E+01 -0.35202227578E+02  0.41574753760E+02  0.10566000000E+00 0.  1.
         22    1    1    0    0    0  0.40535614622E+01 -0.10519334148E+02 -0.20395058133E+02  0.23303350568E+02  0.00000000000E+00 0. -1.
</event>
<event>
 5    1  0.1724243E-003  0.9118800E+02  0.7818608E-02  0.1130116E+00
         25   -1    0    0    0    0  0.00000000000E+00  0.00000000000E+00  0.99999998245E-14  0.12500000000E+03  0.12500000000E+03 0.  0.
        -13    1    3    3    0    0 -0.21771832654E+02  0.97435657517E+01  0.34203834747E+02  0.41699679209E+02  0.10566000000E+00 0.  1.
         23    2    1    0    0    0 -0.11940928541E+02 -0.20096057427E+02 -0.12885588834E+02  0.98307759590E+02  0.94614691763E+02 0.  0.
         13    1    3    3    0    0  0.98309041135E+01 -0.29839623178E+02 -0.47089423582E+02  0.56608080381E+02  0.10566000000E+00 0. -1.
         22    1    1    0    0    0  0.11940928541E+02  0.20096057427E+02  0.12885588834E+02  0.26692240410E+02  0.00000000000E+00 0. -1.
</event>
<event>
 5    1  0.1724243E-003  0.9118800E+02  0.7818608E-02  0.1130116E+00
         25   -1    0    0    0    0  0.00000000000E+00  0.00000000000E+00  0.99999998245E-14  0.12500000000E+03  0.12500000000E+03 0.  0.
        -13    1    3    3    0    0  0.33116915643E+02  0.33589432134E+02 -0.34906030594E+02  0.58680679859E+02  0.10566000000E+00 0. -1.
         23    2    1    0    0    0 -0.26155538782E+01  0.12520421361E+02 -0.16656020596E+02  0.10399940250E+03  0.10185701068E+03 0.  0.
         13    1    3    3    0    0 -0.35732469522E+02 -0.21069010773E+02  0.18250009998E+02  0.45318722643E+02  0.10566000000E+00 0.  1.
         22    1    1    0    0    0  0.26155538782E+01 -0.12520421361E+02  0.16656020596E+02  0.21000597498E+02  0.00000000000E+00 0. -1.
</event>
<event>
 5    1  0.1724243E-003  0.9118800E+02  0.7818608E-02  0.1130116E+00
         25   -1    0    0    0    0  0.00000000000E+00  0.00000000000E+00  0.99999998245E-14  0.12500000000E+03  0.12500000000E+03 0.  0.
        -13    1    3    3    0    0 -0.11445381056E+02 -0.41434306731E+02  0.31423032555E+02  0.53246752584E+02  0.10566000000E+00 0.  1.
         23    2    1    0    0    0  0.52703671563E+00 -0.28995962704E+02 -0.68217198659E+01  0.95207727802E+02  0.90426389679E+02 0.  0.
         13    1    3    3    0    0  0.11972417771E+02  0.12438344028E+02 -0.38244752421E+02  0.41960975217E+02  0.10566000000E+00 0. -1.
         22    1    1    0    0    0 -0.52703671563E+00  0.28995962704E+02  0.68217198659E+01  0.29792272198E+02  0.00000000000E+00 0.  1.
</event>
<event>
 5    1  0.1724243E-003  0.9118800E+02  0.7818608E-02  0.1130116E+00
         25   -1    0    0    0    0  0.00000000000E+00  0.00000000000E+00  0.99999998245E-14  0.12500000000E+03  0.12500000000E+03 0.  0.
        -13    1    3    3    0    0 -0.46591278229E+01 -0.41251912560E+01  0.42645312466E+02  0.43097082434E+02  0.10566000000E+00 0. -1.
         23    2    1    0    0    0  0.17612547812E+02  0.22818261838E+02  0.28975086005E+01  0.96029834832E+02  0.91555768295E+02 0.  0.
         13    1    3    3    0    0  0.22271675635E+02  0.26943453094E+02 -0.39747803866E+02  0.52932752398E+02  0.10566000000E+00 0.  1.
         22    1    1    0    0    0 -0.17612547812E+02 -0.22818261838E+02 -0.28975086005E+01  0.28970165168E+02  0.00000000000E+00 0.  1.
</event>
<event>
 5    1  0.1724243E-003  0.9118800E+02  0.7818608E-02  0.1130116E+00
         25   -1    0    0    0    0  0.00000000000E+00  0.00000000000E+00  0.99999998245E-14  0.12500000000E+03  0.12500000000E+03 0.  0.
        -13    1    3    3    0    0 -0.39461855540E+01 -0.49185687564E+02 -0.14176815652E+02  0.51340018579E+02  0.10566000000E+00 0. -1.
         23    2    1    0    0    0 -0.19872298599E+02 -0.40574962829E+01 -0.15901764862E+02  0.99227191588E+02  0.95821698467E+02 0.  0.
         13    1    3    3    0    0 -0.15926113045E+02  0.45128191281E+02 -0.17249492103E+01  0.47887173010E+02  0.10566000000E+00 0.  1.
         22    1    1    0    0    0  0.19872298599E+02  0.40574962829E+01  0.15901764862E+02  0.25772808412E+02  0.00000000000E+00 0. -1.
</event>
<event>
 5    1  0.1724243E-003  0.9118800E+02  0.7818608E-02  0.1130116E+00
         25   -1    0    0    0    0  0.00000000000E+00  0.00000000000E+00  0.99999998245E-14  0.12500000000E+03  0.12500000000E+03 0.  0.
        -13    1    3    3    0    0 -0.22574450319E+02  0.25974466063E+02 -0.72706609394E+01  0.35173176839E+02  0.10566000000E+00 0.  1.
         23    2    1    0    0    0  0.21709243246E+02 -0.16580850815E+02  0.32706441252E+01  0.97487948658E+02  0.93525328999E+02 0.  0.
         13    1    3    3    0    0  0.44283693565E+02 -0.42555316878E+02  0.10541305065E+02  0.62314771819E+02  0.10566000000E+00 0. -1.
         22    1    1    0    0    0 -0.21709243246E+02  0.16580850815E+02 -0.32706441252E+01  0.27512051342E+02  0.00000000000E+00 0. -1.
</event>
<event>
 5    1  0.1724243E-003  0.9118800E+02  0.7818608E-02  0.1130116E+00
         25   -1    0    0    0    0  0.00000000000E+00  0.00000000000E+00  0.99999998245E-14  0.12500000000E+03  0.12500000000E+03 0.  0.
        -13    1    3    3    0    0 -0.10291260514E+02  0.40968036579E+02 -0.36854762653E+02  0.56058672463E+02  0.10566000000E+00 0.  1.
         23    2    1    0    0    0 -0.10876913524E+02  0.31319309249E+01 -0.27823565259E+02  0.94962240049E+02  0.90086403038E+02 0.  0.
         13    1    3    3    0    0 -0.58565301020E+00 -0.37836105654E+02  0.90311973931E+01  0.38903567586E+02  0.10566000000E+00 0. -1.
         22    1    1    0    0    0  0.10876913524E+02 -0.31319309249E+01  0.27823565259E+02  0.30037759951E+02  0.00000000000E+00 0.  1.
</event>
<event>
 5    1  0.1724243E-003  0.9118800E+02  0.7818608E-02  0.1130116E+00
         25   -1    0    0    0    0  0.00000000000E+00  0.00000000000E+00  0.99999998245E-14  0.12500000000E+03  0.12500000000E+03 0.  0.
        -13    1    3    3    0    0 -0.45025495916E+02 -0.25376700764E+02  0.24867411925E+01  0.51744248665E+02  0.10566000000E+00 0. -1.
         23    2    1    0    0    0 -0.10956601386E+02 -0.13147981955E+02  0.25244195787E+02  0.94501049783E+02  0.89444186204E+02 0.  0.
         13    1    3    3    0    0  0.34068894529E+02  0.12228718809E+02  0.22757454594E+02  0.42756801117E+02  0.10566000000E+00 0.  1.
         22    1    1    0    0    0  0.10956601386E+02  0.13147981955E+02 -0.25244195787E+02  0.30498950217E+02  0.00000000000E+00 0. -1.
</event>
<event>
 5    1  0.1724243E-003  0.9118800E+02  0.7818608E-02  0.1130116E+00
         25   -1    0    0    0    0  0.00000000000E+00  0.00000000000E+00  0.99999998245E-14  0.12500000000E+03  0.12500000000E+03 0.  0.
        -13    1    3    3    0    0  0.31582646043E+02 -0.30004349036E+02  0.42491522955E+02  0.60854458992E+02  0.10566000000E+00 0.  1.
         23    2    1    0    0    0  0.98616730374E+01 -0.78791833052E+01  0.26287810688E+02  0.95838670891E+02  0.91294401377E+02 0.  0.
         13    1    3    3    0    0 -0.21720973005E+02  0.22125165730E+02 -0.16203712267E+02  0.34984211899E+02  0.10566000000E+00 0. -1.
         22    1    1    0    0    0 -0.98616730374E+01  0.78791833052E+01 -0.26287810688E+02  0.29161329109E+02  0.00000000000E+00 0.  1.
</event>
<event>
 5    1  0.1724243E-003  0.9118800E+02  0.7818608E-02  0.1130116E+00
         25   -1    0    0    0    0  0.00000000000E+00  0.00000000000E+00  0.99999998245E-14  0.12500000000E+03  0.12500000000E+03 0.  0.
        -13    1    3    3    0    0  0.22661024117E+02  0.30925108689E+02  0.34389392409E+01  0.38493140020E+02  0.10566000000E+00 0. -1.
         23    2    1    0    0    0 -0.28762201184E+02  0.67420925741E+01  0.28378640971E+01  0.95322171545E+02  0.90584451680E+02 0.  0.
         13    1    3    3    0    0 -0.51423225300E+02 -0.24183016115E+02 -0.60107514379E+00  0.56829031525E+02  0.10566000000E+00 0.  1.
         22    1    1    0    0    0  0.28762201184E+02 -0.67420925741E+01 -0.28378640971E+01  0.29677828455E+02  0.00000000000E+00 0.  1.
</event>
<event>
 5    1  0.1724243E-003  0.9118800E+02  0.7818608E-02  0.1130116E+00
         25   -1    0    0    0    0  0.00000000000E+00  0.00000000000E+00  0.99999998245E-14  0.12500000000E+03  0.12500000000E+03 0.  0.
        -13    1    3    3    0    0  0.12653668616E+02 -0.37880316441E+02 -0.10659801858E+02  0.41336137251E+02  0.10566000000E+00 0. -1.
         23    2    1    0    0    0 -0.24226805939E+02  0.30593907832E+01 -0.14548748617E+02  0.96575290955E+02  0.92297468756E+02 0.  0.
         13    1    3    3    0    0 -0.36880474555E+02  0.40939707225E+02 -0.38889467587E+01  0.55239153704E+02  0.10566000000E+00 0.  1.
         22    1    1    0    0    0  0.24226805939E+02 -0.30593907832E+01  0.14548748617E+02  0.28424709045E+02  0.00000000000E+00 0.  1.
</event>
<event>
 5    1  0.1724243E-003  0.9118800E+02  0.7818608E-02  0.1130116E+00
         25   -1    0    0    0    0  0.00000000000E+00  0.00000000000E+00  0.99999998245E-14  0.12500000000E+03  0.12500000000E+03 0.  0.
        -13    1    3    3    0    0  0.12589452469E+02 -0.45722635832E+02  0.35716903657E+02  0.59369707021E+02  0.10566000000E+00 0. -1.
         23    2    1    0    0    0  0.18467881947E+02 -0.15902231883E+02  0.12543894158E+02  0.97590276850E+02  0.93661994494E+02 0.  0.
         13    1    3    3    0    0  0.58784294788E+01  0.29820403949E+02 -0.23173009499E+02  0.38220569829E+02  0.10566000000E+00 0.  1.
         22    1    1    0    0    0 -0.18467881947E+02  0.15902231883E+02 -0.12543894158E+02  0.27409723150E+02  0.00000000000E+00 0. -1.
</event>
<event>
 5    1  0.1724243E-003  0.9118800E+02  0.7818608E-02  0.1130116E+00
         25   -1    0    0    0    0  0.00000000000E+00  0.00000000000E+00  0.99999998245E-14  0.12500000000E+03  0.12500000000E+03 0.  0.
        -13    1    3    3    0    0  0.10013504751E+02 -0.47075913041E+02  0.18108069548E+02  0.51423002760E+02  0.10566000000E+00 0. -1.
         23    2    1    0    0    0  0.27077524689E+02 -0.96408877102E+01  0.29195220990E+00  0.96255882424E+02  0.91863869971E+02 0.  0.
         13    1    3    3    0    0  0.17064019938E+02  0.37435025331E+02 -0.17816117338E+02  0.44832879664E+02  0.10566000000E+00 0.  1.
         22    1    1    0    0    0 -0.27077524689E+02  0.96408877102E+01 -0.29195220990E+00  0.28744117576E+02  0.00000000000E+00 0. -1.
</event>
<event>
 5    1  0.1724243E-003  0.9118800E+02  0.7818608E-02  0.1130116E+00
         25   -1    0    0    0    0  0.00000000000E+00  0.00000000000E+00  0.99999998245E-14  0.12500000000E+03  0.12500000000E+03 0.  0.
        -13    1    3    3    0    0  0.50743982674E+02  0.28845188433E+02  0.22023057748E+02  0.62386079456E+02  0.10566000000E+00 0.  1.
         23    2    1    0    0    0  0.22030881857E+02  0.14650718850E+02  0.12002902849E+02  0.95947065638E+02  0.91442694676E+02 0.  0.
         13    1    3    3    0    0 -0.28713100817E+02 -0.14194469582E+02 -0.10020154899E+02  0.33560986182E+02  0.10566000000E+00 0. -1.
         22    1    1    0    0    0 -0.22030881857E+02 -0.14650718850E+02 -0.12002902849E+02  0.29052934362E+02  0.00000000000E+00 0.  1.
</event>
<event>
 5    1  0.1724243E-003  0.9118800E+02  0.7818608E-02  0.1130116E+00
         25   -1    0    0    0    0  0.00000000000E+00  0.00000000000E+00  0.99999998245E-14  0.12500000000E+03  0.12500000000E+03 0.  0.
        -13    1    3    3    0    0  0.77049388022E+01 -0.15781981521E+02  0.34929931816E+02  0.39096653608E+02  0.10566000000E+00 0. -1.
         23    2    1    0    0    0 -0.30935977366E+02  0.53558241977E+01  0.30749462933E+01  0.93453608081E+02  0.87968187547E+02 0.  0.
         13    1    3    3    0    0 -0.38640916168E+02  0.21137805719E+02 -0.31854985522E+02  0.54356954473E+02  0.10566000000E+00 0.  1.
         22    1    1    0    0    0  0.30935977366E+02 -0.53558241977E+01 -0.30749462933E+01  0.31546391919E+02  0.00000000000E+00 0.  1.
</event>
<event>
 5    1  0.1724243E-003  0.9118800E+02  0.7818608E-02  0.1130116E+00
         25   -1    0    0    0    0  0.00000000000E+00  0.00000000000E+00  0.99999998245E-14  0.12500000000E+03  0.12500000000E+03 0.  0.
        -13    1    3    3    0    0 -0.20283482649E+02 -0.17997855993E+02 -0.19908922836E+02  0.33641029431E+02  0.10566000000E+00 0.  1.
         23    2    1    0    0    0  0.26463959686E+02  0.44126898983E+01  0.13144732245E+02  0.95123638438E+02  0.90310074795E+02 0.  0.
         13    1    3    3    0    0  0.46747442335E+02  0.22410545891E+02  0.33053655080E+02  0.61482609006E+02  0.10566000000E+00 0. -1.
         22    1    1    0    0    0 -0.26463959686E+02 -0.44126898983E+01 -0.13144732245E+02  0.29876361562E+02  0.00000000000E+00 0. -1.
</event>
<event>
 5    1  0.1724243E-003  0.9118800E+02  0.7818608E-02  0.1130116E+00
         25   -1    0    0    0    0  0.00000000000E+00  0.00000000000E+00  0.99999998245E-14  0.12500000000E+03  0.12500000000E+03 0.  0.
        -13    1    3    3    0    0  0.21230490556E+02 -0.31461563103E+02 -0.22384100179E+02  0.44063848980E+02  0.10566000000E+00 0.  1.
         23    2    1    0    0    0 -0.20981238050E+02 -0.97314496290E+00 -0.19699001848E+02  0.96203992724E+02  0.91793236031E+02 0.  0.
         13    1    3    3    0    0 -0.42211728605E+02  0.30488418140E+02  0.26850983304E+01  0.52140143744E+02  0.10566000000E+00 0. -1.
         22    1    1    0    0    0  0.20981238050E+02  0.97314496290E+00  0.19699001848E+02  0.28796007276E+02  0.00000000000E+00 0. -1.
</event>
<event>
 5    1  0.1724243E-003  0.9118800E+02  0.7818608E-02  0.1130116E+00
         25   -1    0    0    0    0  0.00000000000E+00  0.00000000000E+00  0.99999998245E-14  0.12500000000E+03  0.12500000000E+03 0.  0.
        -13    1    3    3    0    0 -0.30917361718E+02  0.33717826733E+02 -0.10306709724E+02  0.46893651218E+02  0.10566000000E+00 0. -1.
         23    2    1    0    0    0  0.14716986517E+02  0.25636104485E+02  0.34559641828E+01  0.95238561296E+02  0.90469002006E+02 0.  0.
         13    1    3    3    0    0  0.45634348235E+02 -0.80817222479E+01  0.13762673906E+02  0.48344910078E+02  0.10566000000E+00 0.  1.
         22    1    1    0    0    0 -0.14716986517E+02 -0.25636104485E+02 -0.34559641828E+01  0.29761438704E+02  0.00000000000E+00 0.  1.
</event>
<event>
 5    1  0.1724243E-003  0.9118800E+02  0.7818608E-02  0.1130116E+00
         25   -1    0    0    0    0  0.00000000000E+00  0.00000000000E+00  0.99999998245E-14  0.12500000000E+03  0.12500000000E+03 0.  0.
        -13    1    3    3    0    0  0.21520399236E+02  0.37638514321E+02  0.32352643081E+02  0.54097042636E+02  0.10566000000E+00 0.  1.
         23    2    1    0    0    0  0.26954124212E+02  0.33136315159E+01  0.74849909951E+01  0.96830334471E+02  0.92642234524E+02 0.  0.
         13    1    3    3    0    0  0.54337249756E+01 -0.34324882805E+02 -0.24867652086E+02  0.42733291835E+02  0.10566000000E+00 0. -1.
         22    1    1    0    0    0 -0.26954124212E+02 -0.33136315159E+01 -0.74849909951E+01  0.28169665529E+02  0.00000000000E+00 0.  1.
</event>
<event>
 5    1  0.1724243E-003  0.9118800E+02  0.7818608E-02  0.1130116E+00
         25   -1    0    0    0    0  0.00000000000E+00  0.00000000000E+00  0.99999998245E-14  0.12500000000E+03  0.12500000000E+03 0.  0.
        -13    1    3    3    0    0  0.30185638180E+02  0.51293376692E+02 -0.17702442404E+02  0.62093243400E+02  0.10566000000E+00 0. -1.
         23    2    1    0    0    0  0.18495379677E+02  0.21781968252E+02 -0.96248075195E+01  0.94847551838E+02  0.89927125827E+02 0.  0.
         13    1    3    3    0    0 -0.11690258503E+02 -0.29511408439E+02  0.80776348842E+01  0.32754308439E+02  0.10566000000E+00 0.  1.
         22    1    1    0    0    0 -0.18495379677E+02 -0.21781968252E+02  0.96248075195E+01  0.30152448162E+02  0.00000000000E+00 0. -1.
</event>
<event>
 5    1  0.1724243E-003  0.9118800E+02  0.7818608E-02  0.1130116E+00
         25   -1    0    0    0    0  0.00000000000E+00  0.00000000000E+00  0.99999998245E-14  0.12500000000E+03  0.12500000000E+03 0.  0.
        -13    1    3    3    0    0 -0.33706853538E+02  0.28928773174E+02  0.42411424508E+01  0.44620895846E+02  0.10566000000E+00 0. -1.
         23    2    1    0    0    0  0.41070804221E+01  0.11820643130E+02 -0.26115003504E+02  0.96041596701E+02  0.91571825226E+02 0.  0.
         13    1    3    3    0    0  0.37813933960E+02 -0.17108130044E+02 -0.30356145955E+02  0.51420700855E+02  0.10566000000E+00 0.  1.
         22    1    1    0    0    0 -0.41070804221E+01 -0.11820643130E+02  0.26115003504E+02  0.28958403299E+02  0.00000000000E+00 0.  1.
</event>
<event>
 5    1  0.1724243E-003  0.9118800E+02  0.7818608E-02  0.1130116E+00
         25   -1    0    0    0    0  0.00000000000E+00  0.00000000000E+00  0.99999998245E-14  0.12500000000E+03  0.12500000000E+03 0.  0.
        -13    1    3    3    0    0  0.56979608601E+02 -0.67968153232E+01  0.30008876123E+01  0.57462065621E+02  0.10566000000E+00 0.  1.
         23    2    1    0    0    0  0.18380017765E+02 -0.51354115252E+01  0.17865676681E+02  0.98858463935E+02  0.95339477572E+02 0.  0.
         13    1    3    3    0    0 -0.38599590836E+02  0.16614037979E+01  0.14864789069E+02  0.41396398314E+02  0.10566000000E+00 0. -1.
         22    1    1    0    0    0 -0.18380017765E+02  0.51354115252E+01 -0.17865676681E+02  0.26141536065E+02  0.00000000000E+00 0.  1.
</event>
<event>
 5    1  0.1724243E-003  0.9118800E+02  0.7818608E-02  0.1130116E+00
         25   -1    0    0    0    0  0.00000000000E+00  0.00000000000E+00  0.99999998245E-14  0.12500000000E+03  0.12500000000E+03 0.  0.
        -13    1    3    3    0    0  0.34524923037E+02  0.24124698597E+01 -0.39752302479E+02  0.52707182034E+02  0.10566000000E+00 0.  1.
         23    2    1    0    0    0 -0.83471656344E+01 -0.70904440638E+01 -0.22665423768E+02  0.99827177239E+02  0.96601212776E+02 0.  0.
         13    1    3    3    0    0 -0.42872088671E+02 -0.95029139235E+01  0.17086878711E+02  0.47119995206E+02  0.10566000000E+00 0. -1.
         22    1    1    0    0    0  0.83471656344E+01  0.70904440638E+01  0.22665423768E+02  0.25172822761E+02  0.00000000000E+00 0. -1.
</event>
<event>
 5    1  0.1724243E-003  0.9118800E+02  0.7818608E-02  0.1130116E+00
         25   -1    0    0    0    0  0.00000000000E+00  0.00000000000E+00  0.99999998245E-14  0.12500000000E+03  0.12500000000E+03 0.  0.
        -13    1    3    3    0    0  0.30756440087E+02  0.35361970798E+02  0.10460001550E+02  0.48019270944E+02  0.10566000000E+00 0.  1.
         23    2    1    0    0    0  0.96074976967E+01  0.11649307339E+02 -0.25100806563E+02  0.95707324063E+02  0.91114384241E+02 0.  0.
         13    1    3    3    0    0 -0.21148942390E+02 -0.23712663459E+02 -0.35560808113E+02  0.47688053119E+02  0.10566000000E+00 0. -1.
         22    1    1    0    0    0 -0.96074976967E+01 -0.11649307339E+02  0.25100806563E+02  0.29292675937E+02  0.00000000000E+00 0.  1.
</event>
<event>
 5    1  0.1724243E-003  0.9118800E+02  0.7818608E-02  0.1130116E+00
         25   -1    0    0    0    0  0.00000000000E+00  0.00000000000E+00  0.99999998245E-14  0.12500000000E+03  0.12500000000E+03 0.  0.
        -13    1    3    3    0    0  0.37013334605E+02 -0.40542932550E+02  0.15419718697E+02  0.57021883581E+02  0.10566000000E+00 0. -1.
         23    2    1    0    0    0  0.15909503646E+02 -0.23934818790E+02 -0.10554492810E+02  0.94383253353E+02  0.89279411615E+02 0.  0.
         13    1    3    3    0    0 -0.21103830958E+02  0.16608113761E+02 -0.25974211507E+02  0.37361369772E+02  0.10566000000E+00 0.  1.
         22    1    1    0    0    0 -0.15909503646E+02  0.23934818790E+02  0.10554492810E+02  0.30616746647E+02  0.00000000000E+00 0. -1.
</event>
<event>
 5    1  0.1724243E-003  0.9118800E+02  0.7818608E-02  0.1130116E+00
         25   -1    0    0    0    0  0.00000000000E+00  0.00000000000E+00  0.99999998245E-14  0.12500000000E+03  0.12500000000E+03 0.  0.
        -13    1    3    3    0    0 -0.35429471165E+02  0.26207048119E+02  0.16903439509E+01  0.44101306385E+02  0.10566000000E+00 0.  1.
         23    2    1    0    0    0 -0.19693377721E+02 -0.14527639252E+02  0.21844652247E+02  0.92196490125E+02  0.86163347957E+02 0.  0.
         13    1    3    3    0    0  0.15736093443E+02 -0.40734687371E+02  0.20154308296E+02  0.48095183740E+02  0.10566000000E+00 0. -1.
         22    1    1    0    0    0  0.19693377721E+02  0.14527639252E+02 -0.21844652247E+02  0.32803509875E+02  0.00000000000E+00 0.  1.
</event>
<event>
 5    1  0.1724243E-003  0.9118800E+02  0.7818608E-02  0.1130116E+00
         25   -1    0    0    0    0  0.00000000000E+00  0.00000000000E+00  0.99999998245E-14  0.12500000000E+03  0.12500000000E+03 0.  0.
        -13    1    3    3    0    0 -0.39551402748E+02  0.41910835513E+01  0.29287855976E+02  0.49392998616E+02  0.10566000000E+00 0. -1.
         23    2    1    0    0    0  0.71529874431E+01 -0.36605327694E+01  0.27023726449E+02  0.96806977446E+02  0.92610714076E+02 0.  0.
         13    1    3    3    0    0  0.46704390191E+02 -0.78516163207E+01 -0.22641295266E+01  0.47413978830E+02  0.10566000000E+00 0.  1.
         22    1    1    0    0    0 -0.71529874431E+01  0.36605327694E+01 -0.27023726449E+02  0.28193022554E+02  0.00000000000E+00 0.  1.
</event>
<event>
 5    1  0.1724243E-003  0.9118800E+02  0.7818608E-02  0.1130116E+00
         25   -1    0    0    0    0  0.00000000000E+00  0.00000000000E+00  0.99999998245E-14  0.12500000000E+03  0.12500000000E+03 0.  0.
        -13    1    3    3    0    0  0.15460410573E+02 -0.66048721977E+01  0.41569226014E+02  0.44840387457E+02  0.10566000000E+00 0.  1.
         23    2    1    0    0    0 -0.16379420213E+02 -0.24060378500E+02  0.68079589287E+01  0.95107935420E+02  0.90288337314E+02 0.  0.
         13    1    3    3    0    0 -0.31839830786E+02 -0.17455506303E+02 -0.34761267085E+02  0.50267547963E+02  0.10566000000E+00 0. -1.
         22    1    1    0    0    0  0.16379420213E+02  0.24060378500E+02 -0.68079589287E+01  0.29892064580E+02  0.00000000000E+00 0. -1.
</event>
<event>
 5    1  0.1724243E-003  0.9118800E+02  0.7818608E-02  0.1130116E+00
         25   -1    0    0    0    0  0.00000000000E+00  0.00000000000E+00  0.99999998245E-14  0.12500000000E+03  0.12500000000E+03 0.  0.
        -13    1    3    3    0    0  0.26358468166E+02  0.20068863507E+02  0.22676441970E+01  0.33206648443E+02  0.10566000000E+00 0. -1.
         23    2    1    0    0    0 -0.20757692774E+02 -0.20728726343E+02  0.27763692245E+01  0.95533576207E+02  0.90875706609E+02 0.  0.
         13    1    3    3    0    0 -0.47116160941E+02 -0.40797589850E+02  0.50872502751E+00  0.62326927764E+02  0.10566000000E+00 0.  1.
         22    1    1    0    0    0  0.20757692774E+02  0.20728726343E+02 -0.27763692245E+01  0.29466423793E+02  0.00000000000E+00 0.  1.
</event>
<event>
 5    1  0.1724243E-003  0.9118800E+02  0.7818608E-02  0.1130116E+00
         25   -1    0    0    0    0  0.00000000000E+00  0.00000000000E+00  0.99999998245E-14  0.12500000000E+03  0.12500000000E+03 0.  0.
        -13    1    3    3    0    0  0.61534925904E+02 -0.24571912152E+01 -0.32699602387E+01  0.61670809129E+02  0.10566000000E+00 0. -1.
         23    2    1    0    0    0  0.27402264823E+02 -0.67981755087E+01 -0.58217651597E+01  0.96173063686E+02  0.91751108558E+02 0.  0.
         13    1    3    3    0    0 -0.34132661081E+02 -0.43409842936E+01 -0.25518049210E+01  0.34502254557E+02  0.10566000000E+00 0.  1.
         22    1    1    0    0    0 -0.27402264823E+02  0.67981755087E+01  0.58217651597E+01  0.28826936314E+02  0.00000000000E+00 0. -1.
</event>
<event>
 5    1  0.1724243E-003  0.9118800E+02  0.7818608E-02  0.1130116E+00
         25   -1    0    0    0    0  0.00000000000E+00  0.00000000000E+00  0.99999998245E-14  0.12500000000E+03  0.12500000000E+03 0.  0.
        -13    1    3    3    0    0  0.10520798706E+02 -0.91612235256E+01  0.30966724372E+02  0.33964163529E+02  0.10566000000E+00 0.  1.
         23    2    1    0    0    0 -0.17124982338E+02  0.14687283036E+02 -0.18762255806E+02  0.95657138075E+02  0.91045507954E+02 0.  0.
         13    1    3    3    0    0 -0.27645781043E+02  0.23848506561E+02 -0.49728980178E+02  0.61692974545E+02  0.10566000000E+00 0. -1.
         22    1    1    0    0    0  0.17124982338E+02 -0.14687283036E+02  0.18762255806E+02  0.29342861925E+02  0.00000000000E+00 0. -1.
</event>
<event>
 5    1  0.1724243E-003  0.9118800E+02  0.7818608E-02  0.1130116E+00
         25   -1    0    0    0    0  0.00000000000E+00  0.00000000000E+00  0.99999998245E-14  0.12500000000E+03  0.12500000000E+03 0.  0.
        -13    1    3    3    0    0  0.96962773917E+01 -0.20623059768E+02  0.17150550831E+02  0.28521587391E+02  0.10566000000E+00 0.  1.
         23    2    1    0    0    0 -0.10430873563E+02 -0.97370301543E+01 -0.35938573463E+02  0.86332262258E+02  0.77188506687E+02 0.  0.
         13    1    3    3    0    0 -0.20127150955E+02  0.10886029614E+02 -0.53089124293E+02  0.57810674867E+02  0.10566000000E+00 0. -1.
         22    1    1    0    0    0  0.10430873563E+02  0.97370301543E+01  0.35938573463E+02  0.38667737742E+02  0.00000000000E+00 0. -1.
</event>
<event>
 4    1  0.1724243E-003  0.9118800E+02  0.7818608E-02  0.1130116E+00
         25   -1    0    0    0    0  0.00000000000E+00  0.00000000000E+00  0.99999998245E-14  0.12500000000E+03  0.12500000000E+03 0.  0.
        -13    1    1    0    0    0  0.46427857832E+01  0.11316268906E+02  0.47372089122E+01  0.13117382136E+02  0.10566000000E+00 0. -1.
         13    1    1    0    0    0 -0.21468403918E+02 -0.43309238353E+02  0.33847663791E+02  0.59010660068E+02  0.10566000000E+00 0.  1.
         22    1    1    0    0    0  0.16825618135E+02  0.31992969447E+02 -0.38584872703E+02  0.52871957796E+02  0.00000000000E+00 0.  1.
</event>
<event>
 5    1  0.1724243E-003  0.9118800E+02  0.7818608E-02  0.1130116E+00
         25   -1    0    0    0    0  0.00000000000E+00  0.00000000000E+00  0.99999998245E-14  0.12500000000E+03  0.12500000000E+03 0.  0.
        -13    1    3    3    0    0  0.31287894556E+02  0.87867297020E+01  0.25367145550E+02  0.41226717090E+02  0.10566000000E+00 0.  1.
         23    2    1    0    0    0 -0.22940496141E+02  0.69878932614E+01  0.15692366385E+02  0.96340841286E+02  0.91979401616E+02 0.  0.
         13    1    3    3    0    0 -0.54228390696E+02 -0.17988364406E+01 -0.96747791649E+01  0.55114124197E+02  0.10566000000E+00 0. -1.
         22    1    1    0    0    0  0.22940496141E+02 -0.69878932614E+01 -0.15692366385E+02  0.28659158714E+02  0.00000000000E+00 0. -1.
</event>
<event>
 5    1  0.1724243E-003  0.9118800E+02  0.7818608E-02  0.1130116E+00
         25   -1    0    0    0    0  0.00000000000E+00  0.00000000000E+00  0.99999998245E-14  0.12500000000E+03  0.12500000000E+03 0.  0.
        -13    1    3    3    0    0  0.29125014245E+02  0.29638379549E+02 -0.43729447381E+02  0.60323923358E+02  0.10566000000E+00 0. -1.
         23    2    1    0    0    0  0.21800626236E+01  0.11186357082E+02 -0.23877770105E+02  0.98541822380E+02  0.94923419634E+02 0.  0.
         13    1    3    3    0    0 -0.26944951621E+02 -0.18452022467E+02  0.19851677276E+02  0.38217899022E+02  0.10566000000E+00 0.  1.
         22    1    1    0    0    0 -0.21800626236E+01 -0.11186357082E+02  0.23877770105E+02  0.26458177620E+02  0.00000000000E+00 0. -1.
</event>
<event>
 5    1  0.1724243E-003  0.9118800E+02  0.7818608E-02  0.1130116E+00
         25   -1    0    0    0    0  0.00000000000E+00  0.00000000000E+00  0.99999998245E-14  0.12500000000E+03  0.12500000000E+03 0.  0.
        -13    1    3    3    0    0  0.89887147479E+01  0.20585355743E+01 -0.60780770682E+02  0.61476400433E+02  0.10566000000E+00 0.  1.
         23    2    1    0    0    0 -0.38758545592E+01 -0.56215224243E-01 -0.27640700179E+02  0.97088824548E+02  0.92990355076E+02 0.  0.
         13    1    3    3    0    0 -0.12864569307E+02 -0.21147507985E+01  0.33140070503E+02  0.35612424115E+02  0.10566000000E+00 0. -1.
         22    1    1    0    0    0  0.38758545592E+01  0.56215224243E-01  0.27640700179E+02  0.27911175452E+02  0.00000000000E+00 0.  1.
</event>
<event>
 5    1  0.1724243E-003  0.9118800E+02  0.7818608E-02  0.1130116E+00
         25   -1    0    0    0    0  0.00000000000E+00  0.00000000000E+00  0.99999998245E-14  0.12500000000E+03  0.12500000000E+03 0.  0.
        -13    1    3    3    0    0  0.28068357536E+02 -0.19546252136E+02  0.15360022486E+01  0.34238270024E+02  0.10566000000E+00 0.  1.
         23    2    1    0    0    0 -0.21039835754E+02  0.18975327355E+02  0.21024148383E+00  0.96666593246E+02  0.92421038252E+02 0.  0.
         13    1    3    3    0    0 -0.49108193290E+02  0.38521579491E+02 -0.13257607648E+01  0.62428323222E+02  0.10566000000E+00 0. -1.
         22    1    1    0    0    0  0.21039835754E+02 -0.18975327355E+02 -0.21024148383E+00  0.28333406754E+02  0.00000000000E+00 0. -1.
</event>
<event>
 5    1  0.1724243E-003  0.9118800E+02  0.7818608E-02  0.1130116E+00
         25   -1    0    0    0    0  0.00000000000E+00  0.00000000000E+00  0.99999998245E-14  0.12500000000E+03  0.12500000000E+03 0.  0.
        -13    1    3    3    0    0  0.42988109996E+02 -0.18758889695E+02 -0.36662836971E+02  0.59531910120E+02  0.10566000000E+00 0. -1.
         23    2    1    0    0    0  0.35329243153E+02 -0.13961227899E+02 -0.13020773572E+02  0.84842661310E+02  0.74737308806E+02 0.  0.
         13    1    3    3    0    0 -0.76588668433E+01  0.47976617964E+01  0.23642063399E+02  0.25310751191E+02  0.10566000000E+00 0.  1.
         22    1    1    0    0    0 -0.35329243153E+02  0.13961227899E+02  0.13020773572E+02  0.40157338690E+02  0.00000000000E+00 0. -1.
</event>
<event>
 5    1  0.1724243E-003  0.9118800E+02  0.7818608E-02  0.1130116E+00
         25   -1    0    0    0    0  0.00000000000E+00  0.00000000000E+00  0.99999998245E-14  0.12500000000E+03  0.12500000000E+03 0.  0.
        -13    1    3    3    0    0 -0.34136196154E+02  0.22815128446E+02 -0.34417563477E+02  0.53576019016E+02  0.10566000000E+00 0.  1.
         23    2    1    0    0    0  0.76640146061E+00 -0.14006149590E+01 -0.28486606099E+02  0.96468687018E+02  0.92152980171E+02 0.  0.
         13    1    3    3    0    0  0.34902597614E+02 -0.24215743405E+02  0.59309573779E+01  0.42892668002E+02  0.10566000000E+00 0. -1.
         22    1    1    0    0    0 -0.76640146061E+00  0.14006149590E+01  0.28486606099E+02  0.28531312982E+02  0.00000000000E+00 0.  1.
</event>
<event>
 5    1  0.1724243E-003  0.9118800E+02  0.7818608E-02  0.1130116E+00
         25   -1    0    0    0    0  0.00000000000E+00  0.00000000000E+00  0.99999998245E-14  0.12500000000E+03  0.12500000000E+03 0.  0.
        -13    1    3    3    0    0 -0.31955189481E+02  0.13591443379E+01  0.38906012260E+02  0.50365368679E+02  0.10566000000E+00 0. -1.
         23    2    1    0    0    0 -0.30495433466E+02  0.45286662546E+01 -0.44402827873E+01  0.93852024278E+02  0.88532514194E+02 0.  0.
         13    1    3    3    0    0  0.14597560151E+01  0.31695219167E+01 -0.43346295048E+02  0.43486655599E+02  0.10566000000E+00 0.  1.
         22    1    1    0    0    0  0.30495433466E+02 -0.45286662546E+01  0.44402827873E+01  0.31147975722E+02  0.00000000000E+00 0. -1.
</event>
<event>
 5    1  0.1724243E-003  0.9118800E+02  0.7818608E-02  0.1130116E+00
         25   -1    0    0    0    0  0.00000000000E+00  0.00000000000E+00  0.99999998245E-14  0.12500000000E+03  0.12500000000E+03 0.  0.
        -13    1    3    3    0    0  0.65759970189E+01  0.32440520773E+02  0.11527431792E+02  0.35050306312E+02  0.10566000000E+00 0. -1.
         23    2    1    0    0    0 -0.22200447220E+02 -0.14719607703E+02 -0.12837508295E+02  0.95430956611E+02  0.90734443034E+02 0.  0.
         13    1    3    3    0    0 -0.28776444239E+02 -0.47160128477E+02 -0.24364940087E+02  0.60380650298E+02  0.10566000000E+00 0.  1.
         22    1    1    0    0    0  0.22200447220E+02  0.14719607703E+02  0.12837508295E+02  0.29569043389E+02  0.00000000000E+00 0.  1.
</event>
<event>
 5    1  0.1724243E-003  0.9118800E+02  0.7818608E-02  0.1130116E+00
         25   -1    0    0    0    0  0.00000000000E+00  0.00000000000E+00  0.99999998245E-14  0.12500000000E+03  0.12500000000E+03 0.  0.
        -13    1    3    3    0    0 -0.24661846063E+02  0.28746035182E+02  0.84918756711E+01  0.38815773937E+02  0.10566000000E+00 0.  1.
         23    2    1    0    0    0  0.14131945936E+02  0.11506482223E+01 -0.24468915016E+02  0.96719906483E+02  0.92493116613E+02 0.  0.
         13    1    3    3    0    0  0.38793791999E+02 -0.27595386960E+02 -0.32960790687E+02  0.57904132546E+02  0.10566000000E+00 0. -1.
         22    1    1    0    0    0 -0.14131945936E+02 -0.11506482223E+01  0.24468915016E+02  0.28280093517E+02  0.00000000000E+00 0. -1.
</event>
<event>
 5    1  0.1724243E-003  0.9118800E+02  0.7818608E-02  0.1130116E+00
         25   -1    0    0    0    0  0.00000000000E+00  0.00000000000E+00  0.99999998245E-14  0.12500000000E+03  0.12500000000E+03 0.  0.
        -13    1    3    3    0    0  0.84867886147E+01 -0.22711713805E+01 -0.36259024070E+02  0.37308334069E+02  0.10566000000E+00 0.  1.
         23    2    1    0    0    0  0.81355752474E+01 -0.12675140804E+02  0.23017834457E+02  0.97492410464E+02  0.93531292175E+02 0.  0.
         13    1    3    3    0    0 -0.35121336731E+00 -0.10403969423E+02  0.59276858527E+02  0.60184076395E+02  0.10566000000E+00 0. -1.
         22    1    1    0    0    0 -0.81355752474E+01  0.12675140804E+02 -0.23017834457E+02  0.27507589536E+02  0.00000000000E+00 0. -1.
</event>
<event>
 5    1  0.1724243E-003  0.9118800E+02  0.7818608E-02  0.1130116E+00
         25   -1    0    0    0    0  0.00000000000E+00  0.00000000000E+00  0.99999998245E-14  0.12500000000E+03  0.12500000000E+03 0.  0.
        -13    1    3    3    0    0 -0.10656177120E+02  0.46490238932E+02  0.13928342936E+02  0.49688090401E+02  0.10566000000E+00 0. -1.
         23    2    1    0    0    0 -0.15121934510E+02  0.27719029602E+01  0.25582759111E+02  0.95153159077E+02  0.90350925669E+02 0.  0.
         13    1    3    3    0    0 -0.44657573905E+01 -0.43718335972E+02  0.11654416175E+02  0.45465068675E+02  0.10566000000E+00 0.  1.
         22    1    1    0    0    0  0.15121934510E+02 -0.27719029602E+01 -0.25582759111E+02  0.29846840923E+02  0.00000000000E+00 0. -1.
</event>
<event>
 5    1  0.1724243E-003  0.9118800E+02  0.7818608E-02  0.1130116E+00
         25   -1    0    0    0    0  0.00000000000E+00  0.00000000000E+00  0.99999998245E-14  0.12500000000E+03  0.12500000000E+03 0.  0.
        -13    1    3    3    0    0 -0.72593574217E+01  0.34747424513E+02  0.11870869714E+02  0.37430074703E+02  0.10566000000E+00 0.  1.
         23    2    1    0    0    0  0.23196101504E+02 -0.15010594122E+02  0.93798275935E+01  0.95821956430E+02  0.91271513122E+02 0.  0.
         13    1    3    3    0    0  0.30455458926E+02 -0.49758018634E+02 -0.24910421205E+01  0.58391881728E+02  0.10566000000E+00 0. -1.
         22    1    1    0    0    0 -0.23196101504E+02  0.15010594122E+02 -0.93798275935E+01  0.29178043570E+02  0.00000000000E+00 0. -1.
</event>
<event>
 5    1  0.1724243E-003  0.9118800E+02  0.7818608E-02  0.1130116E+00
         25   -1    0    0    0    0  0.00000000000E+00  0.00000000000E+00  0.99999998245E-14  0.12500000000E+03  0.12500000000E+03 0.  0.
        -13    1    3    3    0    0  0.33686550934E+02 -0.31282190009E+02 -0.27513001083E+02  0.53575512300E+02  0.10566000000E+00 0. -1.
         23    2    1    0    0    0  0.23732006685E+02 -0.13948633852E+02  0.96967639107E+01  0.95814391252E+02  0.91261151719E+02 0.  0.
         13    1    3    3    0    0 -0.99545442487E+01  0.17333556157E+02  0.37209764994E+02  0.42238878953E+02  0.10566000000E+00 0.  1.
         22    1    1    0    0    0 -0.23732006685E+02  0.13948633852E+02 -0.96967639107E+01  0.29185608748E+02  0.00000000000E+00 0.  1.
</event>
<event>
 5    1  0.1724243E-003  0.9118800E+02  0.7818608E-02  0.1130116E+00
         25   -1    0    0    0    0  0.00000000000E+00  0.00000000000E+00  0.99999998245E-14  0.12500000000E+03  0.12500000000E+03 0.  0.
        -13    1    3    3    0    0 -0.41828908908E+02  0.30721621853E+02 -0.23385413875E+02  0.56924198860E+02  0.10566000000E+00 0.  1.
         23    2    1    0    0    0 -0.31797717766E+01  0.23795286532E+02 -0.13672746657E+02  0.97372647415E+02  0.93371097530E+02 0.  0.
         13    1    3    3    0    0  0.38649137132E+02 -0.69263353211E+01  0.97126672183E+01  0.40448448555E+02  0.10566000000E+00 0. -1.
         22    1    1    0    0    0  0.31797717766E+01 -0.23795286532E+02  0.13672746657E+02  0.27627352585E+02  0.00000000000E+00 0. -1.
</event>
<event>
 5    1  0.1724243E-003  0.9118800E+02  0.7818608E-02  0.1130116E+00
         25   -1    0    0    0    0  0.00000000000E+00  0.00000000000E+00  0.99999998245E-14  0.12500000000E+03  0.12500000000E+03 0.  0.
        -13    1    3    3    0    0  0.55984775294E+02  0.63970847364E+01 -0.24502716878E+02  0.61446009279E+02  0.10566000000E+00 0. -1.
         23    2    1    0    0    0  0.27846142906E+02 -0.33796207947E+01 -0.17126038928E+02  0.92134657756E+02  0.86073598966E+02 0.  0.
         13    1    3    3    0    0 -0.28138632388E+02 -0.97767055311E+01  0.73766779496E+01  0.30688648477E+02  0.10566000000E+00 0.  1.
         22    1    1    0    0    0 -0.27846142906E+02  0.33796207947E+01  0.17126038928E+02  0.32865342244E+02  0.00000000000E+00 0. -1.
</event>
<event>
 5    1  0.1724243E-003  0.9118800E+02  0.7818608E-02  0.1130116E+00
         25   -1    0    0    0    0  0.00000000000E+00  0.00000000000E+00  0.99999998245E-14  0.12500000000E+03  0.12500000000E+03 0.  0.
        -13    1    3    3    0    0  0.30433802020E+02 -0.17167109185E+02  0.78960073429E+01  0.35822954082E+02  0.10566000000E+00 0.  1.
         23    2    1    0    0    0 -0.99976614377E+01  0.26555798319E+02  0.85036898879E+01  0.95377771855E+02  0.90661143627E+02 0.  0.
         13    1    3    3    0    0 -0.40431463457E+02  0.43722907504E+02  0.60768254502E+00  0.59554817773E+02  0.10566000000E+00 0. -1.
         22    1    1    0    0    0  0.99976614377E+01 -0.26555798319E+02 -0.85036898879E+01  0.29622228145E+02  0.00000000000E+00 0. -1.
</event>
<event>
 5    1  0.1724243E-003  0.9118800E+02  0.7818608E-02  0.1130116E+00
         25   -1    0    0    0    0  0.00000000000E+00  0.00000000000E+00  0.99999998245E-14  0.12500000000E+03  0.12500000000E+03 0.  0.
        -13    1    3    3    0    0 -0.21526134162E+02  0.46123627052E+02 -0.26225550497E+02  0.57258659496E+02  0.10566000000E+00 0.  1.
         23    2    1    0    0    0 -0.15663488926E+02  0.23821884420E+02  0.49782695144E+01  0.96058503321E+02  0.91594900678E+02 0.  0.
         13    1    3    3    0    0  0.58626452359E+01 -0.22301742632E+02  0.31203820011E+02  0.38799843825E+02  0.10566000000E+00 0. -1.
         22    1    1    0    0    0  0.15663488926E+02 -0.23821884420E+02 -0.49782695144E+01  0.28941496679E+02  0.00000000000E+00 0. -1.
</event>
<event>
 5    1  0.1724243E-003  0.9118800E+02  0.7818608E-02  0.1130116E+00
         25   -1    0    0    0    0  0.00000000000E+00  0.00000000000E+00  0.99999998245E-14  0.12500000000E+03  0.12500000000E+03 0.  0.
        -13    1    3    3    0    0 -0.97274915853E+01  0.34750969732E+02 -0.21076634345E+02  0.41791023788E+02  0.10566000000E+00 0.  1.
         23    2    1    0    0    0  0.22359072722E+02 -0.97939182716E+00  0.11516669243E+02  0.99830156699E+02  0.96605068059E+02 0.  0.
         13    1    3    3    0    0  0.32086564307E+02 -0.35730361560E+02  0.32593303588E+02  0.58039132911E+02  0.10566000000E+00 0. -1.
         22    1    1    0    0    0 -0.22359072722E+02  0.97939182716E+00 -0.11516669243E+02  0.25169843301E+02  0.00000000000E+00 0. -1.
</event>
<event>
 5    1  0.1724243E-003  0.9118800E+02  0.7818608E-02  0.1130116E+00
         25   -1    0    0    0    0  0.00000000000E+00  0.00000000000E+00  0.99999998245E-14  0.12500000000E+03  0.12500000000E+03 0.  0.
        -13    1    3    3    0    0 -0.11292817501E+01  0.21182248359E+02 -0.30413275787E+02  0.37080202682E+02  0.10566000000E+00 0. -1.
         23    2    1    0    0    0  0.82911471728E+01 -0.28290508252E+02 -0.78867036425E+00  0.95509018674E+02  0.90841921317E+02 0.  0.
         13    1    3    3    0    0  0.94204289229E+01 -0.49472756611E+02  0.29624605423E+02  0.58428815992E+02  0.10566000000E+00 0.  1.
         22    1    1    0    0    0 -0.82911471728E+01  0.28290508252E+02  0.78867036425E+00  0.29490981326E+02  0.00000000000E+00 0.  1.
</event>
<event>
 5    1  0.1724243E-003  0.9118800E+02  0.7818608E-02  0.1130116E+00
         25   -1    0    0    0    0  0.00000000000E+00  0.00000000000E+00  0.99999998245E-14  0.12500000000E+03  0.12500000000E+03 0.  0.
        -13    1    3    3    0    0  0.19885801060E+02  0.39633467485E+02  0.43310817174E+01  0.44553633540E+02  0.10566000000E+00 0. -1.
         23    2    1    0    0    0 -0.18117369067E+02  0.85529848311E+01  0.20591046211E+02  0.96270506522E+02  0.91883766959E+02 0.  0.
         13    1    3    3    0    0 -0.38003170127E+02 -0.31080482654E+02  0.16259964493E+02  0.51716872983E+02  0.10566000000E+00 0.  1.
         22    1    1    0    0    0  0.18117369067E+02 -0.85529848311E+01 -0.20591046211E+02  0.28729493478E+02  0.00000000000E+00 0.  1.
</event>
<event>
 5    1  0.1724243E-003  0.9118800E+02  0.7818608E-02  0.1130116E+00
         25   -1    0    0    0    0  0.00000000000E+00  0.00000000000E+00  0.99999998245E-14  0.12500000000E+03  0.12500000000E+03 0.  0.
        -13    1    3    3    0    0  0.49455753321E+02  0.95928117482E+00 -0.34164063248E+02  0.60116438172E+02  0.10566000000E+00 0.  1.
         23    2    1    0    0    0  0.28395626505E+02 -0.36042880286E+01 -0.57050363691E+01  0.95813531616E+02  0.91259974271E+02 0.  0.
         13    1    3    3    0    0 -0.21060126816E+02 -0.45635692035E+01  0.28459026879E+02  0.35697093443E+02  0.10566000000E+00 0. -1.
         22    1    1    0    0    0 -0.28395626505E+02  0.36042880286E+01  0.57050363691E+01  0.29186468384E+02  0.00000000000E+00 0.  1.
</event>
<event>
 5    1  0.1724243E-003  0.9118800E+02  0.7818608E-02  0.1130116E+00
         25   -1    0    0    0    0  0.00000000000E+00  0.00000000000E+00  0.99999998245E-14  0.12500000000E+03  0.12500000000E+03 0.  0.
        -13    1    3    3    0    0 -0.99820830503E+01 -0.43877051130E+02  0.32828429277E+02  0.55700579267E+02  0.10566000000E+00 0.  1.
         23    2    1    0    0    0 -0.66940133600E+00 -0.50588738776E+01  0.28718829954E+02  0.95831326787E+02  0.91284345300E+02 0.  0.
         13    1    3    3    0    0  0.93126817143E+01  0.38818177252E+02 -0.41095993232E+01  0.40130747520E+02  0.10566000000E+00 0. -1.
         22    1    1    0    0    0  0.66940133600E+00  0.50588738776E+01 -0.28718829954E+02  0.29168673213E+02  0.00000000000E+00 0.  1.
</event>
<event>
 5    1  0.1724243E-003  0.9118800E+02  0.7818608E-02  0.1130116E+00
         25   -1    0    0    0    0  0.00000000000E+00  0.00000000000E+00  0.99999998245E-14  0.12500000000E+03  0.12500000000E+03 0.  0.
        -13    1    3    3    0    0 -0.26987637951E+02 -0.68639551316E+01  0.21103226962E+02  0.34940003355E+02  0.10566000000E+00 0. -1.
         23    2    1    0    0    0  0.29890281864E+02 -0.31950679673E+00  0.31481976263E+01  0.94942685037E+02  0.90059265260E+02 0.  0.
         13    1    3    3    0    0  0.56877919815E+02  0.65444483348E+01 -0.17955029335E+02  0.60002681682E+02  0.10566000000E+00 0.  1.
         22    1    1    0    0    0 -0.29890281864E+02  0.31950679673E+00 -0.31481976263E+01  0.30057314963E+02  0.00000000000E+00 0.  1.
</event>
<event>
 5    1  0.1724243E-003  0.9118800E+02  0.7818608E-02  0.1130116E+00
         25   -1    0    0    0    0  0.00000000000E+00  0.00000000000E+00  0.99999998245E-14  0.12500000000E+03  0.12500000000E+03 0.  0.
        -13    1    3    3    0    0  0.26342695634E+02  0.22885039117E+02 -0.30377488062E+02  0.46265165877E+02  0.10566000000E+00 0.  1.
         23    2    1    0    0    0  0.13208260950E+02 -0.22014929071E+02 -0.13463563416E+02  0.96010643346E+02  0.91529562637E+02 0.  0.
         13    1    3    3    0    0 -0.13134434683E+02 -0.44899968187E+02  0.16913924646E+02  0.49745477469E+02  0.10566000000E+00 0. -1.
         22    1    1    0    0    0 -0.13208260950E+02  0.22014929071E+02  0.13463563416E+02  0.28989356654E+02  0.00000000000E+00 0. -1.
</event>
<event>
 5    1  0.1724243E-003  0.9118800E+02  0.7818608E-02  0.1130116E+00
         25   -1    0    0    0    0  0.00000000000E+00  0.00000000000E+00  0.99999998245E-14  0.12500000000E+03  0.12500000000E+03 0.  0.
        -13    1    3    3    0    0 -0.17793108786E+02  0.43727585649E+02  0.37978321109E+02  0.60589277147E+02  0.10566000000E+00 0. -1.
         23    2    1    0    0    0 -0.49810547798E+01  0.11626188336E+02  0.23996805131E+02  0.97873890466E+02  0.94039739560E+02 0.  0.
         13    1    3    3    0    0  0.12812054006E+02 -0.32101397313E+02 -0.13981515978E+02  0.37284613319E+02  0.10566000000E+00 0.  1.
         22    1    1    0    0    0  0.49810547798E+01 -0.11626188336E+02 -0.23996805131E+02  0.27126109534E+02  0.00000000000E+00 0. -1.
</event>
<event>
 5    1  0.1724243E-003  0.9118800E+02  0.7818608E-02  0.1130116E+00
         25   -1    0    0    0    0  0.00000000000E+00  0.00000000000E+00  0.99999998245E-14  0.12500000000E+03  0.12500000000E+03 0.  0.
        -13    1    3    3    0    0  0.46446940219E+02 -0.93339745315E+01 -0.30648354261E+02  0.56424942350E+02  0.10566000000E+00 0.  1.
         23    2    1    0    0    0  0.38813574473E+02 -0.38248634332E+01 -0.27127795836E+01  0.85904190548E+02  0.76492141014E+02 0.  0.
         13    1    3    3    0    0 -0.76333657457E+01  0.55091110983E+01  0.27935574677E+02  0.29479248198E+02  0.10566000000E+00 0. -1.
         22    1    1    0    0    0 -0.38813574473E+02  0.38248634332E+01  0.27127795836E+01  0.39095809452E+02  0.00000000000E+00 0.  1.
</event>
<event>
 5    1  0.1724243E-003  0.9118800E+02  0.7818608E-02  0.1130116E+00
         25   -1    0    0    0    0  0.00000000000E+00  0.00000000000E+00  0.99999998245E-14  0.12500000000E+03  0.12500000000E+03 0.  0.
        -13    1    3    3    0    0 -0.19783990833E+02 -0.54118120770E+02 -0.77971364700E+01  0.58146227652E+02  0.10566000000E+00 0. -1.
         23    2    1    0    0    0 -0.23697837145E+02 -0.18390013404E+02  0.35683624982E+00  0.95001543199E+02  0.90140921893E+02 0.  0.
         13    1    3    3    0    0 -0.39138463118E+01  0.35728107366E+02  0.81539727198E+01  0.36855315547E+02  0.10566000000E+00 0.  1.
         22    1    1    0    0    0  0.23697837145E+02  0.18390013404E+02 -0.35683624982E+00  0.29998456801E+02  0.00000000000E+00 0. -1.
</event>
<event>
 4    1  0.1724243E-003  0.9118800E+02  0.7818608E-02  0.1130116E+00
         25   -1    0    0    0    0  0.00000000000E+00  0.00000000000E+00  0.99999998245E-14  0.12500000000E+03  0.12500000000E+03 0.  0.
        -13    1    1    0    0    0 -0.82939784838E+01  0.19132038506E+02  0.12504885282E+02  0.24314775270E+02  0.10566000000E+00 0.  1.
         13    1    1    0    0    0  0.76622669775E+01  0.35254268729E+02 -0.26212369112E+02  0.44594542910E+02  0.10566000000E+00 0. -1.
         22    1    1    0    0    0  0.63171150628E+00 -0.54386307235E+02  0.13707483830E+02  0.56090681820E+02  0.00000000000E+00 0. -1.
</event>
<event>
 5    1  0.1724243E-003  0.9118800E+02  0.7818608E-02  0.1130116E+00
         25   -1    0    0    0    0  0.00000000000E+00  0.00000000000E+00  0.99999998245E-14  0.12500000000E+03  0.12500000000E+03 0.  0.
        -13    1    3    3    0    0  0.10045603279E+01 -0.39794380057E+02  0.12445694905E+02  0.41707413145E+02  0.10566000000E+00 0.  1.
         23    2    1    0    0    0  0.20396210992E+02  0.90867362636E+01  0.20232718771E+02  0.94868005250E+02  0.89955551871E+02 0.  0.
         13    1    3    3    0    0  0.19391650664E+02  0.48881116320E+02  0.77870238666E+01  0.53160592105E+02  0.10566000000E+00 0. -1.
         22    1    1    0    0    0 -0.20396210992E+02 -0.90867362636E+01 -0.20232718771E+02  0.30131994750E+02  0.00000000000E+00 0. -1.
</event>
<event>
 5    1  0.1724243E-003  0.9118800E+02  0.7818608E-02  0.1130116E+00
         25   -1    0    0    0    0  0.00000000000E+00  0.00000000000E+00  0.99999998245E-14  0.12500000000E+03  0.12500000000E+03 0.  0.
        -13    1    3    3    0    0  0.24610262236E+02  0.13593396763E+02  0.45565720953E+02  0.53541493562E+02  0.10566000000E+00 0.  1.
         23    2    1    0    0    0  0.27410020461E+02 -0.15106845931E+01  0.47655286819E+01  0.97137809612E+02  0.93056178747E+02 0.  0.
         13    1    3    3    0    0  0.27997582252E+01 -0.15104081356E+02 -0.40800192271E+02  0.43596316050E+02  0.10566000000E+00 0. -1.
         22    1    1    0    0    0 -0.27410020461E+02  0.15106845931E+01 -0.47655286819E+01  0.27862190388E+02  0.00000000000E+00 0.  1.
</event>
<event>
 5    1  0.1724243E-003  0.9118800E+02  0.7818608E-02  0.1130116E+00
         25   -1    0    0    0    0  0.00000000000E+00  0.00000000000E+00  0.99999998245E-14  0.12500000000E+03  0.12500000000E+03 0.  0.
        -13    1    3    3    0    0 -0.10403468194E+02 -0.70335317996E+01  0.45181153306E+02  0.46894034782E+02  0.10566000000E+00 0.  1.
         23    2    1    0    0    0 -0.78772316783E+01 -0.26796223586E+02 -0.85525235510E+00  0.97056846385E+02  0.92947359275E+02 0.  0.
         13    1    3    3    0    0  0.25262365157E+01 -0.19762691786E+02 -0.46036405661E+02  0.50162811602E+02  0.10566000000E+00 0. -1.
         22    1    1    0    0    0  0.78772316783E+01  0.26796223586E+02  0.85525235510E+00  0.27943153615E+02  0.00000000000E+00 0. -1.
</event>
<event>
 5    1  0.1724243E-003  0.9118800E+02  0.7818608E-02  0.1130116E+00
         25   -1    0    0    0    0  0.00000000000E+00  0.00000000000E+00  0.99999998245E-14  0.12500000000E+03  0.12500000000E+03 0.  0.
        -13    1    3    3    0    0 -0.17173276493E+02  0.83278965899E+01 -0.36987310920E+02  0.41621480275E+02  0.10566000000E+00 0. -1.
         23    2    1    0    0    0 -0.15015704880E+02 -0.23888266902E+02  0.67521538488E+01  0.95987722078E+02  0.91498254188E+02 0.  0.
         13    1    3    3    0    0  0.21575716129E+01 -0.32216163492E+02  0.43739464769E+02  0.54366241803E+02  0.10566000000E+00 0.  1.
         22    1    1    0    0    0  0.15015704880E+02  0.23888266902E+02 -0.67521538488E+01  0.29012277922E+02  0.00000000000E+00 0.  1.
</event>
<event>
 5    1  0.1724243E-003  0.9118800E+02  0.7818608E-02  0.1130116E+00
         25   -1    0    0    0    0  0.00000000000E+00  0.00000000000E+00  0.99999998245E-14  0.12500000000E+03  0.12500000000E+03 0.  0.
        -13    1    3    3    0    0  0.94567598344E+01 -0.41139123986E+02  0.21411337350E+02  0.47331959182E+02  0.10566000000E+00 0. -1.
         23    2    1    0    0    0 -0.22200666086E+02 -0.57825806409E+01  0.19602030060E+02  0.94824722106E+02  0.89895386569E+02 0.  0.
         13    1    3    3    0    0 -0.31657425920E+02  0.35356543345E+02 -0.18093072893E+01  0.47492762923E+02  0.10566000000E+00 0.  1.
         22    1    1    0    0    0  0.22200666086E+02  0.57825806409E+01 -0.19602030060E+02  0.30175277894E+02  0.00000000000E+00 0. -1.
</event>
<event>
 5    1  0.1724243E-003  0.9118800E+02  0.7818608E-02  0.1130116E+00
         25   -1    0    0    0    0  0.00000000000E+00  0.00000000000E+00  0.99999998245E-14  0.12500000000E+03  0.12500000000E+03 0.  0.
        -13    1    3    3    0    0 -0.25373299512E+02  0.34167829699E+02  0.11923173849E+01  0.42575552835E+02  0.10566000000E+00 0.  1.
         23    2    1    0    0    0 -0.13720597170E+02 -0.11361726468E+02  0.24238532503E+02  0.94919274063E+02  0.90026765551E+02 0.  0.
         13    1    3    3    0    0  0.11652702343E+02 -0.45529556167E+02  0.23046215118E+02  0.52343721227E+02  0.10566000000E+00 0. -1.
         22    1    1    0    0    0  0.13720597170E+02  0.11361726468E+02 -0.24238532503E+02  0.30080725937E+02  0.00000000000E+00 0. -1.
</event>
<event>
 5    1  0.1724243E-003  0.9118800E+02  0.7818608E-02  0.1130116E+00
         25   -1    0    0    0    0  0.00000000000E+00  0.00000000000E+00  0.99999998245E-14  0.12500000000E+03  0.12500000000E+03 0.  0.
        -13    1    3    3    0    0  0.11163004108E+02  0.28053980622E+02  0.72835225406E+01  0.31059609690E+02  0.10566000000E+00 0. -1.
         23    2    1    0    0    0 -0.57991234308E+01 -0.31324324178E+02  0.38957891425E+01  0.92906070811E+02  0.87186683058E+02 0.  0.
         13    1    3    3    0    0 -0.16962127539E+02 -0.59378304800E+02 -0.33877333982E+01  0.61846461121E+02  0.10566000000E+00 0.  1.
         22    1    1    0    0    0  0.57991234308E+01  0.31324324178E+02 -0.38957891425E+01  0.32093929189E+02  0.00000000000E+00 0.  1.
</event>
<event>
 5    1  0.1724243E-003  0.9118800E+02  0.7818608E-02  0.1130116E+00
         25   -1    0    0    0    0  0.00000000000E+00  0.00000000000E+00  0.99999998245E-14  0.12500000000E+03  0.12500000000E+03 0.  0.
        -13    1    3    3    0    0  0.64939645938E+01 -0.21156890101E+02  0.26015159364E+02  0.34155310797E+02  0.10566000000E+00 0.  1.
         23    2    1    0    0    0 -0.12120440431E+02 -0.12163298867E+02 -0.28090993570E+02  0.92076530631E+02  0.85989142673E+02 0.  0.
         13    1    3    3    0    0 -0.18614405025E+02  0.89935912338E+01 -0.54106152933E+02  0.57921219833E+02  0.10566000000E+00 0. -1.
         22    1    1    0    0    0  0.12120440431E+02  0.12163298867E+02  0.28090993570E+02  0.32923469369E+02  0.00000000000E+00 0. -1.
</event>
<event>
 5    1  0.1724243E-003  0.9118800E+02  0.7818608E-02  0.1130116E+00
         25   -1    0    0    0    0  0.00000000000E+00  0.00000000000E+00  0.99999998245E-14  0.12500000000E+03  0.12500000000E+03 0.  0.
        -13    1    3    3    0    0  0.33526537834E+01  0.32907801555E+02 -0.19863238605E+02  0.38583974685E+02  0.10566000000E+00 0. -1.
         23    2    1    0    0    0  0.21960140197E+02 -0.11594591105E+02  0.13018510293E+02  0.96961385366E+02  0.92818890003E+02 0.  0.
         13    1    3    3    0    0  0.18607486413E+02 -0.44502392660E+02  0.32881748898E+02  0.58377410681E+02  0.10566000000E+00 0.  1.
         22    1    1    0    0    0 -0.21960140197E+02  0.11594591105E+02 -0.13018510293E+02  0.28038614634E+02  0.00000000000E+00 0.  1.
</event>
<event>
 5    1  0.1724243E-003  0.9118800E+02  0.7818608E-02  0.1130116E+00
         25   -1    0    0    0    0  0.00000000000E+00  0.00000000000E+00  0.99999998245E-14  0.12500000000E+03  0.12500000000E+03 0.  0.
        -13    1    3    3    0    0 -0.20108218785E+02  0.17310333493E+02 -0.21574173012E+02  0.34197137505E+02  0.10566000000E+00 0.  1.
         23    2    1    0    0    0  0.20878866403E+01 -0.20247004926E+02  0.21422058410E+02  0.95449956589E+02  0.90760614515E+02 0.  0.
         13    1    3    3    0    0  0.22196105425E+02 -0.37557338419E+02  0.42996231422E+02  0.61252819084E+02  0.10566000000E+00 0. -1.
         22    1    1    0    0    0 -0.20878866403E+01  0.20247004926E+02 -0.21422058410E+02  0.29550043411E+02  0.00000000000E+00 0. -1.
</event>
<event>
 4    1  0.1724243E-003  0.9118800E+02  0.7818608E-02  0.1130116E+00
         25   -1    0    0    0    0  0.00000000000E+00  0.00000000000E+00  0.99999998245E-14  0.12500000000E+03  0.12500000000E+03 0.  0.
        -13    1    1    0    0    0 -0.10057938571E+02 -0.40139256372E+00 -0.13147085436E+02  0.16558389529E+02  0.10566000000E+00 0. -1.
         13    1    1    0    0    0  0.27344215457E+02 -0.48223751832E+02  0.11003364397E+01  0.55447797648E+02  0.10566000000E+00 0.  1.
         22    1    1    0    0    0 -0.17286276886E+02  0.48625144396E+02  0.12046748996E+02  0.52993812823E+02  0.00000000000E+00 0.  1.
</event>
<event>
 5    1  0.1724243E-003  0.9118800E+02  0.7818608E-02  0.1130116E+00
         25   -1    0    0    0    0  0.00000000000E+00  0.00000000000E+00  0.99999998245E-14  0.12500000000E+03  0.12500000000E+03 0.  0.
        -13    1    3    3    0    0  0.33267718076E+02 -0.24359943658E+02 -0.17094378730E+01  0.41268405141E+02  0.10566000000E+00 0.  1.
         23    2    1    0    0    0 -0.16171830428E+02 -0.12009874939E+02 -0.21134036754E+02  0.95803892297E+02  0.91246770213E+02 0.  0.
         13    1    3    3    0    0 -0.49439548504E+02  0.12350068719E+02 -0.19424598881E+02  0.54535487156E+02  0.10566000000E+00 0. -1.
         22    1    1    0    0    0  0.16171830428E+02  0.12009874939E+02  0.21134036754E+02  0.29196107703E+02  0.00000000000E+00 0. -1.
</event>
<event>
 5    1  0.1724243E-003  0.9118800E+02  0.7818608E-02  0.1130116E+00
         25   -1    0    0    0    0  0.00000000000E+00  0.00000000000E+00  0.99999998245E-14  0.12500000000E+03  0.12500000000E+03 0.  0.
        -13    1    3    3    0    0 -0.43065421929E+01 -0.30499401199E+02  0.20204293224E+02  0.36837269279E+02  0.10566000000E+00 0. -1.
         23    2    1    0    0    0  0.13286190646E+02  0.24604063155E+02  0.72285989699E+01  0.96118597183E+02  0.91676874378E+02 0.  0.
         13    1    3    3    0    0  0.17592732839E+02  0.55103464354E+02 -0.12975694255E+02  0.59281327904E+02  0.10566000000E+00 0.  1.
         22    1    1    0    0    0 -0.13286190646E+02 -0.24604063155E+02 -0.72285989699E+01  0.28881402817E+02  0.00000000000E+00 0.  1.
</event>
<event>
 5    1  0.1724243E-003  0.9118800E+02  0.7818608E-02  0.1130116E+00
         25   -1    0    0    0    0  0.00000000000E+00  0.00000000000E+00  0.99999998245E-14  0.12500000000E+03  0.12500000000E+03 0.  0.
        -13    1    3    3    0    0 -0.29398597127E+01 -0.38441112595E+01 -0.39525677721E+02  0.39820978514E+02  0.10566000000E+00 0.  1.
         23    2    1    0    0    0  0.32470088897E+01  0.24719700704E+02  0.10650463684E+02  0.97888396464E+02  0.94059019323E+02 0.  0.
         13    1    3    3    0    0  0.61868686024E+01  0.28563811963E+02  0.50176141405E+02  0.58067417950E+02  0.10566000000E+00 0. -1.
         22    1    1    0    0    0 -0.32470088897E+01 -0.24719700704E+02 -0.10650463684E+02  0.27111603536E+02  0.00000000000E+00 0. -1.
</event>
<event>
 5    1  0.1724243E-003  0.9118800E+02  0.7818608E-02  0.1130116E+00
         25   -1    0    0    0    0  0.00000000000E+00  0.00000000000E+00  0.99999998245E-14  0.12500000000E+03  0.12500000000E+03 0.  0.
        -13    1    3    3    0    0  0.33626039644E+02  0.28602727916E+01 -0.45447817927E+01  0.34052281981E+02  0.10566000000E+00 0. -1.
         23    2    1    0    0    0 -0.26128382168E+02 -0.49549418331E+01 -0.13826696686E+02  0.95026322472E+02  0.90175277200E+02 0.  0.
         13    1    3    3    0    0 -0.59754421812E+02 -0.78152146247E+01 -0.92819148935E+01  0.60974040491E+02  0.10566000000E+00 0.  1.
         22    1    1    0    0    0  0.26128382168E+02  0.49549418331E+01  0.13826696686E+02  0.29973677528E+02  0.00000000000E+00 0.  1.
</event>
<event>
 5    1  0.1724243E-003  0.9118800E+02  0.7818608E-02  0.1130116E+00
         25   -1    0    0    0    0  0.00000000000E+00  0.00000000000E+00  0.99999998245E-14  0.12500000000E+03  0.12500000000E+03 0.  0.
        -13    1    3    3    0    0  0.11574689997E+02 -0.47725948120E+02  0.19339334535E+02  0.52780305009E+02  0.10566000000E+00 0. -1.
         23    2    1    0    0    0  0.30729826662E+01 -0.64827567656E+01  0.28275555947E+02  0.95828499835E+02  0.91280474138E+02 0.  0.
         13    1    3    3    0    0 -0.85017073312E+01  0.41243191355E+02  0.89362214120E+01  0.43048194826E+02  0.10566000000E+00 0.  1.
         22    1    1    0    0    0 -0.30729826662E+01  0.64827567656E+01 -0.28275555947E+02  0.29171500165E+02  0.00000000000E+00 0. -1.
</event>
<event>
 5    1  0.1724243E-003  0.9118800E+02  0.7818608E-02  0.1130116E+00
         25   -1    0    0    0    0  0.00000000000E+00  0.00000000000E+00  0.99999998245E-14  0.12500000000E+03  0.12500000000E+03 0.  0.
        -13    1    3    3    0    0  0.37205961727E+01  0.33290300459E+02 -0.90897768522E+01  0.34709107562E+02  0.10566000000E+00 0.  1.
         23    2    1    0    0    0  0.16161306460E+02 -0.21646031304E+02  0.12757927424E+02  0.95125207785E+02  0.90312246935E+02 0.  0.
         13    1    3    3    0    0  0.12440710287E+02 -0.54936331763E+02  0.21847704276E+02  0.60416100223E+02  0.10566000000E+00 0. -1.
         22    1    1    0    0    0 -0.16161306460E+02  0.21646031304E+02 -0.12757927424E+02  0.29874792215E+02  0.00000000000E+00 0. -1.
</event>
<event>
 5    1  0.1724243E-003  0.9118800E+02  0.7818608E-02  0.1130116E+00
         25   -1    0    0    0    0  0.00000000000E+00  0.00000000000E+00  0.99999998245E-14  0.12500000000E+03  0.12500000000E+03 0.  0.
        -13    1    3    3    0    0 -0.14940142272E+01  0.40855694862E+02 -0.12879586163E+02  0.42863910052E+02  0.10566000000E+00 0. -1.
         23    2    1    0    0    0 -0.75321434567E+01 -0.10762668132E+02 -0.25473716018E+02  0.96338555198E+02  0.91976294770E+02 0.  0.
         13    1    3    3    0    0 -0.60381292295E+01 -0.51618362994E+02 -0.12594129855E+02  0.53474645147E+02  0.10566000000E+00 0.  1.
         22    1    1    0    0    0  0.75321434567E+01  0.10762668132E+02  0.25473716018E+02  0.28661444802E+02  0.00000000000E+00 0.  1.
</event>
<event>
 5    1  0.1724243E-003  0.9118800E+02  0.7818608E-02  0.1130116E+00
         25   -1    0    0    0    0  0.00000000000E+00  0.00000000000E+00  0.99999998245E-14  0.12500000000E+03  0.12500000000E+03 0.  0.
        -13    1    3    3    0    0 -0.48880041722E+02  0.17177034279E+02  0.27941461893E+02  0.58864636601E+02  0.10566000000E+00 0. -1.
         23    2    1    0    0    0 -0.27718548494E+02  0.32056352799E+00  0.68150555527E+00  0.97271221783E+02  0.93235215696E+02 0.  0.
         13    1    3    3    0    0  0.21161493229E+02 -0.16856470751E+02 -0.27259956338E+02  0.38406585183E+02  0.10566000000E+00 0.  1.
         22    1    1    0    0    0  0.27718548494E+02 -0.32056352799E+00 -0.68150555527E+00  0.27728778217E+02  0.00000000000E+00 0. -1.
</event>
<event>
 5    1  0.1724243E-003  0.9118800E+02  0.7818608E-02  0.1130116E+00
         25   -1    0    0    0    0  0.00000000000E+00  0.00000000000E+00  0.99999998245E-14  0.12500000000E+03  0.12500000000E+03 0.  0.
        -13    1    3    3    0    0  0.26068724725E+02  0.13794812215E+02  0.51398993034E+02  0.59259960359E+02  0.10566000000E+00 0.  1.
         23    2    1    0    0    0  0.68925723510E+00 -0.17796553365E+01  0.27478563735E+02  0.97455241631E+02  0.93481604649E+02 0.  0.
         13    1    3    3    0    0 -0.25379467490E+02 -0.15574467552E+02 -0.23920429298E+02  0.38195281272E+02  0.10566000000E+00 0. -1.
         22    1    1    0    0    0 -0.68925723510E+00  0.17796553365E+01 -0.27478563735E+02  0.27544758369E+02  0.00000000000E+00 0.  1.
</event>
<event>
 5    1  0.1724243E-003  0.9118800E+02  0.7818608E-02  0.1130116E+00
         25   -1    0    0    0    0  0.00000000000E+00  0.00000000000E+00  0.99999998245E-14  0.12500000000E+03  0.12500000000E+03 0.  0.
        -13    1    3    3    0    0  0.25558819625E+02 -0.47926828319E+02 -0.10169759764E+02  0.55260015482E+02  0.10566000000E+00 0. -1.
         23    2    1    0    0    0  0.27841561721E+02 -0.90677695157E+01  0.81906153664E+00  0.95707545940E+02  0.91114688635E+02 0.  0.
         13    1    3    3    0    0  0.22827420962E+01  0.38859058803E+02  0.10988821301E+02  0.40447530458E+02  0.10566000000E+00 0.  1.
         22    1    1    0    0    0 -0.27841561721E+02  0.90677695157E+01 -0.81906153664E+00  0.29292454060E+02  0.00000000000E+00 0. -1.
</event>
<event>
 5    1  0.1724243E-003  0.9118800E+02  0.7818608E-02  0.1130116E+00
         25   -1    0    0    0    0  0.00000000000E+00  0.00000000000E+00  0.99999998245E-14  0.12500000000E+03  0.12500000000E+03 0.  0.
        -13    1    3    3    0    0  0.17879679271E+02 -0.23999007673E+02 -0.24381034913E+02  0.38601571569E+02  0.10566000000E+00 0.  1.
         23    2    1    0    0    0  0.15871653713E+02  0.17393700703E+02  0.16053837380E+02  0.96501299848E+02  0.92197206910E+02 0.  0.
         13    1    3    3    0    0 -0.20080255576E+01  0.41392708376E+02  0.40434872294E+02  0.57899728279E+02  0.10566000000E+00 0. -1.
         22    1    1    0    0    0 -0.15871653713E+02 -0.17393700703E+02 -0.16053837380E+02  0.28498700152E+02  0.00000000000E+00 0. -1.
</event>
<event>
 5    1  0.1724243E-003  0.9118800E+02  0.7818608E-02  0.1130116E+00
         25   -1    0    0    0    0  0.00000000000E+00  0.00000000000E+00  0.99999998245E-14  0.12500000000E+03  0.12500000000E+03 0.  0.
        -13    1    3    3    0    0  0.37912487084E+02  0.21992012052E+02 -0.26549703712E+02  0.51243567423E+02  0.10566000000E+00 0.  1.
         23    2    1    0    0    0  0.25126004227E+02 -0.81690618981E+01  0.65139884094E+01  0.97788206496E+02  0.93925777207E+02 0.  0.
         13    1    3    3    0    0 -0.12786482857E+02 -0.30161073950E+02  0.33063692122E+02  0.46544639073E+02  0.10566000000E+00 0. -1.
         22    1    1    0    0    0 -0.25126004227E+02  0.81690618981E+01 -0.65139884094E+01  0.27211793504E+02  0.00000000000E+00 0.  1.
</event>
<event>
 5    1  0.1724243E-003  0.9118800E+02  0.7818608E-02  0.1130116E+00
         25   -1    0    0    0    0  0.00000000000E+00  0.00000000000E+00  0.99999998245E-14  0.12500000000E+03  0.12500000000E+03 0.  0.
        -13    1    3    3    0    0  0.34746487943E+02  0.12274676377E+02  0.34768349387E+01  0.37014668035E+02  0.10566000000E+00 0.  1.
         23    2    1    0    0    0 -0.18608287511E+02  0.15546433883E+02  0.20639552396E+02  0.93157401274E+02  0.87546275297E+02 0.  0.
         13    1    3    3    0    0 -0.53354775454E+02  0.32717575057E+01  0.17162717457E+02  0.56142733238E+02  0.10566000000E+00 0. -1.
         22    1    1    0    0    0  0.18608287511E+02 -0.15546433883E+02 -0.20639552396E+02  0.31842598726E+02  0.00000000000E+00 0. -1.
</event>
<event>
 5    1  0.1724243E-003  0.9118800E+02  0.7818608E-02  0.1130116E+00
         25   -1    0    0    0    0  0.00000000000E+00  0.00000000000E+00  0.99999998245E-14  0.12500000000E+03  0.12500000000E+03 0.  0.
        -13    1    3    3    0    0 -0.31073693668E+02 -0.17285096549E+01  0.17325166430E+02  0.35619302908E+02  0.10566000000E+00 0. -1.
         23    2    1    0    0    0  0.11633203646E+02 -0.15304548882E+02 -0.22383778232E+02  0.95494167162E+02  0.90821483089E+02 0.  0.
         13    1    3    3    0    0  0.42706897313E+02 -0.13576039227E+02 -0.39708944662E+02  0.59874864254E+02  0.10566000000E+00 0.  1.
         22    1    1    0    0    0 -0.11633203646E+02  0.15304548882E+02  0.22383778232E+02  0.29505832838E+02  0.00000000000E+00 0.  1.
</event>
<event>
 5    1  0.1724243E-003  0.9118800E+02  0.7818608E-02  0.1130116E+00
         25   -1    0    0    0    0  0.00000000000E+00  0.00000000000E+00  0.99999998245E-14  0.12500000000E+03  0.12500000000E+03 0.  0.
        -13    1    3    3    0    0  0.20177767874E+02  0.35278008510E+02 -0.22090885838E+02  0.46256876266E+02  0.10566000000E+00 0.  1.
         23    2    1    0    0    0 -0.14220155758E+02  0.30688083786E+00 -0.25893482672E+02  0.95457159065E+02  0.90770533580E+02 0.  0.
         13    1    3    3    0    0 -0.34397923631E+02 -0.34971127672E+02 -0.38025968341E+01  0.49200282799E+02  0.10566000000E+00 0. -1.
         22    1    1    0    0    0  0.14220155758E+02 -0.30688083786E+00  0.25893482672E+02  0.29542840935E+02  0.00000000000E+00 0. -1.
</event>
<event>
 5    1  0.1724243E-003  0.9118800E+02  0.7818608E-02  0.1130116E+00
         25   -1    0    0    0    0  0.00000000000E+00  0.00000000000E+00  0.99999998245E-14  0.12500000000E+03  0.12500000000E+03 0.  0.
        -13    1    3    3    0    0  0.98968841111E+00  0.34363823920E+02 -0.18277949860E+02  0.38935157540E+02  0.10566000000E+00 0.  1.
         23    2    1    0    0    0  0.76396807715E+01  0.69678775583E+01  0.29128447885E+02  0.94090737373E+02  0.88868916631E+02 0.  0.
         13    1    3    3    0    0  0.66499923604E+01 -0.27395946362E+02  0.47406397745E+02  0.55155579832E+02  0.10566000000E+00 0. -1.
         22    1    1    0    0    0 -0.76396807715E+01 -0.69678775583E+01 -0.29128447885E+02  0.30909262627E+02  0.00000000000E+00 0. -1.
</event>
<event>
 5    1  0.1724243E-003  0.9118800E+02  0.7818608E-02  0.1130116E+00
         25   -1    0    0    0    0  0.00000000000E+00  0.00000000000E+00  0.99999998245E-14  0.12500000000E+03  0.12500000000E+03 0.  0.
        -13    1    3    3    0    0  0.51849282392E+02  0.26855208541E+02 -0.11161410129E+02  0.59448621098E+02  0.10566000000E+00 0.  1.
         23    2    1    0    0    0  0.32823020955E+02  0.14112463939E+02 -0.20070674118E+02  0.84020196407E+02  0.73348817998E+02 0.  0.
         13    1    3    3    0    0 -0.19026261437E+02 -0.12742744603E+02 -0.89092639883E+01  0.24571575309E+02  0.10566000000E+00 0. -1.
         22    1    1    0    0    0 -0.32823020955E+02 -0.14112463939E+02  0.20070674118E+02  0.40979803593E+02  0.00000000000E+00 0.  1.
</event>
<event>
 5    1  0.1724243E-003  0.9118800E+02  0.7818608E-02  0.1130116E+00
         25   -1    0    0    0    0  0.00000000000E+00  0.00000000000E+00  0.99999998245E-14  0.12500000000E+03  0.12500000000E+03 0.  0.
        -13    1    3    3    0    0 -0.99609997186E+01 -0.13144752586E+02  0.34269993759E+02  0.38032218871E+02  0.10566000000E+00 0.  1.
         23    2    1    0    0    0 -0.21730814325E+02  0.22695906409E+02 -0.57796785345E+01  0.93051022819E+02  0.87394254415E+02 0.  0.
         13    1    3    3    0    0 -0.11769814606E+02  0.35840658995E+02 -0.40049672293E+02  0.55018803948E+02  0.10566000000E+00 0. -1.
         22    1    1    0    0    0  0.21730814325E+02 -0.22695906409E+02  0.57796785345E+01  0.31948977181E+02  0.00000000000E+00 0. -1.
</event>
<event>
 5    1  0.1724243E-003  0.9118800E+02  0.7818608E-02  0.1130116E+00
         25   -1    0    0    0    0  0.00000000000E+00  0.00000000000E+00  0.99999998245E-14  0.12500000000E+03  0.12500000000E+03 0.  0.
        -13    1    3    3    0    0 -0.61947530488E+01  0.42424049769E+02  0.63594454852E+01  0.43343150266E+02  0.10566000000E+00 0. -1.
         23    2    1    0    0    0  0.26706434545E+02  0.38856111071E+01  0.14014183364E+02  0.94590643625E+02  0.89569307837E+02 0.  0.
         13    1    3    3    0    0  0.32901187594E+02 -0.38538438662E+02  0.76547378786E+01  0.51247493359E+02  0.10566000000E+00 0.  1.
         22    1    1    0    0    0 -0.26706434545E+02 -0.38856111071E+01 -0.14014183364E+02  0.30409356375E+02  0.00000000000E+00 0. -1.
</event>
<event>
 5    1  0.1724243E-003  0.9118800E+02  0.7818608E-02  0.1130116E+00
         25   -1    0    0    0    0  0.00000000000E+00  0.00000000000E+00  0.99999998245E-14  0.12500000000E+03  0.12500000000E+03 0.  0.
        -13    1    3    3    0    0  0.89870169914E+01 -0.28167100591E+01 -0.33404807535E+02  0.34707242190E+02  0.10566000000E+00 0.  1.
         23    2    1    0    0    0 -0.25403036598E+02  0.23677476737E+02  0.12433659098E+01  0.90251142007E+02  0.83293370095E+02 0.  0.
         13    1    3    3    0    0 -0.34390053589E+02  0.26494186796E+02  0.34648173444E+02  0.55543899817E+02  0.10566000000E+00 0. -1.
         22    1    1    0    0    0  0.25403036598E+02 -0.23677476737E+02 -0.12433659098E+01  0.34748857993E+02  0.00000000000E+00 0. -1.
</event>
<event>
 5    1  0.1724243E-003  0.9118800E+02  0.7818608E-02  0.1130116E+00
         25   -1    0    0    0    0  0.00000000000E+00  0.00000000000E+00  0.99999998245E-14  0.12500000000E+03  0.12500000000E+03 0.  0.
        -13    1    3    3    0    0  0.24834188249E+02  0.44408482815E+02 -0.15694078172E+02  0.53246272223E+02  0.10566000000E+00 0.  1.
         23    2    1    0    0    0  0.76624284276E+01  0.22868758276E+02  0.16620967371E+02  0.95709225500E+02  0.91116992789E+02 0.  0.
         13    1    3    3    0    0 -0.17171759821E+02 -0.21539724539E+02  0.32315045542E+02  0.42462953277E+02  0.10566000000E+00 0. -1.
         22    1    1    0    0    0 -0.76624284276E+01 -0.22868758276E+02 -0.16620967371E+02  0.29290774500E+02  0.00000000000E+00 0.  1.
</event>
<event>
 5    1  0.1724243E-003  0.9118800E+02  0.7818608E-02  0.1130116E+00
         25   -1    0    0    0    0  0.00000000000E+00  0.00000000000E+00  0.99999998245E-14  0.12500000000E+03  0.12500000000E+03 0.  0.
        -13    1    3    3    0    0 -0.17735984675E+02 -0.30809975392E+02  0.43169353705E+02  0.55923376144E+02  0.10566000000E+00 0.  1.
         23    2    1    0    0    0 -0.20331936235E+02 -0.21801965641E+02  0.55714249337E+01  0.94672551827E+02  0.89683543400E+02 0.  0.
         13    1    3    3    0    0 -0.25959515606E+01  0.90080097508E+01 -0.37597928771E+02  0.38749175683E+02  0.10566000000E+00 0. -1.
         22    1    1    0    0    0  0.20331936235E+02  0.21801965641E+02 -0.55714249337E+01  0.30327448173E+02  0.00000000000E+00 0.  1.
</event>
<event>
 5    1  0.1724243E-003  0.9118800E+02  0.7818608E-02  0.1130116E+00
         25   -1    0    0    0    0  0.00000000000E+00  0.00000000000E+00  0.99999998245E-14  0.12500000000E+03  0.12500000000E+03 0.  0.
        -13    1    3    3    0    0  0.22169999075E+02 -0.15974640721E+02  0.23821720014E+02  0.36251669115E+02  0.10566000000E+00 0.  1.
         23    2    1    0    0    0  0.45567434081E+01  0.32175428794E+02  0.69680510151E+00  0.92496036151E+02  0.86596818866E+02 0.  0.
         13    1    3    3    0    0 -0.17613255667E+02  0.48150069515E+02 -0.23124914913E+02  0.56244367036E+02  0.10566000000E+00 0. -1.
         22    1    1    0    0    0 -0.45567434081E+01 -0.32175428794E+02 -0.69680510151E+00  0.32503963849E+02  0.00000000000E+00 0. -1.
</event>
<event>
 5    1  0.1724243E-003  0.9118800E+02  0.7818608E-02  0.1130116E+00
         25   -1    0    0    0    0  0.00000000000E+00  0.00000000000E+00  0.99999998245E-14  0.12500000000E+03  0.12500000000E+03 0.  0.
        -13    1    3    3    0    0  0.21377026329E+02  0.15718764113E+02  0.29170359457E+02  0.39433207260E+02  0.10566000000E+00 0.  1.
         23    2    1    0    0    0 -0.27268540719E+02  0.45150050629E+01 -0.21522799179E+00  0.97359361318E+02  0.93353309152E+02 0.  0.
         13    1    3    3    0    0 -0.48645567048E+02 -0.11203759050E+02 -0.29385587449E+02  0.57926154058E+02  0.10566000000E+00 0. -1.
         22    1    1    0    0    0  0.27268540719E+02 -0.45150050629E+01  0.21522799179E+00  0.27640638682E+02  0.00000000000E+00 0. -1.
</event>
<event>
 5    1  0.1724243E-003  0.9118800E+02  0.7818608E-02  0.1130116E+00
         25   -1    0    0    0    0  0.00000000000E+00  0.00000000000E+00  0.99999998245E-14  0.12500000000E+03  0.12500000000E+03 0.  0.
        -13    1    3    3    0    0  0.16838388078E+02 -0.25188831423E+02  0.54174364793E+02  0.62071583726E+02  0.10566000000E+00 0.  1.
         23    2    1    0    0    0  0.12235679005E+02 -0.91120044621E+01  0.24303109096E+02  0.96305373713E+02  0.91931188550E+02 0.  0.
         13    1    3    3    0    0 -0.46027090732E+01  0.16076826960E+02 -0.29871255697E+02  0.34233789987E+02  0.10566000000E+00 0. -1.
         22    1    1    0    0    0 -0.12235679005E+02  0.91120044621E+01 -0.24303109096E+02  0.28694626287E+02  0.00000000000E+00 0.  1.
</event>
<event>
 5    1  0.1724243E-003  0.9118800E+02  0.7818608E-02  0.1130116E+00
         25   -1    0    0    0    0  0.00000000000E+00  0.00000000000E+00  0.99999998245E-14  0.12500000000E+03  0.12500000000E+03 0.  0.
        -13    1    3    3    0    0 -0.26377553189E+02  0.10388078872E+02  0.49825949517E+02  0.57326467746E+02  0.10566000000E+00 0. -1.
         23    2    1    0    0    0 -0.13807713665E+02  0.23002475905E+02  0.37106556276E+02  0.79210663108E+02  0.64634865026E+02 0.  0.
         13    1    3    3    0    0  0.12569839524E+02  0.12614397033E+02 -0.12719393242E+02  0.21884195362E+02  0.10566000000E+00 0.  1.
         22    1    1    0    0    0  0.13807713665E+02 -0.23002475905E+02 -0.37106556276E+02  0.45789336892E+02  0.00000000000E+00 0. -1.
</event>
<event>
 5    1  0.1724243E-003  0.9118800E+02  0.7818608E-02  0.1130116E+00
         25   -1    0    0    0    0  0.00000000000E+00  0.00000000000E+00  0.99999998245E-14  0.12500000000E+03  0.12500000000E+03 0.  0.
        -13    1    3    3    0    0  0.38213711903E+02  0.21349841800E+02 -0.44238219437E+02  0.62234514100E+02  0.10566000000E+00 0.  1.
         23    2    1    0    0    0  0.16429025486E+02  0.80927924671E+01 -0.24111894600E+02  0.94721465862E+02  0.89751693385E+02 0.  0.
         13    1    3    3    0    0 -0.21784686417E+02 -0.13257049333E+02  0.20126324837E+02  0.32486951762E+02  0.10566000000E+00 0. -1.
         22    1    1    0    0    0 -0.16429025486E+02 -0.80927924671E+01  0.24111894600E+02  0.30278534138E+02  0.00000000000E+00 0.  1.
</event>
<event>
 5    1  0.1724243E-003  0.9118800E+02  0.7818608E-02  0.1130116E+00
         25   -1    0    0    0    0  0.00000000000E+00  0.00000000000E+00  0.99999998245E-14  0.12500000000E+03  0.12500000000E+03 0.  0.
        -13    1    3    3    0    0 -0.37604383376E+02  0.26390175269E+02  0.36574747134E+02  0.58721838286E+02  0.10566000000E+00 0.  1.
         23    2    1    0    0    0 -0.15476631044E+02 -0.46258380340E+00  0.25372807508E+02  0.95275944875E+02  0.90520639739E+02 0.  0.
         13    1    3    3    0    0  0.22127752332E+02 -0.26852759072E+02 -0.11201939626E+02  0.36554106588E+02  0.10566000000E+00 0. -1.
         22    1    1    0    0    0  0.15476631044E+02  0.46258380340E+00 -0.25372807508E+02  0.29724055125E+02  0.00000000000E+00 0.  1.
</event>
<event>
 5    1  0.1724243E-003  0.9118800E+02  0.7818608E-02  0.1130116E+00
         25   -1    0    0    0    0  0.00000000000E+00  0.00000000000E+00  0.99999998245E-14  0.12500000000E+03  0.12500000000E+03 0.  0.
        -13    1    3    3    0    0  0.15616658521E+02 -0.44408459012E+02  0.87926107766E+01  0.47888541672E+02  0.10566000000E+00 0.  1.
         23    2    1    0    0    0 -0.19161680424E+02 -0.12204023993E+02  0.17804117428E+02  0.96136618430E+02  0.91701442778E+02 0.  0.
         13    1    3    3    0    0 -0.34778338945E+02  0.32204435019E+02  0.90115066511E+01  0.48248076758E+02  0.10566000000E+00 0. -1.
         22    1    1    0    0    0  0.19161680424E+02  0.12204023993E+02 -0.17804117428E+02  0.28863381570E+02  0.00000000000E+00 0. -1.
</event>
<event>
 5    1  0.1724243E-003  0.9118800E+02  0.7818608E-02  0.1130116E+00
         25   -1    0    0    0    0  0.00000000000E+00  0.00000000000E+00  0.99999998245E-14  0.12500000000E+03  0.12500000000E+03 0.  0.
        -13    1    3    3    0    0 -0.14933817399E+02 -0.34527161714E+02 -0.98288079064E+01  0.38881363492E+02  0.10566000000E+00 0. -1.
         23    2    1    0    0    0 -0.21292018728E+02  0.17702570041E+02  0.10637475504E+02  0.95337111862E+02  0.90605065893E+02 0.  0.
         13    1    3    3    0    0 -0.63582013294E+01  0.52229731755E+02  0.20466283410E+02  0.56455748370E+02  0.10566000000E+00 0.  1.
         22    1    1    0    0    0  0.21292018728E+02 -0.17702570041E+02 -0.10637475504E+02  0.29662888138E+02  0.00000000000E+00 0.  1.
</event>
<event>
 5    1  0.1724243E-003  0.9118800E+02  0.7818608E-02  0.1130116E+00
         25   -1    0    0    0    0  0.00000000000E+00  0.00000000000E+00  0.99999998245E-14  0.12500000000E+03  0.12500000000E+03 0.  0.
        -13    1    3    3    0    0  0.71986672299E+01  0.29761956754E+02  0.19437846908E+02  0.36268938999E+02  0.10566000000E+00 0.  1.
         23    2    1    0    0    0 -0.20972231644E+02 -0.16854477931E+02 -0.75491481792E+01  0.97055455547E+02  0.92945488791E+02 0.  0.
         13    1    3    3    0    0 -0.28170898874E+02 -0.46616434685E+02 -0.26986995087E+02  0.60786516547E+02  0.10566000000E+00 0. -1.
         22    1    1    0    0    0  0.20972231644E+02  0.16854477931E+02  0.75491481792E+01  0.27944544453E+02  0.00000000000E+00 0. -1.
</event>
<event>
 5    1  0.1724243E-003  0.9118800E+02  0.7818608E-02  0.1130116E+00
         25   -1    0    0    0    0  0.00000000000E+00  0.00000000000E+00  0.99999998245E-14  0.12500000000E+03  0.12500000000E+03 0.  0.
        -13    1    3    3    0    0 -0.33242082203E+02 -0.15691020393E+02 -0.73893394297E+01  0.37494768320E+02  0.10566000000E+00 0.  1.
         23    2    1    0    0    0  0.49235146330E+01  0.66535723781E+01  0.29046999788E+02  0.94796701862E+02  0.89856415828E+02 0.  0.
         13    1    3    3    0    0  0.38165596836E+02  0.22344592771E+02  0.36436339218E+02  0.57301933541E+02  0.10566000000E+00 0. -1.
         22    1    1    0    0    0 -0.49235146330E+01 -0.66535723781E+01 -0.29046999788E+02  0.30203298138E+02  0.00000000000E+00 0. -1.
</event>
<event>
 5    1  0.1724243E-003  0.9118800E+02  0.7818608E-02  0.1130116E+00
         25   -1    0    0    0    0  0.00000000000E+00  0.00000000000E+00  0.99999998245E-14  0.12500000000E+03  0.12500000000E+03 0.  0.
        -13    1    3    3    0    0  0.30290937709E+02  0.24219745071E+01 -0.15222546274E+02  0.33987408653E+02  0.10566000000E+00 0.  1.
         23    2    1    0    0    0 -0.23587831138E+02 -0.11956823511E+02  0.11903126725E+02  0.95999382212E+02  0.91514182250E+02 0.  0.
         13    1    3    3    0    0 -0.53878768847E+02 -0.14378798018E+02  0.27125673000E+02  0.62011973559E+02  0.10566000000E+00 0. -1.
         22    1    1    0    0    0  0.23587831138E+02  0.11956823511E+02 -0.11903126725E+02  0.29000617788E+02  0.00000000000E+00 0. -1.
</event>
<event>
 5    1  0.1724243E-003  0.9118800E+02  0.7818608E-02  0.1130116E+00
         25   -1    0    0    0    0  0.00000000000E+00  0.00000000000E+00  0.99999998245E-14  0.12500000000E+03  0.12500000000E+03 0.  0.
        -13    1    3    3    0    0 -0.33462791223E+02  0.29984199618E+01 -0.10711774044E+02  0.35263326360E+02  0.10566000000E+00 0.  1.
         23    2    1    0    0    0 -0.70996954964E+01 -0.21343367527E+02 -0.38339380573E+02  0.80549430642E+02  0.67174084738E+02 0.  0.
         13    1    3    3    0    0  0.26363095727E+02 -0.24341787489E+02 -0.27627606529E+02  0.45286104282E+02  0.10566000000E+00 0. -1.
         22    1    1    0    0    0  0.70996954964E+01  0.21343367527E+02  0.38339380573E+02  0.44450569358E+02  0.00000000000E+00 0. -1.
</event>
<event>
 5    1  0.1724243E-003  0.9118800E+02  0.7818608E-02  0.1130116E+00
         25   -1    0    0    0    0  0.00000000000E+00  0.00000000000E+00  0.99999998245E-14  0.12500000000E+03  0.12500000000E+03 0.  0.
        -13    1    3    3    0    0 -0.21620758355E+02  0.17337246620E+02  0.36657059900E+02  0.45954200207E+02  0.10566000000E+00 0. -1.
         23    2    1    0    0    0  0.16112370697E+02  0.25149571270E+02  0.77001184691E+01  0.94155207101E+02  0.88959551343E+02 0.  0.
         13    1    3    3    0    0  0.37733129052E+02  0.78123246502E+01 -0.28956941431E+02  0.48201006893E+02  0.10566000000E+00 0.  1.
         22    1    1    0    0    0 -0.16112370697E+02 -0.25149571270E+02 -0.77001184691E+01  0.30844792899E+02  0.00000000000E+00 0.  1.
</event>
<event>
 5    1  0.1724243E-003  0.9118800E+02  0.7818608E-02  0.1130116E+00
         25   -1    0    0    0    0  0.00000000000E+00  0.00000000000E+00  0.99999998245E-14  0.12500000000E+03  0.12500000000E+03 0.  0.
        -13    1    3    3    0    0 -0.48547155556E+02 -0.17329019784E+02 -0.11116449381E+02  0.52732417450E+02  0.10566000000E+00 0.  1.
         23    2    1    0    0    0 -0.25372079006E+02  0.14151024419E+02  0.58817157447E+01  0.95359007013E+02  0.90635267712E+02 0.  0.
         13    1    3    3    0    0  0.23175076550E+02  0.31480044202E+02  0.16998165125E+02  0.42626589563E+02  0.10566000000E+00 0. -1.
         22    1    1    0    0    0  0.25372079006E+02 -0.14151024419E+02 -0.58817157447E+01  0.29640992987E+02  0.00000000000E+00 0.  1.
</event>
<event>
 5    1  0.1724243E-003  0.9118800E+02  0.7818608E-02  0.1130116E+00
         25   -1    0    0    0    0  0.00000000000E+00  0.00000000000E+00  0.99999998245E-14  0.12500000000E+03  0.12500000000E+03 0.  0.
        -13    1    3    3    0    0  0.67852534732E+01 -0.29376126456E+02 -0.14445282681E+02  0.33431629126E+02  0.10566000000E+00 0.  1.
         23    2    1    0    0    0 -0.50670012554E+00  0.22595028569E+02  0.18839316709E+02  0.95577017229E+02  0.90935440326E+02 0.  0.
         13    1    3    3    0    0 -0.72919535987E+01  0.51971155025E+02  0.33284599390E+02  0.62145388103E+02  0.10566000000E+00 0. -1.
         22    1    1    0    0    0  0.50670012554E+00 -0.22595028569E+02 -0.18839316709E+02  0.29422982771E+02  0.00000000000E+00 0. -1.
</event>
<event>
 5    1  0.1724243E-003  0.9118800E+02  0.7818608E-02  0.1130116E+00
         25   -1    0    0    0    0  0.00000000000E+00  0.00000000000E+00  0.99999998245E-14  0.12500000000E+03  0.12500000000E+03 0.  0.
        -13    1    3    3    0    0  0.29147105279E+02 -0.15663015151E+02  0.18844854625E+02  0.38079174093E+02  0.10566000000E+00 0. -1.
         23    2    1    0    0    0 -0.11742693930E+02  0.24719166137E+02  0.52510911487E+01  0.97134214644E+02  0.93051349593E+02 0.  0.
         13    1    3    3    0    0 -0.40889799209E+02  0.40382181288E+02 -0.13593763476E+02  0.59055040551E+02  0.10566000000E+00 0.  1.
         22    1    1    0    0    0  0.11742693930E+02 -0.24719166137E+02 -0.52510911487E+01  0.27865785356E+02  0.00000000000E+00 0.  1.
</event>
<event>
 5    1  0.1724243E-003  0.9118800E+02  0.7818608E-02  0.1130116E+00
         25   -1    0    0    0    0  0.00000000000E+00  0.00000000000E+00  0.99999998245E-14  0.12500000000E+03  0.12500000000E+03 0.  0.
        -13    1    3    3    0    0 -0.14850911852E+02  0.16851818189E+02 -0.44003708163E+02  0.49405170329E+02  0.10566000000E+00 0. -1.
         23    2    1    0    0    0 -0.18789594880E+02 -0.17649070956E+02 -0.12253950146E+02  0.96457087122E+02  0.92137244264E+02 0.  0.
         13    1    3    3    0    0 -0.39386830283E+01 -0.34500889144E+02  0.31749758017E+02  0.47051916793E+02  0.10566000000E+00 0.  1.
         22    1    1    0    0    0  0.18789594880E+02  0.17649070956E+02  0.12253950146E+02  0.28542912878E+02  0.00000000000E+00 0. -1.
</event>
<event>
 5    1  0.1724243E-003  0.9118800E+02  0.7818608E-02  0.1130116E+00
         25   -1    0    0    0    0  0.00000000000E+00  0.00000000000E+00  0.99999998245E-14  0.12500000000E+03  0.12500000000E+03 0.  0.
        -13    1    3    3    0    0  0.43398536681E+02  0.14824401145E+02 -0.24870519642E+02  0.52170391667E+02  0.10566000000E+00 0.  1.
         23    2    1    0    0    0  0.16753864122E+02 -0.18860272923E+02 -0.12381955504E+02  0.96898137431E+02  0.92733674346E+02 0.  0.
         13    1    3    3    0    0 -0.26644672559E+02 -0.33684674068E+02  0.12488564138E+02  0.44727745764E+02  0.10566000000E+00 0. -1.
         22    1    1    0    0    0 -0.16753864122E+02  0.18860272923E+02  0.12381955504E+02  0.28101862569E+02  0.00000000000E+00 0. -1.
</event>
<event>
 5    1  0.1724243E-003  0.9118800E+02  0.7818608E-02  0.1130116E+00
         25   -1    0    0    0    0  0.00000000000E+00  0.00000000000E+00  0.99999998245E-14  0.12500000000E+03  0.12500000000E+03 0.  0.
        -13    1    3    3    0    0  0.34541082310E+01 -0.17345779751E+02 -0.36257041836E+02  0.40340936845E+02  0.10566000000E+00 0. -1.
         23    2    1    0    0    0 -0.30919188665E+02 -0.62697542698E+01  0.25455553966E+01  0.93348998458E+02  0.87819414793E+02 0.  0.
         13    1    3    3    0    0 -0.34373296896E+02  0.11076025481E+02  0.38802597232E+02  0.53008061613E+02  0.10566000000E+00 0.  1.
         22    1    1    0    0    0  0.30919188665E+02  0.62697542698E+01 -0.25455553966E+01  0.31651001542E+02  0.00000000000E+00 0.  1.
</event>
<event>
 5    1  0.1724243E-003  0.9118800E+02  0.7818608E-02  0.1130116E+00
         25   -1    0    0    0    0  0.00000000000E+00  0.00000000000E+00  0.99999998245E-14  0.12500000000E+03  0.12500000000E+03 0.  0.
        -13    1    3    3    0    0  0.48326688660E+02  0.24168435927E+01  0.32096706875E+01  0.48493536887E+02  0.10566000000E+00 0.  1.
         23    2    1    0    0    0  0.67509905752E+01  0.17050984675E+02  0.21957770713E+02  0.96391336158E+02  0.92047998564E+02 0.  0.
         13    1    3    3    0    0 -0.41575698085E+02  0.14634141083E+02  0.18748100025E+02  0.47897799272E+02  0.10566000000E+00 0. -1.
         22    1    1    0    0    0 -0.67509905752E+01 -0.17050984675E+02 -0.21957770713E+02  0.28608663842E+02  0.00000000000E+00 0.  1.
</event>
<event>
 5    1  0.1724243E-003  0.9118800E+02  0.7818608E-02  0.1130116E+00
         25   -1    0    0    0    0  0.00000000000E+00  0.00000000000E+00  0.99999998245E-14  0.12500000000E+03  0.12500000000E+03 0.  0.
        -13    1    3    3    0    0 -0.61408180649E+01  0.19577703053E+02 -0.58767120071E+02  0.62246137782E+02  0.10566000000E+00 0. -1.
         23    2    1    0    0    0 -0.12090654443E+01  0.61691445367E+01 -0.29789238587E+02  0.94554656856E+02  0.89519071789E+02 0.  0.
         13    1    3    3    0    0  0.49317526206E+01 -0.13408558517E+02  0.28977881484E+02  0.32308519074E+02  0.10566000000E+00 0.  1.
         22    1    1    0    0    0  0.12090654443E+01 -0.61691445367E+01  0.29789238587E+02  0.30445343144E+02  0.00000000000E+00 0. -1.
</event>
<event>
 5    1  0.1724243E-003  0.9118800E+02  0.7818608E-02  0.1130116E+00
         25   -1    0    0    0    0  0.00000000000E+00  0.00000000000E+00  0.99999998245E-14  0.12500000000E+03  0.12500000000E+03 0.  0.
        -13    1    3    3    0    0 -0.70168138822E+01  0.12762566180E+02 -0.48010968580E+02  0.50171536159E+02  0.10566000000E+00 0. -1.
         23    2    1    0    0    0  0.23597020460E+02  0.99849972845E+01 -0.14865083413E+02  0.95377538080E+02  0.90660821306E+02 0.  0.
         13    1    3    3    0    0  0.30613834342E+02 -0.27775688957E+01  0.33145885167E+02  0.45206001921E+02  0.10566000000E+00 0.  1.
         22    1    1    0    0    0 -0.23597020460E+02 -0.99849972845E+01  0.14865083413E+02  0.29622461920E+02  0.00000000000E+00 0. -1.
</event>
<event>
 5    1  0.1724243E-003  0.9118800E+02  0.7818608E-02  0.1130116E+00
         25   -1    0    0    0    0  0.00000000000E+00  0.00000000000E+00  0.99999998245E-14  0.12500000000E+03  0.12500000000E+03 0.  0.
        -13    1    3    3    0    0  0.45453217137E+02 -0.18614587268E+02 -0.41293753315E+01  0.49290574270E+02  0.10566000000E+00 0.  1.
         23    2    1    0    0    0  0.15898880942E+02  0.10364101222E+02 -0.23335901914E+02  0.94920882202E+02  0.90028998387E+02 0.  0.
         13    1    3    3    0    0 -0.29554336195E+02  0.28978688490E+02 -0.19206526583E+02  0.45630307932E+02  0.10566000000E+00 0. -1.
         22    1    1    0    0    0 -0.15898880942E+02 -0.10364101222E+02  0.23335901914E+02  0.30079117798E+02  0.00000000000E+00 0.  1.
</event>
<event>
 5    1  0.1724243E-003  0.9118800E+02  0.7818608E-02  0.1130116E+00
         25   -1    0    0    0    0  0.00000000000E+00  0.00000000000E+00  0.99999998245E-14  0.12500000000E+03  0.12500000000E+03 0.  0.
        -13    1    3    3    0    0 -0.41109189248E+01  0.27939850659E+02  0.18872927005E+02  0.33966651985E+02  0.10566000000E+00 0. -1.
         23    2    1    0    0    0  0.14194739014E+02 -0.22828831757E+02 -0.11348635305E+02  0.95820594619E+02  0.91269648048E+02 0.  0.
         13    1    3    3    0    0  0.18305657939E+02 -0.50768682417E+02 -0.30221562311E+02  0.61853942634E+02  0.10566000000E+00 0.  1.
         22    1    1    0    0    0 -0.14194739014E+02  0.22828831757E+02  0.11348635305E+02  0.29179405381E+02  0.00000000000E+00 0.  1.
</event>
<event>
 5    1  0.1724243E-003  0.9118800E+02  0.7818608E-02  0.1130116E+00
         25   -1    0    0    0    0  0.00000000000E+00  0.00000000000E+00  0.99999998245E-14  0.12500000000E+03  0.12500000000E+03 0.  0.
        -13    1    3    3    0    0  0.38833893006E+02  0.14234157197E+02 -0.22915859319E+02  0.47284566716E+02  0.10566000000E+00 0.  1.
         23    2    1    0    0    0  0.10077182794E+02 -0.23425591892E+02 -0.15257034811E+02  0.95283252537E+02  0.90530730331E+02 0.  0.
         13    1    3    3    0    0 -0.28756710213E+02 -0.37659749089E+02  0.76588245089E+01  0.47998685821E+02  0.10566000000E+00 0. -1.
         22    1    1    0    0    0 -0.10077182794E+02  0.23425591892E+02  0.15257034811E+02  0.29716747463E+02  0.00000000000E+00 0.  1.
</event>
<event>
 5    1  0.1724243E-003  0.9118800E+02  0.7818608E-02  0.1130116E+00
         25   -1    0    0    0    0  0.00000000000E+00  0.00000000000E+00  0.99999998245E-14  0.12500000000E+03  0.12500000000E+03 0.  0.
        -13    1    3    3    0    0  0.13509457277E+02 -0.21728452987E+02  0.26535063495E+02  0.36861251523E+02  0.10566000000E+00 0. -1.
         23    2    1    0    0    0 -0.27669562199E+02 -0.27646688447E+02  0.60893787518E+00  0.85880761003E+02  0.76453843924E+02 0.  0.
         13    1    3    3    0    0 -0.41179019476E+02 -0.59182354601E+01 -0.25926125620E+02  0.49019509480E+02  0.10566000000E+00 0.  1.
         22    1    1    0    0    0  0.27669562199E+02  0.27646688447E+02 -0.60893787518E+00  0.39119238997E+02  0.00000000000E+00 0.  1.
</event>
<event>
 5    1  0.1724243E-003  0.9118800E+02  0.7818608E-02  0.1130116E+00
         25   -1    0    0    0    0  0.00000000000E+00  0.00000000000E+00  0.99999998245E-14  0.12500000000E+03  0.12500000000E+03 0.  0.
        -13    1    3    3    0    0 -0.28948860297E+02 -0.70339088360E+00 -0.44273864881E+02  0.52902906789E+02  0.10566000000E+00 0. -1.
         23    2    1    0    0    0 -0.23350974482E+02 -0.16655358463E+02 -0.47018384705E+01  0.95934964996E+02  0.91426151887E+02 0.  0.
         13    1    3    3    0    0  0.55978858149E+01 -0.15951967579E+02  0.39572026410E+02  0.43032058207E+02  0.10566000000E+00 0.  1.
         22    1    1    0    0    0  0.23350974482E+02  0.16655358463E+02  0.47018384705E+01  0.29065035004E+02  0.00000000000E+00 0. -1.
</event>
<event>
 5    1  0.1724243E-003  0.9118800E+02  0.7818608E-02  0.1130116E+00
         25   -1    0    0    0    0  0.00000000000E+00  0.00000000000E+00  0.99999998245E-14  0.12500000000E+03  0.12500000000E+03 0.  0.
        -13    1    3    3    0    0  0.42965538884E+02 -0.33217984457E+02  0.22859079084E+02  0.58923854962E+02  0.10566000000E+00 0.  1.
         23    2    1    0    0    0  0.25883249963E+02 -0.21310961208E+01  0.14048633803E+02  0.95472922410E+02  0.90792238668E+02 0.  0.
         13    1    3    3    0    0 -0.17082288921E+02  0.31086888336E+02 -0.88104452815E+01  0.36549067448E+02  0.10566000000E+00 0. -1.
         22    1    1    0    0    0 -0.25883249963E+02  0.21310961208E+01 -0.14048633803E+02  0.29527077590E+02  0.00000000000E+00 0.  1.
</event>
<event>
 5    1  0.1724243E-003  0.9118800E+02  0.7818608E-02  0.1130116E+00
         25   -1    0    0    0    0  0.00000000000E+00  0.00000000000E+00  0.99999998245E-14  0.12500000000E+03  0.12500000000E+03 0.  0.
        -13    1    3    3    0    0  0.14387510041E+02  0.87854676928E+01  0.31813260237E+02  0.36003882828E+02  0.10566000000E+00 0.  1.
         23    2    1    0    0    0 -0.26767730772E+02 -0.85682653028E+01 -0.79369718089E+01  0.95795169878E+02  0.91234820488E+02 0.  0.
         13    1    3    3    0    0 -0.41155240813E+02 -0.17353732996E+02 -0.39750232046E+02  0.59791287049E+02  0.10566000000E+00 0. -1.
         22    1    1    0    0    0  0.26767730772E+02  0.85682653028E+01  0.79369718089E+01  0.29204830122E+02  0.00000000000E+00 0. -1.
</event>
<event>
 5    1  0.1724243E-003  0.9118800E+02  0.7818608E-02  0.1130116E+00
         25   -1    0    0    0    0  0.00000000000E+00  0.00000000000E+00  0.99999998245E-14  0.12500000000E+03  0.12500000000E+03 0.  0.
        -13    1    3    3    0    0 -0.19205313679E+02  0.26787675067E+02  0.19613495234E+02  0.38355233911E+02  0.10566000000E+00 0.  1.
         23    2    1    0    0    0  0.26687770964E+02  0.64028428350E+01 -0.89565023287E+01  0.96130423464E+02  0.91692997912E+02 0.  0.
         13    1    3    3    0    0  0.45893084643E+02 -0.20384832232E+02 -0.28569997563E+02  0.57775189554E+02  0.10566000000E+00 0. -1.
         22    1    1    0    0    0 -0.26687770964E+02 -0.64028428350E+01  0.89565023287E+01  0.28869576536E+02  0.00000000000E+00 0. -1.
</event>
<event>
 5    1  0.1724243E-003  0.9118800E+02  0.7818608E-02  0.1130116E+00
         25   -1    0    0    0    0  0.00000000000E+00  0.00000000000E+00  0.99999998245E-14  0.12500000000E+03  0.12500000000E+03 0.  0.
        -13    1    3    3    0    0 -0.20889253981E+02 -0.56808524437E+02 -0.33244937691E+00  0.60528431891E+02  0.10566000000E+00 0.  1.
         23    2    1    0    0    0  0.75910923581E+00 -0.29268257912E+02 -0.24275744339E+01  0.95621431525E+02  0.90996471807E+02 0.  0.
         13    1    3    3    0    0  0.21648363217E+02  0.27540266525E+02 -0.20951250570E+01  0.35092999634E+02  0.10566000000E+00 0. -1.
         22    1    1    0    0    0 -0.75910923581E+00  0.29268257912E+02  0.24275744339E+01  0.29378568475E+02  0.00000000000E+00 0.  1.
</event>
<event>
 5    1  0.1724243E-003  0.9118800E+02  0.7818608E-02  0.1130116E+00
         25   -1    0    0    0    0  0.00000000000E+00  0.00000000000E+00  0.99999998245E-14  0.12500000000E+03  0.12500000000E+03 0.  0.
        -13    1    3    3    0    0 -0.13718347425E+02  0.37911542200E+02 -0.67050953674E+01  0.40871109062E+02  0.10566000000E+00 0. -1.
         23    2    1    0    0    0  0.21095211301E+02 -0.21967149100E+01 -0.20244610862E+02  0.95679737975E+02  0.91076530972E+02 0.  0.
         13    1    3    3    0    0  0.34813558726E+02 -0.40108257110E+02 -0.13539515495E+02  0.54808628914E+02  0.10566000000E+00 0.  1.
         22    1    1    0    0    0 -0.21095211301E+02  0.21967149100E+01  0.20244610862E+02  0.29320262025E+02  0.00000000000E+00 0.  1.
</event>
<event>
 5    1  0.1724243E-003  0.9118800E+02  0.7818608E-02  0.1130116E+00
         25   -1    0    0    0    0  0.00000000000E+00  0.00000000000E+00  0.99999998245E-14  0.12500000000E+03  0.12500000000E+03 0.  0.
        -13    1    3    3    0    0 -0.29750046796E+02 -0.33408210555E+01  0.18905808566E+02  0.35407162146E+02  0.10566000000E+00 0.  1.
         23    2    1    0    0    0  0.60394138343E+01  0.27717675504E+01 -0.28848187790E+02  0.95396365872E+02  0.90686776699E+02 0.  0.
         13    1    3    3    0    0  0.35789460630E+02  0.61125886059E+01 -0.47753996356E+02  0.59989203726E+02  0.10566000000E+00 0. -1.
         22    1    1    0    0    0 -0.60394138343E+01 -0.27717675504E+01  0.28848187790E+02  0.29603634128E+02  0.00000000000E+00 0. -1.
</event>
<event>
 5    1  0.1724243E-003  0.9118800E+02  0.7818608E-02  0.1130116E+00
         25   -1    0    0    0    0  0.00000000000E+00  0.00000000000E+00  0.99999998245E-14  0.12500000000E+03  0.12500000000E+03 0.  0.
        -13    1    3    3    0    0 -0.20878949146E+02  0.31677328060E+02  0.49383662827E+02  0.62274721587E+02  0.10566000000E+00 0.  1.
         23    2    1    0    0    0 -0.92901021196E+01  0.17981520896E+02  0.21154353617E+02  0.95722913942E+02  0.91135769517E+02 0.  0.
         13    1    3    3    0    0  0.11588847026E+02 -0.13695807165E+02 -0.28229309210E+02  0.33448192355E+02  0.10566000000E+00 0. -1.
         22    1    1    0    0    0  0.92901021196E+01 -0.17981520896E+02 -0.21154353617E+02  0.29277086058E+02  0.00000000000E+00 0.  1.
</event>
<event>
 5    1  0.1724243E-003  0.9118800E+02  0.7818608E-02  0.1130116E+00
         25   -1    0    0    0    0  0.00000000000E+00  0.00000000000E+00  0.99999998245E-14  0.12500000000E+03  0.12500000000E+03 0.  0.
        -13    1    3    3    0    0  0.65449179714E+01  0.33037438662E+02 -0.10455900498E+02  0.35265355859E+02  0.10566000000E+00 0.  1.
         23    2    1    0    0    0  0.15259774370E+02 -0.22941152811E+02  0.10277050282E+02  0.95592943557E+02  0.90957330047E+02 0.  0.
         13    1    3    3    0    0  0.87148563986E+01 -0.55978591473E+02  0.20732950781E+02  0.60327587698E+02  0.10566000000E+00 0. -1.
         22    1    1    0    0    0 -0.15259774370E+02  0.22941152811E+02 -0.10277050282E+02  0.29407056443E+02  0.00000000000E+00 0. -1.
</event>
<event>
 5    1  0.1724243E-003  0.9118800E+02  0.7818608E-02  0.1130116E+00
         25   -1    0    0    0    0  0.00000000000E+00  0.00000000000E+00  0.99999998245E-14  0.12500000000E+03  0.12500000000E+03 0.  0.
        -13    1    3    3    0    0  0.44137221263E+02  0.15571692692E+02 -0.18379803791E+02  0.50283200630E+02  0.10566000000E+00 0. -1.
         23    2    1    0    0    0  0.20416507451E+02 -0.20276220996E+02 -0.12341254204E+02  0.93690808543E+02  0.88304598610E+02 0.  0.
         13    1    3    3    0    0 -0.23720713813E+02 -0.35847913689E+02  0.60385495864E+01  0.43407607913E+02  0.10566000000E+00 0.  1.
         22    1    1    0    0    0 -0.20416507451E+02  0.20276220996E+02  0.12341254204E+02  0.31309191457E+02  0.00000000000E+00 0. -1.
</event>
<event>
 5    1  0.1724243E-003  0.9118800E+02  0.7818608E-02  0.1130116E+00
         25   -1    0    0    0    0  0.00000000000E+00  0.00000000000E+00  0.99999998245E-14  0.12500000000E+03  0.12500000000E+03 0.  0.
        -13    1    3    3    0    0 -0.32510456893E+02 -0.31423005083E+02  0.26788464273E+02  0.52554429290E+02  0.10566000000E+00 0. -1.
         23    2    1    0    0    0 -0.17949186394E+02  0.63002780355E+01  0.25726230165E+02  0.93004598549E+02  0.87327828539E+02 0.  0.
         13    1    3    3    0    0  0.14561270500E+02  0.37723283118E+02 -0.10622341083E+01  0.40450169259E+02  0.10566000000E+00 0.  1.
         22    1    1    0    0    0  0.17949186394E+02 -0.63002780355E+01 -0.25726230165E+02  0.31995401451E+02  0.00000000000E+00 0. -1.
</event>
<event>
 5    1  0.1724243E-003  0.9118800E+02  0.7818608E-02  0.1130116E+00
         25   -1    0    0    0    0  0.00000000000E+00  0.00000000000E+00  0.99999998245E-14  0.12500000000E+03  0.12500000000E+03 0.  0.
        -13    1    3    3    0    0 -0.56886344547E+01  0.17099253937E+01 -0.60066684547E+02  0.60359772724E+02  0.10566000000E+00 0.  1.
         23    2    1    0    0    0 -0.17595671821E+01  0.12188850976E+02 -0.25724899006E+02  0.96479225227E+02  0.92167273513E+02 0.  0.
         13    1    3    3    0    0  0.39290672727E+01  0.10478925582E+02  0.34341785541E+02  0.36119452504E+02  0.10566000000E+00 0. -1.
         22    1    1    0    0    0  0.17595671821E+01 -0.12188850976E+02  0.25724899006E+02  0.28520774773E+02  0.00000000000E+00 0.  1.
</event>
<event>
 5    1  0.1724243E-003  0.9118800E+02  0.7818608E-02  0.1130116E+00
         25   -1    0    0    0    0  0.00000000000E+00  0.00000000000E+00  0.99999998245E-14  0.12500000000E+03  0.12500000000E+03 0.  0.
        -13    1    3    3    0    0 -0.38263803547E+02  0.41275642947E+02 -0.79461765777E+01  0.56841448335E+02  0.10566000000E+00 0. -1.
         23    2    1    0    0    0 -0.74855387199E+01  0.19064618584E+02 -0.19706568585E+02  0.96577441757E+02  0.92300381577E+02 0.  0.
         13    1    3    3    0    0  0.30778264827E+02 -0.22211024363E+02 -0.11760392007E+02  0.39735993422E+02  0.10566000000E+00 0.  1.
         22    1    1    0    0    0  0.74855387199E+01 -0.19064618584E+02  0.19706568585E+02  0.28422558243E+02  0.00000000000E+00 0. -1.
</event>
<event>
 5    1  0.1724243E-003  0.9118800E+02  0.7818608E-02  0.1130116E+00
         25   -1    0    0    0    0  0.00000000000E+00  0.00000000000E+00  0.99999998245E-14  0.12500000000E+03  0.12500000000E+03 0.  0.
        -13    1    3    3    0    0 -0.32305243987E+02 -0.26708618304E+02 -0.35957459273E+02  0.55226163384E+02  0.10566000000E+00 0. -1.
         23    2    1    0    0    0 -0.24322687720E+02  0.58709211248E+01 -0.84999547909E+01  0.98574442594E+02  0.94966365880E+02 0.  0.
         13    1    3    3    0    0  0.79825562662E+01  0.32579539429E+02  0.27457504482E+02  0.43348279209E+02  0.10566000000E+00 0.  1.
         22    1    1    0    0    0  0.24322687720E+02 -0.58709211248E+01  0.84999547909E+01  0.26425557406E+02  0.00000000000E+00 0. -1.
</event>
<event>
 5    1  0.1724243E-003  0.9118800E+02  0.7818608E-02  0.1130116E+00
         25   -1    0    0    0    0  0.00000000000E+00  0.00000000000E+00  0.99999998245E-14  0.12500000000E+03  0.12500000000E+03 0.  0.
        -13    1    3    3    0    0  0.23989964924E+02 -0.56175333171E+01  0.28520300773E+02  0.37689439076E+02  0.10566000000E+00 0. -1.
         23    2    1    0    0    0 -0.28339497901E+02  0.57879770373E+01  0.87335072488E+01  0.94785732371E+02  0.89841154784E+02 0.  0.
         13    1    3    3    0    0 -0.52329462825E+02  0.11405510354E+02 -0.19786793524E+02  0.57096293295E+02  0.10566000000E+00 0.  1.
         22    1    1    0    0    0  0.28339497901E+02 -0.57879770373E+01 -0.87335072488E+01  0.30214267629E+02  0.00000000000E+00 0.  1.
</event>
<event>
 5    1  0.1724243E-003  0.9118800E+02  0.7818608E-02  0.1130116E+00
         25   -1    0    0    0    0  0.00000000000E+00  0.00000000000E+00  0.99999998245E-14  0.12500000000E+03  0.12500000000E+03 0.  0.
        -13    1    3    3    0    0 -0.50612239078E+02  0.23713345992E+02 -0.13694032262E+02  0.57545279618E+02  0.10566000000E+00 0.  1.
         23    2    1    0    0    0 -0.22413340240E+02 -0.13210368721E+01 -0.18952053658E+02  0.95618316981E+02  0.90992193321E+02 0.  0.
         13    1    3    3    0    0  0.28198898838E+02 -0.25034382864E+02 -0.52580213962E+01  0.38073037364E+02  0.10566000000E+00 0. -1.
         22    1    1    0    0    0  0.22413340240E+02  0.13210368721E+01  0.18952053658E+02  0.29381683019E+02  0.00000000000E+00 0.  1.
</event>
<event>
 5    1  0.1724243E-003  0.9118800E+02  0.7818608E-02  0.1130116E+00
         25   -1    0    0    0    0  0.00000000000E+00  0.00000000000E+00  0.99999998245E-14  0.12500000000E+03  0.12500000000E+03 0.  0.
        -13    1    3    3    0    0  0.17619407170E+02 -0.43893420132E+02  0.32198031938E+02  0.57217132614E+02  0.10566000000E+00 0.  1.
         23    2    1    0    0    0 -0.63864392411E+00 -0.28479605800E+02  0.10245975548E+01  0.96494814283E+02  0.92188413430E+02 0.  0.
         13    1    3    3    0    0 -0.18258051094E+02  0.15413814331E+02 -0.31173434383E+02  0.39277681669E+02  0.10566000000E+00 0. -1.
         22    1    1    0    0    0  0.63864392411E+00  0.28479605800E+02 -0.10245975548E+01  0.28505185717E+02  0.00000000000E+00 0. -1.
</event>
<event>
 5    1  0.1724243E-003  0.9118800E+02  0.7818608E-02  0.1130116E+00
         25   -1    0    0    0    0  0.00000000000E+00  0.00000000000E+00  0.99999998245E-14  0.12500000000E+03  0.12500000000E+03 0.  0.
        -13    1    3    3    0    0  0.34892583263E+02  0.17630341623E+02 -0.24574149420E+02  0.46175981812E+02  0.10566000000E+00 0.  1.
         23    2    1    0    0    0 -0.13682363909E+02  0.19697706110E+02 -0.17508282578E+02  0.95305780579E+02  0.90561830507E+02 0.  0.
         13    1    3    3    0    0 -0.48574947172E+02  0.20673644875E+01  0.70658668418E+01  0.49129798768E+02  0.10566000000E+00 0. -1.
         22    1    1    0    0    0  0.13682363909E+02 -0.19697706110E+02  0.17508282578E+02  0.29694219421E+02  0.00000000000E+00 0.  1.
</event>
<event>
 5    1  0.1724243E-003  0.9118800E+02  0.7818608E-02  0.1130116E+00
         25   -1    0    0    0    0  0.00000000000E+00  0.00000000000E+00  0.99999998245E-14  0.12500000000E+03  0.12500000000E+03 0.  0.
        -13    1    3    3    0    0  0.32619047135E+02  0.11801464851E+02 -0.83053005507E+01  0.35668837798E+02  0.10566000000E+00 0. -1.
         23    2    1    0    0    0 -0.55729658499E+01 -0.25440665817E+02  0.16153629935E+02  0.94353219000E+02  0.89237350645E+02 0.  0.
         13    1    3    3    0    0 -0.38192012985E+02 -0.37242130668E+02  0.24458930486E+02  0.58684381202E+02  0.10566000000E+00 0.  1.
         22    1    1    0    0    0  0.55729658499E+01  0.25440665817E+02 -0.16153629935E+02  0.30646781000E+02  0.00000000000E+00 0.  1.
</event>
<event>
 5    1  0.1724243E-003  0.9118800E+02  0.7818608E-02  0.1130116E+00
         25   -1    0    0    0    0  0.00000000000E+00  0.00000000000E+00  0.99999998245E-14  0.12500000000E+03  0.12500000000E+03 0.  0.
        -13    1    3    3    0    0 -0.40191484501E+02  0.24036839747E+02  0.35213833533E+02  0.58593091125E+02  0.10566000000E+00 0. -1.
         23    2    1    0    0    0 -0.11682857068E+02  0.21758485945E+01  0.27078772843E+02  0.95428334422E+02  0.90730830512E+02 0.  0.
         13    1    3    3    0    0  0.28508627433E+02 -0.21860991153E+02 -0.81350606900E+01  0.36835243297E+02  0.10566000000E+00 0.  1.
         22    1    1    0    0    0  0.11682857068E+02 -0.21758485945E+01 -0.27078772843E+02  0.29571665578E+02  0.00000000000E+00 0. -1.
</event>
<event>
 5    1  0.1724243E-003  0.9118800E+02  0.7818608E-02  0.1130116E+00
         25   -1    0    0    0    0  0.00000000000E+00  0.00000000000E+00  0.99999998245E-14  0.12500000000E+03  0.12500000000E+03 0.  0.
        -13    1    3    3    0    0  0.10531857459E+02  0.51302067893E+02  0.12087993637E+01  0.52386014847E+02  0.10566000000E+00 0.  1.
         23    2    1    0    0    0 -0.19150923419E+02  0.20498465955E+02  0.82949876081E+01  0.95746764389E+02  0.91168476445E+02 0.  0.
         13    1    3    3    0    0 -0.29682780877E+02 -0.30803601938E+02  0.70861882444E+01  0.43360749542E+02  0.10566000000E+00 0. -1.
         22    1    1    0    0    0  0.19150923419E+02 -0.20498465955E+02 -0.82949876081E+01  0.29253235611E+02  0.00000000000E+00 0.  1.
</event>
<event>
 5    1  0.1724243E-003  0.9118800E+02  0.7818608E-02  0.1130116E+00
         25   -1    0    0    0    0  0.00000000000E+00  0.00000000000E+00  0.99999998245E-14  0.12500000000E+03  0.12500000000E+03 0.  0.
        -13    1    3    3    0    0 -0.50480541511E+02  0.34757111558E+02 -0.84860927964E+01  0.61873797443E+02  0.10566000000E+00 0.  1.
         23    2    1    0    0    0 -0.27401663976E+02  0.11749039980E+02 -0.62400423973E+01  0.94539710142E+02  0.89498198504E+02 0.  0.
         13    1    3    3    0    0  0.23078877535E+02 -0.23008071578E+02  0.22460503991E+01  0.32665912698E+02  0.10566000000E+00 0. -1.
         22    1    1    0    0    0  0.27401663976E+02 -0.11749039980E+02  0.62400423973E+01  0.30460289858E+02  0.00000000000E+00 0.  1.
</event>
<event>
 5    1  0.1724243E-003  0.9118800E+02  0.7818608E-02  0.1130116E+00
         25   -1    0    0    0    0  0.00000000000E+00  0.00000000000E+00  0.99999998245E-14  0.12500000000E+03  0.12500000000E+03 0.  0.
        -13    1    3    3    0    0  0.50145942698E+00  0.31130518073E+02  0.10304848299E+01  0.31151784540E+02  0.10566000000E+00 0. -1.
         23    2    1    0    0    0 -0.21712716732E+02 -0.24875556891E+02 -0.45882309484E+01  0.91664024511E+02  0.85387388576E+02 0.  0.
         13    1    3    3    0    0 -0.22214176159E+02 -0.56006074964E+02 -0.56187157782E+01  0.60512239971E+02  0.10566000000E+00 0.  1.
         22    1    1    0    0    0  0.21712716732E+02  0.24875556891E+02  0.45882309484E+01  0.33335975489E+02  0.00000000000E+00 0.  1.
</event>
<event>
 5    1  0.1724243E-003  0.9118800E+02  0.7818608E-02  0.1130116E+00
         25   -1    0    0    0    0  0.00000000000E+00  0.00000000000E+00  0.99999998245E-14  0.12500000000E+03  0.12500000000E+03 0.  0.
        -13    1    3    3    0    0 -0.40482339284E+02 -0.15605098326E+02  0.16827378261E+01  0.43418678679E+02  0.10566000000E+00 0.  1.
         23    2    1    0    0    0 -0.53486261756E+01  0.14621497754E+02  0.25190552964E+02  0.95386490293E+02  0.90673163468E+02 0.  0.
         13    1    3    3    0    0  0.35133713108E+02  0.30226596080E+02  0.23507815138E+02  0.51967811614E+02  0.10566000000E+00 0. -1.
         22    1    1    0    0    0  0.53486261756E+01 -0.14621497754E+02 -0.25190552964E+02  0.29613509707E+02  0.00000000000E+00 0. -1.
</event>
<event>
 5    1  0.1724243E-003  0.9118800E+02  0.7818608E-02  0.1130116E+00
         25   -1    0    0    0    0  0.00000000000E+00  0.00000000000E+00  0.99999998245E-14  0.12500000000E+03  0.12500000000E+03 0.  0.
        -13    1    3    3    0    0  0.11786271219E+02 -0.93766097020E+01 -0.33418348569E+02  0.36655615994E+02  0.10566000000E+00 0.  1.
         23    2    1    0    0    0  0.37458923631E+01  0.32373453966E+02  0.25011255585E+01  0.92314714927E+02  0.86334690198E+02 0.  0.
         13    1    3    3    0    0 -0.80403788556E+01  0.41750063668E+02  0.35919474128E+02  0.55659098933E+02  0.10566000000E+00 0. -1.
         22    1    1    0    0    0 -0.37458923631E+01 -0.32373453966E+02 -0.25011255585E+01  0.32685285073E+02  0.00000000000E+00 0. -1.
</event>
<event>
 5    1  0.1724243E-003  0.9118800E+02  0.7818608E-02  0.1130116E+00
         25   -1    0    0    0    0  0.00000000000E+00  0.00000000000E+00  0.99999998245E-14  0.12500000000E+03  0.12500000000E+03 0.  0.
        -13    1    3    3    0    0 -0.41925741560E+02  0.36154017360E+02 -0.15467308055E+02  0.57481558426E+02  0.10566000000E+00 0.  1.
         23    2    1    0    0    0 -0.17985783503E+02  0.27124510520E+02  0.72032402427E+01  0.91666621096E+02  0.85391189674E+02 0.  0.
         13    1    3    3    0    0  0.23939958057E+02 -0.90295068398E+01  0.22670548298E+02  0.34185062670E+02  0.10566000000E+00 0. -1.
         22    1    1    0    0    0  0.17985783503E+02 -0.27124510520E+02 -0.72032402427E+01  0.33333378904E+02  0.00000000000E+00 0.  1.
</event>
<event>
 5    1  0.1724243E-003  0.9118800E+02  0.7818608E-02  0.1130116E+00
         25   -1    0    0    0    0  0.00000000000E+00  0.00000000000E+00  0.99999998245E-14  0.12500000000E+03  0.12500000000E+03 0.  0.
        -13    1    3    3    0    0  0.30244207113E+02  0.35282851920E+02 -0.24074344192E+02  0.52337146614E+02  0.10566000000E+00 0. -1.
         23    2    1    0    0    0  0.15211536924E+02 -0.37639934693E+01 -0.26462256823E+02  0.94245983375E+02  0.89087012766E+02 0.  0.
         13    1    3    3    0    0 -0.15032670188E+02 -0.39046845389E+02 -0.23879126314E+01  0.41908836760E+02  0.10566000000E+00 0.  1.
         22    1    1    0    0    0 -0.15211536924E+02  0.37639934693E+01  0.26462256823E+02  0.30754016625E+02  0.00000000000E+00 0. -1.
</event>
<event>
 5    1  0.1724243E-003  0.9118800E+02  0.7818608E-02  0.1130116E+00
         25   -1    0    0    0    0  0.00000000000E+00  0.00000000000E+00  0.99999998245E-14  0.12500000000E+03  0.12500000000E+03 0.  0.
        -13    1    3    3    0    0  0.27540907526E+02  0.42027635002E+02 -0.89774000535E+01  0.51043398858E+02  0.10566000000E+00 0.  1.
         23    2    1    0    0    0  0.16953345974E+02  0.50038767908E+01 -0.26335059299E+02  0.93282653470E+02  0.87724930137E+02 0.  0.
         13    1    3    3    0    0 -0.10587561552E+02 -0.37023758211E+02 -0.17357659245E+02  0.42239254612E+02  0.10566000000E+00 0. -1.
         22    1    1    0    0    0 -0.16953345974E+02 -0.50038767908E+01  0.26335059299E+02  0.31717346530E+02  0.00000000000E+00 0.  1.
</event>
<event>
 5    1  0.1724243E-003  0.9118800E+02  0.7818608E-02  0.1130116E+00
         25   -1    0    0    0    0  0.00000000000E+00  0.00000000000E+00  0.99999998245E-14  0.12500000000E+03  0.12500000000E+03 0.  0.
        -13    1    3    3    0    0  0.19660464039E+02  0.54594134585E+02 -0.22775954316E+02  0.62336254590E+02  0.10566000000E+00 0.  1.
         23    2    1    0    0    0  0.50933645072E+01  0.23430247087E+02 -0.93154856803E+01  0.99276526011E+02  0.95886033930E+02 0.  0.
         13    1    3    3    0    0 -0.14567099532E+02 -0.31163887497E+02  0.13460468636E+02  0.36940271421E+02  0.10566000000E+00 0. -1.
         22    1    1    0    0    0 -0.50933645072E+01 -0.23430247087E+02  0.93154856803E+01  0.25723473989E+02  0.00000000000E+00 0.  1.
</event>
<event>
 5    1  0.1724243E-003  0.9118800E+02  0.7818608E-02  0.1130116E+00
         25   -1    0    0    0    0  0.00000000000E+00  0.00000000000E+00  0.99999998245E-14  0.12500000000E+03  0.12500000000E+03 0.  0.
        -13    1    3    3    0    0  0.31219781987E+02 -0.90207622601E+01  0.12484623201E+02  0.34812726402E+02  0.10566000000E+00 0. -1.
         23    2    1    0    0    0 -0.28654271983E+02 -0.55619624399E+00  0.12785056053E+01  0.96311827633E+02  0.91939963608E+02 0.  0.
         13    1    3    3    0    0 -0.59874053970E+02  0.84645660161E+01 -0.11206117596E+02  0.61499101231E+02  0.10566000000E+00 0.  1.
         22    1    1    0    0    0  0.28654271983E+02  0.55619624399E+00 -0.12785056053E+01  0.28688172367E+02  0.00000000000E+00 0.  1.
</event>
<event>
 5    1  0.1724243E-003  0.9118800E+02  0.7818608E-02  0.1130116E+00
         25   -1    0    0    0    0  0.00000000000E+00  0.00000000000E+00  0.99999998245E-14  0.12500000000E+03  0.12500000000E+03 0.  0.
        -13    1    3    3    0    0  0.22149659156E+02 -0.47696500935E+02  0.17993006099E+02  0.55581678948E+02  0.10566000000E+00 0.  1.
         23    2    1    0    0    0  0.27265533612E+02 -0.10835422498E+02  0.37806652969E+01  0.95417756441E+02  0.90716256042E+02 0.  0.
         13    1    3    3    0    0  0.51158744557E+01  0.36861078436E+02 -0.14212340802E+02  0.39836077493E+02  0.10566000000E+00 0. -1.
         22    1    1    0    0    0 -0.27265533612E+02  0.10835422498E+02 -0.37806652969E+01  0.29582243559E+02  0.00000000000E+00 0. -1.
</event>
<event>
 5    1  0.1724243E-003  0.9118800E+02  0.7818608E-02  0.1130116E+00
         25   -1    0    0    0    0  0.00000000000E+00  0.00000000000E+00  0.99999998245E-14  0.12500000000E+03  0.12500000000E+03 0.  0.
        -13    1    3    3    0    0  0.23358392712E+02 -0.53863159452E+02 -0.25000975786E+01  0.58763220710E+02  0.10566000000E+00 0.  1.
         23    2    1    0    0    0 -0.84322570647E+00 -0.27613269794E+02 -0.10661004678E+02  0.95388165895E+02  0.90675473386E+02 0.  0.
         13    1    3    3    0    0 -0.24201618418E+02  0.26249889658E+02 -0.81609070992E+01  0.36624945185E+02  0.10566000000E+00 0. -1.
         22    1    1    0    0    0  0.84322570647E+00  0.27613269794E+02  0.10661004678E+02  0.29611834105E+02  0.00000000000E+00 0.  1.
</event>
<event>
 5    1  0.1724243E-003  0.9118800E+02  0.7818608E-02  0.1130116E+00
         25   -1    0    0    0    0  0.00000000000E+00  0.00000000000E+00  0.99999998245E-14  0.12500000000E+03  0.12500000000E+03 0.  0.
        -13    1    3    3    0    0  0.21548292550E+02 -0.45777820050E+02  0.25470317200E+02  0.56645264079E+02  0.10566000000E+00 0. -1.
         23    2    1    0    0    0 -0.34242497641E+00 -0.17590542591E+02  0.27456702514E+02  0.92389956203E+02  0.86443559915E+02 0.  0.
         13    1    3    3    0    0 -0.21890717526E+02  0.28187277459E+02  0.19863853139E+01  0.35744692124E+02  0.10566000000E+00 0.  1.
         22    1    1    0    0    0  0.34242497641E+00  0.17590542591E+02 -0.27456702514E+02  0.32610043797E+02  0.00000000000E+00 0. -1.
</event>
<event>
 5    1  0.1724243E-003  0.9118800E+02  0.7818608E-02  0.1130116E+00
         25   -1    0    0    0    0  0.00000000000E+00  0.00000000000E+00  0.99999998245E-14  0.12500000000E+03  0.12500000000E+03 0.  0.
        -13    1    3    3    0    0 -0.28094745983E+02  0.88559152194E+01 -0.16102078908E+02  0.33571268898E+02  0.10566000000E+00 0.  1.
         23    2    1    0    0    0  0.29548490229E+02  0.37846040237E+01  0.42426816914E+01  0.94909522265E+02  0.90013224396E+02 0.  0.
         13    1    3    3    0    0  0.57643236211E+02 -0.50713111957E+01  0.20344760600E+02  0.61338253367E+02  0.10566000000E+00 0. -1.
         22    1    1    0    0    0 -0.29548490229E+02 -0.37846040237E+01 -0.42426816914E+01  0.30090477735E+02  0.00000000000E+00 0. -1.
</event>
<event>
 5    1  0.1724243E-003  0.9118800E+02  0.7818608E-02  0.1130116E+00
         25   -1    0    0    0    0  0.00000000000E+00  0.00000000000E+00  0.99999998245E-14  0.12500000000E+03  0.12500000000E+03 0.  0.
        -13    1    3    3    0    0 -0.45293593266E+02 -0.25497334386E+02 -0.15331391578E+02  0.54191202086E+02  0.10566000000E+00 0.  1.
         23    2    1    0    0    0 -0.23239795638E+02 -0.10461742263E+02  0.15655909899E+02  0.95089405435E+02  0.90262679767E+02 0.  0.
         13    1    3    3    0    0  0.22053797628E+02  0.15035592123E+02  0.30987301478E+02  0.40898203349E+02  0.10566000000E+00 0. -1.
         22    1    1    0    0    0  0.23239795638E+02  0.10461742263E+02 -0.15655909899E+02  0.29910594565E+02  0.00000000000E+00 0. -1.
</event>
<event>
 5    1  0.1724243E-003  0.9118800E+02  0.7818608E-02  0.1130116E+00
         25   -1    0    0    0    0  0.00000000000E+00  0.00000000000E+00  0.99999998245E-14  0.12500000000E+03  0.12500000000E+03 0.  0.
        -13    1    3    3    0    0  0.29164933681E+02  0.43475399973E+02  0.11141678850E+02  0.53524311589E+02  0.10566000000E+00 0. -1.
         23    2    1    0    0    0  0.37836736542E+01  0.18957859965E+02 -0.17461418989E+02  0.98949706453E+02  0.95459031072E+02 0.  0.
         13    1    3    3    0    0 -0.25381260027E+02 -0.24517540007E+02 -0.28603097839E+02  0.45425394864E+02  0.10566000000E+00 0.  1.
         22    1    1    0    0    0 -0.37836736542E+01 -0.18957859965E+02  0.17461418989E+02  0.26050293547E+02  0.00000000000E+00 0.  1.
</event>
<event>
 5    1  0.1724243E-003  0.9118800E+02  0.7818608E-02  0.1130116E+00
         25   -1    0    0    0    0  0.00000000000E+00  0.00000000000E+00  0.99999998245E-14  0.12500000000E+03  0.12500000000E+03 0.  0.
        -13    1    3    3    0    0 -0.75034635882E+01  0.47668091128E+02 -0.25095069106E+02  0.54390463641E+02  0.10566000000E+00 0. -1.
         23    2    1    0    0    0 -0.15169911491E+02  0.60745343303E+01 -0.23064445991E+02  0.96733503032E+02  0.92511489870E+02 0.  0.
         13    1    3    3    0    0 -0.76664479032E+01 -0.41593556798E+02  0.20306231153E+01  0.42343039390E+02  0.10566000000E+00 0.  1.
         22    1    1    0    0    0  0.15169911491E+02 -0.60745343303E+01  0.23064445991E+02  0.28266496968E+02  0.00000000000E+00 0. -1.
</event>
<event>
 5    1  0.1724243E-003  0.9118800E+02  0.7818608E-02  0.1130116E+00
         25   -1    0    0    0    0  0.00000000000E+00  0.00000000000E+00  0.99999998245E-14  0.12500000000E+03  0.12500000000E+03 0.  0.
        -13    1    3    3    0    0 -0.32691492233E+02  0.40910782495E+01 -0.33942985589E+02  0.47303361618E+02  0.10566000000E+00 0. -1.
         23    2    1    0    0    0 -0.10391889138E+02 -0.27634852106E+02 -0.66160915501E+01  0.94743610953E+02  0.89782530251E+02 0.  0.
         13    1    3    3    0    0  0.22299603095E+02 -0.31725930355E+02  0.27326894039E+02  0.47440249335E+02  0.10566000000E+00 0.  1.
         22    1    1    0    0    0  0.10391889138E+02  0.27634852106E+02  0.66160915501E+01  0.30256389047E+02  0.00000000000E+00 0. -1.
</event>
<event>
 5    1  0.1724243E-003  0.9118800E+02  0.7818608E-02  0.1130116E+00
         25   -1    0    0    0    0  0.00000000000E+00  0.00000000000E+00  0.99999998245E-14  0.12500000000E+03  0.12500000000E+03 0.  0.
        -13    1    3    3    0    0 -0.10742482463E+00  0.31343058116E+02  0.12508392121E+02  0.33747146096E+02  0.10566000000E+00 0.  1.
         23    2    1    0    0    0 -0.23038288168E+01 -0.28711430487E+02 -0.36230205408E+01  0.95969324058E+02  0.91473116348E+02 0.  0.
         13    1    3    3    0    0 -0.21964039922E+01 -0.60054488603E+02 -0.16131412662E+02  0.62222177962E+02  0.10566000000E+00 0. -1.
         22    1    1    0    0    0  0.23038288168E+01  0.28711430487E+02  0.36230205408E+01  0.29030675942E+02  0.00000000000E+00 0. -1.
</event>
<event>
 5    1  0.1724243E-003  0.9118800E+02  0.7818608E-02  0.1130116E+00
         25   -1    0    0    0    0  0.00000000000E+00  0.00000000000E+00  0.99999998245E-14  0.12500000000E+03  0.12500000000E+03 0.  0.
        -13    1    3    3    0    0  0.23370645265E+02  0.44603002935E+02 -0.33780646814E+01  0.50468182214E+02  0.10566000000E+00 0.  1.
         23    2    1    0    0    0  0.85805690849E+01  0.75589582815E+01 -0.26192969006E+02  0.96419663377E+02  0.92086458528E+02 0.  0.
         13    1    3    3    0    0 -0.14790076180E+02 -0.37044044654E+02 -0.22814904325E+02  0.45951481163E+02  0.10566000000E+00 0. -1.
         22    1    1    0    0    0 -0.85805690849E+01 -0.75589582815E+01  0.26192969006E+02  0.28580336623E+02  0.00000000000E+00 0.  1.
</event>
<event>
 5    1  0.1724243E-003  0.9118800E+02  0.7818608E-02  0.1130116E+00
         25   -1    0    0    0    0  0.00000000000E+00  0.00000000000E+00  0.99999998245E-14  0.12500000000E+03  0.12500000000E+03 0.  0.
        -13    1    3    3    0    0 -0.45818524439E+02 -0.15294272529E+01 -0.65884137785E-01  0.45844212658E+02  0.10566000000E+00 0. -1.
         23    2    1    0    0    0 -0.27011001172E+01  0.26554572503E+02 -0.59999520897E+01  0.97642355954E+02  0.93731472775E+02 0.  0.
         13    1    3    3    0    0  0.43117424322E+02  0.28083999756E+02 -0.59340679519E+01  0.51798143296E+02  0.10566000000E+00 0.  1.
         22    1    1    0    0    0  0.27011001172E+01 -0.26554572503E+02  0.59999520897E+01  0.27357644046E+02  0.00000000000E+00 0.  1.
</event>
<event>
 5    1  0.1724243E-003  0.9118800E+02  0.7818608E-02  0.1130116E+00
         25   -1    0    0    0    0  0.00000000000E+00  0.00000000000E+00  0.99999998245E-14  0.12500000000E+03  0.12500000000E+03 0.  0.
        -13    1    3    3    0    0  0.13136741624E+02 -0.17054821580E+02 -0.55805719651E+01  0.22239488913E+02  0.10566000000E+00 0.  1.
         23    2    1    0    0    0 -0.11438013296E+02  0.36595800340E+02 -0.18157828525E+02  0.82576097688E+02  0.70845073378E+02 0.  0.
         13    1    3    3    0    0 -0.24574754920E+02  0.53650621920E+02 -0.12577256560E+02  0.60336608774E+02  0.10566000000E+00 0. -1.
         22    1    1    0    0    0  0.11438013296E+02 -0.36595800340E+02  0.18157828525E+02  0.42423902312E+02  0.00000000000E+00 0. -1.
</event>
<event>
 5    1  0.1724243E-003  0.9118800E+02  0.7818608E-02  0.1130116E+00
         25   -1    0    0    0    0  0.00000000000E+00  0.00000000000E+00  0.99999998245E-14  0.12500000000E+03  0.12500000000E+03 0.  0.
        -13    1    3    3    0    0  0.22003011107E+02 -0.26160478144E+02  0.22060419976E+02  0.40683859306E+02  0.10566000000E+00 0. -1.
         23    2    1    0    0    0 -0.11105113814E+02 -0.24803777863E+02 -0.17795822232E+02  0.92515507730E+02  0.86624920967E+02 0.  0.
         13    1    3    3    0    0 -0.33108124921E+02  0.13567002809E+01 -0.39856242208E+02  0.51831648425E+02  0.10566000000E+00 0.  1.
         22    1    1    0    0    0  0.11105113814E+02  0.24803777863E+02  0.17795822232E+02  0.32484492270E+02  0.00000000000E+00 0.  1.
</event>
<event>
 5    1  0.1724243E-003  0.9118800E+02  0.7818608E-02  0.1130116E+00
         25   -1    0    0    0    0  0.00000000000E+00  0.00000000000E+00  0.99999998245E-14  0.12500000000E+03  0.12500000000E+03 0.  0.
        -13    1    3    3    0    0 -0.37666001575E+02 -0.10259382891E+02  0.47320597327E+02  0.61345193026E+02  0.10566000000E+00 0. -1.
         23    2    1    0    0    0 -0.11683114536E+02 -0.11219569671E+02  0.22373241815E+02  0.97378706436E+02  0.93379208655E+02 0.  0.
         13    1    3    3    0    0  0.25982887039E+02 -0.96018677921E+00 -0.24947355513E+02  0.36033513410E+02  0.10566000000E+00 0.  1.
         22    1    1    0    0    0  0.11683114536E+02  0.11219569671E+02 -0.22373241815E+02  0.27621293564E+02  0.00000000000E+00 0. -1.
</event>
<event>
 5    1  0.1724243E-003  0.9118800E+02  0.7818608E-02  0.1130116E+00
         25   -1    0    0    0    0  0.00000000000E+00  0.00000000000E+00  0.99999998245E-14  0.12500000000E+03  0.12500000000E+03 0.  0.
        -13    1    3    3    0    0 -0.14089036878E+02 -0.35927791670E+02  0.47742032667E+01  0.38885876039E+02  0.10566000000E+00 0.  1.
         23    2    1    0    0    0 -0.16469072370E+02  0.22131751438E+02  0.48243687072E+01  0.96994298797E+02  0.92863204227E+02 0.  0.
         13    1    3    3    0    0 -0.23800354919E+01  0.58059543108E+02  0.50165440511E-01  0.58108422758E+02  0.10566000000E+00 0. -1.
         22    1    1    0    0    0  0.16469072370E+02 -0.22131751438E+02 -0.48243687072E+01  0.28005701203E+02  0.00000000000E+00 0. -1.
</event>
<event>
 5    1  0.1724243E-003  0.9118800E+02  0.7818608E-02  0.1130116E+00
         25   -1    0    0    0    0  0.00000000000E+00  0.00000000000E+00  0.99999998245E-14  0.12500000000E+03  0.12500000000E+03 0.  0.
        -13    1    3    3    0    0  0.44737870718E+02 -0.11326110412E+01  0.12524267746E+02  0.46471801458E+02  0.10566000000E+00 0.  1.
         23    2    1    0    0    0  0.11464322948E+02 -0.20286332621E+01 -0.25476610119E+02  0.96989221419E+02  0.92856369489E+02 0.  0.
         13    1    3    3    0    0 -0.33273547769E+02 -0.89602222094E+00 -0.38000877865E+02  0.50517419961E+02  0.10566000000E+00 0. -1.
         22    1    1    0    0    0 -0.11464322948E+02  0.20286332621E+01  0.25476610119E+02  0.28010778581E+02  0.00000000000E+00 0.  1.
</event>
<event>
 5    1  0.1724243E-003  0.9118800E+02  0.7818608E-02  0.1130116E+00
         25   -1    0    0    0    0  0.00000000000E+00  0.00000000000E+00  0.99999998245E-14  0.12500000000E+03  0.12500000000E+03 0.  0.
        -13    1    3    3    0    0 -0.28360847507E+02 -0.14855574584E+02  0.22378892646E+02  0.39062152624E+02  0.10566000000E+00 0.  1.
         23    2    1    0    0    0  0.18586009740E+02  0.15516669436E+02 -0.32503459262E+01  0.10057109218E+03  0.97559074648E+02 0.  0.
         13    1    3    3    0    0  0.46946857246E+02  0.30372244019E+02 -0.25629238572E+02  0.61508939561E+02  0.10566000000E+00 0. -1.
         22    1    1    0    0    0 -0.18586009740E+02 -0.15516669436E+02  0.32503459262E+01  0.24428907816E+02  0.00000000000E+00 0. -1.
</event>
<event>
 5    1  0.1724243E-003  0.9118800E+02  0.7818608E-02  0.1130116E+00
         25   -1    0    0    0    0  0.00000000000E+00  0.00000000000E+00  0.99999998245E-14  0.12500000000E+03  0.12500000000E+03 0.  0.
        -13    1    3    3    0    0 -0.60609811886E+02 -0.43453683361E+01 -0.44225693899E+01  0.60926199675E+02  0.10566000000E+00 0.  1.
         23    2    1    0    0    0 -0.36058208922E+02 -0.12228660375E+02 -0.12831968719E+01  0.86903003275E+02  0.78107303236E+02 0.  0.
         13    1    3    3    0    0  0.24551602964E+02 -0.78832920389E+01  0.31393725181E+01  0.25976803600E+02  0.10566000000E+00 0. -1.
         22    1    1    0    0    0  0.36058208922E+02  0.12228660375E+02  0.12831968719E+01  0.38096996725E+02  0.00000000000E+00 0.  1.
</event>
<event>
 5    1  0.1724243E-003  0.9118800E+02  0.7818608E-02  0.1130116E+00
         25   -1    0    0    0    0  0.00000000000E+00  0.00000000000E+00  0.99999998245E-14  0.12500000000E+03  0.12500000000E+03 0.  0.
        -13    1    3    3    0    0  0.19974571138E+02  0.42949350944E+02 -0.35371158046E+02  0.59116497056E+02  0.10566000000E+00 0. -1.
         23    2    1    0    0    0 -0.14712267198E+01  0.26291187291E+02 -0.84746669993E+01  0.97337552206E+02  0.93324102200E+02 0.  0.
         13    1    3    3    0    0 -0.21445797858E+02 -0.16658163653E+02  0.26896491047E+02  0.38221055150E+02  0.10566000000E+00 0.  1.
         22    1    1    0    0    0  0.14712267198E+01 -0.26291187291E+02  0.84746669993E+01  0.27662447794E+02  0.00000000000E+00 0. -1.
</event>
<event>
 5    1  0.1724243E-003  0.9118800E+02  0.7818608E-02  0.1130116E+00
         25   -1    0    0    0    0  0.00000000000E+00  0.00000000000E+00  0.99999998245E-14  0.12500000000E+03  0.12500000000E+03 0.  0.
        -13    1    3    3    0    0 -0.18671273906E+02  0.57198141998E+02  0.16698201401E+02  0.62442653783E+02  0.10566000000E+00 0. -1.
         23    2    1    0    0    0 -0.97979571566E+01  0.28852369711E+02  0.65278223979E+01  0.93837977158E+02  0.88512678693E+02 0.  0.
         13    1    3    3    0    0  0.88733167494E+01 -0.28345772288E+02 -0.10170379003E+02  0.31395323375E+02  0.10566000000E+00 0.  1.
         22    1    1    0    0    0  0.97979571566E+01 -0.28852369711E+02 -0.65278223979E+01  0.31162022842E+02  0.00000000000E+00 0. -1.
</event>
<event>
 5    1  0.1724243E-003  0.9118800E+02  0.7818608E-02  0.1130116E+00
         25   -1    0    0    0    0  0.00000000000E+00  0.00000000000E+00  0.99999998245E-14  0.12500000000E+03  0.12500000000E+03 0.  0.
        -13    1    3    3    0    0 -0.13380014218E+02 -0.28436597533E+02 -0.22665162264E+01  0.31508937138E+02  0.10566000000E+00 0. -1.
         23    2    1    0    0    0  0.15424472725E+02  0.24402262952E+02  0.12605429655E+02  0.93499497578E+02  0.88033370915E+02 0.  0.
         13    1    3    3    0    0  0.28804486943E+02  0.52838860485E+02  0.14871945881E+02  0.61990560440E+02  0.10566000000E+00 0.  1.
         22    1    1    0    0    0 -0.15424472725E+02 -0.24402262952E+02 -0.12605429655E+02  0.31500502422E+02  0.00000000000E+00 0.  1.
</event>
<event>
 5    1  0.1724243E-003  0.9118800E+02  0.7818608E-02  0.1130116E+00
         25   -1    0    0    0    0  0.00000000000E+00  0.00000000000E+00  0.99999998245E-14  0.12500000000E+03  0.12500000000E+03 0.  0.
        -13    1    3    3    0    0 -0.40068733865E+02  0.34763182152E+02 -0.27227350047E+02  0.59626521125E+02  0.10566000000E+00 0.  1.
         23    2    1    0    0    0 -0.21229724281E+02  0.31401340918E+02 -0.26450265115E+02  0.78779204581E+02  0.63794993106E+02 0.  0.
         13    1    3    3    0    0  0.18839009584E+02 -0.33618412340E+01  0.77708493200E+00  0.19152683457E+02  0.10566000000E+00 0. -1.
         22    1    1    0    0    0  0.21229724281E+02 -0.31401340918E+02  0.26450265115E+02  0.46220795419E+02  0.00000000000E+00 0.  1.
</event>
<event>
 5    1  0.1724243E-003  0.9118800E+02  0.7818608E-02  0.1130116E+00
         25   -1    0    0    0    0  0.00000000000E+00  0.00000000000E+00  0.99999998245E-14  0.12500000000E+03  0.12500000000E+03 0.  0.
        -13    1    3    3    0    0 -0.23162818857E+02  0.25261546719E+02  0.38745781358E+02  0.51729185738E+02  0.10566000000E+00 0.  1.
         23    2    1    0    0    0 -0.18790207148E+02 -0.13253695615E+02  0.10328476852E+02  0.99792664437E+02  0.96556543586E+02 0.  0.
         13    1    3    3    0    0  0.43726117093E+01 -0.38515242334E+02 -0.28417304506E+02  0.48063478699E+02  0.10566000000E+00 0. -1.
         22    1    1    0    0    0  0.18790207148E+02  0.13253695615E+02 -0.10328476852E+02  0.25207335563E+02  0.00000000000E+00 0. -1.
</event>
<event>
 5    1  0.1724243E-003  0.9118800E+02  0.7818608E-02  0.1130116E+00
         25   -1    0    0    0    0  0.00000000000E+00  0.00000000000E+00  0.99999998245E-14  0.12500000000E+03  0.12500000000E+03 0.  0.
        -13    1    3    3    0    0 -0.51280699329E+02 -0.21622949914E+02 -0.25846251560E+02  0.61362056439E+02  0.10566000000E+00 0. -1.
         23    2    1    0    0    0 -0.24229443711E+02 -0.40559908058E+01 -0.17963954714E+02  0.94566126226E+02  0.89535085617E+02 0.  0.
         13    1    3    3    0    0  0.27051255618E+02  0.17566959108E+02  0.78822968462E+01  0.33204069787E+02  0.10566000000E+00 0.  1.
         22    1    1    0    0    0  0.24229443711E+02  0.40559908058E+01  0.17963954714E+02  0.30433873774E+02  0.00000000000E+00 0. -1.
</event>
<event>
 5    1  0.1724243E-003  0.9118800E+02  0.7818608E-02  0.1130116E+00
         25   -1    0    0    0    0  0.00000000000E+00  0.00000000000E+00  0.99999998245E-14  0.12500000000E+03  0.12500000000E+03 0.  0.
        -13    1    3    3    0    0 -0.17340401240E+02 -0.29527562699E+02 -0.22625068247E+00  0.34243668430E+02  0.10566000000E+00 0.  1.
         23    2    1    0    0    0  0.21134204760E+01  0.28730170155E+02 -0.46347423600E+01  0.95821753651E+02  0.91271235407E+02 0.  0.
         13    1    3    3    0    0  0.19453821716E+02  0.58257732854E+02 -0.44084916776E+01  0.61578085222E+02  0.10566000000E+00 0. -1.
         22    1    1    0    0    0 -0.21134204760E+01 -0.28730170155E+02  0.46347423600E+01  0.29178246349E+02  0.00000000000E+00 0. -1.
</event>
<event>
 5    1  0.1724243E-003  0.9118800E+02  0.7818608E-02  0.1130116E+00
         25   -1    0    0    0    0  0.00000000000E+00  0.00000000000E+00  0.99999998245E-14  0.12500000000E+03  0.12500000000E+03 0.  0.
        -13    1    3    3    0    0  0.37401496216E+02 -0.53701923767E+01 -0.39239896369E+02  0.54474686933E+02  0.10566000000E+00 0. -1.
         23    2    1    0    0    0  0.15661101378E+02  0.19672008318E+02 -0.13458508133E+02  0.96480016676E+02  0.92168346893E+02 0.  0.
         13    1    3    3    0    0 -0.21740394838E+02  0.25042200695E+02  0.25781388236E+02  0.42005329743E+02  0.10566000000E+00 0.  1.
         22    1    1    0    0    0 -0.15661101378E+02 -0.19672008318E+02  0.13458508133E+02  0.28519983324E+02  0.00000000000E+00 0. -1.
</event>
<event>
 5    1  0.1724243E-003  0.9118800E+02  0.7818608E-02  0.1130116E+00
         25   -1    0    0    0    0  0.00000000000E+00  0.00000000000E+00  0.99999998245E-14  0.12500000000E+03  0.12500000000E+03 0.  0.
        -13    1    3    3    0    0 -0.61543727249E+00 -0.10726760821E+02 -0.59027915097E+02  0.59997900675E+02  0.10566000000E+00 0.  1.
         23    2    1    0    0    0 -0.10006773322E+02 -0.12079710015E+02 -0.23690971894E+02  0.96586674682E+02  0.92312884639E+02 0.  0.
         13    1    3    3    0    0 -0.93913360498E+01 -0.13529491939E+01  0.35336943203E+02  0.36588774006E+02  0.10566000000E+00 0. -1.
         22    1    1    0    0    0  0.10006773322E+02  0.12079710015E+02  0.23690971894E+02  0.28413325318E+02  0.00000000000E+00 0.  1.
</event>
<event>
 5    1  0.1724243E-003  0.9118800E+02  0.7818608E-02  0.1130116E+00
         25   -1    0    0    0    0  0.00000000000E+00  0.00000000000E+00  0.99999998245E-14  0.12500000000E+03  0.12500000000E+03 0.  0.
        -13    1    3    3    0    0  0.28243756111E+02  0.40979999909E+02  0.21941860811E+02  0.54392339274E+02  0.10566000000E+00 0. -1.
         23    2    1    0    0    0  0.20491093204E+01  0.77500588843E+01  0.26840391627E+02  0.96988058182E+02  0.92854803567E+02 0.  0.
         13    1    3    3    0    0 -0.26194646791E+02 -0.33229941025E+02  0.48985308168E+01  0.42595718907E+02  0.10566000000E+00 0.  1.
         22    1    1    0    0    0 -0.20491093204E+01 -0.77500588843E+01 -0.26840391627E+02  0.28011941818E+02  0.00000000000E+00 0.  1.
</event>
<event>
 5    1  0.1724243E-003  0.9118800E+02  0.7818608E-02  0.1130116E+00
         25   -1    0    0    0    0  0.00000000000E+00  0.00000000000E+00  0.99999998245E-14  0.12500000000E+03  0.12500000000E+03 0.  0.
        -13    1    3    3    0    0  0.48456059175E+02  0.28545324850E+02  0.10309950512E+02  0.57176319269E+02  0.10566000000E+00 0. -1.
         23    2    1    0    0    0  0.87179772832E+01  0.20408156911E+02  0.15299777720E+02  0.98044867006E+02  0.94266731945E+02 0.  0.
         13    1    3    3    0    0 -0.39738081892E+02 -0.81371679388E+01  0.49898272076E+01  0.40868547737E+02  0.10566000000E+00 0.  1.
         22    1    1    0    0    0 -0.87179772832E+01 -0.20408156911E+02 -0.15299777720E+02  0.26955132994E+02  0.00000000000E+00 0. -1.
</event>
<event>
 5    1  0.1724243E-003  0.9118800E+02  0.7818608E-02  0.1130116E+00
         25   -1    0    0    0    0  0.00000000000E+00  0.00000000000E+00  0.99999998245E-14  0.12500000000E+03  0.12500000000E+03 0.  0.
        -13    1    3    3    0    0 -0.24147573179E+01  0.19637381184E+02  0.46041718925E+02  0.50112960782E+02  0.10566000000E+00 0. -1.
         23    2    1    0    0    0  0.23259218999E+02 -0.12555257474E+01  0.30341161841E+02  0.86748807663E+02  0.77860143307E+02 0.  0.
         13    1    3    3    0    0  0.25673976317E+02 -0.20892906931E+02 -0.15700557085E+02  0.36635846882E+02  0.10566000000E+00 0.  1.
         22    1    1    0    0    0 -0.23259218999E+02  0.12555257474E+01 -0.30341161841E+02  0.38251192337E+02  0.00000000000E+00 0. -1.
</event>
<event>
 5    1  0.1724243E-003  0.9118800E+02  0.7818608E-02  0.1130116E+00
         25   -1    0    0    0    0  0.00000000000E+00  0.00000000000E+00  0.99999998245E-14  0.12500000000E+03  0.12500000000E+03 0.  0.
        -13    1    3    3    0    0 -0.54045900735E+02  0.90445466178E+01  0.35209515366E+01  0.54910577064E+02  0.10566000000E+00 0. -1.
         23    2    1    0    0    0 -0.95738129841E+01  0.21604304858E+02  0.34256350313E+01  0.10112241933E+03  0.98262937223E+02 0.  0.
         13    1    3    3    0    0  0.44472087751E+02  0.12559758240E+02 -0.95316505291E-01  0.46211842262E+02  0.10566000000E+00 0.  1.
         22    1    1    0    0    0  0.95738129841E+01 -0.21604304858E+02 -0.34256350313E+01  0.23877580673E+02  0.00000000000E+00 0.  1.
</event>
<event>
 5    1  0.1724243E-003  0.9118800E+02  0.7818608E-02  0.1130116E+00
         25   -1    0    0    0    0  0.00000000000E+00  0.00000000000E+00  0.99999998245E-14  0.12500000000E+03  0.12500000000E+03 0.  0.
        -13    1    3    3    0    0 -0.55239787858E+02  0.19125497298E+02  0.36486152143E+01  0.58570832046E+02  0.10566000000E+00 0. -1.
         23    2    1    0    0    0 -0.26727388089E+02 -0.70273252696E+01  0.12181774816E+01  0.97337380260E+02  0.93323871893E+02 0.  0.
         13    1    3    3    0    0  0.28512399769E+02 -0.26152822567E+02 -0.24304377327E+01  0.38766548214E+02  0.10566000000E+00 0.  1.
         22    1    1    0    0    0  0.26727388089E+02  0.70273252696E+01 -0.12181774816E+01  0.27662619740E+02  0.00000000000E+00 0. -1.
</event>
<event>
 5    1  0.1724243E-003  0.9118800E+02  0.7818608E-02  0.1130116E+00
         25   -1    0    0    0    0  0.00000000000E+00  0.00000000000E+00  0.99999998245E-14  0.12500000000E+03  0.12500000000E+03 0.  0.
        -13    1    3    3    0    0  0.36034947889E+02 -0.40318054519E+02 -0.24279091097E+02  0.59275192265E+02  0.10566000000E+00 0. -1.
         23    2    1    0    0    0  0.18192217188E+02 -0.36596623163E+02 -0.87855484931E+01  0.83197422861E+02  0.71932994621E+02 0.  0.
         13    1    3    3    0    0 -0.17842730701E+02  0.37214313560E+01  0.15493542604E+02  0.23922230595E+02  0.10566000000E+00 0.  1.
         22    1    1    0    0    0 -0.18192217188E+02  0.36596623163E+02  0.87855484931E+01  0.41802577139E+02  0.00000000000E+00 0. -1.
</event>
<event>
 5    1  0.1724243E-003  0.9118800E+02  0.7818608E-02  0.1130116E+00
         25   -1    0    0    0    0  0.00000000000E+00  0.00000000000E+00  0.99999998245E-14  0.12500000000E+03  0.12500000000E+03 0.  0.
        -13    1    3    3    0    0  0.54234812199E+01  0.35185921302E+02  0.44755631618E+02  0.57188643383E+02  0.10566000000E+00 0.  1.
         23    2    1    0    0    0  0.37447818535E+00  0.27903358856E+02  0.66480247967E+01  0.96313175445E+02  0.91941796051E+02 0.  0.
         13    1    3    3    0    0 -0.50490030346E+01 -0.72825624458E+01 -0.38107606821E+02  0.39124532062E+02  0.10566000000E+00 0. -1.
         22    1    1    0    0    0 -0.37447818535E+00 -0.27903358856E+02 -0.66480247967E+01  0.28686824555E+02  0.00000000000E+00 0.  1.
</event>
<event>
 5    1  0.1724243E-003  0.9118800E+02  0.7818608E-02  0.1130116E+00
         25   -1    0    0    0    0  0.00000000000E+00  0.00000000000E+00  0.99999998245E-14  0.12500000000E+03  0.12500000000E+03 0.  0.
        -13    1    3    3    0    0 -0.46159724642E+02 -0.34037335796E+02 -0.91883771677E+01  0.58083541956E+02  0.10566000000E+00 0.  1.
         23    2    1    0    0    0 -0.16065613975E+02 -0.22477779123E+02  0.10020081899E+02  0.95610264581E+02  0.90981130710E+02 0.  0.
         13    1    3    3    0    0  0.30094110667E+02  0.11559556673E+02  0.19208459067E+02  0.37526722626E+02  0.10566000000E+00 0. -1.
         22    1    1    0    0    0  0.16065613975E+02  0.22477779123E+02 -0.10020081899E+02  0.29389735419E+02  0.00000000000E+00 0.  1.
</event>
<event>
 5    1  0.1724243E-003  0.9118800E+02  0.7818608E-02  0.1130116E+00
         25   -1    0    0    0    0  0.00000000000E+00  0.00000000000E+00  0.99999998245E-14  0.12500000000E+03  0.12500000000E+03 0.  0.
        -13    1    3    3    0    0 -0.15436564298E+02 -0.51580750986E+02  0.55150635957E+01  0.54122901623E+02  0.10566000000E+00 0.  1.
         23    2    1    0    0    0  0.15055411213E+02 -0.25745424676E+02  0.78607500772E+01  0.94157112808E+02  0.88962229076E+02 0.  0.
         13    1    3    3    0    0  0.30491975511E+02  0.25835326310E+02  0.23456864814E+01  0.40034211185E+02  0.10566000000E+00 0. -1.
         22    1    1    0    0    0 -0.15055411213E+02  0.25745424676E+02 -0.78607500772E+01  0.30842887192E+02  0.00000000000E+00 0.  1.
</event>
<event>
 5    1  0.1724243E-003  0.9118800E+02  0.7818608E-02  0.1130116E+00
         25   -1    0    0    0    0  0.00000000000E+00  0.00000000000E+00  0.99999998245E-14  0.12500000000E+03  0.12500000000E+03 0.  0.
        -13    1    3    3    0    0  0.48057669713E+02 -0.28314745580E+02 -0.10994040621E+02  0.56851952725E+02  0.10566000000E+00 0.  1.
         23    2    1    0    0    0  0.31394697400E+02  0.32025449736E+01 -0.64286384453E+01  0.92794244126E+02  0.87026208877E+02 0.  0.
         13    1    3    3    0    0 -0.16662972313E+02  0.31517290553E+02  0.45654021754E+01  0.35942291401E+02  0.10566000000E+00 0. -1.
         22    1    1    0    0    0 -0.31394697400E+02 -0.32025449736E+01  0.64286384453E+01  0.32205755874E+02  0.00000000000E+00 0.  1.
</event>
<event>
 5    1  0.1724243E-003  0.9118800E+02  0.7818608E-02  0.1130116E+00
         25   -1    0    0    0    0  0.00000000000E+00  0.00000000000E+00  0.99999998245E-14  0.12500000000E+03  0.12500000000E+03 0.  0.
        -13    1    3    3    0    0  0.15680524740E+02 -0.17030264145E+02  0.30231743332E+02  0.38077266471E+02  0.10566000000E+00 0. -1.
         23    2    1    0    0    0  0.17326583103E+02  0.44077571338E+01 -0.23221803040E+02  0.95693158795E+02  0.91094948810E+02 0.  0.
         13    1    3    3    0    0  0.16460583634E+01  0.21438021279E+02 -0.53453546372E+02  0.57615892324E+02  0.10566000000E+00 0.  1.
         22    1    1    0    0    0 -0.17326583103E+02 -0.44077571338E+01  0.23221803040E+02  0.29306841205E+02  0.00000000000E+00 0.  1.
</event>
<event>
 5    1  0.1724243E-003  0.9118800E+02  0.7818608E-02  0.1130116E+00
         25   -1    0    0    0    0  0.00000000000E+00  0.00000000000E+00  0.99999998245E-14  0.12500000000E+03  0.12500000000E+03 0.  0.
        -13    1    3    3    0    0  0.37046856495E+02 -0.19937045449E+01  0.30833735719E+02  0.48240800743E+02  0.10566000000E+00 0.  1.
         23    2    1    0    0    0  0.24602528618E+02  0.34851440670E+01 -0.14950074724E+02  0.96001114197E+02  0.91516547952E+02 0.  0.
         13    1    3    3    0    0 -0.12444327876E+02  0.54788486119E+01 -0.45783810443E+02  0.47760313453E+02  0.10566000000E+00 0. -1.
         22    1    1    0    0    0 -0.24602528618E+02 -0.34851440670E+01  0.14950074724E+02  0.28998885803E+02  0.00000000000E+00 0.  1.
</event>
<event>
 5    1  0.1724243E-003  0.9118800E+02  0.7818608E-02  0.1130116E+00
         25   -1    0    0    0    0  0.00000000000E+00  0.00000000000E+00  0.99999998245E-14  0.12500000000E+03  0.12500000000E+03 0.  0.
        -13    1    3    3    0    0 -0.12555226007E+02  0.21776650917E+01  0.34218730220E+02  0.36514498316E+02  0.10566000000E+00 0.  1.
         23    2    1    0    0    0  0.12586328772E+01 -0.22972814449E+02 -0.17792114754E+02  0.95915748112E+02  0.91399874333E+02 0.  0.
         13    1    3    3    0    0  0.13813858884E+02 -0.25150479541E+02 -0.52010844974E+02  0.59401249797E+02  0.10566000000E+00 0. -1.
         22    1    1    0    0    0 -0.12586328772E+01  0.22972814449E+02  0.17792114754E+02  0.29084251888E+02  0.00000000000E+00 0. -1.
</event>
<event>
 5    1  0.1724243E-003  0.9118800E+02  0.7818608E-02  0.1130116E+00
         25   -1    0    0    0    0  0.00000000000E+00  0.00000000000E+00  0.99999998245E-14  0.12500000000E+03  0.12500000000E+03 0.  0.
        -13    1    3    3    0    0  0.42803504924E+02 -0.12311373284E+02  0.31102562639E+02  0.54323940511E+02  0.10566000000E+00 0.  1.
         23    2    1    0    0    0  0.28230353730E+02 -0.95930007632E+00 -0.63175506523E+01  0.96055491460E+02  0.91590790285E+02 0.  0.
         13    1    3    3    0    0 -0.14573151193E+02  0.11352073207E+02 -0.37420113292E+02  0.41731550949E+02  0.10566000000E+00 0. -1.
         22    1    1    0    0    0 -0.28230353730E+02  0.95930007632E+00  0.63175506523E+01  0.28944508540E+02  0.00000000000E+00 0.  1.
</event>
<event>
 5    1  0.1724243E-003  0.9118800E+02  0.7818608E-02  0.1130116E+00
         25   -1    0    0    0    0  0.00000000000E+00  0.00000000000E+00  0.99999998245E-14  0.12500000000E+03  0.12500000000E+03 0.  0.
        -13    1    3    3    0    0  0.33293068202E+02 -0.45153494413E+02  0.86462680145E+01  0.56762977042E+02  0.10566000000E+00 0.  1.
         23    2    1    0    0    0  0.14040683554E+02 -0.21473414661E+02 -0.14919130388E+02  0.95321240198E+02  0.90583166479E+02 0.  0.
         13    1    3    3    0    0 -0.19252384648E+02  0.23680079752E+02 -0.23565398403E+02  0.38558263156E+02  0.10566000000E+00 0. -1.
         22    1    1    0    0    0 -0.14040683554E+02  0.21473414661E+02  0.14919130388E+02  0.29678759802E+02  0.00000000000E+00 0.  1.
</event>
<event>
 5    1  0.1724243E-003  0.9118800E+02  0.7818608E-02  0.1130116E+00
         25   -1    0    0    0    0  0.00000000000E+00  0.00000000000E+00  0.99999998245E-14  0.12500000000E+03  0.12500000000E+03 0.  0.
        -13    1    3    3    0    0  0.69128689104E+01 -0.21333864366E+02 -0.26778051670E+02  0.34928451735E+02  0.10566000000E+00 0.  1.
         23    2    1    0    0    0 -0.17131173868E+02  0.61102478870E+01  0.22388421434E+02  0.96154659620E+02  0.91726031774E+02 0.  0.
         13    1    3    3    0    0 -0.24044042778E+02  0.27444112252E+02  0.49166473104E+02  0.61226207885E+02  0.10566000000E+00 0. -1.
         22    1    1    0    0    0  0.17131173868E+02 -0.61102478870E+01 -0.22388421434E+02  0.28845340380E+02  0.00000000000E+00 0. -1.
</event>
<event>
 5    1  0.1724243E-003  0.9118800E+02  0.7818608E-02  0.1130116E+00
         25   -1    0    0    0    0  0.00000000000E+00  0.00000000000E+00  0.99999998245E-14  0.12500000000E+03  0.12500000000E+03 0.  0.
        -13    1    3    3    0    0 -0.26482787655E+02 -0.56260018882E+01  0.49817855060E+02  0.56699380826E+02  0.10566000000E+00 0. -1.
         23    2    1    0    0    0 -0.35562959749E+02 -0.19580872652E+01  0.31586569118E+02  0.77394647775E+02  0.61021815310E+02 0.  0.
         13    1    3    3    0    0 -0.90801720934E+01  0.36679146231E+01 -0.18231285942E+02  0.20695266948E+02  0.10566000000E+00 0.  1.
         22    1    1    0    0    0  0.35562959749E+02  0.19580872652E+01 -0.31586569118E+02  0.47605352225E+02  0.00000000000E+00 0. -1.
</event>
<event>
 5    1  0.1724243E-003  0.9118800E+02  0.7818608E-02  0.1130116E+00
         25   -1    0    0    0    0  0.00000000000E+00  0.00000000000E+00  0.99999998245E-14  0.12500000000E+03  0.12500000000E+03 0.  0.
        -13    1    3    3    0    0 -0.34303093331E+02 -0.48743529897E+01  0.32368935769E+02  0.47415405682E+02  0.10566000000E+00 0.  1.
         23    2    1    0    0    0 -0.16073422545E+02  0.24115561232E+02 -0.20213929052E+01  0.95948300650E+02  0.91444382892E+02 0.  0.
         13    1    3    3    0    0  0.18229670786E+02  0.28989914222E+02 -0.34390328674E+02  0.48532894967E+02  0.10566000000E+00 0. -1.
         22    1    1    0    0    0  0.16073422545E+02 -0.24115561232E+02  0.20213929052E+01  0.29051699350E+02  0.00000000000E+00 0. -1.
</event>
<event>
 5    1  0.1724243E-003  0.9118800E+02  0.7818608E-02  0.1130116E+00
         25   -1    0    0    0    0  0.00000000000E+00  0.00000000000E+00  0.99999998245E-14  0.12500000000E+03  0.12500000000E+03 0.  0.
        -13    1    3    3    0    0 -0.44351844806E+02 -0.20369448695E+02  0.16840604097E+02  0.51629620260E+02  0.10566000000E+00 0.  1.
         23    2    1    0    0    0 -0.66893929862E+01 -0.29828626662E+02 -0.11104783051E+01  0.94410326757E+02  0.89317309012E+02 0.  0.
         13    1    3    3    0    0  0.37662451820E+02 -0.94591779672E+01 -0.17951082402E+02  0.42780706496E+02  0.10566000000E+00 0. -1.
         22    1    1    0    0    0  0.66893929862E+01  0.29828626662E+02  0.11104783051E+01  0.30589673243E+02  0.00000000000E+00 0.  1.
</event>
<event>
 5    1  0.1724243E-003  0.9118800E+02  0.7818608E-02  0.1130116E+00
         25   -1    0    0    0    0  0.00000000000E+00  0.00000000000E+00  0.99999998245E-14  0.12500000000E+03  0.12500000000E+03 0.  0.
        -13    1    3    3    0    0  0.24309109673E+02 -0.22318913229E+02 -0.10810346009E+00  0.33001356809E+02  0.10566000000E+00 0.  1.
         23    2    1    0    0    0 -0.19682271241E+02  0.21363331969E+02 -0.62088412745E+01  0.95295901563E+02  0.90548193746E+02 0.  0.
         13    1    3    3    0    0 -0.43991380914E+02  0.43682245198E+02 -0.61007378144E+01  0.62294544754E+02  0.10566000000E+00 0. -1.
         22    1    1    0    0    0  0.19682271241E+02 -0.21363331969E+02  0.62088412745E+01  0.29704098437E+02  0.00000000000E+00 0. -1.
</event>
<event>
 5    1  0.1724243E-003  0.9118800E+02  0.7818608E-02  0.1130116E+00
         25   -1    0    0    0    0  0.00000000000E+00  0.00000000000E+00  0.99999998245E-14  0.12500000000E+03  0.12500000000E+03 0.  0.
        -13    1    3    3    0    0  0.54681098015E+02  0.16007518078E+02 -0.25412520978E+02  0.62386460884E+02  0.10566000000E+00 0. -1.
         23    2    1    0    0    0  0.26279353139E+02  0.79096415896E+01 -0.93408527868E+01  0.96010029971E+02  0.91528724960E+02 0.  0.
         13    1    3    3    0    0 -0.28401744876E+02 -0.80978764888E+01  0.16071668191E+02  0.33623569087E+02  0.10566000000E+00 0.  1.
         22    1    1    0    0    0 -0.26279353139E+02 -0.79096415896E+01  0.93408527868E+01  0.28989970029E+02  0.00000000000E+00 0. -1.
</event>
<event>
 5    1  0.1724243E-003  0.9118800E+02  0.7818608E-02  0.1130116E+00
         25   -1    0    0    0    0  0.00000000000E+00  0.00000000000E+00  0.99999998245E-14  0.12500000000E+03  0.12500000000E+03 0.  0.
        -13    1    3    3    0    0  0.35576540037E+02  0.25210527433E+01  0.37117763581E+02  0.51476066722E+02  0.10566000000E+00 0. -1.
         23    2    1    0    0    0  0.12063456821E+02 -0.24150826346E+02  0.99312631853E+01  0.96235101388E+02  0.91835588674E+02 0.  0.
         13    1    3    3    0    0 -0.23513083215E+02 -0.26671879089E+02 -0.27186500396E+02  0.44759034666E+02  0.10566000000E+00 0.  1.
         22    1    1    0    0    0 -0.12063456821E+02  0.24150826346E+02 -0.99312631853E+01  0.28764898612E+02  0.00000000000E+00 0. -1.
</event>
<event>
 5    1  0.1724243E-003  0.9118800E+02  0.7818608E-02  0.1130116E+00
         25   -1    0    0    0    0  0.00000000000E+00  0.00000000000E+00  0.99999998245E-14  0.12500000000E+03  0.12500000000E+03 0.  0.
        -13    1    3    3    0    0 -0.35144492414E+02 -0.29262887691E+02 -0.37858296759E+02  0.59369299647E+02  0.10566000000E+00 0.  1.
         23    2    1    0    0    0 -0.13997440588E+02 -0.22880972939E+02 -0.70718014303E+01  0.97260540000E+02  0.93220893580E+02 0.  0.
         13    1    3    3    0    0  0.21147051826E+02  0.63819147523E+01  0.30786495328E+02  0.37891240353E+02  0.10566000000E+00 0. -1.
         22    1    1    0    0    0  0.13997440588E+02  0.22880972939E+02  0.70718014303E+01  0.27739460000E+02  0.00000000000E+00 0.  1.
</event>
<event>
 5    1  0.1724243E-003  0.9118800E+02  0.7818608E-02  0.1130116E+00
         25   -1    0    0    0    0  0.00000000000E+00  0.00000000000E+00  0.99999998245E-14  0.12500000000E+03  0.12500000000E+03 0.  0.
        -13    1    3    3    0    0  0.21985850415E+02 -0.32931341246E+02  0.13774866476E+02  0.41923847214E+02  0.10566000000E+00 0.  1.
         23    2    1    0    0    0  0.28244579096E+02  0.13870574866E+02 -0.57362250112E+01  0.93014794470E+02  0.87342421638E+02 0.  0.
         13    1    3    3    0    0  0.62587286811E+01  0.46801916112E+02 -0.19511091487E+02  0.51090947256E+02  0.10566000000E+00 0. -1.
         22    1    1    0    0    0 -0.28244579096E+02 -0.13870574866E+02  0.57362250112E+01  0.31985205530E+02  0.00000000000E+00 0. -1.
</event>
<event>
 5    1  0.1724243E-003  0.9118800E+02  0.7818608E-02  0.1130116E+00
         25   -1    0    0    0    0  0.00000000000E+00  0.00000000000E+00  0.99999998245E-14  0.12500000000E+03  0.12500000000E+03 0.  0.
        -13    1    3    3    0    0 -0.15377408500E+02  0.43585646925E+02  0.88998410944E+01  0.47067947115E+02  0.10566000000E+00 0.  1.
         23    2    1    0    0    0 -0.27620291961E+02 -0.28090675490E-01 -0.92552834919E+01  0.95870262795E+02  0.91337646668E+02 0.  0.
         13    1    3    3    0    0 -0.12242883461E+02 -0.43613737601E+02 -0.18155124586E+02  0.48802315680E+02  0.10566000000E+00 0. -1.
         22    1    1    0    0    0  0.27620291961E+02  0.28090675490E-01  0.92552834919E+01  0.29129737205E+02  0.00000000000E+00 0. -1.
</event>
<event>
 5    1  0.1724243E-003  0.9118800E+02  0.7818608E-02  0.1130116E+00
         25   -1    0    0    0    0  0.00000000000E+00  0.00000000000E+00  0.99999998245E-14  0.12500000000E+03  0.12500000000E+03 0.  0.
        -13    1    3    3    0    0  0.11821647316E+02 -0.34516617587E+02 -0.81601781785E+00  0.36494181509E+02  0.10566000000E+00 0.  1.
         23    2    1    0    0    0 -0.34727296577E+01  0.14933459848E+02 -0.26581542086E+02  0.94313741610E+02  0.89182035200E+02 0.  0.
         13    1    3    3    0    0 -0.15294376973E+02  0.49450077435E+02 -0.25765524268E+02  0.57819560100E+02  0.10566000000E+00 0. -1.
         22    1    1    0    0    0  0.34727296577E+01 -0.14933459848E+02  0.26581542086E+02  0.30686258390E+02  0.00000000000E+00 0. -1.
</event>
<event>
 5    1  0.1724243E-003  0.9118800E+02  0.7818608E-02  0.1130116E+00
         25   -1    0    0    0    0  0.00000000000E+00  0.00000000000E+00  0.99999998245E-14  0.12500000000E+03  0.12500000000E+03 0.  0.
        -13    1    3    3    0    0  0.11473491055E+02 -0.29330628139E+02  0.16886338881E+02  0.35736344929E+02  0.10566000000E+00 0.  1.
         23    2    1    0    0    0 -0.21552398618E+01  0.28165749343E+02  0.19491065539E+01  0.96684747727E+02  0.92445589033E+02 0.  0.
         13    1    3    3    0    0 -0.13628730917E+02  0.57496377483E+02 -0.14937232327E+02  0.60948402798E+02  0.10566000000E+00 0. -1.
         22    1    1    0    0    0  0.21552398618E+01 -0.28165749343E+02 -0.19491065539E+01  0.28315252273E+02  0.00000000000E+00 0. -1.
</event>
<event>
 5    1  0.1724243E-003  0.9118800E+02  0.7818608E-02  0.1130116E+00
         25   -1    0    0    0    0  0.00000000000E+00  0.00000000000E+00  0.99999998245E-14  0.12500000000E+03  0.12500000000E+03 0.  0.
        -13    1    3    3    0    0 -0.31065954874E+02 -0.36822515987E+02 -0.15190194042E+02  0.50514793822E+02  0.10566000000E+00 0. -1.
         23    2    1    0    0    0 -0.79832247983E+01 -0.19205431291E+02  0.20004706675E+02  0.96142266922E+02  0.91709142022E+02 0.  0.
         13    1    3    3    0    0  0.23082730076E+02  0.17617084696E+02  0.35194900717E+02  0.45627473099E+02  0.10566000000E+00 0.  1.
         22    1    1    0    0    0  0.79832247983E+01  0.19205431291E+02 -0.20004706675E+02  0.28857733078E+02  0.00000000000E+00 0. -1.
</event>
<event>
 5    1  0.1724243E-003  0.9118800E+02  0.7818608E-02  0.1130116E+00
         25   -1    0    0    0    0  0.00000000000E+00  0.00000000000E+00  0.99999998245E-14  0.12500000000E+03  0.12500000000E+03 0.  0.
        -13    1    3    3    0    0 -0.35072990964E+02 -0.81463265767E+01 -0.38233192089E+02  0.52519191475E+02  0.10566000000E+00 0.  1.
         23    2    1    0    0    0 -0.23159779696E+02  0.17769489295E+02 -0.66787434179E+01  0.95054453436E+02  0.90214263611E+02 0.  0.
         13    1    3    3    0    0  0.11913211268E+02  0.25915815872E+02  0.31554448672E+02  0.42535261960E+02  0.10566000000E+00 0. -1.
         22    1    1    0    0    0  0.23159779696E+02 -0.17769489295E+02  0.66787434179E+01  0.29945546564E+02  0.00000000000E+00 0.  1.
</event>
<event>
 5    1  0.1724243E-003  0.9118800E+02  0.7818608E-02  0.1130116E+00
         25   -1    0    0    0    0  0.00000000000E+00  0.00000000000E+00  0.99999998245E-14  0.12500000000E+03  0.12500000000E+03 0.  0.
        -13    1    3    3    0    0  0.18755892582E+02 -0.28677219277E+02  0.14917203636E+02  0.37372456975E+02  0.10566000000E+00 0.  1.
         23    2    1    0    0    0 -0.19854635591E+02 -0.55893975245E+01 -0.21465724532E+02  0.95230464417E+02  0.90457813948E+02 0.  0.
         13    1    3    3    0    0 -0.38610528173E+02  0.23087821752E+02 -0.36382928168E+02  0.57858007442E+02  0.10566000000E+00 0. -1.
         22    1    1    0    0    0  0.19854635591E+02  0.55893975245E+01  0.21465724532E+02  0.29769535583E+02  0.00000000000E+00 0. -1.
</event>
<event>
 5    1  0.1724243E-003  0.9118800E+02  0.7818608E-02  0.1130116E+00
         25   -1    0    0    0    0  0.00000000000E+00  0.00000000000E+00  0.99999998245E-14  0.12500000000E+03  0.12500000000E+03 0.  0.
        -13    1    3    3    0    0 -0.20166718007E+02 -0.46765147817E+02  0.29266378909E+02  0.58738468349E+02  0.10566000000E+00 0.  1.
         23    2    1    0    0    0 -0.12666607144E+02 -0.10838607879E+02  0.23944732896E+02  0.95823492485E+02  0.91273616787E+02 0.  0.
         13    1    3    3    0    0  0.75001108630E+01  0.35926539938E+02 -0.53216460136E+01  0.37085024136E+02  0.10566000000E+00 0. -1.
         22    1    1    0    0    0  0.12666607144E+02  0.10838607879E+02 -0.23944732896E+02  0.29176507515E+02  0.00000000000E+00 0.  1.
</event>
<event>
 5    1  0.1724243E-003  0.9118800E+02  0.7818608E-02  0.1130116E+00
         25   -1    0    0    0    0  0.00000000000E+00  0.00000000000E+00  0.99999998245E-14  0.12500000000E+03  0.12500000000E+03 0.  0.
        -13    1    3    3    0    0 -0.35160634426E+02 -0.33923458036E+02 -0.19082535212E+02  0.52452126101E+02  0.10566000000E+00 0.  1.
         23    2    1    0    0    0  0.63508238724E+01 -0.26715667230E+02 -0.11340774245E+02  0.95290186809E+02  0.90540304297E+02 0.  0.
         13    1    3    3    0    0  0.41511458298E+02  0.72077908066E+01  0.77417609665E+01  0.42838060708E+02  0.10566000000E+00 0. -1.
         22    1    1    0    0    0 -0.63508238724E+01  0.26715667230E+02  0.11340774245E+02  0.29709813191E+02  0.00000000000E+00 0.  1.
</event>
<event>
 5    1  0.1724243E-003  0.9118800E+02  0.7818608E-02  0.1130116E+00
         25   -1    0    0    0    0  0.00000000000E+00  0.00000000000E+00  0.99999998245E-14  0.12500000000E+03  0.12500000000E+03 0.  0.
        -13    1    3    3    0    0 -0.11416471209E+02  0.32952270687E+02  0.34285506995E+01  0.35042175764E+02  0.10566000000E+00 0. -1.
         23    2    1    0    0    0  0.88462489199E+01 -0.17896031614E+02 -0.21909801980E+02  0.95359428307E+02  0.90635848740E+02 0.  0.
         13    1    3    3    0    0  0.20262720129E+02 -0.50848302301E+02 -0.25338352679E+02  0.60317252544E+02  0.10566000000E+00 0.  1.
         22    1    1    0    0    0 -0.88462489199E+01  0.17896031614E+02  0.21909801980E+02  0.29640571693E+02  0.00000000000E+00 0.  1.
</event>
<event>
 5    1  0.1724243E-003  0.9118800E+02  0.7818608E-02  0.1130116E+00
         25   -1    0    0    0    0  0.00000000000E+00  0.00000000000E+00  0.99999998245E-14  0.12500000000E+03  0.12500000000E+03 0.  0.
        -13    1    3    3    0    0  0.22423449341E+02  0.13469866186E+02  0.33281128965E+02  0.42330758140E+02  0.10566000000E+00 0.  1.
         23    2    1    0    0    0  0.13401919319E+02 -0.16091424964E+02 -0.14706539012E+02  0.99410398821E+02  0.96060396133E+02 0.  0.
         13    1    3    3    0    0 -0.90215300220E+01 -0.29561291150E+02 -0.47987667977E+02  0.57079640681E+02  0.10566000000E+00 0. -1.
         22    1    1    0    0    0 -0.13401919319E+02  0.16091424964E+02  0.14706539012E+02  0.25589601179E+02  0.00000000000E+00 0. -1.
</event>
<event>
 5    1  0.1724243E-003  0.9118800E+02  0.7818608E-02  0.1130116E+00
         25   -1    0    0    0    0  0.00000000000E+00  0.00000000000E+00  0.99999998245E-14  0.12500000000E+03  0.12500000000E+03 0.  0.
        -13    1    3    3    0    0 -0.24126048767E+02 -0.17696411220E+02  0.24147511231E+02  0.38449221864E+02  0.10566000000E+00 0. -1.
         23    2    1    0    0    0  0.65611804791E+01  0.27241558090E+02  0.30433460209E+01  0.96814657507E+02  0.92621079549E+02 0.  0.
         13    1    3    3    0    0  0.30687229247E+02  0.44937969310E+02 -0.21104165210E+02  0.58365435643E+02  0.10566000000E+00 0.  1.
         22    1    1    0    0    0 -0.65611804791E+01 -0.27241558090E+02 -0.30433460209E+01  0.28185342493E+02  0.00000000000E+00 0.  1.
</event>
<event>
 5    1  0.1724243E-003  0.9118800E+02  0.7818608E-02  0.1130116E+00
         25   -1    0    0    0    0  0.00000000000E+00  0.00000000000E+00  0.99999998245E-14  0.12500000000E+03  0.12500000000E+03 0.  0.
        -13    1    3    3    0    0  0.34134744733E+02  0.30252446741E+02 -0.32268429885E+02  0.55871764453E+02  0.10566000000E+00 0. -1.
         23    2    1    0    0    0  0.10031450108E+02  0.27421342211E+02 -0.56767847404E+00  0.95795852028E+02  0.91235755091E+02 0.  0.
         13    1    3    3    0    0 -0.24103294625E+02 -0.28311045300E+01  0.31700751411E+02  0.39924087575E+02  0.10566000000E+00 0.  1.
         22    1    1    0    0    0 -0.10031450108E+02 -0.27421342211E+02  0.56767847404E+00  0.29204147972E+02  0.00000000000E+00 0. -1.
</event>
<event>
 5    1  0.1724243E-003  0.9118800E+02  0.7818608E-02  0.1130116E+00
         25   -1    0    0    0    0  0.00000000000E+00  0.00000000000E+00  0.99999998245E-14  0.12500000000E+03  0.12500000000E+03 0.  0.
        -13    1    3    3    0    0 -0.37388098988E+02  0.10142826370E+02 -0.64947885504E+01  0.39280278958E+02  0.10566000000E+00 0.  1.
         23    2    1    0    0    0  0.56135501306E+01 -0.24646153643E+02  0.11198180130E+02  0.97353226722E+02  0.93345094571E+02 0.  0.
         13    1    3    3    0    0  0.43001649118E+02 -0.34788980013E+02  0.17692968680E+02  0.58072947764E+02  0.10566000000E+00 0. -1.
         22    1    1    0    0    0 -0.56135501306E+01  0.24646153643E+02 -0.11198180130E+02  0.27646773278E+02  0.00000000000E+00 0. -1.
</event>
<event>
 5    1  0.1724243E-003  0.9118800E+02  0.7818608E-02  0.1130116E+00
         25   -1    0    0    0    0  0.00000000000E+00  0.00000000000E+00  0.99999998245E-14  0.12500000000E+03  0.12500000000E+03 0.  0.
        -13    1    3    3    0    0  0.17274923313E+02  0.19380789319E+02  0.21981423465E+02  0.34018114464E+02  0.10566000000E+00 0. -1.
         23    2    1    0    0    0 -0.20131891633E+02 -0.18263960854E+02 -0.10066383639E+02  0.96013841124E+02  0.91533929671E+02 0.  0.
         13    1    3    3    0    0 -0.37406814946E+02 -0.37644750174E+02 -0.32047807103E+02  0.61995726661E+02  0.10566000000E+00 0.  1.
         22    1    1    0    0    0  0.20131891633E+02  0.18263960854E+02  0.10066383639E+02  0.28986158876E+02  0.00000000000E+00 0.  1.
</event>
<event>
 5    1  0.1724243E-003  0.9118800E+02  0.7818608E-02  0.1130116E+00
         25   -1    0    0    0    0  0.00000000000E+00  0.00000000000E+00  0.99999998245E-14  0.12500000000E+03  0.12500000000E+03 0.  0.
        -13    1    3    3    0    0  0.73081295607E+01 -0.58295644868E+02 -0.12241154388E+02  0.60013731704E+02  0.10566000000E+00 0.  1.
         23    2    1    0    0    0 -0.51211902704E+01 -0.23390264655E+02 -0.14277465501E+02  0.97122103889E+02  0.93035079256E+02 0.  0.
         13    1    3    3    0    0 -0.12429319831E+02  0.34905380212E+02 -0.20363111135E+01  0.37108372185E+02  0.10566000000E+00 0. -1.
         22    1    1    0    0    0  0.51211902704E+01  0.23390264655E+02  0.14277465501E+02  0.27877896111E+02  0.00000000000E+00 0.  1.
</event>
<event>
 5    1  0.1724243E-003  0.9118800E+02  0.7818608E-02  0.1130116E+00
         25   -1    0    0    0    0  0.00000000000E+00  0.00000000000E+00  0.99999998245E-14  0.12500000000E+03  0.12500000000E+03 0.  0.
        -13    1    3    3    0    0 -0.27493623637E+02  0.28315333810E+02  0.13536240179E+02  0.41724074964E+02  0.10566000000E+00 0. -1.
         23    2    1    0    0    0  0.21889265118E+02  0.48585589978E+01  0.17527222204E+02  0.96540396329E+02  0.92250198277E+02 0.  0.
         13    1    3    3    0    0  0.49382888755E+02 -0.23456774812E+02  0.39909820251E+01  0.54816321364E+02  0.10566000000E+00 0.  1.
         22    1    1    0    0    0 -0.21889265118E+02 -0.48585589978E+01 -0.17527222204E+02  0.28459603671E+02  0.00000000000E+00 0.  1.
</event>
<event>
 5    1  0.1724243E-003  0.9118800E+02  0.7818608E-02  0.1130116E+00
         25   -1    0    0    0    0  0.00000000000E+00  0.00000000000E+00  0.99999998245E-14  0.12500000000E+03  0.12500000000E+03 0.  0.
        -13    1    3    3    0    0  0.20769247079E+02  0.39859861288E+02 -0.42902790737E+01  0.45150723413E+02  0.10566000000E+00 0.  1.
         23    2    1    0    0    0 -0.17811872234E+01  0.57870133651E+01  0.27450175766E+02  0.96889960847E+02  0.92722652096E+02 0.  0.
         13    1    3    3    0    0 -0.22550434303E+02 -0.34072847923E+02  0.31740454840E+02  0.51739237434E+02  0.10566000000E+00 0. -1.
         22    1    1    0    0    0  0.17811872234E+01 -0.57870133651E+01 -0.27450175766E+02  0.28110039153E+02  0.00000000000E+00 0. -1.
</event>
<event>
 5    1  0.1724243E-003  0.9118800E+02  0.7818608E-02  0.1130116E+00
         25   -1    0    0    0    0  0.00000000000E+00  0.00000000000E+00  0.99999998245E-14  0.12500000000E+03  0.12500000000E+03 0.  0.
        -13    1    3    3    0    0  0.42899176871E+02 -0.24112478177E+02  0.26614540789E+02  0.55947260214E+02  0.10566000000E+00 0.  1.
         23    2    1    0    0    0  0.31875188281E+02 -0.42136196438E+01 -0.23319473076E+01  0.92763061611E+02  0.86981408374E+02 0.  0.
         13    1    3    3    0    0 -0.11023988589E+02  0.19898858533E+02 -0.28946488096E+02  0.36815801397E+02  0.10566000000E+00 0. -1.
         22    1    1    0    0    0 -0.31875188281E+02  0.42136196438E+01  0.23319473076E+01  0.32236938389E+02  0.00000000000E+00 0.  1.
</event>
<event>
 5    1  0.1724243E-003  0.9118800E+02  0.7818608E-02  0.1130116E+00
         25   -1    0    0    0    0  0.00000000000E+00  0.00000000000E+00  0.99999998245E-14  0.12500000000E+03  0.12500000000E+03 0.  0.
        -13    1    3    3    0    0  0.26179788458E+02  0.15815099362E+02  0.40904128753E+02  0.51075019379E+02  0.10566000000E+00 0.  1.
         23    2    1    0    0    0  0.20133876248E+02 -0.17706658065E+02  0.12544061217E+02  0.95398442872E+02  0.90689639529E+02 0.  0.
         13    1    3    3    0    0 -0.60459122100E+01 -0.33521757427E+02 -0.28360067536E+02  0.44323423493E+02  0.10566000000E+00 0. -1.
         22    1    1    0    0    0 -0.20133876248E+02  0.17706658065E+02 -0.12544061217E+02  0.29601557128E+02  0.00000000000E+00 0.  1.
</event>
<event>
 5    1  0.1724243E-003  0.9118800E+02  0.7818608E-02  0.1130116E+00
         25   -1    0    0    0    0  0.00000000000E+00  0.00000000000E+00  0.99999998245E-14  0.12500000000E+03  0.12500000000E+03 0.  0.
        -13    1    3    3    0    0 -0.26209725338E+02  0.11434995194E+02  0.22023680946E+02  0.36093801460E+02  0.10566000000E+00 0.  1.
         23    2    1    0    0    0  0.52648919918E+01 -0.19889552176E+02 -0.19327111120E+02  0.96771457747E+02  0.92562759449E+02 0.  0.
         13    1    3    3    0    0  0.31474617329E+02 -0.31324547370E+02 -0.41350792066E+02  0.60677656288E+02  0.10566000000E+00 0. -1.
         22    1    1    0    0    0 -0.52648919918E+01  0.19889552176E+02  0.19327111120E+02  0.28228542253E+02  0.00000000000E+00 0. -1.
</event>
<event>
 5    1  0.1724243E-003  0.9118800E+02  0.7818608E-02  0.1130116E+00
         25   -1    0    0    0    0  0.00000000000E+00  0.00000000000E+00  0.99999998245E-14  0.12500000000E+03  0.12500000000E+03 0.  0.
        -13    1    3    3    0    0  0.10647931767E+02 -0.24742780985E+02 -0.45277241375E+02  0.52684185600E+02  0.10566000000E+00 0.  1.
         23    2    1    0    0    0 -0.14856343894E+02 -0.20443679127E+02 -0.71860745351E+01  0.98726541199E+02  0.95166355924E+02 0.  0.
         13    1    3    3    0    0 -0.25504275662E+02  0.42991018587E+01  0.38091166840E+02  0.46042355599E+02  0.10566000000E+00 0. -1.
         22    1    1    0    0    0  0.14856343894E+02  0.20443679127E+02  0.71860745351E+01  0.26273458801E+02  0.00000000000E+00 0.  1.
</event>
<event>
 5    1  0.1724243E-003  0.9118800E+02  0.7818608E-02  0.1130116E+00
         25   -1    0    0    0    0  0.00000000000E+00  0.00000000000E+00  0.99999998245E-14  0.12500000000E+03  0.12500000000E+03 0.  0.
        -13    1    3    3    0    0 -0.26016321972E+02  0.25168567803E+02  0.17611598817E+02  0.40255252963E+02  0.10566000000E+00 0.  1.
         23    2    1    0    0    0 -0.14837394457E+02 -0.24923969413E+02 -0.35618859634E+01  0.95776044806E+02  0.91208613637E+02 0.  0.
         13    1    3    3    0    0  0.11178927515E+02 -0.50092537215E+02 -0.21173484781E+02  0.55520791843E+02  0.10566000000E+00 0. -1.
         22    1    1    0    0    0  0.14837394457E+02  0.24923969413E+02  0.35618859634E+01  0.29223955194E+02  0.00000000000E+00 0. -1.
</event>
<event>
 5    1  0.1724243E-003  0.9118800E+02  0.7818608E-02  0.1130116E+00
         25   -1    0    0    0    0  0.00000000000E+00  0.00000000000E+00  0.99999998245E-14  0.12500000000E+03  0.12500000000E+03 0.  0.
        -13    1    3    3    0    0 -0.15571828204E+01 -0.49613234850E+02  0.10469632728E+01  0.49648818584E+02  0.10566000000E+00 0.  1.
         23    2    1    0    0    0 -0.10510477958E+02 -0.90966969421E+01  0.24145730801E+02  0.97138981388E+02  0.93057752751E+02 0.  0.
         13    1    3    3    0    0 -0.89532951376E+01  0.40516537908E+02  0.23098767528E+02  0.47490162805E+02  0.10566000000E+00 0. -1.
         22    1    1    0    0    0  0.10510477958E+02  0.90966969421E+01 -0.24145730801E+02  0.27861018612E+02  0.00000000000E+00 0.  1.
</event>
<event>
 5    1  0.1724243E-003  0.9118800E+02  0.7818608E-02  0.1130116E+00
         25   -1    0    0    0    0  0.00000000000E+00  0.00000000000E+00  0.99999998245E-14  0.12500000000E+03  0.12500000000E+03 0.  0.
        -13    1    3    3    0    0  0.94289742800E+01  0.48124960021E+02 -0.56408292654E+00  0.49043314392E+02  0.10566000000E+00 0.  1.
         23    2    1    0    0    0  0.15178459649E+02  0.10701865447E+02 -0.24813973231E+02  0.94005664568E+02  0.88749175444E+02 0.  0.
         13    1    3    3    0    0  0.57494853686E+01 -0.37423094574E+02 -0.24249890305E+02  0.44962350176E+02  0.10566000000E+00 0. -1.
         22    1    1    0    0    0 -0.15178459649E+02 -0.10701865447E+02  0.24813973231E+02  0.30994335432E+02  0.00000000000E+00 0. -1.
</event>
<event>
 5    1  0.1724243E-003  0.9118800E+02  0.7818608E-02  0.1130116E+00
         25   -1    0    0    0    0  0.00000000000E+00  0.00000000000E+00  0.99999998245E-14  0.12500000000E+03  0.12500000000E+03 0.  0.
        -13    1    3    3    0    0  0.28813430321E+02  0.21138849107E+02  0.32971467418E+01  0.35887979173E+02  0.10566000000E+00 0. -1.
         23    2    1    0    0    0 -0.27817016309E+02  0.11755742885E+02 -0.64699985086E+01  0.94115622593E+02  0.88903912446E+02 0.  0.
         13    1    3    3    0    0 -0.56630446630E+02 -0.93831062214E+01 -0.97671452505E+01  0.58227643420E+02  0.10566000000E+00 0.  1.
         22    1    1    0    0    0  0.27817016309E+02 -0.11755742885E+02  0.64699985086E+01  0.30884377407E+02  0.00000000000E+00 0.  1.
</event>
<event>
 5    1  0.1724243E-003  0.9118800E+02  0.7818608E-02  0.1130116E+00
         25   -1    0    0    0    0  0.00000000000E+00  0.00000000000E+00  0.99999998245E-14  0.12500000000E+03  0.12500000000E+03 0.  0.
        -13    1    3    3    0    0  0.29879216310E+02 -0.38028895071E+02 -0.29115445310E+02  0.56450728492E+02  0.10566000000E+00 0. -1.
         23    2    1    0    0    0  0.20036077532E+02 -0.70299230597E+00 -0.21134400381E+02  0.95869234811E+02  0.91336239810E+02 0.  0.
         13    1    3    3    0    0 -0.98431387780E+01  0.37325902765E+02  0.79810449283E+01  0.39418506319E+02  0.10566000000E+00 0.  1.
         22    1    1    0    0    0 -0.20036077532E+02  0.70299230597E+00  0.21134400381E+02  0.29130765189E+02  0.00000000000E+00 0. -1.
</event>
<event>
 5    1  0.1724243E-003  0.9118800E+02  0.7818608E-02  0.1130116E+00
         25   -1    0    0    0    0  0.00000000000E+00  0.00000000000E+00  0.99999998245E-14  0.12500000000E+03  0.12500000000E+03 0.  0.
        -13    1    3    3    0    0  0.14042521858E+02 -0.58277815517E+01  0.31352774975E+02  0.34844843530E+02  0.10566000000E+00 0.  1.
         23    2    1    0    0    0 -0.14725521493E+02  0.26030776841E+02 -0.90087559455E+01  0.93765403638E+02  0.88410128999E+02 0.  0.
         13    1    3    3    0    0 -0.28768043351E+02  0.31858558393E+02 -0.40361530921E+02  0.58920560108E+02  0.10566000000E+00 0. -1.
         22    1    1    0    0    0  0.14725521493E+02 -0.26030776841E+02  0.90087559455E+01  0.31234596362E+02  0.00000000000E+00 0. -1.
</event>
<event>
 5    1  0.1724243E-003  0.9118800E+02  0.7818608E-02  0.1130116E+00
         25   -1    0    0    0    0  0.00000000000E+00  0.00000000000E+00  0.99999998245E-14  0.12500000000E+03  0.12500000000E+03 0.  0.
        -13    1    3    3    0    0 -0.31519639738E+02 -0.26489274362E+02 -0.20747078886E+02  0.46104466073E+02  0.10566000000E+00 0.  1.
         23    2    1    0    0    0  0.75468876614E+00 -0.22565266187E+02  0.17595366315E+02  0.96375574959E+02  0.92026592568E+02 0.  0.
         13    1    3    3    0    0  0.32274328505E+02  0.39240081760E+01  0.38342445201E+02  0.50271108886E+02  0.10566000000E+00 0. -1.
         22    1    1    0    0    0 -0.75468876614E+00  0.22565266187E+02 -0.17595366315E+02  0.28624425041E+02  0.00000000000E+00 0. -1.
</event>
<event>
 5    1  0.1724243E-003  0.9118800E+02  0.7818608E-02  0.1130116E+00
         25   -1    0    0    0    0  0.00000000000E+00  0.00000000000E+00  0.99999998245E-14  0.12500000000E+03  0.12500000000E+03 0.  0.
        -13    1    3    3    0    0  0.22846725510E+02 -0.35805097993E+02  0.22645907069E+02  0.48133420612E+02  0.10566000000E+00 0.  1.
         23    2    1    0    0    0 -0.12087055425E+02 -0.50472806062E+01  0.27109600343E+02  0.94891822022E+02  0.89988640981E+02 0.  0.
         13    1    3    3    0    0 -0.34933780935E+02  0.30757817387E+02  0.44636932744E+01  0.46758401411E+02  0.10566000000E+00 0. -1.
         22    1    1    0    0    0  0.12087055425E+02  0.50472806062E+01 -0.27109600343E+02  0.30108177978E+02  0.00000000000E+00 0. -1.
</event>
<event>
 5    1  0.1724243E-003  0.9118800E+02  0.7818608E-02  0.1130116E+00
         25   -1    0    0    0    0  0.00000000000E+00  0.00000000000E+00  0.99999998245E-14  0.12500000000E+03  0.12500000000E+03 0.  0.
        -13    1    3    3    0    0  0.30751238440E+02  0.16703240431E+02 -0.17224447308E+02  0.39004226124E+02  0.10566000000E+00 0.  1.
         23    2    1    0    0    0  0.84319890471E+00 -0.81842644667E+01  0.26334408248E+02  0.97410251414E+02  0.93421426095E+02 0.  0.
         13    1    3    3    0    0 -0.29908039535E+02 -0.24887504897E+02  0.43558855556E+02  0.58406025290E+02  0.10566000000E+00 0. -1.
         22    1    1    0    0    0 -0.84319890471E+00  0.81842644667E+01 -0.26334408248E+02  0.27589748586E+02  0.00000000000E+00 0. -1.
</event>
<event>
 5    1  0.1724243E-003  0.9118800E+02  0.7818608E-02  0.1130116E+00
         25   -1    0    0    0    0  0.00000000000E+00  0.00000000000E+00  0.99999998245E-14  0.12500000000E+03  0.12500000000E+03 0.  0.
        -13    1    3    3    0    0  0.31817492716E+02 -0.38121604529E+02  0.17488206102E+02  0.52644639720E+02  0.10566000000E+00 0.  1.
         23    2    1    0    0    0  0.19403485738E+01 -0.12815220462E+02  0.28814708654E+02  0.93404394880E+02  0.87898229333E+02 0.  0.
         13    1    3    3    0    0 -0.29877144142E+02  0.25306384066E+02  0.11326502552E+02  0.40759755160E+02  0.10566000000E+00 0. -1.
         22    1    1    0    0    0 -0.19403485738E+01  0.12815220462E+02 -0.28814708654E+02  0.31595605120E+02  0.00000000000E+00 0. -1.
</event>
<event>
 5    1  0.1724243E-003  0.9118800E+02  0.7818608E-02  0.1130116E+00
         25   -1    0    0    0    0  0.00000000000E+00  0.00000000000E+00  0.99999998245E-14  0.12500000000E+03  0.12500000000E+03 0.  0.
        -13    1    3    3    0    0  0.20943773884E+02  0.48822669385E+01 -0.42188927006E+02  0.47353932476E+02  0.10566000000E+00 0. -1.
         23    2    1    0    0    0  0.18668722219E+02 -0.21890057717E+02 -0.14014141165E+01  0.96196184668E+02  0.91782602747E+02 0.  0.
         13    1    3    3    0    0 -0.22750516656E+01 -0.26772324656E+02  0.40787512889E+02  0.48842252193E+02  0.10566000000E+00 0.  1.
         22    1    1    0    0    0 -0.18668722219E+02  0.21890057717E+02  0.14014141165E+01  0.28803815332E+02  0.00000000000E+00 0. -1.
</event>
<event>
 5    1  0.1724243E-003  0.9118800E+02  0.7818608E-02  0.1130116E+00
         25   -1    0    0    0    0  0.00000000000E+00  0.00000000000E+00  0.99999998245E-14  0.12500000000E+03  0.12500000000E+03 0.  0.
        -13    1    3    3    0    0  0.38501611557E+02  0.13927510827E+02  0.35502036382E+02  0.54191838884E+02  0.10566000000E+00 0. -1.
         23    2    1    0    0    0  0.45390543301E+01 -0.83418639137E+01  0.27923697255E+02  0.95505550079E+02  0.90837148346E+02 0.  0.
         13    1    3    3    0    0 -0.33962557226E+02 -0.22269374741E+02 -0.75783391269E+01  0.41313711195E+02  0.10566000000E+00 0.  1.
         22    1    1    0    0    0 -0.45390543301E+01  0.83418639137E+01 -0.27923697255E+02  0.29494449921E+02  0.00000000000E+00 0. -1.
</event>
<event>
 5    1  0.1724243E-003  0.9118800E+02  0.7818608E-02  0.1130116E+00
         25   -1    0    0    0    0  0.00000000000E+00  0.00000000000E+00  0.99999998245E-14  0.12500000000E+03  0.12500000000E+03 0.  0.
        -13    1    3    3    0    0  0.36264339592E+02 -0.27983992225E+02  0.22846936195E+01  0.45863243844E+02  0.10566000000E+00 0.  1.
         23    2    1    0    0    0  0.18467108421E+02  0.23485113289E+01 -0.27392812362E+02  0.91880281281E+02  0.85703385699E+02 0.  0.
         13    1    3    3    0    0 -0.17797231171E+02  0.30332503554E+02 -0.29677505982E+02  0.46017037438E+02  0.10566000000E+00 0. -1.
         22    1    1    0    0    0 -0.18467108421E+02 -0.23485113289E+01  0.27392812362E+02  0.33119718719E+02  0.00000000000E+00 0.  1.
</event>
<event>
 5    1  0.1724243E-003  0.9118800E+02  0.7818608E-02  0.1130116E+00
         25   -1    0    0    0    0  0.00000000000E+00  0.00000000000E+00  0.99999998245E-14  0.12500000000E+03  0.12500000000E+03 0.  0.
        -13    1    3    3    0    0 -0.90812102411E+01  0.32144537522E+02 -0.69933550375E+01  0.34127083829E+02  0.10566000000E+00 0.  1.
         23    2    1    0    0    0  0.53744199581E+01 -0.25827716964E+02  0.10839333731E+02  0.96479016336E+02  0.92166990208E+02 0.  0.
         13    1    3    3    0    0  0.14455630199E+02 -0.57972254486E+02  0.17832688769E+02  0.62351932507E+02  0.10566000000E+00 0. -1.
         22    1    1    0    0    0 -0.53744199581E+01  0.25827716964E+02 -0.10839333731E+02  0.28520983664E+02  0.00000000000E+00 0. -1.
</event>
<event>
 5    1  0.1724243E-003  0.9118800E+02  0.7818608E-02  0.1130116E+00
         25   -1    0    0    0    0  0.00000000000E+00  0.00000000000E+00  0.99999998245E-14  0.12500000000E+03  0.12500000000E+03 0.  0.
        -13    1    3    3    0    0  0.55252377946E+02 -0.21634208974E+01  0.24035688337E+02  0.60292877992E+02  0.10566000000E+00 0.  1.
         23    2    1    0    0    0  0.26345606945E+02  0.60065531644E+01  0.13342953458E+01  0.97945424966E+02  0.94134777004E+02 0.  0.
         13    1    3    3    0    0 -0.28906771001E+02  0.81699740618E+01 -0.22701392991E+02  0.37652546974E+02  0.10566000000E+00 0. -1.
         22    1    1    0    0    0 -0.26345606945E+02 -0.60065531644E+01 -0.13342953458E+01  0.27054575034E+02  0.00000000000E+00 0.  1.
</event>
<event>
 5    1  0.1724243E-003  0.9118800E+02  0.7818608E-02  0.1130116E+00
         25   -1    0    0    0    0  0.00000000000E+00  0.00000000000E+00  0.99999998245E-14  0.12500000000E+03  0.12500000000E+03 0.  0.
        -13    1    3    3    0    0 -0.13867414201E+02 -0.15755127828E+02 -0.58273493822E+02  0.61938198842E+02  0.10566000000E+00 0.  1.
         23    2    1    0    0    0 -0.52442182131E+01 -0.14898138362E+01 -0.27776179426E+02  0.96693860852E+02  0.92457910495E+02 0.  0.
         13    1    3    3    0    0  0.86231959876E+01  0.14265313992E+02  0.30497314396E+02  0.34755662010E+02  0.10566000000E+00 0. -1.
         22    1    1    0    0    0  0.52442182131E+01  0.14898138362E+01  0.27776179426E+02  0.28306139148E+02  0.00000000000E+00 0.  1.
</event>
<event>
 5    1  0.1724243E-003  0.9118800E+02  0.7818608E-02  0.1130116E+00
         25   -1    0    0    0    0  0.00000000000E+00  0.00000000000E+00  0.99999998245E-14  0.12500000000E+03  0.12500000000E+03 0.  0.
        -13    1    3    3    0    0  0.13737571736E+02 -0.84359730755E+00  0.49118767483E+02  0.51010753932E+02  0.10566000000E+00 0. -1.
         23    2    1    0    0    0 -0.13209388151E+02 -0.17525008110E+02  0.11421796030E+02  0.10025992585E+03  0.97159567010E+02 0.  0.
         13    1    3    3    0    0 -0.26946959887E+02 -0.16681410802E+02 -0.37696971453E+02  0.49249171914E+02  0.10566000000E+00 0.  1.
         22    1    1    0    0    0  0.13209388151E+02  0.17525008110E+02 -0.11421796030E+02  0.24740074154E+02  0.00000000000E+00 0.  1.
</event>
<event>
 5    1  0.1724243E-003  0.9118800E+02  0.7818608E-02  0.1130116E+00
         25   -1    0    0    0    0  0.00000000000E+00  0.00000000000E+00  0.99999998245E-14  0.12500000000E+03  0.12500000000E+03 0.  0.
        -13    1    3    3    0    0  0.10143998991E+02  0.27942524993E+02 -0.28648759453E+02  0.41284960952E+02  0.10566000000E+00 0. -1.
         23    2    1    0    0    0 -0.24620991546E+02 -0.10369545340E+02 -0.12682558469E+02  0.95426904379E+02  0.90728860319E+02 0.  0.
         13    1    3    3    0    0 -0.34764990537E+02 -0.38312070333E+02  0.15966200985E+02  0.54141943428E+02  0.10566000000E+00 0.  1.
         22    1    1    0    0    0  0.24620991546E+02  0.10369545340E+02  0.12682558469E+02  0.29573095621E+02  0.00000000000E+00 0.  1.
</event>
<event>
 5    1  0.1724243E-003  0.9118800E+02  0.7818608E-02  0.1130116E+00
         25   -1    0    0    0    0  0.00000000000E+00  0.00000000000E+00  0.99999998245E-14  0.12500000000E+03  0.12500000000E+03 0.  0.
        -13    1    3    3    0    0  0.38937720689E+02 -0.88503953973E+01  0.16446785695E+02  0.43185454900E+02  0.10566000000E+00 0.  1.
         23    2    1    0    0    0 -0.12729048976E+01 -0.27963443181E+02 -0.10356679842E+02  0.95153136534E+02  0.90350894481E+02 0.  0.
         13    1    3    3    0    0 -0.40210625587E+02 -0.19113047784E+02 -0.26803465537E+02  0.51967681635E+02  0.10566000000E+00 0. -1.
         22    1    1    0    0    0  0.12729048976E+01  0.27963443181E+02  0.10356679842E+02  0.29846863466E+02  0.00000000000E+00 0. -1.
</event>
<event>
 5    1  0.1724243E-003  0.9118800E+02  0.7818608E-02  0.1130116E+00
         25   -1    0    0    0    0  0.00000000000E+00  0.00000000000E+00  0.99999998245E-14  0.12500000000E+03  0.12500000000E+03 0.  0.
        -13    1    3    3    0    0 -0.41854599134E+01  0.35582697036E+02  0.10387348833E+01  0.35843221636E+02  0.10566000000E+00 0. -1.
         23    2    1    0    0    0  0.21986719215E+02 -0.18701711523E+02 -0.58404555989E+00  0.96129410381E+02  0.91691616821E+02 0.  0.
         13    1    3    3    0    0  0.26172179128E+02 -0.54284408559E+02 -0.16227804432E+01  0.60286188745E+02  0.10566000000E+00 0.  1.
         22    1    1    0    0    0 -0.21986719215E+02  0.18701711523E+02  0.58404555989E+00  0.28870589619E+02  0.00000000000E+00 0.  1.
</event>
<event>
 5    1  0.1724243E-003  0.9118800E+02  0.7818608E-02  0.1130116E+00
         25   -1    0    0    0    0  0.00000000000E+00  0.00000000000E+00  0.99999998245E-14  0.12500000000E+03  0.12500000000E+03 0.  0.
        -13    1    3    3    0    0 -0.40566604553E+01  0.22142340851E+02  0.38310800364E+02  0.44434990052E+02  0.10566000000E+00 0.  1.
         23    2    1    0    0    0 -0.11519700098E-01 -0.23752287815E+02  0.19763058234E+02  0.94100974450E+02  0.88883314591E+02 0.  0.
         13    1    3    3    0    0  0.40451407552E+01 -0.45894628665E+02 -0.18547742130E+02  0.49665984398E+02  0.10566000000E+00 0. -1.
         22    1    1    0    0    0  0.11519700098E-01  0.23752287815E+02 -0.19763058234E+02  0.30899025550E+02  0.00000000000E+00 0.  1.
</event>
<event>
 5    1  0.1724243E-003  0.9118800E+02  0.7818608E-02  0.1130116E+00
         25   -1    0    0    0    0  0.00000000000E+00  0.00000000000E+00  0.99999998245E-14  0.12500000000E+03  0.12500000000E+03 0.  0.
        -13    1    3    3    0    0 -0.11364653936E+02 -0.38674916352E+01 -0.36620996047E+02  0.38538569851E+02  0.10566000000E+00 0.  1.
         23    2    1    0    0    0  0.30754531053E+02 -0.67500370981E+01 -0.14619181157E+01  0.93479508480E+02  0.88004983495E+02 0.  0.
         13    1    3    3    0    0  0.42119184988E+02 -0.28825454629E+01  0.35159077931E+02  0.54940938629E+02  0.10566000000E+00 0. -1.
         22    1    1    0    0    0 -0.30754531053E+02  0.67500370981E+01  0.14619181157E+01  0.31520491520E+02  0.00000000000E+00 0. -1.
</event>
<event>
 5    1  0.1724243E-003  0.9118800E+02  0.7818608E-02  0.1130116E+00
         25   -1    0    0    0    0  0.00000000000E+00  0.00000000000E+00  0.99999998245E-14  0.12500000000E+03  0.12500000000E+03 0.  0.
        -13    1    3    3    0    0  0.27661766875E+02 -0.21945397185E+02 -0.69491424858E+01  0.35987158120E+02  0.10566000000E+00 0.  1.
         23    2    1    0    0    0 -0.27081409760E+02 -0.20342714635E+01 -0.13617502107E+02  0.94619457237E+02  0.89609510149E+02 0.  0.
         13    1    3    3    0    0 -0.54743176635E+02  0.19911125722E+02 -0.66683596208E+01  0.58632299116E+02  0.10566000000E+00 0. -1.
         22    1    1    0    0    0  0.27081409760E+02  0.20342714635E+01  0.13617502107E+02  0.30380542763E+02  0.00000000000E+00 0. -1.
</event>
<event>
 5    1  0.1724243E-003  0.9118800E+02  0.7818608E-02  0.1130116E+00
         25   -1    0    0    0    0  0.00000000000E+00  0.00000000000E+00  0.99999998245E-14  0.12500000000E+03  0.12500000000E+03 0.  0.
        -13    1    3    3    0    0  0.30587558242E+02 -0.25607273545E+02 -0.19737282166E+02  0.44507332530E+02  0.10566000000E+00 0. -1.
         23    2    1    0    0    0 -0.13485316314E+02 -0.10879864349E+01 -0.26356252522E+02  0.95374174820E+02  0.90656184042E+02 0.  0.
         13    1    3    3    0    0 -0.44072874556E+02  0.24519287110E+02 -0.66189703564E+01  0.50866842290E+02  0.10566000000E+00 0.  1.
         22    1    1    0    0    0  0.13485316314E+02  0.10879864349E+01  0.26356252522E+02  0.29625825180E+02  0.00000000000E+00 0.  1.
</event>
<event>
 5    1  0.1724243E-003  0.9118800E+02  0.7818608E-02  0.1130116E+00
         25   -1    0    0    0    0  0.00000000000E+00  0.00000000000E+00  0.99999998245E-14  0.12500000000E+03  0.12500000000E+03 0.  0.
        -13    1    3    3    0    0  0.47184385392E+02 -0.35129529811E+02 -0.16951141930E+02  0.61219298153E+02  0.10566000000E+00 0. -1.
         23    2    1    0    0    0  0.26979657264E+02 -0.89676982945E+01 -0.77749242537E+01  0.95525079035E+02  0.90864017953E+02 0.  0.
         13    1    3    3    0    0 -0.20204728129E+02  0.26161831516E+02  0.91762176760E+01  0.34305780882E+02  0.10566000000E+00 0.  1.
         22    1    1    0    0    0 -0.26979657264E+02  0.89676982945E+01  0.77749242537E+01  0.29474920965E+02  0.00000000000E+00 0. -1.
</event>
<event>
 5    1  0.1724243E-003  0.9118800E+02  0.7818608E-02  0.1130116E+00
         25   -1    0    0    0    0  0.00000000000E+00  0.00000000000E+00  0.99999998245E-14  0.12500000000E+03  0.12500000000E+03 0.  0.
        -13    1    3    3    0    0  0.18486575050E+02 -0.14468562326E+02  0.24418837523E+02  0.33873050392E+02  0.10566000000E+00 0. -1.
         23    2    1    0    0    0 -0.33556450257E+01  0.31716186280E+02 -0.48308789583E+01  0.92742997393E+02  0.86952569532E+02 0.  0.
         13    1    3    3    0    0 -0.21842220076E+02  0.46184748606E+02 -0.29249716481E+02  0.58869947001E+02  0.10566000000E+00 0.  1.
         22    1    1    0    0    0  0.33556450257E+01 -0.31716186280E+02  0.48308789583E+01  0.32257002607E+02  0.00000000000E+00 0.  1.
</event>
<event>
 5    1  0.1724243E-003  0.9118800E+02  0.7818608E-02  0.1130116E+00
         25   -1    0    0    0    0  0.00000000000E+00  0.00000000000E+00  0.99999998245E-14  0.12500000000E+03  0.12500000000E+03 0.  0.
        -13    1    3    3    0    0  0.42512748737E+02 -0.21865006817E+02  0.10779642415E+02  0.49006368800E+02  0.10566000000E+00 0.  1.
         23    2    1    0    0    0  0.82250660938E+01  0.17296869177E+02  0.14181340726E+02  0.10116842808E+03  0.98321447400E+02 0.  0.
         13    1    3    3    0    0 -0.34287682644E+02  0.39161875994E+02  0.34016983116E+01  0.52162059276E+02  0.10566000000E+00 0. -1.
         22    1    1    0    0    0 -0.82250660938E+01 -0.17296869177E+02 -0.14181340726E+02  0.23831571924E+02  0.00000000000E+00 0. -1.
</event>
<event>
 5    1  0.1724243E-003  0.9118800E+02  0.7818608E-02  0.1130116E+00
         25   -1    0    0    0    0  0.00000000000E+00  0.00000000000E+00  0.99999998245E-14  0.12500000000E+03  0.12500000000E+03 0.  0.
        -13    1    3    3    0    0 -0.29895708616E+02 -0.53986257495E+02 -0.27870567983E+00  0.61711897012E+02  0.10566000000E+00 0.  1.
         23    2    1    0    0    0 -0.11877704926E+02 -0.27592808397E+02 -0.64874128916E+01  0.94266801735E+02  0.89116218691E+02 0.  0.
         13    1    3    3    0    0  0.18018003690E+02  0.26393449098E+02 -0.62087072118E+01  0.32554904723E+02  0.10566000000E+00 0. -1.
         22    1    1    0    0    0  0.11877704926E+02  0.27592808397E+02  0.64874128916E+01  0.30733198265E+02  0.00000000000E+00 0.  1.
</event>
<event>
 5    1  0.1724243E-003  0.9118800E+02  0.7818608E-02  0.1130116E+00
         25   -1    0    0    0    0  0.00000000000E+00  0.00000000000E+00  0.99999998245E-14  0.12500000000E+03  0.12500000000E+03 0.  0.
        -13    1    3    3    0    0 -0.15416082666E+02  0.31812707610E+02  0.39624464341E+02  0.53101914359E+02  0.10566000000E+00 0.  1.
         23    2    1    0    0    0  0.16996410669E+02  0.12054916797E+02  0.21116703896E+02  0.95333281644E+02  0.90599781517E+02 0.  0.
         13    1    3    3    0    0  0.32412493335E+02 -0.19757790814E+02 -0.18507760445E+02  0.42231367285E+02  0.10566000000E+00 0. -1.
         22    1    1    0    0    0 -0.16996410669E+02 -0.12054916797E+02 -0.21116703896E+02  0.29666718356E+02  0.00000000000E+00 0.  1.
</event>
<event>
 5    1  0.1724243E-003  0.9118800E+02  0.7818608E-02  0.1130116E+00
         25   -1    0    0    0    0  0.00000000000E+00  0.00000000000E+00  0.99999998245E-14  0.12500000000E+03  0.12500000000E+03 0.  0.
        -13    1    3    3    0    0 -0.40583680537E+02 -0.18065412624E+02  0.31101452994E+02  0.54228274928E+02  0.10566000000E+00 0. -1.
         23    2    1    0    0    0 -0.19290024709E+01 -0.14518723159E+01  0.28516570935E+02  0.96381408112E+02  0.92034515417E+02 0.  0.
         13    1    3    3    0    0  0.38654678067E+02  0.16613540308E+02 -0.25848820597E+01  0.42153133185E+02  0.10566000000E+00 0.  1.
         22    1    1    0    0    0  0.19290024709E+01  0.14518723159E+01 -0.28516570935E+02  0.28618591888E+02  0.00000000000E+00 0.  1.
</event>
<event>
 5    1  0.1724243E-003  0.9118800E+02  0.7818608E-02  0.1130116E+00
         25   -1    0    0    0    0  0.00000000000E+00  0.00000000000E+00  0.99999998245E-14  0.12500000000E+03  0.12500000000E+03 0.  0.
        -13    1    3    3    0    0  0.31431098739E+02 -0.84208574436E+01  0.24692483437E+02  0.40847946219E+02  0.10566000000E+00 0. -1.
         23    2    1    0    0    0 -0.13151001382E+02 -0.46247858399E+01 -0.17689521327E+02  0.10247764119E+03  0.99972047586E+02 0.  0.
         13    1    3    3    0    0 -0.44582100120E+02  0.37960716037E+01 -0.42382004765E+02  0.61629694975E+02  0.10566000000E+00 0.  1.
         22    1    1    0    0    0  0.13151001382E+02  0.46247858399E+01  0.17689521327E+02  0.22522358806E+02  0.00000000000E+00 0.  1.
</event>
<event>
 5    1  0.1724243E-003  0.9118800E+02  0.7818608E-02  0.1130116E+00
         25   -1    0    0    0    0  0.00000000000E+00  0.00000000000E+00  0.99999998245E-14  0.12500000000E+03  0.12500000000E+03 0.  0.
        -13    1    3    3    0    0 -0.23002065472E+02  0.54986508682E+02  0.17324529983E+02  0.62070618300E+02  0.10566000000E+00 0.  1.
         23    2    1    0    0    0 -0.15630544472E+02  0.23968535782E+02  0.80274534509E+01  0.95280568025E+02  0.90527023624E+02 0.  0.
         13    1    3    3    0    0  0.73715210001E+01 -0.31017972900E+02 -0.92970765320E+01  0.33209949725E+02  0.10566000000E+00 0. -1.
         22    1    1    0    0    0  0.15630544472E+02 -0.23968535782E+02 -0.80274534509E+01  0.29719431975E+02  0.00000000000E+00 0.  1.
</event>
<event>
 5    1  0.1724243E-003  0.9118800E+02  0.7818608E-02  0.1130116E+00
         25   -1    0    0    0    0  0.00000000000E+00  0.00000000000E+00  0.99999998245E-14  0.12500000000E+03  0.12500000000E+03 0.  0.
        -13    1    3    3    0    0  0.26700303016E+02 -0.37085233388E+02 -0.16394037140E+02  0.48548906624E+02  0.10566000000E+00 0.  1.
         23    2    1    0    0    0  0.52510493875E+01 -0.18671948870E+02  0.21641108053E+02  0.95938810209E+02  0.91431409003E+02 0.  0.
         13    1    3    3    0    0 -0.21449253629E+02  0.18413284518E+02  0.38035145193E+02  0.47389903586E+02  0.10566000000E+00 0. -1.
         22    1    1    0    0    0 -0.52510493875E+01  0.18671948870E+02 -0.21641108053E+02  0.29061189791E+02  0.00000000000E+00 0.  1.
</event>
<event>
 5    1  0.1724243E-003  0.9118800E+02  0.7818608E-02  0.1130116E+00
         25   -1    0    0    0    0  0.00000000000E+00  0.00000000000E+00  0.99999998245E-14  0.12500000000E+03  0.12500000000E+03 0.  0.
        -13    1    3    3    0    0 -0.16524354605E+02  0.17801469422E+02  0.39043030400E+02  0.45981691961E+02  0.10566000000E+00 0.  1.
         23    2    1    0    0    0  0.23650709161E+02  0.13583383361E+02  0.91615068564E+01  0.96228528797E+02  0.91826642099E+02 0.  0.
         13    1    3    3    0    0  0.40175063766E+02 -0.42180860614E+01 -0.29881523544E+02  0.50246836836E+02  0.10566000000E+00 0. -1.
         22    1    1    0    0    0 -0.23650709161E+02 -0.13583383361E+02 -0.91615068564E+01  0.28771471203E+02  0.00000000000E+00 0. -1.
</event>
<event>
 5    1  0.1724243E-003  0.9118800E+02  0.7818608E-02  0.1130116E+00
         25   -1    0    0    0    0  0.00000000000E+00  0.00000000000E+00  0.99999998245E-14  0.12500000000E+03  0.12500000000E+03 0.  0.
        -13    1    3    3    0    0 -0.34602475985E+02 -0.18618061617E+02  0.31916058487E+02  0.50622223539E+02  0.10566000000E+00 0.  1.
         23    2    1    0    0    0 -0.18427725558E+02  0.18629920359E+02  0.87512047976E+01  0.97373226985E+02  0.93371873421E+02 0.  0.
         13    1    3    3    0    0  0.16174750427E+02  0.37247981976E+02 -0.23164853689E+02  0.46751003446E+02  0.10566000000E+00 0. -1.
         22    1    1    0    0    0  0.18427725558E+02 -0.18629920359E+02 -0.87512047976E+01  0.27626773015E+02  0.00000000000E+00 0.  1.
</event>
<event>
 5    1  0.1724243E-003  0.9118800E+02  0.7818608E-02  0.1130116E+00
         25   -1    0    0    0    0  0.00000000000E+00  0.00000000000E+00  0.99999998245E-14  0.12500000000E+03  0.12500000000E+03 0.  0.
        -13    1    3    3    0    0  0.41511577424E+02 -0.13649800264E+02  0.10777031594E+02  0.45007595820E+02  0.10566000000E+00 0.  1.
         23    2    1    0    0    0  0.69258920032E+01  0.24310598880E+02  0.13326655864E+02  0.96424259336E+02  0.92092696964E+02 0.  0.
         13    1    3    3    0    0 -0.34585685421E+02  0.37960399144E+02  0.25496242708E+01  0.51416663516E+02  0.10566000000E+00 0. -1.
         22    1    1    0    0    0 -0.69258920032E+01 -0.24310598880E+02 -0.13326655864E+02  0.28575740664E+02  0.00000000000E+00 0. -1.
</event>
<event>
 5    1  0.1724243E-003  0.9118800E+02  0.7818608E-02  0.1130116E+00
         25   -1    0    0    0    0  0.00000000000E+00  0.00000000000E+00  0.99999998245E-14  0.12500000000E+03  0.12500000000E+03 0.  0.
        -13    1    3    3    0    0  0.12047196383E+01  0.16145962982E+02  0.34517235756E+02  0.38126030455E+02  0.10566000000E+00 0. -1.
         23    2    1    0    0    0 -0.12934556876E+02  0.16477372163E+02 -0.20953428273E+02  0.95371420700E+02  0.90652386482E+02 0.  0.
         13    1    3    3    0    0 -0.14139276514E+02  0.33140918067E+00 -0.55470664029E+02  0.57245390244E+02  0.10566000000E+00 0.  1.
         22    1    1    0    0    0  0.12934556876E+02 -0.16477372163E+02  0.20953428273E+02  0.29628579300E+02  0.00000000000E+00 0.  1.
</event>
<event>
 5    1  0.1724243E-003  0.9118800E+02  0.7818608E-02  0.1130116E+00
         25   -1    0    0    0    0  0.00000000000E+00  0.00000000000E+00  0.99999998245E-14  0.12500000000E+03  0.12500000000E+03 0.  0.
        -13    1    3    3    0    0  0.74104387225E+01 -0.37401342307E+02 -0.28109854647E+02  0.47370350439E+02  0.10566000000E+00 0. -1.
         23    2    1    0    0    0 -0.26004708649E+02 -0.64759574526E+01 -0.11547987773E+02  0.95818860227E+02  0.91267272649E+02 0.  0.
         13    1    3    3    0    0 -0.33415147371E+02  0.30925384855E+02  0.16561866874E+02  0.48448509788E+02  0.10566000000E+00 0.  1.
         22    1    1    0    0    0  0.26004708649E+02  0.64759574526E+01  0.11547987773E+02  0.29181139773E+02  0.00000000000E+00 0. -1.
</event>
<event>
 5    1  0.1724243E-003  0.9118800E+02  0.7818608E-02  0.1130116E+00
         25   -1    0    0    0    0  0.00000000000E+00  0.00000000000E+00  0.99999998245E-14  0.12500000000E+03  0.12500000000E+03 0.  0.
        -13    1    3    3    0    0  0.24063273780E+02 -0.87837979371E+01  0.53055707141E+02  0.58916173293E+02  0.10566000000E+00 0.  1.
         23    2    1    0    0    0  0.12831244961E+02  0.10820795302E+02  0.21623923556E+02  0.97626207275E+02  0.93709934471E+02 0.  0.
         13    1    3    3    0    0 -0.11232028819E+02  0.19604593239E+02 -0.31431783585E+02  0.38710033981E+02  0.10566000000E+00 0. -1.
         22    1    1    0    0    0 -0.12831244961E+02 -0.10820795302E+02 -0.21623923556E+02  0.27373792725E+02  0.00000000000E+00 0.  1.
</event>
<event>
 5    1  0.1724243E-003  0.9118800E+02  0.7818608E-02  0.1130116E+00
         25   -1    0    0    0    0  0.00000000000E+00  0.00000000000E+00  0.99999998245E-14  0.12500000000E+03  0.12500000000E+03 0.  0.
        -13    1    3    3    0    0 -0.25638139261E+02  0.40286097210E+02  0.16269565508E+01  0.47780141951E+02  0.10566000000E+00 0.  1.
         23    2    1    0    0    0  0.79926918775E+01  0.36399931486E+02 -0.14158168307E+02  0.85134076388E+02  0.75223128737E+02 0.  0.
         13    1    3    3    0    0  0.33630831139E+02 -0.38861657237E+01 -0.15785124857E+02  0.37353934437E+02  0.10566000000E+00 0. -1.
         22    1    1    0    0    0 -0.79926918775E+01 -0.36399931486E+02  0.14158168307E+02  0.39865923612E+02  0.00000000000E+00 0.  1.
</event>
<event>
 5    1  0.1724243E-003  0.9118800E+02  0.7818608E-02  0.1130116E+00
         25   -1    0    0    0    0  0.00000000000E+00  0.00000000000E+00  0.99999998245E-14  0.12500000000E+03  0.12500000000E+03 0.  0.
        -13    1    3    3    0    0 -0.41135889694E+02 -0.16406349338E+02  0.25568375880E+01  0.44360774363E+02  0.10566000000E+00 0.  1.
         23    2    1    0    0    0  0.95274582117E+01 -0.13777564426E+02 -0.19164267061E+02  0.99546849439E+02  0.96237790705E+02 0.  0.
         13    1    3    3    0    0  0.50663347906E+02  0.26287849125E+01 -0.21721104649E+02  0.55186075077E+02  0.10566000000E+00 0. -1.
         22    1    1    0    0    0 -0.95274582117E+01  0.13777564426E+02  0.19164267061E+02  0.25453150561E+02  0.00000000000E+00 0. -1.
</event>
<event>
 5    1  0.1724243E-003  0.9118800E+02  0.7818608E-02  0.1130116E+00
         25   -1    0    0    0    0  0.00000000000E+00  0.00000000000E+00  0.99999998245E-14  0.12500000000E+03  0.12500000000E+03 0.  0.
        -13    1    3    3    0    0  0.76615922499E+01  0.35560225968E+02  0.11595298245E+01  0.36394853210E+02  0.10566000000E+00 0.  1.
         23    2    1    0    0    0  0.10969404170E+02 -0.19220828763E+02 -0.19958662092E+02  0.95198720184E+02  0.90413937233E+02 0.  0.
         13    1    3    3    0    0  0.33078119200E+01 -0.54781054732E+02 -0.21118191917E+02  0.58803866974E+02  0.10566000000E+00 0. -1.
         22    1    1    0    0    0 -0.10969404170E+02  0.19220828763E+02  0.19958662092E+02  0.29801279816E+02  0.00000000000E+00 0. -1.
</event>
<event>
 5    1  0.1724243E-003  0.9118800E+02  0.7818608E-02  0.1130116E+00
         25   -1    0    0    0    0  0.00000000000E+00  0.00000000000E+00  0.99999998245E-14  0.12500000000E+03  0.12500000000E+03 0.  0.
        -13    1    3    3    0    0 -0.34802235795E+02  0.25531624794E+02  0.30219447105E+02  0.52690469995E+02  0.10566000000E+00 0. -1.
         23    2    1    0    0    0 -0.25081989808E+02  0.11557227748E+02 -0.94123589213E+01  0.95823498729E+02  0.91273625337E+02 0.  0.
         13    1    3    3    0    0  0.97202459864E+01 -0.13974397046E+02 -0.39631806026E+02  0.43133028734E+02  0.10566000000E+00 0.  1.
         22    1    1    0    0    0  0.25081989808E+02 -0.11557227748E+02  0.94123589213E+01  0.29176501271E+02  0.00000000000E+00 0.  1.
</event>
<event>
 5    1  0.1724243E-003  0.9118800E+02  0.7818608E-02  0.1130116E+00
         25   -1    0    0    0    0  0.00000000000E+00  0.00000000000E+00  0.99999998245E-14  0.12500000000E+03  0.12500000000E+03 0.  0.
        -13    1    3    3    0    0  0.15476136690E+02 -0.35728582582E+02  0.66036719439E+01  0.39492557113E+02  0.10566000000E+00 0.  1.
         23    2    1    0    0    0 -0.14527294021E+02  0.18350140219E+02  0.21445175555E+01  0.10149747092E+03  0.98738886615E+02 0.  0.
         13    1    3    3    0    0 -0.30003430711E+02  0.54078722801E+02 -0.44591543884E+01  0.62004913806E+02  0.10566000000E+00 0. -1.
         22    1    1    0    0    0  0.14527294021E+02 -0.18350140219E+02 -0.21445175555E+01  0.23502529080E+02  0.00000000000E+00 0. -1.
</event>
<event>
 5    1  0.1724243E-003  0.9118800E+02  0.7818608E-02  0.1130116E+00
         25   -1    0    0    0    0  0.00000000000E+00  0.00000000000E+00  0.99999998245E-14  0.12500000000E+03  0.12500000000E+03 0.  0.
        -13    1    3    3    0    0 -0.29428657244E+02  0.39503348444E+02  0.18182091359E+02  0.52508666101E+02  0.10566000000E+00 0.  1.
         23    2    1    0    0    0  0.81516771139E+01  0.13030660075E+02  0.21470863619E+02  0.98594585284E+02  0.94992875107E+02 0.  0.
         13    1    3    3    0    0  0.37580334358E+02 -0.26472688370E+02  0.32887722605E+01  0.46085919183E+02  0.10566000000E+00 0. -1.
         22    1    1    0    0    0 -0.81516771139E+01 -0.13030660075E+02 -0.21470863619E+02  0.26405414716E+02  0.00000000000E+00 0.  1.
</event>
<event>
 5    1  0.1724243E-003  0.9118800E+02  0.7818608E-02  0.1130116E+00
         25   -1    0    0    0    0  0.00000000000E+00  0.00000000000E+00  0.99999998245E-14  0.12500000000E+03  0.12500000000E+03 0.  0.
        -13    1    3    3    0    0 -0.42778977092E+01  0.53456992693E+02 -0.27590188096E+02  0.60309038459E+02  0.10566000000E+00 0. -1.
         23    2    1    0    0    0 -0.43239197649E+01  0.30634091420E+02 -0.29083667482E+01  0.93925855822E+02  0.88636696438E+02 0.  0.
         13    1    3    3    0    0 -0.46022055778E-01 -0.22822901273E+02  0.24681821348E+02  0.33616817363E+02  0.10566000000E+00 0.  1.
         22    1    1    0    0    0  0.43239197649E+01 -0.30634091420E+02  0.29083667482E+01  0.31074144178E+02  0.00000000000E+00 0. -1.
</event>
<event>
 5    1  0.1724243E-003  0.9118800E+02  0.7818608E-02  0.1130116E+00
         25   -1    0    0    0    0  0.00000000000E+00  0.00000000000E+00  0.99999998245E-14  0.12500000000E+03  0.12500000000E+03 0.  0.
        -13    1    3    3    0    0  0.44173856766E+01  0.33602309796E+02  0.12362689307E+00  0.33891812691E+02  0.10566000000E+00 0.  1.
         23    2    1    0    0    0 -0.15850032869E+02 -0.16276531412E+02 -0.23166317196E+02  0.92552700125E+02  0.86678573080E+02 0.  0.
         13    1    3    3    0    0 -0.20267418546E+02 -0.49878841208E+02 -0.23289944089E+02  0.58660887433E+02  0.10566000000E+00 0. -1.
         22    1    1    0    0    0  0.15850032869E+02  0.16276531412E+02  0.23166317196E+02  0.32447299875E+02  0.00000000000E+00 0. -1.
</event>
<event>
 5    1  0.1724243E-003  0.9118800E+02  0.7818608E-02  0.1130116E+00
         25   -1    0    0    0    0  0.00000000000E+00  0.00000000000E+00  0.99999998245E-14  0.12500000000E+03  0.12500000000E+03 0.  0.
        -13    1    3    3    0    0 -0.30237316900E+02  0.31940800680E+01 -0.16284564417E+02  0.34491965486E+02  0.10566000000E+00 0. -1.
         23    2    1    0    0    0  0.25300429302E+02 -0.16288191568E+02 -0.73849216907E+01  0.94016875952E+02  0.88764964867E+02 0.  0.
         13    1    3    3    0    0  0.55537746202E+02 -0.19482271636E+02  0.88996427261E+01  0.59524910466E+02  0.10566000000E+00 0.  1.
         22    1    1    0    0    0 -0.25300429302E+02  0.16288191568E+02  0.73849216907E+01  0.30983124048E+02  0.00000000000E+00 0.  1.
</event>
<event>
 5    1  0.1724243E-003  0.9118800E+02  0.7818608E-02  0.1130116E+00
         25   -1    0    0    0    0  0.00000000000E+00  0.00000000000E+00  0.99999998245E-14  0.12500000000E+03  0.12500000000E+03 0.  0.
        -13    1    3    3    0    0 -0.58406404193E+02  0.13704729793E+02 -0.83703953306E+01  0.60573941191E+02  0.10566000000E+00 0.  1.
         23    2    1    0    0    0 -0.26748825799E+02 -0.16831841778E+01 -0.11339009073E+02  0.95898351982E+02  0.91376079996E+02 0.  0.
         13    1    3    3    0    0  0.31657578394E+02 -0.15387913971E+02 -0.29686137429E+01  0.35324410791E+02  0.10566000000E+00 0. -1.
         22    1    1    0    0    0  0.26748825799E+02  0.16831841778E+01  0.11339009073E+02  0.29101648018E+02  0.00000000000E+00 0.  1.
</event>
<event>
 5    1  0.1724243E-003  0.9118800E+02  0.7818608E-02  0.1130116E+00
         25   -1    0    0    0    0  0.00000000000E+00  0.00000000000E+00  0.99999998245E-14  0.12500000000E+03  0.12500000000E+03 0.  0.
        -13    1    3    3    0    0 -0.31526509857E+02  0.99647667205E+00 -0.98350589500E+01  0.33040177634E+02  0.10566000000E+00 0. -1.
         23    2    1    0    0    0  0.24161848434E+02  0.17927320902E+02  0.79116981811E+01  0.93890857894E+02  0.88587326822E+02 0.  0.
         13    1    3    3    0    0  0.55688358290E+02  0.16930844230E+02  0.17746757131E+02  0.60850680260E+02  0.10566000000E+00 0.  1.
         22    1    1    0    0    0 -0.24161848434E+02 -0.17927320902E+02 -0.79116981811E+01  0.31109142106E+02  0.00000000000E+00 0.  1.
</event>
<event>
 5    1  0.1724243E-003  0.9118800E+02  0.7818608E-02  0.1130116E+00
         25   -1    0    0    0    0  0.00000000000E+00  0.00000000000E+00  0.99999998245E-14  0.12500000000E+03  0.12500000000E+03 0.  0.
        -13    1    3    3    0    0 -0.19385247218E+02 -0.20421476754E+01  0.36109568770E+02  0.41034988700E+02  0.10566000000E+00 0. -1.
         23    2    1    0    0    0 -0.23827099831E+02  0.14862698912E+02 -0.13650408451E+02  0.93775583974E+02  0.88424521449E+02 0.  0.
         13    1    3    3    0    0 -0.44418526132E+01  0.16904846587E+02 -0.49759977221E+02  0.52740595274E+02  0.10566000000E+00 0.  1.
         22    1    1    0    0    0  0.23827099831E+02 -0.14862698912E+02  0.13650408451E+02  0.31224416026E+02  0.00000000000E+00 0. -1.
</event>
<event>
 5    1  0.1724243E-003  0.9118800E+02  0.7818608E-02  0.1130116E+00
         25   -1    0    0    0    0  0.00000000000E+00  0.00000000000E+00  0.99999998245E-14  0.12500000000E+03  0.12500000000E+03 0.  0.
        -13    1    3    3    0    0 -0.26193192682E+02 -0.25057284296E+02  0.69087725898E+01  0.36901126567E+02  0.10566000000E+00 0.  1.
         23    2    1    0    0    0  0.79195036980E+01  0.22781420261E+02  0.15570690204E+02  0.96291847128E+02  0.91912794441E+02 0.  0.
         13    1    3    3    0    0  0.34112696380E+02  0.47838704557E+02  0.86619176138E+01  0.59390720561E+02  0.10566000000E+00 0. -1.
         22    1    1    0    0    0 -0.79195036980E+01 -0.22781420261E+02 -0.15570690204E+02  0.28708152872E+02  0.00000000000E+00 0. -1.
</event>
<event>
 5    1  0.1724243E-003  0.9118800E+02  0.7818608E-02  0.1130116E+00
         25   -1    0    0    0    0  0.00000000000E+00  0.00000000000E+00  0.99999998245E-14  0.12500000000E+03  0.12500000000E+03 0.  0.
        -13    1    3    3    0    0 -0.10884097526E+02 -0.10355348370E+02 -0.33321500128E+02  0.36551748982E+02  0.10566000000E+00 0. -1.
         23    2    1    0    0    0  0.13087891524E+02  0.29585287114E+02 -0.21988396112E+01  0.92574438882E+02  0.86709917083E+02 0.  0.
         13    1    3    3    0    0  0.23971989050E+02  0.39940635485E+02  0.31122660517E+02  0.56022689900E+02  0.10566000000E+00 0.  1.
         22    1    1    0    0    0 -0.13087891524E+02 -0.29585287114E+02  0.21988396112E+01  0.32425561118E+02  0.00000000000E+00 0.  1.
</event>
<event>
 5    1  0.1724243E-003  0.9118800E+02  0.7818608E-02  0.1130116E+00
         25   -1    0    0    0    0  0.00000000000E+00  0.00000000000E+00  0.99999998245E-14  0.12500000000E+03  0.12500000000E+03 0.  0.
        -13    1    3    3    0    0  0.31707603828E+02 -0.86335332090E+00  0.53595508536E+02  0.62278465128E+02  0.10566000000E+00 0.  1.
         23    2    1    0    0    0  0.17399133351E+02 -0.23537963960E+01  0.23213673007E+02  0.95894247763E+02  0.91370465363E+02 0.  0.
         13    1    3    3    0    0 -0.14308470478E+02 -0.14904430751E+01 -0.30381835529E+02  0.33615782635E+02  0.10566000000E+00 0. -1.
         22    1    1    0    0    0 -0.17399133351E+02  0.23537963960E+01 -0.23213673007E+02  0.29105752237E+02  0.00000000000E+00 0.  1.
</event>
<event>
 5    1  0.1724243E-003  0.9118800E+02  0.7818608E-02  0.1130116E+00
         25   -1    0    0    0    0  0.00000000000E+00  0.00000000000E+00  0.99999998245E-14  0.12500000000E+03  0.12500000000E+03 0.  0.
        -13    1    3    3    0    0  0.28295612790E+02  0.15352146994E+02 -0.45989084855E+02  0.56136772354E+02  0.10566000000E+00 0.  1.
         23    2    1    0    0    0 -0.42446900199E+01  0.13724530493E+00 -0.28672683031E+02  0.96014503940E+02  0.91534834818E+02 0.  0.
         13    1    3    3    0    0 -0.32540302810E+02 -0.15214901689E+02  0.17316401824E+02  0.39877731587E+02  0.10566000000E+00 0. -1.
         22    1    1    0    0    0  0.42446900199E+01 -0.13724530493E+00  0.28672683031E+02  0.28985496060E+02  0.00000000000E+00 0.  1.
</event>
<event>
 5    1  0.1724243E-003  0.9118800E+02  0.7818608E-02  0.1130116E+00
         25   -1    0    0    0    0  0.00000000000E+00  0.00000000000E+00  0.99999998245E-14  0.12500000000E+03  0.12500000000E+03 0.  0.
        -13    1    3    3    0    0  0.10680605758E+02  0.54388448514E+02 -0.50361411880E+01  0.55655660567E+02  0.10566000000E+00 0. -1.
         23    2    1    0    0    0  0.19030217161E+02  0.19776868424E+02  0.11902793952E+02  0.95084281828E+02  0.90255584077E+02 0.  0.
         13    1    3    3    0    0  0.83496114032E+01 -0.34611580089E+02  0.16938935140E+02  0.39428621261E+02  0.10566000000E+00 0.  1.
         22    1    1    0    0    0 -0.19030217161E+02 -0.19776868424E+02 -0.11902793952E+02  0.29915718172E+02  0.00000000000E+00 0. -1.
</event>
<event>
 5    1  0.1724243E-003  0.9118800E+02  0.7818608E-02  0.1130116E+00
         25   -1    0    0    0    0  0.00000000000E+00  0.00000000000E+00  0.99999998245E-14  0.12500000000E+03  0.12500000000E+03 0.  0.
        -13    1    3    3    0    0  0.49237098523E+02 -0.17412099235E+02  0.13404863570E+02  0.53918221429E+02  0.10566000000E+00 0. -1.
         23    2    1    0    0    0  0.11302317159E+02 -0.57078753931E+01  0.26424847239E+02  0.95698212234E+02  0.91101882848E+02 0.  0.
         13    1    3    3    0    0 -0.37934781364E+02  0.11704223842E+02  0.13019983670E+02  0.41779990805E+02  0.10566000000E+00 0.  1.
         22    1    1    0    0    0 -0.11302317159E+02  0.57078753931E+01 -0.26424847239E+02  0.29301787766E+02  0.00000000000E+00 0. -1.
</event>
<event>
 5    1  0.1724243E-003  0.9118800E+02  0.7818608E-02  0.1130116E+00
         25   -1    0    0    0    0  0.00000000000E+00  0.00000000000E+00  0.99999998245E-14  0.12500000000E+03  0.12500000000E+03 0.  0.
        -13    1    3    3    0    0 -0.13260453523E+02  0.28402196914E+02 -0.19077629589E+02  0.36694570878E+02  0.10566000000E+00 0.  1.
         23    2    1    0    0    0 -0.14658695029E+02 -0.15245946472E+02  0.20437377121E+02  0.95589073334E+02  0.90952011157E+02 0.  0.
         13    1    3    3    0    0 -0.13982415059E+01 -0.43648143385E+02  0.39515006709E+02  0.58894502456E+02  0.10566000000E+00 0. -1.
         22    1    1    0    0    0  0.14658695029E+02  0.15245946472E+02 -0.20437377121E+02  0.29410926666E+02  0.00000000000E+00 0. -1.
</event>
<event>
 5    1  0.1724243E-003  0.9118800E+02  0.7818608E-02  0.1130116E+00
         25   -1    0    0    0    0  0.00000000000E+00  0.00000000000E+00  0.99999998245E-14  0.12500000000E+03  0.12500000000E+03 0.  0.
        -13    1    3    3    0    0 -0.49771405659E+02  0.20393413886E+02 -0.30835737069E+02  0.61999499964E+02  0.10566000000E+00 0.  1.
         23    2    1    0    0    0 -0.20503674555E+02  0.13521688986E+02 -0.17226674897E+02  0.95000082145E+02  0.90138895801E+02 0.  0.
         13    1    3    3    0    0  0.29267731104E+02 -0.68717248997E+01  0.13609062172E+02  0.33000582181E+02  0.10566000000E+00 0. -1.
         22    1    1    0    0    0  0.20503674555E+02 -0.13521688986E+02  0.17226674897E+02  0.29999917855E+02  0.00000000000E+00 0.  1.
</event>
<event>
 5    1  0.1724243E-003  0.9118800E+02  0.7818608E-02  0.1130116E+00
         25   -1    0    0    0    0  0.00000000000E+00  0.00000000000E+00  0.99999998245E-14  0.12500000000E+03  0.12500000000E+03 0.  0.
        -13    1    3    3    0    0 -0.34451422334E+01 -0.16572857923E+02  0.36416316759E+02  0.40158285758E+02  0.10566000000E+00 0.  1.
         23    2    1    0    0    0 -0.15386386566E+02 -0.19807493850E+02 -0.16811838906E+02  0.94805370816E+02  0.89868474472E+02 0.  0.
         13    1    3    3    0    0 -0.11941244333E+02 -0.32346359272E+01 -0.53228155664E+02  0.54647085057E+02  0.10566000000E+00 0. -1.
         22    1    1    0    0    0  0.15386386566E+02  0.19807493850E+02  0.16811838906E+02  0.30194629184E+02  0.00000000000E+00 0. -1.
</event>
<event>
 5    1  0.1724243E-003  0.9118800E+02  0.7818608E-02  0.1130116E+00
         25   -1    0    0    0    0  0.00000000000E+00  0.00000000000E+00  0.99999998245E-14  0.12500000000E+03  0.12500000000E+03 0.  0.
        -13    1    3    3    0    0  0.23775936688E+02 -0.11883781805E+02  0.24916511839E+02  0.36432995507E+02  0.10566000000E+00 0. -1.
         23    2    1    0    0    0 -0.18434963601E+02 -0.19326487488E+02 -0.14452506911E+02  0.94631661922E+02  0.89626533351E+02 0.  0.
         13    1    3    3    0    0 -0.42210900290E+02 -0.74427056831E+01 -0.39369018749E+02  0.58198666415E+02  0.10566000000E+00 0.  1.
         22    1    1    0    0    0  0.18434963601E+02  0.19326487488E+02  0.14452506911E+02  0.30368338078E+02  0.00000000000E+00 0.  1.
</event>
<event>
 5    1  0.1724243E-003  0.9118800E+02  0.7818608E-02  0.1130116E+00
         25   -1    0    0    0    0  0.00000000000E+00  0.00000000000E+00  0.99999998245E-14  0.12500000000E+03  0.12500000000E+03 0.  0.
        -13    1    3    3    0    0  0.35285477127E+02 -0.17964924758E+02  0.44327117375E+02  0.59436587356E+02  0.10566000000E+00 0.  1.
         23    2    1    0    0    0  0.16754709699E+02  0.52800766089E+01  0.23165806969E+02  0.95926745648E+02  0.91414913510E+02 0.  0.
         13    1    3    3    0    0 -0.18530767428E+02  0.23245001367E+02 -0.21161310406E+02  0.36490158292E+02  0.10566000000E+00 0. -1.
         22    1    1    0    0    0 -0.16754709699E+02 -0.52800766089E+01 -0.23165806969E+02  0.29073254352E+02  0.00000000000E+00 0.  1.
</event>
<event>
 5    1  0.1724243E-003  0.9118800E+02  0.7818608E-02  0.1130116E+00
         25   -1    0    0    0    0  0.00000000000E+00  0.00000000000E+00  0.99999998245E-14  0.12500000000E+03  0.12500000000E+03 0.  0.
        -13    1    3    3    0    0  0.30188818313E+02  0.33280164044E+02 -0.40496034804E+02  0.60488627599E+02  0.10566000000E+00 0. -1.
         23    2    1    0    0    0  0.96240029033E+01  0.22999421785E+02 -0.11364165027E+02  0.97600381734E+02  0.93675479361E+02 0.  0.
         13    1    3    3    0    0 -0.20564815410E+02 -0.10280742259E+02  0.29131869777E+02  0.37111754135E+02  0.10566000000E+00 0.  1.
         22    1    1    0    0    0 -0.96240029033E+01 -0.22999421785E+02  0.11364165027E+02  0.27399618266E+02  0.00000000000E+00 0. -1.
</event>
<event>
 5    1  0.1724243E-003  0.9118800E+02  0.7818608E-02  0.1130116E+00
         25   -1    0    0    0    0  0.00000000000E+00  0.00000000000E+00  0.99999998245E-14  0.12500000000E+03  0.12500000000E+03 0.  0.
        -13    1    3    3    0    0 -0.84260742360E+01 -0.24354127933E+02 -0.31480219242E+02  0.40683382873E+02  0.10566000000E+00 0. -1.
         23    2    1    0    0    0  0.29852536611E+02  0.38863660016E+01 -0.74021579516E+01  0.93998875421E+02  0.88739612661E+02 0.  0.
         13    1    3    3    0    0  0.38278610847E+02  0.28240493935E+02  0.24078061291E+02  0.53315492548E+02  0.10566000000E+00 0.  1.
         22    1    1    0    0    0 -0.29852536611E+02 -0.38863660016E+01  0.74021579516E+01  0.31001124579E+02  0.00000000000E+00 0.  1.
</event>
<event>
 5    1  0.1724243E-003  0.9118800E+02  0.7818608E-02  0.1130116E+00
         25   -1    0    0    0    0  0.00000000000E+00  0.00000000000E+00  0.99999998245E-14  0.12500000000E+03  0.12500000000E+03 0.  0.
        -13    1    3    3    0    0 -0.91965336825E+01  0.22228489710E+02  0.25592506954E+02  0.35123632539E+02  0.10566000000E+00 0.  1.
         23    2    1    0    0    0  0.24309020961E+02  0.52961288112E+00 -0.18385430578E+02  0.94516675913E+02  0.89466021361E+02 0.  0.
         13    1    3    3    0    0  0.33505554643E+02 -0.21698876829E+02 -0.43977937532E+02  0.59393043373E+02  0.10566000000E+00 0. -1.
         22    1    1    0    0    0 -0.24309020961E+02 -0.52961288112E+00  0.18385430578E+02  0.30483324087E+02  0.00000000000E+00 0. -1.
</event>
<event>
 5    1  0.1724243E-003  0.9118800E+02  0.7818608E-02  0.1130116E+00
         25   -1    0    0    0    0  0.00000000000E+00  0.00000000000E+00  0.99999998245E-14  0.12500000000E+03  0.12500000000E+03 0.  0.
        -13    1    3    3    0    0  0.56616283421E+02  0.13987120402E+02 -0.12253684282E+02  0.59592004732E+02  0.10566000000E+00 0. -1.
         23    2    1    0    0    0  0.21567985400E+02  0.67224347580E+01 -0.18342824519E+02  0.95899684974E+02  0.91377903475E+02 0.  0.
         13    1    3    3    0    0 -0.35048298021E+02 -0.72646856437E+01 -0.60891402368E+01  0.36307680242E+02  0.10566000000E+00 0.  1.
         22    1    1    0    0    0 -0.21567985400E+02 -0.67224347580E+01  0.18342824519E+02  0.29100315026E+02  0.00000000000E+00 0. -1.
</event>
<event>
 5    1  0.1724243E-003  0.9118800E+02  0.7818608E-02  0.1130116E+00
         25   -1    0    0    0    0  0.00000000000E+00  0.00000000000E+00  0.99999998245E-14  0.12500000000E+03  0.12500000000E+03 0.  0.
        -13    1    3    3    0    0 -0.49342954111E+02 -0.11514022291E+01  0.14330777743E+02  0.51394894710E+02  0.10566000000E+00 0.  1.
         23    2    1    0    0    0 -0.19348945227E+02 -0.10720650627E+02 -0.17969439264E+02  0.96500617923E+02  0.92196282359E+02 0.  0.
         13    1    3    3    0    0  0.29994008884E+02 -0.95692483983E+01 -0.32300217008E+02  0.45105723213E+02  0.10566000000E+00 0. -1.
         22    1    1    0    0    0  0.19348945227E+02  0.10720650627E+02  0.17969439264E+02  0.28499382077E+02  0.00000000000E+00 0. -1.
</event>
<event>
 5    1  0.1724243E-003  0.9118800E+02  0.7818608E-02  0.1130116E+00
         25   -1    0    0    0    0  0.00000000000E+00  0.00000000000E+00  0.99999998245E-14  0.12500000000E+03  0.12500000000E+03 0.  0.
        -13    1    3    3    0    0 -0.32094160080E+02  0.15146743989E+01  0.40605287014E+02  0.51779627725E+02  0.10566000000E+00 0. -1.
         23    2    1    0    0    0 -0.17715509914E+01 -0.22145102268E+02  0.18122769167E+02  0.96329828922E+02  0.91964434595E+02 0.  0.
         13    1    3    3    0    0  0.30322609089E+02 -0.23659776667E+02 -0.22482517848E+02  0.44550201197E+02  0.10566000000E+00 0.  1.
         22    1    1    0    0    0  0.17715509914E+01  0.22145102268E+02 -0.18122769167E+02  0.28670171078E+02  0.00000000000E+00 0. -1.
</event>
<event>
 5    1  0.1724243E-003  0.9118800E+02  0.7818608E-02  0.1130116E+00
         25   -1    0    0    0    0  0.00000000000E+00  0.00000000000E+00  0.99999998245E-14  0.12500000000E+03  0.12500000000E+03 0.  0.
        -13    1    3    3    0    0 -0.19860750709E+02  0.31154133354E+02 -0.16874081954E+02  0.40617425442E+02  0.10566000000E+00 0.  1.
         23    2    1    0    0    0  0.26567056916E+01 -0.22293961119E+02 -0.13692443243E+02  0.98702437575E+02  0.95134690801E+02 0.  0.
         13    1    3    3    0    0  0.22517456400E+02 -0.53448094473E+02  0.31816387110E+01  0.58085012133E+02  0.10566000000E+00 0. -1.
         22    1    1    0    0    0 -0.26567056916E+01  0.22293961119E+02  0.13692443243E+02  0.26297562425E+02  0.00000000000E+00 0. -1.
</event>
<event>
 5    1  0.1724243E-003  0.9118800E+02  0.7818608E-02  0.1130116E+00
         25   -1    0    0    0    0  0.00000000000E+00  0.00000000000E+00  0.99999998245E-14  0.12500000000E+03  0.12500000000E+03 0.  0.
        -13    1    3    3    0    0 -0.30546909313E+02  0.45873967741E+01  0.16093843803E+02  0.34830745759E+02  0.10566000000E+00 0.  1.
         23    2    1    0    0    0  0.28691307812E+02  0.59464067494E+01  0.27371133958E+01  0.95571396789E+02  0.90927714132E+02 0.  0.
         13    1    3    3    0    0  0.59238217126E+02  0.13590099753E+01 -0.13356730407E+02  0.60740651030E+02  0.10566000000E+00 0. -1.
         22    1    1    0    0    0 -0.28691307812E+02 -0.59464067494E+01 -0.27371133958E+01  0.29428603211E+02  0.00000000000E+00 0. -1.
</event>
<event>
 5    1  0.1724243E-003  0.9118800E+02  0.7818608E-02  0.1130116E+00
         25   -1    0    0    0    0  0.00000000000E+00  0.00000000000E+00  0.99999998245E-14  0.12500000000E+03  0.12500000000E+03 0.  0.
        -13    1    3    3    0    0  0.53588959839E+02 -0.26669579482E+02  0.55991393817E+00  0.59861237491E+02  0.10566000000E+00 0.  1.
         23    2    1    0    0    0  0.26754453208E+02 -0.67759305319E+01  0.11627577074E+02  0.95051468322E+02  0.90210127373E+02 0.  0.
         13    1    3    3    0    0 -0.26834506631E+02  0.19893648950E+02  0.11067663136E+02  0.35190230831E+02  0.10566000000E+00 0. -1.
         22    1    1    0    0    0 -0.26754453208E+02  0.67759305319E+01 -0.11627577074E+02  0.29948531678E+02  0.00000000000E+00 0.  1.
</event>
<event>
 5    1  0.1724243E-003  0.9118800E+02  0.7818608E-02  0.1130116E+00
         25   -1    0    0    0    0  0.00000000000E+00  0.00000000000E+00  0.99999998245E-14  0.12500000000E+03  0.12500000000E+03 0.  0.
        -13    1    3    3    0    0  0.23695276249E+02 -0.40121554986E+01  0.54109169979E+02  0.59206223897E+02  0.10566000000E+00 0.  1.
         23    2    1    0    0    0  0.21262872072E+02 -0.14499946517E+02  0.30937223427E+02  0.84757361280E+02  0.74594505964E+02 0.  0.
         13    1    3    3    0    0 -0.24324041768E+01 -0.10487791019E+02 -0.23171946552E+02  0.25551137384E+02  0.10566000000E+00 0. -1.
         22    1    1    0    0    0 -0.21262872072E+02  0.14499946517E+02 -0.30937223427E+02  0.40242638720E+02  0.00000000000E+00 0.  1.
</event>
<event>
 5    1  0.1724243E-003  0.9118800E+02  0.7818608E-02  0.1130116E+00
         25   -1    0    0    0    0  0.00000000000E+00  0.00000000000E+00  0.99999998245E-14  0.12500000000E+03  0.12500000000E+03 0.  0.
        -13    1    3    3    0    0 -0.28579060119E+02  0.34404431928E+02  0.30175577388E+02  0.53953723211E+02  0.10566000000E+00 0. -1.
         23    2    1    0    0    0 -0.37351451784E+00  0.28864037617E+02 -0.68212447148E+00  0.96125487459E+02  0.91686268682E+02 0.  0.
         13    1    3    3    0    0  0.28205545601E+02 -0.55403943107E+01 -0.30857701859E+02  0.42171764249E+02  0.10566000000E+00 0.  1.
         22    1    1    0    0    0  0.37351451784E+00 -0.28864037617E+02  0.68212447148E+00  0.28874512541E+02  0.00000000000E+00 0. -1.
</event>
<event>
 5    1  0.1724243E-003  0.9118800E+02  0.7818608E-02  0.1130116E+00
         25   -1    0    0    0    0  0.00000000000E+00  0.00000000000E+00  0.99999998245E-14  0.12500000000E+03  0.12500000000E+03 0.  0.
        -13    1    3    3    0    0 -0.37686482354E+02 -0.10089134361E+02 -0.26081983517E+02  0.46929123288E+02  0.10566000000E+00 0. -1.
         23    2    1    0    0    0 -0.62118355673E+01 -0.32024528699E+02 -0.18068044940E+01  0.92328576982E+02  0.86354758094E+02 0.  0.
         13    1    3    3    0    0  0.31474646787E+02 -0.21935394338E+02  0.24275179023E+02  0.45399453694E+02  0.10566000000E+00 0.  1.
         22    1    1    0    0    0  0.62118355673E+01  0.32024528699E+02  0.18068044940E+01  0.32671423018E+02  0.00000000000E+00 0. -1.
</event>
<event>
 4    1  0.1724243E-003  0.9118800E+02  0.7818608E-02  0.1130116E+00
         25   -1    0    0    0    0  0.00000000000E+00  0.00000000000E+00  0.99999998245E-14  0.12500000000E+03  0.12500000000E+03 0.  0.
        -13    1    1    0    0    0 -0.24325490445E+02  0.16855678028E+02 -0.22725326010E+02  0.37313469062E+02  0.10566000000E+00 0.  1.
         13    1    1    0    0    0 -0.27701872931E+02 -0.82384377857E+01  0.19474727243E+02  0.34850276703E+02  0.10566000000E+00 0. -1.
         22    1    1    0    0    0  0.52027363376E+02 -0.86172402421E+01  0.32505987669E+01  0.52836254235E+02  0.00000000000E+00 0.  1.
</event>
<event>
 5    1  0.1724243E-003  0.9118800E+02  0.7818608E-02  0.1130116E+00
         25   -1    0    0    0    0  0.00000000000E+00  0.00000000000E+00  0.99999998245E-14  0.12500000000E+03  0.12500000000E+03 0.  0.
        -13    1    3    3    0    0 -0.30572122523E+02  0.47789147111E+02  0.12902708543E+02  0.58180308601E+02  0.10566000000E+00 0. -1.
         23    2    1    0    0    0 -0.21938574310E+02  0.58027047593E+01  0.48214133001E+01  0.10180046441E+03  0.99121723669E+02 0.  0.
         13    1    3    3    0    0  0.86335482125E+01 -0.41986442352E+02 -0.80812952425E+01  0.43620155811E+02  0.10566000000E+00 0.  1.
         22    1    1    0    0    0  0.21938574310E+02 -0.58027047593E+01 -0.48214133001E+01  0.23199535588E+02  0.00000000000E+00 0. -1.
</event>
<event>
 5    1  0.1724243E-003  0.9118800E+02  0.7818608E-02  0.1130116E+00
         25   -1    0    0    0    0  0.00000000000E+00  0.00000000000E+00  0.99999998245E-14  0.12500000000E+03  0.12500000000E+03 0.  0.
        -13    1    3    3    0    0 -0.26748098345E+02 -0.79670493017E+01  0.19722859302E+02  0.34175093017E+02  0.10566000000E+00 0. -1.
         23    2    1    0    0    0  0.24362810564E+02 -0.84426050961E+01 -0.14241709491E+02  0.95544093825E+02  0.90890172495E+02 0.  0.
         13    1    3    3    0    0  0.51110908909E+02 -0.47555579443E+00 -0.33964568793E+02  0.61369000808E+02  0.10566000000E+00 0.  1.
         22    1    1    0    0    0 -0.24362810564E+02  0.84426050961E+01  0.14241709491E+02  0.29455906175E+02  0.00000000000E+00 0.  1.
</event>
<event>
 5    1  0.1724243E-003  0.9118800E+02  0.7818608E-02  0.1130116E+00
         25   -1    0    0    0    0  0.00000000000E+00  0.00000000000E+00  0.99999998245E-14  0.12500000000E+03  0.12500000000E+03 0.  0.
        -13    1    3    3    0    0 -0.25182192143E+02 -0.26637200614E+02  0.17988281514E+02  0.40832250655E+02  0.10566000000E+00 0.  1.
         23    2    1    0    0    0  0.14442246699E+02 -0.17771570805E+02 -0.18606589982E+02  0.95493858108E+02  0.90821057728E+02 0.  0.
         13    1    3    3    0    0  0.39624438842E+02  0.88656298083E+01 -0.36594871496E+02  0.54661607453E+02  0.10566000000E+00 0. -1.
         22    1    1    0    0    0 -0.14442246699E+02  0.17771570805E+02  0.18606589982E+02  0.29506141892E+02  0.00000000000E+00 0. -1.
</event>
<event>
 5    1  0.1724243E-003  0.9118800E+02  0.7818608E-02  0.1130116E+00
         25   -1    0    0    0    0  0.00000000000E+00  0.00000000000E+00  0.99999998245E-14  0.12500000000E+03  0.12500000000E+03 0.  0.
        -13    1    3    3    0    0 -0.58736712472E+02  0.38322372658E+00  0.13956950839E+02  0.60373470110E+02  0.10566000000E+00 0. -1.
         23    2    1    0    0    0 -0.30114214894E+02 -0.66680678887E+01 -0.23594533055E+01  0.94066262949E+02  0.88834485068E+02 0.  0.
         13    1    3    3    0    0  0.28622497578E+02 -0.70512916153E+01 -0.16316404145E+02  0.33692792839E+02  0.10566000000E+00 0.  1.
         22    1    1    0    0    0  0.30114214894E+02  0.66680678887E+01  0.23594533055E+01  0.30933737051E+02  0.00000000000E+00 0. -1.
</event>
<event>
 5    1  0.1724243E-003  0.9118800E+02  0.7818608E-02  0.1130116E+00
         25   -1    0    0    0    0  0.00000000000E+00  0.00000000000E+00  0.99999998245E-14  0.12500000000E+03  0.12500000000E+03 0.  0.
        -13    1    3    3    0    0  0.31778693579E+02  0.37076752336E+02  0.92353027984E+01  0.49697815959E+02  0.10566000000E+00 0. -1.
         23    2    1    0    0    0  0.19084802499E+02  0.40180496892E+02 -0.15681945179E+02  0.77834065031E+02  0.61915395967E+02 0.  0.
         13    1    3    3    0    0 -0.12693891080E+02  0.31037445561E+01 -0.24917247978E+02  0.28136249072E+02  0.10566000000E+00 0.  1.
         22    1    1    0    0    0 -0.19084802499E+02 -0.40180496892E+02  0.15681945179E+02  0.47165934969E+02  0.00000000000E+00 0. -1.
</event>
<event>
 5    1  0.1724243E-003  0.9118800E+02  0.7818608E-02  0.1130116E+00
         25   -1    0    0    0    0  0.00000000000E+00  0.00000000000E+00  0.99999998245E-14  0.12500000000E+03  0.12500000000E+03 0.  0.
        -13    1    3    3    0    0 -0.10544396443E+02  0.27579889400E+02 -0.27929377491E+02  0.40643522076E+02  0.10566000000E+00 0.  1.
         23    2    1    0    0    0  0.28834526037E+02  0.52388556447E+01  0.30981268469E+01  0.95530118931E+02  0.90870950985E+02 0.  0.
         13    1    3    3    0    0  0.39378922480E+02 -0.22341033755E+02  0.31027504338E+02  0.54886596856E+02  0.10566000000E+00 0. -1.
         22    1    1    0    0    0 -0.28834526037E+02 -0.52388556447E+01 -0.30981268469E+01  0.29469881069E+02  0.00000000000E+00 0.  1.
</event>
<event>
 5    1  0.1724243E-003  0.9118800E+02  0.7818608E-02  0.1130116E+00
         25   -1    0    0    0    0  0.00000000000E+00  0.00000000000E+00  0.99999998245E-14  0.12500000000E+03  0.12500000000E+03 0.  0.
        -13    1    3    3    0    0  0.10571817691E+02  0.39958150493E+02 -0.85175696513E+01  0.42201626472E+02  0.10566000000E+00 0.  1.
         23    2    1    0    0    0  0.18690232911E+02 -0.11540931616E+02 -0.19667350481E+02  0.95515723110E+02  0.90851146263E+02 0.  0.
         13    1    3    3    0    0  0.81184152196E+01 -0.51499082108E+02 -0.11149780829E+02  0.53314096638E+02  0.10566000000E+00 0. -1.
         22    1    1    0    0    0 -0.18690232911E+02  0.11540931616E+02  0.19667350481E+02  0.29484276890E+02  0.00000000000E+00 0.  1.
</event>
<event>
 5    1  0.1724243E-003  0.9118800E+02  0.7818608E-02  0.1130116E+00
         25   -1    0    0    0    0  0.00000000000E+00  0.00000000000E+00  0.99999998245E-14  0.12500000000E+03  0.12500000000E+03 0.  0.
        -13    1    3    3    0    0  0.19354857203E+02 -0.65809869270E+01  0.54849805796E+02  0.58535734779E+02  0.10566000000E+00 0.  1.
         23    2    1    0    0    0  0.23371132204E+02 -0.48729589241E+01  0.19443128416E+02  0.94210540898E+02  0.89037268739E+02 0.  0.
         13    1    3    3    0    0  0.40162750010E+01  0.17080280029E+01 -0.35406677380E+02  0.35674806119E+02  0.10566000000E+00 0. -1.
         22    1    1    0    0    0 -0.23371132204E+02  0.48729589241E+01 -0.19443128416E+02  0.30789459102E+02  0.00000000000E+00 0.  1.
</event>
<event>
 5    1  0.1724243E-003  0.9118800E+02  0.7818608E-02  0.1130116E+00
         25   -1    0    0    0    0  0.00000000000E+00  0.00000000000E+00  0.99999998245E-14  0.12500000000E+03  0.12500000000E+03 0.  0.
        -13    1    3    3    0    0  0.17645728933E+02 -0.21243161062E+02 -0.31939466005E+02  0.42223030376E+02  0.10566000000E+00 0. -1.
         23    2    1    0    0    0 -0.19480239055E+02 -0.21267802044E+02  0.62555239400E+01  0.95488465015E+02  0.90813634734E+02 0.  0.
         13    1    3    3    0    0 -0.37125967988E+02 -0.24640982208E-01  0.38194989945E+02  0.53265434638E+02  0.10566000000E+00 0.  1.
         22    1    1    0    0    0  0.19480239055E+02  0.21267802044E+02 -0.62555239400E+01  0.29511534985E+02  0.00000000000E+00 0.  1.
</event>
<event>
 5    1  0.1724243E-003  0.9118800E+02  0.7818608E-02  0.1130116E+00
         25   -1    0    0    0    0  0.00000000000E+00  0.00000000000E+00  0.99999998245E-14  0.12500000000E+03  0.12500000000E+03 0.  0.
        -13    1    3    3    0    0 -0.18493864876E+02  0.29699447773E+02 -0.26515296656E+02  0.43899343468E+02  0.10566000000E+00 0. -1.
         23    2    1    0    0    0  0.28459922775E+01  0.15388759365E+02  0.21529689044E+02  0.98383443176E+02  0.94714628194E+02 0.  0.
         13    1    3    3    0    0  0.21339857153E+02 -0.14310688408E+02  0.48044985700E+02  0.54484099708E+02  0.10566000000E+00 0.  1.
         22    1    1    0    0    0 -0.28459922775E+01 -0.15388759365E+02 -0.21529689044E+02  0.26616556824E+02  0.00000000000E+00 0. -1.
</event>
<event>
 5    1  0.1724243E-003  0.9118800E+02  0.7818608E-02  0.1130116E+00
         25   -1    0    0    0    0  0.00000000000E+00  0.00000000000E+00  0.99999998245E-14  0.12500000000E+03  0.12500000000E+03 0.  0.
        -13    1    3    3    0    0  0.57238694506E+01 -0.11856985936E+02  0.20160846946E+02  0.24079487341E+02  0.10566000000E+00 0.  1.
         23    2    1    0    0    0 -0.23395273917E+01  0.32118029344E+02 -0.22372761934E+02  0.85787990693E+02  0.76302016180E+02 0.  0.
         13    1    3    3    0    0 -0.80633968423E+01  0.43975015280E+02 -0.42533608880E+02  0.61708503352E+02  0.10566000000E+00 0. -1.
         22    1    1    0    0    0  0.23395273917E+01 -0.32118029344E+02  0.22372761934E+02  0.39212009307E+02  0.00000000000E+00 0. -1.
</event>
<event>
 5    1  0.1724243E-003  0.9118800E+02  0.7818608E-02  0.1130116E+00
         25   -1    0    0    0    0  0.00000000000E+00  0.00000000000E+00  0.99999998245E-14  0.12500000000E+03  0.12500000000E+03 0.  0.
        -13    1    3    3    0    0  0.27734629772E+02  0.55527249683E+02  0.40599482547E+01  0.62201121291E+02  0.10566000000E+00 0. -1.
         23    2    1    0    0    0  0.12448646384E+02  0.25703653452E+02  0.61741388153E+01  0.95780715483E+02  0.91215014503E+02 0.  0.
         13    1    3    3    0    0 -0.15285983388E+02 -0.29823596231E+02  0.21141905606E+01  0.33579594192E+02  0.10566000000E+00 0.  1.
         22    1    1    0    0    0 -0.12448646384E+02 -0.25703653452E+02 -0.61741388153E+01  0.29219284517E+02  0.00000000000E+00 0. -1.
</event>
<event>
 5    1  0.1724243E-003  0.9118800E+02  0.7818608E-02  0.1130116E+00
         25   -1    0    0    0    0  0.00000000000E+00  0.00000000000E+00  0.99999998245E-14  0.12500000000E+03  0.12500000000E+03 0.  0.
        -13    1    3    3    0    0 -0.95661661013E+01  0.20361762320E+01  0.50430423457E+02  0.51370189036E+02  0.10566000000E+00 0.  1.
         23    2    1    0    0    0  0.21590482418E+02 -0.38390402582E+01  0.19822590571E+02  0.95439515260E+02  0.90746233062E+02 0.  0.
         13    1    3    3    0    0  0.31156648519E+02 -0.58752164902E+01 -0.30607832886E+02  0.44069326223E+02  0.10566000000E+00 0. -1.
         22    1    1    0    0    0 -0.21590482418E+02  0.38390402582E+01 -0.19822590571E+02  0.29560484740E+02  0.00000000000E+00 0. -1.
</event>
<event>
 5    1  0.1724243E-003  0.9118800E+02  0.7818608E-02  0.1130116E+00
         25   -1    0    0    0    0  0.00000000000E+00  0.00000000000E+00  0.99999998245E-14  0.12500000000E+03  0.12500000000E+03 0.  0.
        -13    1    3    3    0    0  0.23620311696E+02 -0.28465107187E+02 -0.10540485519E+02  0.38461597091E+02  0.10566000000E+00 0. -1.
         23    2    1    0    0    0  0.72001020784E+01  0.70378632439E+01  0.29133215119E+02  0.94176028612E+02  0.88988803525E+02 0.  0.
         13    1    3    3    0    0 -0.16420209618E+02  0.35502970431E+02  0.39673700638E+02  0.55714431521E+02  0.10566000000E+00 0.  1.
         22    1    1    0    0    0 -0.72001020784E+01 -0.70378632439E+01 -0.29133215119E+02  0.30823971388E+02  0.00000000000E+00 0.  1.
</event>
<event>
 5    1  0.1724243E-003  0.9118800E+02  0.7818608E-02  0.1130116E+00
         25   -1    0    0    0    0  0.00000000000E+00  0.00000000000E+00  0.99999998245E-14  0.12500000000E+03  0.12500000000E+03 0.  0.
        -13    1    3    3    0    0  0.36187179163E+02 -0.18442189546E+02  0.93414398574E+01  0.41676131703E+02  0.10566000000E+00 0. -1.
         23    2    1    0    0    0  0.48240196184E+01  0.14619047508E+01 -0.29295976829E+02  0.95273537224E+02  0.90517314952E+02 0.  0.
         13    1    3    3    0    0 -0.31363159545E+02  0.19904094297E+02 -0.38637416686E+02  0.53597405522E+02  0.10566000000E+00 0.  1.
         22    1    1    0    0    0 -0.48240196184E+01 -0.14619047508E+01  0.29295976829E+02  0.29726462776E+02  0.00000000000E+00 0.  1.
</event>
<event>
 5    1  0.1724243E-003  0.9118800E+02  0.7818608E-02  0.1130116E+00
         25   -1    0    0    0    0  0.00000000000E+00  0.00000000000E+00  0.99999998245E-14  0.12500000000E+03  0.12500000000E+03 0.  0.
        -13    1    3    3    0    0  0.88229527396E+01  0.20137020546E+02  0.24264892767E+02  0.32743553206E+02  0.10566000000E+00 0.  1.
         23    2    1    0    0    0 -0.12308024806E+02 -0.21568871333E+02 -0.16838302944E+02  0.94996131395E+02  0.90133416937E+02 0.  0.
         13    1    3    3    0    0 -0.21130977546E+02 -0.41705891879E+02 -0.41103195711E+02  0.62252578189E+02  0.10566000000E+00 0. -1.
         22    1    1    0    0    0  0.12308024806E+02  0.21568871333E+02  0.16838302944E+02  0.30003868605E+02  0.00000000000E+00 0. -1.
</event>
<event>
 5    1  0.1724243E-003  0.9118800E+02  0.7818608E-02  0.1130116E+00
         25   -1    0    0    0    0  0.00000000000E+00  0.00000000000E+00  0.99999998245E-14  0.12500000000E+03  0.12500000000E+03 0.  0.
        -13    1    3    3    0    0  0.42871135544E+01 -0.34035135151E+02 -0.32612528092E+02  0.47332419334E+02  0.10566000000E+00 0.  1.
         23    2    1    0    0    0 -0.28302293587E+02 -0.10321913440E+02 -0.12378431377E+02  0.92430270454E+02  0.86501835897E+02 0.  0.
         13    1    3    3    0    0 -0.32589407141E+02  0.23713221712E+02  0.20234096715E+02  0.45097851120E+02  0.10566000000E+00 0. -1.
         22    1    1    0    0    0  0.28302293587E+02  0.10321913440E+02  0.12378431377E+02  0.32569729546E+02  0.00000000000E+00 0.  1.
</event>
<event>
 5    1  0.1724243E-003  0.9118800E+02  0.7818608E-02  0.1130116E+00
         25   -1    0    0    0    0  0.00000000000E+00  0.00000000000E+00  0.99999998245E-14  0.12500000000E+03  0.12500000000E+03 0.  0.
        -13    1    3    3    0    0  0.18476880488E+02 -0.97781475927E+01 -0.30228718831E+02  0.36753148016E+02  0.10566000000E+00 0. -1.
         23    2    1    0    0    0  0.15828913988E+02  0.94213081977E+01  0.24232934333E+02  0.94560705123E+02  0.89527516892E+02 0.  0.
         13    1    3    3    0    0 -0.26479665001E+01  0.19199455790E+02  0.54461653164E+02  0.57807557107E+02  0.10566000000E+00 0.  1.
         22    1    1    0    0    0 -0.15828913988E+02 -0.94213081977E+01 -0.24232934333E+02  0.30439294877E+02  0.00000000000E+00 0.  1.
</event>
<event>
 5    1  0.1724243E-003  0.9118800E+02  0.7818608E-02  0.1130116E+00
         25   -1    0    0    0    0  0.00000000000E+00  0.00000000000E+00  0.99999998245E-14  0.12500000000E+03  0.12500000000E+03 0.  0.
        -13    1    3    3    0    0 -0.23967313607E+02 -0.16937978996E+02  0.25941464274E+02  0.39170115990E+02  0.10566000000E+00 0.  1.
         23    2    1    0    0    0  0.12033100532E+02 -0.14725233165E+01 -0.21267005933E+02  0.10052042944E+03  0.97494140135E+02 0.  0.
         13    1    3    3    0    0  0.36000414138E+02  0.15465455679E+02 -0.47208470206E+02  0.61350313453E+02  0.10566000000E+00 0. -1.
         22    1    1    0    0    0 -0.12033100532E+02  0.14725233165E+01  0.21267005933E+02  0.24479570557E+02  0.00000000000E+00 0. -1.
</event>
<event>
 5    1  0.1724243E-003  0.9118800E+02  0.7818608E-02  0.1130116E+00
         25   -1    0    0    0    0  0.00000000000E+00  0.00000000000E+00  0.99999998245E-14  0.12500000000E+03  0.12500000000E+03 0.  0.
        -13    1    3    3    0    0 -0.64861381366E+01 -0.30833625742E+02 -0.23739764775E+02  0.39450856264E+02  0.10566000000E+00 0. -1.
         23    2    1    0    0    0  0.26912701682E+02 -0.22663227840E+01  0.11363590594E+02  0.95698789752E+02  0.91102675252E+02 0.  0.
         13    1    3    3    0    0  0.33398839818E+02  0.28567302958E+02  0.35103355369E+02  0.56247933489E+02  0.10566000000E+00 0.  1.
         22    1    1    0    0    0 -0.26912701682E+02  0.22663227840E+01 -0.11363590594E+02  0.29301210248E+02  0.00000000000E+00 0.  1.
</event>
<event>
 5    1  0.1724243E-003  0.9118800E+02  0.7818608E-02  0.1130116E+00
         25   -1    0    0    0    0  0.00000000000E+00  0.00000000000E+00  0.99999998245E-14  0.12500000000E+03  0.12500000000E+03 0.  0.
        -13    1    3    3    0    0 -0.41917296697E+02 -0.34754637875E+02 -0.27671751935E+02  0.61079306114E+02  0.10566000000E+00 0. -1.
         23    2    1    0    0    0 -0.15237845826E+02 -0.14106729394E+02 -0.20996293246E+02  0.95469742810E+02  0.90787860987E+02 0.  0.
         13    1    3    3    0    0  0.26679450871E+02  0.20647908480E+02  0.66754586888E+01  0.34390436696E+02  0.10566000000E+00 0.  1.
         22    1    1    0    0    0  0.15237845826E+02  0.14106729394E+02  0.20996293246E+02  0.29530257190E+02  0.00000000000E+00 0. -1.
</event>
<event>
 5    1  0.1724243E-003  0.9118800E+02  0.7818608E-02  0.1130116E+00
         25   -1    0    0    0    0  0.00000000000E+00  0.00000000000E+00  0.99999998245E-14  0.12500000000E+03  0.12500000000E+03 0.  0.
        -13    1    3    3    0    0 -0.31452143044E+02  0.66637582936E+01  0.34862931902E+02  0.47424446876E+02  0.10566000000E+00 0.  1.
         23    2    1    0    0    0 -0.21894103073E+02 -0.21368198547E+02 -0.15575319314E+01  0.94367051004E+02  0.89256723842E+02 0.  0.
         13    1    3    3    0    0  0.95580399713E+01 -0.28031956840E+02 -0.36420463834E+02  0.46942604128E+02  0.10566000000E+00 0. -1.
         22    1    1    0    0    0  0.21894103073E+02  0.21368198547E+02  0.15575319314E+01  0.30632948996E+02  0.00000000000E+00 0.  1.
</event>
<event>
 5    1  0.1724243E-003  0.9118800E+02  0.7818608E-02  0.1130116E+00
         25   -1    0    0    0    0  0.00000000000E+00  0.00000000000E+00  0.99999998245E-14  0.12500000000E+03  0.12500000000E+03 0.  0.
        -13    1    3    3    0    0 -0.61082204416E+01  0.31064582138E+02  0.20846953787E+02  0.37906797103E+02  0.10566000000E+00 0. -1.
         23    2    1    0    0    0  0.19088205861E+02 -0.19982378525E+02  0.67099404429E+01  0.96562729469E+02  0.92280454958E+02 0.  0.
         13    1    3    3    0    0  0.25196426303E+02 -0.51046960663E+02 -0.14137013344E+02  0.58655932366E+02  0.10566000000E+00 0.  1.
         22    1    1    0    0    0 -0.19088205861E+02  0.19982378525E+02 -0.67099404429E+01  0.28437270531E+02  0.00000000000E+00 0.  1.
</event>
<event>
 5    1  0.1724243E-003  0.9118800E+02  0.7818608E-02  0.1130116E+00
         25   -1    0    0    0    0  0.00000000000E+00  0.00000000000E+00  0.99999998245E-14  0.12500000000E+03  0.12500000000E+03 0.  0.
        -13    1    3    3    0    0  0.14894648944E+02  0.16963959615E+02 -0.35247889276E+02  0.41857512533E+02  0.10566000000E+00 0.  1.
         23    2    1    0    0    0  0.61094374760E+01 -0.27093540797E+02 -0.31989404735E+01  0.97042560930E+02  0.92928145534E+02 0.  0.
         13    1    3    3    0    0 -0.87852114678E+01 -0.44057500413E+02  0.32048948803E+02  0.55185048397E+02  0.10566000000E+00 0. -1.
         22    1    1    0    0    0 -0.61094374760E+01  0.27093540797E+02  0.31989404735E+01  0.27957439070E+02  0.00000000000E+00 0. -1.
</event>
<event>
 5    1  0.1724243E-003  0.9118800E+02  0.7818608E-02  0.1130116E+00
         25   -1    0    0    0    0  0.00000000000E+00  0.00000000000E+00  0.99999998245E-14  0.12500000000E+03  0.12500000000E+03 0.  0.
        -13    1    3    3    0    0  0.81868715004E+01 -0.63532630934E+01 -0.33325072716E+02  0.34899290143E+02  0.10566000000E+00 0. -1.
         23    2    1    0    0    0  0.14521465326E+02  0.10502807477E+02  0.24034671409E+02  0.95019216990E+02  0.90165427119E+02 0.  0.
         13    1    3    3    0    0  0.63345938257E+01  0.16856070570E+02  0.57359744125E+02  0.60119926848E+02  0.10566000000E+00 0.  1.
         22    1    1    0    0    0 -0.14521465326E+02 -0.10502807477E+02 -0.24034671409E+02  0.29980783010E+02  0.00000000000E+00 0.  1.
</event>
<event>
 5    1  0.1724243E-003  0.9118800E+02  0.7818608E-02  0.1130116E+00
         25   -1    0    0    0    0  0.00000000000E+00  0.00000000000E+00  0.99999998245E-14  0.12500000000E+03  0.12500000000E+03 0.  0.
        -13    1    3    3    0    0 -0.26807207912E+01 -0.46904694983E+02 -0.25885456741E+02  0.53640513701E+02  0.10566000000E+00 0.  1.
         23    2    1    0    0    0  0.11911239779E+00 -0.26519531486E+02  0.11326521010E+02  0.96162700955E+02  0.91736989479E+02 0.  0.
         13    1    3    3    0    0  0.27998331890E+01  0.20385163496E+02  0.37211977751E+02  0.42522187254E+02  0.10566000000E+00 0. -1.
         22    1    1    0    0    0 -0.11911239779E+00  0.26519531486E+02 -0.11326521010E+02  0.28837299045E+02  0.00000000000E+00 0.  1.
</event>
<event>
 5    1  0.1724243E-003  0.9118800E+02  0.7818608E-02  0.1130116E+00
         25   -1    0    0    0    0  0.00000000000E+00  0.00000000000E+00  0.99999998245E-14  0.12500000000E+03  0.12500000000E+03 0.  0.
        -13    1    3    3    0    0  0.59552783923E+01 -0.50349014299E+02 -0.32907599241E+02  0.60443443262E+02  0.10566000000E+00 0.  1.
         23    2    1    0    0    0 -0.34681238992E+01 -0.27929312359E+02 -0.69562751082E+01  0.96009240513E+02  0.91527646798E+02 0.  0.
         13    1    3    3    0    0 -0.94234022915E+01  0.22419701940E+02  0.25951324133E+02  0.35565797251E+02  0.10566000000E+00 0. -1.
         22    1    1    0    0    0  0.34681238992E+01  0.27929312359E+02  0.69562751082E+01  0.28990759487E+02  0.00000000000E+00 0.  1.
</event>
<event>
 5    1  0.1724243E-003  0.9118800E+02  0.7818608E-02  0.1130116E+00
         25   -1    0    0    0    0  0.00000000000E+00  0.00000000000E+00  0.99999998245E-14  0.12500000000E+03  0.12500000000E+03 0.  0.
        -13    1    3    3    0    0 -0.15142553167E+02 -0.37214393554E+02 -0.13830335899E+01  0.40201143640E+02  0.10566000000E+00 0.  1.
         23    2    1    0    0    0  0.18498113334E+01 -0.51247782929E+01 -0.34936438180E+02  0.89641268868E+02  0.82373036954E+02 0.  0.
         13    1    3    3    0    0  0.16992364501E+02  0.32089615261E+02 -0.33553404590E+02  0.49440125228E+02  0.10566000000E+00 0. -1.
         22    1    1    0    0    0 -0.18498113334E+01  0.51247782929E+01  0.34936438180E+02  0.35358731132E+02  0.00000000000E+00 0. -1.
</event>
<event>
 5    1  0.1724243E-003  0.9118800E+02  0.7818608E-02  0.1130116E+00
         25   -1    0    0    0    0  0.00000000000E+00  0.00000000000E+00  0.99999998245E-14  0.12500000000E+03  0.12500000000E+03 0.  0.
        -13    1    3    3    0    0 -0.26782824374E+02 -0.91602833729E+01  0.49857400292E+02  0.57332381782E+02  0.10566000000E+00 0. -1.
         23    2    1    0    0    0 -0.26492669187E+02 -0.32023890220E+01  0.11855896594E+02  0.95799330485E+02  0.91240520720E+02 0.  0.
         13    1    3    3    0    0  0.29015518752E+00  0.59578943510E+01 -0.38001503698E+02  0.38466948702E+02  0.10566000000E+00 0.  1.
         22    1    1    0    0    0  0.26492669187E+02  0.32023890220E+01 -0.11855896594E+02  0.29200669515E+02  0.00000000000E+00 0. -1.
</event>
<event>
 5    1  0.1724243E-003  0.9118800E+02  0.7818608E-02  0.1130116E+00
         25   -1    0    0    0    0  0.00000000000E+00  0.00000000000E+00  0.99999998245E-14  0.12500000000E+03  0.12500000000E+03 0.  0.
        -13    1    3    3    0    0 -0.21644529137E+01  0.56370679946E+02  0.13990015914E+02  0.58121167601E+02  0.10566000000E+00 0.  1.
         23    2    1    0    0    0 -0.12815989766E+02  0.19686991212E+02  0.16328278085E+02  0.96391611687E+02  0.92048372727E+02 0.  0.
         13    1    3    3    0    0 -0.10651536853E+02 -0.36683688735E+02  0.23382621709E+01  0.38270444086E+02  0.10566000000E+00 0. -1.
         22    1    1    0    0    0  0.12815989766E+02 -0.19686991212E+02 -0.16328278085E+02  0.28608388313E+02  0.00000000000E+00 0.  1.
</event>
<event>
 5    1  0.1724243E-003  0.9118800E+02  0.7818608E-02  0.1130116E+00
         25   -1    0    0    0    0  0.00000000000E+00  0.00000000000E+00  0.99999998245E-14  0.12500000000E+03  0.12500000000E+03 0.  0.
        -13    1    3    3    0    0  0.87618689370E+01  0.96629982457E+01  0.55557609925E+02  0.57068406907E+02  0.10566000000E+00 0. -1.
         23    2    1    0    0    0 -0.58863268373E+01 -0.11120281126E+02  0.26396657596E+02  0.95758026260E+02  0.91183916153E+02 0.  0.
         13    1    3    3    0    0 -0.14648195774E+02 -0.20783279372E+02 -0.29160952329E+02  0.38689619353E+02  0.10566000000E+00 0.  1.
         22    1    1    0    0    0  0.58863268373E+01  0.11120281126E+02 -0.26396657596E+02  0.29241973740E+02  0.00000000000E+00 0. -1.
</event>
<event>
 5    1  0.1724243E-003  0.9118800E+02  0.7818608E-02  0.1130116E+00
         25   -1    0    0    0    0  0.00000000000E+00  0.00000000000E+00  0.99999998245E-14  0.12500000000E+03  0.12500000000E+03 0.  0.
        -13    1    3    3    0    0  0.10987165305E+02 -0.34238091936E+02 -0.42594433202E+02  0.55742816978E+02  0.10566000000E+00 0.  1.
         23    2    1    0    0    0 -0.14981375105E+02 -0.15655570555E+02 -0.23875665726E+02  0.92757389943E+02  0.86973257302E+02 0.  0.
         13    1    3    3    0    0 -0.25968540410E+02  0.18582521381E+02  0.18718767476E+02  0.37014572964E+02  0.10566000000E+00 0. -1.
         22    1    1    0    0    0  0.14981375105E+02  0.15655570555E+02  0.23875665726E+02  0.32242610057E+02  0.00000000000E+00 0.  1.
</event>
<event>
 5    1  0.1724243E-003  0.9118800E+02  0.7818608E-02  0.1130116E+00
         25   -1    0    0    0    0  0.00000000000E+00  0.00000000000E+00  0.99999998245E-14  0.12500000000E+03  0.12500000000E+03 0.  0.
        -13    1    3    3    0    0 -0.14846793707E+02  0.30195061500E+02 -0.25528734488E+02  0.42236198586E+02  0.10566000000E+00 0. -1.
         23    2    1    0    0    0 -0.11619680601E+02  0.98904128933E+01  0.24393934581E+02  0.96226726136E+02  0.91824188176E+02 0.  0.
         13    1    3    3    0    0  0.32271131067E+01 -0.20304648607E+02  0.49922669070E+02  0.53990527550E+02  0.10566000000E+00 0.  1.
         22    1    1    0    0    0  0.11619680601E+02 -0.98904128933E+01 -0.24393934581E+02  0.28773273864E+02  0.00000000000E+00 0.  1.
</event>
<event>
 5    1  0.1724243E-003  0.9118800E+02  0.7818608E-02  0.1130116E+00
         25   -1    0    0    0    0  0.00000000000E+00  0.00000000000E+00  0.99999998245E-14  0.12500000000E+03  0.12500000000E+03 0.  0.
        -13    1    3    3    0    0 -0.16376431769E+02 -0.32392650077E+02 -0.31629070805E+02  0.48144372262E+02  0.10566000000E+00 0.  1.
         23    2    1    0    0    0 -0.19401185846E+02 -0.18362562344E+02  0.13191738305E+02  0.95207187652E+02  0.90425643006E+02 0.  0.
         13    1    3    3    0    0 -0.30247540769E+01  0.14030087733E+02  0.44820809111E+02  0.47062815390E+02  0.10566000000E+00 0. -1.
         22    1    1    0    0    0  0.19401185846E+02  0.18362562344E+02 -0.13191738305E+02  0.29792812348E+02  0.00000000000E+00 0. -1.
</event>
<event>
 5    1  0.1724243E-003  0.9118800E+02  0.7818608E-02  0.1130116E+00
         25   -1    0    0    0    0  0.00000000000E+00  0.00000000000E+00  0.99999998245E-14  0.12500000000E+03  0.12500000000E+03 0.  0.
        -13    1    3    3    0    0 -0.28667167145E+02  0.64164819114E+01 -0.46455952689E+02  0.54964938065E+02  0.10566000000E+00 0. -1.
         23    2    1    0    0    0 -0.73457903849E+00  0.20861970818E+02 -0.20532476070E+02  0.95719562737E+02  0.91131172956E+02 0.  0.
         13    1    3    3    0    0  0.27932588106E+02  0.14445488906E+02  0.25923476620E+02  0.40754624672E+02  0.10566000000E+00 0.  1.
         22    1    1    0    0    0  0.73457903849E+00 -0.20861970818E+02  0.20532476070E+02  0.29280437263E+02  0.00000000000E+00 0. -1.
</event>
<event>
 5    1  0.1724243E-003  0.9118800E+02  0.7818608E-02  0.1130116E+00
         25   -1    0    0    0    0  0.00000000000E+00  0.00000000000E+00  0.99999998245E-14  0.12500000000E+03  0.12500000000E+03 0.  0.
        -13    1    3    3    0    0  0.46459694736E+02 -0.46431547615E+01 -0.26969987318E+02  0.53920807682E+02  0.10566000000E+00 0. -1.
         23    2    1    0    0    0  0.14067467993E+02  0.19248127229E+02 -0.17919146496E+02  0.95175850914E+02  0.90382314246E+02 0.  0.
         13    1    3    3    0    0 -0.32392226742E+02  0.23891281991E+02  0.90508408222E+01  0.41255043232E+02  0.10566000000E+00 0.  1.
         22    1    1    0    0    0 -0.14067467993E+02 -0.19248127229E+02  0.17919146496E+02  0.29824149086E+02  0.00000000000E+00 0.  1.
</event>
<event>
 5    1  0.1724243E-003  0.9118800E+02  0.7818608E-02  0.1130116E+00
         25   -1    0    0    0    0  0.00000000000E+00  0.00000000000E+00  0.99999998245E-14  0.12500000000E+03  0.12500000000E+03 0.  0.
        -13    1    3    3    0    0  0.50105144154E+01 -0.28756375213E+02  0.15744251922E+02  0.33165147410E+02  0.10566000000E+00 0.  1.
         23    2    1    0    0    0 -0.22122664201E+02  0.20121954251E+02 -0.82146138552E+01  0.93987338150E+02  0.88723359594E+02 0.  0.
         13    1    3    3    0    0 -0.27133178616E+02  0.48878329464E+02 -0.23958865777E+02  0.60822190740E+02  0.10566000000E+00 0. -1.
         22    1    1    0    0    0  0.22122664201E+02 -0.20121954251E+02  0.82146138552E+01  0.31012661850E+02  0.00000000000E+00 0. -1.
</event>
<event>
 5    1  0.1724243E-003  0.9118800E+02  0.7818608E-02  0.1130116E+00
         25   -1    0    0    0    0  0.00000000000E+00  0.00000000000E+00  0.99999998245E-14  0.12500000000E+03  0.12500000000E+03 0.  0.
        -13    1    3    3    0    0 -0.49522892488E+01 -0.27047130353E+02  0.38976465010E+02  0.47699564127E+02  0.10566000000E+00 0. -1.
         23    2    1    0    0    0  0.24966318076E+02  0.20097492961E+01  0.14838570534E+02  0.95887471666E+02  0.91361194806E+02 0.  0.
         13    1    3    3    0    0  0.29918607325E+02  0.29056879649E+02 -0.24137894476E+02  0.48187907539E+02  0.10566000000E+00 0.  1.
         22    1    1    0    0    0 -0.24966318076E+02 -0.20097492961E+01 -0.14838570534E+02  0.29112528334E+02  0.00000000000E+00 0. -1.
</event>
<event>
 5    1  0.1724243E-003  0.9118800E+02  0.7818608E-02  0.1130116E+00
         25   -1    0    0    0    0  0.00000000000E+00  0.00000000000E+00  0.99999998245E-14  0.12500000000E+03  0.12500000000E+03 0.  0.
        -13    1    3    3    0    0  0.24811195246E+02  0.53369765268E+02 -0.72961689142E+01  0.59305754351E+02  0.10566000000E+00 0.  1.
         23    2    1    0    0    0  0.20156785856E+02  0.14973150272E+02 -0.97559873851E+01  0.98061727320E+02  0.94289086484E+02 0.  0.
         13    1    3    3    0    0 -0.46544093899E+01 -0.38396614995E+02 -0.24598184709E+01  0.38755972970E+02  0.10566000000E+00 0. -1.
         22    1    1    0    0    0 -0.20156785856E+02 -0.14973150272E+02  0.97559873851E+01  0.26938272680E+02  0.00000000000E+00 0.  1.
</event>
<event>
 5    1  0.1724243E-003  0.9118800E+02  0.7818608E-02  0.1130116E+00
         25   -1    0    0    0    0  0.00000000000E+00  0.00000000000E+00  0.99999998245E-14  0.12500000000E+03  0.12500000000E+03 0.  0.
        -13    1    3    3    0    0  0.11515215220E+02  0.91687654537E+01 -0.52266240817E+02  0.54299516892E+02  0.10566000000E+00 0.  1.
         23    2    1    0    0    0  0.97861539048E+01  0.20817143805E+02 -0.71733985241E+01  0.10090477369E+03  0.97985679683E+02 0.  0.
         13    1    3    3    0    0 -0.17290613151E+01  0.11648378352E+02  0.45092842293E+02  0.46605256800E+02  0.10566000000E+00 0. -1.
         22    1    1    0    0    0 -0.97861539048E+01 -0.20817143805E+02  0.71733985241E+01  0.24095226308E+02  0.00000000000E+00 0.  1.
</event>
<event>
 5    1  0.1724243E-003  0.9118800E+02  0.7818608E-02  0.1130116E+00
         25   -1    0    0    0    0  0.00000000000E+00  0.00000000000E+00  0.99999998245E-14  0.12500000000E+03  0.12500000000E+03 0.  0.
        -13    1    3    3    0    0  0.90051941660E+01  0.18880799088E+02  0.14545344877E+02  0.25478546226E+02  0.10566000000E+00 0. -1.
         23    2    1    0    0    0  0.55119404187E+01 -0.54729268424E+01 -0.39438140589E+02  0.84804212304E+02  0.74672974201E+02 0.  0.
         13    1    3    3    0    0 -0.34932537473E+01 -0.24353725930E+02 -0.53983485466E+02  0.59325666078E+02  0.10566000000E+00 0.  1.
         22    1    1    0    0    0 -0.55119404187E+01  0.54729268424E+01  0.39438140589E+02  0.40195787696E+02  0.00000000000E+00 0.  1.
</event>
<event>
 5    1  0.1724243E-003  0.9118800E+02  0.7818608E-02  0.1130116E+00
         25   -1    0    0    0    0  0.00000000000E+00  0.00000000000E+00  0.99999998245E-14  0.12500000000E+03  0.12500000000E+03 0.  0.
        -13    1    3    3    0    0  0.29229977318E+02  0.22621691185E+02  0.19933781055E+02  0.41994038592E+02  0.10566000000E+00 0.  1.
         23    2    1    0    0    0  0.36444384318E+01  0.11231760439E+02 -0.26368955263E+02  0.96107852698E+02  0.91662223268E+02 0.  0.
         13    1    3    3    0    0 -0.25585538886E+02 -0.11389930746E+02 -0.46302736318E+02  0.54113814106E+02  0.10566000000E+00 0. -1.
         22    1    1    0    0    0 -0.36444384318E+01 -0.11231760439E+02  0.26368955263E+02  0.28892147302E+02  0.00000000000E+00 0.  1.
</event>
<event>
 5    1  0.1724243E-003  0.9118800E+02  0.7818608E-02  0.1130116E+00
         25   -1    0    0    0    0  0.00000000000E+00  0.00000000000E+00  0.99999998245E-14  0.12500000000E+03  0.12500000000E+03 0.  0.
        -13    1    3    3    0    0  0.37536457523E+02 -0.10341035095E+01  0.55507392157E+01  0.37958884116E+02  0.10566000000E+00 0. -1.
         23    2    1    0    0    0 -0.11447004780E+02 -0.26219201643E+02 -0.91455167232E+01  0.94964671979E+02  0.90089777415E+02 0.  0.
         13    1    3    3    0    0 -0.48983462303E+02 -0.25185098133E+02 -0.14696255939E+02  0.57005787863E+02  0.10566000000E+00 0.  1.
         22    1    1    0    0    0  0.11447004780E+02  0.26219201643E+02  0.91455167232E+01  0.30035328021E+02  0.00000000000E+00 0.  1.
</event>
<event>
 5    1  0.1724243E-003  0.9118800E+02  0.7818608E-02  0.1130116E+00
         25   -1    0    0    0    0  0.00000000000E+00  0.00000000000E+00  0.99999998245E-14  0.12500000000E+03  0.12500000000E+03 0.  0.
        -13    1    3    3    0    0 -0.18964969265E+02 -0.87931641044E+01  0.50118965757E+02  0.54303882797E+02  0.10566000000E+00 0. -1.
         23    2    1    0    0    0 -0.87267652295E+01  0.18615022017E+02  0.22133997283E+02  0.94790906803E+02  0.89848353912E+02 0.  0.
         13    1    3    3    0    0  0.10238204035E+02  0.27408186122E+02 -0.27984968474E+02  0.40487024006E+02  0.10566000000E+00 0.  1.
         22    1    1    0    0    0  0.87267652295E+01 -0.18615022017E+02 -0.22133997283E+02  0.30209093197E+02  0.00000000000E+00 0. -1.
</event>
<event>
 5    1  0.1724243E-003  0.9118800E+02  0.7818608E-02  0.1130116E+00
         25   -1    0    0    0    0  0.00000000000E+00  0.00000000000E+00  0.99999998245E-14  0.12500000000E+03  0.12500000000E+03 0.  0.
        -13    1    3    3    0    0  0.13329474717E+02  0.11236209492E+02  0.28545808808E+02  0.33448492709E+02  0.10566000000E+00 0. -1.
         23    2    1    0    0    0 -0.11341372533E+02 -0.10271935320E+02 -0.24696977095E+02  0.95946943986E+02  0.91442528380E+02 0.  0.
         13    1    3    3    0    0 -0.24670847250E+02 -0.21508144813E+02 -0.53242785902E+02  0.62498451277E+02  0.10566000000E+00 0.  1.
         22    1    1    0    0    0  0.11341372533E+02  0.10271935320E+02  0.24696977095E+02  0.29053056014E+02  0.00000000000E+00 0.  1.
</event>
<event>
 5    1  0.1724243E-003  0.9118800E+02  0.7818608E-02  0.1130116E+00
         25   -1    0    0    0    0  0.00000000000E+00  0.00000000000E+00  0.99999998245E-14  0.12500000000E+03  0.12500000000E+03 0.  0.
        -13    1    3    3    0    0  0.77985321483E+01 -0.13233240421E+02 -0.29445902853E+02  0.33211565976E+02  0.10566000000E+00 0.  1.
         23    2    1    0    0    0  0.18150408626E+02  0.10191448415E+02  0.24453822424E+02  0.92886258623E+02  0.87158273594E+02 0.  0.
         13    1    3    3    0    0  0.10351876477E+02  0.23424688836E+02  0.53899725276E+02  0.59674692648E+02  0.10566000000E+00 0. -1.
         22    1    1    0    0    0 -0.18150408626E+02 -0.10191448415E+02 -0.24453822424E+02  0.32113741377E+02  0.00000000000E+00 0. -1.
</event>
<event>
 5    1  0.1724243E-003  0.9118800E+02  0.7818608E-02  0.1130116E+00
         25   -1    0    0    0    0  0.00000000000E+00  0.00000000000E+00  0.99999998245E-14  0.12500000000E+03  0.12500000000E+03 0.  0.
        -13    1    3    3    0    0  0.34061922126E+01 -0.24212088156E+02  0.54517482767E+02  0.59749430537E+02  0.10566000000E+00 0.  1.
         23    2    1    0    0    0  0.90215962068E+01 -0.19706585785E+02  0.18424671193E+02  0.96553432017E+02  0.92267860083E+02 0.  0.
         13    1    3    3    0    0  0.56154039942E+01  0.45055023707E+01 -0.36092811574E+02  0.36804001480E+02  0.10566000000E+00 0. -1.
         22    1    1    0    0    0 -0.90215962068E+01  0.19706585785E+02 -0.18424671193E+02  0.28446567983E+02  0.00000000000E+00 0.  1.
</event>
<event>
 5    1  0.1724243E-003  0.9118800E+02  0.7818608E-02  0.1130116E+00
         25   -1    0    0    0    0  0.00000000000E+00  0.00000000000E+00  0.99999998245E-14  0.12500000000E+03  0.12500000000E+03 0.  0.
        -13    1    3    3    0    0  0.24034294072E+02 -0.32906952627E+02 -0.36771281082E+02  0.54887640678E+02  0.10566000000E+00 0.  1.
         23    2    1    0    0    0  0.20608212292E+02 -0.21406999575E+02  0.17491886925E+01  0.95233950451E+02  0.90462631030E+02 0.  0.
         13    1    3    3    0    0 -0.34260817807E+01  0.11499953052E+02  0.38520469775E+02  0.40346309773E+02  0.10566000000E+00 0. -1.
         22    1    1    0    0    0 -0.20608212292E+02  0.21406999575E+02 -0.17491886925E+01  0.29766049549E+02  0.00000000000E+00 0.  1.
</event>
<event>
 5    1  0.1724243E-003  0.9118800E+02  0.7818608E-02  0.1130116E+00
         25   -1    0    0    0    0  0.00000000000E+00  0.00000000000E+00  0.99999998245E-14  0.12500000000E+03  0.12500000000E+03 0.  0.
        -13    1    3    3    0    0 -0.53120268411E+02  0.17327317400E+02  0.10378810644E+02  0.56830711053E+02  0.10566000000E+00 0. -1.
         23    2    1    0    0    0 -0.18603951450E+02  0.18286488490E+02 -0.10157317557E+02  0.97005826128E+02  0.92878719478E+02 0.  0.
         13    1    3    3    0    0  0.34516316961E+02  0.95917108933E+00 -0.20536128200E+02  0.40175115074E+02  0.10566000000E+00 0.  1.
         22    1    1    0    0    0  0.18603951450E+02 -0.18286488490E+02  0.10157317557E+02  0.27994173872E+02  0.00000000000E+00 0. -1.
</event>
<event>
 5    1  0.1724243E-003  0.9118800E+02  0.7818608E-02  0.1130116E+00
         25   -1    0    0    0    0  0.00000000000E+00  0.00000000000E+00  0.99999998245E-14  0.12500000000E+03  0.12500000000E+03 0.  0.
        -13    1    3    3    0    0  0.76208881009E+01  0.10965155412E+02 -0.40436099327E+02  0.42584056424E+02  0.10566000000E+00 0.  1.
         23    2    1    0    0    0 -0.27798373658E+02  0.34920541951E+01  0.16959926859E+00  0.96982634235E+02  0.92847501629E+02 0.  0.
         13    1    3    3    0    0 -0.35419261759E+02 -0.74731012173E+01  0.40605698596E+02  0.54398577811E+02  0.10566000000E+00 0. -1.
         22    1    1    0    0    0  0.27798373658E+02 -0.34920541951E+01 -0.16959926859E+00  0.28017365765E+02  0.00000000000E+00 0.  1.
</event>
<event>
 5    1  0.1724243E-003  0.9118800E+02  0.7818608E-02  0.1130116E+00
         25   -1    0    0    0    0  0.00000000000E+00  0.00000000000E+00  0.99999998245E-14  0.12500000000E+03  0.12500000000E+03 0.  0.
        -13    1    3    3    0    0 -0.49197990150E+02 -0.27842003759E+02 -0.13228339545E+02  0.58057036948E+02  0.10566000000E+00 0.  1.
         23    2    1    0    0    0 -0.11811032174E+02 -0.25195535271E+02 -0.88897359398E+01  0.95787966800E+02  0.91224951082E+02 0.  0.
         13    1    3    3    0    0  0.37386957976E+02  0.26464684874E+01  0.43386036050E+01  0.37730929851E+02  0.10566000000E+00 0. -1.
         22    1    1    0    0    0  0.11811032174E+02  0.25195535271E+02  0.88897359398E+01  0.29212033200E+02  0.00000000000E+00 0.  1.
</event>
<event>
 5    1  0.1724243E-003  0.9118800E+02  0.7818608E-02  0.1130116E+00
         25   -1    0    0    0    0  0.00000000000E+00  0.00000000000E+00  0.99999998245E-14  0.12500000000E+03  0.12500000000E+03 0.  0.
        -13    1    3    3    0    0  0.62418099364E+01  0.37641828226E+02  0.34748587114E+01  0.38313877781E+02  0.10566000000E+00 0. -1.
         23    2    1    0    0    0 -0.25921378455E+02 -0.10182746434E+02  0.77086535732E+01  0.96103122558E+02  0.91655772538E+02 0.  0.
         13    1    3    3    0    0 -0.32163188392E+02 -0.47824574661E+02  0.42337948618E+01  0.57789244778E+02  0.10566000000E+00 0.  1.
         22    1    1    0    0    0  0.25921378455E+02  0.10182746434E+02 -0.77086535732E+01  0.28896877442E+02  0.00000000000E+00 0.  1.
</event>
<event>
 5    1  0.1724243E-003  0.9118800E+02  0.7818608E-02  0.1130116E+00
         25   -1    0    0    0    0  0.00000000000E+00  0.00000000000E+00  0.99999998245E-14  0.12500000000E+03  0.12500000000E+03 0.  0.
        -13    1    3    3    0    0  0.26481547603E+02  0.16067493055E+01 -0.36926712474E+02  0.45469190282E+02  0.10566000000E+00 0. -1.
         23    2    1    0    0    0  0.11423179370E+02  0.27542032134E+02  0.25824491920E+01  0.95071391532E+02  0.90237729820E+02 0.  0.
         13    1    3    3    0    0 -0.15058368234E+02  0.25935282829E+02  0.39509161666E+02  0.49602201250E+02  0.10566000000E+00 0.  1.
         22    1    1    0    0    0 -0.11423179370E+02 -0.27542032134E+02 -0.25824491920E+01  0.29928608468E+02  0.00000000000E+00 0.  1.
</event>
<event>
 5    1  0.1724243E-003  0.9118800E+02  0.7818608E-02  0.1130116E+00
         25   -1    0    0    0    0  0.00000000000E+00  0.00000000000E+00  0.99999998245E-14  0.12500000000E+03  0.12500000000E+03 0.  0.
        -13    1    3    3    0    0  0.18431746428E+01  0.13718258118E+02 -0.37336487951E+02  0.39819748808E+02  0.10566000000E+00 0.  1.
         23    2    1    0    0    0 -0.28013283292E+02 -0.16333529409E+02 -0.72680216108E+01  0.91768202548E+02  0.85539760563E+02 0.  0.
         13    1    3    3    0    0 -0.29856457935E+02 -0.30051787527E+02  0.30068466340E+02  0.51948453741E+02  0.10566000000E+00 0. -1.
         22    1    1    0    0    0  0.28013283292E+02  0.16333529409E+02  0.72680216108E+01  0.33231797452E+02  0.00000000000E+00 0. -1.
</event>
<event>
 5    1  0.1724243E-003  0.9118800E+02  0.7818608E-02  0.1130116E+00
         25   -1    0    0    0    0  0.00000000000E+00  0.00000000000E+00  0.99999998245E-14  0.12500000000E+03  0.12500000000E+03 0.  0.
        -13    1    3    3    0    0  0.22762382725E+02 -0.34425546213E+02 -0.13840827312E+02  0.43529575740E+02  0.10566000000E+00 0. -1.
         23    2    1    0    0    0  0.62415148599E+01 -0.74248646584E+01  0.27639351155E+02  0.95708041117E+02  0.91115367964E+02 0.  0.
         13    1    3    3    0    0 -0.16520867865E+02  0.27000681554E+02  0.41480178467E+02  0.52178465377E+02  0.10566000000E+00 0.  1.
         22    1    1    0    0    0 -0.62415148599E+01  0.74248646584E+01 -0.27639351155E+02  0.29291958883E+02  0.00000000000E+00 0.  1.
</event>
<event>
 5    1  0.1724243E-003  0.9118800E+02  0.7818608E-02  0.1130116E+00
         25   -1    0    0    0    0  0.00000000000E+00  0.00000000000E+00  0.99999998245E-14  0.12500000000E+03  0.12500000000E+03 0.  0.
        -13    1    3    3    0    0 -0.25464945136E+02 -0.45156500836E+02  0.14723997766E+02  0.53892302537E+02  0.10566000000E+00 0. -1.
         23    2    1    0    0    0  0.10874098531E+02 -0.26501700327E+02  0.76746252731E+01  0.95343870580E+02  0.90614389834E+02 0.  0.
         13    1    3    3    0    0  0.36339043667E+02  0.18654800509E+02 -0.70493724928E+01  0.41451568043E+02  0.10566000000E+00 0.  1.
         22    1    1    0    0    0 -0.10874098531E+02  0.26501700327E+02 -0.76746252731E+01  0.29656129420E+02  0.00000000000E+00 0. -1.
</event>
<event>
 5    1  0.1724243E-003  0.9118800E+02  0.7818608E-02  0.1130116E+00
         25   -1    0    0    0    0  0.00000000000E+00  0.00000000000E+00  0.99999998245E-14  0.12500000000E+03  0.12500000000E+03 0.  0.
        -13    1    3    3    0    0  0.54002100042E+02  0.32209681855E+01  0.12162627923E+02  0.55448553877E+02  0.10566000000E+00 0. -1.
         23    2    1    0    0    0  0.16143752225E+02  0.50686626809E+01  0.24425174546E+02  0.95286346087E+02  0.90535001638E+02 0.  0.
         13    1    3    3    0    0 -0.37858347817E+02  0.18476944954E+01  0.12262546623E+02  0.39837792209E+02  0.10566000000E+00 0.  1.
         22    1    1    0    0    0 -0.16143752225E+02 -0.50686626809E+01 -0.24425174546E+02  0.29713653913E+02  0.00000000000E+00 0. -1.
</event>
<event>
 5    1  0.1724243E-003  0.9118800E+02  0.7818608E-02  0.1130116E+00
         25   -1    0    0    0    0  0.00000000000E+00  0.00000000000E+00  0.99999998245E-14  0.12500000000E+03  0.12500000000E+03 0.  0.
        -13    1    3    3    0    0 -0.14067296499E+02 -0.21005143950E+02 -0.44646503586E+02  0.51307176395E+02  0.10566000000E+00 0.  1.
         23    2    1    0    0    0 -0.89574381802E+01 -0.28925810417E+02 -0.23649325201E+01  0.94626802722E+02  0.89619756084E+02 0.  0.
         13    1    3    3    0    0  0.51098583193E+01 -0.79206664669E+01  0.42281571066E+02  0.43319626327E+02  0.10566000000E+00 0. -1.
         22    1    1    0    0    0  0.89574381802E+01  0.28925810417E+02  0.23649325201E+01  0.30373197278E+02  0.00000000000E+00 0.  1.
</event>
<event>
 5    1  0.1724243E-003  0.9118800E+02  0.7818608E-02  0.1130116E+00
         25   -1    0    0    0    0  0.00000000000E+00  0.00000000000E+00  0.99999998245E-14  0.12500000000E+03  0.12500000000E+03 0.  0.
        -13    1    3    3    0    0 -0.21844173319E+02 -0.23145006637E+00 -0.29017236633E+02  0.36321242586E+02  0.10566000000E+00 0.  1.
         23    2    1    0    0    0  0.26449706538E+02  0.15238891117E+02 -0.56475810110E+00  0.94469200303E+02  0.89399664852E+02 0.  0.
         13    1    3    3    0    0  0.48293879857E+02  0.15470341184E+02  0.28452478532E+02  0.58147957717E+02  0.10566000000E+00 0. -1.
         22    1    1    0    0    0 -0.26449706538E+02 -0.15238891117E+02  0.56475810110E+00  0.30530799697E+02  0.00000000000E+00 0. -1.
</event>
<event>
 5    1  0.1724243E-003  0.9118800E+02  0.7818608E-02  0.1130116E+00
         25   -1    0    0    0    0  0.00000000000E+00  0.00000000000E+00  0.99999998245E-14  0.12500000000E+03  0.12500000000E+03 0.  0.
        -13    1    3    3    0    0 -0.30789491632E+01  0.31429531551E+02  0.21835226799E+02  0.38393797349E+02  0.10566000000E+00 0.  1.
         23    2    1    0    0    0  0.16650759722E+02  0.73149409805E+01 -0.24657324137E+02  0.94361139145E+02  0.89248444167E+02 0.  0.
         13    1    3    3    0    0  0.19729708886E+02 -0.24114590571E+02 -0.46492550936E+02  0.55967341796E+02  0.10566000000E+00 0. -1.
         22    1    1    0    0    0 -0.16650759722E+02 -0.73149409805E+01  0.24657324137E+02  0.30638860855E+02  0.00000000000E+00 0. -1.
</event>
<event>
 5    1  0.1724243E-003  0.9118800E+02  0.7818608E-02  0.1130116E+00
         25   -1    0    0    0    0  0.00000000000E+00  0.00000000000E+00  0.99999998245E-14  0.12500000000E+03  0.12500000000E+03 0.  0.
        -13    1    3    3    0    0 -0.14438817906E+02  0.28873909134E+02 -0.18951294940E+02  0.37434540670E+02  0.10566000000E+00 0. -1.
         23    2    1    0    0    0  0.29815882886E+02 -0.37446158429E+01 -0.23744322120E+01  0.94856228696E+02  0.89939185976E+02 0.  0.
         13    1    3    3    0    0  0.44254700792E+02 -0.32618524977E+02  0.16576862728E+02  0.57421688026E+02  0.10566000000E+00 0.  1.
         22    1    1    0    0    0 -0.29815882886E+02  0.37446158429E+01  0.23744322120E+01  0.30143771304E+02  0.00000000000E+00 0.  1.
</event>
<event>
 5    1  0.1724243E-003  0.9118800E+02  0.7818608E-02  0.1130116E+00
         25   -1    0    0    0    0  0.00000000000E+00  0.00000000000E+00  0.99999998245E-14  0.12500000000E+03  0.12500000000E+03 0.  0.
        -13    1    3    3    0    0  0.47897552460E+02  0.53368610168E+01  0.28821682182E+02  0.56154769566E+02  0.10566000000E+00 0.  1.
         23    2    1    0    0    0  0.12353579212E+02 -0.10346442366E+02  0.25086158344E+02  0.95184314037E+02  0.90394018105E+02 0.  0.
         13    1    3    3    0    0 -0.35543973248E+02 -0.15683303382E+02 -0.37355238380E+01  0.39029544471E+02  0.10566000000E+00 0. -1.
         22    1    1    0    0    0 -0.12353579212E+02  0.10346442366E+02 -0.25086158344E+02  0.29815685963E+02  0.00000000000E+00 0.  1.
</event>
<event>
 5    1  0.1724243E-003  0.9118800E+02  0.7818608E-02  0.1130116E+00
         25   -1    0    0    0    0  0.00000000000E+00  0.00000000000E+00  0.99999998245E-14  0.12500000000E+03  0.12500000000E+03 0.  0.
        -13    1    3    3    0    0 -0.26940830214E+02  0.29394838057E+02 -0.44122114715E+01  0.40116625122E+02  0.10566000000E+00 0. -1.
         23    2    1    0    0    0  0.20717163525E+02  0.13102420544E+02  0.17334892017E+02  0.94977129220E+02  0.90107060239E+02 0.  0.
         13    1    3    3    0    0  0.47657993740E+02 -0.16292417513E+02  0.21747103489E+02  0.54860504098E+02  0.10566000000E+00 0.  1.
         22    1    1    0    0    0 -0.20717163525E+02 -0.13102420544E+02 -0.17334892017E+02  0.30022870780E+02  0.00000000000E+00 0. -1.
</event>
<event>
 5    1  0.1724243E-003  0.9118800E+02  0.7818608E-02  0.1130116E+00
         25   -1    0    0    0    0  0.00000000000E+00  0.00000000000E+00  0.99999998245E-14  0.12500000000E+03  0.12500000000E+03 0.  0.
        -13    1    3    3    0    0 -0.35035058325E+02 -0.27568394171E+02  0.15592302131E+02  0.47229257021E+02  0.10566000000E+00 0. -1.
         23    2    1    0    0    0 -0.24909177146E+02  0.17134166717E+02  0.83665184741E+01  0.93630501972E+02  0.88219190050E+02 0.  0.
         13    1    3    3    0    0  0.10125881179E+02  0.44702560887E+02 -0.72257836569E+01  0.46401244951E+02  0.10566000000E+00 0.  1.
         22    1    1    0    0    0  0.24909177146E+02 -0.17134166717E+02 -0.83665184741E+01  0.31369498028E+02  0.00000000000E+00 0. -1.
</event>
<event>
 5    1  0.1724243E-003  0.9118800E+02  0.7818608E-02  0.1130116E+00
         25   -1    0    0    0    0  0.00000000000E+00  0.00000000000E+00  0.99999998245E-14  0.12500000000E+03  0.12500000000E+03 0.  0.
        -13    1    3    3    0    0  0.18307146438E+02  0.43414225665E+02  0.25127448546E+02  0.53398000293E+02  0.10566000000E+00 0.  1.
         23    2    1    0    0    0  0.27424126471E+02  0.22510333004E+02 -0.27483693045E+01  0.89414169414E+02  0.82027692601E+02 0.  0.
         13    1    3    3    0    0  0.91169800332E+01 -0.20903892661E+02 -0.27875817851E+02  0.36016169121E+02  0.10566000000E+00 0. -1.
         22    1    1    0    0    0 -0.27424126471E+02 -0.22510333004E+02  0.27483693045E+01  0.35585830586E+02  0.00000000000E+00 0.  1.
</event>
<event>
 5    1  0.1724243E-003  0.9118800E+02  0.7818608E-02  0.1130116E+00
         25   -1    0    0    0    0  0.00000000000E+00  0.00000000000E+00  0.99999998245E-14  0.12500000000E+03  0.12500000000E+03 0.  0.
        -13    1    3    3    0    0  0.32075327533E+02 -0.16234156087E+02 -0.21189412959E+02  0.41729807641E+02  0.10566000000E+00 0. -1.
         23    2    1    0    0    0 -0.11540146983E+02 -0.24760420886E+02  0.98756324211E+01  0.95952081821E+02  0.91449551421E+02 0.  0.
         13    1    3    3    0    0 -0.43615474516E+02 -0.85262647994E+01  0.31065045380E+02  0.54222274179E+02  0.10566000000E+00 0.  1.
         22    1    1    0    0    0  0.11540146983E+02  0.24760420886E+02 -0.98756324211E+01  0.29047918179E+02  0.00000000000E+00 0.  1.
</event>
<event>
 5    1  0.1724243E-003  0.9118800E+02  0.7818608E-02  0.1130116E+00
         25   -1    0    0    0    0  0.00000000000E+00  0.00000000000E+00  0.99999998245E-14  0.12500000000E+03  0.12500000000E+03 0.  0.
        -13    1    3    3    0    0 -0.44431767659E+02 -0.93113293102E+01  0.31086482579E+02  0.55020572461E+02  0.10566000000E+00 0.  1.
         23    2    1    0    0    0 -0.18434593787E+02  0.17300174365E+02  0.15420460106E+02  0.95387150238E+02  0.90674073248E+02 0.  0.
         13    1    3    3    0    0  0.25997173872E+02  0.26611503676E+02 -0.15666022472E+02  0.40366577776E+02  0.10566000000E+00 0. -1.
         22    1    1    0    0    0  0.18434593787E+02 -0.17300174365E+02 -0.15420460106E+02  0.29612849762E+02  0.00000000000E+00 0.  1.
</event>
<event>
 5    1  0.1724243E-003  0.9118800E+02  0.7818608E-02  0.1130116E+00
         25   -1    0    0    0    0  0.00000000000E+00  0.00000000000E+00  0.99999998245E-14  0.12500000000E+03  0.12500000000E+03 0.  0.
        -13    1    3    3    0    0 -0.20033112546E+02 -0.26077372759E+02  0.73604503106E+01  0.33697809440E+02  0.10566000000E+00 0.  1.
         23    2    1    0    0    0  0.18227068746E+02  0.22567579779E+02  0.44210117566E+01  0.95656056211E+02  0.91044022609E+02 0.  0.
         13    1    3    3    0    0  0.38260181292E+02  0.48644952537E+02 -0.29394385539E+01  0.61958246771E+02  0.10566000000E+00 0. -1.
         22    1    1    0    0    0 -0.18227068746E+02 -0.22567579779E+02 -0.44210117566E+01  0.29343943789E+02  0.00000000000E+00 0. -1.
</event>
<event>
 5    1  0.1724243E-003  0.9118800E+02  0.7818608E-02  0.1130116E+00
         25   -1    0    0    0    0  0.00000000000E+00  0.00000000000E+00  0.99999998245E-14  0.12500000000E+03  0.12500000000E+03 0.  0.
        -13    1    3    3    0    0  0.35333588549E+02 -0.12518715431E+02  0.28800069393E+02  0.47271935404E+02  0.10566000000E+00 0. -1.
         23    2    1    0    0    0  0.21844759499E+02 -0.59928088095E+01 -0.17780342936E+02  0.96203335785E+02  0.91792341436E+02 0.  0.
         13    1    3    3    0    0 -0.13488829050E+02  0.65259066211E+01 -0.46580412330E+02  0.48931400381E+02  0.10566000000E+00 0.  1.
         22    1    1    0    0    0 -0.21844759499E+02  0.59928088095E+01  0.17780342936E+02  0.28796664215E+02  0.00000000000E+00 0. -1.
</event>
<event>
 5    1  0.1724243E-003  0.9118800E+02  0.7818608E-02  0.1130116E+00
         25   -1    0    0    0    0  0.00000000000E+00  0.00000000000E+00  0.99999998245E-14  0.12500000000E+03  0.12500000000E+03 0.  0.
        -13    1    3    3    0    0 -0.35709031482E+02  0.20006532839E+02 -0.26542940801E+02  0.48784579080E+02  0.10566000000E+00 0. -1.
         23    2    1    0    0    0 -0.33849168175E+01 -0.13364786295E+02 -0.26368690025E+02  0.95244614131E+02  0.90477364754E+02 0.  0.
         13    1    3    3    0    0  0.32324114664E+02 -0.33371319134E+02  0.17425077658E+00  0.46460035051E+02  0.10566000000E+00 0.  1.
         22    1    1    0    0    0  0.33849168175E+01  0.13364786295E+02  0.26368690025E+02  0.29755385869E+02  0.00000000000E+00 0. -1.
</event>
<event>
 5    1  0.1724243E-003  0.9118800E+02  0.7818608E-02  0.1130116E+00
         25   -1    0    0    0    0  0.00000000000E+00  0.00000000000E+00  0.99999998245E-14  0.12500000000E+03  0.12500000000E+03 0.  0.
        -13    1    3    3    0    0 -0.29498049633E+02 -0.44072063122E+02 -0.59475010298E+01  0.53365397146E+02  0.10566000000E+00 0. -1.
         23    2    1    0    0    0  0.17463925927E+01 -0.18693740189E+02 -0.21444147051E+02  0.96498118447E+02  0.92192893499E+02 0.  0.
         13    1    3    3    0    0  0.31244442226E+02  0.25378322934E+02 -0.15496646021E+02  0.43132721301E+02  0.10566000000E+00 0.  1.
         22    1    1    0    0    0 -0.17463925927E+01  0.18693740189E+02  0.21444147051E+02  0.28501881553E+02  0.00000000000E+00 0. -1.
</event>
<event>
 5    1  0.1724243E-003  0.9118800E+02  0.7818608E-02  0.1130116E+00
         25   -1    0    0    0    0  0.00000000000E+00  0.00000000000E+00  0.99999998245E-14  0.12500000000E+03  0.12500000000E+03 0.  0.
        -13    1    3    3    0    0  0.14689644196E+02 -0.36582920909E+02  0.25192474992E+02  0.46784267752E+02  0.10566000000E+00 0.  1.
         23    2    1    0    0    0 -0.17754908277E+02 -0.22181263348E+02 -0.81050249310E+01  0.95454498806E+02  0.90766870066E+02 0.  0.
         13    1    3    3    0    0 -0.32444552473E+02  0.14401657561E+02 -0.33297499923E+02  0.48670231054E+02  0.10566000000E+00 0. -1.
         22    1    1    0    0    0  0.17754908277E+02  0.22181263348E+02  0.81050249310E+01  0.29545501194E+02  0.00000000000E+00 0.  1.
</event>
<event>
 5    1  0.1724243E-003  0.9118800E+02  0.7818608E-02  0.1130116E+00
         25   -1    0    0    0    0  0.00000000000E+00  0.00000000000E+00  0.99999998245E-14  0.12500000000E+03  0.12500000000E+03 0.  0.
        -13    1    3    3    0    0 -0.21325014979E+02  0.25968428333E+02 -0.13756103370E+02  0.36309187239E+02  0.10566000000E+00 0.  1.
         23    2    1    0    0    0  0.28646746697E+02 -0.38129242799E+01  0.60197596231E-01  0.96100551707E+02  0.91652266348E+02 0.  0.
         13    1    3    3    0    0  0.49971761677E+02 -0.29781352613E+02  0.13816300967E+02  0.59791364468E+02  0.10566000000E+00 0. -1.
         22    1    1    0    0    0 -0.28646746697E+02  0.38129242799E+01 -0.60197596231E-01  0.28899448293E+02  0.00000000000E+00 0. -1.
</event>
<event>
 5    1  0.1724243E-003  0.9118800E+02  0.7818608E-02  0.1130116E+00
         25   -1    0    0    0    0  0.00000000000E+00  0.00000000000E+00  0.99999998245E-14  0.12500000000E+03  0.12500000000E+03 0.  0.
        -13    1    3    3    0    0 -0.18514167123E+02 -0.19842870305E+02 -0.15465051069E+02  0.31236082578E+02  0.10566000000E+00 0. -1.
         23    2    1    0    0    0 -0.22041261072E+02  0.24748829899E+02  0.18172634181E+02  0.87203619167E+02  0.78586925069E+02 0.  0.
         13    1    3    3    0    0 -0.35270939483E+01  0.44591700204E+02  0.33637685250E+02  0.55967536589E+02  0.10566000000E+00 0.  1.
         22    1    1    0    0    0  0.22041261072E+02 -0.24748829899E+02 -0.18172634181E+02  0.37796380833E+02  0.00000000000E+00 0.  1.
</event>
<event>
 5    1  0.1724243E-003  0.9118800E+02  0.7818608E-02  0.1130116E+00
         25   -1    0    0    0    0  0.00000000000E+00  0.00000000000E+00  0.99999998245E-14  0.12500000000E+03  0.12500000000E+03 0.  0.
        -13    1    3    3    0    0 -0.26893642226E+02  0.25355593328E+02  0.14277802158E+02  0.39623741667E+02  0.10566000000E+00 0.  1.
         23    2    1    0    0    0  0.54954012382E+01  0.15403145134E+02 -0.27248874101E+02  0.93220172207E+02  0.87635854830E+02 0.  0.
         13    1    3    3    0    0  0.32389043464E+02 -0.99524481938E+01 -0.41526676258E+02  0.53596430540E+02  0.10566000000E+00 0. -1.
         22    1    1    0    0    0 -0.54954012382E+01 -0.15403145134E+02  0.27248874101E+02  0.31779827793E+02  0.00000000000E+00 0. -1.
</event>
<event>
 5    1  0.1724243E-003  0.9118800E+02  0.7818608E-02  0.1130116E+00
         25   -1    0    0    0    0  0.00000000000E+00  0.00000000000E+00  0.99999998245E-14  0.12500000000E+03  0.12500000000E+03 0.  0.
        -13    1    3    3    0    0 -0.32527957920E+02  0.10401853708E+01 -0.14929461663E+02  0.35805726101E+02  0.10566000000E+00 0. -1.
         23    2    1    0    0    0  0.15006208707E+02 -0.85507816962E+01  0.22194665838E+02  0.96876960352E+02  0.92705124389E+02 0.  0.
         13    1    3    3    0    0  0.47534166626E+02 -0.95909670670E+01  0.37124127502E+02  0.61071234251E+02  0.10566000000E+00 0.  1.
         22    1    1    0    0    0 -0.15006208707E+02  0.85507816962E+01 -0.22194665838E+02  0.28123039648E+02  0.00000000000E+00 0.  1.
</event>
<event>
 5    1  0.1724243E-003  0.9118800E+02  0.7818608E-02  0.1130116E+00
         25   -1    0    0    0    0  0.00000000000E+00  0.00000000000E+00  0.99999998245E-14  0.12500000000E+03  0.12500000000E+03 0.  0.
        -13    1    3    3    0    0 -0.83830175984E+01  0.10461338127E+02  0.51801282819E+02  0.53507930676E+02  0.10566000000E+00 0.  1.
         23    2    1    0    0    0  0.16728725461E+02 -0.72440649792E+01  0.23285086935E+02  0.95427681752E+02  0.90729931324E+02 0.  0.
         13    1    3    3    0    0  0.25111743059E+02 -0.17705403106E+02 -0.28516195884E+02  0.41919751077E+02  0.10566000000E+00 0. -1.
         22    1    1    0    0    0 -0.16728725461E+02  0.72440649792E+01 -0.23285086935E+02  0.29572318248E+02  0.00000000000E+00 0.  1.
</event>
