<event>
 5    1  0.1055265E-009  0.9118800E+02  0.7815553E-02  0.1125453E+00
         25   -1    0    0    0    0  0.00000000000E+00  0.00000000000E+00  0.99999998245E-14  0.12509000000E+03  0.12509000000E+03 0.  0.
        -11    1    3    3    0    0  0.17092587263E+02  0.44653818293E+02 -0.51975711229E+00  0.47816212473E+02  0.51100000000E-03 0.  1.
         23    2    1    0    0    0 -0.17833127049E+02  0.16161143689E+02  0.16406348990E+02  0.95963186359E+02  0.91436108093E+02 0.  0.
         11    1    3    3    0    0 -0.34925714313E+02 -0.28492674604E+02  0.16926106102E+02  0.48146973886E+02  0.51100000000E-03 0. -1.
         22    1    1    0    0    0  0.17833127049E+02 -0.16161143689E+02 -0.16406348990E+02  0.29126813641E+02  0.00000000000E+00 0. -1.
</event>
<event>
 5    1  0.1055265E-009  0.9118800E+02  0.7815553E-02  0.1125453E+00
         25   -1    0    0    0    0  0.00000000000E+00  0.00000000000E+00  0.99999998245E-14  0.12509000000E+03  0.12509000000E+03 0.  0.
        -11    1    3    3    0    0  0.20376425802E+02 -0.22219523641E+01 -0.40315827112E+02  0.45227223182E+02  0.51100000000E-03 0.  1.
         23    2    1    0    0    0  0.11509299504E+02  0.27101500808E+02 -0.27305039634E+00  0.95644628927E+02  0.90999259145E+02 0.  0.
         11    1    3    3    0    0 -0.88671262982E+01  0.29323453172E+02  0.40042776715E+02  0.50417405745E+02  0.51100000000E-03 0. -1.
         22    1    1    0    0    0 -0.11509299504E+02 -0.27101500808E+02  0.27305039634E+00  0.29445371073E+02  0.00000000000E+00 0. -1.
</event>
<event>
 5    1  0.1055265E-009  0.9118800E+02  0.7815553E-02  0.1125453E+00
         25   -1    0    0    0    0  0.00000000000E+00  0.00000000000E+00  0.99999998245E-14  0.12509000000E+03  0.12509000000E+03 0.  0.
        -11    1    3    3    0    0 -0.48576862478E+01 -0.45231702553E+02 -0.21767185699E+02  0.50431283992E+02  0.51100000000E-03 0. -1.
         23    2    1    0    0    0  0.35570503775E+01 -0.30960968421E+01 -0.30458061106E+02  0.94269034581E+02  0.89088265060E+02 0.  0.
         11    1    3    3    0    0  0.84147366253E+01  0.42135605711E+02 -0.86908754071E+01  0.43837750589E+02  0.51100000000E-03 0.  1.
         22    1    1    0    0    0 -0.35570503775E+01  0.30960968421E+01  0.30458061106E+02  0.30820965419E+02  0.00000000000E+00 0. -1.
</event>
<event>
 5    1  0.1055265E-009  0.9118800E+02  0.7815553E-02  0.1125453E+00
         25   -1    0    0    0    0  0.00000000000E+00  0.00000000000E+00  0.99999998245E-14  0.12509000000E+03  0.12509000000E+03 0.  0.
        -11    1    3    3    0    0 -0.15687852775E+02 -0.36935738651E+02  0.36252868502E+02  0.54079829782E+02  0.51100000000E-03 0.  1.
         23    2    1    0    0    0 -0.23573149007E+02 -0.47021513869E+00  0.16661178280E+02  0.96219438556E+02  0.91786006766E+02 0.  0.
         11    1    3    3    0    0 -0.78852962326E+01  0.36465523512E+02 -0.19591690222E+02  0.42139608775E+02  0.51100000000E-03 0. -1.
         22    1    1    0    0    0  0.23573149007E+02  0.47021513869E+00 -0.16661178280E+02  0.28870561444E+02  0.00000000000E+00 0.  1.
</event>
<event>
 5    1  0.1055265E-009  0.9118800E+02  0.7815553E-02  0.1125453E+00
         25   -1    0    0    0    0  0.00000000000E+00  0.00000000000E+00  0.99999998245E-14  0.12509000000E+03  0.12509000000E+03 0.  0.
        -11    1    3    3    0    0 -0.47146902568E+02  0.37498151769E+02 -0.32728540724E+01  0.60329539878E+02  0.51100000000E-03 0.  1.
         23    2    1    0    0    0 -0.21757161819E+02  0.19206676663E+02 -0.13267338676E+02  0.93179299688E+02  0.87544783374E+02 0.  0.
         11    1    3    3    0    0  0.25389740749E+02 -0.18291475106E+02 -0.99944846037E+01  0.32849759810E+02  0.51100000000E-03 0. -1.
         22    1    1    0    0    0  0.21757161819E+02 -0.19206676663E+02  0.13267338676E+02  0.31910700312E+02  0.00000000000E+00 0.  1.
</event>
<event>
 5    1  0.1055265E-009  0.9118800E+02  0.7815553E-02  0.1125453E+00
         25   -1    0    0    0    0  0.00000000000E+00  0.00000000000E+00  0.99999998245E-14  0.12509000000E+03  0.12509000000E+03 0.  0.
        -11    1    3    3    0    0 -0.14370809724E+02  0.31040644682E+02  0.35584090774E+02  0.49358578899E+02  0.51100000000E-03 0. -1.
         23    2    1    0    0    0  0.17758733359E+02 -0.98809636617E+00  0.22170344946E+02  0.96666890740E+02  0.92393801878E+02 0.  0.
         11    1    3    3    0    0  0.32129543083E+02 -0.32028741049E+02 -0.13413745828E+02  0.47308311841E+02  0.51100000000E-03 0.  1.
         22    1    1    0    0    0 -0.17758733359E+02  0.98809636617E+00 -0.22170344946E+02  0.28423109260E+02  0.00000000000E+00 0. -1.
</event>
<event>
 5    1  0.1055265E-009  0.9118800E+02  0.7815553E-02  0.1125453E+00
         25   -1    0    0    0    0  0.00000000000E+00  0.00000000000E+00  0.99999998245E-14  0.12509000000E+03  0.12509000000E+03 0.  0.
        -11    1    3    3    0    0 -0.33026031246E+02 -0.58870707315E+01 -0.23602816058E+02  0.41017913986E+02  0.51100000000E-03 0.  1.
         23    2    1    0    0    0 -0.39656497397E+01  0.29352411231E+02  0.52009282062E+01  0.95017752377E+02  0.90133418828E+02 0.  0.
         11    1    3    3    0    0  0.29060381506E+02  0.35239481962E+02  0.28803744265E+02  0.53999838390E+02  0.51100000000E-03 0. -1.
         22    1    1    0    0    0  0.39656497397E+01 -0.29352411231E+02 -0.52009282062E+01  0.30072247623E+02  0.00000000000E+00 0. -1.
</event>
<event>
 5    1  0.1055265E-009  0.9118800E+02  0.7815553E-02  0.1125453E+00
         25   -1    0    0    0    0  0.00000000000E+00  0.00000000000E+00  0.99999998245E-14  0.12509000000E+03  0.12509000000E+03 0.  0.
        -11    1    3    3    0    0  0.60467605302E+01 -0.41487554079E+02 -0.96282557820E+01  0.43017249634E+02  0.51100000000E-03 0. -1.
         23    2    1    0    0    0  0.19656526757E+02  0.64959305467E+00  0.20582424256E+02  0.96621821211E+02  0.92332763040E+02 0.  0.
         11    1    3    3    0    0  0.13609766227E+02  0.42137147134E+02  0.30210680038E+02  0.53604571577E+02  0.51100000000E-03 0.  1.
         22    1    1    0    0    0 -0.19656526757E+02 -0.64959305467E+00 -0.20582424256E+02  0.28468178789E+02  0.00000000000E+00 0.  1.
</event>
<event>
 5    1  0.1055265E-009  0.9118800E+02  0.7815553E-02  0.1125453E+00
         25   -1    0    0    0    0  0.00000000000E+00  0.00000000000E+00  0.99999998245E-14  0.12509000000E+03  0.12509000000E+03 0.  0.
        -11    1    3    3    0    0  0.18379882969E+02 -0.79561829180E+01  0.36820287315E+02  0.41914848238E+02  0.51100000000E-03 0. -1.
         23    2    1    0    0    0  0.92666164051E+01  0.30192043600E+02  0.36209302800E+01  0.93300995416E+02  0.87718498238E+02 0.  0.
         11    1    3    3    0    0 -0.91132665640E+01  0.38148226518E+02 -0.33199357035E+02  0.51386147178E+02  0.51100000000E-03 0.  1.
         22    1    1    0    0    0 -0.92666164051E+01 -0.30192043600E+02 -0.36209302800E+01  0.31789004584E+02  0.00000000000E+00 0. -1.
</event>
<event>
 5    1  0.1055265E-009  0.9118800E+02  0.7815553E-02  0.1125453E+00
         25   -1    0    0    0    0  0.00000000000E+00  0.00000000000E+00  0.99999998245E-14  0.12509000000E+03  0.12509000000E+03 0.  0.
        -11    1    3    3    0    0  0.35240861976E+02  0.41657558784E+02 -0.26417582674E+02  0.60623091568E+02  0.51100000000E-03 0. -1.
         23    2    1    0    0    0  0.16423872437E+02  0.23392722672E+02 -0.20280188037E+01  0.96435577652E+02  0.92080099462E+02 0.  0.
         11    1    3    3    0    0 -0.18816989539E+02 -0.18264836112E+02  0.24389563870E+02  0.35812486084E+02  0.51100000000E-03 0.  1.
         22    1    1    0    0    0 -0.16423872437E+02 -0.23392722672E+02  0.20280188037E+01  0.28654422348E+02  0.00000000000E+00 0. -1.
</event>
<event>
 5    1  0.1055265E-009  0.9118800E+02  0.7815553E-02  0.1125453E+00
         25   -1    0    0    0    0  0.00000000000E+00  0.00000000000E+00  0.99999998245E-14  0.12509000000E+03  0.12509000000E+03 0.  0.
        -11    1    3    3    0    0  0.29936405525E+02 -0.29981897962E+02  0.86811033161E+01  0.43248862832E+02  0.51100000000E-03 0. -1.
         23    2    1    0    0    0 -0.65042411745E+00  0.37509945558E+01  0.30928323744E+02  0.93928257088E+02  0.88608482993E+02 0.  0.
         11    1    3    3    0    0 -0.30586829643E+02  0.33732892518E+02  0.22247220428E+02  0.50679394257E+02  0.51100000000E-03 0.  1.
         22    1    1    0    0    0  0.65042411745E+00 -0.37509945558E+01 -0.30928323744E+02  0.31161742912E+02  0.00000000000E+00 0.  1.
</event>
<event>
 5    1  0.1055265E-009  0.9118800E+02  0.7815553E-02  0.1125453E+00
         25   -1    0    0    0    0  0.00000000000E+00  0.00000000000E+00  0.99999998245E-14  0.12509000000E+03  0.12509000000E+03 0.  0.
        -11    1    3    3    0    0 -0.41974222126E+02 -0.21020733368E+02 -0.67615162584E+01  0.47428099865E+02  0.51100000000E-03 0. -1.
         23    2    1    0    0    0 -0.20518016851E+02  0.17190626178E+02  0.12800394461E+02  0.95419193772E+02  0.90688840536E+02 0.  0.
         11    1    3    3    0    0  0.21456205275E+02  0.38211359546E+02  0.19561910719E+02  0.47991093907E+02  0.51100000000E-03 0.  1.
         22    1    1    0    0    0  0.20518016851E+02 -0.17190626178E+02 -0.12800394461E+02  0.29670806228E+02  0.00000000000E+00 0.  1.
</event>
<event>
 5    1  0.1055265E-009  0.9118800E+02  0.7815553E-02  0.1125453E+00
         25   -1    0    0    0    0  0.00000000000E+00  0.00000000000E+00  0.99999998245E-14  0.12509000000E+03  0.12509000000E+03 0.  0.
        -11    1    3    3    0    0 -0.32266392318E+02  0.13534967843E+02 -0.63431648023E+01  0.35560528226E+02  0.51100000000E-03 0.  1.
         23    2    1    0    0    0  0.13628323765E+02 -0.21776234333E+02  0.12586716235E+02  0.96482990091E+02  0.92144486330E+02 0.  0.
         11    1    3    3    0    0  0.45894716083E+02 -0.35311202176E+02  0.18929881037E+02  0.60922461865E+02  0.51100000000E-03 0. -1.
         22    1    1    0    0    0 -0.13628323765E+02  0.21776234333E+02 -0.12586716235E+02  0.28607009909E+02  0.00000000000E+00 0. -1.
</event>
<event>
 5    1  0.1055265E-009  0.9118800E+02  0.7815553E-02  0.1125453E+00
         25   -1    0    0    0    0  0.00000000000E+00  0.00000000000E+00  0.99999998245E-14  0.12509000000E+03  0.12509000000E+03 0.  0.
        -11    1    3    3    0    0  0.19356109635E+02  0.35509275763E+02  0.33323106721E+02  0.52402262233E+02  0.51100000000E-03 0. -1.
         23    2    1    0    0    0  0.88459348796E+01 -0.28299718080E+01  0.31556367105E+02  0.92195264719E+02  0.86127250202E+02 0.  0.
         11    1    3    3    0    0 -0.10510174756E+02 -0.38339247571E+02 -0.17667396155E+01  0.39793002486E+02  0.51100000000E-03 0.  1.
         22    1    1    0    0    0 -0.88459348796E+01  0.28299718080E+01 -0.31556367105E+02  0.32894735281E+02  0.00000000000E+00 0. -1.
</event>
<event>
 5    1  0.1055265E-009  0.9118800E+02  0.7815553E-02  0.1125453E+00
         25   -1    0    0    0    0  0.00000000000E+00  0.00000000000E+00  0.99999998245E-14  0.12509000000E+03  0.12509000000E+03 0.  0.
        -11    1    3    3    0    0  0.43288955023E+02  0.22156329898E+02 -0.61358564295E+01  0.49015153941E+02  0.51100000000E-03 0.  1.
         23    2    1    0    0    0  0.22327667453E+02 -0.17602054770E+02  0.69389715693E+01  0.95823869534E+02  0.91245315387E+02 0.  0.
         11    1    3    3    0    0 -0.20961287570E+02 -0.39758384668E+02  0.13074827999E+02  0.46808715593E+02  0.51100000000E-03 0. -1.
         22    1    1    0    0    0 -0.22327667453E+02  0.17602054770E+02 -0.69389715693E+01  0.29266130466E+02  0.00000000000E+00 0.  1.
</event>
<event>
 5    1  0.1055265E-009  0.9118800E+02  0.7815553E-02  0.1125453E+00
         25   -1    0    0    0    0  0.00000000000E+00  0.00000000000E+00  0.99999998245E-14  0.12509000000E+03  0.12509000000E+03 0.  0.
        -11    1    3    3    0    0 -0.39300668971E+02 -0.11098596096E+02 -0.53023125532E+00  0.40841187083E+02  0.51100000000E-03 0.  1.
         23    2    1    0    0    0 -0.22320769854E+02 -0.39544598820E+02 -0.15381894976E+02  0.77146337689E+02  0.60439744069E+02 0.  0.
         11    1    3    3    0    0  0.16979899117E+02 -0.28446002724E+02 -0.14851663721E+02  0.36305150607E+02  0.51100000000E-03 0. -1.
         22    1    1    0    0    0  0.22320769854E+02  0.39544598820E+02  0.15381894976E+02  0.47943662311E+02  0.00000000000E+00 0. -1.
</event>
<event>
 5    1  0.1055265E-009  0.9118800E+02  0.7815553E-02  0.1125453E+00
         25   -1    0    0    0    0  0.00000000000E+00  0.00000000000E+00  0.99999998245E-14  0.12509000000E+03  0.12509000000E+03 0.  0.
        -11    1    3    3    0    0  0.35466281698E+02 -0.12516146641E+02  0.27958508610E+02  0.46863517454E+02  0.51100000000E-03 0. -1.
         23    2    1    0    0    0  0.16320819604E+02 -0.17106715687E+02 -0.17016967245E+02  0.95959499689E+02  0.91431064372E+02 0.  0.
         11    1    3    3    0    0 -0.19145462094E+02 -0.45905690463E+01 -0.44975475855E+02  0.49095982235E+02  0.51100000000E-03 0.  1.
         22    1    1    0    0    0 -0.16320819604E+02  0.17106715687E+02  0.17016967245E+02  0.29130500311E+02  0.00000000000E+00 0. -1.
</event>
<event>
 5    1  0.1055265E-009  0.9118800E+02  0.7815553E-02  0.1125453E+00
         25   -1    0    0    0    0  0.00000000000E+00  0.00000000000E+00  0.99999998245E-14  0.12509000000E+03  0.12509000000E+03 0.  0.
        -11    1    3    3    0    0  0.51919352219E+02 -0.18832806414E+02  0.26603261175E+02  0.61302750653E+02  0.51100000000E-03 0. -1.
         23    2    1    0    0    0  0.20843772574E+02 -0.66117687931E+01  0.20234898271E+02  0.95296889224E+02  0.90519984788E+02 0.  0.
         11    1    3    3    0    0 -0.31075579645E+02  0.12221037621E+02 -0.63683629039E+01  0.33994138570E+02  0.51100000000E-03 0.  1.
         22    1    1    0    0    0 -0.20843772574E+02  0.66117687931E+01 -0.20234898271E+02  0.29793110776E+02  0.00000000000E+00 0. -1.
</event>
<event>
 5    1  0.1055265E-009  0.9118800E+02  0.7815553E-02  0.1125453E+00
         25   -1    0    0    0    0  0.00000000000E+00  0.00000000000E+00  0.99999998245E-14  0.12509000000E+03  0.12509000000E+03 0.  0.
        -11    1    3    3    0    0  0.48988203618E+02 -0.15156933934E+02  0.32643158516E+02  0.60787766353E+02  0.51100000000E-03 0.  1.
         23    2    1    0    0    0  0.17888146182E+02 -0.20442342546E+01  0.22983020067E+02  0.95894385964E+02  0.91341936592E+02 0.  0.
         11    1    3    3    0    0 -0.31100057436E+02  0.13112699680E+02 -0.96601384490E+01  0.35106619611E+02  0.51100000000E-03 0. -1.
         22    1    1    0    0    0 -0.17888146182E+02  0.20442342546E+01 -0.22983020067E+02  0.29195614036E+02  0.00000000000E+00 0.  1.
</event>
<event>
 5    1  0.1055265E-009  0.9118800E+02  0.7815553E-02  0.1125453E+00
         25   -1    0    0    0    0  0.00000000000E+00  0.00000000000E+00  0.99999998245E-14  0.12509000000E+03  0.12509000000E+03 0.  0.
        -11    1    3    3    0    0  0.32714162345E+02 -0.18298274305E+02 -0.39486961990E+00  0.37485986485E+02  0.51100000000E-03 0.  1.
         23    2    1    0    0    0 -0.32364573012E+01  0.13246766274E+02 -0.28878845555E+02  0.93153513137E+02  0.87507930021E+02 0.  0.
         11    1    3    3    0    0 -0.35950619646E+02  0.31545040580E+02 -0.28483975935E+02  0.55667526651E+02  0.51100000000E-03 0. -1.
         22    1    1    0    0    0  0.32364573012E+01 -0.13246766274E+02  0.28878845555E+02  0.31936486863E+02  0.00000000000E+00 0. -1.
</event>
<event>
 5    1  0.1055265E-009  0.9118800E+02  0.7815553E-02  0.1125453E+00
         25   -1    0    0    0    0  0.00000000000E+00  0.00000000000E+00  0.99999998245E-14  0.12509000000E+03  0.12509000000E+03 0.  0.
        -11    1    3    3    0    0  0.56356606361E+02  0.10991908992E+02 -0.19905664828E+01  0.57453037335E+02  0.51100000000E-03 0.  1.
         23    2    1    0    0    0  0.22990261515E+02  0.32381025207E+01  0.16713942713E+02  0.96482425593E+02  0.92143719996E+02 0.  0.
         11    1    3    3    0    0 -0.33366344847E+02 -0.77538064711E+01  0.18704509196E+02  0.39029388258E+02  0.51100000000E-03 0. -1.
         22    1    1    0    0    0 -0.22990261515E+02 -0.32381025207E+01 -0.16713942713E+02  0.28607574407E+02  0.00000000000E+00 0.  1.
</event>
<event>
 5    1  0.1055265E-009  0.9118800E+02  0.7815553E-02  0.1125453E+00
         25   -1    0    0    0    0  0.00000000000E+00  0.00000000000E+00  0.99999998245E-14  0.12509000000E+03  0.12509000000E+03 0.  0.
        -11    1    3    3    0    0 -0.49553751992E+02  0.83289353313E+01  0.10437681991E+02  0.51321444892E+02  0.51100000000E-03 0.  1.
         23    2    1    0    0    0 -0.22684704642E+02 -0.12463609419E+02 -0.16253516075E+02  0.94526718611E+02  0.89449350820E+02 0.  0.
         11    1    3    3    0    0  0.26869047349E+02 -0.20792544751E+02 -0.26691198066E+02  0.43205273719E+02  0.51100000000E-03 0. -1.
         22    1    1    0    0    0  0.22684704642E+02  0.12463609419E+02  0.16253516075E+02  0.30563281389E+02  0.00000000000E+00 0.  1.
</event>
<event>
 5    1  0.1055265E-009  0.9118800E+02  0.7815553E-02  0.1125453E+00
         25   -1    0    0    0    0  0.00000000000E+00  0.00000000000E+00  0.99999998245E-14  0.12509000000E+03  0.12509000000E+03 0.  0.
        -11    1    3    3    0    0 -0.43420733310E+02 -0.32032811365E+02  0.28740970781E+02  0.61135132999E+02  0.51100000000E-03 0. -1.
         23    2    1    0    0    0 -0.19690108451E+02 -0.76167910217E+01  0.19343158728E+02  0.96456563848E+02  0.92108604612E+02 0.  0.
         11    1    3    3    0    0  0.23730624859E+02  0.24416020343E+02 -0.93978120526E+01  0.35321430849E+02  0.51100000000E-03 0.  1.
         22    1    1    0    0    0  0.19690108451E+02  0.76167910217E+01 -0.19343158728E+02  0.28633436152E+02  0.00000000000E+00 0. -1.
</event>
<event>
 5    1  0.1055265E-009  0.9118800E+02  0.7815553E-02  0.1125453E+00
         25   -1    0    0    0    0  0.00000000000E+00  0.00000000000E+00  0.99999998245E-14  0.12509000000E+03  0.12509000000E+03 0.  0.
        -11    1    3    3    0    0 -0.10747537993E+02 -0.47835561696E+02  0.36473518502E+02  0.61107021592E+02  0.51100000000E-03 0.  1.
         23    2    1    0    0    0 -0.91199129540E+01 -0.15399280473E+02  0.22178473461E+02  0.96590959026E+02  0.92290942292E+02 0.  0.
         11    1    3    3    0    0  0.16276250386E+01  0.32436281223E+02 -0.14295045041E+02  0.35483937434E+02  0.51100000000E-03 0. -1.
         22    1    1    0    0    0  0.91199129540E+01  0.15399280473E+02 -0.22178473461E+02  0.28499040974E+02  0.00000000000E+00 0.  1.
</event>
<event>
 5    1  0.1055265E-009  0.9118800E+02  0.7815553E-02  0.1125453E+00
         25   -1    0    0    0    0  0.00000000000E+00  0.00000000000E+00  0.99999998245E-14  0.12509000000E+03  0.12509000000E+03 0.  0.
        -11    1    3    3    0    0 -0.35704752502E+02 -0.33604764633E+02  0.36599835113E+02  0.61185435258E+02  0.51100000000E-03 0.  1.
         23    2    1    0    0    0 -0.15221519714E+02 -0.22595576346E+02  0.11169928377E+02  0.95644762137E+02  0.90999442259E+02 0.  0.
         11    1    3    3    0    0  0.20483232787E+02  0.11009188287E+02 -0.25429906735E+02  0.34459326879E+02  0.51100000000E-03 0. -1.
         22    1    1    0    0    0  0.15221519714E+02  0.22595576346E+02 -0.11169928377E+02  0.29445237863E+02  0.00000000000E+00 0.  1.
</event>
<event>
 5    1  0.1055265E-009  0.9118800E+02  0.7815553E-02  0.1125453E+00
         25   -1    0    0    0    0  0.00000000000E+00  0.00000000000E+00  0.99999998245E-14  0.12509000000E+03  0.12509000000E+03 0.  0.
        -11    1    3    3    0    0 -0.82614421572E+01  0.54905763450E+02 -0.74156484478E+01  0.56016837903E+02  0.51100000000E-03 0.  1.
         23    2    1    0    0    0  0.16423563002E+02  0.24523547429E+02 -0.25316077334E+01  0.95466582947E+02  0.90754182392E+02 0.  0.
         11    1    3    3    0    0  0.24685005159E+02 -0.30382216021E+02  0.48840407143E+01  0.39449745044E+02  0.51100000000E-03 0. -1.
         22    1    1    0    0    0 -0.16423563002E+02 -0.24523547429E+02  0.25316077334E+01  0.29623417053E+02  0.00000000000E+00 0.  1.
</event>
<event>
 5    1  0.1055265E-009  0.9118800E+02  0.7815553E-02  0.1125453E+00
         25   -1    0    0    0    0  0.00000000000E+00  0.00000000000E+00  0.99999998245E-14  0.12509000000E+03  0.12509000000E+03 0.  0.
        -11    1    3    3    0    0 -0.73535496027E+01 -0.35415115844E+02  0.20687681423E+01  0.36229613907E+02  0.51100000000E-03 0.  1.
         23    2    1    0    0    0  0.28030904295E+02  0.11242508779E+02  0.24603615404E+01  0.94788531749E+02  0.89814735834E+02 0.  0.
         11    1    3    3    0    0  0.35384453898E+02  0.46657624623E+02  0.39159339818E+00  0.58558917842E+02  0.51100000000E-03 0. -1.
         22    1    1    0    0    0 -0.28030904295E+02 -0.11242508779E+02 -0.24603615404E+01  0.30301468251E+02  0.00000000000E+00 0. -1.
</event>
<event>
 5    1  0.1055265E-009  0.9118800E+02  0.7815553E-02  0.1125453E+00
         25   -1    0    0    0    0  0.00000000000E+00  0.00000000000E+00  0.99999998245E-14  0.12509000000E+03  0.12509000000E+03 0.  0.
        -11    1    3    3    0    0 -0.30011006739E+02 -0.41564809798E+02 -0.13763052881E+02  0.53082158621E+02  0.51100000000E-03 0.  1.
         23    2    1    0    0    0  0.49969807772E+01 -0.30496374024E+02  0.41055313985E+01  0.93915426489E+02  0.88590367982E+02 0.  0.
         11    1    3    3    0    0  0.35007987516E+02  0.11068435774E+02  0.17868584279E+02  0.40833267868E+02  0.51100000000E-03 0. -1.
         22    1    1    0    0    0 -0.49969807772E+01  0.30496374024E+02 -0.41055313985E+01  0.31174573511E+02  0.00000000000E+00 0.  1.
</event>
<event>
 5    1  0.1055265E-009  0.9118800E+02  0.7815553E-02  0.1125453E+00
         25   -1    0    0    0    0  0.00000000000E+00  0.00000000000E+00  0.99999998245E-14  0.12509000000E+03  0.12509000000E+03 0.  0.
        -11    1    3    3    0    0  0.39313653389E+02  0.38847687808E+01  0.44304720169E+02  0.59359607485E+02  0.51100000000E-03 0. -1.
         23    2    1    0    0    0  0.20828741833E+02  0.13744218429E+02  0.13206910684E+02  0.96855933407E+02  0.92649389203E+02 0.  0.
         11    1    3    3    0    0 -0.18484911556E+02  0.98594496482E+01 -0.31097809485E+02  0.37496325922E+02  0.51100000000E-03 0.  1.
         22    1    1    0    0    0 -0.20828741833E+02 -0.13744218429E+02 -0.13206910684E+02  0.28234066593E+02  0.00000000000E+00 0. -1.
</event>
<event>
 5    1  0.1055265E-009  0.9118800E+02  0.7815553E-02  0.1125453E+00
         25   -1    0    0    0    0  0.00000000000E+00  0.00000000000E+00  0.99999998245E-14  0.12509000000E+03  0.12509000000E+03 0.  0.
        -11    1    3    3    0    0 -0.55853229533E+02 -0.86019884613E+01 -0.12489313785E+02  0.57875386943E+02  0.51100000000E-03 0.  1.
         23    2    1    0    0    0 -0.17955558330E+02 -0.14055187588E+02 -0.17304393085E+02  0.96464969115E+02  0.92120018852E+02 0.  0.
         11    1    3    3    0    0  0.37897671203E+02 -0.54531991265E+01 -0.48150793009E+01  0.38589582172E+02  0.51100000000E-03 0. -1.
         22    1    1    0    0    0  0.17955558330E+02  0.14055187588E+02  0.17304393085E+02  0.28625030885E+02  0.00000000000E+00 0.  1.
</event>
<event>
 5    1  0.1055265E-009  0.9118800E+02  0.7815553E-02  0.1125453E+00
         25   -1    0    0    0    0  0.00000000000E+00  0.00000000000E+00  0.99999998245E-14  0.12509000000E+03  0.12509000000E+03 0.  0.
        -11    1    3    3    0    0 -0.38628318079E+02  0.27543369390E+02  0.48372596160E+00  0.47444895891E+02  0.51100000000E-03 0. -1.
         23    2    1    0    0    0 -0.23903082764E+02 -0.13704587908E+02 -0.14776319599E+02  0.93824800236E+02  0.88462310750E+02 0.  0.
         11    1    3    3    0    0  0.14725235315E+02 -0.41247957298E+02 -0.15260045561E+02  0.46379904346E+02  0.51100000000E-03 0.  1.
         22    1    1    0    0    0  0.23903082764E+02  0.13704587908E+02  0.14776319599E+02  0.31265199764E+02  0.00000000000E+00 0. -1.
</event>
<event>
 5    1  0.1055265E-009  0.9118800E+02  0.7815553E-02  0.1125453E+00
         25   -1    0    0    0    0  0.00000000000E+00  0.00000000000E+00  0.99999998245E-14  0.12509000000E+03  0.12509000000E+03 0.  0.
        -11    1    3    3    0    0 -0.19826143841E+02  0.30269767807E+01  0.26356192975E+02  0.33119291605E+02  0.51100000000E-03 0. -1.
         23    2    1    0    0    0  0.15796640940E+02 -0.20460866338E+02 -0.17159160784E+02  0.94063918793E+02  0.88799792249E+02 0.  0.
         11    1    3    3    0    0  0.35622784781E+02 -0.23487843119E+02 -0.43515353759E+02  0.60944627187E+02  0.51100000000E-03 0.  1.
         22    1    1    0    0    0 -0.15796640940E+02  0.20460866338E+02  0.17159160784E+02  0.31026081207E+02  0.00000000000E+00 0.  1.
</event>
<event>
 5    1  0.1055265E-009  0.9118800E+02  0.7815553E-02  0.1125453E+00
         25   -1    0    0    0    0  0.00000000000E+00  0.00000000000E+00  0.99999998245E-14  0.12509000000E+03  0.12509000000E+03 0.  0.
        -11    1    3    3    0    0 -0.19155257544E+02  0.11604949118E+02  0.47637010076E+02  0.52639181841E+02  0.51100000000E-03 0.  1.
         23    2    1    0    0    0 -0.27239338058E+02 -0.51966952862E+01  0.83445368407E+01  0.96131089889E+02  0.91665522245E+02 0.  0.
         11    1    3    3    0    0 -0.80840805132E+01 -0.16801644404E+02 -0.39292473236E+02  0.43491908048E+02  0.51100000000E-03 0. -1.
         22    1    1    0    0    0  0.27239338058E+02  0.51966952862E+01 -0.83445368407E+01  0.28958910111E+02  0.00000000000E+00 0.  1.
</event>
<event>
 5    1  0.1055265E-009  0.9118800E+02  0.7815553E-02  0.1125453E+00
         25   -1    0    0    0    0  0.00000000000E+00  0.00000000000E+00  0.99999998245E-14  0.12509000000E+03  0.12509000000E+03 0.  0.
        -11    1    3    3    0    0 -0.31046593641E+02  0.32407659879E+01 -0.12190819603E+02  0.33511335750E+02  0.51100000000E-03 0. -1.
         23    2    1    0    0    0  0.19768793495E+02  0.22352330657E+02  0.11974305134E+02  0.92936992901E+02  0.87197871441E+02 0.  0.
         11    1    3    3    0    0  0.50815387136E+02  0.19111564670E+02  0.24165124738E+02  0.59425657150E+02  0.51100000000E-03 0.  1.
         22    1    1    0    0    0 -0.19768793495E+02 -0.22352330657E+02 -0.11974305134E+02  0.32153007099E+02  0.00000000000E+00 0.  1.
</event>
<event>
 5    1  0.1055265E-009  0.9118800E+02  0.7815553E-02  0.1125453E+00
         25   -1    0    0    0    0  0.00000000000E+00  0.00000000000E+00  0.99999998245E-14  0.12509000000E+03  0.12509000000E+03 0.  0.
        -11    1    3    3    0    0  0.89290202941E+00  0.38194312639E+02 -0.39493529962E+01  0.38408334790E+02  0.51100000000E-03 0. -1.
         23    2    1    0    0    0  0.11739214838E+02 -0.11978278469E+02  0.23188397236E+02  0.96471997162E+02  0.92129561759E+02 0.  0.
         11    1    3    3    0    0  0.10846312809E+02 -0.50172591108E+02  0.27137750232E+02  0.58063662371E+02  0.51100000000E-03 0.  1.
         22    1    1    0    0    0 -0.11739214838E+02  0.11978278469E+02 -0.23188397236E+02  0.28618002838E+02  0.00000000000E+00 0.  1.
</event>
<event>
 5    1  0.1055265E-009  0.9118800E+02  0.7815553E-02  0.1125453E+00
         25   -1    0    0    0    0  0.00000000000E+00  0.00000000000E+00  0.99999998245E-14  0.12509000000E+03  0.12509000000E+03 0.  0.
        -11    1    3    3    0    0 -0.57005398291E+01  0.47737271954E+00  0.42859664357E+02  0.43239737142E+02  0.51100000000E-03 0. -1.
         23    2    1    0    0    0  0.36066319599E+01  0.28769236205E+02 -0.79283754427E+00  0.96084736042E+02  0.91602244312E+02 0.  0.
         11    1    3    3    0    0  0.93071717890E+01  0.28291863485E+02 -0.43652501901E+02  0.52844998900E+02  0.51100000000E-03 0.  1.
         22    1    1    0    0    0 -0.36066319599E+01 -0.28769236205E+02  0.79283754427E+00  0.29005263958E+02  0.00000000000E+00 0.  1.
</event>
<event>
 5    1  0.1055265E-009  0.9118800E+02  0.7815553E-02  0.1125453E+00
         25   -1    0    0    0    0  0.00000000000E+00  0.00000000000E+00  0.99999998245E-14  0.12509000000E+03  0.12509000000E+03 0.  0.
        -11    1    3    3    0    0  0.11575309029E+02 -0.30586162237E+02 -0.26299158775E+02  0.41966020207E+02  0.51100000000E-03 0.  1.
         23    2    1    0    0    0 -0.28538910384E+02 -0.18522145762E+01 -0.36512563782E+01  0.96258909526E+02  0.91839783783E+02 0.  0.
         11    1    3    3    0    0 -0.40114219414E+02  0.28733947660E+02  0.22647902397E+02  0.54292889319E+02  0.51100000000E-03 0. -1.
         22    1    1    0    0    0  0.28538910384E+02  0.18522145762E+01  0.36512563782E+01  0.28831090474E+02  0.00000000000E+00 0. -1.
</event>
<event>
 5    1  0.1055265E-009  0.9118800E+02  0.7815553E-02  0.1125453E+00
         25   -1    0    0    0    0  0.00000000000E+00  0.00000000000E+00  0.99999998245E-14  0.12509000000E+03  0.12509000000E+03 0.  0.
        -11    1    3    3    0    0  0.42118769497E+02 -0.70881922341E+01  0.30081307255E+02  0.52240963425E+02  0.51100000000E-03 0.  1.
         23    2    1    0    0    0  0.25146251013E+02  0.14523681595E+02 -0.37314826804E+01  0.95812103387E+02  0.91229183518E+02 0.  0.
         11    1    3    3    0    0 -0.16972518484E+02  0.21611873829E+02 -0.33812789936E+02  0.43571139962E+02  0.51100000000E-03 0. -1.
         22    1    1    0    0    0 -0.25146251013E+02 -0.14523681595E+02  0.37314826804E+01  0.29277896613E+02  0.00000000000E+00 0. -1.
</event>
<event>
 5    1  0.1055265E-009  0.9118800E+02  0.7815553E-02  0.1125453E+00
         25   -1    0    0    0    0  0.00000000000E+00  0.00000000000E+00  0.99999998245E-14  0.12509000000E+03  0.12509000000E+03 0.  0.
        -11    1    3    3    0    0 -0.57349913294E+01  0.33791461073E+02  0.69095129762E+01  0.34964186489E+02  0.51100000000E-03 0.  1.
         23    2    1    0    0    0 -0.67502739010E+01 -0.24808032812E+02  0.16767108888E+02  0.94395690589E+02  0.89265927272E+02 0.  0.
         11    1    3    3    0    0 -0.10152825717E+01 -0.58599493885E+02  0.98575959118E+01  0.59431504101E+02  0.51100000000E-03 0. -1.
         22    1    1    0    0    0  0.67502739010E+01  0.24808032812E+02 -0.16767108888E+02  0.30694309411E+02  0.00000000000E+00 0. -1.
</event>
<event>
 5    1  0.1055265E-009  0.9118800E+02  0.7815553E-02  0.1125453E+00
         25   -1    0    0    0    0  0.00000000000E+00  0.00000000000E+00  0.99999998245E-14  0.12509000000E+03  0.12509000000E+03 0.  0.
        -11    1    3    3    0    0 -0.44034376606E+02  0.30796643354E+02  0.82410445252E+01  0.54363355122E+02  0.51100000000E-03 0.  1.
         23    2    1    0    0    0 -0.32593423336E+01  0.28946564746E+02  0.66486392244E+01  0.95211390150E+02  0.90401755999E+02 0.  0.
         11    1    3    3    0    0  0.40775034272E+02 -0.18500786086E+01 -0.15924053008E+01  0.40848035028E+02  0.51100000000E-03 0. -1.
         22    1    1    0    0    0  0.32593423336E+01 -0.28946564746E+02 -0.66486392244E+01  0.29878609850E+02  0.00000000000E+00 0. -1.
</event>
<event>
 5    1  0.1055265E-009  0.9118800E+02  0.7815553E-02  0.1125453E+00
         25   -1    0    0    0    0  0.00000000000E+00  0.00000000000E+00  0.99999998245E-14  0.12509000000E+03  0.12509000000E+03 0.  0.
        -11    1    3    3    0    0  0.22217697601E+02  0.84565070309E+01 -0.27432617384E+02  0.36299959981E+02  0.51100000000E-03 0.  1.
         23    2    1    0    0    0 -0.11329781170E+02  0.17313662309E+02  0.20823112504E+02  0.95734781414E+02  0.91123100881E+02 0.  0.
         11    1    3    3    0    0 -0.33547478771E+02  0.88571552783E+01  0.48255729887E+02  0.59434821433E+02  0.51100000000E-03 0. -1.
         22    1    1    0    0    0  0.11329781170E+02 -0.17313662309E+02 -0.20823112504E+02  0.29355218586E+02  0.00000000000E+00 0. -1.
</event>
<event>
 5    1  0.1055265E-009  0.9118800E+02  0.7815553E-02  0.1125453E+00
         25   -1    0    0    0    0  0.00000000000E+00  0.00000000000E+00  0.99999998245E-14  0.12509000000E+03  0.12509000000E+03 0.  0.
        -11    1    3    3    0    0  0.10398937523E+02  0.34662059996E+02 -0.53629192218E+00  0.36192318440E+02  0.51100000000E-03 0. -1.
         23    2    1    0    0    0 -0.27434323839E+02 -0.11025577625E+02  0.46018977924E+00  0.95519452811E+02  0.90827025736E+02 0.  0.
         11    1    3    3    0    0 -0.37833261362E+02 -0.45687637620E+02  0.99648170142E+00  0.59327134371E+02  0.51100000000E-03 0.  1.
         22    1    1    0    0    0  0.27434323839E+02  0.11025577625E+02 -0.46018977924E+00  0.29570547189E+02  0.00000000000E+00 0.  1.
</event>
<event>
 5    1  0.1055265E-009  0.9118800E+02  0.7815553E-02  0.1125453E+00
         25   -1    0    0    0    0  0.00000000000E+00  0.00000000000E+00  0.99999998245E-14  0.12509000000E+03  0.12509000000E+03 0.  0.
        -11    1    3    3    0    0  0.21080467315E+01 -0.49289408717E+02  0.57305458032E+01  0.49666173883E+02  0.51100000000E-03 0. -1.
         23    2    1    0    0    0 -0.23980360256E+02 -0.12833805256E+02 -0.83234764835E+01  0.96646292504E+02  0.92365910154E+02 0.  0.
         11    1    3    3    0    0 -0.26088406988E+02  0.36455603462E+02 -0.14054022287E+02  0.46980118621E+02  0.51100000000E-03 0.  1.
         22    1    1    0    0    0  0.23980360256E+02  0.12833805256E+02  0.83234764835E+01  0.28443707496E+02  0.00000000000E+00 0. -1.
</event>
<event>
 5    1  0.1055265E-009  0.9118800E+02  0.7815553E-02  0.1125453E+00
         25   -1    0    0    0    0  0.00000000000E+00  0.00000000000E+00  0.99999998245E-14  0.12509000000E+03  0.12509000000E+03 0.  0.
        -11    1    3    3    0    0  0.13534541210E+02  0.19603519392E+02 -0.34038312599E+02  0.41546221286E+02  0.51100000000E-03 0. -1.
         23    2    1    0    0    0  0.28176006188E+02 -0.19646718383E+02 -0.13779489239E+02  0.88079796115E+02  0.79926812098E+02 0.  0.
         11    1    3    3    0    0  0.14641464978E+02 -0.39250237776E+02  0.20258823360E+02  0.46533574829E+02  0.51100000000E-03 0.  1.
         22    1    1    0    0    0 -0.28176006188E+02  0.19646718383E+02  0.13779489239E+02  0.37010203885E+02  0.00000000000E+00 0.  1.
</event>
<event>
 5    1  0.1055265E-009  0.9118800E+02  0.7815553E-02  0.1125453E+00
         25   -1    0    0    0    0  0.00000000000E+00  0.00000000000E+00  0.99999998245E-14  0.12509000000E+03  0.12509000000E+03 0.  0.
        -11    1    3    3    0    0  0.28516198680E+02  0.20560250158E+02  0.82890985524E+01  0.36119338709E+02  0.51100000000E-03 0. -1.
         23    2    1    0    0    0 -0.15756595344E+02 -0.17602175761E+02  0.18024366809E+02  0.95374941743E+02  0.90627781752E+02 0.  0.
         11    1    3    3    0    0 -0.44272794024E+02 -0.38162425919E+02  0.97352682565E+01  0.59255603034E+02  0.51100000000E-03 0.  1.
         22    1    1    0    0    0  0.15756595344E+02  0.17602175761E+02 -0.18024366809E+02  0.29715058257E+02  0.00000000000E+00 0.  1.
</event>
<event>
 5    1  0.1055265E-009  0.9118800E+02  0.7815553E-02  0.1125453E+00
         25   -1    0    0    0    0  0.00000000000E+00  0.00000000000E+00  0.99999998245E-14  0.12509000000E+03  0.12509000000E+03 0.  0.
        -11    1    3    3    0    0  0.21065737234E+02  0.16524704642E+02 -0.18354727488E+02  0.32461164029E+02  0.51100000000E-03 0.  1.
         23    2    1    0    0    0 -0.13045768032E+02 -0.72815353134E+01  0.27142076235E+02  0.94107664348E+02  0.88861394129E+02 0.  0.
         11    1    3    3    0    0 -0.34111505266E+02 -0.23806239955E+02  0.45496803723E+02  0.61646500319E+02  0.51100000000E-03 0. -1.
         22    1    1    0    0    0  0.13045768032E+02  0.72815353134E+01 -0.27142076235E+02  0.30982335652E+02  0.00000000000E+00 0. -1.
</event>
<event>
 5    1  0.1055265E-009  0.9118800E+02  0.7815553E-02  0.1125453E+00
         25   -1    0    0    0    0  0.00000000000E+00  0.00000000000E+00  0.99999998245E-14  0.12509000000E+03  0.12509000000E+03 0.  0.
        -11    1    3    3    0    0 -0.84790573607E+01  0.34436786649E+01 -0.34449645030E+02  0.35644514016E+02  0.51100000000E-03 0.  1.
         23    2    1    0    0    0 -0.28478517715E+01 -0.20695818084E+02  0.20434641792E+02  0.95866691990E+02  0.91304002662E+02 0.  0.
         11    1    3    3    0    0  0.56312055893E+01 -0.24139496749E+02  0.54884286822E+02  0.60222177974E+02  0.51100000000E-03 0. -1.
         22    1    1    0    0    0  0.28478517715E+01  0.20695818084E+02 -0.20434641792E+02  0.29223308010E+02  0.00000000000E+00 0. -1.
</event>
<event>
 5    1  0.1055265E-009  0.9118800E+02  0.7815553E-02  0.1125453E+00
         25   -1    0    0    0    0  0.00000000000E+00  0.00000000000E+00  0.99999998245E-14  0.12509000000E+03  0.12509000000E+03 0.  0.
        -11    1    3    3    0    0  0.16827783474E+01 -0.34599285129E+02  0.50686495585E+01  0.35009048587E+02  0.51100000000E-03 0. -1.
         23    2    1    0    0    0 -0.21553790673E+01  0.21070199522E+02 -0.19795272435E+02  0.96099453651E+02  0.91622340149E+02 0.  0.
         11    1    3    3    0    0 -0.38381574147E+01  0.55669484651E+02 -0.24863921994E+02  0.61090405064E+02  0.51100000000E-03 0.  1.
         22    1    1    0    0    0  0.21553790673E+01 -0.21070199522E+02  0.19795272435E+02  0.28990546349E+02  0.00000000000E+00 0.  1.
</event>
<event>
 5    1  0.1055265E-009  0.9118800E+02  0.7815553E-02  0.1125453E+00
         25   -1    0    0    0    0  0.00000000000E+00  0.00000000000E+00  0.99999998245E-14  0.12509000000E+03  0.12509000000E+03 0.  0.
        -11    1    3    3    0    0  0.15294225309E+02  0.56844035419E+02 -0.11625501492E+02  0.60002583075E+02  0.51100000000E-03 0.  1.
         23    2    1    0    0    0 -0.10965671175E+01  0.31781623006E+02  0.26534670386E+01  0.93178953203E+02  0.87544288291E+02 0.  0.
         11    1    3    3    0    0 -0.16390792427E+02 -0.25062412413E+02  0.14278968530E+02  0.33176370128E+02  0.51100000000E-03 0. -1.
         22    1    1    0    0    0  0.10965671175E+01 -0.31781623006E+02 -0.26534670386E+01  0.31911046797E+02  0.00000000000E+00 0.  1.
</event>
<event>
 5    1  0.1055265E-009  0.9118800E+02  0.7815553E-02  0.1125453E+00
         25   -1    0    0    0    0  0.00000000000E+00  0.00000000000E+00  0.99999998245E-14  0.12509000000E+03  0.12509000000E+03 0.  0.
        -11    1    3    3    0    0 -0.96860500653E+01 -0.14666153888E+02 -0.43091119516E+02  0.46537728964E+02  0.51100000000E-03 0.  1.
         23    2    1    0    0    0  0.14078889564E+02  0.19396095954E+02 -0.18581061395E+02  0.94763781769E+02  0.89780258537E+02 0.  0.
         11    1    3    3    0    0  0.23764939629E+02  0.34062249842E+02  0.24510058120E+02  0.48226052805E+02  0.51100000000E-03 0. -1.
         22    1    1    0    0    0 -0.14078889564E+02 -0.19396095954E+02  0.18581061395E+02  0.30326218231E+02  0.00000000000E+00 0. -1.
</event>
<event>
 5    1  0.1055265E-009  0.9118800E+02  0.7815553E-02  0.1125453E+00
         25   -1    0    0    0    0  0.00000000000E+00  0.00000000000E+00  0.99999998245E-14  0.12509000000E+03  0.12509000000E+03 0.  0.
        -11    1    3    3    0    0 -0.36685169278E+01  0.76339433619E+01 -0.47179510938E+02  0.47933718407E+02  0.51100000000E-03 0.  1.
         23    2    1    0    0    0 -0.25759385526E+02  0.11750059034E+02 -0.41535515276E+01  0.96474238255E+02  0.92132604579E+02 0.  0.
         11    1    3    3    0    0 -0.22090868598E+02  0.41161156724E+01  0.43025959411E+02  0.48540519848E+02  0.51100000000E-03 0. -1.
         22    1    1    0    0    0  0.25759385526E+02 -0.11750059034E+02  0.41535515276E+01  0.28615761745E+02  0.00000000000E+00 0. -1.
</event>
<event>
 5    1  0.1055265E-009  0.9118800E+02  0.7815553E-02  0.1125453E+00
         25   -1    0    0    0    0  0.00000000000E+00  0.00000000000E+00  0.99999998245E-14  0.12509000000E+03  0.12509000000E+03 0.  0.
        -11    1    3    3    0    0  0.36516983777E+02 -0.14757752010E+02 -0.37442932930E+02  0.54343854990E+02  0.51100000000E-03 0.  1.
         23    2    1    0    0    0  0.20001086504E+02  0.15656651079E+02 -0.16648794655E+02  0.94719676528E+02  0.89718786069E+02 0.  0.
         11    1    3    3    0    0 -0.16515897272E+02  0.30414403088E+02  0.20794138275E+02  0.40375821537E+02  0.51100000000E-03 0. -1.
         22    1    1    0    0    0 -0.20001086504E+02 -0.15656651079E+02  0.16648794655E+02  0.30370323472E+02  0.00000000000E+00 0.  1.
</event>
<event>
 5    1  0.1055265E-009  0.9118800E+02  0.7815553E-02  0.1125453E+00
         25   -1    0    0    0    0  0.00000000000E+00  0.00000000000E+00  0.99999998245E-14  0.12509000000E+03  0.12509000000E+03 0.  0.
        -11    1    3    3    0    0 -0.67994034640E+01 -0.95584358549E+01  0.38667723925E+02  0.40407777188E+02  0.51100000000E-03 0. -1.
         23    2    1    0    0    0 -0.19279233590E+02  0.88996129071E+01 -0.15381954579E+02  0.98869845836E+02  0.95329690712E+02 0.  0.
         11    1    3    3    0    0 -0.12479830126E+02  0.18458048762E+02 -0.54049678503E+02  0.58462068648E+02  0.51100000000E-03 0.  1.
         22    1    1    0    0    0  0.19279233590E+02 -0.88996129071E+01  0.15381954579E+02  0.26220154164E+02  0.00000000000E+00 0.  1.
</event>
<event>
 5    1  0.1055265E-009  0.9118800E+02  0.7815553E-02  0.1125453E+00
         25   -1    0    0    0    0  0.00000000000E+00  0.00000000000E+00  0.99999998245E-14  0.12509000000E+03  0.12509000000E+03 0.  0.
        -11    1    3    3    0    0 -0.21380732778E+02 -0.27638296399E+02 -0.12911718377E+02  0.37252162805E+02  0.51100000000E-03 0. -1.
         23    2    1    0    0    0  0.19265613830E+02 -0.22148659343E+01  0.21401968277E+02  0.96208972430E+02  0.91771741961E+02 0.  0.
         11    1    3    3    0    0  0.40646346608E+02  0.25423430464E+02  0.34313686654E+02  0.58956809625E+02  0.51100000000E-03 0.  1.
         22    1    1    0    0    0 -0.19265613830E+02  0.22148659343E+01 -0.21401968277E+02  0.28881027570E+02  0.00000000000E+00 0.  1.
</event>
<event>
 5    1  0.1055265E-009  0.9118800E+02  0.7815553E-02  0.1125453E+00
         25   -1    0    0    0    0  0.00000000000E+00  0.00000000000E+00  0.99999998245E-14  0.12509000000E+03  0.12509000000E+03 0.  0.
        -11    1    3    3    0    0 -0.14656220113E+02 -0.46088609895E+02 -0.24491635433E+02  0.54210745766E+02  0.51100000000E-03 0.  1.
         23    2    1    0    0    0 -0.23994627241E+02 -0.16269719870E+02  0.31495993282E+01  0.95928966119E+02  0.91389280791E+02 0.  0.
         11    1    3    3    0    0 -0.93384071289E+01  0.29818890025E+02  0.27641234761E+02  0.41718220353E+02  0.51100000000E-03 0. -1.
         22    1    1    0    0    0  0.23994627241E+02  0.16269719870E+02 -0.31495993282E+01  0.29161033881E+02  0.00000000000E+00 0.  1.
</event>
<event>
 5    1  0.1055265E-009  0.9118800E+02  0.7815553E-02  0.1125453E+00
         25   -1    0    0    0    0  0.00000000000E+00  0.00000000000E+00  0.99999998245E-14  0.12509000000E+03  0.12509000000E+03 0.  0.
        -11    1    3    3    0    0  0.14923946546E+02  0.29856578515E+02  0.48746004645E+02  0.59078866189E+02  0.51100000000E-03 0.  1.
         23    2    1    0    0    0 -0.71449413056E+01  0.14456983778E+02  0.26838393738E+02  0.93779395651E+02  0.88398083147E+02 0.  0.
         11    1    3    3    0    0 -0.22068887851E+02 -0.15399594737E+02 -0.21907610906E+02  0.34700529462E+02  0.51100000000E-03 0. -1.
         22    1    1    0    0    0  0.71449413056E+01 -0.14456983778E+02 -0.26838393738E+02  0.31310604349E+02  0.00000000000E+00 0.  1.
</event>
<event>
 5    1  0.1055265E-009  0.9118800E+02  0.7815553E-02  0.1125453E+00
         25   -1    0    0    0    0  0.00000000000E+00  0.00000000000E+00  0.99999998245E-14  0.12509000000E+03  0.12509000000E+03 0.  0.
        -11    1    3    3    0    0  0.11312290454E+02  0.37674320533E+02 -0.13131794963E+02  0.41470066098E+02  0.51100000000E-03 0. -1.
         23    2    1    0    0    0 -0.76238287840E+01  0.77687013381E+01  0.27592999710E+02  0.95427749263E+02  0.90700640629E+02 0.  0.
         11    1    3    3    0    0 -0.18936119238E+02 -0.29905619195E+02  0.40724794672E+02  0.53957683165E+02  0.51100000000E-03 0.  1.
         22    1    1    0    0    0  0.76238287840E+01 -0.77687013381E+01 -0.27592999710E+02  0.29662250737E+02  0.00000000000E+00 0.  1.
</event>
<event>
 5    1  0.1055265E-009  0.9118800E+02  0.7815553E-02  0.1125453E+00
         25   -1    0    0    0    0  0.00000000000E+00  0.00000000000E+00  0.99999998245E-14  0.12509000000E+03  0.12509000000E+03 0.  0.
        -11    1    3    3    0    0  0.39169369188E+02  0.21024257423E+02  0.23966234830E+02  0.50503854258E+02  0.51100000000E-03 0.  1.
         23    2    1    0    0    0 -0.27310012603E+01  0.11299036998E+01  0.27881513578E+02  0.97052278095E+02  0.92914104600E+02 0.  0.
         11    1    3    3    0    0 -0.41900370448E+02 -0.19894353723E+02  0.39152787478E+01  0.46548423836E+02  0.51100000000E-03 0. -1.
         22    1    1    0    0    0  0.27310012603E+01 -0.11299036998E+01 -0.27881513578E+02  0.28037721905E+02  0.00000000000E+00 0. -1.
</event>
<event>
 5    1  0.1055265E-009  0.9118800E+02  0.7815553E-02  0.1125453E+00
         25   -1    0    0    0    0  0.00000000000E+00  0.00000000000E+00  0.99999998245E-14  0.12509000000E+03  0.12509000000E+03 0.  0.
        -11    1    3    3    0    0  0.20124859592E+02 -0.17015424184E+02 -0.34948341027E+02  0.43771236840E+02  0.51100000000E-03 0.  1.
         23    2    1    0    0    0 -0.25322057600E+02 -0.19541343969E+01 -0.14615471313E+02  0.95787487411E+02  0.91195424778E+02 0.  0.
         11    1    3    3    0    0 -0.45446917192E+02  0.15061289787E+02  0.20332869714E+02  0.52016250570E+02  0.51100000000E-03 0. -1.
         22    1    1    0    0    0  0.25322057600E+02  0.19541343969E+01  0.14615471313E+02  0.29302512589E+02  0.00000000000E+00 0.  1.
</event>
<event>
 5    1  0.1055265E-009  0.9118800E+02  0.7815553E-02  0.1125453E+00
         25   -1    0    0    0    0  0.00000000000E+00  0.00000000000E+00  0.99999998245E-14  0.12509000000E+03  0.12509000000E+03 0.  0.
        -11    1    3    3    0    0 -0.53499412797E+01 -0.12906764965E+02 -0.35510646957E+02  0.38160352477E+02  0.51100000000E-03 0. -1.
         23    2    1    0    0    0 -0.99495778523E+01 -0.40840623116E+02 -0.67421703634E+00  0.83049481871E+02  0.71622700831E+02 0.  0.
         11    1    3    3    0    0 -0.45996365726E+01 -0.27933858151E+02  0.34836429921E+02  0.44889129394E+02  0.51100000000E-03 0.  1.
         22    1    1    0    0    0  0.99495778523E+01  0.40840623116E+02  0.67421703634E+00  0.42040518129E+02  0.00000000000E+00 0. -1.
</event>
<event>
 5    1  0.1055265E-009  0.9118800E+02  0.7815553E-02  0.1125453E+00
         25   -1    0    0    0    0  0.00000000000E+00  0.00000000000E+00  0.99999998245E-14  0.12509000000E+03  0.12509000000E+03 0.  0.
        -11    1    3    3    0    0 -0.33997379920E+02 -0.17244038038E+02 -0.33612492739E+02  0.50823010120E+02  0.51100000000E-03 0.  1.
         23    2    1    0    0    0 -0.13402838438E+02  0.19086683123E+02 -0.18799012971E+02  0.95134358803E+02  0.90295103883E+02 0.  0.
         11    1    3    3    0    0  0.20594541482E+02  0.36330721161E+02  0.14813479768E+02  0.44311348682E+02  0.51100000000E-03 0. -1.
         22    1    1    0    0    0  0.13402838438E+02 -0.19086683123E+02  0.18799012971E+02  0.29955641197E+02  0.00000000000E+00 0.  1.
</event>
<event>
 5    1  0.1055265E-009  0.9118800E+02  0.7815553E-02  0.1125453E+00
         25   -1    0    0    0    0  0.00000000000E+00  0.00000000000E+00  0.99999998245E-14  0.12509000000E+03  0.12509000000E+03 0.  0.
        -11    1    3    3    0    0 -0.31802903497E+02  0.45877145902E+02 -0.12816568876E+02  0.57274790484E+02  0.51100000000E-03 0. -1.
         23    2    1    0    0    0 -0.19530614950E+02  0.17676921749E+02  0.11367758570E+02  0.96399506492E+02  0.92031084065E+02 0.  0.
         11    1    3    3    0    0  0.12272288547E+02 -0.28200224153E+02  0.24184327446E+02  0.39124716008E+02  0.51100000000E-03 0.  1.
         22    1    1    0    0    0  0.19530614950E+02 -0.17676921749E+02 -0.11367758570E+02  0.28690493508E+02  0.00000000000E+00 0. -1.
</event>
<event>
 5    1  0.1055265E-009  0.9118800E+02  0.7815553E-02  0.1125453E+00
         25   -1    0    0    0    0  0.00000000000E+00  0.00000000000E+00  0.99999998245E-14  0.12509000000E+03  0.12509000000E+03 0.  0.
        -11    1    3    3    0    0 -0.83257526375E+00 -0.17791669533E+02 -0.35300133809E+02  0.39539045683E+02  0.51100000000E-03 0.  1.
         23    2    1    0    0    0  0.28233525556E+02  0.13401815230E+01  0.85884958968E+01  0.95548667707E+02  0.90867252556E+02 0.  0.
         11    1    3    3    0    0  0.29066100820E+02  0.19131851056E+02  0.43888629705E+02  0.56009622025E+02  0.51100000000E-03 0. -1.
         22    1    1    0    0    0 -0.28233525556E+02 -0.13401815230E+01 -0.85884958968E+01  0.29541332293E+02  0.00000000000E+00 0.  1.
</event>
<event>
 5    1  0.1055265E-009  0.9118800E+02  0.7815553E-02  0.1125453E+00
         25   -1    0    0    0    0  0.00000000000E+00  0.00000000000E+00  0.99999998245E-14  0.12509000000E+03  0.12509000000E+03 0.  0.
        -11    1    3    3    0    0  0.10353460965E+02 -0.37163366142E+02  0.53165567200E+00  0.38582283434E+02  0.51100000000E-03 0.  1.
         23    2    1    0    0    0 -0.47663868304E+01  0.98027541463E+00  0.33512987703E+02  0.91225568393E+02  0.84707169711E+02 0.  0.
         11    1    3    3    0    0 -0.15119847795E+02  0.38143641556E+02  0.32981332031E+02  0.52643284959E+02  0.51100000000E-03 0. -1.
         22    1    1    0    0    0  0.47663868304E+01 -0.98027541463E+00 -0.33512987703E+02  0.33864431607E+02  0.00000000000E+00 0. -1.
</event>
<event>
 5    1  0.1055265E-009  0.9118800E+02  0.7815553E-02  0.1125453E+00
         25   -1    0    0    0    0  0.00000000000E+00  0.00000000000E+00  0.99999998245E-14  0.12509000000E+03  0.12509000000E+03 0.  0.
        -11    1    3    3    0    0  0.30752417496E+02  0.29519811757E+02  0.43791809135E+01  0.42852160900E+02  0.51100000000E-03 0. -1.
         23    2    1    0    0    0 -0.20919180402E+02  0.15208937103E+02  0.11208634049E+02  0.96902106256E+02  0.92711708231E+02 0.  0.
         11    1    3    3    0    0 -0.51671597898E+02 -0.14310874654E+02  0.68294531351E+01  0.54049945356E+02  0.51100000000E-03 0.  1.
         22    1    1    0    0    0  0.20919180402E+02 -0.15208937103E+02 -0.11208634049E+02  0.28187893744E+02  0.00000000000E+00 0. -1.
</event>
<event>
 5    1  0.1055265E-009  0.9118800E+02  0.7815553E-02  0.1125453E+00
         25   -1    0    0    0    0  0.00000000000E+00  0.00000000000E+00  0.99999998245E-14  0.12509000000E+03  0.12509000000E+03 0.  0.
        -11    1    3    3    0    0  0.18802929574E+02 -0.40139061786E+02  0.16757987563E+02  0.47386966447E+02  0.51100000000E-03 0.  1.
         23    2    1    0    0    0  0.17858528656E+02 -0.11320362676E+02 -0.21262015806E+02  0.95104153789E+02  0.90253249775E+02 0.  0.
         11    1    3    3    0    0 -0.94440091805E+00  0.28818699109E+02 -0.38020003368E+02  0.47717187342E+02  0.51100000000E-03 0. -1.
         22    1    1    0    0    0 -0.17858528656E+02  0.11320362676E+02  0.21262015806E+02  0.29985846211E+02  0.00000000000E+00 0. -1.
</event>
<event>
 5    1  0.1055265E-009  0.9118800E+02  0.7815553E-02  0.1125453E+00
         25   -1    0    0    0    0  0.00000000000E+00  0.00000000000E+00  0.99999998245E-14  0.12509000000E+03  0.12509000000E+03 0.  0.
        -11    1    3    3    0    0  0.17229553019E+02 -0.39001329403E+02  0.31285136590E-01  0.42637567607E+02  0.51100000000E-03 0.  1.
         23    2    1    0    0    0 -0.27342532896E+02 -0.11049987321E+02  0.36545081256E+01  0.95373476741E+02  0.90625759644E+02 0.  0.
         11    1    3    3    0    0 -0.44572085915E+02  0.27951342083E+02  0.36232229890E+01  0.52735909133E+02  0.51100000000E-03 0. -1.
         22    1    1    0    0    0  0.27342532896E+02  0.11049987321E+02 -0.36545081256E+01  0.29716523259E+02  0.00000000000E+00 0. -1.
</event>
<event>
 5    1  0.1055265E-009  0.9118800E+02  0.7815553E-02  0.1125453E+00
         25   -1    0    0    0    0  0.00000000000E+00  0.00000000000E+00  0.99999998245E-14  0.12509000000E+03  0.12509000000E+03 0.  0.
        -11    1    3    3    0    0 -0.30143189755E+02  0.11892996002E+02  0.22727744790E+01  0.32484161472E+02  0.51100000000E-03 0.  1.
         23    2    1    0    0    0  0.28468223528E+02 -0.79167763380E+01 -0.61049198511E+01  0.94917410704E+02  0.89994053748E+02 0.  0.
         11    1    3    3    0    0  0.58611413282E+02 -0.19809772340E+02 -0.83776943301E+01  0.62433249232E+02  0.51100000000E-03 0. -1.
         22    1    1    0    0    0 -0.28468223528E+02  0.79167763380E+01  0.61049198511E+01  0.30172589296E+02  0.00000000000E+00 0. -1.
</event>
<event>
 5    1  0.1055265E-009  0.9118800E+02  0.7815553E-02  0.1125453E+00
         25   -1    0    0    0    0  0.00000000000E+00  0.00000000000E+00  0.99999998245E-14  0.12509000000E+03  0.12509000000E+03 0.  0.
        -11    1    3    3    0    0  0.54607016811E+02  0.24777995255E+02  0.15812307950E+02  0.62015356298E+02  0.51100000000E-03 0.  1.
         23    2    1    0    0    0  0.24048858648E+02  0.16287292768E+02  0.44454620458E+01  0.95706575408E+02  0.91084372620E+02 0.  0.
         11    1    3    3    0    0 -0.30558158163E+02 -0.84907024876E+01 -0.11366845904E+02  0.33691219110E+02  0.51100000000E-03 0. -1.
         22    1    1    0    0    0 -0.24048858648E+02 -0.16287292768E+02 -0.44454620458E+01  0.29383424592E+02  0.00000000000E+00 0.  1.
</event>
<event>
 5    1  0.1055265E-009  0.9118800E+02  0.7815553E-02  0.1125453E+00
         25   -1    0    0    0    0  0.00000000000E+00  0.00000000000E+00  0.99999998245E-14  0.12509000000E+03  0.12509000000E+03 0.  0.
        -11    1    3    3    0    0  0.14085539307E+02  0.35266862879E+02 -0.10823966050E+02  0.39488128294E+02  0.51100000000E-03 0.  1.
         23    2    1    0    0    0 -0.22194247730E+02 -0.24265029059E+01 -0.22822546038E+02  0.93162877419E+02  0.87521314962E+02 0.  0.
         11    1    3    3    0    0 -0.36279787037E+02 -0.37693365785E+02 -0.11998579987E+02  0.53674749125E+02  0.51100000000E-03 0. -1.
         22    1    1    0    0    0  0.22194247730E+02  0.24265029059E+01  0.22822546038E+02  0.31927122581E+02  0.00000000000E+00 0.  1.
</event>
<event>
 5    1  0.1055265E-009  0.9118800E+02  0.7815553E-02  0.1125453E+00
         25   -1    0    0    0    0  0.00000000000E+00  0.00000000000E+00  0.99999998245E-14  0.12509000000E+03  0.12509000000E+03 0.  0.
        -11    1    3    3    0    0 -0.14994223584E+02  0.12837902880E+02 -0.25808415569E+02  0.32491734421E+02  0.51100000000E-03 0.  1.
         23    2    1    0    0    0  0.84023527550E+01 -0.93072434141E+01  0.27549908209E+02  0.94820844840E+02  0.89859728811E+02 0.  0.
         11    1    3    3    0    0  0.23396576339E+02 -0.22145146294E+02  0.53358323778E+02  0.62329110418E+02  0.51100000000E-03 0. -1.
         22    1    1    0    0    0 -0.84023527550E+01  0.93072434141E+01 -0.27549908209E+02  0.30269155160E+02  0.00000000000E+00 0. -1.
</event>
<event>
 5    1  0.1055265E-009  0.9118800E+02  0.7815553E-02  0.1125453E+00
         25   -1    0    0    0    0  0.00000000000E+00  0.00000000000E+00  0.99999998245E-14  0.12509000000E+03  0.12509000000E+03 0.  0.
        -11    1    3    3    0    0  0.31035750232E+01 -0.23986572809E+02  0.46182465154E+02  0.52132599600E+02  0.51100000000E-03 0. -1.
         23    2    1    0    0    0 -0.13017539276E+00  0.13476258886E+02  0.28246087766E+02  0.93793546953E+02  0.88418106046E+02 0.  0.
         11    1    3    3    0    0 -0.32337504160E+01  0.37462831695E+02 -0.17936377388E+02  0.41660947354E+02  0.51100000000E-03 0.  1.
         22    1    1    0    0    0  0.13017539276E+00 -0.13476258886E+02 -0.28246087766E+02  0.31296453047E+02  0.00000000000E+00 0.  1.
</event>
<event>
 5    1  0.1055265E-009  0.9118800E+02  0.7815553E-02  0.1125453E+00
         25   -1    0    0    0    0  0.00000000000E+00  0.00000000000E+00  0.99999998245E-14  0.12509000000E+03  0.12509000000E+03 0.  0.
        -11    1    3    3    0    0 -0.37010992756E+02 -0.32545937028E+01 -0.47621354287E+02  0.60400325739E+02  0.51100000000E-03 0. -1.
         23    2    1    0    0    0 -0.99625427249E+01  0.29897251270E+01 -0.30139367607E+02  0.93206270707E+02  0.87583312939E+02 0.  0.
         11    1    3    3    0    0  0.27048450031E+02  0.62443188298E+01  0.17481986679E+02  0.32805944968E+02  0.51100000000E-03 0.  1.
         22    1    1    0    0    0  0.99625427249E+01 -0.29897251270E+01  0.30139367607E+02  0.31883729293E+02  0.00000000000E+00 0. -1.
</event>
<event>
 5    1  0.1055265E-009  0.9118800E+02  0.7815553E-02  0.1125453E+00
         25   -1    0    0    0    0  0.00000000000E+00  0.00000000000E+00  0.99999998245E-14  0.12509000000E+03  0.12509000000E+03 0.  0.
        -11    1    3    3    0    0 -0.33772418735E+02  0.19102949752E+01  0.34880011003E+02  0.48588482812E+02  0.51100000000E-03 0.  1.
         23    2    1    0    0    0  0.10281404623E+02  0.13337934599E+02  0.24650988576E+02  0.95235703522E+02  0.90435392448E+02 0.  0.
         11    1    3    3    0    0  0.44053823359E+02  0.11427639624E+02 -0.10229022427E+02  0.46647220710E+02  0.51100000000E-03 0. -1.
         22    1    1    0    0    0 -0.10281404623E+02 -0.13337934599E+02 -0.24650988576E+02  0.29854296478E+02  0.00000000000E+00 0. -1.
</event>
<event>
 5    1  0.1055265E-009  0.9118800E+02  0.7815553E-02  0.1125453E+00
         25   -1    0    0    0    0  0.00000000000E+00  0.00000000000E+00  0.99999998245E-14  0.12509000000E+03  0.12509000000E+03 0.  0.
        -11    1    3    3    0    0  0.39477131038E+02 -0.93324269555E+01 -0.27501772735E+02  0.49009035613E+02  0.51100000000E-03 0.  1.
         23    2    1    0    0    0  0.27606514376E+02 -0.30641323353E+01  0.14959464827E+02  0.93541717466E+02  0.88061108190E+02 0.  0.
         11    1    3    3    0    0 -0.11870616662E+02  0.62682946202E+01  0.42461237563E+02  0.44532681853E+02  0.51100000000E-03 0. -1.
         22    1    1    0    0    0 -0.27606514376E+02  0.30641323353E+01 -0.14959464827E+02  0.31548282534E+02  0.00000000000E+00 0.  1.
</event>
<event>
 5    1  0.1055265E-009  0.9118800E+02  0.7815553E-02  0.1125453E+00
         25   -1    0    0    0    0  0.00000000000E+00  0.00000000000E+00  0.99999998245E-14  0.12509000000E+03  0.12509000000E+03 0.  0.
        -11    1    3    3    0    0 -0.10530108141E+02  0.94561984510E+01  0.32738859939E+02  0.35667013009E+02  0.51100000000E-03 0.  1.
         23    2    1    0    0    0 -0.13923262301E+02 -0.10460342990E+02 -0.23738137049E+02  0.95648954517E+02  0.91005205022E+02 0.  0.
         11    1    3    3    0    0 -0.33931541605E+01 -0.19916541441E+02 -0.56476996988E+02  0.59981941508E+02  0.51100000000E-03 0. -1.
         22    1    1    0    0    0  0.13923262301E+02  0.10460342990E+02  0.23738137049E+02  0.29441045483E+02  0.00000000000E+00 0. -1.
</event>
<event>
 5    1  0.1055265E-009  0.9118800E+02  0.7815553E-02  0.1125453E+00
         25   -1    0    0    0    0  0.00000000000E+00  0.00000000000E+00  0.99999998245E-14  0.12509000000E+03  0.12509000000E+03 0.  0.
        -11    1    3    3    0    0 -0.24953518361E+02  0.16927918833E+02  0.26686474629E+02  0.40266616980E+02  0.51100000000E-03 0. -1.
         23    2    1    0    0    0  0.16149994317E+02  0.20046793985E+02 -0.11899504486E+02  0.96729914096E+02  0.92479088493E+02 0.  0.
         11    1    3    3    0    0  0.41103512678E+02  0.31188751513E+01 -0.38585979115E+02  0.56463297116E+02  0.51100000000E-03 0.  1.
         22    1    1    0    0    0 -0.16149994317E+02 -0.20046793985E+02  0.11899504486E+02  0.28360085904E+02  0.00000000000E+00 0.  1.
</event>
<event>
 5    1  0.1055265E-009  0.9118800E+02  0.7815553E-02  0.1125453E+00
         25   -1    0    0    0    0  0.00000000000E+00  0.00000000000E+00  0.99999998245E-14  0.12509000000E+03  0.12509000000E+03 0.  0.
        -11    1    3    3    0    0 -0.30201084956E+02  0.15205494601E+02 -0.18923656889E+02  0.38748127554E+02  0.51100000000E-03 0.  1.
         23    2    1    0    0    0  0.15845921177E+02  0.19995122081E+02  0.14404018891E+02  0.95791981548E+02  0.91201589041E+02 0.  0.
         11    1    3    3    0    0  0.46047006134E+02  0.47896274807E+01  0.33327675781E+02  0.57043853994E+02  0.51100000000E-03 0. -1.
         22    1    1    0    0    0 -0.15845921177E+02 -0.19995122081E+02 -0.14404018891E+02  0.29298018452E+02  0.00000000000E+00 0. -1.
</event>
<event>
 5    1  0.1055265E-009  0.9118800E+02  0.7815553E-02  0.1125453E+00
         25   -1    0    0    0    0  0.00000000000E+00  0.00000000000E+00  0.99999998245E-14  0.12509000000E+03  0.12509000000E+03 0.  0.
        -11    1    3    3    0    0 -0.11517838267E+02  0.17096844215E+02  0.32831867031E+02  0.38767179075E+02  0.51100000000E-03 0.  1.
         23    2    1    0    0    0 -0.19152957984E+02  0.28574485121E+01 -0.21912983075E+02  0.95846545369E+02  0.91276396841E+02 0.  0.
         11    1    3    3    0    0 -0.76351197173E+01 -0.14239395703E+02 -0.54744850106E+02  0.57079366294E+02  0.51100000000E-03 0. -1.
         22    1    1    0    0    0  0.19152957984E+02 -0.28574485121E+01  0.21912983075E+02  0.29243454631E+02  0.00000000000E+00 0. -1.
</event>
<event>
 5    1  0.1055265E-009  0.9118800E+02  0.7815553E-02  0.1125453E+00
         25   -1    0    0    0    0  0.00000000000E+00  0.00000000000E+00  0.99999998245E-14  0.12509000000E+03  0.12509000000E+03 0.  0.
        -11    1    3    3    0    0 -0.45901846314E+02 -0.32540045070E+02  0.13745360423E+02  0.57920367416E+02  0.51100000000E-03 0. -1.
         23    2    1    0    0    0 -0.16886287054E+02  0.43779427786E+01 -0.21946694841E+01  0.10750791686E+03  0.10606046643E+03 0.  0.
         11    1    3    3    0    0  0.29015559260E+02  0.36917987849E+02 -0.15940029907E+02  0.49587549442E+02  0.51100000000E-03 0.  1.
         22    1    1    0    0    0  0.16886287054E+02 -0.43779427786E+01  0.21946694841E+01  0.17582083141E+02  0.00000000000E+00 0. -1.
</event>
<event>
 5    1  0.1055265E-009  0.9118800E+02  0.7815553E-02  0.1125453E+00
         25   -1    0    0    0    0  0.00000000000E+00  0.00000000000E+00  0.99999998245E-14  0.12509000000E+03  0.12509000000E+03 0.  0.
        -11    1    3    3    0    0  0.26149630355E+02  0.11777373170E+02 -0.18072387757E+02  0.33898685609E+02  0.51100000000E-03 0.  1.
         23    2    1    0    0    0 -0.25098114490E+02 -0.11778511118E+02  0.82828040428E+01  0.96154666618E+02  0.91697690235E+02 0.  0.
         11    1    3    3    0    0 -0.51247744845E+02 -0.23555884288E+02  0.26355191800E+02  0.62255981009E+02  0.51100000000E-03 0. -1.
         22    1    1    0    0    0  0.25098114490E+02  0.11778511118E+02 -0.82828040428E+01  0.28935333382E+02  0.00000000000E+00 0. -1.
</event>
<event>
 5    1  0.1055265E-009  0.9118800E+02  0.7815553E-02  0.1125453E+00
         25   -1    0    0    0    0  0.00000000000E+00  0.00000000000E+00  0.99999998245E-14  0.12509000000E+03  0.12509000000E+03 0.  0.
        -11    1    3    3    0    0 -0.30778081963E+02 -0.13112147330E+02  0.11237157766E+02  0.35291535130E+02  0.51100000000E-03 0.  1.
         23    2    1    0    0    0  0.25632281474E+02  0.95060739260E+01  0.96838495380E+01  0.96087306385E+02  0.91605754249E+02 0.  0.
         11    1    3    3    0    0  0.56410363436E+02  0.22618221256E+02 -0.15533082282E+01  0.60795771255E+02  0.51100000000E-03 0. -1.
         22    1    1    0    0    0 -0.25632281474E+02 -0.95060739260E+01 -0.96838495380E+01  0.29002693615E+02  0.00000000000E+00 0. -1.
</event>
<event>
 5    1  0.1055265E-009  0.9118800E+02  0.7815553E-02  0.1125453E+00
         25   -1    0    0    0    0  0.00000000000E+00  0.00000000000E+00  0.99999998245E-14  0.12509000000E+03  0.12509000000E+03 0.  0.
        -11    1    3    3    0    0 -0.19957062257E+02 -0.32486630842E+02 -0.35774585289E+01  0.38294434676E+02  0.51100000000E-03 0.  1.
         23    2    1    0    0    0  0.35812794138E+01  0.17739696487E+02 -0.21871667144E+02  0.96701759171E+02  0.92440997450E+02 0.  0.
         11    1    3    3    0    0  0.23538341671E+02  0.50226327329E+02 -0.18294208615E+02  0.58407324495E+02  0.51100000000E-03 0. -1.
         22    1    1    0    0    0 -0.35812794138E+01 -0.17739696487E+02  0.21871667144E+02  0.28388240829E+02  0.00000000000E+00 0. -1.
</event>
<event>
 5    1  0.1055265E-009  0.9118800E+02  0.7815553E-02  0.1125453E+00
         25   -1    0    0    0    0  0.00000000000E+00  0.00000000000E+00  0.99999998245E-14  0.12509000000E+03  0.12509000000E+03 0.  0.
        -11    1    3    3    0    0  0.32143439052E+02 -0.26890986286E+02  0.45547128592E+02  0.61893995999E+02  0.51100000000E-03 0. -1.
         23    2    1    0    0    0  0.19516211891E+02 -0.16806972798E+02  0.18580862687E+02  0.93331452814E+02  0.87761920928E+02 0.  0.
         11    1    3    3    0    0 -0.12627227161E+02  0.10084013487E+02 -0.26966265905E+02  0.31437456814E+02  0.51100000000E-03 0.  1.
         22    1    1    0    0    0 -0.19516211891E+02  0.16806972798E+02 -0.18580862687E+02  0.31758547186E+02  0.00000000000E+00 0. -1.
</event>
<event>
 5    1  0.1055265E-009  0.9118800E+02  0.7815553E-02  0.1125453E+00
         25   -1    0    0    0    0  0.00000000000E+00  0.00000000000E+00  0.99999998245E-14  0.12509000000E+03  0.12509000000E+03 0.  0.
        -11    1    3    3    0    0 -0.34609328146E+02 -0.25748121578E+02 -0.20583225877E+01  0.43185738984E+02  0.51100000000E-03 0.  1.
         23    2    1    0    0    0  0.14287892646E+02 -0.22105814543E+02  0.14624447603E+02  0.94978783143E+02  0.90079319862E+02 0.  0.
         11    1    3    3    0    0  0.48897220792E+02  0.36423070346E+01  0.16682770191E+02  0.51793044159E+02  0.51100000000E-03 0. -1.
         22    1    1    0    0    0 -0.14287892646E+02  0.22105814543E+02 -0.14624447603E+02  0.30111216857E+02  0.00000000000E+00 0. -1.
</event>
<event>
 5    1  0.1055265E-009  0.9118800E+02  0.7815553E-02  0.1125453E+00
         25   -1    0    0    0    0  0.00000000000E+00  0.00000000000E+00  0.99999998245E-14  0.12509000000E+03  0.12509000000E+03 0.  0.
        -11    1    3    3    0    0 -0.15637158358E+02 -0.32419036080E+02  0.11482837470E+02  0.37780552914E+02  0.51100000000E-03 0.  1.
         23    2    1    0    0    0  0.31458004532E+02 -0.51928597155E+01  0.93412207595E+00  0.93192595322E+02  0.87563779028E+02 0.  0.
         11    1    3    3    0    0  0.47095162889E+02  0.27226176365E+02 -0.10548715394E+02  0.55412042407E+02  0.51100000000E-03 0. -1.
         22    1    1    0    0    0 -0.31458004532E+02  0.51928597155E+01 -0.93412207595E+00  0.31897404678E+02  0.00000000000E+00 0. -1.
</event>
<event>
 5    1  0.1055265E-009  0.9118800E+02  0.7815553E-02  0.1125453E+00
         25   -1    0    0    0    0  0.00000000000E+00  0.00000000000E+00  0.99999998245E-14  0.12509000000E+03  0.12509000000E+03 0.  0.
        -11    1    3    3    0    0  0.59831986131E+01  0.10348083917E+02  0.52690350566E+02  0.54029200896E+02  0.51100000000E-03 0. -1.
         23    2    1    0    0    0  0.24361710274E+02  0.33344672204E+01  0.15724707588E+02  0.95903050385E+02  0.91353801482E+02 0.  0.
         11    1    3    3    0    0  0.18378511661E+02 -0.70136166970E+01 -0.36965642978E+02  0.41873849489E+02  0.51100000000E-03 0.  1.
         22    1    1    0    0    0 -0.24361710274E+02 -0.33344672204E+01 -0.15724707588E+02  0.29186949615E+02  0.00000000000E+00 0. -1.
</event>
<event>
 5    1  0.1055265E-009  0.9118800E+02  0.7815553E-02  0.1125453E+00
         25   -1    0    0    0    0  0.00000000000E+00  0.00000000000E+00  0.99999998245E-14  0.12509000000E+03  0.12509000000E+03 0.  0.
        -11    1    3    3    0    0  0.29551023661E+02 -0.34361224391E+02  0.16143841130E+02  0.48110085717E+02  0.51100000000E-03 0. -1.
         23    2    1    0    0    0  0.25109782294E+02  0.87720278016E+00 -0.15406985593E+02  0.95617201411E+02  0.90961548740E+02 0.  0.
         11    1    3    3    0    0 -0.44412413669E+01  0.35238427171E+02 -0.31550826724E+02  0.47507115694E+02  0.51100000000E-03 0.  1.
         22    1    1    0    0    0 -0.25109782294E+02 -0.87720278016E+00  0.15406985593E+02  0.29472798589E+02  0.00000000000E+00 0. -1.
</event>
<event>
 5    1  0.1055265E-009  0.9118800E+02  0.7815553E-02  0.1125453E+00
         25   -1    0    0    0    0  0.00000000000E+00  0.00000000000E+00  0.99999998245E-14  0.12509000000E+03  0.12509000000E+03 0.  0.
        -11    1    3    3    0    0  0.12764160090E+02  0.43242265338E+00 -0.32523724837E+02  0.34941428844E+02  0.51100000000E-03 0.  1.
         23    2    1    0    0    0 -0.13227731043E+02  0.13402446626E+02  0.21640674104E+02  0.96403466229E+02  0.92036466040E+02 0.  0.
         11    1    3    3    0    0 -0.25991891133E+02  0.12970023973E+02  0.54164398941E+02  0.61462037384E+02  0.51100000000E-03 0. -1.
         22    1    1    0    0    0  0.13227731043E+02 -0.13402446626E+02 -0.21640674104E+02  0.28686533771E+02  0.00000000000E+00 0. -1.
</event>
<event>
 5    1  0.1055265E-009  0.9118800E+02  0.7815553E-02  0.1125453E+00
         25   -1    0    0    0    0  0.00000000000E+00  0.00000000000E+00  0.99999998245E-14  0.12509000000E+03  0.12509000000E+03 0.  0.
        -11    1    3    3    0    0 -0.10266298865E+02  0.24810208335E+02  0.50155813208E+02  0.56890675237E+02  0.51100000000E-03 0.  1.
         23    2    1    0    0    0  0.13158994831E+00 -0.54387504284E+01  0.29783773066E+02  0.94813433811E+02  0.89849411633E+02 0.  0.
         11    1    3    3    0    0  0.10397888813E+02 -0.30248958764E+02 -0.20372040142E+02  0.37922758574E+02  0.51100000000E-03 0. -1.
         22    1    1    0    0    0 -0.13158994831E+00  0.54387504284E+01 -0.29783773066E+02  0.30276566189E+02  0.00000000000E+00 0.  1.
</event>
<event>
 5    1  0.1055265E-009  0.9118800E+02  0.7815553E-02  0.1125453E+00
         25   -1    0    0    0    0  0.00000000000E+00  0.00000000000E+00  0.99999998245E-14  0.12509000000E+03  0.12509000000E+03 0.  0.
        -11    1    3    3    0    0  0.34233363879E+02  0.11341194638E+02  0.46011619796E+02  0.58460371661E+02  0.51100000000E-03 0.  1.
         23    2    1    0    0    0  0.18405196429E+01  0.97113411910E+01  0.27639720397E+02  0.95736093890E+02  0.91124902576E+02 0.  0.
         11    1    3    3    0    0 -0.32392844236E+02 -0.16298534469E+01 -0.18371899399E+02  0.37275722229E+02  0.51100000000E-03 0. -1.
         22    1    1    0    0    0 -0.18405196429E+01 -0.97113411910E+01 -0.27639720397E+02  0.29353906110E+02  0.00000000000E+00 0.  1.
</event>
<event>
 5    1  0.1055265E-009  0.9118800E+02  0.7815553E-02  0.1125453E+00
         25   -1    0    0    0    0  0.00000000000E+00  0.00000000000E+00  0.99999998245E-14  0.12509000000E+03  0.12509000000E+03 0.  0.
        -11    1    3    3    0    0  0.23523835881E+02 -0.32227752122E+02  0.39763848049E+02  0.56330830575E+02  0.51100000000E-03 0. -1.
         23    2    1    0    0    0  0.27362564392E+02 -0.10614499128E+02  0.84942484762E+01  0.94536280438E+02  0.89462721510E+02 0.  0.
         11    1    3    3    0    0  0.38387285112E+01  0.21613252993E+02 -0.31269599573E+02  0.38205449863E+02  0.51100000000E-03 0.  1.
         22    1    1    0    0    0 -0.27362564392E+02  0.10614499128E+02 -0.84942484762E+01  0.30553719562E+02  0.00000000000E+00 0. -1.
</event>
<event>
 5    1  0.1055265E-009  0.9118800E+02  0.7815553E-02  0.1125453E+00
         25   -1    0    0    0    0  0.00000000000E+00  0.00000000000E+00  0.99999998245E-14  0.12509000000E+03  0.12509000000E+03 0.  0.
        -11    1    3    3    0    0 -0.14631794846E+02  0.10649807619E+02  0.54561708820E+02  0.57484675283E+02  0.51100000000E-03 0.  1.
         23    2    1    0    0    0 -0.21906438866E+02  0.95439788868E+01  0.16989378430E+02  0.95770747345E+02  0.91172460046E+02 0.  0.
         11    1    3    3    0    0 -0.72746440206E+01 -0.11058287324E+01 -0.37572330390E+02  0.38286072062E+02  0.51100000000E-03 0. -1.
         22    1    1    0    0    0  0.21906438866E+02 -0.95439788868E+01 -0.16989378430E+02  0.29319252655E+02  0.00000000000E+00 0.  1.
</event>
<event>
 5    1  0.1055265E-009  0.9118800E+02  0.7815553E-02  0.1125453E+00
         25   -1    0    0    0    0  0.00000000000E+00  0.00000000000E+00  0.99999998245E-14  0.12509000000E+03  0.12509000000E+03 0.  0.
        -11    1    3    3    0    0  0.23395382224E+01  0.45023566329E+02 -0.39321932661E+02  0.59823150640E+02  0.51100000000E-03 0. -1.
         23    2    1    0    0    0  0.96934057444E+01  0.28315595564E+02 -0.11650430057E+02  0.92973530898E+02  0.87250271404E+02 0.  0.
         11    1    3    3    0    0  0.73538675220E+01 -0.16707970765E+02  0.27671502604E+02  0.33150380258E+02  0.51100000000E-03 0.  1.
         22    1    1    0    0    0 -0.96934057444E+01 -0.28315595564E+02  0.11650430057E+02  0.32116469102E+02  0.00000000000E+00 0. -1.
</event>
<event>
 5    1  0.1055265E-009  0.9118800E+02  0.7815553E-02  0.1125453E+00
         25   -1    0    0    0    0  0.00000000000E+00  0.00000000000E+00  0.99999998245E-14  0.12509000000E+03  0.12509000000E+03 0.  0.
        -11    1    3    3    0    0 -0.51594968015E+02 -0.22915343574E+02 -0.20786112725E+02  0.60159921692E+02  0.51100000000E-03 0.  1.
         23    2    1    0    0    0 -0.19553339746E+02 -0.20796425410E+02 -0.44098574771E+01  0.96206245950E+02  0.91768025541E+02 0.  0.
         11    1    3    3    0    0  0.32041628268E+02  0.21189181641E+01  0.16376255248E+02  0.36046324257E+02  0.51100000000E-03 0. -1.
         22    1    1    0    0    0  0.19553339746E+02  0.20796425410E+02  0.44098574771E+01  0.28883754050E+02  0.00000000000E+00 0.  1.
</event>
<event>
 5    1  0.1055265E-009  0.9118800E+02  0.7815553E-02  0.1125453E+00
         25   -1    0    0    0    0  0.00000000000E+00  0.00000000000E+00  0.99999998245E-14  0.12509000000E+03  0.12509000000E+03 0.  0.
        -11    1    3    3    0    0 -0.35061070593E+01 -0.32210963787E+02 -0.32578665342E+02  0.45947887988E+02  0.51100000000E-03 0.  1.
         23    2    1    0    0    0 -0.24882283142E+02 -0.21218959441E+02  0.64252411732E+01  0.91763494359E+02  0.85497853299E+02 0.  0.
         11    1    3    3    0    0 -0.21376176083E+02  0.10992004346E+02  0.39003906515E+02  0.45815606371E+02  0.51100000000E-03 0. -1.
         22    1    1    0    0    0  0.24882283142E+02  0.21218959441E+02 -0.64252411732E+01  0.33326505641E+02  0.00000000000E+00 0.  1.
</event>
<event>
 5    1  0.1055265E-009  0.9118800E+02  0.7815553E-02  0.1125453E+00
         25   -1    0    0    0    0  0.00000000000E+00  0.00000000000E+00  0.99999998245E-14  0.12509000000E+03  0.12509000000E+03 0.  0.
        -11    1    3    3    0    0 -0.94989369127E+01 -0.17233917994E+02 -0.31341815873E+02  0.37007393239E+02  0.51100000000E-03 0.  1.
         23    2    1    0    0    0  0.12185100569E+02 -0.14957669974E+02  0.22710281689E+02  0.95291250675E+02  0.90512192515E+02 0.  0.
         11    1    3    3    0    0  0.21684037482E+02  0.22762480201E+01  0.54052097562E+02  0.58283857436E+02  0.51100000000E-03 0. -1.
         22    1    1    0    0    0 -0.12185100569E+02  0.14957669974E+02 -0.22710281689E+02  0.29798749325E+02  0.00000000000E+00 0. -1.
</event>
<event>
 5    1  0.1055265E-009  0.9118800E+02  0.7815553E-02  0.1125453E+00
         25   -1    0    0    0    0  0.00000000000E+00  0.00000000000E+00  0.99999998245E-14  0.12509000000E+03  0.12509000000E+03 0.  0.
        -11    1    3    3    0    0  0.33205361137E+02 -0.13786451921E+02  0.25288474594E+01  0.36042437966E+02  0.51100000000E-03 0. -1.
         23    2    1    0    0    0 -0.14747954922E+02  0.15956544348E+02 -0.18790351929E+02  0.96363865427E+02  0.91982627450E+02 0.  0.
         11    1    3    3    0    0 -0.47953316059E+02  0.29742996269E+02 -0.21319199388E+02  0.60321427461E+02  0.51100000000E-03 0.  1.
         22    1    1    0    0    0  0.14747954922E+02 -0.15956544348E+02  0.18790351929E+02  0.28726134573E+02  0.00000000000E+00 0.  1.
</event>
<event>
 5    1  0.1055265E-009  0.9118800E+02  0.7815553E-02  0.1125453E+00
         25   -1    0    0    0    0  0.00000000000E+00  0.00000000000E+00  0.99999998245E-14  0.12509000000E+03  0.12509000000E+03 0.  0.
        -11    1    3    3    0    0  0.47298867678E+02 -0.37526472851E+02 -0.78112532513E+01  0.60880495447E+02  0.51100000000E-03 0. -1.
         23    2    1    0    0    0  0.24572170888E+02 -0.11363685011E+02 -0.11387604047E+02  0.95719905599E+02  0.91102677693E+02 0.  0.
         11    1    3    3    0    0 -0.22726696790E+02  0.26162787839E+02 -0.35763507961E+01  0.34839410153E+02  0.51100000000E-03 0.  1.
         22    1    1    0    0    0 -0.24572170888E+02  0.11363685011E+02  0.11387604047E+02  0.29370094401E+02  0.00000000000E+00 0. -1.
</event>
<event>
 5    1  0.1055265E-009  0.9118800E+02  0.7815553E-02  0.1125453E+00
         25   -1    0    0    0    0  0.00000000000E+00  0.00000000000E+00  0.99999998245E-14  0.12509000000E+03  0.12509000000E+03 0.  0.
        -11    1    3    3    0    0 -0.49117536512E+02  0.23269334701E+02  0.23051975902E+02  0.59037174083E+02  0.51100000000E-03 0. -1.
         23    2    1    0    0    0 -0.18507981677E+02  0.23652451388E+02  0.48045522160E+01  0.94675076616E+02  0.89656581286E+02 0.  0.
         11    1    3    3    0    0  0.30609554834E+02  0.38311668690E+00 -0.18247423686E+02  0.35637902534E+02  0.51100000000E-03 0.  1.
         22    1    1    0    0    0  0.18507981677E+02 -0.23652451388E+02 -0.48045522160E+01  0.30414923384E+02  0.00000000000E+00 0. -1.
</event>
<event>
 5    1  0.1055265E-009  0.9118800E+02  0.7815553E-02  0.1125453E+00
         25   -1    0    0    0    0  0.00000000000E+00  0.00000000000E+00  0.99999998245E-14  0.12509000000E+03  0.12509000000E+03 0.  0.
        -11    1    3    3    0    0  0.88566342684E+01 -0.30214412048E+02 -0.45702200471E+02  0.55498124239E+02  0.51100000000E-03 0.  1.
         23    2    1    0    0    0 -0.13295317965E+02 -0.31352503373E+01 -0.26176644858E+02  0.95563537116E+02  0.90887719829E+02 0.  0.
         11    1    3    3    0    0 -0.22151952233E+02  0.27079161711E+02  0.19525555613E+02  0.40065412876E+02  0.51100000000E-03 0. -1.
         22    1    1    0    0    0  0.13295317965E+02  0.31352503373E+01  0.26176644858E+02  0.29526462884E+02  0.00000000000E+00 0.  1.
</event>
<event>
 5    1  0.1055265E-009  0.9118800E+02  0.7815553E-02  0.1125453E+00
         25   -1    0    0    0    0  0.00000000000E+00  0.00000000000E+00  0.99999998245E-14  0.12509000000E+03  0.12509000000E+03 0.  0.
        -11    1    3    3    0    0  0.19736784890E+02  0.14960662394E+02 -0.31720585929E+02  0.40243728319E+02  0.51100000000E-03 0.  1.
         23    2    1    0    0    0 -0.19048680255E+02 -0.19155604484E+02 -0.11893299736E+02  0.95573225427E+02  0.90901053004E+02 0.  0.
         11    1    3    3    0    0 -0.38785465144E+02 -0.34116266878E+02  0.19827286193E+02  0.55329497108E+02  0.51100000000E-03 0. -1.
         22    1    1    0    0    0  0.19048680255E+02  0.19155604484E+02  0.11893299736E+02  0.29516774573E+02  0.00000000000E+00 0. -1.
</event>
<event>
 5    1  0.1055265E-009  0.9118800E+02  0.7815553E-02  0.1125453E+00
         25   -1    0    0    0    0  0.00000000000E+00  0.00000000000E+00  0.99999998245E-14  0.12509000000E+03  0.12509000000E+03 0.  0.
        -11    1    3    3    0    0  0.32443841777E+02 -0.32404847366E+02 -0.32404912583E+02  0.56149402150E+02  0.51100000000E-03 0.  1.
         23    2    1    0    0    0  0.30358859955E+00 -0.10792736149E+02 -0.27939535021E+02  0.95136820923E+02  0.90298514708E+02 0.  0.
         11    1    3    3    0    0 -0.32140253178E+02  0.21612111216E+02  0.44653775611E+01  0.38987418773E+02  0.51100000000E-03 0. -1.
         22    1    1    0    0    0 -0.30358859955E+00  0.10792736149E+02  0.27939535021E+02  0.29953179077E+02  0.00000000000E+00 0.  1.
</event>
<event>
 5    1  0.1055265E-009  0.9118800E+02  0.7815553E-02  0.1125453E+00
         25   -1    0    0    0    0  0.00000000000E+00  0.00000000000E+00  0.99999998245E-14  0.12509000000E+03  0.12509000000E+03 0.  0.
        -11    1    3    3    0    0  0.74450687972E+01 -0.46862427666E+02 -0.29299754612E+02  0.55767300426E+02  0.51100000000E-03 0.  1.
         23    2    1    0    0    0  0.58128133429E+01 -0.76882804394E+01 -0.28522347191E+02  0.94983144562E+02  0.90085376208E+02 0.  0.
         11    1    3    3    0    0 -0.16322554543E+01  0.39174147227E+02  0.77740742171E+00  0.39215844137E+02  0.51100000000E-03 0. -1.
         22    1    1    0    0    0 -0.58128133429E+01  0.76882804394E+01  0.28522347191E+02  0.30106855438E+02  0.00000000000E+00 0.  1.
</event>
<event>
 5    1  0.1055265E-009  0.9118800E+02  0.7815553E-02  0.1125453E+00
         25   -1    0    0    0    0  0.00000000000E+00  0.00000000000E+00  0.99999998245E-14  0.12509000000E+03  0.12509000000E+03 0.  0.
        -11    1    3    3    0    0  0.34848070019E+01 -0.23032255519E+02 -0.36085840784E+02  0.42951328029E+02  0.51100000000E-03 0. -1.
         23    2    1    0    0    0 -0.10488512457E+02 -0.17518791256E+02  0.17248793238E+02  0.98361030532E+02  0.94659677363E+02 0.  0.
         11    1    3    3    0    0 -0.13973319459E+02  0.55134642628E+01  0.53334634022E+02  0.55409702503E+02  0.51100000000E-03 0.  1.
         22    1    1    0    0    0  0.10488512457E+02  0.17518791256E+02 -0.17248793238E+02  0.26728969468E+02  0.00000000000E+00 0.  1.
</event>
<event>
 5    1  0.1055265E-009  0.9118800E+02  0.7815553E-02  0.1125453E+00
         25   -1    0    0    0    0  0.00000000000E+00  0.00000000000E+00  0.99999998245E-14  0.12509000000E+03  0.12509000000E+03 0.  0.
        -11    1    3    3    0    0 -0.30010355382E+02 -0.16969746979E+02 -0.10523595666E+02  0.36046356386E+02  0.51100000000E-03 0.  1.
         23    2    1    0    0    0 -0.33584758933E+01  0.32224182420E+02 -0.55832533111E+01  0.92213716595E+02  0.86154045278E+02 0.  0.
         11    1    3    3    0    0  0.26651879489E+02  0.49193929399E+02  0.49403423551E+01  0.56167360209E+02  0.51100000000E-03 0. -1.
         22    1    1    0    0    0  0.33584758933E+01 -0.32224182420E+02  0.55832533111E+01  0.32876283405E+02  0.00000000000E+00 0. -1.
</event>
<event>
 5    1  0.1055265E-009  0.9118800E+02  0.7815553E-02  0.1125453E+00
         25   -1    0    0    0    0  0.00000000000E+00  0.00000000000E+00  0.99999998245E-14  0.12509000000E+03  0.12509000000E+03 0.  0.
        -11    1    3    3    0    0  0.12624745607E+02 -0.43071350869E+02 -0.32209133641E+02  0.55244490743E+02  0.51100000000E-03 0. -1.
         23    2    1    0    0    0  0.29546854960E+01 -0.28840070085E+02  0.44678491880E+01  0.95756717108E+02  0.91153208315E+02 0.  0.
         11    1    3    3    0    0 -0.96700601114E+01  0.14231280785E+02  0.36676982829E+02  0.40512226364E+02  0.51100000000E-03 0.  1.
         22    1    1    0    0    0 -0.29546854960E+01  0.28840070085E+02 -0.44678491880E+01  0.29333282892E+02  0.00000000000E+00 0. -1.
</event>
<event>
 5    1  0.1055265E-009  0.9118800E+02  0.7815553E-02  0.1125453E+00
         25   -1    0    0    0    0  0.00000000000E+00  0.00000000000E+00  0.99999998245E-14  0.12509000000E+03  0.12509000000E+03 0.  0.
        -11    1    3    3    0    0 -0.45049668207E+02 -0.29301872217E+02 -0.25200350997E+02  0.59355960203E+02  0.51100000000E-03 0.  1.
         23    2    1    0    0    0 -0.11863082007E+02 -0.24377095682E+02 -0.12607098732E+02  0.95191597918E+02  0.90374365100E+02 0.  0.
         11    1    3    3    0    0  0.33186586200E+02  0.49247765349E+01  0.12593252265E+02  0.35835637715E+02  0.51100000000E-03 0. -1.
         22    1    1    0    0    0  0.11863082007E+02  0.24377095682E+02  0.12607098732E+02  0.29898402082E+02  0.00000000000E+00 0.  1.
</event>
<event>
 5    1  0.1055265E-009  0.9118800E+02  0.7815553E-02  0.1125453E+00
         25   -1    0    0    0    0  0.00000000000E+00  0.00000000000E+00  0.99999998245E-14  0.12509000000E+03  0.12509000000E+03 0.  0.
        -11    1    3    3    0    0 -0.15188874580E+02 -0.43867736888E+02 -0.82326415807E+01  0.47147180598E+02  0.51100000000E-03 0. -1.
         23    2    1    0    0    0  0.24101233666E+02 -0.16902371533E+02 -0.70737447419E+01  0.94814638857E+02  0.89851089305E+02 0.  0.
         11    1    3    3    0    0  0.39290108246E+02  0.26965365355E+02  0.11588968388E+01  0.47667458259E+02  0.51100000000E-03 0.  1.
         22    1    1    0    0    0 -0.24101233666E+02  0.16902371533E+02  0.70737447419E+01  0.30275361143E+02  0.00000000000E+00 0. -1.
</event>
<event>
 5    1  0.1055265E-009  0.9118800E+02  0.7815553E-02  0.1125453E+00
         25   -1    0    0    0    0  0.00000000000E+00  0.00000000000E+00  0.99999998245E-14  0.12509000000E+03  0.12509000000E+03 0.  0.
        -11    1    3    3    0    0 -0.14747494649E+02  0.33678836051E+02 -0.22863848632E+02  0.43295590661E+02  0.51100000000E-03 0. -1.
         23    2    1    0    0    0  0.15043262380E+02  0.22873025121E+02  0.15952193019E+02  0.93404869681E+02  0.87866502131E+02 0.  0.
         11    1    3    3    0    0  0.29790757028E+02 -0.10805810930E+02  0.38816041651E+02  0.50109279020E+02  0.51100000000E-03 0.  1.
         22    1    1    0    0    0 -0.15043262380E+02 -0.22873025121E+02 -0.15952193019E+02  0.31685130319E+02  0.00000000000E+00 0.  1.
</event>
<event>
 5    1  0.1055265E-009  0.9118800E+02  0.7815553E-02  0.1125453E+00
         25   -1    0    0    0    0  0.00000000000E+00  0.00000000000E+00  0.99999998245E-14  0.12509000000E+03  0.12509000000E+03 0.  0.
        -11    1    3    3    0    0  0.22215358364E+02  0.24765037290E+02  0.12619582109E+01  0.33292968597E+02  0.51100000000E-03 0. -1.
         23    2    1    0    0    0 -0.18731259421E+02 -0.22204706817E+02  0.45213951066E+01  0.95690134387E+02  0.91061790675E+02 0.  0.
         11    1    3    3    0    0 -0.40946617785E+02 -0.46969744107E+02  0.32594368957E+01  0.62397165790E+02  0.51100000000E-03 0.  1.
         22    1    1    0    0    0  0.18731259421E+02  0.22204706817E+02 -0.45213951066E+01  0.29399865613E+02  0.00000000000E+00 0.  1.
</event>
<event>
 5    1  0.1055265E-009  0.9118800E+02  0.7815553E-02  0.1125453E+00
         25   -1    0    0    0    0  0.00000000000E+00  0.00000000000E+00  0.99999998245E-14  0.12509000000E+03  0.12509000000E+03 0.  0.
        -11    1    3    3    0    0 -0.43165890784E+02  0.28952948050E+02 -0.29539628676E+02  0.59784253701E+02  0.51100000000E-03 0. -1.
         23    2    1    0    0    0 -0.15504867263E+02  0.21229184041E+02 -0.34652802240E+01  0.98574206010E+02  0.94940964602E+02 0.  0.
         11    1    3    3    0    0  0.27661023521E+02 -0.77237640086E+01  0.26074348452E+02  0.38789952309E+02  0.51100000000E-03 0.  1.
         22    1    1    0    0    0  0.15504867263E+02 -0.21229184041E+02  0.34652802240E+01  0.26515793990E+02  0.00000000000E+00 0. -1.
</event>
<event>
 5    1  0.1055265E-009  0.9118800E+02  0.7815553E-02  0.1125453E+00
         25   -1    0    0    0    0  0.00000000000E+00  0.00000000000E+00  0.99999998245E-14  0.12509000000E+03  0.12509000000E+03 0.  0.
        -11    1    3    3    0    0  0.25367272892E+02 -0.14925122188E+02  0.41844351111E+02  0.51158650554E+02  0.51100000000E-03 0. -1.
         23    2    1    0    0    0 -0.28339965748E+01  0.15517061216E+02  0.24091389910E+02  0.96294066378E+02  0.91887656551E+02 0.  0.
         11    1    3    3    0    0 -0.28201269467E+02  0.30442183404E+02 -0.17752961201E+02  0.45135415824E+02  0.51100000000E-03 0.  1.
         22    1    1    0    0    0  0.28339965748E+01 -0.15517061216E+02 -0.24091389910E+02  0.28795933622E+02  0.00000000000E+00 0.  1.
</event>
<event>
 5    1  0.1055265E-009  0.9118800E+02  0.7815553E-02  0.1125453E+00
         25   -1    0    0    0    0  0.00000000000E+00  0.00000000000E+00  0.99999998245E-14  0.12509000000E+03  0.12509000000E+03 0.  0.
        -11    1    3    3    0    0 -0.17910201092E+02  0.22749858826E+02 -0.20219384187E+02  0.35315080022E+02  0.51100000000E-03 0.  1.
         23    2    1    0    0    0  0.18937876856E+02 -0.24301131193E+01  0.21449724923E+02  0.96373465932E+02  0.91995682545E+02 0.  0.
         11    1    3    3    0    0  0.36848077948E+02 -0.25179971946E+02  0.41669109110E+02  0.61058385910E+02  0.51100000000E-03 0. -1.
         22    1    1    0    0    0 -0.18937876856E+02  0.24301131193E+01 -0.21449724923E+02  0.28716534068E+02  0.00000000000E+00 0. -1.
</event>
<event>
 5    1  0.1055265E-009  0.9118800E+02  0.7815553E-02  0.1125453E+00
         25   -1    0    0    0    0  0.00000000000E+00  0.00000000000E+00  0.99999998245E-14  0.12509000000E+03  0.12509000000E+03 0.  0.
        -11    1    3    3    0    0 -0.37426589047E+02 -0.26825815874E+02 -0.27730262596E+02  0.53752594625E+02  0.51100000000E-03 0. -1.
         23    2    1    0    0    0 -0.24212856418E+02 -0.13261787124E+02  0.98047071556E+01  0.95793759694E+02  0.91204027873E+02 0.  0.
         11    1    3    3    0    0  0.13213732629E+02  0.13564028750E+02  0.37534969751E+02  0.42041165070E+02  0.51100000000E-03 0.  1.
         22    1    1    0    0    0  0.24212856418E+02  0.13261787124E+02 -0.98047071556E+01  0.29296240306E+02  0.00000000000E+00 0. -1.
</event>
<event>
 5    1  0.1055265E-009  0.9118800E+02  0.7815553E-02  0.1125453E+00
         25   -1    0    0    0    0  0.00000000000E+00  0.00000000000E+00  0.99999998245E-14  0.12509000000E+03  0.12509000000E+03 0.  0.
        -11    1    3    3    0    0 -0.79997525449E+01 -0.26569440143E+02 -0.45987224748E+02  0.53709924880E+02  0.51100000000E-03 0.  1.
         23    2    1    0    0    0 -0.31040138371E+01  0.11312537803E+02 -0.25423747496E+02  0.97090440179E+02  0.92965467911E+02 0.  0.
         11    1    3    3    0    0  0.48957387078E+01  0.37881977946E+02  0.20563477253E+02  0.43380515299E+02  0.51100000000E-03 0. -1.
         22    1    1    0    0    0  0.31040138371E+01 -0.11312537803E+02  0.25423747496E+02  0.27999559821E+02  0.00000000000E+00 0. -1.
</event>
<event>
 5    1  0.1055265E-009  0.9118800E+02  0.7815553E-02  0.1125453E+00
         25   -1    0    0    0    0  0.00000000000E+00  0.00000000000E+00  0.99999998245E-14  0.12509000000E+03  0.12509000000E+03 0.  0.
        -11    1    3    3    0    0  0.32345658497E+02 -0.12314121261E+02  0.37057118460E+02  0.50706106485E+02  0.51100000000E-03 0. -1.
         23    2    1    0    0    0  0.27143464574E+02  0.11366521509E+02 -0.78875636353E+00  0.95652139736E+02  0.91009583118E+02 0.  0.
         11    1    3    3    0    0 -0.52021939223E+01  0.23680642770E+02 -0.37845874824E+02  0.44946033251E+02  0.51100000000E-03 0.  1.
         22    1    1    0    0    0 -0.27143464574E+02 -0.11366521509E+02  0.78875636353E+00  0.29437860264E+02  0.00000000000E+00 0. -1.
</event>
<event>
 5    1  0.1055265E-009  0.9118800E+02  0.7815553E-02  0.1125453E+00
         25   -1    0    0    0    0  0.00000000000E+00  0.00000000000E+00  0.99999998245E-14  0.12509000000E+03  0.12509000000E+03 0.  0.
        -11    1    3    3    0    0 -0.96371275905E+01  0.23270393958E+02 -0.34717354016E+02  0.42891492551E+02  0.51100000000E-03 0.  1.
         23    2    1    0    0    0 -0.23227142996E+02 -0.18325009675E+02 -0.70089185950E+01  0.94685541590E+02  0.89671180961E+02 0.  0.
         11    1    3    3    0    0 -0.13590015405E+02 -0.41595403633E+02  0.27708435421E+02  0.51794049039E+02  0.51100000000E-03 0. -1.
         22    1    1    0    0    0  0.23227142996E+02  0.18325009675E+02  0.70089185950E+01  0.30404458410E+02  0.00000000000E+00 0. -1.
</event>
<event>
 5    1  0.1055265E-009  0.9118800E+02  0.7815553E-02  0.1125453E+00
         25   -1    0    0    0    0  0.00000000000E+00  0.00000000000E+00  0.99999998245E-14  0.12509000000E+03  0.12509000000E+03 0.  0.
        -11    1    3    3    0    0  0.64317356767E+01 -0.13279035155E+01 -0.58611649642E+02  0.58978436955E+02  0.51100000000E-03 0.  1.
         23    2    1    0    0    0 -0.40936920422E+01  0.12511676113E+02 -0.26780917735E+02  0.95248453317E+02  0.90453026212E+02 0.  0.
         11    1    3    3    0    0 -0.10525427719E+02  0.13839579628E+02  0.31830731907E+02  0.36270016363E+02  0.51100000000E-03 0. -1.
         22    1    1    0    0    0  0.40936920422E+01 -0.12511676113E+02  0.26780917735E+02  0.29841546683E+02  0.00000000000E+00 0.  1.
</event>
<event>
 5    1  0.1055265E-009  0.9118800E+02  0.7815553E-02  0.1125453E+00
         25   -1    0    0    0    0  0.00000000000E+00  0.00000000000E+00  0.99999998245E-14  0.12509000000E+03  0.12509000000E+03 0.  0.
        -11    1    3    3    0    0  0.14107559040E+02 -0.25752170998E+02 -0.23240367344E+02  0.37447459295E+02  0.51100000000E-03 0. -1.
         23    2    1    0    0    0 -0.32348264801E+01  0.27907564538E+02 -0.85822584241E+01  0.95713965202E+02  0.91094520770E+02 0.  0.
         11    1    3    3    0    0 -0.17342385520E+02  0.53659735535E+02  0.14658108920E+02  0.58266505907E+02  0.51100000000E-03 0.  1.
         22    1    1    0    0    0  0.32348264801E+01 -0.27907564538E+02  0.85822584241E+01  0.29376034798E+02  0.00000000000E+00 0.  1.
</event>
<event>
 5    1  0.1055265E-009  0.9118800E+02  0.7815553E-02  0.1125453E+00
         25   -1    0    0    0    0  0.00000000000E+00  0.00000000000E+00  0.99999998245E-14  0.12509000000E+03  0.12509000000E+03 0.  0.
        -11    1    3    3    0    0  0.15340837272E+02 -0.18724606532E+02 -0.48823043000E+02  0.54494419036E+02  0.51100000000E-03 0.  1.
         23    2    1    0    0    0  0.15271028436E+02 -0.24841072251E+02 -0.93069504460E+01  0.94481136795E+02  0.89385584427E+02 0.  0.
         11    1    3    3    0    0 -0.69808835516E-01 -0.61164657192E+01  0.39516092554E+02  0.39986717760E+02  0.51100000000E-03 0. -1.
         22    1    1    0    0    0 -0.15271028436E+02  0.24841072251E+02  0.93069504460E+01  0.30608863205E+02  0.00000000000E+00 0.  1.
</event>
<event>
 5    1  0.1055265E-009  0.9118800E+02  0.7815553E-02  0.1125453E+00
         25   -1    0    0    0    0  0.00000000000E+00  0.00000000000E+00  0.99999998245E-14  0.12509000000E+03  0.12509000000E+03 0.  0.
        -11    1    3    3    0    0  0.70321978347E+01  0.36621098666E+02  0.25356712589E+02  0.45094562283E+02  0.51100000000E-03 0. -1.
         23    2    1    0    0    0  0.28182526415E+02 -0.54940785642E+01  0.10684767426E+02  0.94453356102E+02  0.89346698482E+02 0.  0.
         11    1    3    3    0    0  0.21150328580E+02 -0.42115177230E+02 -0.14671945163E+02  0.49358793819E+02  0.51100000000E-03 0.  1.
         22    1    1    0    0    0 -0.28182526415E+02  0.54940785642E+01 -0.10684767426E+02  0.30636643898E+02  0.00000000000E+00 0.  1.
</event>
<event>
 5    1  0.1055265E-009  0.9118800E+02  0.7815553E-02  0.1125453E+00
         25   -1    0    0    0    0  0.00000000000E+00  0.00000000000E+00  0.99999998245E-14  0.12509000000E+03  0.12509000000E+03 0.  0.
        -11    1    3    3    0    0 -0.43515330321E+02 -0.16657836040E+02 -0.28468762796E+02  0.54603460786E+02  0.51100000000E-03 0. -1.
         23    2    1    0    0    0 -0.25010678557E+02  0.13190362741E+02 -0.63418123110E+01  0.96111761708E+02  0.91639142533E+02 0.  0.
         11    1    3    3    0    0  0.18504651764E+02  0.29848198781E+02  0.22126950484E+02  0.41508300922E+02  0.51100000000E-03 0.  1.
         22    1    1    0    0    0  0.25010678557E+02 -0.13190362741E+02  0.63418123110E+01  0.28978238292E+02  0.00000000000E+00 0.  1.
</event>
<event>
 5    1  0.1055265E-009  0.9118800E+02  0.7815553E-02  0.1125453E+00
         25   -1    0    0    0    0  0.00000000000E+00  0.00000000000E+00  0.99999998245E-14  0.12509000000E+03  0.12509000000E+03 0.  0.
        -11    1    3    3    0    0  0.86310638007E+01  0.45753896870E+02 -0.43751516483E+01  0.46765973670E+02  0.51100000000E-03 0.  1.
         23    2    1    0    0    0 -0.26175741424E+02  0.11536135746E+02 -0.69822709811E+01  0.95645068771E+02  0.90999863764E+02 0.  0.
         11    1    3    3    0    0 -0.34806805225E+02 -0.34217761124E+02 -0.26071193327E+01  0.48879095100E+02  0.51100000000E-03 0. -1.
         22    1    1    0    0    0  0.26175741424E+02 -0.11536135746E+02  0.69822709811E+01  0.29444931229E+02  0.00000000000E+00 0. -1.
</event>
<event>
 5    1  0.1055265E-009  0.9118800E+02  0.7815553E-02  0.1125453E+00
         25   -1    0    0    0    0  0.00000000000E+00  0.00000000000E+00  0.99999998245E-14  0.12509000000E+03  0.12509000000E+03 0.  0.
        -11    1    3    3    0    0 -0.23524294006E+02  0.28867611830E+02  0.45289506593E+02  0.58633359352E+02  0.51100000000E-03 0.  1.
         23    2    1    0    0    0 -0.83942431101E+01  0.24916234229E+02  0.10494617606E+02  0.96780654471E+02  0.92547696004E+02 0.  0.
         11    1    3    3    0    0  0.15130050896E+02 -0.39513776003E+01 -0.34794888987E+02  0.38147295119E+02  0.51100000000E-03 0. -1.
         22    1    1    0    0    0  0.83942431101E+01 -0.24916234229E+02 -0.10494617606E+02  0.28309345529E+02  0.00000000000E+00 0.  1.
</event>
<event>
 5    1  0.1055265E-009  0.9118800E+02  0.7815553E-02  0.1125453E+00
         25   -1    0    0    0    0  0.00000000000E+00  0.00000000000E+00  0.99999998245E-14  0.12509000000E+03  0.12509000000E+03 0.  0.
        -11    1    3    3    0    0 -0.14209796109E+02  0.20217526377E+01 -0.17539803439E+02  0.22663858765E+02  0.51100000000E-03 0. -1.
         23    2    1    0    0    0  0.23074651159E+02 -0.23373291953E+02  0.24333338854E+02  0.84213825000E+02  0.73628164710E+02 0.  0.
         11    1    3    3    0    0  0.37284447268E+02 -0.25395044591E+02  0.41873142293E+02  0.61549966235E+02  0.51100000000E-03 0.  1.
         22    1    1    0    0    0 -0.23074651159E+02  0.23373291953E+02 -0.24333338854E+02  0.40876175000E+02  0.00000000000E+00 0.  1.
</event>
<event>
 5    1  0.1055265E-009  0.9118800E+02  0.7815553E-02  0.1125453E+00
         25   -1    0    0    0    0  0.00000000000E+00  0.00000000000E+00  0.99999998245E-14  0.12509000000E+03  0.12509000000E+03 0.  0.
        -11    1    3    3    0    0 -0.32214855520E+02 -0.27147403111E+01 -0.84366417700E+01  0.33411729314E+02  0.51100000000E-03 0.  1.
         23    2    1    0    0    0  0.26616079616E+02  0.31658231226E+01  0.11662774553E+02  0.95858878905E+02  0.91293297807E+02 0.  0.
         11    1    3    3    0    0  0.58830935136E+02  0.58805634337E+01  0.20099416323E+02  0.62447149591E+02  0.51100000000E-03 0. -1.
         22    1    1    0    0    0 -0.26616079616E+02 -0.31658231226E+01 -0.11662774553E+02  0.29231121095E+02  0.00000000000E+00 0. -1.
</event>
<event>
 5    1  0.1055265E-009  0.9118800E+02  0.7815553E-02  0.1125453E+00
         25   -1    0    0    0    0  0.00000000000E+00  0.00000000000E+00  0.99999998245E-14  0.12509000000E+03  0.12509000000E+03 0.  0.
        -11    1    3    3    0    0 -0.30943708373E+02  0.29328499273E+02  0.33124549796E+02  0.53989904213E+02  0.51100000000E-03 0.  1.
         23    2    1    0    0    0 -0.27074870478E+02 -0.38958863200E+01  0.59249061352E+01  0.97101948008E+02  0.92980951020E+02 0.  0.
         11    1    3    3    0    0  0.38688378955E+01 -0.33224385593E+02 -0.27199643660E+02  0.43112043795E+02  0.51100000000E-03 0. -1.
         22    1    1    0    0    0  0.27074870478E+02  0.38958863200E+01 -0.59249061352E+01  0.27988051992E+02  0.00000000000E+00 0.  1.
</event>
<event>
 5    1  0.1055265E-009  0.9118800E+02  0.7815553E-02  0.1125453E+00
         25   -1    0    0    0    0  0.00000000000E+00  0.00000000000E+00  0.99999998245E-14  0.12509000000E+03  0.12509000000E+03 0.  0.
        -11    1    3    3    0    0 -0.21065406595E+02  0.39530013750E+02  0.41463790728E+02  0.61037851240E+02  0.51100000000E-03 0. -1.
         23    2    1    0    0    0 -0.14311733724E+02  0.15012000938E+02  0.29204783782E+02  0.89269540900E+02  0.81767631997E+02 0.  0.
         11    1    3    3    0    0  0.67536728706E+01 -0.24518012813E+02 -0.12259006946E+02  0.28231689661E+02  0.51100000000E-03 0.  1.
         22    1    1    0    0    0  0.14311733724E+02 -0.15012000938E+02 -0.29204783782E+02  0.35820459100E+02  0.00000000000E+00 0. -1.
</event>
<event>
 5    1  0.1055265E-009  0.9118800E+02  0.7815553E-02  0.1125453E+00
         25   -1    0    0    0    0  0.00000000000E+00  0.00000000000E+00  0.99999998245E-14  0.12509000000E+03  0.12509000000E+03 0.  0.
        -11    1    3    3    0    0  0.51049669606E+02  0.13607422594E+02 -0.29045015588E+02  0.60289664515E+02  0.51100000000E-03 0.  1.
         23    2    1    0    0    0  0.15408572617E+02  0.50951220641E+01 -0.22237548870E+02  0.97560144231E+02  0.93595345951E+02 0.  0.
         11    1    3    3    0    0 -0.35641096989E+02 -0.85123005295E+01  0.68074667185E+01  0.37270479716E+02  0.51100000000E-03 0. -1.
         22    1    1    0    0    0 -0.15408572617E+02 -0.50951220641E+01  0.22237548870E+02  0.27529855769E+02  0.00000000000E+00 0.  1.
</event>
<event>
 5    1  0.1055265E-009  0.9118800E+02  0.7815553E-02  0.1125453E+00
         25   -1    0    0    0    0  0.00000000000E+00  0.00000000000E+00  0.99999998245E-14  0.12509000000E+03  0.12509000000E+03 0.  0.
        -11    1    3    3    0    0  0.41589539694E+02  0.21766124128E+02  0.38251115420E+02  0.60552471483E+02  0.51100000000E-03 0. -1.
         23    2    1    0    0    0  0.18247673575E+02  0.11383976879E+02  0.31450363863E+02  0.86988846374E+02  0.78200776760E+02 0.  0.
         11    1    3    3    0    0 -0.23341866119E+02 -0.10382147249E+02 -0.68007515569E+01  0.26436374892E+02  0.51100000000E-03 0.  1.
         22    1    1    0    0    0 -0.18247673575E+02 -0.11383976879E+02 -0.31450363863E+02  0.38101153626E+02  0.00000000000E+00 0. -1.
</event>
<event>
 5    1  0.1055265E-009  0.9118800E+02  0.7815553E-02  0.1125453E+00
         25   -1    0    0    0    0  0.00000000000E+00  0.00000000000E+00  0.99999998245E-14  0.12509000000E+03  0.12509000000E+03 0.  0.
        -11    1    3    3    0    0 -0.17206195300E+02 -0.32092288780E+02  0.27150385307E+00  0.36414857825E+02  0.51100000000E-03 0.  1.
         23    2    1    0    0    0 -0.13180761846E+02  0.25357065262E+02  0.99833611148E+01  0.94818218739E+02  0.89856073051E+02 0.  0.
         11    1    3    3    0    0  0.40254334540E+01  0.57449354042E+02  0.97118572617E+01  0.58403360914E+02  0.51100000000E-03 0. -1.
         22    1    1    0    0    0  0.13180761846E+02 -0.25357065262E+02 -0.99833611148E+01  0.30271781261E+02  0.00000000000E+00 0. -1.
</event>
<event>
 5    1  0.1055265E-009  0.9118800E+02  0.7815553E-02  0.1125453E+00
         25   -1    0    0    0    0  0.00000000000E+00  0.00000000000E+00  0.99999998245E-14  0.12509000000E+03  0.12509000000E+03 0.  0.
        -11    1    3    3    0    0  0.42252448743E+02 -0.16474334335E+02  0.14252835741E+02  0.47537526687E+02  0.51100000000E-03 0. -1.
         23    2    1    0    0    0 -0.30789080525E+01 -0.28355877200E+02  0.11023856915E+02  0.94511235018E+02  0.89427695244E+02 0.  0.
         11    1    3    3    0    0 -0.45331356796E+02 -0.11881542864E+02 -0.32289788261E+01  0.46973708330E+02  0.51100000000E-03 0.  1.
         22    1    1    0    0    0  0.30789080525E+01  0.28355877200E+02 -0.11023856915E+02  0.30578764982E+02  0.00000000000E+00 0.  1.
</event>
<event>
 5    1  0.1055265E-009  0.9118800E+02  0.7815553E-02  0.1125453E+00
         25   -1    0    0    0    0  0.00000000000E+00  0.00000000000E+00  0.99999998245E-14  0.12509000000E+03  0.12509000000E+03 0.  0.
        -11    1    3    3    0    0  0.22975426731E+02  0.46355268542E+02  0.31030295198E+02  0.60328769052E+02  0.51100000000E-03 0. -1.
         23    2    1    0    0    0  0.69762622780E+01  0.26903352959E+02  0.44565014934E+01  0.96941837691E+02  0.92765299835E+02 0.  0.
         11    1    3    3    0    0 -0.15999164453E+02 -0.19451915583E+02 -0.26573793705E+02  0.36613068639E+02  0.51100000000E-03 0.  1.
         22    1    1    0    0    0 -0.69762622780E+01 -0.26903352959E+02 -0.44565014934E+01  0.28148162309E+02  0.00000000000E+00 0. -1.
</event>
<event>
 5    1  0.1055265E-009  0.9118800E+02  0.7815553E-02  0.1125453E+00
         25   -1    0    0    0    0  0.00000000000E+00  0.00000000000E+00  0.99999998245E-14  0.12509000000E+03  0.12509000000E+03 0.  0.
        -11    1    3    3    0    0  0.10149541768E+02 -0.20066499028E+02  0.30688337610E+02  0.38045389298E+02  0.51100000000E-03 0.  1.
         23    2    1    0    0    0 -0.20292246730E+02 -0.15138816499E+02 -0.16827119703E+02  0.94690805934E+02  0.89678524345E+02 0.  0.
         11    1    3    3    0    0 -0.30441788497E+02  0.49276825285E+01 -0.47515457313E+02  0.56645416636E+02  0.51100000000E-03 0. -1.
         22    1    1    0    0    0  0.20292246730E+02  0.15138816499E+02  0.16827119703E+02  0.30399194066E+02  0.00000000000E+00 0. -1.
</event>
<event>
 5    1  0.1055265E-009  0.9118800E+02  0.7815553E-02  0.1125453E+00
         25   -1    0    0    0    0  0.00000000000E+00  0.00000000000E+00  0.99999998245E-14  0.12509000000E+03  0.12509000000E+03 0.  0.
        -11    1    3    3    0    0  0.21641574732E+02  0.17495621394E+02  0.37496332751E+02  0.46695069278E+02  0.51100000000E-03 0. -1.
         23    2    1    0    0    0  0.19597326710E+02 -0.21538162768E+02  0.10785689785E+02  0.94037161583E+02  0.88762092049E+02 0.  0.
         11    1    3    3    0    0 -0.20442480216E+01 -0.39033784162E+02 -0.26710642966E+02  0.47342092306E+02  0.51100000000E-03 0.  1.
         22    1    1    0    0    0 -0.19597326710E+02  0.21538162768E+02 -0.10785689785E+02  0.31052838417E+02  0.00000000000E+00 0.  1.
</event>
<event>
 5    1  0.1055265E-009  0.9118800E+02  0.7815553E-02  0.1125453E+00
         25   -1    0    0    0    0  0.00000000000E+00  0.00000000000E+00  0.99999998245E-14  0.12509000000E+03  0.12509000000E+03 0.  0.
        -11    1    3    3    0    0 -0.38827685581E+02 -0.60717644549E+00  0.47041917405E+02  0.60999178882E+02  0.51100000000E-03 0.  1.
         23    2    1    0    0    0 -0.11041434887E+02 -0.57203658377E+01  0.26138591929E+02  0.96144156469E+02  0.91683351626E+02 0.  0.
         11    1    3    3    0    0  0.27786250694E+02 -0.51131893922E+01 -0.20903325476E+02  0.35144977587E+02  0.51100000000E-03 0. -1.
         22    1    1    0    0    0  0.11041434887E+02  0.57203658377E+01 -0.26138591929E+02  0.28945843531E+02  0.00000000000E+00 0.  1.
</event>
<event>
 5    1  0.1055265E-009  0.9118800E+02  0.7815553E-02  0.1125453E+00
         25   -1    0    0    0    0  0.00000000000E+00  0.00000000000E+00  0.99999998245E-14  0.12509000000E+03  0.12509000000E+03 0.  0.
        -11    1    3    3    0    0 -0.66254521214E+01 -0.86316467444E+01  0.57218409993E+02  0.58243869924E+02  0.51100000000E-03 0. -1.
         23    2    1    0    0    0 -0.18965615874E+02 -0.70552493649E+01  0.24102780317E+02  0.93619138110E+02  0.88171014922E+02 0.  0.
         11    1    3    3    0    0 -0.12340163752E+02  0.15763973795E+01 -0.33115629676E+02  0.35375268186E+02  0.51100000000E-03 0.  1.
         22    1    1    0    0    0  0.18965615874E+02  0.70552493649E+01 -0.24102780317E+02  0.31470861890E+02  0.00000000000E+00 0. -1.
</event>
<event>
 5    1  0.1055265E-009  0.9118800E+02  0.7815553E-02  0.1125453E+00
         25   -1    0    0    0    0  0.00000000000E+00  0.00000000000E+00  0.99999998245E-14  0.12509000000E+03  0.12509000000E+03 0.  0.
        -11    1    3    3    0    0  0.24710808026E+02 -0.39327801260E+02  0.31643088383E+02  0.56201290270E+02  0.51100000000E-03 0. -1.
         23    2    1    0    0    0 -0.59074943954E+01 -0.18006322872E+02  0.24377851633E+02  0.94212729984E+02  0.89009171929E+02 0.  0.
         11    1    3    3    0    0 -0.30618302422E+02  0.21321478388E+02 -0.72652367505E+01  0.38011439714E+02  0.51100000000E-03 0.  1.
         22    1    1    0    0    0  0.59074943954E+01  0.18006322872E+02 -0.24377851633E+02  0.30877270016E+02  0.00000000000E+00 0. -1.
</event>
<event>
 5    1  0.1055265E-009  0.9118800E+02  0.7815553E-02  0.1125453E+00
         25   -1    0    0    0    0  0.00000000000E+00  0.00000000000E+00  0.99999998245E-14  0.12509000000E+03  0.12509000000E+03 0.  0.
        -11    1    3    3    0    0  0.56763374925E+01 -0.29866465797E+02 -0.36102319423E+02  0.47197500511E+02  0.51100000000E-03 0.  1.
         23    2    1    0    0    0 -0.16186435774E+02  0.10980819153E+02 -0.22056657705E+02  0.95609917886E+02  0.90951531910E+02 0.  0.
         11    1    3    3    0    0 -0.21862773267E+02  0.40847284950E+02  0.14045661718E+02  0.48412417375E+02  0.51100000000E-03 0. -1.
         22    1    1    0    0    0  0.16186435774E+02 -0.10980819153E+02  0.22056657705E+02  0.29480082114E+02  0.00000000000E+00 0. -1.
</event>
<event>
 5    1  0.1055265E-009  0.9118800E+02  0.7815553E-02  0.1125453E+00
         25   -1    0    0    0    0  0.00000000000E+00  0.00000000000E+00  0.99999998245E-14  0.12509000000E+03  0.12509000000E+03 0.  0.
        -11    1    3    3    0    0  0.60957975856E+01 -0.28793858243E+02  0.34935649622E+02  0.45680900117E+02  0.51100000000E-03 0.  1.
         23    2    1    0    0    0 -0.20338993247E+02 -0.19311378173E+02 -0.70292091298E+01  0.96176097561E+02  0.91726920737E+02 0.  0.
         11    1    3    3    0    0 -0.26434790833E+02  0.94824800696E+01 -0.41964858752E+02  0.50495197444E+02  0.51100000000E-03 0. -1.
         22    1    1    0    0    0  0.20338993247E+02  0.19311378173E+02  0.70292091298E+01  0.28913902439E+02  0.00000000000E+00 0.  1.
</event>
<event>
 5    1  0.1055265E-009  0.9118800E+02  0.7815553E-02  0.1125453E+00
         25   -1    0    0    0    0  0.00000000000E+00  0.00000000000E+00  0.99999998245E-14  0.12509000000E+03  0.12509000000E+03 0.  0.
        -11    1    3    3    0    0  0.34469878662E+02  0.46762992184E+02  0.13811075756E+02  0.59713447286E+02  0.51100000000E-03 0.  1.
         23    2    1    0    0    0  0.23677344198E+02  0.10259813725E+02  0.45788277412E+01  0.98882251729E+02  0.95345968124E+02 0.  0.
         11    1    3    3    0    0 -0.10792534464E+02 -0.36503178460E+02 -0.92322480144E+01  0.39168804443E+02  0.51100000000E-03 0. -1.
         22    1    1    0    0    0 -0.23677344198E+02 -0.10259813725E+02 -0.45788277412E+01  0.26207748271E+02  0.00000000000E+00 0.  1.
</event>
<event>
 5    1  0.1055265E-009  0.9118800E+02  0.7815553E-02  0.1125453E+00
         25   -1    0    0    0    0  0.00000000000E+00  0.00000000000E+00  0.99999998245E-14  0.12509000000E+03  0.12509000000E+03 0.  0.
        -11    1    3    3    0    0  0.18991980585E+02  0.24448153631E+02 -0.23180927294E+02  0.38675094479E+02  0.51100000000E-03 0. -1.
         23    2    1    0    0    0 -0.92397887252E+01 -0.22359669603E+02 -0.20459271162E+02  0.93405456498E+02  0.87867337541E+02 0.  0.
         11    1    3    3    0    0 -0.28231769311E+02 -0.46807823234E+02  0.27216561320E+01  0.54730362019E+02  0.51100000000E-03 0.  1.
         22    1    1    0    0    0  0.92397887252E+01  0.22359669603E+02  0.20459271162E+02  0.31684543502E+02  0.00000000000E+00 0.  1.
</event>
<event>
 5    1  0.1055265E-009  0.9118800E+02  0.7815553E-02  0.1125453E+00
         25   -1    0    0    0    0  0.00000000000E+00  0.00000000000E+00  0.99999998245E-14  0.12509000000E+03  0.12509000000E+03 0.  0.
        -11    1    3    3    0    0  0.20598072055E+02 -0.13495403732E+02 -0.21584593968E+02  0.32746010311E+02  0.51100000000E-03 0. -1.
         23    2    1    0    0    0 -0.16076016947E+02  0.89659173419E+01  0.23623292673E+02  0.95141945783E+02  0.90305613867E+02 0.  0.
         11    1    3    3    0    0 -0.36674089002E+02  0.22461321074E+02  0.45207886642E+02  0.62395935472E+02  0.51100000000E-03 0.  1.
         22    1    1    0    0    0  0.16076016947E+02 -0.89659173419E+01 -0.23623292673E+02  0.29948054217E+02  0.00000000000E+00 0.  1.
</event>
<event>
 5    1  0.1055265E-009  0.9118800E+02  0.7815553E-02  0.1125453E+00
         25   -1    0    0    0    0  0.00000000000E+00  0.00000000000E+00  0.99999998245E-14  0.12509000000E+03  0.12509000000E+03 0.  0.
        -11    1    3    3    0    0 -0.24967993687E+02 -0.48681319619E+02  0.13328705944E+02  0.56310975760E+02  0.51100000000E-03 0.  1.
         23    2    1    0    0    0 -0.25359418227E+02 -0.90931153979E+01  0.11065060139E+02  0.95965776468E+02  0.91439651447E+02 0.  0.
         11    1    3    3    0    0 -0.39142454023E+00  0.39588204221E+02 -0.22636458051E+01  0.39654800708E+02  0.51100000000E-03 0. -1.
         22    1    1    0    0    0  0.25359418227E+02  0.90931153979E+01 -0.11065060139E+02  0.29124223532E+02  0.00000000000E+00 0.  1.
</event>
<event>
 4    1  0.1055265E-009  0.9118800E+02  0.7815553E-02  0.1125453E+00
         25   -1    0    0    0    0  0.00000000000E+00  0.00000000000E+00  0.99999998245E-14  0.12509000000E+03  0.12509000000E+03 0.  0.
        -11    1    1    0    0    0  0.27526007757E+01 -0.14045007440E+02 -0.15948269784E+01  0.14400781867E+02  0.51100000000E-03 0.  1.
         11    1    1    0    0    0  0.59730004562E+00 -0.19805970144E+02  0.48705159963E+02  0.52581611120E+02  0.51100000000E-03 0. -1.
         22    1    1    0    0    0 -0.33499008213E+01  0.33850977585E+02 -0.47110332984E+02  0.58107607013E+02  0.00000000000E+00 0. -1.
</event>
<event>
 5    1  0.1055265E-009  0.9118800E+02  0.7815553E-02  0.1125453E+00
         25   -1    0    0    0    0  0.00000000000E+00  0.00000000000E+00  0.99999998245E-14  0.12509000000E+03  0.12509000000E+03 0.  0.
        -11    1    3    3    0    0  0.26580936186E+02  0.26535178558E+02 -0.24671877632E+01  0.37639724831E+02  0.51100000000E-03 0. -1.
         23    2    1    0    0    0 -0.27631144812E+02  0.87325820381E+01 -0.81639088668E+01  0.94983728881E+02  0.90086187574E+02 0.  0.
         11    1    3    3    0    0 -0.54212080998E+02 -0.17802596520E+02 -0.56967211035E+01  0.57344004051E+02  0.51100000000E-03 0.  1.
         22    1    1    0    0    0  0.27631144812E+02 -0.87325820381E+01  0.81639088668E+01  0.30106271119E+02  0.00000000000E+00 0.  1.
</event>
<event>
 5    1  0.1055265E-009  0.9118800E+02  0.7815553E-02  0.1125453E+00
         25   -1    0    0    0    0  0.00000000000E+00  0.00000000000E+00  0.99999998245E-14  0.12509000000E+03  0.12509000000E+03 0.  0.
        -11    1    3    3    0    0 -0.54803210999E+02 -0.86429543706E+00  0.78300472081E+00  0.54815618568E+02  0.51100000000E-03 0. -1.
         23    2    1    0    0    0 -0.17303851492E+02 -0.21382564992E+02  0.10655331383E+01  0.97562328050E+02  0.93598264576E+02 0.  0.
         11    1    3    3    0    0  0.37499359507E+02 -0.20518269555E+02  0.28252841753E+00  0.42746709482E+02  0.51100000000E-03 0.  1.
         22    1    1    0    0    0  0.17303851492E+02  0.21382564992E+02 -0.10655331383E+01  0.27527671950E+02  0.00000000000E+00 0.  1.
</event>
<event>
 5    1  0.1055265E-009  0.9118800E+02  0.7815553E-02  0.1125453E+00
         25   -1    0    0    0    0  0.00000000000E+00  0.00000000000E+00  0.99999998245E-14  0.12509000000E+03  0.12509000000E+03 0.  0.
        -11    1    3    3    0    0  0.26252798721E+02  0.44755156272E+02 -0.41521926494E+01  0.52052609518E+02  0.51100000000E-03 0. -1.
         23    2    1    0    0    0  0.26652788473E+02  0.16431200026E+01 -0.11896472855E+02  0.95856508195E+02  0.91290049404E+02 0.  0.
         11    1    3    3    0    0  0.39998975230E+00 -0.43112036269E+02 -0.77442802055E+01  0.43803898677E+02  0.51100000000E-03 0.  1.
         22    1    1    0    0    0 -0.26652788473E+02 -0.16431200026E+01  0.11896472855E+02  0.29233491805E+02  0.00000000000E+00 0. -1.
</event>
<event>
 5    1  0.1055265E-009  0.9118800E+02  0.7815553E-02  0.1125453E+00
         25   -1    0    0    0    0  0.00000000000E+00  0.00000000000E+00  0.99999998245E-14  0.12509000000E+03  0.12509000000E+03 0.  0.
        -11    1    3    3    0    0 -0.43221735437E+02  0.36552197315E+02  0.60899935611E+01  0.56932148779E+02  0.51100000000E-03 0. -1.
         23    2    1    0    0    0 -0.19448321835E+02  0.90157093987E+01  0.19896451805E+02  0.95842965405E+02  0.91271490539E+02 0.  0.
         11    1    3    3    0    0  0.23773413601E+02 -0.27536487917E+02  0.13806458243E+02  0.38910816627E+02  0.51100000000E-03 0.  1.
         22    1    1    0    0    0  0.19448321835E+02 -0.90157093987E+01 -0.19896451805E+02  0.29247034595E+02  0.00000000000E+00 0. -1.
</event>
<event>
 5    1  0.1055265E-009  0.9118800E+02  0.7815553E-02  0.1125453E+00
         25   -1    0    0    0    0  0.00000000000E+00  0.00000000000E+00  0.99999998245E-14  0.12509000000E+03  0.12509000000E+03 0.  0.
        -11    1    3    3    0    0  0.13283830664E+02  0.51331145555E+02 -0.16071537523E+02  0.55404340802E+02  0.51100000000E-03 0.  1.
         23    2    1    0    0    0 -0.13066306310E+02  0.20889120245E+02 -0.16082748021E+02  0.95666565648E+02  0.91029408950E+02 0.  0.
         11    1    3    3    0    0 -0.26350136974E+02 -0.30442025311E+02 -0.11210498229E-01  0.40262224845E+02  0.51100000000E-03 0. -1.
         22    1    1    0    0    0  0.13066306310E+02 -0.20889120245E+02  0.16082748021E+02  0.29423434352E+02  0.00000000000E+00 0.  1.
</event>
<event>
 5    1  0.1055265E-009  0.9118800E+02  0.7815553E-02  0.1125453E+00
         25   -1    0    0    0    0  0.00000000000E+00  0.00000000000E+00  0.99999998245E-14  0.12509000000E+03  0.12509000000E+03 0.  0.
        -11    1    3    3    0    0  0.12270815611E+02  0.25296849758E+02  0.44245014963E+02  0.52422560723E+02  0.51100000000E-03 0. -1.
         23    2    1    0    0    0 -0.15758640397E+02 -0.17515440996E+01  0.24010127726E+02  0.96316941641E+02  0.91918792201E+02 0.  0.
         11    1    3    3    0    0 -0.28029456008E+02 -0.27048393857E+02 -0.20234887237E+02  0.43894380918E+02  0.51100000000E-03 0.  1.
         22    1    1    0    0    0  0.15758640397E+02  0.17515440996E+01 -0.24010127726E+02  0.28773058359E+02  0.00000000000E+00 0.  1.
</event>
<event>
 5    1  0.1055265E-009  0.9118800E+02  0.7815553E-02  0.1125453E+00
         25   -1    0    0    0    0  0.00000000000E+00  0.00000000000E+00  0.99999998245E-14  0.12509000000E+03  0.12509000000E+03 0.  0.
        -11    1    3    3    0    0 -0.27143525435E+02  0.72738418170E+01 -0.21914386977E+02  0.35635938386E+02  0.51100000000E-03 0.  1.
         23    2    1    0    0    0  0.21811286664E+02  0.21788102631E+02  0.57792135957E+01  0.93723569665E+02  0.88319049807E+02 0.  0.
         11    1    3    3    0    0  0.48954812099E+02  0.14514260814E+02  0.27693600573E+02  0.58087631279E+02  0.51100000000E-03 0. -1.
         22    1    1    0    0    0 -0.21811286664E+02 -0.21788102631E+02 -0.57792135957E+01  0.31366430335E+02  0.00000000000E+00 0. -1.
</event>
<event>
 5    1  0.1055265E-009  0.9118800E+02  0.7815553E-02  0.1125453E+00
         25   -1    0    0    0    0  0.00000000000E+00  0.00000000000E+00  0.99999998245E-14  0.12509000000E+03  0.12509000000E+03 0.  0.
        -11    1    3    3    0    0 -0.56989263151E+02  0.77772849897E+01  0.52805572901E+01  0.57759385055E+02  0.51100000000E-03 0.  1.
         23    2    1    0    0    0 -0.25334391894E+02 -0.61868123870E+01 -0.11941821715E+02  0.96406988198E+02  0.92041252748E+02 0.  0.
         11    1    3    3    0    0  0.31654871257E+02 -0.13964097377E+02 -0.17222379005E+02  0.38647603143E+02  0.51100000000E-03 0. -1.
         22    1    1    0    0    0  0.25334391894E+02  0.61868123870E+01  0.11941821715E+02  0.28683011802E+02  0.00000000000E+00 0.  1.
</event>
<event>
 5    1  0.1055265E-009  0.9118800E+02  0.7815553E-02  0.1125453E+00
         25   -1    0    0    0    0  0.00000000000E+00  0.00000000000E+00  0.99999998245E-14  0.12509000000E+03  0.12509000000E+03 0.  0.
        -11    1    3    3    0    0 -0.37832268788E+02  0.36105969372E+02 -0.16399979147E+02  0.54807671928E+02  0.51100000000E-03 0. -1.
         23    2    1    0    0    0 -0.33017064256E+02  0.72311852544E+01  0.47995683303E+01  0.90951276702E+02  0.84301140593E+02 0.  0.
         11    1    3    3    0    0  0.48152045317E+01 -0.28874784117E+02  0.21199547478E+02  0.36143604773E+02  0.51100000000E-03 0.  1.
         22    1    1    0    0    0  0.33017064256E+02 -0.72311852544E+01 -0.47995683303E+01  0.34138723298E+02  0.00000000000E+00 0. -1.
</event>
<event>
 5    1  0.1055265E-009  0.9118800E+02  0.7815553E-02  0.1125453E+00
         25   -1    0    0    0    0  0.00000000000E+00  0.00000000000E+00  0.99999998245E-14  0.12509000000E+03  0.12509000000E+03 0.  0.
        -11    1    3    3    0    0  0.59122650411E+02  0.12044419172E+02  0.79753761947E+01  0.60861830818E+02  0.51100000000E-03 0. -1.
         23    2    1    0    0    0  0.26414580040E+02  0.32390496875E+01  0.13609079021E+02  0.95199725438E+02  0.90385613956E+02 0.  0.
         11    1    3    3    0    0 -0.32708070371E+02 -0.88053694841E+01  0.56337028262E+01  0.34337894620E+02  0.51100000000E-03 0.  1.
         22    1    1    0    0    0 -0.26414580040E+02 -0.32390496875E+01 -0.13609079021E+02  0.29890274562E+02  0.00000000000E+00 0. -1.
</event>
<event>
 5    1  0.1055265E-009  0.9118800E+02  0.7815553E-02  0.1125453E+00
         25   -1    0    0    0    0  0.00000000000E+00  0.00000000000E+00  0.99999998245E-14  0.12509000000E+03  0.12509000000E+03 0.  0.
        -11    1    3    3    0    0 -0.29153414982E+02  0.60105408922E+00  0.17656804342E+02  0.34088790107E+02  0.51100000000E-03 0. -1.
         23    2    1    0    0    0  0.18145484212E+02 -0.59115199287E+01 -0.21864050486E+02  0.96068604982E+02  0.91580213443E+02 0.  0.
         11    1    3    3    0    0  0.47298899194E+02 -0.65125740179E+01 -0.39520854828E+02  0.61979814875E+02  0.51100000000E-03 0.  1.
         22    1    1    0    0    0 -0.18145484212E+02  0.59115199287E+01  0.21864050486E+02  0.29021395018E+02  0.00000000000E+00 0.  1.
</event>
<event>
 5    1  0.1055265E-009  0.9118800E+02  0.7815553E-02  0.1125453E+00
         25   -1    0    0    0    0  0.00000000000E+00  0.00000000000E+00  0.99999998245E-14  0.12509000000E+03  0.12509000000E+03 0.  0.
        -11    1    3    3    0    0  0.22894657417E-03  0.29977076718E+02  0.35219149852E+02  0.46249471837E+02  0.51100000000E-03 0.  1.
         23    2    1    0    0    0  0.95081188478E+01  0.22837348108E+02 -0.13850334818E+02  0.96738975906E+02  0.92491344958E+02 0.  0.
         11    1    3    3    0    0  0.95078899012E+01 -0.71397286108E+01 -0.49069484670E+02  0.50489504069E+02  0.51100000000E-03 0. -1.
         22    1    1    0    0    0 -0.95081188478E+01 -0.22837348108E+02  0.13850334818E+02  0.28351024094E+02  0.00000000000E+00 0.  1.
</event>
<event>
 5    1  0.1055265E-009  0.9118800E+02  0.7815553E-02  0.1125453E+00
         25   -1    0    0    0    0  0.00000000000E+00  0.00000000000E+00  0.99999998245E-14  0.12509000000E+03  0.12509000000E+03 0.  0.
        -11    1    3    3    0    0  0.35636080534E+02  0.28976114780E+01 -0.12075213280E+02  0.37737741905E+02  0.51100000000E-03 0.  1.
         23    2    1    0    0    0 -0.10386508328E+02 -0.24682671669E+02  0.10995412165E+02  0.96141547112E+02  0.91679791429E+02 0.  0.
         11    1    3    3    0    0 -0.46022588861E+02 -0.27580283147E+02  0.23070625445E+02  0.58403805207E+02  0.51100000000E-03 0. -1.
         22    1    1    0    0    0  0.10386508328E+02  0.24682671669E+02 -0.10995412165E+02  0.28948452888E+02  0.00000000000E+00 0. -1.
</event>
<event>
 5    1  0.1055265E-009  0.9118800E+02  0.7815553E-02  0.1125453E+00
         25   -1    0    0    0    0  0.00000000000E+00  0.00000000000E+00  0.99999998245E-14  0.12509000000E+03  0.12509000000E+03 0.  0.
        -11    1    3    3    0    0 -0.34385381258E+02 -0.22808512862E+02  0.19372665772E+02  0.45583800660E+02  0.51100000000E-03 0. -1.
         23    2    1    0    0    0  0.12377793748E+02 -0.12537627092E+01  0.24783512492E+02  0.97359075197E+02  0.93326230679E+02 0.  0.
         11    1    3    3    0    0  0.46763175006E+02  0.21554750153E+02  0.54108467205E+01  0.51775274536E+02  0.51100000000E-03 0.  1.
         22    1    1    0    0    0 -0.12377793748E+02  0.12537627092E+01 -0.24783512492E+02  0.27730924803E+02  0.00000000000E+00 0. -1.
</event>
<event>
 5    1  0.1055265E-009  0.9118800E+02  0.7815553E-02  0.1125453E+00
         25   -1    0    0    0    0  0.00000000000E+00  0.00000000000E+00  0.99999998245E-14  0.12509000000E+03  0.12509000000E+03 0.  0.
        -11    1    3    3    0    0  0.29060067975E+02  0.11127676847E+02 -0.43467181539E+02  0.53457540291E+02  0.51100000000E-03 0.  1.
         23    2    1    0    0    0  0.23903523895E+01  0.25329293962E+02 -0.12427689579E+02  0.96775085460E+02  0.92540168469E+02 0.  0.
         11    1    3    3    0    0 -0.26669715586E+02  0.14201617115E+02  0.31039491960E+02  0.43317545169E+02  0.51100000000E-03 0. -1.
         22    1    1    0    0    0 -0.23903523895E+01 -0.25329293962E+02  0.12427689579E+02  0.28314914540E+02  0.00000000000E+00 0. -1.
</event>
<event>
 5    1  0.1055265E-009  0.9118800E+02  0.7815553E-02  0.1125453E+00
         25   -1    0    0    0    0  0.00000000000E+00  0.00000000000E+00  0.99999998245E-14  0.12509000000E+03  0.12509000000E+03 0.  0.
        -11    1    3    3    0    0  0.19517027278E+02  0.26739819738E+02  0.23034046942E+02  0.40329885100E+02  0.51100000000E-03 0.  1.
         23    2    1    0    0    0  0.17455685393E+02 -0.22194755760E+01 -0.23835598415E+02  0.95462938448E+02  0.90749158900E+02 0.  0.
         11    1    3    3    0    0 -0.20613418850E+01 -0.28959295314E+02 -0.46869645357E+02  0.55133053349E+02  0.51100000000E-03 0. -1.
         22    1    1    0    0    0 -0.17455685393E+02  0.22194755760E+01  0.23835598415E+02  0.29627061552E+02  0.00000000000E+00 0. -1.
</event>
<event>
 5    1  0.1055265E-009  0.9118800E+02  0.7815553E-02  0.1125453E+00
         25   -1    0    0    0    0  0.00000000000E+00  0.00000000000E+00  0.99999998245E-14  0.12509000000E+03  0.12509000000E+03 0.  0.
        -11    1    3    3    0    0  0.34215775341E+02  0.36474022191E+02 -0.33661009825E+02  0.60283805119E+02  0.51100000000E-03 0.  1.
         23    2    1    0    0    0  0.23531300536E+02  0.78241982971E+01 -0.15422561189E+02  0.95887336123E+02  0.91332281539E+02 0.  0.
         11    1    3    3    0    0 -0.10684474804E+02 -0.28649823894E+02  0.18238448636E+02  0.35603531004E+02  0.51100000000E-03 0. -1.
         22    1    1    0    0    0 -0.23531300536E+02 -0.78241982971E+01  0.15422561189E+02  0.29202663877E+02  0.00000000000E+00 0.  1.
</event>
<event>
 5    1  0.1055265E-009  0.9118800E+02  0.7815553E-02  0.1125453E+00
         25   -1    0    0    0    0  0.00000000000E+00  0.00000000000E+00  0.99999998245E-14  0.12509000000E+03  0.12509000000E+03 0.  0.
        -11    1    3    3    0    0  0.52783327535E+02  0.48119978617E+01  0.29544614893E+02  0.60680468509E+02  0.51100000000E-03 0.  1.
         23    2    1    0    0    0  0.17607822567E+02  0.10589774036E+01  0.22070267823E+02  0.96836618425E+02  0.92623307528E+02 0.  0.
         11    1    3    3    0    0 -0.35175504968E+02 -0.37530204580E+01 -0.74743470704E+01  0.36156149915E+02  0.51100000000E-03 0. -1.
         22    1    1    0    0    0 -0.17607822567E+02 -0.10589774036E+01 -0.22070267823E+02  0.28253381575E+02  0.00000000000E+00 0.  1.
</event>
<event>
 5    1  0.1055265E-009  0.9118800E+02  0.7815553E-02  0.1125453E+00
         25   -1    0    0    0    0  0.00000000000E+00  0.00000000000E+00  0.99999998245E-14  0.12509000000E+03  0.12509000000E+03 0.  0.
        -11    1    3    3    0    0 -0.35626922672E+02 -0.40102568195E+02  0.18815583369E+02  0.56846457872E+02  0.51100000000E-03 0. -1.
         23    2    1    0    0    0 -0.97824367273E+01 -0.26502096291E+02 -0.71768537291E+01  0.95942711865E+02  0.91408093484E+02 0.  0.
         11    1    3    3    0    0  0.25844485945E+02  0.13600471903E+02 -0.25992437098E+02  0.39096253993E+02  0.51100000000E-03 0.  1.
         22    1    1    0    0    0  0.97824367273E+01  0.26502096291E+02  0.71768537291E+01  0.29147288135E+02  0.00000000000E+00 0. -1.
</event>
<event>
 5    1  0.1055265E-009  0.9118800E+02  0.7815553E-02  0.1125453E+00
         25   -1    0    0    0    0  0.00000000000E+00  0.00000000000E+00  0.99999998245E-14  0.12509000000E+03  0.12509000000E+03 0.  0.
        -11    1    3    3    0    0  0.21658518560E+02  0.16356892951E+02 -0.27364581351E+02  0.38541661693E+02  0.51100000000E-03 0.  1.
         23    2    1    0    0    0 -0.20280080916E+02 -0.18254929729E+02 -0.13443468336E+02  0.94672061505E+02  0.89652374466E+02 0.  0.
         11    1    3    3    0    0 -0.41938599476E+02 -0.34611822680E+02  0.13921113015E+02  0.56130399813E+02  0.51100000000E-03 0. -1.
         22    1    1    0    0    0  0.20280080916E+02  0.18254929729E+02  0.13443468336E+02  0.30417938495E+02  0.00000000000E+00 0. -1.
</event>
<event>
 5    1  0.1055265E-009  0.9118800E+02  0.7815553E-02  0.1125453E+00
         25   -1    0    0    0    0  0.00000000000E+00  0.00000000000E+00  0.99999998245E-14  0.12509000000E+03  0.12509000000E+03 0.  0.
        -11    1    3    3    0    0  0.47564391137E+02  0.22589254478E+02  0.27987059341E+02  0.59631545452E+02  0.51100000000E-03 0. -1.
         23    2    1    0    0    0  0.12383886274E+02  0.13510413792E+02  0.22002697595E+02  0.96454172414E+02  0.92105356818E+02 0.  0.
         11    1    3    3    0    0 -0.35180504863E+02 -0.90788406860E+01 -0.59843617469E+01  0.36822626962E+02  0.51100000000E-03 0.  1.
         22    1    1    0    0    0 -0.12383886274E+02 -0.13510413792E+02 -0.22002697595E+02  0.28635827586E+02  0.00000000000E+00 0. -1.
</event>
<event>
 5    1  0.1055265E-009  0.9118800E+02  0.7815553E-02  0.1125453E+00
         25   -1    0    0    0    0  0.00000000000E+00  0.00000000000E+00  0.99999998245E-14  0.12509000000E+03  0.12509000000E+03 0.  0.
        -11    1    3    3    0    0 -0.12692255598E+02 -0.49443897549E+02 -0.12242648523E+02  0.52494521620E+02  0.51100000000E-03 0. -1.
         23    2    1    0    0    0 -0.27486477622E+02 -0.98474815982E+01 -0.67793627209E+01  0.95116026209E+02  0.90269703318E+02 0.  0.
         11    1    3    3    0    0 -0.14794222024E+02  0.39596415951E+02  0.54632858023E+01  0.42621504589E+02  0.51100000000E-03 0.  1.
         22    1    1    0    0    0  0.27486477622E+02  0.98474815982E+01  0.67793627209E+01  0.29973973791E+02  0.00000000000E+00 0. -1.
</event>
<event>
 5    1  0.1055265E-009  0.9118800E+02  0.7815553E-02  0.1125453E+00
         25   -1    0    0    0    0  0.00000000000E+00  0.00000000000E+00  0.99999998245E-14  0.12509000000E+03  0.12509000000E+03 0.  0.
        -11    1    3    3    0    0 -0.20228084194E+02  0.41115393262E+01  0.53280788596E+02  0.57139501043E+02  0.51100000000E-03 0.  1.
         23    2    1    0    0    0 -0.87426152183E+01  0.19545774748E+02  0.18934286968E+02  0.96507175535E+02  0.92177313236E+02 0.  0.
         11    1    3    3    0    0  0.11485468976E+02  0.15434235422E+02 -0.34346501627E+02  0.39367674493E+02  0.51100000000E-03 0. -1.
         22    1    1    0    0    0  0.87426152183E+01 -0.19545774748E+02 -0.18934286968E+02  0.28582824465E+02  0.00000000000E+00 0.  1.
</event>
<event>
 5    1  0.1055265E-009  0.9118800E+02  0.7815553E-02  0.1125453E+00
         25   -1    0    0    0    0  0.00000000000E+00  0.00000000000E+00  0.99999998245E-14  0.12509000000E+03  0.12509000000E+03 0.  0.
        -11    1    3    3    0    0 -0.17095117633E+02 -0.27389155945E+02  0.45733995585E+02  0.55982204875E+02  0.51100000000E-03 0.  1.
         23    2    1    0    0    0 -0.28493017263E+00 -0.27660237088E+02  0.96452467435E+01  0.95794937520E+02  0.91205643295E+02 0.  0.
         11    1    3    3    0    0  0.16810187460E+02 -0.27108114248E+00 -0.36088748842E+02  0.39812732645E+02  0.51100000000E-03 0. -1.
         22    1    1    0    0    0  0.28493017263E+00  0.27660237088E+02 -0.96452467435E+01  0.29295062480E+02  0.00000000000E+00 0.  1.
</event>
<event>
 5    1  0.1055265E-009  0.9118800E+02  0.7815553E-02  0.1125453E+00
         25   -1    0    0    0    0  0.00000000000E+00  0.00000000000E+00  0.99999998245E-14  0.12509000000E+03  0.12509000000E+03 0.  0.
        -11    1    3    3    0    0  0.36696674639E+02 -0.74406089279E+01  0.28799507090E+02  0.47237910620E+02  0.51100000000E-03 0. -1.
         23    2    1    0    0    0 -0.10211035639E+02  0.19115069431E+01  0.28161985158E+02  0.95073062854E+02  0.90210147793E+02 0.  0.
         11    1    3    3    0    0 -0.46907710278E+02  0.93521158710E+01 -0.63752193250E+00  0.47835152234E+02  0.51100000000E-03 0.  1.
         22    1    1    0    0    0  0.10211035639E+02 -0.19115069431E+01 -0.28161985158E+02  0.30016937146E+02  0.00000000000E+00 0.  1.
</event>
<event>
 5    1  0.1055265E-009  0.9118800E+02  0.7815553E-02  0.1125453E+00
         25   -1    0    0    0    0  0.00000000000E+00  0.00000000000E+00  0.99999998245E-14  0.12509000000E+03  0.12509000000E+03 0.  0.
        -11    1    3    3    0    0  0.22868341028E+02  0.45772353082E+02  0.27226268624E+01  0.51239457699E+02  0.51100000000E-03 0.  1.
         23    2    1    0    0    0 -0.14725808206E+02  0.22921549170E+02  0.10456342725E+02  0.95908122972E+02  0.91360747070E+02 0.  0.
         11    1    3    3    0    0 -0.37594149233E+02 -0.22850803912E+02  0.77337158627E+01  0.44668665273E+02  0.51100000000E-03 0. -1.
         22    1    1    0    0    0  0.14725808206E+02 -0.22921549170E+02 -0.10456342725E+02  0.29181877028E+02  0.00000000000E+00 0. -1.
</event>
<event>
 5    1  0.1055265E-009  0.9118800E+02  0.7815553E-02  0.1125453E+00
         25   -1    0    0    0    0  0.00000000000E+00  0.00000000000E+00  0.99999998245E-14  0.12509000000E+03  0.12509000000E+03 0.  0.
        -11    1    3    3    0    0 -0.70072985187E+01  0.32664143506E+02 -0.82793188802E+01  0.34417954979E+02  0.51100000000E-03 0. -1.
         23    2    1    0    0    0 -0.74705191191E+01 -0.82095471661E+01  0.31643890407E+02  0.91555821604E+02  0.85193470108E+02 0.  0.
         11    1    3    3    0    0 -0.46322060039E+00 -0.40873690672E+02  0.39923209287E+02  0.57137866626E+02  0.51100000000E-03 0.  1.
         22    1    1    0    0    0  0.74705191191E+01  0.82095471661E+01 -0.31643890407E+02  0.33534178396E+02  0.00000000000E+00 0. -1.
</event>
<event>
 5    1  0.1055265E-009  0.9118800E+02  0.7815553E-02  0.1125453E+00
         25   -1    0    0    0    0  0.00000000000E+00  0.00000000000E+00  0.99999998245E-14  0.12509000000E+03  0.12509000000E+03 0.  0.
        -11    1    3    3    0    0  0.19926606227E+02  0.10154063282E+02  0.30643436553E+02  0.37936721536E+02  0.51100000000E-03 0. -1.
         23    2    1    0    0    0 -0.53672832828E+01 -0.24174601246E+02 -0.11408637530E+02  0.97825075912E+02  0.93948759394E+02 0.  0.
         11    1    3    3    0    0 -0.25293889510E+02 -0.34328664528E+02 -0.42052074084E+02  0.59888354376E+02  0.51100000000E-03 0.  1.
         22    1    1    0    0    0  0.53672832828E+01  0.24174601246E+02  0.11408637530E+02  0.27264924088E+02  0.00000000000E+00 0.  1.
</event>
<event>
 5    1  0.1055265E-009  0.9118800E+02  0.7815553E-02  0.1125453E+00
         25   -1    0    0    0    0  0.00000000000E+00  0.00000000000E+00  0.99999998245E-14  0.12509000000E+03  0.12509000000E+03 0.  0.
        -11    1    3    3    0    0  0.35481752904E+01 -0.21349253916E+02  0.31490862708E+02  0.38210661143E+02  0.51100000000E-03 0.  1.
         23    2    1    0    0    0 -0.21597961937E+02  0.28680583980E+01 -0.16643622159E+02  0.97672708424E+02  0.93745667065E+02 0.  0.
         11    1    3    3    0    0 -0.25146137227E+02  0.24217312314E+02 -0.48134484867E+02  0.59462047281E+02  0.51100000000E-03 0. -1.
         22    1    1    0    0    0  0.21597961937E+02 -0.28680583980E+01  0.16643622159E+02  0.27417291576E+02  0.00000000000E+00 0. -1.
</event>
<event>
 5    1  0.1055265E-009  0.9118800E+02  0.7815553E-02  0.1125453E+00
         25   -1    0    0    0    0  0.00000000000E+00  0.00000000000E+00  0.99999998245E-14  0.12509000000E+03  0.12509000000E+03 0.  0.
        -11    1    3    3    0    0 -0.18463642648E+02 -0.13718995165E+02 -0.35410985390E+02  0.42226233727E+02  0.51100000000E-03 0.  1.
         23    2    1    0    0    0  0.27017198877E+02 -0.77463481063E+01 -0.72058184794E+01  0.96075197500E+02  0.91589217763E+02 0.  0.
         11    1    3    3    0    0  0.45480841525E+02  0.59726470583E+01  0.28205166911E+02  0.53848963773E+02  0.51100000000E-03 0. -1.
         22    1    1    0    0    0 -0.27017198877E+02  0.77463481063E+01  0.72058184794E+01  0.29014802500E+02  0.00000000000E+00 0. -1.
</event>
<event>
 5    1  0.1055265E-009  0.9118800E+02  0.7815553E-02  0.1125453E+00
         25   -1    0    0    0    0  0.00000000000E+00  0.00000000000E+00  0.99999998245E-14  0.12509000000E+03  0.12509000000E+03 0.  0.
        -11    1    3    3    0    0  0.32803548840E+02 -0.20541316122E+02 -0.46605138752E+02  0.60580999025E+02  0.51100000000E-03 0. -1.
         23    2    1    0    0    0  0.89977949947E+01 -0.23645341838E+01 -0.27381628181E+02  0.96171063323E+02  0.91720055180E+02 0.  0.
         11    1    3    3    0    0 -0.23805753846E+02  0.18176781938E+02  0.19223510571E+02  0.35590064298E+02  0.51100000000E-03 0.  1.
         22    1    1    0    0    0 -0.89977949947E+01  0.23645341838E+01  0.27381628181E+02  0.28918936677E+02  0.00000000000E+00 0. -1.
</event>
<event>
 5    1  0.1055265E-009  0.9118800E+02  0.7815553E-02  0.1125453E+00
         25   -1    0    0    0    0  0.00000000000E+00  0.00000000000E+00  0.99999998245E-14  0.12509000000E+03  0.12509000000E+03 0.  0.
        -11    1    3    3    0    0 -0.48928426550E+02  0.22021885126E+02  0.30541103905E+02  0.61739074962E+02  0.51100000000E-03 0. -1.
         23    2    1    0    0    0 -0.23114487666E+02  0.36087894762E+01  0.16754809814E+02  0.96314549465E+02  0.91915536691E+02 0.  0.
         11    1    3    3    0    0  0.25813938884E+02 -0.18413095650E+02 -0.13786294090E+02  0.34575474503E+02  0.51100000000E-03 0.  1.
         22    1    1    0    0    0  0.23114487666E+02 -0.36087894762E+01 -0.16754809814E+02  0.28775450535E+02  0.00000000000E+00 0. -1.
</event>
<event>
 5    1  0.1055265E-009  0.9118800E+02  0.7815553E-02  0.1125453E+00
         25   -1    0    0    0    0  0.00000000000E+00  0.00000000000E+00  0.99999998245E-14  0.12509000000E+03  0.12509000000E+03 0.  0.
        -11    1    3    3    0    0  0.18107278201E+02 -0.33521950445E+02  0.40352268127E+02  0.55496848818E+02  0.51100000000E-03 0. -1.
         23    2    1    0    0    0  0.26144867897E+02 -0.21308765861E+02  0.88606596612E+01  0.90216960134E+02  0.83204392831E+02 0.  0.
         11    1    3    3    0    0  0.80375896954E+01  0.12213184584E+02 -0.31491608466E+02  0.34720111316E+02  0.51100000000E-03 0.  1.
         22    1    1    0    0    0 -0.26144867897E+02  0.21308765861E+02 -0.88606596612E+01  0.34873039866E+02  0.00000000000E+00 0. -1.
</event>
<event>
 5    1  0.1055265E-009  0.9118800E+02  0.7815553E-02  0.1125453E+00
         25   -1    0    0    0    0  0.00000000000E+00  0.00000000000E+00  0.99999998245E-14  0.12509000000E+03  0.12509000000E+03 0.  0.
        -11    1    3    3    0    0  0.11040750978E+01  0.25603945048E+02  0.40889243230E+02  0.48256721770E+02  0.51100000000E-03 0.  1.
         23    2    1    0    0    0 -0.21978098915E+02 -0.85563955563E+01  0.11767266084E+02  0.98732509833E+02  0.95149310086E+02 0.  0.
         11    1    3    3    0    0 -0.23082174013E+02 -0.34160340604E+02 -0.29121977146E+02  0.50475788062E+02  0.51100000000E-03 0. -1.
         22    1    1    0    0    0  0.21978098915E+02  0.85563955563E+01 -0.11767266084E+02  0.26357490167E+02  0.00000000000E+00 0. -1.
</event>
<event>
 5    1  0.1055265E-009  0.9118800E+02  0.7815553E-02  0.1125453E+00
         25   -1    0    0    0    0  0.00000000000E+00  0.00000000000E+00  0.99999998245E-14  0.12509000000E+03  0.12509000000E+03 0.  0.
        -11    1    3    3    0    0 -0.24076849817E+02 -0.29786410531E+02  0.11097099072E+02  0.39875688802E+02  0.51100000000E-03 0.  1.
         23    2    1    0    0    0 -0.28920071594E+02  0.14958368784E+02 -0.11908802675E+02  0.90420951573E+02  0.83510511701E+02 0.  0.
         11    1    3    3    0    0 -0.48432217768E+01  0.44744779315E+02 -0.23005901747E+02  0.50545262771E+02  0.51100000000E-03 0. -1.
         22    1    1    0    0    0  0.28920071594E+02 -0.14958368784E+02  0.11908802675E+02  0.34669048427E+02  0.00000000000E+00 0. -1.
</event>
<event>
 5    1  0.1055265E-009  0.9118800E+02  0.7815553E-02  0.1125453E+00
         25   -1    0    0    0    0  0.00000000000E+00  0.00000000000E+00  0.99999998245E-14  0.12509000000E+03  0.12509000000E+03 0.  0.
        -11    1    3    3    0    0  0.30264209034E+02  0.18434768143E+02 -0.30945009036E+01  0.35571603296E+02  0.51100000000E-03 0. -1.
         23    2    1    0    0    0 -0.81977753748E+01 -0.27931877323E+02 -0.31095882036E+01  0.95814364556E+02  0.91232283894E+02 0.  0.
         11    1    3    3    0    0 -0.38461984409E+02 -0.46366645465E+02 -0.15087299972E-01  0.60242761260E+02  0.51100000000E-03 0.  1.
         22    1    1    0    0    0  0.81977753748E+01  0.27931877323E+02  0.31095882036E+01  0.29275635444E+02  0.00000000000E+00 0.  1.
</event>
<event>
 5    1  0.1055265E-009  0.9118800E+02  0.7815553E-02  0.1125453E+00
         25   -1    0    0    0    0  0.00000000000E+00  0.00000000000E+00  0.99999998245E-14  0.12509000000E+03  0.12509000000E+03 0.  0.
        -11    1    3    3    0    0  0.15745447224E+02  0.10920190345E+02 -0.32554016977E+02  0.37774775804E+02  0.51100000000E-03 0.  1.
         23    2    1    0    0    0 -0.33998214484E+01 -0.29261213818E+02  0.39882611840E+01  0.95363183028E+02  0.90611550202E+02 0.  0.
         11    1    3    3    0    0 -0.19145268673E+02 -0.40181404163E+02  0.36542278161E+02  0.57588407224E+02  0.51100000000E-03 0. -1.
         22    1    1    0    0    0  0.33998214484E+01  0.29261213818E+02 -0.39882611840E+01  0.29726816972E+02  0.00000000000E+00 0. -1.
</event>
<event>
 5    1  0.1055265E-009  0.9118800E+02  0.7815553E-02  0.1125453E+00
         25   -1    0    0    0    0  0.00000000000E+00  0.00000000000E+00  0.99999998245E-14  0.12509000000E+03  0.12509000000E+03 0.  0.
        -11    1    3    3    0    0  0.13491153392E+02 -0.37867628434E+02 -0.85742910882E+01  0.41103369339E+02  0.51100000000E-03 0. -1.
         23    2    1    0    0    0 -0.20676357671E+02 -0.76296575577E+01  0.20323029301E+02  0.95110857902E+02  0.90262541122E+02 0.  0.
         11    1    3    3    0    0 -0.34167511063E+02  0.30237970876E+02  0.28897320389E+02  0.54007488563E+02  0.51100000000E-03 0.  1.
         22    1    1    0    0    0  0.20676357671E+02  0.76296575577E+01 -0.20323029301E+02  0.29979142098E+02  0.00000000000E+00 0.  1.
</event>
<event>
 5    1  0.1055265E-009  0.9118800E+02  0.7815553E-02  0.1125453E+00
         25   -1    0    0    0    0  0.00000000000E+00  0.00000000000E+00  0.99999998245E-14  0.12509000000E+03  0.12509000000E+03 0.  0.
        -11    1    3    3    0    0 -0.17271454935E+02 -0.22879039423E+02 -0.19510513199E+02  0.34675837784E+02  0.51100000000E-03 0. -1.
         23    2    1    0    0    0  0.86040776551E+01  0.26062279696E+02  0.80095104104E+01  0.96499357610E+02  0.92166703244E+02 0.  0.
         11    1    3    3    0    0  0.25875532590E+02  0.48941319119E+02  0.27520023609E+02  0.61823519826E+02  0.51100000000E-03 0.  1.
         22    1    1    0    0    0 -0.86040776551E+01 -0.26062279696E+02 -0.80095104104E+01  0.28590642390E+02  0.00000000000E+00 0.  1.
</event>
<event>
 4    1  0.1055265E-009  0.9118800E+02  0.7815553E-02  0.1125453E+00
         25   -1    0    0    0    0  0.00000000000E+00  0.00000000000E+00  0.99999998245E-14  0.12509000000E+03  0.12509000000E+03 0.  0.
        -11    1    1    0    0    0 -0.21872443678E+02  0.82055085628E+01  0.42543314159E+02  0.48535221676E+02  0.51100000000E-03 0. -1.
         11    1    1    0    0    0 -0.41728523774E+01  0.21801072814E+02 -0.70846966110E+01  0.23300051483E+02  0.51100000000E-03 0.  1.
         22    1    1    0    0    0  0.26045296055E+02 -0.30006581377E+02 -0.35458617548E+02  0.53254726841E+02  0.00000000000E+00 0. -1.
</event>
<event>
 5    1  0.1055265E-009  0.9118800E+02  0.7815553E-02  0.1125453E+00
         25   -1    0    0    0    0  0.00000000000E+00  0.00000000000E+00  0.99999998245E-14  0.12509000000E+03  0.12509000000E+03 0.  0.
        -11    1    3    3    0    0 -0.51090017398E+02  0.20549831229E+02 -0.88696344872E+01  0.55777736217E+02  0.51100000000E-03 0. -1.
         23    2    1    0    0    0 -0.16127017978E+02 -0.10240946131E+02  0.66168202738E+01  0.10487268077E+03  0.10290548661E+03 0.  0.
         11    1    3    3    0    0  0.34962999420E+02 -0.30790777359E+02  0.15486454761E+02  0.49094944548E+02  0.51100000000E-03 0.  1.
         22    1    1    0    0    0  0.16127017978E+02  0.10240946131E+02 -0.66168202738E+01  0.20217319235E+02  0.00000000000E+00 0.  1.
</event>
<event>
 5    1  0.1055265E-009  0.9118800E+02  0.7815553E-02  0.1125453E+00
         25   -1    0    0    0    0  0.00000000000E+00  0.00000000000E+00  0.99999998245E-14  0.12509000000E+03  0.12509000000E+03 0.  0.
        -11    1    3    3    0    0 -0.62492627662E+01 -0.27412477238E+02 -0.54747965573E+02  0.61545405418E+02  0.51100000000E-03 0. -1.
         23    2    1    0    0    0 -0.10590021563E+02 -0.10951710774E+02 -0.25820190234E+02  0.95110494512E+02  0.90262037519E+02 0.  0.
         11    1    3    3    0    0 -0.43407587972E+01  0.16460766465E+02  0.28927775339E+02  0.33565089094E+02  0.51100000000E-03 0.  1.
         22    1    1    0    0    0  0.10590021563E+02  0.10951710774E+02  0.25820190234E+02  0.29979505488E+02  0.00000000000E+00 0. -1.
</event>
<event>
 5    1  0.1055265E-009  0.9118800E+02  0.7815553E-02  0.1125453E+00
         25   -1    0    0    0    0  0.00000000000E+00  0.00000000000E+00  0.99999998245E-14  0.12509000000E+03  0.12509000000E+03 0.  0.
        -11    1    3    3    0    0  0.22324628020E+02  0.41705128281E+02  0.34726329942E+02  0.58682405648E+02  0.51100000000E-03 0.  1.
         23    2    1    0    0    0  0.19417388817E+01  0.16222811939E+02  0.28988030015E+02  0.91814545665E+02  0.85572512727E+02 0.  0.
         11    1    3    3    0    0 -0.20382889138E+02 -0.25482316342E+02 -0.57382999268E+01  0.33132140017E+02  0.51100000000E-03 0. -1.
         22    1    1    0    0    0 -0.19417388817E+01 -0.16222811939E+02 -0.28988030015E+02  0.33275454335E+02  0.00000000000E+00 0.  1.
</event>
<event>
 5    1  0.1055265E-009  0.9118800E+02  0.7815553E-02  0.1125453E+00
         25   -1    0    0    0    0  0.00000000000E+00  0.00000000000E+00  0.99999998245E-14  0.12509000000E+03  0.12509000000E+03 0.  0.
        -11    1    3    3    0    0 -0.29977601081E+02 -0.20878354849E+02 -0.28239735994E+02  0.46174072346E+02  0.51100000000E-03 0. -1.
         23    2    1    0    0    0  0.19239178310E+02 -0.10614514239E+02 -0.15973616041E+02  0.97924391154E+02  0.94080901776E+02 0.  0.
         11    1    3    3    0    0  0.49216779391E+02  0.10263840610E+02  0.12266119953E+02  0.51750318808E+02  0.51100000000E-03 0.  1.
         22    1    1    0    0    0 -0.19239178310E+02  0.10614514239E+02  0.15973616041E+02  0.27165608846E+02  0.00000000000E+00 0.  1.
</event>
<event>
 5    1  0.1055265E-009  0.9118800E+02  0.7815553E-02  0.1125453E+00
         25   -1    0    0    0    0  0.00000000000E+00  0.00000000000E+00  0.99999998245E-14  0.12509000000E+03  0.12509000000E+03 0.  0.
        -11    1    3    3    0    0 -0.28881801618E+02  0.47496456391E+01 -0.28269113083E+02  0.40692264045E+02  0.51100000000E-03 0. -1.
         23    2    1    0    0    0  0.21460716253E+02 -0.13375258471E+02 -0.14495130972E+02  0.95942638144E+02  0.91407992598E+02 0.  0.
         11    1    3    3    0    0  0.50342517871E+02 -0.18124904110E+02  0.13773982111E+02  0.55250374099E+02  0.51100000000E-03 0.  1.
         22    1    1    0    0    0 -0.21460716253E+02  0.13375258471E+02  0.14495130972E+02  0.29147361856E+02  0.00000000000E+00 0.  1.
</event>
<event>
 5    1  0.1055265E-009  0.9118800E+02  0.7815553E-02  0.1125453E+00
         25   -1    0    0    0    0  0.00000000000E+00  0.00000000000E+00  0.99999998245E-14  0.12509000000E+03  0.12509000000E+03 0.  0.
        -11    1    3    3    0    0 -0.40200129520E+02  0.20984409454E+02 -0.19482713913E+02  0.49355567014E+02  0.51100000000E-03 0.  1.
         23    2    1    0    0    0 -0.22037710141E+02  0.39139393579E+01  0.19352271296E+02  0.95501319835E+02  0.90802048966E+02 0.  0.
         11    1    3    3    0    0  0.18162419379E+02 -0.17070470096E+02  0.38834985210E+02  0.46145752822E+02  0.51100000000E-03 0. -1.
         22    1    1    0    0    0  0.22037710141E+02 -0.39139393579E+01 -0.19352271296E+02  0.29588680165E+02  0.00000000000E+00 0.  1.
</event>
<event>
 5    1  0.1055265E-009  0.9118800E+02  0.7815553E-02  0.1125453E+00
         25   -1    0    0    0    0  0.00000000000E+00  0.00000000000E+00  0.99999998245E-14  0.12509000000E+03  0.12509000000E+03 0.  0.
        -11    1    3    3    0    0  0.37049996549E+02 -0.15416852567E+02 -0.52023008576E-01  0.40129593743E+02  0.51100000000E-03 0.  1.
         23    2    1    0    0    0 -0.10574255440E+02 -0.99386773256E+01  0.26460824485E+02  0.94911076601E+02  0.89985249035E+02 0.  0.
         11    1    3    3    0    0 -0.47624251990E+02  0.54781752411E+01  0.26512847494E+02  0.54781482857E+02  0.51100000000E-03 0. -1.
         22    1    1    0    0    0  0.10574255440E+02  0.99386773256E+01 -0.26460824485E+02  0.30178923399E+02  0.00000000000E+00 0. -1.
</event>
<event>
 5    1  0.1055265E-009  0.9118800E+02  0.7815553E-02  0.1125453E+00
         25   -1    0    0    0    0  0.00000000000E+00  0.00000000000E+00  0.99999998245E-14  0.12509000000E+03  0.12509000000E+03 0.  0.
        -11    1    3    3    0    0  0.12522234768E+02  0.50306307610E+02 -0.87001278576E+01  0.52566369229E+02  0.51100000000E-03 0. -1.
         23    2    1    0    0    0  0.25191360839E+02  0.98297754123E+01 -0.12791026703E+02  0.95176131816E+02  0.90352955446E+02 0.  0.
         11    1    3    3    0    0  0.12669126071E+02 -0.40476532197E+02 -0.40908988450E+01  0.42609762588E+02  0.51100000000E-03 0.  1.
         22    1    1    0    0    0 -0.25191360839E+02 -0.98297754123E+01  0.12791026703E+02  0.29913868184E+02  0.00000000000E+00 0.  1.
</event>
<event>
 5    1  0.1055265E-009  0.9118800E+02  0.7815553E-02  0.1125453E+00
         25   -1    0    0    0    0  0.00000000000E+00  0.00000000000E+00  0.99999998245E-14  0.12509000000E+03  0.12509000000E+03 0.  0.
        -11    1    3    3    0    0 -0.19642551299E+02 -0.29795411957E+02 -0.31794432663E+00  0.35688898611E+02  0.51100000000E-03 0. -1.
         23    2    1    0    0    0  0.29252741735E+02  0.46022787741E+01  0.35903492325E+00  0.95475260849E+02  0.90766142692E+02 0.  0.
         11    1    3    3    0    0  0.48895293034E+02  0.34397690731E+02  0.67697924988E+00  0.59786362238E+02  0.51100000000E-03 0.  1.
         22    1    1    0    0    0 -0.29252741735E+02 -0.46022787741E+01 -0.35903492325E+00  0.29614739151E+02  0.00000000000E+00 0.  1.
</event>
<event>
 5    1  0.1055265E-009  0.9118800E+02  0.7815553E-02  0.1125453E+00
         25   -1    0    0    0    0  0.00000000000E+00  0.00000000000E+00  0.99999998245E-14  0.12509000000E+03  0.12509000000E+03 0.  0.
        -11    1    3    3    0    0  0.27659602111E+02  0.26113037053E+02 -0.46068505495E+02  0.59743212936E+02  0.51100000000E-03 0.  1.
         23    2    1    0    0    0  0.14169688624E+02  0.21212638463E+02 -0.11627410634E+02  0.97055150539E+02  0.92917971683E+02 0.  0.
         11    1    3    3    0    0 -0.13489913487E+02 -0.49003985901E+01  0.34441094861E+02  0.37311937603E+02  0.51100000000E-03 0. -1.
         22    1    1    0    0    0 -0.14169688624E+02 -0.21212638463E+02  0.11627410634E+02  0.28034849461E+02  0.00000000000E+00 0.  1.
</event>
<event>
 5    1  0.1055265E-009  0.9118800E+02  0.7815553E-02  0.1125453E+00
         25   -1    0    0    0    0  0.00000000000E+00  0.00000000000E+00  0.99999998245E-14  0.12509000000E+03  0.12509000000E+03 0.  0.
        -11    1    3    3    0    0  0.92396847387E+01 -0.37749322825E+02  0.14896070900E+02  0.41620620807E+02  0.51100000000E-03 0.  1.
         23    2    1    0    0    0 -0.21957481144E+02 -0.84919516320E+01 -0.17898570890E+02  0.95516311346E+02  0.90822699104E+02 0.  0.
         11    1    3    3    0    0 -0.31197165883E+02  0.29257371193E+02 -0.32794641790E+02  0.53895690539E+02  0.51100000000E-03 0. -1.
         22    1    1    0    0    0  0.21957481144E+02  0.84919516320E+01  0.17898570890E+02  0.29573688654E+02  0.00000000000E+00 0. -1.
</event>
<event>
 5    1  0.1055265E-009  0.9118800E+02  0.7815553E-02  0.1125453E+00
         25   -1    0    0    0    0  0.00000000000E+00  0.00000000000E+00  0.99999998245E-14  0.12509000000E+03  0.12509000000E+03 0.  0.
        -11    1    3    3    0    0 -0.64005641440E+00  0.95296301647E+01 -0.36845305729E+02  0.38063106518E+02  0.51100000000E-03 0.  1.
         23    2    1    0    0    0 -0.27078874321E+01 -0.33762142850E+02 -0.75153770311E+01  0.90395680060E+02  0.83472649038E+02 0.  0.
         11    1    3    3    0    0 -0.20678310177E+01 -0.43291773014E+02  0.29329928698E+02  0.52332573542E+02  0.51100000000E-03 0. -1.
         22    1    1    0    0    0  0.27078874321E+01  0.33762142850E+02  0.75153770311E+01  0.34694319940E+02  0.00000000000E+00 0. -1.
</event>
<event>
 5    1  0.1055265E-009  0.9118800E+02  0.7815553E-02  0.1125453E+00
         25   -1    0    0    0    0  0.00000000000E+00  0.00000000000E+00  0.99999998245E-14  0.12509000000E+03  0.12509000000E+03 0.  0.
        -11    1    3    3    0    0 -0.27839125426E+02  0.17097655125E+02 -0.21589565737E+02  0.39159367516E+02  0.51100000000E-03 0. -1.
         23    2    1    0    0    0  0.21453807440E+02 -0.97855749348E+01 -0.18006775284E+02  0.95420701278E+02  0.90690919864E+02 0.  0.
         11    1    3    3    0    0  0.49292932867E+02 -0.26883230060E+02  0.35827904524E+01  0.56261333763E+02  0.51100000000E-03 0.  1.
         22    1    1    0    0    0 -0.21453807440E+02  0.97855749348E+01  0.18006775284E+02  0.29669298722E+02  0.00000000000E+00 0. -1.
</event>
<event>
 5    1  0.1055265E-009  0.9118800E+02  0.7815553E-02  0.1125453E+00
         25   -1    0    0    0    0  0.00000000000E+00  0.00000000000E+00  0.99999998245E-14  0.12509000000E+03  0.12509000000E+03 0.  0.
        -11    1    3    3    0    0 -0.46258581430E+02 -0.11067186072E+02 -0.14397088959E+01  0.47585835344E+02  0.51100000000E-03 0. -1.
         23    2    1    0    0    0 -0.85341804354E+01  0.17503478542E+02 -0.18829329150E+02  0.98002223550E+02  0.94184330903E+02 0.  0.
         11    1    3    3    0    0  0.37724400994E+02  0.28570664614E+02 -0.17389620254E+02  0.50416388206E+02  0.51100000000E-03 0.  1.
         22    1    1    0    0    0  0.85341804354E+01 -0.17503478542E+02  0.18829329150E+02  0.27087776450E+02  0.00000000000E+00 0.  1.
</event>
<event>
 5    1  0.1055265E-009  0.9118800E+02  0.7815553E-02  0.1125453E+00
         25   -1    0    0    0    0  0.00000000000E+00  0.00000000000E+00  0.99999998245E-14  0.12509000000E+03  0.12509000000E+03 0.  0.
        -11    1    3    3    0    0 -0.56523719884E+00  0.52884163739E+02  0.86569281494E+01  0.53591012984E+02  0.51100000000E-03 0. -1.
         23    2    1    0    0    0  0.13875594054E+02  0.44471418415E+02  0.20620667591E+02  0.74144430045E+02  0.53869707708E+02 0.  0.
         11    1    3    3    0    0  0.14440831253E+02 -0.84127453240E+01  0.11963739441E+02  0.20553417060E+02  0.51100000000E-03 0.  1.
         22    1    1    0    0    0 -0.13875594054E+02 -0.44471418415E+02 -0.20620667591E+02  0.50945569955E+02  0.00000000000E+00 0. -1.
</event>
<event>
 5    1  0.1055265E-009  0.9118800E+02  0.7815553E-02  0.1125453E+00
         25   -1    0    0    0    0  0.00000000000E+00  0.00000000000E+00  0.99999998245E-14  0.12509000000E+03  0.12509000000E+03 0.  0.
        -11    1    3    3    0    0 -0.14708985732E+02  0.20962411833E+02 -0.54191456153E+02  0.59937391430E+02  0.51100000000E-03 0.  1.
         23    2    1    0    0    0  0.45336700384E+01  0.12229496603E+02 -0.31766816225E+02  0.90749857830E+02  0.84001734101E+02 0.  0.
         11    1    3    3    0    0  0.19242655771E+02 -0.87329152300E+01  0.22424639928E+02  0.30812466401E+02  0.51100000000E-03 0. -1.
         22    1    1    0    0    0 -0.45336700384E+01 -0.12229496603E+02  0.31766816225E+02  0.34340142170E+02  0.00000000000E+00 0.  1.
</event>
<event>
 5    1  0.1055265E-009  0.9118800E+02  0.7815553E-02  0.1125453E+00
         25   -1    0    0    0    0  0.00000000000E+00  0.00000000000E+00  0.99999998245E-14  0.12509000000E+03  0.12509000000E+03 0.  0.
        -11    1    3    3    0    0 -0.24920655000E+02 -0.25325474906E+02  0.24354770088E+02  0.43076368825E+02  0.51100000000E-03 0. -1.
         23    2    1    0    0    0 -0.25572109232E+02  0.66397480476E+01 -0.15723632166E+02  0.94345055160E+02  0.89194942681E+02 0.  0.
         11    1    3    3    0    0 -0.65145423219E+00  0.31965222953E+02 -0.40078402254E+02  0.51268686335E+02  0.51100000000E-03 0.  1.
         22    1    1    0    0    0  0.25572109232E+02 -0.66397480476E+01  0.15723632166E+02  0.30744944840E+02  0.00000000000E+00 0. -1.
</event>
<event>
 4    1  0.1055265E-009  0.9118800E+02  0.7815553E-02  0.1125453E+00
         25   -1    0    0    0    0  0.00000000000E+00  0.00000000000E+00  0.99999998245E-14  0.12509000000E+03  0.12509000000E+03 0.  0.
        -11    1    1    0    0    0  0.32397669137E+01  0.17815058249E+02  0.47491719563E+02  0.50826526710E+02  0.51100000000E-03 0.  1.
         11    1    1    0    0    0  0.85619230446E+00 -0.18489608795E+02  0.68701853287E+01  0.19743306343E+02  0.51100000000E-03 0. -1.
         22    1    1    0    0    0 -0.40959592182E+01  0.67455054564E+00 -0.54361904892E+02  0.54520166946E+02  0.00000000000E+00 0.  1.
</event>
<event>
 5    1  0.1055265E-009  0.9118800E+02  0.7815553E-02  0.1125453E+00
         25   -1    0    0    0    0  0.00000000000E+00  0.00000000000E+00  0.99999998245E-14  0.12509000000E+03  0.12509000000E+03 0.  0.
        -11    1    3    3    0    0  0.24139863441E+02 -0.18255370439E+02  0.51367138922E+02  0.59620252583E+02  0.51100000000E-03 0. -1.
         23    2    1    0    0    0  0.20795553928E+01 -0.37632842932E+00  0.29639948222E+02  0.95374806844E+02  0.90627595556E+02 0.  0.
         11    1    3    3    0    0 -0.22060308048E+02  0.17879042010E+02 -0.21727190700E+02  0.35754554261E+02  0.51100000000E-03 0.  1.
         22    1    1    0    0    0 -0.20795553928E+01  0.37632842932E+00 -0.29639948222E+02  0.29715193156E+02  0.00000000000E+00 0. -1.
</event>
<event>
 5    1  0.1055265E-009  0.9118800E+02  0.7815553E-02  0.1125453E+00
         25   -1    0    0    0    0  0.00000000000E+00  0.00000000000E+00  0.99999998245E-14  0.12509000000E+03  0.12509000000E+03 0.  0.
        -11    1    3    3    0    0 -0.18816324466E+02  0.26534514903E+02 -0.52979536377E+02  0.62168849294E+02  0.51100000000E-03 0.  1.
         23    2    1    0    0    0 -0.11130660686E+02  0.82189973401E+01 -0.25538774255E+02  0.96043958703E+02  0.91546542744E+02 0.  0.
         11    1    3    3    0    0  0.76856637808E+01 -0.18315517563E+02  0.27440762122E+02  0.33875109409E+02  0.51100000000E-03 0. -1.
         22    1    1    0    0    0  0.11130660686E+02 -0.82189973401E+01  0.25538774255E+02  0.29046041297E+02  0.00000000000E+00 0.  1.
</event>
<event>
 5    1  0.1055265E-009  0.9118800E+02  0.7815553E-02  0.1125453E+00
         25   -1    0    0    0    0  0.00000000000E+00  0.00000000000E+00  0.99999998245E-14  0.12509000000E+03  0.12509000000E+03 0.  0.
        -11    1    3    3    0    0  0.11282152546E+02  0.26552949846E+02 -0.25462695487E+02  0.38479799548E+02  0.51100000000E-03 0. -1.
         23    2    1    0    0    0  0.19593264310E+02  0.25116389149E+01  0.23943450578E+02  0.94049813758E+02  0.88779920624E+02 0.  0.
         11    1    3    3    0    0  0.83111117642E+01 -0.24041310931E+02  0.49406146065E+02  0.55570014209E+02  0.51100000000E-03 0.  1.
         22    1    1    0    0    0 -0.19593264310E+02 -0.25116389149E+01 -0.23943450578E+02  0.31040186242E+02  0.00000000000E+00 0.  1.
</event>
<event>
 5    1  0.1055265E-009  0.9118800E+02  0.7815553E-02  0.1125453E+00
         25   -1    0    0    0    0  0.00000000000E+00  0.00000000000E+00  0.99999998245E-14  0.12509000000E+03  0.12509000000E+03 0.  0.
        -11    1    3    3    0    0  0.16403096329E+02  0.32179240776E+02  0.14580587411E+02  0.38950720604E+02  0.51100000000E-03 0.  1.
         23    2    1    0    0    0 -0.28131466568E+02 -0.22409684305E+01  0.87832508784E+01  0.95534174063E+02  0.90847298073E+02 0.  0.
         11    1    3    3    0    0 -0.44534562897E+02 -0.34420209206E+02 -0.57973365322E+01  0.56583453459E+02  0.51100000000E-03 0. -1.
         22    1    1    0    0    0  0.28131466568E+02  0.22409684305E+01 -0.87832508784E+01  0.29555825937E+02  0.00000000000E+00 0. -1.
</event>
<event>
 5    1  0.1055265E-009  0.9118800E+02  0.7815553E-02  0.1125453E+00
         25   -1    0    0    0    0  0.00000000000E+00  0.00000000000E+00  0.99999998245E-14  0.12509000000E+03  0.12509000000E+03 0.  0.
        -11    1    3    3    0    0 -0.26123475867E+02  0.39413256784E+02  0.16683647116E+02  0.50141648188E+02  0.51100000000E-03 0.  1.
         23    2    1    0    0    0 -0.25539879343E+01  0.17678259943E+01  0.28754851386E+02  0.96167871078E+02  0.91715701417E+02 0.  0.
         11    1    3    3    0    0  0.23569487932E+02 -0.37645430790E+02  0.12071204270E+02  0.46026222890E+02  0.51100000000E-03 0. -1.
         22    1    1    0    0    0  0.25539879343E+01 -0.17678259943E+01 -0.28754851386E+02  0.28922128922E+02  0.00000000000E+00 0.  1.
</event>
<event>
 5    1  0.1055265E-009  0.9118800E+02  0.7815553E-02  0.1125453E+00
         25   -1    0    0    0    0  0.00000000000E+00  0.00000000000E+00  0.99999998245E-14  0.12509000000E+03  0.12509000000E+03 0.  0.
        -11    1    3    3    0    0  0.48749090507E+02 -0.37347532209E+02  0.29881185486E+01  0.61483663197E+02  0.51100000000E-03 0.  1.
         23    2    1    0    0    0  0.25687012445E+02 -0.11139204722E+02  0.57650587259E+01  0.96504332397E+02  0.92173454851E+02 0.  0.
         11    1    3    3    0    0 -0.23062078063E+02  0.26208327487E+02  0.27769401773E+01  0.35020669200E+02  0.51100000000E-03 0. -1.
         22    1    1    0    0    0 -0.25687012445E+02  0.11139204722E+02 -0.57650587259E+01  0.28585667603E+02  0.00000000000E+00 0.  1.
</event>
<event>
 5    1  0.1055265E-009  0.9118800E+02  0.7815553E-02  0.1125453E+00
         25   -1    0    0    0    0  0.00000000000E+00  0.00000000000E+00  0.99999998245E-14  0.12509000000E+03  0.12509000000E+03 0.  0.
        -11    1    3    3    0    0 -0.46474908037E+02 -0.20767216632E+02  0.93800900134E+01  0.51760800347E+02  0.51100000000E-03 0.  1.
         23    2    1    0    0    0 -0.29414576242E+01 -0.24242451370E+02  0.15947415531E+02  0.95923774953E+02  0.91382175055E+02 0.  0.
         11    1    3    3    0    0  0.43533450413E+02 -0.34752347377E+01  0.65673255172E+01  0.44162974606E+02  0.51100000000E-03 0. -1.
         22    1    1    0    0    0  0.29414576242E+01  0.24242451370E+02 -0.15947415531E+02  0.29166225047E+02  0.00000000000E+00 0.  1.
</event>
<event>
 5    1  0.1055265E-009  0.9118800E+02  0.7815553E-02  0.1125453E+00
         25   -1    0    0    0    0  0.00000000000E+00  0.00000000000E+00  0.99999998245E-14  0.12509000000E+03  0.12509000000E+03 0.  0.
        -11    1    3    3    0    0 -0.48454528336E+02 -0.19529865944E+02 -0.29642513255E+02  0.60066093367E+02  0.51100000000E-03 0.  1.
         23    2    1    0    0    0 -0.27043981571E+02 -0.70448001101E+01 -0.21806378544E+01  0.97058565337E+02  0.92922568712E+02 0.  0.
         11    1    3    3    0    0  0.21410546766E+02  0.12485065834E+02  0.27461875401E+02  0.36992471970E+02  0.51100000000E-03 0. -1.
         22    1    1    0    0    0  0.27043981571E+02  0.70448001101E+01  0.21806378544E+01  0.28031434663E+02  0.00000000000E+00 0.  1.
</event>
<event>
 5    1  0.1055265E-009  0.9118800E+02  0.7815553E-02  0.1125453E+00
         25   -1    0    0    0    0  0.00000000000E+00  0.00000000000E+00  0.99999998245E-14  0.12509000000E+03  0.12509000000E+03 0.  0.
        -11    1    3    3    0    0  0.11789989036E+02 -0.10282643145E+02  0.56340757137E+02  0.58472365324E+02  0.51100000000E-03 0.  1.
         23    2    1    0    0    0 -0.10024464523E+02 -0.16246604570E+01  0.28208664583E+02  0.95109036571E+02  0.90260017003E+02 0.  0.
         11    1    3    3    0    0 -0.21814453559E+02  0.86579826881E+01 -0.28132092555E+02  0.36636671247E+02  0.51100000000E-03 0. -1.
         22    1    1    0    0    0  0.10024464523E+02  0.16246604570E+01 -0.28208664583E+02  0.29980963429E+02  0.00000000000E+00 0.  1.
</event>
<event>
 5    1  0.1055265E-009  0.9118800E+02  0.7815553E-02  0.1125453E+00
         25   -1    0    0    0    0  0.00000000000E+00  0.00000000000E+00  0.99999998245E-14  0.12509000000E+03  0.12509000000E+03 0.  0.
        -11    1    3    3    0    0 -0.75933697062E+00 -0.52051608291E+02 -0.33353145760E+02  0.61825390016E+02  0.51100000000E-03 0.  1.
         23    2    1    0    0    0 -0.67771407595E+01 -0.23644490740E+02 -0.17445575287E+02  0.94934740487E+02  0.90018138589E+02 0.  0.
         11    1    3    3    0    0 -0.60178037888E+01  0.28407117551E+02  0.15907570473E+02  0.33109350471E+02  0.51100000000E-03 0. -1.
         22    1    1    0    0    0  0.67771407595E+01  0.23644490740E+02  0.17445575287E+02  0.30155259513E+02  0.00000000000E+00 0.  1.
</event>
<event>
 5    1  0.1055265E-009  0.9118800E+02  0.7815553E-02  0.1125453E+00
         25   -1    0    0    0    0  0.00000000000E+00  0.00000000000E+00  0.99999998245E-14  0.12509000000E+03  0.12509000000E+03 0.  0.
        -11    1    3    3    0    0 -0.23980774582E+02  0.38738130464E+02 -0.19828119932E+02  0.49687771551E+02  0.51100000000E-03 0. -1.
         23    2    1    0    0    0 -0.30812511720E+02 -0.23104287271E+01 -0.54556286416E+01  0.93713052359E+02  0.88304152445E+02 0.  0.
         11    1    3    3    0    0 -0.68317371384E+01 -0.41048559191E+02  0.14372491291E+02  0.44025280807E+02  0.51100000000E-03 0.  1.
         22    1    1    0    0    0  0.30812511720E+02  0.23104287271E+01  0.54556286416E+01  0.31376947641E+02  0.00000000000E+00 0. -1.
</event>
<event>
 5    1  0.1055265E-009  0.9118800E+02  0.7815553E-02  0.1125453E+00
         25   -1    0    0    0    0  0.00000000000E+00  0.00000000000E+00  0.99999998245E-14  0.12509000000E+03  0.12509000000E+03 0.  0.
        -11    1    3    3    0    0 -0.33164357149E+01 -0.79184855045E+01 -0.30524540795E+02  0.31708811859E+02  0.51100000000E-03 0. -1.
         23    2    1    0    0    0  0.18124941545E+01 -0.29427485644E+01  0.31126300563E+02  0.93772409242E+02  0.88388196294E+02 0.  0.
         11    1    3    3    0    0  0.51289298694E+01  0.49757369401E+01  0.61650841358E+02  0.62063597383E+02  0.51100000000E-03 0.  1.
         22    1    1    0    0    0 -0.18124941545E+01  0.29427485644E+01 -0.31126300563E+02  0.31317590758E+02  0.00000000000E+00 0.  1.
</event>
<event>
 5    1  0.1055265E-009  0.9118800E+02  0.7815553E-02  0.1125453E+00
         25   -1    0    0    0    0  0.00000000000E+00  0.00000000000E+00  0.99999998245E-14  0.12509000000E+03  0.12509000000E+03 0.  0.
        -11    1    3    3    0    0  0.40849747035E+02  0.13761548020E+02  0.20002682836E+02  0.47520409906E+02  0.51100000000E-03 0.  1.
         23    2    1    0    0    0  0.10796796191E+02 -0.23064945500E+02  0.15525826636E+02  0.95263605454E+02  0.90473978095E+02 0.  0.
         11    1    3    3    0    0 -0.30052950843E+02 -0.36826493521E+02 -0.44768562007E+01  0.47743195548E+02  0.51100000000E-03 0. -1.
         22    1    1    0    0    0 -0.10796796191E+02  0.23064945500E+02 -0.15525826636E+02  0.29826394546E+02  0.00000000000E+00 0.  1.
</event>
<event>
 5    1  0.1055265E-009  0.9118800E+02  0.7815553E-02  0.1125453E+00
         25   -1    0    0    0    0  0.00000000000E+00  0.00000000000E+00  0.99999998245E-14  0.12509000000E+03  0.12509000000E+03 0.  0.
        -11    1    3    3    0    0  0.21599052072E+01 -0.52302492459E+02  0.40621296174E+01  0.52504445575E+02  0.51100000000E-03 0.  1.
         23    2    1    0    0    0 -0.13859328823E+02 -0.16612231375E+02 -0.17581004874E+02  0.97212787818E+02  0.93129947687E+02 0.  0.
         11    1    3    3    0    0 -0.16019234030E+02  0.35690261084E+02 -0.21643134492E+02  0.44708342242E+02  0.51100000000E-03 0. -1.
         22    1    1    0    0    0  0.13859328823E+02  0.16612231375E+02  0.17581004874E+02  0.27877212182E+02  0.00000000000E+00 0. -1.
</event>
<event>
 5    1  0.1055265E-009  0.9118800E+02  0.7815553E-02  0.1125453E+00
         25   -1    0    0    0    0  0.00000000000E+00  0.00000000000E+00  0.99999998245E-14  0.12509000000E+03  0.12509000000E+03 0.  0.
        -11    1    3    3    0    0  0.10309237215E+02 -0.23191788904E+02 -0.29721788848E+02  0.39083553793E+02  0.51100000000E-03 0. -1.
         23    2    1    0    0    0  0.17970355914E+02 -0.13731570329E+02  0.22786968866E+02  0.92984927729E+02  0.87266609418E+02 0.  0.
         11    1    3    3    0    0  0.76611186998E+01  0.94602185752E+01  0.52508757715E+02  0.53901373936E+02  0.51100000000E-03 0.  1.
         22    1    1    0    0    0 -0.17970355914E+02  0.13731570329E+02 -0.22786968866E+02  0.32105072271E+02  0.00000000000E+00 0.  1.
</event>
<event>
 5    1  0.1055265E-009  0.9118800E+02  0.7815553E-02  0.1125453E+00
         25   -1    0    0    0    0  0.00000000000E+00  0.00000000000E+00  0.99999998245E-14  0.12509000000E+03  0.12509000000E+03 0.  0.
        -11    1    3    3    0    0 -0.21867531824E+02  0.58931716127E+01 -0.28733503497E+02  0.36585962379E+02  0.51100000000E-03 0.  1.
         23    2    1    0    0    0  0.30014242135E+02  0.54308309070E+01 -0.31744699025E+01  0.94423635454E+02  0.89305078343E+02 0.  0.
         11    1    3    3    0    0  0.51881773960E+02 -0.46234070576E+00  0.25559033594E+02  0.57837673075E+02  0.51100000000E-03 0. -1.
         22    1    1    0    0    0 -0.30014242135E+02 -0.54308309070E+01  0.31744699025E+01  0.30666364546E+02  0.00000000000E+00 0. -1.
</event>
<event>
 5    1  0.1055265E-009  0.9118800E+02  0.7815553E-02  0.1125453E+00
         25   -1    0    0    0    0  0.00000000000E+00  0.00000000000E+00  0.99999998245E-14  0.12509000000E+03  0.12509000000E+03 0.  0.
        -11    1    3    3    0    0 -0.36143248117E+02  0.41859400629E+02  0.22988711784E+02  0.59891774687E+02  0.51100000000E-03 0. -1.
         23    2    1    0    0    0 -0.65013588539E+01  0.26823200769E+02  0.79885546819E+01  0.96357287417E+02  0.91973681377E+02 0.  0.
         11    1    3    3    0    0  0.29641889263E+02 -0.15036199859E+02 -0.15000157102E+02  0.36465512730E+02  0.51100000000E-03 0.  1.
         22    1    1    0    0    0  0.65013588539E+01 -0.26823200769E+02 -0.79885546819E+01  0.28732712583E+02  0.00000000000E+00 0. -1.
</event>
<event>
 5    1  0.1055265E-009  0.9118800E+02  0.7815553E-02  0.1125453E+00
         25   -1    0    0    0    0  0.00000000000E+00  0.00000000000E+00  0.99999998245E-14  0.12509000000E+03  0.12509000000E+03 0.  0.
        -11    1    3    3    0    0  0.21298424756E+02 -0.12251842542E+02 -0.24961636383E+02  0.35025902329E+02  0.51100000000E-03 0.  1.
         23    2    1    0    0    0 -0.26803602772E+02 -0.22058258891E+00  0.10832240148E+02  0.96179462044E+02  0.91731508841E+02 0.  0.
         11    1    3    3    0    0 -0.48102027529E+02  0.12031259953E+02  0.35793876531E+02  0.61153559715E+02  0.51100000000E-03 0. -1.
         22    1    1    0    0    0  0.26803602772E+02  0.22058258891E+00 -0.10832240148E+02  0.28910537956E+02  0.00000000000E+00 0. -1.
</event>
<event>
 5    1  0.1055265E-009  0.9118800E+02  0.7815553E-02  0.1125453E+00
         25   -1    0    0    0    0  0.00000000000E+00  0.00000000000E+00  0.99999998245E-14  0.12509000000E+03  0.12509000000E+03 0.  0.
        -11    1    3    3    0    0 -0.28543286712E+02 -0.22277375174E+02  0.40766119726E+02  0.54524097229E+02  0.51100000000E-03 0.  1.
         23    2    1    0    0    0  0.13461422937E+00  0.47658177942E+01  0.29057410036E+02  0.95644045809E+02  0.90998457572E+02 0.  0.
         11    1    3    3    0    0  0.28677900941E+02  0.27043192968E+02 -0.11708709690E+02  0.41119948579E+02  0.51100000000E-03 0. -1.
         22    1    1    0    0    0 -0.13461422937E+00 -0.47658177942E+01 -0.29057410036E+02  0.29445954191E+02  0.00000000000E+00 0.  1.
</event>
<event>
 5    1  0.1055265E-009  0.9118800E+02  0.7815553E-02  0.1125453E+00
         25   -1    0    0    0    0  0.00000000000E+00  0.00000000000E+00  0.99999998245E-14  0.12509000000E+03  0.12509000000E+03 0.  0.
        -11    1    3    3    0    0  0.33447201202E+02  0.38812914799E+02  0.33705606446E+02  0.61328831146E+02  0.51100000000E-03 0. -1.
         23    2    1    0    0    0  0.15368404111E+02  0.22690165128E+02  0.82454100071E+01  0.96471505549E+02  0.92128894264E+02 0.  0.
         11    1    3    3    0    0 -0.18078797091E+02 -0.16122749672E+02 -0.25460196439E+02  0.35142674404E+02  0.51100000000E-03 0.  1.
         22    1    1    0    0    0 -0.15368404111E+02 -0.22690165128E+02 -0.82454100071E+01  0.28618494451E+02  0.00000000000E+00 0. -1.
</event>
<event>
 5    1  0.1055265E-009  0.9118800E+02  0.7815553E-02  0.1125453E+00
         25   -1    0    0    0    0  0.00000000000E+00  0.00000000000E+00  0.99999998245E-14  0.12509000000E+03  0.12509000000E+03 0.  0.
        -11    1    3    3    0    0 -0.22865392673E+02 -0.10752459200E+02  0.35248532689E+02  0.43369351136E+02  0.51100000000E-03 0. -1.
         23    2    1    0    0    0  0.89000228470E+01  0.24609697751E+02  0.13513875933E+02  0.95637114355E+02  0.90988928828E+02 0.  0.
         11    1    3    3    0    0  0.31765415520E+02  0.35362156951E+02 -0.21734656756E+02  0.52267763219E+02  0.51100000000E-03 0.  1.
         22    1    1    0    0    0 -0.89000228470E+01 -0.24609697751E+02 -0.13513875933E+02  0.29452885645E+02  0.00000000000E+00 0.  1.
</event>
<event>
 5    1  0.1055265E-009  0.9118800E+02  0.7815553E-02  0.1125453E+00
         25   -1    0    0    0    0  0.00000000000E+00  0.00000000000E+00  0.99999998245E-14  0.12509000000E+03  0.12509000000E+03 0.  0.
        -11    1    3    3    0    0  0.19545296603E+02 -0.16604920476E+02 -0.36410171256E+02  0.44535857177E+02  0.51100000000E-03 0.  1.
         23    2    1    0    0    0 -0.23824565587E+02 -0.14996689818E+02 -0.17978883196E+02  0.91687142759E+02  0.85386071905E+02 0.  0.
         11    1    3    3    0    0 -0.43369862190E+02  0.16082306582E+01  0.18431288060E+02  0.47151285582E+02  0.51100000000E-03 0. -1.
         22    1    1    0    0    0  0.23824565587E+02  0.14996689818E+02  0.17978883196E+02  0.33402857241E+02  0.00000000000E+00 0. -1.
</event>
<event>
 5    1  0.1055265E-009  0.9118800E+02  0.7815553E-02  0.1125453E+00
         25   -1    0    0    0    0  0.00000000000E+00  0.00000000000E+00  0.99999998245E-14  0.12509000000E+03  0.12509000000E+03 0.  0.
        -11    1    3    3    0    0 -0.11626334753E+01  0.37436893668E+02 -0.19315080338E+02  0.42141963087E+02  0.51100000000E-03 0.  1.
         23    2    1    0    0    0 -0.35723253066E+02  0.11845829685E+02 -0.10102317340E+02  0.86121662774E+02  0.76801103461E+02 0.  0.
         11    1    3    3    0    0 -0.34560619590E+02 -0.25591063983E+02  0.92127629977E+01  0.43979699687E+02  0.51100000000E-03 0. -1.
         22    1    1    0    0    0  0.35723253066E+02 -0.11845829685E+02  0.10102317340E+02  0.38968337226E+02  0.00000000000E+00 0. -1.
</event>
<event>
 5    1  0.1055265E-009  0.9118800E+02  0.7815553E-02  0.1125453E+00
         25   -1    0    0    0    0  0.00000000000E+00  0.00000000000E+00  0.99999998245E-14  0.12509000000E+03  0.12509000000E+03 0.  0.
        -11    1    3    3    0    0  0.42113329677E+02 -0.11634076993E+02 -0.18966810027E+02  0.47630076284E+02  0.51100000000E-03 0.  1.
         23    2    1    0    0    0  0.21511741709E+02 -0.20976507678E+02  0.17334069013E+02  0.90402266516E+02  0.83482518751E+02 0.  0.
         11    1    3    3    0    0 -0.20601587968E+02 -0.93424306843E+01  0.36300879040E+02  0.42772190232E+02  0.51100000000E-03 0. -1.
         22    1    1    0    0    0 -0.21511741709E+02  0.20976507678E+02 -0.17334069013E+02  0.34687733484E+02  0.00000000000E+00 0.  1.
</event>
<event>
 5    1  0.1055265E-009  0.9118800E+02  0.7815553E-02  0.1125453E+00
         25   -1    0    0    0    0  0.00000000000E+00  0.00000000000E+00  0.99999998245E-14  0.12509000000E+03  0.12509000000E+03 0.  0.
        -11    1    3    3    0    0  0.33214725056E+02  0.48234631212E+02  0.16320269333E+02  0.60795960393E+02  0.51100000000E-03 0.  1.
         23    2    1    0    0    0  0.22715170465E+02  0.20188889735E+02  0.43154168342E+00  0.94696637794E+02  0.89686658669E+02 0.  0.
         11    1    3    3    0    0 -0.10499554591E+02 -0.28045741477E+02 -0.15888727650E+02  0.33900677401E+02  0.51100000000E-03 0. -1.
         22    1    1    0    0    0 -0.22715170465E+02 -0.20188889735E+02 -0.43154168342E+00  0.30393362206E+02  0.00000000000E+00 0.  1.
</event>
<event>
 5    1  0.1055265E-009  0.9118800E+02  0.7815553E-02  0.1125453E+00
         25   -1    0    0    0    0  0.00000000000E+00  0.00000000000E+00  0.99999998245E-14  0.12509000000E+03  0.12509000000E+03 0.  0.
        -11    1    3    3    0    0 -0.33665970640E+02  0.28470453173E+02 -0.29248372341E+02  0.52909654770E+02  0.51100000000E-03 0.  1.
         23    2    1    0    0    0 -0.18638381333E+02  0.14908722901E+02  0.11640797067E+02  0.98535011135E+02  0.94889309123E+02 0.  0.
         11    1    3    3    0    0  0.15027589307E+02 -0.13561730272E+02  0.40889169408E+02  0.45625356366E+02  0.51100000000E-03 0. -1.
         22    1    1    0    0    0  0.18638381333E+02 -0.14908722901E+02 -0.11640797067E+02  0.26554988865E+02  0.00000000000E+00 0.  1.
</event>
<event>
 5    1  0.1055265E-009  0.9118800E+02  0.7815553E-02  0.1125453E+00
         25   -1    0    0    0    0  0.00000000000E+00  0.00000000000E+00  0.99999998245E-14  0.12509000000E+03  0.12509000000E+03 0.  0.
        -11    1    3    3    0    0  0.33602967891E+02  0.43644877698E-01 -0.24409566277E+02  0.41532978247E+02  0.51100000000E-03 0.  1.
         23    2    1    0    0    0  0.38490383145E+01  0.24928152788E+02  0.14101486505E+02  0.96192252354E+02  0.91748948734E+02 0.  0.
         11    1    3    3    0    0 -0.29753929577E+02  0.24884507910E+02  0.38511052783E+02  0.54659274107E+02  0.51100000000E-03 0. -1.
         22    1    1    0    0    0 -0.38490383145E+01 -0.24928152788E+02 -0.14101486505E+02  0.28897747646E+02  0.00000000000E+00 0. -1.
</event>
<event>
 5    1  0.1055265E-009  0.9118800E+02  0.7815553E-02  0.1125453E+00
         25   -1    0    0    0    0  0.00000000000E+00  0.00000000000E+00  0.99999998245E-14  0.12509000000E+03  0.12509000000E+03 0.  0.
        -11    1    3    3    0    0 -0.28710191968E+02  0.37292911557E+01  0.25090376202E+02  0.38310699727E+02  0.51100000000E-03 0.  1.
         23    2    1    0    0    0  0.18095006079E+02 -0.22863049052E+02  0.69630609014E+01  0.95112800764E+02  0.90265233590E+02 0.  0.
         11    1    3    3    0    0  0.46805198046E+02 -0.26592340208E+02 -0.18127315301E+02  0.56802101037E+02  0.51100000000E-03 0. -1.
         22    1    1    0    0    0 -0.18095006079E+02  0.22863049052E+02 -0.69630609014E+01  0.29977199236E+02  0.00000000000E+00 0. -1.
</event>
<event>
 5    1  0.1055265E-009  0.9118800E+02  0.7815553E-02  0.1125453E+00
         25   -1    0    0    0    0  0.00000000000E+00  0.00000000000E+00  0.99999998245E-14  0.12509000000E+03  0.12509000000E+03 0.  0.
        -11    1    3    3    0    0  0.31340495015E+02 -0.47276775802E+01 -0.14781814109E+02  0.34972554836E+02  0.51100000000E-03 0. -1.
         23    2    1    0    0    0 -0.13644439700E+02  0.24486574160E+02  0.11606146248E+02  0.94750822695E+02  0.89762200963E+02 0.  0.
         11    1    3    3    0    0 -0.44984934715E+02  0.29214251741E+02  0.26387960358E+02  0.59778267859E+02  0.51100000000E-03 0.  1.
         22    1    1    0    0    0  0.13644439700E+02 -0.24486574160E+02 -0.11606146248E+02  0.30339177305E+02  0.00000000000E+00 0.  1.
</event>
<event>
 5    1  0.1055265E-009  0.9118800E+02  0.7815553E-02  0.1125453E+00
         25   -1    0    0    0    0  0.00000000000E+00  0.00000000000E+00  0.99999998245E-14  0.12509000000E+03  0.12509000000E+03 0.  0.
        -11    1    3    3    0    0  0.11910184224E+02  0.38862745952E+02 -0.88799355287E+01  0.41605513655E+02  0.51100000000E-03 0.  1.
         23    2    1    0    0    0 -0.49399634187E+01 -0.91563367788E+01 -0.27416335300E+02  0.95765996469E+02  0.91165941539E+02 0.  0.
         11    1    3    3    0    0 -0.16850147643E+02 -0.48019082731E+02 -0.18536399772E+02  0.54160482814E+02  0.51100000000E-03 0. -1.
         22    1    1    0    0    0  0.49399634187E+01  0.91563367788E+01  0.27416335300E+02  0.29324003531E+02  0.00000000000E+00 0.  1.
</event>
<event>
 5    1  0.1055265E-009  0.9118800E+02  0.7815553E-02  0.1125453E+00
         25   -1    0    0    0    0  0.00000000000E+00  0.00000000000E+00  0.99999998245E-14  0.12509000000E+03  0.12509000000E+03 0.  0.
        -11    1    3    3    0    0 -0.46053162292E+02  0.60307532379E+01  0.16325725129E+02  0.49232032692E+02  0.51100000000E-03 0.  1.
         23    2    1    0    0    0 -0.13383649716E+00  0.23345571023E+02  0.12876590070E+02  0.98428413955E+02  0.94748680747E+02 0.  0.
         11    1    3    3    0    0  0.45919325795E+02  0.17314817785E+02 -0.34491350592E+01  0.49196381263E+02  0.51100000000E-03 0. -1.
         22    1    1    0    0    0  0.13383649716E+00 -0.23345571023E+02 -0.12876590070E+02  0.26661586045E+02  0.00000000000E+00 0. -1.
</event>
<event>
 5    1  0.1055265E-009  0.9118800E+02  0.7815553E-02  0.1125453E+00
         25   -1    0    0    0    0  0.00000000000E+00  0.00000000000E+00  0.99999998245E-14  0.12509000000E+03  0.12509000000E+03 0.  0.
        -11    1    3    3    0    0  0.13241124350E+02  0.28109822399E+02  0.26311805283E+02  0.40716097392E+02  0.51100000000E-03 0.  1.
         23    2    1    0    0    0  0.21707081616E+02 -0.19564691948E+02 -0.90696140195E-01  0.95867016082E+02  0.91304446679E+02 0.  0.
         11    1    3    3    0    0  0.84659572662E+01 -0.47674514347E+02 -0.26402501423E+02  0.55150918690E+02  0.51100000000E-03 0. -1.
         22    1    1    0    0    0 -0.21707081616E+02  0.19564691948E+02  0.90696140195E-01  0.29222983918E+02  0.00000000000E+00 0. -1.
</event>
<event>
 5    1  0.1055265E-009  0.9118800E+02  0.7815553E-02  0.1125453E+00
         25   -1    0    0    0    0  0.00000000000E+00  0.00000000000E+00  0.99999998245E-14  0.12509000000E+03  0.12509000000E+03 0.  0.
        -11    1    3    3    0    0  0.28900030128E+02  0.31180672401E+02 -0.30122677205E+02  0.52103951434E+02  0.51100000000E-03 0.  1.
         23    2    1    0    0    0 -0.27790689001E+01  0.20730684599E+02 -0.33461901412E+02  0.85628837397E+02  0.75994173724E+02 0.  0.
         11    1    3    3    0    0 -0.31679099028E+02 -0.10449987802E+02 -0.33392242062E+01  0.33524885963E+02  0.51100000000E-03 0. -1.
         22    1    1    0    0    0  0.27790689001E+01 -0.20730684599E+02  0.33461901412E+02  0.39461162603E+02  0.00000000000E+00 0.  1.
</event>
<event>
 5    1  0.1055265E-009  0.9118800E+02  0.7815553E-02  0.1125453E+00
         25   -1    0    0    0    0  0.00000000000E+00  0.00000000000E+00  0.99999998245E-14  0.12509000000E+03  0.12509000000E+03 0.  0.
        -11    1    3    3    0    0 -0.13953155033E+02  0.39122424018E+02  0.85032947111E+01  0.42397648727E+02  0.51100000000E-03 0.  1.
         23    2    1    0    0    0  0.14601325448E+02 -0.52079044081E+01  0.23244595502E+02  0.97150204130E+02  0.93045848749E+02 0.  0.
         11    1    3    3    0    0  0.28554480481E+02 -0.44330328426E+02  0.14741300791E+02  0.54752555403E+02  0.51100000000E-03 0. -1.
         22    1    1    0    0    0 -0.14601325448E+02  0.52079044081E+01 -0.23244595502E+02  0.27939795870E+02  0.00000000000E+00 0. -1.
</event>
<event>
 5    1  0.1055265E-009  0.9118800E+02  0.7815553E-02  0.1125453E+00
         25   -1    0    0    0    0  0.00000000000E+00  0.00000000000E+00  0.99999998245E-14  0.12509000000E+03  0.12509000000E+03 0.  0.
        -11    1    3    3    0    0  0.13776365811E+02 -0.45019630493E+02 -0.19671480976E+01  0.47121386404E+02  0.51100000000E-03 0.  1.
         23    2    1    0    0    0 -0.45542393434E+01 -0.10404537881E+02  0.26973887108E+02  0.95822507961E+02  0.91243448761E+02 0.  0.
         11    1    3    3    0    0 -0.18330605155E+02  0.34615092612E+02  0.28941035206E+02  0.48701121558E+02  0.51100000000E-03 0. -1.
         22    1    1    0    0    0  0.45542393434E+01  0.10404537881E+02 -0.26973887108E+02  0.29267492039E+02  0.00000000000E+00 0. -1.
</event>
<event>
 5    1  0.1055265E-009  0.9118800E+02  0.7815553E-02  0.1125453E+00
         25   -1    0    0    0    0  0.00000000000E+00  0.00000000000E+00  0.99999998245E-14  0.12509000000E+03  0.12509000000E+03 0.  0.
        -11    1    3    3    0    0 -0.13111197994E+02 -0.41781616738E+02  0.44307754756E+02  0.62295940011E+02  0.51100000000E-03 0. -1.
         23    2    1    0    0    0 -0.34388606283E+01 -0.17054823763E+02  0.22455414541E+02  0.96683338489E+02  0.92416067451E+02 0.  0.
         11    1    3    3    0    0  0.96723373661E+01  0.24726792974E+02 -0.21852340215E+02  0.34387398478E+02  0.51100000000E-03 0.  1.
         22    1    1    0    0    0  0.34388606283E+01  0.17054823763E+02 -0.22455414541E+02  0.28406661511E+02  0.00000000000E+00 0. -1.
</event>
<event>
 5    1  0.1055265E-009  0.9118800E+02  0.7815553E-02  0.1125453E+00
         25   -1    0    0    0    0  0.00000000000E+00  0.00000000000E+00  0.99999998245E-14  0.12509000000E+03  0.12509000000E+03 0.  0.
        -11    1    3    3    0    0  0.19924617026E+02  0.35013451392E+02  0.37824947106E+02  0.55259920067E+02  0.51100000000E-03 0.  1.
         23    2    1    0    0    0  0.22024262217E+02 -0.13850685434E+01  0.16876327991E+02  0.97308765550E+02  0.93258773665E+02 0.  0.
         11    1    3    3    0    0  0.20996451907E+01 -0.36398519935E+02 -0.20948619115E+02  0.42048845483E+02  0.51100000000E-03 0. -1.
         22    1    1    0    0    0 -0.22024262217E+02  0.13850685434E+01 -0.16876327991E+02  0.27781234450E+02  0.00000000000E+00 0.  1.
</event>
<event>
 5    1  0.1055265E-009  0.9118800E+02  0.7815553E-02  0.1125453E+00
         25   -1    0    0    0    0  0.00000000000E+00  0.00000000000E+00  0.99999998245E-14  0.12509000000E+03  0.12509000000E+03 0.  0.
        -11    1    3    3    0    0  0.55024558031E+01  0.40783882723E+02 -0.67590921110E+01  0.41704765150E+02  0.51100000000E-03 0.  1.
         23    2    1    0    0    0  0.20854639653E+02 -0.32337507851E+01 -0.25535841495E+02  0.91962181780E+02  0.85788055915E+02 0.  0.
         11    1    3    3    0    0  0.15352183850E+02 -0.44017633508E+02 -0.18776749384E+02  0.50257416630E+02  0.51100000000E-03 0. -1.
         22    1    1    0    0    0 -0.20854639653E+02  0.32337507851E+01  0.25535841495E+02  0.33127818220E+02  0.00000000000E+00 0. -1.
</event>
<event>
 5    1  0.1055265E-009  0.9118800E+02  0.7815553E-02  0.1125453E+00
         25   -1    0    0    0    0  0.00000000000E+00  0.00000000000E+00  0.99999998245E-14  0.12509000000E+03  0.12509000000E+03 0.  0.
        -11    1    3    3    0    0  0.22604130369E+02 -0.29016627465E+02 -0.16721988757E+01  0.36819935206E+02  0.51100000000E-03 0. -1.
         23    2    1    0    0    0 -0.27936953162E+02 -0.26574763070E+01  0.10535792185E+02  0.95114369076E+02  0.90267406939E+02 0.  0.
         11    1    3    3    0    0 -0.50541083531E+02  0.26359151158E+02  0.12207991060E+02  0.58294433871E+02  0.51100000000E-03 0.  1.
         22    1    1    0    0    0  0.27936953162E+02  0.26574763070E+01 -0.10535792185E+02  0.29975630924E+02  0.00000000000E+00 0.  1.
</event>
<event>
 5    1  0.1055265E-009  0.9118800E+02  0.7815553E-02  0.1125453E+00
         25   -1    0    0    0    0  0.00000000000E+00  0.00000000000E+00  0.99999998245E-14  0.12509000000E+03  0.12509000000E+03 0.  0.
        -11    1    3    3    0    0  0.89715981476E+01 -0.22997075670E+02  0.23807903973E+02  0.34295354708E+02  0.51100000000E-03 0. -1.
         23    2    1    0    0    0 -0.11029555900E+02  0.18817491645E+02 -0.18071610715E+02  0.96764530737E+02  0.92525900156E+02 0.  0.
         11    1    3    3    0    0 -0.20001154047E+02  0.41814567315E+02 -0.41879514688E+02  0.62469176029E+02  0.51100000000E-03 0.  1.
         22    1    1    0    0    0  0.11029555900E+02 -0.18817491645E+02  0.18071610715E+02  0.28325469263E+02  0.00000000000E+00 0.  1.
</event>
<event>
 5    1  0.1055265E-009  0.9118800E+02  0.7815553E-02  0.1125453E+00
         25   -1    0    0    0    0  0.00000000000E+00  0.00000000000E+00  0.99999998245E-14  0.12509000000E+03  0.12509000000E+03 0.  0.
        -11    1    3    3    0    0  0.42111208394E+02  0.29165826742E+02 -0.78640546893E+01  0.51825116289E+02  0.51100000000E-03 0. -1.
         23    2    1    0    0    0  0.16592601616E+02  0.12674351837E+02 -0.29373473958E+02  0.89051762041E+02  0.81433787382E+02 0.  0.
         11    1    3    3    0    0 -0.25518606778E+02 -0.16491474904E+02 -0.21509419268E+02  0.37226645752E+02  0.51100000000E-03 0.  1.
         22    1    1    0    0    0 -0.16592601616E+02 -0.12674351837E+02  0.29373473958E+02  0.36038237959E+02  0.00000000000E+00 0. -1.
</event>
<event>
 5    1  0.1055265E-009  0.9118800E+02  0.7815553E-02  0.1125453E+00
         25   -1    0    0    0    0  0.00000000000E+00  0.00000000000E+00  0.99999998245E-14  0.12509000000E+03  0.12509000000E+03 0.  0.
        -11    1    3    3    0    0  0.37620173682E+02 -0.51667310216E+01  0.31021033739E+02  0.49033428514E+02  0.51100000000E-03 0.  1.
         23    2    1    0    0    0  0.34326016918E+02 -0.82885818230E+01 -0.84630417243E+01  0.88777480102E+02  0.81011368782E+02 0.  0.
         11    1    3    3    0    0 -0.32941567638E+01 -0.31218508014E+01 -0.39484075464E+02  0.39744051589E+02  0.51100000000E-03 0. -1.
         22    1    1    0    0    0 -0.34326016918E+02  0.82885818230E+01  0.84630417243E+01  0.36312519898E+02  0.00000000000E+00 0. -1.
</event>
<event>
 5    1  0.1055265E-009  0.9118800E+02  0.7815553E-02  0.1125453E+00
         25   -1    0    0    0    0  0.00000000000E+00  0.00000000000E+00  0.99999998245E-14  0.12509000000E+03  0.12509000000E+03 0.  0.
        -11    1    3    3    0    0  0.30849767151E+02 -0.72742037691E+01 -0.24486508269E+02  0.40052606172E+02  0.51100000000E-03 0.  1.
         23    2    1    0    0    0  0.78832665606E+01  0.24611061416E+02  0.14542300247E+02  0.95436522427E+02  0.90712739353E+02 0.  0.
         11    1    3    3    0    0 -0.22966500590E+02  0.31885265185E+02  0.39028808516E+02  0.55383916255E+02  0.51100000000E-03 0. -1.
         22    1    1    0    0    0 -0.78832665606E+01 -0.24611061416E+02 -0.14542300247E+02  0.29653477573E+02  0.00000000000E+00 0. -1.
</event>
<event>
 5    1  0.1055265E-009  0.9118800E+02  0.7815553E-02  0.1125453E+00
         25   -1    0    0    0    0  0.00000000000E+00  0.00000000000E+00  0.99999998245E-14  0.12509000000E+03  0.12509000000E+03 0.  0.
        -11    1    3    3    0    0  0.43738611535E+01  0.48820092418E+02  0.23794284653E+02  0.54485778580E+02  0.51100000000E-03 0.  1.
         23    2    1    0    0    0  0.19540601610E+02  0.83264585121E+01  0.16172837454E+02  0.98393077069E+02  0.94702016458E+02 0.  0.
         11    1    3    3    0    0  0.15166740457E+02 -0.40493633906E+02 -0.76214471983E+01  0.43907298489E+02  0.51100000000E-03 0. -1.
         22    1    1    0    0    0 -0.19540601610E+02 -0.83264585121E+01 -0.16172837454E+02  0.26696922931E+02  0.00000000000E+00 0.  1.
</event>
<event>
 5    1  0.1055265E-009  0.9118800E+02  0.7815553E-02  0.1125453E+00
         25   -1    0    0    0    0  0.00000000000E+00  0.00000000000E+00  0.99999998245E-14  0.12509000000E+03  0.12509000000E+03 0.  0.
        -11    1    3    3    0    0  0.18796309134E+02 -0.29934772619E+02  0.17702909348E+02  0.39532073668E+02  0.51100000000E-03 0. -1.
         23    2    1    0    0    0  0.82670746883E+01  0.62808047200E+01 -0.25902013338E+02  0.97184672071E+02  0.93092175605E+02 0.  0.
         11    1    3    3    0    0 -0.10529234446E+02  0.36215577339E+02 -0.43604922686E+02  0.57652598404E+02  0.51100000000E-03 0.  1.
         22    1    1    0    0    0 -0.82670746883E+01 -0.62808047200E+01  0.25902013338E+02  0.27905327929E+02  0.00000000000E+00 0.  1.
</event>
<event>
 5    1  0.1055265E-009  0.9118800E+02  0.7815553E-02  0.1125453E+00
         25   -1    0    0    0    0  0.00000000000E+00  0.00000000000E+00  0.99999998245E-14  0.12509000000E+03  0.12509000000E+03 0.  0.
        -11    1    3    3    0    0  0.52092597455E+02 -0.22037862912E+02  0.20066576022E+02  0.60016444287E+02  0.51100000000E-03 0. -1.
         23    2    1    0    0    0  0.20129041069E+02 -0.21292768199E+02  0.49828842915E+01  0.95368132498E+02  0.90618382729E+02 0.  0.
         11    1    3    3    0    0 -0.31963556386E+02  0.74509471328E+00 -0.15083691730E+02  0.35351688212E+02  0.51100000000E-03 0.  1.
         22    1    1    0    0    0 -0.20129041069E+02  0.21292768199E+02 -0.49828842915E+01  0.29721867502E+02  0.00000000000E+00 0. -1.
</event>
<event>
 5    1  0.1055265E-009  0.9118800E+02  0.7815553E-02  0.1125453E+00
         25   -1    0    0    0    0  0.00000000000E+00  0.00000000000E+00  0.99999998245E-14  0.12509000000E+03  0.12509000000E+03 0.  0.
        -11    1    3    3    0    0  0.24957419311E+01 -0.34689753917E+01 -0.60893012576E+02  0.61042784167E+02  0.51100000000E-03 0.  1.
         23    2    1    0    0    0 -0.80234321969E+01 -0.46207681387E+01 -0.27369707062E+02  0.96196612745E+02  0.91754893474E+02 0.  0.
         11    1    3    3    0    0 -0.10519174128E+02 -0.11517927470E+01  0.33523305513E+02  0.35153828578E+02  0.51100000000E-03 0. -1.
         22    1    1    0    0    0  0.80234321969E+01  0.46207681387E+01  0.27369707062E+02  0.28893387255E+02  0.00000000000E+00 0.  1.
</event>
<event>
 5    1  0.1055265E-009  0.9118800E+02  0.7815553E-02  0.1125453E+00
         25   -1    0    0    0    0  0.00000000000E+00  0.00000000000E+00  0.99999998245E-14  0.12509000000E+03  0.12509000000E+03 0.  0.
        -11    1    3    3    0    0  0.20776075138E+02  0.16705623520E+02  0.19391071487E+02  0.32965691393E+02  0.51100000000E-03 0. -1.
         23    2    1    0    0    0  0.27290006077E+01 -0.69061747916E+01 -0.31950292313E+02  0.92288111739E+02  0.86261994499E+02 0.  0.
         11    1    3    3    0    0 -0.18047074531E+02 -0.23611798311E+02 -0.51341363800E+02  0.59322420346E+02  0.51100000000E-03 0.  1.
         22    1    1    0    0    0 -0.27290006077E+01  0.69061747916E+01  0.31950292313E+02  0.32801888261E+02  0.00000000000E+00 0.  1.
</event>
<event>
 5    1  0.1055265E-009  0.9118800E+02  0.7815553E-02  0.1125453E+00
         25   -1    0    0    0    0  0.00000000000E+00  0.00000000000E+00  0.99999998245E-14  0.12509000000E+03  0.12509000000E+03 0.  0.
        -11    1    3    3    0    0 -0.30518618248E+02 -0.17492672082E+02 -0.37137749315E+02  0.51152634935E+02  0.51100000000E-03 0. -1.
         23    2    1    0    0    0  0.55283497676E+01 -0.33670903854E+01 -0.34532538984E+02  0.89956025026E+02  0.82811172199E+02 0.  0.
         11    1    3    3    0    0  0.36046968016E+02  0.14125581697E+02  0.26052103316E+01  0.38803390091E+02  0.51100000000E-03 0.  1.
         22    1    1    0    0    0 -0.55283497676E+01  0.33670903854E+01  0.34532538984E+02  0.35133974974E+02  0.00000000000E+00 0. -1.
</event>
<event>
 5    1  0.1055265E-009  0.9118800E+02  0.7815553E-02  0.1125453E+00
         25   -1    0    0    0    0  0.00000000000E+00  0.00000000000E+00  0.99999998245E-14  0.12509000000E+03  0.12509000000E+03 0.  0.
        -11    1    3    3    0    0 -0.29602681020E+02 -0.15871228965E+02  0.16359584192E+02  0.37361084402E+02  0.51100000000E-03 0. -1.
         23    2    1    0    0    0  0.49187551124E+00  0.16238158801E+02 -0.23355578314E+02  0.96639995059E+02  0.92357381209E+02 0.  0.
         11    1    3    3    0    0  0.30094556532E+02  0.32109387766E+02 -0.39715162507E+02  0.59278910657E+02  0.51100000000E-03 0.  1.
         22    1    1    0    0    0 -0.49187551124E+00 -0.16238158801E+02  0.23355578314E+02  0.28450004941E+02  0.00000000000E+00 0.  1.
</event>
<event>
 5    1  0.1055265E-009  0.9118800E+02  0.7815553E-02  0.1125453E+00
         25   -1    0    0    0    0  0.00000000000E+00  0.00000000000E+00  0.99999998245E-14  0.12509000000E+03  0.12509000000E+03 0.  0.
        -11    1    3    3    0    0 -0.25970860671E+00  0.20562808550E+02  0.33673618779E+02  0.39456420846E+02  0.51100000000E-03 0. -1.
         23    2    1    0    0    0  0.26274249478E+02  0.16367510643E+01 -0.12478910426E+02  0.95956885764E+02  0.91427488100E+02 0.  0.
         11    1    3    3    0    0  0.26533958085E+02 -0.18926057486E+02 -0.46152529205E+02  0.56500464918E+02  0.51100000000E-03 0.  1.
         22    1    1    0    0    0 -0.26274249478E+02 -0.16367510643E+01  0.12478910426E+02  0.29133114236E+02  0.00000000000E+00 0.  1.
</event>
<event>
 5    1  0.1055265E-009  0.9118800E+02  0.7815553E-02  0.1125453E+00
         25   -1    0    0    0    0  0.00000000000E+00  0.00000000000E+00  0.99999998245E-14  0.12509000000E+03  0.12509000000E+03 0.  0.
        -11    1    3    3    0    0  0.19162233732E+02  0.17327123615E+02 -0.54815572264E+02  0.60598410683E+02  0.51100000000E-03 0. -1.
         23    2    1    0    0    0 -0.98371471464E+00  0.11029205203E+02 -0.29625833971E+02  0.93462462939E+02  0.87948455803E+02 0.  0.
         11    1    3    3    0    0 -0.20145948447E+02 -0.62979184121E+01  0.25189738293E+02  0.32864052256E+02  0.51100000000E-03 0.  1.
         22    1    1    0    0    0  0.98371471464E+00 -0.11029205203E+02  0.29625833971E+02  0.31627537061E+02  0.00000000000E+00 0. -1.
</event>
<event>
 5    1  0.1055265E-009  0.9118800E+02  0.7815553E-02  0.1125453E+00
         25   -1    0    0    0    0  0.00000000000E+00  0.00000000000E+00  0.99999998245E-14  0.12509000000E+03  0.12509000000E+03 0.  0.
        -11    1    3    3    0    0 -0.14858069647E+02  0.12334430047E+02  0.57545973156E+02  0.60699583400E+02  0.51100000000E-03 0.  1.
         23    2    1    0    0    0 -0.85176412117E+01 -0.47750471399E+01  0.28111552880E+02  0.95330788110E+02  0.90566817705E+02 0.  0.
         11    1    3    3    0    0  0.63404284355E+01 -0.17109477187E+02 -0.29434420276E+02  0.34631204709E+02  0.51100000000E-03 0. -1.
         22    1    1    0    0    0  0.85176412117E+01  0.47750471399E+01 -0.28111552880E+02  0.29759211890E+02  0.00000000000E+00 0.  1.
</event>
<event>
 5    1  0.1055265E-009  0.9118800E+02  0.7815553E-02  0.1125453E+00
         25   -1    0    0    0    0  0.00000000000E+00  0.00000000000E+00  0.99999998245E-14  0.12509000000E+03  0.12509000000E+03 0.  0.
        -11    1    3    3    0    0 -0.52768293100E+02  0.89931735683E+00 -0.75103005019E+01  0.53307655569E+02  0.51100000000E-03 0.  1.
         23    2    1    0    0    0 -0.46310178186E+02 -0.10706746352E+02  0.11203501236E+02  0.76255734766E+02  0.58567496307E+02 0.  0.
         11    1    3    3    0    0  0.64581149144E+01 -0.11606063709E+02  0.18713801738E+02  0.22948079197E+02  0.51100000000E-03 0. -1.
         22    1    1    0    0    0  0.46310178186E+02  0.10706746352E+02 -0.11203501236E+02  0.48834265234E+02  0.00000000000E+00 0.  1.
</event>
<event>
 5    1  0.1055265E-009  0.9118800E+02  0.7815553E-02  0.1125453E+00
         25   -1    0    0    0    0  0.00000000000E+00  0.00000000000E+00  0.99999998245E-14  0.12509000000E+03  0.12509000000E+03 0.  0.
        -11    1    3    3    0    0  0.84486642008E+01 -0.39996760966E+01 -0.29007989994E+02  0.30476889923E+02  0.51100000000E-03 0. -1.
         23    2    1    0    0    0 -0.13538456160E+02 -0.77917184466E+01  0.28736736300E+02  0.92382192297E+02  0.86398314618E+02 0.  0.
         11    1    3    3    0    0 -0.21987120361E+02 -0.37920423501E+01  0.57744726294E+02  0.61905302374E+02  0.51100000000E-03 0.  1.
         22    1    1    0    0    0  0.13538456160E+02  0.77917184466E+01 -0.28736736300E+02  0.32707807703E+02  0.00000000000E+00 0.  1.
</event>
<event>
 5    1  0.1055265E-009  0.9118800E+02  0.7815553E-02  0.1125453E+00
         25   -1    0    0    0    0  0.00000000000E+00  0.00000000000E+00  0.99999998245E-14  0.12509000000E+03  0.12509000000E+03 0.  0.
        -11    1    3    3    0    0 -0.26161044294E+02  0.16745899811E+02 -0.39251020062E+02  0.50054649886E+02  0.51100000000E-03 0. -1.
         23    2    1    0    0    0 -0.23681794955E+02  0.13168095324E+02  0.74736282626E+01  0.96981615732E+02  0.92818923307E+02 0.  0.
         11    1    3    3    0    0  0.24792493394E+01 -0.35778044864E+01  0.46724648325E+02  0.46926965846E+02  0.51100000000E-03 0.  1.
         22    1    1    0    0    0  0.23681794955E+02 -0.13168095324E+02 -0.74736282626E+01  0.28108384268E+02  0.00000000000E+00 0.  1.
</event>
<event>
 5    1  0.1055265E-009  0.9118800E+02  0.7815553E-02  0.1125453E+00
         25   -1    0    0    0    0  0.00000000000E+00  0.00000000000E+00  0.99999998245E-14  0.12509000000E+03  0.12509000000E+03 0.  0.
        -11    1    3    3    0    0  0.26677868158E+02  0.65043644202E+01  0.22889790738E+02  0.35748537401E+02  0.51100000000E-03 0.  1.
         23    2    1    0    0    0 -0.22144973327E+02 -0.19947842752E+02  0.14631795981E+02  0.91887504194E+02  0.85679097213E+02 0.  0.
         11    1    3    3    0    0 -0.48822841486E+02 -0.26452207172E+02 -0.82579947568E+01  0.56138966794E+02  0.51100000000E-03 0. -1.
         22    1    1    0    0    0  0.22144973327E+02  0.19947842752E+02 -0.14631795981E+02  0.33202495806E+02  0.00000000000E+00 0. -1.
</event>
<event>
 5    1  0.1055265E-009  0.9118800E+02  0.7815553E-02  0.1125453E+00
         25   -1    0    0    0    0  0.00000000000E+00  0.00000000000E+00  0.99999998245E-14  0.12509000000E+03  0.12509000000E+03 0.  0.
        -11    1    3    3    0    0  0.44053719796E+02  0.41975092797E+02 -0.10608154155E+02  0.61767075194E+02  0.51100000000E-03 0.  1.
         23    2    1    0    0    0  0.19848756971E+02  0.16717736217E+02  0.22576119579E+01  0.99040956461E+02  0.95553955374E+02 0.  0.
         11    1    3    3    0    0 -0.24204962825E+02 -0.25257356580E+02  0.12865766113E+02  0.37273881267E+02  0.51100000000E-03 0. -1.
         22    1    1    0    0    0 -0.19848756971E+02 -0.16717736217E+02 -0.22576119579E+01  0.26049043539E+02  0.00000000000E+00 0.  1.
</event>
<event>
 5    1  0.1055265E-009  0.9118800E+02  0.7815553E-02  0.1125453E+00
         25   -1    0    0    0    0  0.00000000000E+00  0.00000000000E+00  0.99999998245E-14  0.12509000000E+03  0.12509000000E+03 0.  0.
        -11    1    3    3    0    0  0.18756167622E+02 -0.20523159319E+02  0.28058852737E+02  0.39500545686E+02  0.51100000000E-03 0. -1.
         23    2    1    0    0    0 -0.20809755118E+02 -0.14060053147E+02 -0.12935878317E+02  0.96839903533E+02  0.92627744039E+02 0.  0.
         11    1    3    3    0    0 -0.39565922741E+02  0.64631061721E+01 -0.40994731055E+02  0.57339357846E+02  0.51100000000E-03 0.  1.
         22    1    1    0    0    0  0.20809755118E+02  0.14060053147E+02  0.12935878317E+02  0.28250096467E+02  0.00000000000E+00 0.  1.
</event>
<event>
 5    1  0.1055265E-009  0.9118800E+02  0.7815553E-02  0.1125453E+00
         25   -1    0    0    0    0  0.00000000000E+00  0.00000000000E+00  0.99999998245E-14  0.12509000000E+03  0.12509000000E+03 0.  0.
        -11    1    3    3    0    0 -0.35577342751E+02 -0.39191839185E+02  0.32942820512E+02  0.62345625344E+02  0.51100000000E-03 0.  1.
         23    2    1    0    0    0 -0.17055851283E+02 -0.15242969226E+02  0.17206236168E+02  0.96466500268E+02  0.92122097985E+02 0.  0.
         11    1    3    3    0    0  0.18521491468E+02  0.23948869960E+02 -0.15736584344E+02  0.34120874925E+02  0.51100000000E-03 0. -1.
         22    1    1    0    0    0  0.17055851283E+02  0.15242969226E+02 -0.17206236168E+02  0.28623499732E+02  0.00000000000E+00 0.  1.
</event>
<event>
 5    1  0.1055265E-009  0.9118800E+02  0.7815553E-02  0.1125453E+00
         25   -1    0    0    0    0  0.00000000000E+00  0.00000000000E+00  0.99999998245E-14  0.12509000000E+03  0.12509000000E+03 0.  0.
        -11    1    3    3    0    0  0.44239626442E+02  0.74137419056E+01 -0.34850137756E+02  0.56803522942E+02  0.51100000000E-03 0. -1.
         23    2    1    0    0    0  0.14372840651E+02  0.14204193868E+02  0.20725342205E+01  0.10477662830E+03  0.10278866070E+03 0.  0.
         11    1    3    3    0    0 -0.29866785791E+02  0.67904519621E+01  0.36922671976E+02  0.47973105356E+02  0.51100000000E-03 0.  1.
         22    1    1    0    0    0 -0.14372840651E+02 -0.14204193868E+02 -0.20725342205E+01  0.20313371702E+02  0.00000000000E+00 0. -1.
</event>
<event>
 5    1  0.1055265E-009  0.9118800E+02  0.7815553E-02  0.1125453E+00
         25   -1    0    0    0    0  0.00000000000E+00  0.00000000000E+00  0.99999998245E-14  0.12509000000E+03  0.12509000000E+03 0.  0.
        -11    1    3    3    0    0 -0.31488241041E+02  0.84324549353E+01 -0.41661121435E+02  0.52898626254E+02  0.51100000000E-03 0.  1.
         23    2    1    0    0    0  0.76015258618E+01 -0.58562636839E+01 -0.26014721016E+02  0.97361950496E+02  0.93330084512E+02 0.  0.
         11    1    3    3    0    0  0.39089766903E+02 -0.14288718619E+02  0.15646400418E+02  0.44463324242E+02  0.51100000000E-03 0. -1.
         22    1    1    0    0    0 -0.76015258618E+01  0.58562636839E+01  0.26014721016E+02  0.27728049504E+02  0.00000000000E+00 0.  1.
</event>
<event>
 5    1  0.1055265E-009  0.9118800E+02  0.7815553E-02  0.1125453E+00
         25   -1    0    0    0    0  0.00000000000E+00  0.00000000000E+00  0.99999998245E-14  0.12509000000E+03  0.12509000000E+03 0.  0.
        -11    1    3    3    0    0  0.95534341775E+00  0.59151751430E+02  0.77800707487E+01  0.59668851835E+02  0.51100000000E-03 0.  1.
         23    2    1    0    0    0  0.32299449187E+01  0.24318626121E+02  0.16344810363E+02  0.95611517230E+02  0.90953731538E+02 0.  0.
         11    1    3    3    0    0  0.22746015009E+01 -0.34833125309E+02  0.85647396146E+01  0.35942665395E+02  0.51100000000E-03 0. -1.
         22    1    1    0    0    0 -0.32299449187E+01 -0.24318626121E+02 -0.16344810363E+02  0.29478482770E+02  0.00000000000E+00 0.  1.
</event>
<event>
 5    1  0.1055265E-009  0.9118800E+02  0.7815553E-02  0.1125453E+00
         25   -1    0    0    0    0  0.00000000000E+00  0.00000000000E+00  0.99999998245E-14  0.12509000000E+03  0.12509000000E+03 0.  0.
        -11    1    3    3    0    0 -0.28387982593E+02 -0.36991748323E+02  0.60185292489E+01  0.47015845141E+02  0.51100000000E-03 0.  1.
         23    2    1    0    0    0 -0.22038675383E+02  0.29788662303E+01 -0.20042129069E+02  0.95152334856E+02  0.90320003511E+02 0.  0.
         11    1    3    3    0    0  0.63493072097E+01  0.39970614554E+02 -0.26060658318E+02  0.48136489715E+02  0.51100000000E-03 0. -1.
         22    1    1    0    0    0  0.22038675383E+02 -0.29788662303E+01  0.20042129069E+02  0.29937665144E+02  0.00000000000E+00 0. -1.
</event>
<event>
 5    1  0.1055265E-009  0.9118800E+02  0.7815553E-02  0.1125453E+00
         25   -1    0    0    0    0  0.00000000000E+00  0.00000000000E+00  0.99999998245E-14  0.12509000000E+03  0.12509000000E+03 0.  0.
        -11    1    3    3    0    0 -0.33689894878E+02  0.89473152742E+01 -0.58728800031E+01  0.35349033754E+02  0.51100000000E-03 0.  1.
         23    2    1    0    0    0  0.21858266566E+02 -0.15643374709E+02 -0.10408074502E+02  0.96265930121E+02  0.91849345658E+02 0.  0.
         11    1    3    3    0    0  0.55548161444E+02 -0.24590689983E+02 -0.45351944986E+01  0.60916896368E+02  0.51100000000E-03 0. -1.
         22    1    1    0    0    0 -0.21858266566E+02  0.15643374709E+02  0.10408074502E+02  0.28824069879E+02  0.00000000000E+00 0. -1.
</event>
<event>
 5    1  0.1055265E-009  0.9118800E+02  0.7815553E-02  0.1125453E+00
         25   -1    0    0    0    0  0.00000000000E+00  0.00000000000E+00  0.99999998245E-14  0.12509000000E+03  0.12509000000E+03 0.  0.
        -11    1    3    3    0    0 -0.14721228558E+01 -0.46933239726E+02  0.13997979493E+02  0.48998362901E+02  0.51100000000E-03 0.  1.
         23    2    1    0    0    0 -0.22376964676E+01 -0.18324208369E+02 -0.22888129991E+02  0.95685061770E+02  0.91054822243E+02 0.  0.
         11    1    3    3    0    0 -0.76557361178E+00  0.28609031357E+02 -0.36886109484E+02  0.46686698869E+02  0.51100000000E-03 0. -1.
         22    1    1    0    0    0  0.22376964676E+01  0.18324208369E+02  0.22888129991E+02  0.29404938230E+02  0.00000000000E+00 0.  1.
</event>
<event>
 5    1  0.1055265E-009  0.9118800E+02  0.7815553E-02  0.1125453E+00
         25   -1    0    0    0    0  0.00000000000E+00  0.00000000000E+00  0.99999998245E-14  0.12509000000E+03  0.12509000000E+03 0.  0.
        -11    1    3    3    0    0  0.27134780905E+02  0.71536465525E+01 -0.48109024234E+02  0.55695145270E+02  0.51100000000E-03 0. -1.
         23    2    1    0    0    0  0.26901006811E+02  0.77637169975E+01 -0.77788942615E+01  0.96030566678E+02  0.91528241933E+02 0.  0.
         11    1    3    3    0    0 -0.23377409310E+00  0.61007044499E+00  0.40330129972E+02  0.40335421407E+02  0.51100000000E-03 0.  1.
         22    1    1    0    0    0 -0.26901006811E+02 -0.77637169975E+01  0.77788942615E+01  0.29059433322E+02  0.00000000000E+00 0. -1.
</event>
<event>
 5    1  0.1055265E-009  0.9118800E+02  0.7815553E-02  0.1125453E+00
         25   -1    0    0    0    0  0.00000000000E+00  0.00000000000E+00  0.99999998245E-14  0.12509000000E+03  0.12509000000E+03 0.  0.
        -11    1    3    3    0    0  0.15253704989E+02 -0.51881886871E+02  0.10051613632E+02  0.55004005655E+02  0.51100000000E-03 0. -1.
         23    2    1    0    0    0  0.22224951436E+02 -0.86839182280E+01  0.11099715603E+02  0.98773416091E+02  0.95203073153E+02 0.  0.
         11    1    3    3    0    0  0.69712464472E+01  0.43197968643E+02  0.10481019719E+01  0.43769410436E+02  0.51100000000E-03 0.  1.
         22    1    1    0    0    0 -0.22224951436E+02  0.86839182280E+01 -0.11099715603E+02  0.26316583909E+02  0.00000000000E+00 0. -1.
</event>
<event>
 5    1  0.1055265E-009  0.9118800E+02  0.7815553E-02  0.1125453E+00
         25   -1    0    0    0    0  0.00000000000E+00  0.00000000000E+00  0.99999998245E-14  0.12509000000E+03  0.12509000000E+03 0.  0.
        -11    1    3    3    0    0  0.24887366623E+02 -0.29915118588E+02  0.31244406579E+02  0.49904992539E+02  0.51100000000E-03 0.  1.
         23    2    1    0    0    0  0.17393668115E+02 -0.21807976630E+02 -0.12136942688E+02  0.94669071135E+02  0.89648201971E+02 0.  0.
         11    1    3    3    0    0 -0.74936985085E+01  0.81071419582E+01 -0.43381349267E+02  0.44764078596E+02  0.51100000000E-03 0. -1.
         22    1    1    0    0    0 -0.17393668115E+02  0.21807976630E+02  0.12136942688E+02  0.30420928865E+02  0.00000000000E+00 0.  1.
</event>
<event>
 5    1  0.1055265E-009  0.9118800E+02  0.7815553E-02  0.1125453E+00
         25   -1    0    0    0    0  0.00000000000E+00  0.00000000000E+00  0.99999998245E-14  0.12509000000E+03  0.12509000000E+03 0.  0.
        -11    1    3    3    0    0  0.32330557765E+01 -0.32552042919E+02 -0.14502015841E+02  0.35782630026E+02  0.51100000000E-03 0. -1.
         23    2    1    0    0    0  0.90350214837E+01  0.26858937077E+02 -0.27818113569E+01  0.96615931296E+02  0.92324783194E+02 0.  0.
         11    1    3    3    0    0  0.58019657072E+01  0.59410979995E+02  0.11720204484E+02  0.60833301271E+02  0.51100000000E-03 0.  1.
         22    1    1    0    0    0 -0.90350214837E+01 -0.26858937077E+02  0.27818113569E+01  0.28474068704E+02  0.00000000000E+00 0.  1.
</event>
<event>
 5    1  0.1055265E-009  0.9118800E+02  0.7815553E-02  0.1125453E+00
         25   -1    0    0    0    0  0.00000000000E+00  0.00000000000E+00  0.99999998245E-14  0.12509000000E+03  0.12509000000E+03 0.  0.
        -11    1    3    3    0    0 -0.23935972844E+02 -0.11586364936E+02  0.24179717169E+02  0.35942083566E+02  0.51100000000E-03 0.  1.
         23    2    1    0    0    0 -0.15690075573E+02 -0.35741365629E+02 -0.15474841123E+02  0.83100782380E+02  0.71712241883E+02 0.  0.
         11    1    3    3    0    0  0.82458972705E+01 -0.24155000693E+02 -0.39654558292E+02  0.47158698815E+02  0.51100000000E-03 0. -1.
         22    1    1    0    0    0  0.15690075573E+02  0.35741365629E+02  0.15474841123E+02  0.41989217620E+02  0.00000000000E+00 0. -1.
</event>
<event>
 5    1  0.1055265E-009  0.9118800E+02  0.7815553E-02  0.1125453E+00
         25   -1    0    0    0    0  0.00000000000E+00  0.00000000000E+00  0.99999998245E-14  0.12509000000E+03  0.12509000000E+03 0.  0.
        -11    1    3    3    0    0 -0.47268872410E+01 -0.33903471707E+01  0.54945525986E+02  0.55252590374E+02  0.51100000000E-03 0.  1.
         23    2    1    0    0    0  0.17063538773E+02  0.75387479327E+01  0.21788846874E+02  0.96406364875E+02  0.92040405608E+02 0.  0.
         11    1    3    3    0    0  0.21790426014E+02  0.10929095103E+02 -0.33156679112E+02  0.41153774501E+02  0.51100000000E-03 0. -1.
         22    1    1    0    0    0 -0.17063538773E+02 -0.75387479327E+01 -0.21788846874E+02  0.28683635125E+02  0.00000000000E+00 0.  1.
</event>
<event>
 5    1  0.1055265E-009  0.9118800E+02  0.7815553E-02  0.1125453E+00
         25   -1    0    0    0    0  0.00000000000E+00  0.00000000000E+00  0.99999998245E-14  0.12509000000E+03  0.12509000000E+03 0.  0.
        -11    1    3    3    0    0  0.38685593986E+02  0.12238146250E+02  0.24025885665E+02  0.47154963556E+02  0.51100000000E-03 0. -1.
         23    2    1    0    0    0  0.21742798775E+02 -0.18407423262E+02 -0.89234496202E+01  0.95236851375E+02  0.90436980140E+02 0.  0.
         11    1    3    3    0    0 -0.16942795211E+02 -0.30645569512E+02 -0.32949335285E+02  0.48081887819E+02  0.51100000000E-03 0.  1.
         22    1    1    0    0    0 -0.21742798775E+02  0.18407423262E+02  0.89234496202E+01  0.29853148625E+02  0.00000000000E+00 0.  1.
</event>
<event>
 5    1  0.1055265E-009  0.9118800E+02  0.7815553E-02  0.1125453E+00
         25   -1    0    0    0    0  0.00000000000E+00  0.00000000000E+00  0.99999998245E-14  0.12509000000E+03  0.12509000000E+03 0.  0.
        -11    1    3    3    0    0 -0.33120816106E+02 -0.18619898021E+02  0.19136870828E+02  0.42543023954E+02  0.51100000000E-03 0. -1.
         23    2    1    0    0    0 -0.52406016870E+01 -0.34408581904E+01 -0.26346012862E+02  0.98008349296E+02  0.94192466402E+02 0.  0.
         11    1    3    3    0    0  0.27880214419E+02  0.15179039831E+02 -0.45482883690E+02  0.55465325342E+02  0.51100000000E-03 0.  1.
         22    1    1    0    0    0  0.52406016870E+01  0.34408581904E+01  0.26346012862E+02  0.27081650704E+02  0.00000000000E+00 0.  1.
</event>
<event>
 5    1  0.1055265E-009  0.9118800E+02  0.7815553E-02  0.1125453E+00
         25   -1    0    0    0    0  0.00000000000E+00  0.00000000000E+00  0.99999998245E-14  0.12509000000E+03  0.12509000000E+03 0.  0.
        -11    1    3    3    0    0 -0.98532708622E+01  0.23830437367E+02 -0.21843622598E+02  0.33795273934E+02  0.51100000000E-03 0.  1.
         23    2    1    0    0    0 -0.61399009255E+01 -0.16936180817E+02  0.23887186330E+02  0.95171272173E+02  0.90346227217E+02 0.  0.
         11    1    3    3    0    0  0.37133699368E+01 -0.40766618184E+02  0.45730808928E+02  0.61375998239E+02  0.51100000000E-03 0. -1.
         22    1    1    0    0    0  0.61399009255E+01  0.16936180817E+02 -0.23887186330E+02  0.29918727827E+02  0.00000000000E+00 0. -1.
</event>
<event>
 5    1  0.1055265E-009  0.9118800E+02  0.7815553E-02  0.1125453E+00
         25   -1    0    0    0    0  0.00000000000E+00  0.00000000000E+00  0.99999998245E-14  0.12509000000E+03  0.12509000000E+03 0.  0.
        -11    1    3    3    0    0 -0.10849529595E+02 -0.35214331374E+02  0.43695661950E+01  0.37105990561E+02  0.51100000000E-03 0. -1.
         23    2    1    0    0    0  0.21819330839E+02  0.85701710032E+01  0.20374316300E+02  0.94031284734E+02  0.88753809579E+02 0.  0.
         11    1    3    3    0    0  0.32668860434E+02  0.43784502377E+02  0.16004750105E+02  0.56925294173E+02  0.51100000000E-03 0.  1.
         22    1    1    0    0    0 -0.21819330839E+02 -0.85701710032E+01 -0.20374316300E+02  0.31058715266E+02  0.00000000000E+00 0.  1.
</event>
<event>
 5    1  0.1055265E-009  0.9118800E+02  0.7815553E-02  0.1125453E+00
         25   -1    0    0    0    0  0.00000000000E+00  0.00000000000E+00  0.99999998245E-14  0.12509000000E+03  0.12509000000E+03 0.  0.
        -11    1    3    3    0    0  0.30391661635E+02  0.11149381779E+02 -0.86057466143E+01  0.33496577229E+02  0.51100000000E-03 0. -1.
         23    2    1    0    0    0 -0.26343776611E+02 -0.39407033663E+01  0.12213250935E+02  0.95786634877E+02  0.91194255376E+02 0.  0.
         11    1    3    3    0    0 -0.56735438246E+02 -0.15090085145E+02  0.20818997549E+02  0.62290057648E+02  0.51100000000E-03 0.  1.
         22    1    1    0    0    0  0.26343776611E+02  0.39407033663E+01 -0.12213250935E+02  0.29303365123E+02  0.00000000000E+00 0.  1.
</event>
<event>
 5    1  0.1055265E-009  0.9118800E+02  0.7815553E-02  0.1125453E+00
         25   -1    0    0    0    0  0.00000000000E+00  0.00000000000E+00  0.99999998245E-14  0.12509000000E+03  0.12509000000E+03 0.  0.
        -11    1    3    3    0    0 -0.46031513033E+01  0.12851232959E+02 -0.50126050344E+02  0.51951555451E+02  0.51100000000E-03 0.  1.
         23    2    1    0    0    0 -0.15625605784E+02  0.24015077612E+02 -0.10490938063E+02  0.94578636702E+02  0.89521925975E+02 0.  0.
         11    1    3    3    0    0 -0.11022454481E+02  0.11163844654E+02  0.39635112281E+02  0.42627081251E+02  0.51100000000E-03 0. -1.
         22    1    1    0    0    0  0.15625605784E+02 -0.24015077612E+02  0.10490938063E+02  0.30511363298E+02  0.00000000000E+00 0. -1.
</event>
<event>
 5    1  0.1055265E-009  0.9118800E+02  0.7815553E-02  0.1125453E+00
         25   -1    0    0    0    0  0.00000000000E+00  0.00000000000E+00  0.99999998245E-14  0.12509000000E+03  0.12509000000E+03 0.  0.
        -11    1    3    3    0    0  0.25102613640E+02  0.17669621616E+02 -0.19424478515E+02  0.36327222650E+02  0.51100000000E-03 0. -1.
         23    2    1    0    0    0  0.50773564345E+01 -0.61937239727E+01  0.29607414851E+02  0.94418502169E+02  0.89297887840E+02 0.  0.
         11    1    3    3    0    0 -0.20025257205E+02 -0.23863345589E+02  0.49031893366E+02  0.58091279519E+02  0.51100000000E-03 0.  1.
         22    1    1    0    0    0 -0.50773564345E+01  0.61937239727E+01 -0.29607414851E+02  0.30671497831E+02  0.00000000000E+00 0.  1.
</event>
<event>
 5    1  0.1055265E-009  0.9118800E+02  0.7815553E-02  0.1125453E+00
         25   -1    0    0    0    0  0.00000000000E+00  0.00000000000E+00  0.99999998245E-14  0.12509000000E+03  0.12509000000E+03 0.  0.
        -11    1    3    3    0    0 -0.23931030916E+02  0.23373889709E+02 -0.19307417374E+02  0.38623947581E+02  0.51100000000E-03 0. -1.
         23    2    1    0    0    0  0.26098356554E+02 -0.42827233907E+01 -0.11231579816E+02  0.96356494825E+02  0.91972603395E+02 0.  0.
         11    1    3    3    0    0  0.50029387470E+02 -0.27656613100E+02  0.80758375579E+01  0.57732547244E+02  0.51100000000E-03 0.  1.
         22    1    1    0    0    0 -0.26098356554E+02  0.42827233907E+01  0.11231579816E+02  0.28733505175E+02  0.00000000000E+00 0.  1.
</event>
<event>
 5    1  0.1055265E-009  0.9118800E+02  0.7815553E-02  0.1125453E+00
         25   -1    0    0    0    0  0.00000000000E+00  0.00000000000E+00  0.99999998245E-14  0.12509000000E+03  0.12509000000E+03 0.  0.
        -11    1    3    3    0    0 -0.33317684494E+02 -0.22702119302E+02  0.47150276081E+02  0.62037108698E+02  0.51100000000E-03 0.  1.
         23    2    1    0    0    0 -0.12668526046E+02 -0.68750920470E+01  0.25120147704E+02  0.96128296605E+02  0.91661710353E+02 0.  0.
         11    1    3    3    0    0  0.20649158448E+02  0.15827027255E+02 -0.22030128377E+02  0.34091187907E+02  0.51100000000E-03 0. -1.
         22    1    1    0    0    0  0.12668526046E+02  0.68750920470E+01 -0.25120147704E+02  0.28961703395E+02  0.00000000000E+00 0.  1.
</event>
<event>
 5    1  0.1055265E-009  0.9118800E+02  0.7815553E-02  0.1125453E+00
         25   -1    0    0    0    0  0.00000000000E+00  0.00000000000E+00  0.99999998245E-14  0.12509000000E+03  0.12509000000E+03 0.  0.
        -11    1    3    3    0    0 -0.23112079486E+02 -0.13152174886E+02 -0.48906513568E+02  0.55668617659E+02  0.51100000000E-03 0.  1.
         23    2    1    0    0    0 -0.16366098192E+02 -0.21377997003E+02 -0.94150136098E+01  0.96567896165E+02  0.92259677880E+02 0.  0.
         11    1    3    3    0    0  0.67459812936E+01 -0.82258221169E+01  0.39491499958E+02  0.40899278506E+02  0.51100000000E-03 0. -1.
         22    1    1    0    0    0  0.16366098192E+02  0.21377997003E+02  0.94150136098E+01  0.28522103835E+02  0.00000000000E+00 0.  1.
</event>
<event>
 5    1  0.1055265E-009  0.9118800E+02  0.7815553E-02  0.1125453E+00
         25   -1    0    0    0    0  0.00000000000E+00  0.00000000000E+00  0.99999998245E-14  0.12509000000E+03  0.12509000000E+03 0.  0.
        -11    1    3    3    0    0  0.35625688947E+02 -0.34233050360E+02 -0.23901867403E+02  0.54885250437E+02  0.51100000000E-03 0.  1.
         23    2    1    0    0    0  0.16711784600E+02 -0.21576182644E+02  0.10260201220E+02  0.95933746278E+02  0.91395823449E+02 0.  0.
         11    1    3    3    0    0 -0.18913904347E+02  0.12656867716E+02  0.34162068623E+02  0.41048495842E+02  0.51100000000E-03 0. -1.
         22    1    1    0    0    0 -0.16711784600E+02  0.21576182644E+02 -0.10260201220E+02  0.29156253722E+02  0.00000000000E+00 0.  1.
</event>
<event>
 5    1  0.1055265E-009  0.9118800E+02  0.7815553E-02  0.1125453E+00
         25   -1    0    0    0    0  0.00000000000E+00  0.00000000000E+00  0.99999998245E-14  0.12509000000E+03  0.12509000000E+03 0.  0.
        -11    1    3    3    0    0  0.27605623202E+02 -0.14282962872E+02  0.50901027703E+02  0.59640490292E+02  0.51100000000E-03 0. -1.
         23    2    1    0    0    0  0.74029529093E+01  0.52464420315E+01  0.27253237227E+02  0.96366006456E+02  0.91985539054E+02 0.  0.
         11    1    3    3    0    0 -0.20202670292E+02  0.19529404904E+02 -0.23647790476E+02  0.36725516164E+02  0.51100000000E-03 0.  1.
         22    1    1    0    0    0 -0.74029529093E+01 -0.52464420315E+01 -0.27253237227E+02  0.28723993544E+02  0.00000000000E+00 0. -1.
</event>
<event>
 5    1  0.1055265E-009  0.9118800E+02  0.7815553E-02  0.1125453E+00
         25   -1    0    0    0    0  0.00000000000E+00  0.00000000000E+00  0.99999998245E-14  0.12509000000E+03  0.12509000000E+03 0.  0.
        -11    1    3    3    0    0 -0.48005273621E+02  0.39686526828E+02 -0.44974703509E+01  0.62448009951E+02  0.51100000000E-03 0. -1.
         23    2    1    0    0    0 -0.23459068283E+02  0.18264843817E+02  0.16084277394E+00  0.95358564199E+02  0.90605173646E+02 0.  0.
         11    1    3    3    0    0  0.24546205337E+02 -0.21421683011E+02  0.46583131248E+01  0.32910554248E+02  0.51100000000E-03 0.  1.
         22    1    1    0    0    0  0.23459068283E+02 -0.18264843817E+02 -0.16084277394E+00  0.29731435801E+02  0.00000000000E+00 0. -1.
</event>
<event>
 5    1  0.1055265E-009  0.9118800E+02  0.7815553E-02  0.1125453E+00
         25   -1    0    0    0    0  0.00000000000E+00  0.00000000000E+00  0.99999998245E-14  0.12509000000E+03  0.12509000000E+03 0.  0.
        -11    1    3    3    0    0  0.34126062586E+02 -0.13122558091E+02 -0.77577931320E+01  0.37376102432E+02  0.51100000000E-03 0. -1.
         23    2    1    0    0    0 -0.75950549115E+01  0.12617961765E+02  0.24815072746E+02  0.96233706863E+02  0.91805450182E+02 0.  0.
         11    1    3    3    0    0 -0.41721117497E+02  0.25740519856E+02  0.32572865878E+02  0.58857604432E+02  0.51100000000E-03 0.  1.
         22    1    1    0    0    0  0.75950549115E+01 -0.12617961765E+02 -0.24815072746E+02  0.28856293137E+02  0.00000000000E+00 0.  1.
</event>
<event>
 5    1  0.1055265E-009  0.9118800E+02  0.7815553E-02  0.1125453E+00
         25   -1    0    0    0    0  0.00000000000E+00  0.00000000000E+00  0.99999998245E-14  0.12509000000E+03  0.12509000000E+03 0.  0.
        -11    1    3    3    0    0 -0.84417028037E+01 -0.57624607373E+02  0.18254794858E+01  0.58268259771E+02  0.51100000000E-03 0. -1.
         23    2    1    0    0    0 -0.17970019728E+02 -0.22059600230E+02 -0.62415357532E+01  0.95960902178E+02  0.91432983146E+02 0.  0.
         11    1    3    3    0    0 -0.95283169248E+01  0.35565007143E+02 -0.80670152389E+01  0.37692642407E+02  0.51100000000E-03 0.  1.
         22    1    1    0    0    0  0.17970019728E+02  0.22059600230E+02  0.62415357532E+01  0.29129097822E+02  0.00000000000E+00 0. -1.
</event>
<event>
 5    1  0.1055265E-009  0.9118800E+02  0.7815553E-02  0.1125453E+00
         25   -1    0    0    0    0  0.00000000000E+00  0.00000000000E+00  0.99999998245E-14  0.12509000000E+03  0.12509000000E+03 0.  0.
        -11    1    3    3    0    0  0.14725717645E+02  0.38895546644E+02  0.13666586466E+02  0.43777687180E+02  0.51100000000E-03 0. -1.
         23    2    1    0    0    0  0.14646414727E+02  0.77173208518E+01 -0.26021980858E+02  0.94248177854E+02  0.89058975043E+02 0.  0.
         11    1    3    3    0    0 -0.79302917898E-01 -0.31178225792E+02 -0.39688567323E+02  0.50470490675E+02  0.51100000000E-03 0.  1.
         22    1    1    0    0    0 -0.14646414727E+02 -0.77173208518E+01  0.26021980858E+02  0.30841822146E+02  0.00000000000E+00 0.  1.
</event>
<event>
 4    1  0.1055265E-009  0.9118800E+02  0.7815553E-02  0.1125453E+00
         25   -1    0    0    0    0  0.00000000000E+00  0.00000000000E+00  0.99999998245E-14  0.12509000000E+03  0.12509000000E+03 0.  0.
        -11    1    1    0    0    0  0.30741430138E+02  0.52511735270E+01 -0.65355065555E+01  0.31864136525E+02  0.51100000000E-03 0. -1.
         11    1    1    0    0    0  0.58573736615E+01 -0.41109924670E+02  0.62102823546E+01  0.41986930583E+02  0.51100000000E-03 0.  1.
         22    1    1    0    0    0 -0.36598803799E+02  0.35858751143E+02  0.32522420094E+00  0.51238932891E+02  0.00000000000E+00 0.  1.
</event>
<event>
 5    1  0.1055265E-009  0.9118800E+02  0.7815553E-02  0.1125453E+00
         25   -1    0    0    0    0  0.00000000000E+00  0.00000000000E+00  0.99999998245E-14  0.12509000000E+03  0.12509000000E+03 0.  0.
        -11    1    3    3    0    0 -0.66648452392E+01  0.22800904143E+02 -0.21104083229E+02  0.31775520782E+02  0.51100000000E-03 0. -1.
         23    2    1    0    0    0  0.41688017997E+01 -0.33160723679E+02 -0.32317460215E+01  0.91512378200E+02  0.85129658041E+02 0.  0.
         11    1    3    3    0    0  0.10833647039E+02 -0.55961627822E+02  0.17872337208E+02  0.59736857418E+02  0.51100000000E-03 0.  1.
         22    1    1    0    0    0 -0.41688017997E+01  0.33160723679E+02  0.32317460215E+01  0.33577621800E+02  0.00000000000E+00 0.  1.
</event>
<event>
 5    1  0.1055265E-009  0.9118800E+02  0.7815553E-02  0.1125453E+00
         25   -1    0    0    0    0  0.00000000000E+00  0.00000000000E+00  0.99999998245E-14  0.12509000000E+03  0.12509000000E+03 0.  0.
        -11    1    3    3    0    0  0.30151370337E+02 -0.39404640242E+02 -0.67026860179E+01  0.50067522467E+02  0.51100000000E-03 0. -1.
         23    2    1    0    0    0  0.99616976762E+01 -0.10713578035E+02  0.24194726945E+02  0.96816319892E+02  0.92595889815E+02 0.  0.
         11    1    3    3    0    0 -0.20189672661E+02  0.28691062207E+02  0.30897412962E+02  0.46748797426E+02  0.51100000000E-03 0.  1.
         22    1    1    0    0    0 -0.99616976762E+01  0.10713578035E+02 -0.24194726945E+02  0.28273680108E+02  0.00000000000E+00 0. -1.
</event>
<event>
 5    1  0.1055265E-009  0.9118800E+02  0.7815553E-02  0.1125453E+00
         25   -1    0    0    0    0  0.00000000000E+00  0.00000000000E+00  0.99999998245E-14  0.12509000000E+03  0.12509000000E+03 0.  0.
        -11    1    3    3    0    0 -0.17614986338E+02  0.50202283881E+00 -0.39747369421E+02  0.43478651621E+02  0.51100000000E-03 0.  1.
         23    2    1    0    0    0  0.22627449852E+02  0.14948067252E+02 -0.77416418258E+01  0.96887531677E+02  0.92692041594E+02 0.  0.
         11    1    3    3    0    0  0.40242436190E+02  0.14446044413E+02  0.32005727595E+02  0.53408880056E+02  0.51100000000E-03 0. -1.
         22    1    1    0    0    0 -0.22627449852E+02 -0.14948067252E+02  0.77416418258E+01  0.28202468323E+02  0.00000000000E+00 0. -1.
</event>
<event>
 5    1  0.1055265E-009  0.9118800E+02  0.7815553E-02  0.1125453E+00
         25   -1    0    0    0    0  0.00000000000E+00  0.00000000000E+00  0.99999998245E-14  0.12509000000E+03  0.12509000000E+03 0.  0.
        -11    1    3    3    0    0 -0.41522637838E+02 -0.25874291590E+02 -0.26096732663E+02  0.55449507430E+02  0.51100000000E-03 0.  1.
         23    2    1    0    0    0 -0.24333305526E+01 -0.12180496934E+02 -0.25333720902E+02  0.96875056833E+02  0.92675204983E+02 0.  0.
         11    1    3    3    0    0  0.39089307286E+02  0.13693794656E+02  0.76301176053E+00  0.41425549403E+02  0.51100000000E-03 0. -1.
         22    1    1    0    0    0  0.24333305526E+01  0.12180496934E+02  0.25333720902E+02  0.28214943167E+02  0.00000000000E+00 0.  1.
</event>
<event>
 5    1  0.1055265E-009  0.9118800E+02  0.7815553E-02  0.1125453E+00
         25   -1    0    0    0    0  0.00000000000E+00  0.00000000000E+00  0.99999998245E-14  0.12509000000E+03  0.12509000000E+03 0.  0.
        -11    1    3    3    0    0  0.16705204140E+01  0.37312027107E+02 -0.98245257875E+01  0.38619934133E+02  0.51100000000E-03 0. -1.
         23    2    1    0    0    0 -0.19921967895E+01 -0.47762564340E+01  0.28779743618E+02  0.95848674512E+02  0.91279314685E+02 0.  0.
         11    1    3    3    0    0 -0.36627172036E+01 -0.42088283541E+02  0.38604269406E+02  0.57228740379E+02  0.51100000000E-03 0.  1.
         22    1    1    0    0    0  0.19921967895E+01  0.47762564340E+01 -0.28779743618E+02  0.29241325488E+02  0.00000000000E+00 0.  1.
</event>
<event>
 5    1  0.1055265E-009  0.9118800E+02  0.7815553E-02  0.1125453E+00
         25   -1    0    0    0    0  0.00000000000E+00  0.00000000000E+00  0.99999998245E-14  0.12509000000E+03  0.12509000000E+03 0.  0.
        -11    1    3    3    0    0  0.60163460336E+01  0.45160752429E+02  0.19991215496E+02  0.49752775568E+02  0.51100000000E-03 0. -1.
         23    2    1    0    0    0  0.28460964948E+02  0.86241474776E+01  0.73715962409E+01  0.94451088847E+02  0.89343524151E+02 0.  0.
         11    1    3    3    0    0  0.22444618915E+02 -0.36536604951E+02 -0.12619619255E+02  0.44698313279E+02  0.51100000000E-03 0.  1.
         22    1    1    0    0    0 -0.28460964948E+02 -0.86241474776E+01 -0.73715962409E+01  0.30638911153E+02  0.00000000000E+00 0. -1.
</event>
<event>
 5    1  0.1055265E-009  0.9118800E+02  0.7815553E-02  0.1125453E+00
         25   -1    0    0    0    0  0.00000000000E+00  0.00000000000E+00  0.99999998245E-14  0.12509000000E+03  0.12509000000E+03 0.  0.
        -11    1    3    3    0    0 -0.49914869475E+01 -0.43273264698E+02  0.44688735552E+02  0.62406517809E+02  0.51100000000E-03 0. -1.
         23    2    1    0    0    0 -0.25134116737E+01 -0.20939615315E+02  0.17456263120E+02  0.97712895516E+02  0.93799275585E+02 0.  0.
         11    1    3    3    0    0  0.24780752738E+01  0.22333649383E+02 -0.27232472431E+02  0.35306377707E+02  0.51100000000E-03 0.  1.
         22    1    1    0    0    0  0.25134116737E+01  0.20939615315E+02 -0.17456263120E+02  0.27377104484E+02  0.00000000000E+00 0. -1.
</event>
<event>
 5    1  0.1055265E-009  0.9118800E+02  0.7815553E-02  0.1125453E+00
         25   -1    0    0    0    0  0.00000000000E+00  0.00000000000E+00  0.99999998245E-14  0.12509000000E+03  0.12509000000E+03 0.  0.
        -11    1    3    3    0    0 -0.13957732644E+02 -0.41994406298E+02 -0.26505790569E+02  0.51583964512E+02  0.51100000000E-03 0.  1.
         23    2    1    0    0    0 -0.26082589740E+02 -0.13023281456E+02  0.43531190848E+01  0.95613619740E+02  0.90956623105E+02 0.  0.
         11    1    3    3    0    0 -0.12124857097E+02  0.28971124842E+02  0.30858909654E+02  0.44029655228E+02  0.51100000000E-03 0. -1.
         22    1    1    0    0    0  0.26082589740E+02  0.13023281456E+02 -0.43531190848E+01  0.29476380260E+02  0.00000000000E+00 0.  1.
</event>
<event>
 5    1  0.1055265E-009  0.9118800E+02  0.7815553E-02  0.1125453E+00
         25   -1    0    0    0    0  0.00000000000E+00  0.00000000000E+00  0.99999998245E-14  0.12509000000E+03  0.12509000000E+03 0.  0.
        -11    1    3    3    0    0 -0.90323244186E+01 -0.10322249554E+02 -0.56492294837E+02  0.58133562565E+02  0.51100000000E-03 0.  1.
         23    2    1    0    0    0 -0.86497487608E+01  0.10849214350E+02 -0.29906239619E+02  0.92121730804E+02  0.86020384285E+02 0.  0.
         11    1    3    3    0    0  0.38257565782E+00  0.21171463904E+02  0.26586055218E+02  0.33988168239E+02  0.51100000000E-03 0. -1.
         22    1    1    0    0    0  0.86497487608E+01 -0.10849214350E+02  0.29906239619E+02  0.32968269196E+02  0.00000000000E+00 0.  1.
</event>
<event>
 5    1  0.1055265E-009  0.9118800E+02  0.7815553E-02  0.1125453E+00
         25   -1    0    0    0    0  0.00000000000E+00  0.00000000000E+00  0.99999998245E-14  0.12509000000E+03  0.12509000000E+03 0.  0.
        -11    1    3    3    0    0 -0.46965135044E+02 -0.25831937234E+02 -0.19304036047E+01  0.53635243537E+02  0.51100000000E-03 0.  1.
         23    2    1    0    0    0 -0.27733959334E+02  0.96018220792E+01  0.69756491117E+01  0.94923343438E+02  0.90002299756E+02 0.  0.
         11    1    3    3    0    0  0.19231175709E+02  0.35433759313E+02  0.89060527164E+01  0.41288099901E+02  0.51100000000E-03 0. -1.
         22    1    1    0    0    0  0.27733959334E+02 -0.96018220792E+01 -0.69756491117E+01  0.30166656562E+02  0.00000000000E+00 0.  1.
</event>
<event>
 5    1  0.1055265E-009  0.9118800E+02  0.7815553E-02  0.1125453E+00
         25   -1    0    0    0    0  0.00000000000E+00  0.00000000000E+00  0.99999998245E-14  0.12509000000E+03  0.12509000000E+03 0.  0.
        -11    1    3    3    0    0  0.31098282144E+02 -0.60970930226E+01  0.26096989036E+02  0.41052777405E+02  0.51100000000E-03 0.  1.
         23    2    1    0    0    0  0.45429278170E+01  0.17798588213E+02 -0.19051517995E+02  0.98625150229E+02  0.95008062733E+02 0.  0.
         11    1    3    3    0    0 -0.26555354327E+02  0.23895681235E+02 -0.45148507031E+02  0.57572372824E+02  0.51100000000E-03 0. -1.
         22    1    1    0    0    0 -0.45429278170E+01 -0.17798588213E+02  0.19051517995E+02  0.26464849771E+02  0.00000000000E+00 0. -1.
</event>
<event>
 5    1  0.1055265E-009  0.9118800E+02  0.7815553E-02  0.1125453E+00
         25   -1    0    0    0    0  0.00000000000E+00  0.00000000000E+00  0.99999998245E-14  0.12509000000E+03  0.12509000000E+03 0.  0.
        -11    1    3    3    0    0  0.43622174983E+02 -0.34128770183E+02  0.49705834785E+01  0.55609116203E+02  0.51100000000E-03 0.  1.
         23    2    1    0    0    0  0.39808835587E+01 -0.28224677059E+02  0.70000265684E+01  0.95739017036E+02  0.91128915181E+02 0.  0.
         11    1    3    3    0    0 -0.39641291424E+02  0.59040931241E+01  0.20294430899E+01  0.40129900833E+02  0.51100000000E-03 0. -1.
         22    1    1    0    0    0 -0.39808835587E+01  0.28224677059E+02 -0.70000265684E+01  0.29350982964E+02  0.00000000000E+00 0.  1.
</event>
<event>
 5    1  0.1055265E-009  0.9118800E+02  0.7815553E-02  0.1125453E+00
         25   -1    0    0    0    0  0.00000000000E+00  0.00000000000E+00  0.99999998245E-14  0.12509000000E+03  0.12509000000E+03 0.  0.
        -11    1    3    3    0    0  0.46660889954E+01  0.43242959006E+02 -0.10706401593E+02  0.44792331101E+02  0.51100000000E-03 0.  1.
         23    2    1    0    0    0 -0.28564102587E+02  0.51711376122E+01 -0.47302758990E+01  0.95678707426E+02  0.91046092304E+02 0.  0.
         11    1    3    3    0    0 -0.33230191582E+02 -0.38071821394E+02  0.59761256941E+01  0.50886376325E+02  0.51100000000E-03 0. -1.
         22    1    1    0    0    0  0.28564102587E+02 -0.51711376122E+01  0.47302758990E+01  0.29411292574E+02  0.00000000000E+00 0. -1.
</event>
<event>
 5    1  0.1055265E-009  0.9118800E+02  0.7815553E-02  0.1125453E+00
         25   -1    0    0    0    0  0.00000000000E+00  0.00000000000E+00  0.99999998245E-14  0.12509000000E+03  0.12509000000E+03 0.  0.
        -11    1    3    3    0    0  0.42620072060E+01  0.36358475303E+01  0.46052467544E+02  0.46391959000E+02  0.51100000000E-03 0. -1.
         23    2    1    0    0    0  0.27778636686E+01 -0.27181666488E+02  0.57161308588E+01  0.97175242763E+02  0.93079504374E+02 0.  0.
         11    1    3    3    0    0 -0.14841435375E+01 -0.30817514018E+02 -0.40336336685E+02  0.50783283763E+02  0.51100000000E-03 0.  1.
         22    1    1    0    0    0 -0.27778636686E+01  0.27181666488E+02 -0.57161308588E+01  0.27914757237E+02  0.00000000000E+00 0.  1.
</event>
<event>
 5    1  0.1055265E-009  0.9118800E+02  0.7815553E-02  0.1125453E+00
         25   -1    0    0    0    0  0.00000000000E+00  0.00000000000E+00  0.99999998245E-14  0.12509000000E+03  0.12509000000E+03 0.  0.
        -11    1    3    3    0    0 -0.43509628929E+02  0.20591724509E+02 -0.26320288964E+02  0.54862232357E+02  0.51100000000E-03 0.  1.
         23    2    1    0    0    0 -0.27673354473E+02 -0.10174563090E+02 -0.59647930564E+01  0.95008194235E+02  0.90120152762E+02 0.  0.
         11    1    3    3    0    0  0.15836274456E+02 -0.30766287599E+02  0.20355495907E+02  0.40145961879E+02  0.51100000000E-03 0. -1.
         22    1    1    0    0    0  0.27673354473E+02  0.10174563090E+02  0.59647930564E+01  0.30081805765E+02  0.00000000000E+00 0.  1.
</event>
<event>
 5    1  0.1055265E-009  0.9118800E+02  0.7815553E-02  0.1125453E+00
         25   -1    0    0    0    0  0.00000000000E+00  0.00000000000E+00  0.99999998245E-14  0.12509000000E+03  0.12509000000E+03 0.  0.
        -11    1    3    3    0    0  0.31416725201E+02  0.68644942079E+01  0.17775752270E+02  0.36743833116E+02  0.51100000000E-03 0. -1.
         23    2    1    0    0    0 -0.37883248603E+01 -0.47617636756E+01 -0.28447599793E+02  0.95998906303E+02  0.91484962036E+02 0.  0.
         11    1    3    3    0    0 -0.35205050061E+02 -0.11626257883E+02 -0.46223352062E+02  0.59255073186E+02  0.51100000000E-03 0.  1.
         22    1    1    0    0    0  0.37883248603E+01  0.47617636756E+01  0.28447599793E+02  0.29091093697E+02  0.00000000000E+00 0.  1.
</event>
<event>
 5    1  0.1055265E-009  0.9118800E+02  0.7815553E-02  0.1125453E+00
         25   -1    0    0    0    0  0.00000000000E+00  0.00000000000E+00  0.99999998245E-14  0.12509000000E+03  0.12509000000E+03 0.  0.
        -11    1    3    3    0    0 -0.18202408832E+02 -0.25713654522E+02 -0.46487806564E+01  0.31845421617E+02  0.51100000000E-03 0.  1.
         23    2    1    0    0    0 -0.44252488563E+01  0.32636246286E+02  0.15453552754E+01  0.92118868354E+02  0.86016221637E+02 0.  0.
         11    1    3    3    0    0  0.13777159975E+02  0.58349900808E+02  0.61941359317E+01  0.60273446736E+02  0.51100000000E-03 0. -1.
         22    1    1    0    0    0  0.44252488563E+01 -0.32636246286E+02 -0.15453552754E+01  0.32971131646E+02  0.00000000000E+00 0. -1.
</event>
<event>
 5    1  0.1055265E-009  0.9118800E+02  0.7815553E-02  0.1125453E+00
         25   -1    0    0    0    0  0.00000000000E+00  0.00000000000E+00  0.99999998245E-14  0.12509000000E+03  0.12509000000E+03 0.  0.
        -11    1    3    3    0    0 -0.27504552338E+02 -0.43392218977E+02  0.15778534388E+02  0.53743345772E+02  0.51100000000E-03 0. -1.
         23    2    1    0    0    0 -0.16978087539E+02 -0.28327434831E+01  0.23100868073E+02  0.96281494349E+02  0.91870540198E+02 0.  0.
         11    1    3    3    0    0  0.10526464799E+02  0.40559475494E+02  0.73223336847E+01  0.42538148577E+02  0.51100000000E-03 0.  1.
         22    1    1    0    0    0  0.16978087539E+02  0.28327434831E+01 -0.23100868073E+02  0.28808505651E+02  0.00000000000E+00 0. -1.
</event>
<event>
 5    1  0.1055265E-009  0.9118800E+02  0.7815553E-02  0.1125453E+00
         25   -1    0    0    0    0  0.00000000000E+00  0.00000000000E+00  0.99999998245E-14  0.12509000000E+03  0.12509000000E+03 0.  0.
        -11    1    3    3    0    0  0.73833308996E+00 -0.55851647508E+02 -0.20757745763E+02  0.59588888851E+02  0.51100000000E-03 0.  1.
         23    2    1    0    0    0 -0.67759179404E+01 -0.26340985375E+02  0.23124977752E+01  0.97793329500E+02  0.93906480470E+02 0.  0.
         11    1    3    3    0    0 -0.75142510304E+01  0.29510662133E+02  0.23070243539E+02  0.38204440649E+02  0.51100000000E-03 0. -1.
         22    1    1    0    0    0  0.67759179404E+01  0.26340985375E+02 -0.23124977752E+01  0.27296670500E+02  0.00000000000E+00 0.  1.
</event>
<event>
 5    1  0.1055265E-009  0.9118800E+02  0.7815553E-02  0.1125453E+00
         25   -1    0    0    0    0  0.00000000000E+00  0.00000000000E+00  0.99999998245E-14  0.12509000000E+03  0.12509000000E+03 0.  0.
        -11    1    3    3    0    0  0.17919289575E+02  0.16815263501E+02 -0.29759664872E+02  0.38593933190E+02  0.51100000000E-03 0.  1.
         23    2    1    0    0    0  0.14078415357E+02  0.11731455867E+02  0.25205287168E+02  0.93926955589E+02  0.88606645627E+02 0.  0.
         11    1    3    3    0    0 -0.38408742177E+01 -0.50838076340E+01  0.54964952040E+02  0.55333022399E+02  0.51100000000E-03 0. -1.
         22    1    1    0    0    0 -0.14078415357E+02 -0.11731455867E+02 -0.25205287168E+02  0.31163044411E+02  0.00000000000E+00 0. -1.
</event>
<event>
 5    1  0.1055265E-009  0.9118800E+02  0.7815553E-02  0.1125453E+00
         25   -1    0    0    0    0  0.00000000000E+00  0.00000000000E+00  0.99999998245E-14  0.12509000000E+03  0.12509000000E+03 0.  0.
        -11    1    3    3    0    0 -0.46586002615E+02  0.18464044447E+02  0.35655941702E+02  0.61502217488E+02  0.51100000000E-03 0. -1.
         23    2    1    0    0    0 -0.15725039277E+02  0.90558981754E+01  0.22092284518E+02  0.96500575604E+02  0.92168356309E+02 0.  0.
         11    1    3    3    0    0  0.30860963337E+02 -0.94081462717E+01 -0.13563657184E+02  0.34998358117E+02  0.51100000000E-03 0.  1.
         22    1    1    0    0    0  0.15725039277E+02 -0.90558981754E+01 -0.22092284518E+02  0.28589424396E+02  0.00000000000E+00 0. -1.
</event>
<event>
 5    1  0.1055265E-009  0.9118800E+02  0.7815553E-02  0.1125453E+00
         25   -1    0    0    0    0  0.00000000000E+00  0.00000000000E+00  0.99999998245E-14  0.12509000000E+03  0.12509000000E+03 0.  0.
        -11    1    3    3    0    0 -0.52565482467E+01 -0.23253106790E+02 -0.25100473074E+02  0.34617510361E+02  0.51100000000E-03 0.  1.
         23    2    1    0    0    0 -0.47547623386E+01  0.23236613976E+01  0.29608636636E+02  0.95012125564E+02  0.90125609421E+02 0.  0.
         11    1    3    3    0    0  0.50178590804E+00  0.25576768187E+02  0.54709109709E+02  0.60394615202E+02  0.51100000000E-03 0. -1.
         22    1    1    0    0    0  0.47547623386E+01 -0.23236613976E+01 -0.29608636636E+02  0.30077874436E+02  0.00000000000E+00 0. -1.
</event>
<event>
 5    1  0.1055265E-009  0.9118800E+02  0.7815553E-02  0.1125453E+00
         25   -1    0    0    0    0  0.00000000000E+00  0.00000000000E+00  0.99999998245E-14  0.12509000000E+03  0.12509000000E+03 0.  0.
        -11    1    3    3    0    0  0.86646757185E+01  0.40302915034E+02 -0.31926622752E+02  0.52141258195E+02  0.51100000000E-03 0. -1.
         23    2    1    0    0    0  0.16825653097E+02 -0.18438353816E+01 -0.23881788113E+02  0.95818134078E+02  0.91237452199E+02 0.  0.
         11    1    3    3    0    0  0.81609773784E+01 -0.42146750415E+02  0.80448346390E+01  0.43676875884E+02  0.51100000000E-03 0.  1.
         22    1    1    0    0    0 -0.16825653097E+02  0.18438353816E+01  0.23881788113E+02  0.29271865922E+02  0.00000000000E+00 0. -1.
</event>
<event>
 5    1  0.1055265E-009  0.9118800E+02  0.7815553E-02  0.1125453E+00
         25   -1    0    0    0    0  0.00000000000E+00  0.00000000000E+00  0.99999998245E-14  0.12509000000E+03  0.12509000000E+03 0.  0.
        -11    1    3    3    0    0  0.47151542024E+02 -0.33933374137E+01 -0.26123570948E+02  0.54011328565E+02  0.51100000000E-03 0. -1.
         23    2    1    0    0    0  0.12234134142E+02  0.16217673663E+02 -0.23328017569E+02  0.94156468340E+02  0.88930068871E+02 0.  0.
         11    1    3    3    0    0 -0.34917407882E+02  0.19611011076E+02  0.27955533796E+01  0.40145139775E+02  0.51100000000E-03 0.  1.
         22    1    1    0    0    0 -0.12234134142E+02 -0.16217673663E+02  0.23328017569E+02  0.30933531660E+02  0.00000000000E+00 0. -1.
</event>
<event>
 5    1  0.1055265E-009  0.9118800E+02  0.7815553E-02  0.1125453E+00
         25   -1    0    0    0    0  0.00000000000E+00  0.00000000000E+00  0.99999998245E-14  0.12509000000E+03  0.12509000000E+03 0.  0.
        -11    1    3    3    0    0 -0.22603602346E+02 -0.20284741079E+02 -0.10012103911E+02  0.31978677031E+02  0.51100000000E-03 0.  1.
         23    2    1    0    0    0  0.30151313862E+02  0.82342969684E+01  0.40437945874E+01  0.93574009632E+02  0.88106966976E+02 0.  0.
         11    1    3    3    0    0  0.52754916209E+02  0.28519038048E+02  0.14055898498E+02  0.61595332601E+02  0.51100000000E-03 0. -1.
         22    1    1    0    0    0 -0.30151313862E+02 -0.82342969684E+01 -0.40437945874E+01  0.31515990368E+02  0.00000000000E+00 0. -1.
</event>
<event>
 5    1  0.1055265E-009  0.9118800E+02  0.7815553E-02  0.1125453E+00
         25   -1    0    0    0    0  0.00000000000E+00  0.00000000000E+00  0.99999998245E-14  0.12509000000E+03  0.12509000000E+03 0.  0.
        -11    1    3    3    0    0 -0.24174704031E+02 -0.93400578328E+01 -0.33021846698E+02  0.41977319530E+02  0.51100000000E-03 0.  1.
         23    2    1    0    0    0  0.24452015625E+02 -0.11687255353E+02 -0.73754640608E+01  0.97002805837E+02  0.92847476349E+02 0.  0.
         11    1    3    3    0    0  0.48626719657E+02 -0.23471975198E+01  0.25646382637E+02  0.55025486308E+02  0.51100000000E-03 0. -1.
         22    1    1    0    0    0 -0.24452015625E+02  0.11687255353E+02  0.73754640608E+01  0.28087194163E+02  0.00000000000E+00 0. -1.
</event>
<event>
 5    1  0.1055265E-009  0.9118800E+02  0.7815553E-02  0.1125453E+00
         25   -1    0    0    0    0  0.00000000000E+00  0.00000000000E+00  0.99999998245E-14  0.12509000000E+03  0.12509000000E+03 0.  0.
        -11    1    3    3    0    0 -0.22635049645E+02  0.23422799412E+02 -0.42005626104E+02  0.53154921027E+02  0.51100000000E-03 0.  1.
         23    2    1    0    0    0  0.13236849853E+02  0.66330187584E+01 -0.24513273983E+02  0.96452406993E+02  0.92102959135E+02 0.  0.
         11    1    3    3    0    0  0.35871899498E+02 -0.16789780654E+02  0.17492352121E+02  0.43297485966E+02  0.51100000000E-03 0. -1.
         22    1    1    0    0    0 -0.13236849853E+02 -0.66330187584E+01  0.24513273983E+02  0.28637593007E+02  0.00000000000E+00 0. -1.
</event>
<event>
 5    1  0.1055265E-009  0.9118800E+02  0.7815553E-02  0.1125453E+00
         25   -1    0    0    0    0  0.00000000000E+00  0.00000000000E+00  0.99999998245E-14  0.12509000000E+03  0.12509000000E+03 0.  0.
        -11    1    3    3    0    0  0.52330772140E+02 -0.37683648907E+01  0.24933565320E+02  0.58089525446E+02  0.51100000000E-03 0. -1.
         23    2    1    0    0    0  0.28372688866E+02  0.47168421534E+01 -0.33712972324E+01  0.96130999354E+02  0.91665398698E+02 0.  0.
         11    1    3    3    0    0 -0.23958083274E+02  0.84852070441E+01 -0.28304862552E+02  0.38041473908E+02  0.51100000000E-03 0.  1.
         22    1    1    0    0    0 -0.28372688866E+02 -0.47168421534E+01  0.33712972324E+01  0.28959000646E+02  0.00000000000E+00 0.  1.
</event>
<event>
 5    1  0.1055265E-009  0.9118800E+02  0.7815553E-02  0.1125453E+00
         25   -1    0    0    0    0  0.00000000000E+00  0.00000000000E+00  0.99999998245E-14  0.12509000000E+03  0.12509000000E+03 0.  0.
        -11    1    3    3    0    0  0.14958181678E+02  0.18717842024E+02 -0.26306591649E+02  0.35582883154E+02  0.51100000000E-03 0.  1.
         23    2    1    0    0    0 -0.25945859034E+02 -0.13402390416E+01  0.13258101001E+02  0.95922190966E+02  0.91380006763E+02 0.  0.
         11    1    3    3    0    0 -0.40904040711E+02 -0.20058081065E+02  0.39564692650E+02  0.60339307812E+02  0.51100000000E-03 0. -1.
         22    1    1    0    0    0  0.25945859034E+02  0.13402390416E+01 -0.13258101001E+02  0.29167809034E+02  0.00000000000E+00 0. -1.
</event>
<event>
 5    1  0.1055265E-009  0.9118800E+02  0.7815553E-02  0.1125453E+00
         25   -1    0    0    0    0  0.00000000000E+00  0.00000000000E+00  0.99999998245E-14  0.12509000000E+03  0.12509000000E+03 0.  0.
        -11    1    3    3    0    0  0.56643998195E+02 -0.20563337246E+02  0.13816200627E+02  0.61824596806E+02  0.51100000000E-03 0.  1.
         23    2    1    0    0    0  0.24169175506E+02 -0.13032136679E+02  0.77816074018E+00  0.97620177191E+02  0.93675545526E+02 0.  0.
         11    1    3    3    0    0 -0.32474822690E+02  0.75312005677E+01 -0.13038039887E+02  0.35795580385E+02  0.51100000000E-03 0. -1.
         22    1    1    0    0    0 -0.24169175506E+02  0.13032136679E+02 -0.77816074018E+00  0.27469822809E+02  0.00000000000E+00 0.  1.
</event>
<event>
 5    1  0.1055265E-009  0.9118800E+02  0.7815553E-02  0.1125453E+00
         25   -1    0    0    0    0  0.00000000000E+00  0.00000000000E+00  0.99999998245E-14  0.12509000000E+03  0.12509000000E+03 0.  0.
        -11    1    3    3    0    0 -0.45688491736E+02 -0.27728510907E+02 -0.18625550534E+02  0.56596993976E+02  0.51100000000E-03 0. -1.
         23    2    1    0    0    0 -0.13299555526E+02 -0.55476211576E+01 -0.24870238451E+02  0.96346600091E+02  0.91959144792E+02 0.  0.
         11    1    3    3    0    0  0.32388936210E+02  0.22180889749E+02 -0.62446879169E+01  0.39749606115E+02  0.51100000000E-03 0.  1.
         22    1    1    0    0    0  0.13299555526E+02  0.55476211576E+01  0.24870238451E+02  0.28743399909E+02  0.00000000000E+00 0. -1.
</event>
<event>
 5    1  0.1055265E-009  0.9118800E+02  0.7815553E-02  0.1125453E+00
         25   -1    0    0    0    0  0.00000000000E+00  0.00000000000E+00  0.99999998245E-14  0.12509000000E+03  0.12509000000E+03 0.  0.
        -11    1    3    3    0    0  0.23540820340E+02 -0.26127253735E+02  0.56122187081E+01  0.35613208352E+02  0.51100000000E-03 0. -1.
         23    2    1    0    0    0 -0.18734622450E+02  0.39673947777E+01 -0.23230938494E+02  0.94983475741E+02  0.90085836073E+02 0.  0.
         11    1    3    3    0    0 -0.42275442790E+02  0.30094648513E+02 -0.28843157202E+02  0.59370267389E+02  0.51100000000E-03 0.  1.
         22    1    1    0    0    0  0.18734622450E+02 -0.39673947777E+01  0.23230938494E+02  0.30106524259E+02  0.00000000000E+00 0.  1.
</event>
<event>
 5    1  0.1055265E-009  0.9118800E+02  0.7815553E-02  0.1125453E+00
         25   -1    0    0    0    0  0.00000000000E+00  0.00000000000E+00  0.99999998245E-14  0.12509000000E+03  0.12509000000E+03 0.  0.
        -11    1    3    3    0    0  0.11719170672E+02  0.20493089597E+02 -0.28966586706E+02  0.37368018788E+02  0.51100000000E-03 0.  1.
         23    2    1    0    0    0 -0.28673332051E+02 -0.60160384155E+01  0.35093400175E+01  0.95582913454E+02  0.90914383834E+02 0.  0.
         11    1    3    3    0    0 -0.40392502723E+02 -0.26509128013E+02  0.32475926723E+02  0.58214894666E+02  0.51100000000E-03 0. -1.
         22    1    1    0    0    0  0.28673332051E+02  0.60160384155E+01 -0.35093400175E+01  0.29507086546E+02  0.00000000000E+00 0. -1.
</event>
<event>
 5    1  0.1055265E-009  0.9118800E+02  0.7815553E-02  0.1125453E+00
         25   -1    0    0    0    0  0.00000000000E+00  0.00000000000E+00  0.99999998245E-14  0.12509000000E+03  0.12509000000E+03 0.  0.
        -11    1    3    3    0    0  0.45419696102E+01  0.45226347793E+02  0.30366154545E+02  0.54664022581E+02  0.51100000000E-03 0. -1.
         23    2    1    0    0    0 -0.17484768333E+02  0.10113163165E+02  0.18298581150E+02  0.97835068979E+02  0.93962063925E+02 0.  0.
         11    1    3    3    0    0 -0.22026737943E+02 -0.35113184628E+02 -0.12067573394E+02  0.43171046398E+02  0.51100000000E-03 0.  1.
         22    1    1    0    0    0  0.17484768333E+02 -0.10113163165E+02 -0.18298581150E+02  0.27254931021E+02  0.00000000000E+00 0. -1.
</event>
<event>
 5    1  0.1055265E-009  0.9118800E+02  0.7815553E-02  0.1125453E+00
         25   -1    0    0    0    0  0.00000000000E+00  0.00000000000E+00  0.99999998245E-14  0.12509000000E+03  0.12509000000E+03 0.  0.
        -11    1    3    3    0    0 -0.35353489445E+02  0.22716677489E+02  0.13470138243E+02  0.44128916558E+02  0.51100000000E-03 0. -1.
         23    2    1    0    0    0 -0.13761939508E+02 -0.22689022147E+02  0.15334669956E+02  0.94441430577E+02  0.89330000570E+02 0.  0.
         11    1    3    3    0    0  0.21591549937E+02 -0.45405699636E+02  0.18645317123E+01  0.50312514019E+02  0.51100000000E-03 0.  1.
         22    1    1    0    0    0  0.13761939508E+02  0.22689022147E+02 -0.15334669956E+02  0.30648569423E+02  0.00000000000E+00 0.  1.
</event>
<event>
 5    1  0.1055265E-009  0.9118800E+02  0.7815553E-02  0.1125453E+00
         25   -1    0    0    0    0  0.00000000000E+00  0.00000000000E+00  0.99999998245E-14  0.12509000000E+03  0.12509000000E+03 0.  0.
        -11    1    3    3    0    0 -0.16864036690E+02  0.64943458927E+01  0.28765023305E+02  0.33970558253E+02  0.51100000000E-03 0. -1.
         23    2    1    0    0    0  0.20262408361E+02  0.85270048894E+01 -0.20051961728E+02  0.95335064710E+02  0.90572724311E+02 0.  0.
         11    1    3    3    0    0  0.37126445051E+02  0.20326589967E+01 -0.48816985032E+02  0.61364506457E+02  0.51100000000E-03 0.  1.
         22    1    1    0    0    0 -0.20262408361E+02 -0.85270048894E+01  0.20051961728E+02  0.29754935290E+02  0.00000000000E+00 0.  1.
</event>
<event>
 5    1  0.1055265E-009  0.9118800E+02  0.7815553E-02  0.1125453E+00
         25   -1    0    0    0    0  0.00000000000E+00  0.00000000000E+00  0.99999998245E-14  0.12509000000E+03  0.12509000000E+03 0.  0.
        -11    1    3    3    0    0  0.39455640258E+02  0.16126043135E+02 -0.30852302711E+02  0.52618071023E+02  0.51100000000E-03 0. -1.
         23    2    1    0    0    0  0.74659791193E+01 -0.12329185991E+02 -0.25544221861E+02  0.95759862907E+02  0.91157525208E+02 0.  0.
         11    1    3    3    0    0 -0.31989661139E+02 -0.28455229126E+02  0.53080808502E+01  0.43141791884E+02  0.51100000000E-03 0.  1.
         22    1    1    0    0    0 -0.74659791193E+01  0.12329185991E+02  0.25544221861E+02  0.29330137093E+02  0.00000000000E+00 0.  1.
</event>
<event>
 5    1  0.1055265E-009  0.9118800E+02  0.7815553E-02  0.1125453E+00
         25   -1    0    0    0    0  0.00000000000E+00  0.00000000000E+00  0.99999998245E-14  0.12509000000E+03  0.12509000000E+03 0.  0.
        -11    1    3    3    0    0  0.50358117865E+02 -0.12068926875E+02 -0.76895008247E+01  0.52351957500E+02  0.51100000000E-03 0.  1.
         23    2    1    0    0    0  0.93462965722E+01 -0.26045528625E+02 -0.98075334471E+01  0.95731687152E+02  0.91118853108E+02 0.  0.
         11    1    3    3    0    0 -0.41011821293E+02 -0.13976601750E+02 -0.21180326224E+01  0.43379729652E+02  0.51100000000E-03 0. -1.
         22    1    1    0    0    0 -0.93462965722E+01  0.26045528625E+02  0.98075334471E+01  0.29358312848E+02  0.00000000000E+00 0. -1.
</event>
<event>
 5    1  0.1055265E-009  0.9118800E+02  0.7815553E-02  0.1125453E+00
         25   -1    0    0    0    0  0.00000000000E+00  0.00000000000E+00  0.99999998245E-14  0.12509000000E+03  0.12509000000E+03 0.  0.
        -11    1    3    3    0    0  0.28645227065E+02 -0.43356446358E+02  0.17328824267E+02  0.54777902708E+02  0.51100000000E-03 0.  1.
         23    2    1    0    0    0  0.12375217703E+02 -0.56633143811E+01  0.25077638972E+02  0.96557437561E+02  0.92245496524E+02 0.  0.
         11    1    3    3    0    0 -0.16270009362E+02  0.37693131977E+02  0.77488147045E+01  0.41779534852E+02  0.51100000000E-03 0. -1.
         22    1    1    0    0    0 -0.12375217703E+02  0.56633143811E+01 -0.25077638972E+02  0.28532562439E+02  0.00000000000E+00 0. -1.
</event>
<event>
 5    1  0.1055265E-009  0.9118800E+02  0.7815553E-02  0.1125453E+00
         25   -1    0    0    0    0  0.00000000000E+00  0.00000000000E+00  0.99999998245E-14  0.12509000000E+03  0.12509000000E+03 0.  0.
        -11    1    3    3    0    0 -0.19873458567E+02  0.49319482363E+01  0.26515600768E+02  0.33501575383E+02  0.51100000000E-03 0. -1.
         23    2    1    0    0    0  0.90380649382E+01  0.34772954083E+01 -0.28129251549E+02  0.95340495905E+02  0.90580225025E+02 0.  0.
         11    1    3    3    0    0  0.28911523505E+02 -0.14546528279E+01 -0.54644852317E+02  0.61838920522E+02  0.51100000000E-03 0.  1.
         22    1    1    0    0    0 -0.90380649382E+01 -0.34772954083E+01  0.28129251549E+02  0.29749504095E+02  0.00000000000E+00 0.  1.
</event>
<event>
 5    1  0.1055265E-009  0.9118800E+02  0.7815553E-02  0.1125453E+00
         25   -1    0    0    0    0  0.00000000000E+00  0.00000000000E+00  0.99999998245E-14  0.12509000000E+03  0.12509000000E+03 0.  0.
        -11    1    3    3    0    0  0.15463015859E+02 -0.44584823798E+02 -0.58490597103E+01  0.47551265728E+02  0.51100000000E-03 0. -1.
         23    2    1    0    0    0  0.26448197836E+02  0.38497989892E+01  0.36460878605E+01  0.98115529149E+02  0.94334696599E+02 0.  0.
         11    1    3    3    0    0  0.10985181977E+02  0.48434622787E+02  0.94951475708E+01  0.50564263421E+02  0.51100000000E-03 0.  1.
         22    1    1    0    0    0 -0.26448197836E+02 -0.38497989892E+01 -0.36460878605E+01  0.26974470851E+02  0.00000000000E+00 0. -1.
</event>
<event>
 5    1  0.1055265E-009  0.9118800E+02  0.7815553E-02  0.1125453E+00
         25   -1    0    0    0    0  0.00000000000E+00  0.00000000000E+00  0.99999998245E-14  0.12509000000E+03  0.12509000000E+03 0.  0.
        -11    1    3    3    0    0  0.94042194705E+01  0.18412398776E+02  0.36482980395E+02  0.41934039053E+02  0.51100000000E-03 0.  1.
         23    2    1    0    0    0 -0.28568865767E+02  0.79168088123E+01  0.27357245923E+00  0.95443232978E+02  0.90721992518E+02 0.  0.
         11    1    3    3    0    0 -0.37973085237E+02 -0.10495589964E+02 -0.36209407936E+02  0.53509193925E+02  0.51100000000E-03 0. -1.
         22    1    1    0    0    0  0.28568865767E+02 -0.79168088123E+01 -0.27357245923E+00  0.29646767022E+02  0.00000000000E+00 0. -1.
</event>
<event>
 5    1  0.1055265E-009  0.9118800E+02  0.7815553E-02  0.1125453E+00
         25   -1    0    0    0    0  0.00000000000E+00  0.00000000000E+00  0.99999998245E-14  0.12509000000E+03  0.12509000000E+03 0.  0.
        -11    1    3    3    0    0  0.78944177656E+01  0.28328089339E+02  0.27148156855E+02  0.40022804729E+02  0.51100000000E-03 0. -1.
         23    2    1    0    0    0 -0.19683165381E+02  0.57074421200E+01 -0.18174999830E+02  0.97697801954E+02  0.93779144765E+02 0.  0.
         11    1    3    3    0    0 -0.27577583146E+02 -0.22620647219E+02 -0.45323156685E+02  0.57674997226E+02  0.51100000000E-03 0.  1.
         22    1    1    0    0    0  0.19683165381E+02 -0.57074421200E+01  0.18174999830E+02  0.27392198046E+02  0.00000000000E+00 0.  1.
</event>
<event>
 5    1  0.1055265E-009  0.9118800E+02  0.7815553E-02  0.1125453E+00
         25   -1    0    0    0    0  0.00000000000E+00  0.00000000000E+00  0.99999998245E-14  0.12509000000E+03  0.12509000000E+03 0.  0.
        -11    1    3    3    0    0 -0.27287532059E+02 -0.34506091769E+02 -0.23447286646E+01  0.44054256636E+02  0.51100000000E-03 0. -1.
         23    2    1    0    0    0  0.20591094138E+02 -0.21455943263E+02 -0.87504642414E+01  0.94091269647E+02  0.88838312344E+02 0.  0.
         11    1    3    3    0    0  0.47878626196E+02  0.13050148505E+02 -0.64057355768E+01  0.50037013010E+02  0.51100000000E-03 0.  1.
         22    1    1    0    0    0 -0.20591094138E+02  0.21455943263E+02  0.87504642414E+01  0.30998730353E+02  0.00000000000E+00 0.  1.
</event>
<event>
 5    1  0.1055265E-009  0.9118800E+02  0.7815553E-02  0.1125453E+00
         25   -1    0    0    0    0  0.00000000000E+00  0.00000000000E+00  0.99999998245E-14  0.12509000000E+03  0.12509000000E+03 0.  0.
        -11    1    3    3    0    0 -0.70440639388E+01 -0.59130551753E+02 -0.10728629802E+02  0.60507391987E+02  0.51100000000E-03 0. -1.
         23    2    1    0    0    0 -0.43077746459E+01 -0.25339938015E+02 -0.15996271649E+02  0.94815421759E+02  0.89852179248E+02 0.  0.
         11    1    3    3    0    0  0.27362892929E+01  0.33790613738E+02 -0.52676418475E+01  0.34308029771E+02  0.51100000000E-03 0.  1.
         22    1    1    0    0    0  0.43077746459E+01  0.25339938015E+02  0.15996271649E+02  0.30274578241E+02  0.00000000000E+00 0. -1.
</event>
<event>
 5    1  0.1055265E-009  0.9118800E+02  0.7815553E-02  0.1125453E+00
         25   -1    0    0    0    0  0.00000000000E+00  0.00000000000E+00  0.99999998245E-14  0.12509000000E+03  0.12509000000E+03 0.  0.
        -11    1    3    3    0    0 -0.54600612904E+02 -0.17622498728E+02 -0.16815852525E+02  0.59787559637E+02  0.51100000000E-03 0. -1.
         23    2    1    0    0    0 -0.22378513144E+02 -0.18682706871E+01 -0.18933300552E+02  0.95717254883E+02  0.91099038012E+02 0.  0.
         11    1    3    3    0    0  0.32222099760E+02  0.15754228041E+02 -0.21174480264E+01  0.35929695247E+02  0.51100000000E-03 0.  1.
         22    1    1    0    0    0  0.22378513144E+02  0.18682706871E+01  0.18933300552E+02  0.29372745117E+02  0.00000000000E+00 0. -1.
</event>
<event>
 5    1  0.1055265E-009  0.9118800E+02  0.7815553E-02  0.1125453E+00
         25   -1    0    0    0    0  0.00000000000E+00  0.00000000000E+00  0.99999998245E-14  0.12509000000E+03  0.12509000000E+03 0.  0.
        -11    1    3    3    0    0 -0.44929170044E+02  0.41579846346E+02 -0.59605326390E+01  0.61506437814E+02  0.51100000000E-03 0. -1.
         23    2    1    0    0    0 -0.26648095414E+02  0.15014823595E+02  0.95912237092E+00  0.94487943983E+02  0.89395110188E+02 0.  0.
         11    1    3    3    0    0  0.18281074630E+02 -0.26565022751E+02  0.69196550099E+01  0.32981506168E+02  0.51100000000E-03 0.  1.
         22    1    1    0    0    0  0.26648095414E+02 -0.15014823595E+02 -0.95912237092E+00  0.30602056017E+02  0.00000000000E+00 0. -1.
</event>
<event>
 5    1  0.1055265E-009  0.9118800E+02  0.7815553E-02  0.1125453E+00
         25   -1    0    0    0    0  0.00000000000E+00  0.00000000000E+00  0.99999998245E-14  0.12509000000E+03  0.12509000000E+03 0.  0.
        -11    1    3    3    0    0  0.66871062376E+01 -0.12649450557E+02 -0.49233957006E+02  0.51270932427E+02  0.51100000000E-03 0.  1.
         23    2    1    0    0    0 -0.21904573040E+02 -0.12712819801E+02 -0.15904429787E+02  0.95183863603E+02  0.90363659157E+02 0.  0.
         11    1    3    3    0    0 -0.28591679277E+02 -0.63369244866E-01  0.33329527219E+02  0.43912931176E+02  0.51100000000E-03 0. -1.
         22    1    1    0    0    0  0.21904573040E+02  0.12712819801E+02  0.15904429787E+02  0.29906136397E+02  0.00000000000E+00 0.  1.
</event>
<event>
 5    1  0.1055265E-009  0.9118800E+02  0.7815553E-02  0.1125453E+00
         25   -1    0    0    0    0  0.00000000000E+00  0.00000000000E+00  0.99999998245E-14  0.12509000000E+03  0.12509000000E+03 0.  0.
        -11    1    3    3    0    0 -0.47375197279E+02 -0.23974167437E+02  0.67910392658E+01  0.53528387199E+02  0.51100000000E-03 0.  1.
         23    2    1    0    0    0 -0.81867610485E+01 -0.21503964509E+02  0.19634541996E+02  0.94841714338E+02  0.89888775680E+02 0.  0.
         11    1    3    3    0    0  0.39188436230E+02  0.24702029288E+01  0.12843502731E+02  0.41313327140E+02  0.51100000000E-03 0. -1.
         22    1    1    0    0    0  0.81867610485E+01  0.21503964509E+02 -0.19634541996E+02  0.30248285662E+02  0.00000000000E+00 0.  1.
</event>
<event>
 5    1  0.1055265E-009  0.9118800E+02  0.7815553E-02  0.1125453E+00
         25   -1    0    0    0    0  0.00000000000E+00  0.00000000000E+00  0.99999998245E-14  0.12509000000E+03  0.12509000000E+03 0.  0.
        -11    1    3    3    0    0 -0.33295726254E+01 -0.33846446559E+02 -0.32992584639E+02  0.47383316050E+02  0.51100000000E-03 0.  1.
         23    2    1    0    0    0  0.25725327924E+02 -0.16801753042E+02 -0.24541470275E+00  0.94362949532E+02  0.89220034824E+02 0.  0.
         11    1    3    3    0    0  0.29054900549E+02  0.17044693517E+02  0.32747169936E+02  0.46979633482E+02  0.51100000000E-03 0. -1.
         22    1    1    0    0    0 -0.25725327924E+02  0.16801753042E+02  0.24541470275E+00  0.30727050468E+02  0.00000000000E+00 0. -1.
</event>
<event>
 5    1  0.1055265E-009  0.9118800E+02  0.7815553E-02  0.1125453E+00
         25   -1    0    0    0    0  0.00000000000E+00  0.00000000000E+00  0.99999998245E-14  0.12509000000E+03  0.12509000000E+03 0.  0.
        -11    1    3    3    0    0 -0.32984222838E+02  0.26057279450E+01  0.10403309232E+02  0.34683967732E+02  0.51100000000E-03 0.  1.
         23    2    1    0    0    0  0.26834826484E+02  0.11507831753E+02  0.11187113829E+01  0.95870321370E+02  0.91308974916E+02 0.  0.
         11    1    3    3    0    0  0.59819049322E+02  0.89021038083E+01 -0.92845978493E+01  0.61186353638E+02  0.51100000000E-03 0. -1.
         22    1    1    0    0    0 -0.26834826484E+02 -0.11507831753E+02 -0.11187113829E+01  0.29219678630E+02  0.00000000000E+00 0. -1.
</event>
<event>
 5    1  0.1055265E-009  0.9118800E+02  0.7815553E-02  0.1125453E+00
         25   -1    0    0    0    0  0.00000000000E+00  0.00000000000E+00  0.99999998245E-14  0.12509000000E+03  0.12509000000E+03 0.  0.
        -11    1    3    3    0    0  0.13543182699E+02 -0.31101975170E+02 -0.10923822009E+02  0.35638189413E+02  0.51100000000E-03 0. -1.
         23    2    1    0    0    0  0.10486745254E+02  0.26383973550E+02 -0.14292508192E+02  0.93303813115E+02  0.87722516294E+02 0.  0.
         11    1    3    3    0    0 -0.30564374448E+01  0.57485948720E+02 -0.33686861830E+01  0.57665623702E+02  0.51100000000E-03 0.  1.
         22    1    1    0    0    0 -0.10486745254E+02 -0.26383973550E+02  0.14292508192E+02  0.31786186885E+02  0.00000000000E+00 0.  1.
</event>
<event>
 5    1  0.1055265E-009  0.9118800E+02  0.7815553E-02  0.1125453E+00
         25   -1    0    0    0    0  0.00000000000E+00  0.00000000000E+00  0.99999998245E-14  0.12509000000E+03  0.12509000000E+03 0.  0.
        -11    1    3    3    0    0 -0.29967653732E+02 -0.11205765844E+02  0.42838144331E+02  0.53467149431E+02  0.51100000000E-03 0. -1.
         23    2    1    0    0    0  0.43958999652E+01 -0.20824995069E+02  0.20327486846E+02  0.95658535925E+02  0.91018374066E+02 0.  0.
         11    1    3    3    0    0  0.34363553697E+02 -0.96192292249E+01 -0.22510657485E+02  0.42191386493E+02  0.51100000000E-03 0.  1.
         22    1    1    0    0    0 -0.43958999652E+01  0.20824995069E+02 -0.20327486846E+02  0.29431464075E+02  0.00000000000E+00 0. -1.
</event>
<event>
 5    1  0.1055265E-009  0.9118800E+02  0.7815553E-02  0.1125453E+00
         25   -1    0    0    0    0  0.00000000000E+00  0.00000000000E+00  0.99999998245E-14  0.12509000000E+03  0.12509000000E+03 0.  0.
        -11    1    3    3    0    0  0.14162077440E+02 -0.30815247054E+02 -0.71855031278E+00  0.33921382685E+02  0.51100000000E-03 0.  1.
         23    2    1    0    0    0 -0.22823710062E+02  0.18463235055E+02 -0.30186436733E+01  0.95578561552E+02  0.90908395811E+02 0.  0.
         11    1    3    3    0    0 -0.36985787502E+02  0.49278482109E+02 -0.23000933605E+01  0.61657178867E+02  0.51100000000E-03 0. -1.
         22    1    1    0    0    0  0.22823710062E+02 -0.18463235055E+02  0.30186436733E+01  0.29511438448E+02  0.00000000000E+00 0. -1.
</event>
<event>
 5    1  0.1055265E-009  0.9118800E+02  0.7815553E-02  0.1125453E+00
         25   -1    0    0    0    0  0.00000000000E+00  0.00000000000E+00  0.99999998245E-14  0.12509000000E+03  0.12509000000E+03 0.  0.
        -11    1    3    3    0    0  0.10756059737E+02  0.91808082304E+01 -0.59644017871E+02  0.61297544232E+02  0.51100000000E-03 0. -1.
         23    2    1    0    0    0  0.12635263336E+02  0.55874244887E+00 -0.24679711676E+02  0.97358244897E+02  0.93325117778E+02 0.  0.
         11    1    3    3    0    0  0.18792035985E+01 -0.86220657815E+01  0.34964306194E+02  0.36060700665E+02  0.51100000000E-03 0.  1.
         22    1    1    0    0    0 -0.12635263336E+02 -0.55874244887E+00  0.24679711676E+02  0.27731755103E+02  0.00000000000E+00 0. -1.
</event>
<event>
 5    1  0.1055265E-009  0.9118800E+02  0.7815553E-02  0.1125453E+00
         25   -1    0    0    0    0  0.00000000000E+00  0.00000000000E+00  0.99999998245E-14  0.12509000000E+03  0.12509000000E+03 0.  0.
        -11    1    3    3    0    0  0.29746837382E+02  0.18950873641E+01  0.33699251892E+02  0.44990057443E+02  0.51100000000E-03 0.  1.
         23    2    1    0    0    0  0.26381759869E+02  0.14468953932E+01 -0.15600580943E+02  0.94406635031E+02  0.89281262604E+02 0.  0.
         11    1    3    3    0    0 -0.33650775133E+01 -0.44819197084E+00 -0.49299832835E+02  0.49416577588E+02  0.51100000000E-03 0. -1.
         22    1    1    0    0    0 -0.26381759869E+02 -0.14468953932E+01  0.15600580943E+02  0.30683364969E+02  0.00000000000E+00 0. -1.
</event>
<event>
 5    1  0.1055265E-009  0.9118800E+02  0.7815553E-02  0.1125453E+00
         25   -1    0    0    0    0  0.00000000000E+00  0.00000000000E+00  0.99999998245E-14  0.12509000000E+03  0.12509000000E+03 0.  0.
        -11    1    3    3    0    0 -0.90817860799E+01 -0.23891001654E+02  0.53140568283E+02  0.58967608024E+02  0.51100000000E-03 0.  1.
         23    2    1    0    0    0 -0.14425186993E+02 -0.20033906367E+02  0.18471246355E+02  0.94257705794E+02  0.89072356741E+02 0.  0.
         11    1    3    3    0    0 -0.53434009130E+01  0.38570952865E+01 -0.34669321928E+02  0.35290097769E+02  0.51100000000E-03 0. -1.
         22    1    1    0    0    0  0.14425186993E+02  0.20033906367E+02 -0.18471246355E+02  0.30832294206E+02  0.00000000000E+00 0. -1.
</event>
<event>
 5    1  0.1055265E-009  0.9118800E+02  0.7815553E-02  0.1125453E+00
         25   -1    0    0    0    0  0.00000000000E+00  0.00000000000E+00  0.99999998245E-14  0.12509000000E+03  0.12509000000E+03 0.  0.
        -11    1    3    3    0    0 -0.17233987641E+02 -0.42254333865E+02  0.38012887260E+02  0.59392075721E+02  0.51100000000E-03 0. -1.
         23    2    1    0    0    0 -0.54645180914E+01 -0.27573631197E+02  0.62752200706E+01  0.96288186129E+02  0.91879651205E+02 0.  0.
         11    1    3    3    0    0  0.11769469549E+02  0.14680702668E+02 -0.31737667189E+02  0.36896110407E+02  0.51100000000E-03 0.  1.
         22    1    1    0    0    0  0.54645180914E+01  0.27573631197E+02 -0.62752200706E+01  0.28801813871E+02  0.00000000000E+00 0. -1.
</event>
<event>
 5    1  0.1055265E-009  0.9118800E+02  0.7815553E-02  0.1125453E+00
         25   -1    0    0    0    0  0.00000000000E+00  0.00000000000E+00  0.99999998245E-14  0.12509000000E+03  0.12509000000E+03 0.  0.
        -11    1    3    3    0    0  0.30789190647E+02 -0.52688386948E+02  0.18201570853E+01  0.61052054445E+02  0.51100000000E-03 0.  1.
         23    2    1    0    0    0  0.22726310887E+02 -0.19879539519E+02  0.18846393589E+01  0.94837179247E+02  0.89882464385E+02 0.  0.
         11    1    3    3    0    0 -0.80628797599E+01  0.32808847429E+02  0.64482273556E-01  0.33785124802E+02  0.51100000000E-03 0. -1.
         22    1    1    0    0    0 -0.22726310887E+02  0.19879539519E+02 -0.18846393589E+01  0.30252820753E+02  0.00000000000E+00 0.  1.
</event>
<event>
 5    1  0.1055265E-009  0.9118800E+02  0.7815553E-02  0.1125453E+00
         25   -1    0    0    0    0  0.00000000000E+00  0.00000000000E+00  0.99999998245E-14  0.12509000000E+03  0.12509000000E+03 0.  0.
        -11    1    3    3    0    0 -0.14942977014E+02 -0.41358128869E+02 -0.15482810061E+02  0.46620862210E+02  0.51100000000E-03 0. -1.
         23    2    1    0    0    0  0.24951753246E+02 -0.15234970353E+02 -0.63095846473E+01  0.95181720709E+02  0.90360692710E+02 0.  0.
         11    1    3    3    0    0  0.39894730261E+02  0.26123158516E+02  0.91732254135E+01  0.48560858499E+02  0.51100000000E-03 0.  1.
         22    1    1    0    0    0 -0.24951753246E+02  0.15234970353E+02  0.63095846473E+01  0.29908279291E+02  0.00000000000E+00 0. -1.
</event>
<event>
 5    1  0.1055265E-009  0.9118800E+02  0.7815553E-02  0.1125453E+00
         25   -1    0    0    0    0  0.00000000000E+00  0.00000000000E+00  0.99999998245E-14  0.12509000000E+03  0.12509000000E+03 0.  0.
        -11    1    3    3    0    0  0.24812497706E+02 -0.49973206170E+02 -0.21177749962E+01  0.55834275750E+02  0.51100000000E-03 0.  1.
         23    2    1    0    0    0 -0.73710622145E+01 -0.25870181944E+02 -0.91970902970E+01  0.96661399227E+02  0.92386366735E+02 0.  0.
         11    1    3    3    0    0 -0.32183559921E+02  0.24103024226E+02 -0.70793153008E+01  0.40827123477E+02  0.51100000000E-03 0. -1.
         22    1    1    0    0    0  0.73710622145E+01  0.25870181944E+02  0.91970902970E+01  0.28428600773E+02  0.00000000000E+00 0.  1.
</event>
<event>
 5    1  0.1055265E-009  0.9118800E+02  0.7815553E-02  0.1125453E+00
         25   -1    0    0    0    0  0.00000000000E+00  0.00000000000E+00  0.99999998245E-14  0.12509000000E+03  0.12509000000E+03 0.  0.
        -11    1    3    3    0    0 -0.47342738634E+02  0.13286116542E+02  0.31370229318E+02  0.58326212648E+02  0.51100000000E-03 0.  1.
         23    2    1    0    0    0 -0.18261903058E+02  0.21952557501E+02  0.16353534694E+02  0.92183314036E+02  0.86109891450E+02 0.  0.
         11    1    3    3    0    0  0.29080835576E+02  0.86664409587E+01 -0.15016694624E+02  0.33857101388E+02  0.51100000000E-03 0. -1.
         22    1    1    0    0    0  0.18261903058E+02 -0.21952557501E+02 -0.16353534694E+02  0.32906685964E+02  0.00000000000E+00 0.  1.
</event>
<event>
 5    1  0.1055265E-009  0.9118800E+02  0.7815553E-02  0.1125453E+00
         25   -1    0    0    0    0  0.00000000000E+00  0.00000000000E+00  0.99999998245E-14  0.12509000000E+03  0.12509000000E+03 0.  0.
        -11    1    3    3    0    0 -0.18036526567E+02 -0.25279666714E+02  0.52822074778E+02  0.61274378201E+02  0.51100000000E-03 0. -1.
         23    2    1    0    0    0 -0.13806739430E+02 -0.45343452781E+01  0.23919304095E+02  0.97102155332E+02  0.92981229939E+02 0.  0.
         11    1    3    3    0    0  0.42297871373E+01  0.20745321436E+02 -0.28902770684E+02  0.35827777131E+02  0.51100000000E-03 0.  1.
         22    1    1    0    0    0  0.13806739430E+02  0.45343452781E+01 -0.23919304095E+02  0.27987844668E+02  0.00000000000E+00 0. -1.
</event>
<event>
 5    1  0.1055265E-009  0.9118800E+02  0.7815553E-02  0.1125453E+00
         25   -1    0    0    0    0  0.00000000000E+00  0.00000000000E+00  0.99999998245E-14  0.12509000000E+03  0.12509000000E+03 0.  0.
        -11    1    3    3    0    0 -0.33070450744E+02 -0.10134223053E+02 -0.46576790093E+01  0.34900589727E+02  0.51100000000E-03 0.  1.
         23    2    1    0    0    0  0.21673354984E+02  0.18071684639E+02  0.17540042438E+01  0.96816396890E+02  0.92595993833E+02 0.  0.
         11    1    3    3    0    0  0.54743805727E+02  0.28205907692E+02  0.64116832531E+01  0.61915807163E+02  0.51100000000E-03 0. -1.
         22    1    1    0    0    0 -0.21673354984E+02 -0.18071684639E+02 -0.17540042438E+01  0.28273603110E+02  0.00000000000E+00 0. -1.
</event>
<event>
 5    1  0.1055265E-009  0.9118800E+02  0.7815553E-02  0.1125453E+00
         25   -1    0    0    0    0  0.00000000000E+00  0.00000000000E+00  0.99999998245E-14  0.12509000000E+03  0.12509000000E+03 0.  0.
        -11    1    3    3    0    0  0.10375019532E+02  0.48247137326E+01 -0.29651274412E+02  0.31782337350E+02  0.51100000000E-03 0. -1.
         23    2    1    0    0    0 -0.16779939579E+02  0.31183445071E+01  0.26149758634E+02  0.93863403622E+02  0.88516880979E+02 0.  0.
         11    1    3    3    0    0 -0.27154959111E+02 -0.17063692255E+01  0.55801033046E+02  0.62081066272E+02  0.51100000000E-03 0.  1.
         22    1    1    0    0    0  0.16779939579E+02 -0.31183445071E+01 -0.26149758634E+02  0.31226596378E+02  0.00000000000E+00 0.  1.
</event>
<event>
 5    1  0.1055265E-009  0.9118800E+02  0.7815553E-02  0.1125453E+00
         25   -1    0    0    0    0  0.00000000000E+00  0.00000000000E+00  0.99999998245E-14  0.12509000000E+03  0.12509000000E+03 0.  0.
        -11    1    3    3    0    0  0.19573734242E+02 -0.48274371130E+02  0.15353169839E+02  0.54307143218E+02  0.51100000000E-03 0. -1.
         23    2    1    0    0    0 -0.45970562422E+01 -0.14989576012E+02  0.24077828106E+02  0.96357403155E+02  0.91973838788E+02 0.  0.
         11    1    3    3    0    0 -0.24170790484E+02  0.33284795117E+02  0.87246582672E+01  0.42050259937E+02  0.51100000000E-03 0.  1.
         22    1    1    0    0    0  0.45970562422E+01  0.14989576012E+02 -0.24077828106E+02  0.28732596845E+02  0.00000000000E+00 0. -1.
</event>
<event>
 5    1  0.1055265E-009  0.9118800E+02  0.7815553E-02  0.1125453E+00
         25   -1    0    0    0    0  0.00000000000E+00  0.00000000000E+00  0.99999998245E-14  0.12509000000E+03  0.12509000000E+03 0.  0.
        -11    1    3    3    0    0 -0.54256180742E+02 -0.26821262087E+02  0.13910704846E+02  0.62101698514E+02  0.51100000000E-03 0.  1.
         23    2    1    0    0    0 -0.15588607486E+02 -0.13028112216E+02  0.59532377305E+01  0.10391979852E+03  0.10174058725E+03 0.  0.
         11    1    3    3    0    0  0.38667573256E+02  0.13793149871E+02 -0.79574671160E+01  0.41818100005E+02  0.51100000000E-03 0. -1.
         22    1    1    0    0    0  0.15588607486E+02  0.13028112216E+02 -0.59532377305E+01  0.21170201481E+02  0.00000000000E+00 0.  1.
</event>
<event>
 5    1  0.1055265E-009  0.9118800E+02  0.7815553E-02  0.1125453E+00
         25   -1    0    0    0    0  0.00000000000E+00  0.00000000000E+00  0.99999998245E-14  0.12509000000E+03  0.12509000000E+03 0.  0.
        -11    1    3    3    0    0  0.67811118131E+00 -0.15233013458E+02 -0.57995554118E+02  0.59966564279E+02  0.51100000000E-03 0.  1.
         23    2    1    0    0    0  0.39372374672E+01 -0.18794358440E+02 -0.23761089764E+02  0.94539727745E+02  0.89467541530E+02 0.  0.
         11    1    3    3    0    0  0.32591262858E+01 -0.35613449826E+01  0.34234464354E+02  0.34573163466E+02  0.51100000000E-03 0. -1.
         22    1    1    0    0    0 -0.39372374672E+01  0.18794358440E+02  0.23761089764E+02  0.30550272255E+02  0.00000000000E+00 0.  1.
</event>
<event>
 5    1  0.1055265E-009  0.9118800E+02  0.7815553E-02  0.1125453E+00
         25   -1    0    0    0    0  0.00000000000E+00  0.00000000000E+00  0.99999998245E-14  0.12509000000E+03  0.12509000000E+03 0.  0.
        -11    1    3    3    0    0 -0.32576455609E+02  0.34382775128E+01 -0.50034878777E+02  0.59804149579E+02  0.51100000000E-03 0.  1.
         23    2    1    0    0    0 -0.20257810689E+02 -0.91250533549E+01 -0.17440659372E+02  0.96844255330E+02  0.92633620778E+02 0.  0.
         11    1    3    3    0    0  0.12318644920E+02 -0.12563330868E+02  0.32594219406E+02  0.37040105751E+02  0.51100000000E-03 0. -1.
         22    1    1    0    0    0  0.20257810689E+02  0.91250533549E+01  0.17440659372E+02  0.28245744670E+02  0.00000000000E+00 0.  1.
</event>
<event>
 5    1  0.1055265E-009  0.9118800E+02  0.7815553E-02  0.1125453E+00
         25   -1    0    0    0    0  0.00000000000E+00  0.00000000000E+00  0.99999998245E-14  0.12509000000E+03  0.12509000000E+03 0.  0.
        -11    1    3    3    0    0 -0.31470246279E+02 -0.35869895212E+02 -0.31953456668E+02  0.57428644218E+02  0.51100000000E-03 0.  1.
         23    2    1    0    0    0  0.66771941325E+00 -0.25896721728E+02 -0.15702712980E+02  0.94797076067E+02  0.89826635195E+02 0.  0.
         11    1    3    3    0    0  0.32137965693E+02  0.99731734835E+01  0.16250743688E+02  0.37368431849E+02  0.51100000000E-03 0. -1.
         22    1    1    0    0    0 -0.66771941325E+00  0.25896721728E+02  0.15702712980E+02  0.30292923933E+02  0.00000000000E+00 0.  1.
</event>
<event>
 5    1  0.1055265E-009  0.9118800E+02  0.7815553E-02  0.1125453E+00
         25   -1    0    0    0    0  0.00000000000E+00  0.00000000000E+00  0.99999998245E-14  0.12509000000E+03  0.12509000000E+03 0.  0.
        -11    1    3    3    0    0  0.20200248172E+02 -0.39398954394E+02 -0.35379992928E+02  0.56675140348E+02  0.51100000000E-03 0.  1.
         23    2    1    0    0    0  0.14809015074E+02 -0.26096542095E+02  0.24547560267E+00  0.95083389144E+02  0.90224465618E+02 0.  0.
         11    1    3    3    0    0 -0.53912330974E+01  0.13302412299E+02  0.35625468531E+02  0.38408248796E+02  0.51100000000E-03 0. -1.
         22    1    1    0    0    0 -0.14809015074E+02  0.26096542095E+02 -0.24547560267E+00  0.30006610856E+02  0.00000000000E+00 0.  1.
</event>
<event>
 5    1  0.1055265E-009  0.9118800E+02  0.7815553E-02  0.1125453E+00
         25   -1    0    0    0    0  0.00000000000E+00  0.00000000000E+00  0.99999998245E-14  0.12509000000E+03  0.12509000000E+03 0.  0.
        -11    1    3    3    0    0  0.88364650792E+01  0.31127842190E+02 -0.23449556624E+02  0.39961323559E+02  0.51100000000E-03 0.  1.
         23    2    1    0    0    0 -0.15594267203E+02  0.71366193360E+01  0.22207424463E+02  0.97031450386E+02  0.92886060082E+02 0.  0.
         11    1    3    3    0    0 -0.24430732282E+02 -0.23991222854E+02  0.45656981087E+02  0.57070126827E+02  0.51100000000E-03 0. -1.
         22    1    1    0    0    0  0.15594267203E+02 -0.71366193360E+01 -0.22207424463E+02  0.28058549614E+02  0.00000000000E+00 0. -1.
</event>
<event>
 5    1  0.1055265E-009  0.9118800E+02  0.7815553E-02  0.1125453E+00
         25   -1    0    0    0    0  0.00000000000E+00  0.00000000000E+00  0.99999998245E-14  0.12509000000E+03  0.12509000000E+03 0.  0.
        -11    1    3    3    0    0  0.43103450476E+02 -0.26466890235E+02 -0.34489736977E+02  0.61220467808E+02  0.51100000000E-03 0. -1.
         23    2    1    0    0    0  0.21178139178E+02 -0.44720521105E+01 -0.20484184970E+02  0.95288747291E+02  0.90508732713E+02 0.  0.
         11    1    3    3    0    0 -0.21925311298E+02  0.21994838125E+02  0.14005552006E+02  0.34068279483E+02  0.51100000000E-03 0.  1.
         22    1    1    0    0    0 -0.21178139178E+02  0.44720521105E+01  0.20484184970E+02  0.29801252709E+02  0.00000000000E+00 0.  1.
</event>
<event>
 5    1  0.1055265E-009  0.9118800E+02  0.7815553E-02  0.1125453E+00
         25   -1    0    0    0    0  0.00000000000E+00  0.00000000000E+00  0.99999998245E-14  0.12509000000E+03  0.12509000000E+03 0.  0.
        -11    1    3    3    0    0  0.39433895600E+02 -0.36680482739E+02  0.29760803410E+01  0.53938362884E+02  0.51100000000E-03 0.  1.
         23    2    1    0    0    0  0.14693726716E+02 -0.18405565661E+02 -0.21464778895E+02  0.93224545584E+02  0.87609409963E+02 0.  0.
         11    1    3    3    0    0 -0.24740168884E+02  0.18274917078E+02 -0.24440859236E+02  0.39286182699E+02  0.51100000000E-03 0. -1.
         22    1    1    0    0    0 -0.14693726716E+02  0.18405565661E+02  0.21464778895E+02  0.31865454416E+02  0.00000000000E+00 0.  1.
</event>
<event>
 5    1  0.1055265E-009  0.9118800E+02  0.7815553E-02  0.1125453E+00
         25   -1    0    0    0    0  0.00000000000E+00  0.00000000000E+00  0.99999998245E-14  0.12509000000E+03  0.12509000000E+03 0.  0.
        -11    1    3    3    0    0  0.20907125677E+01 -0.42541060964E+02 -0.37213839137E+02  0.56559550657E+02  0.51100000000E-03 0.  1.
         23    2    1    0    0    0 -0.13112477473E+02 -0.89391672988E+01 -0.25127527956E+02  0.95370672305E+02  0.90621888621E+02 0.  0.
         11    1    3    3    0    0 -0.15203190041E+02  0.33601893665E+02  0.12086311181E+02  0.38811121647E+02  0.51100000000E-03 0. -1.
         22    1    1    0    0    0  0.13112477473E+02  0.89391672988E+01  0.25127527956E+02  0.29719327695E+02  0.00000000000E+00 0.  1.
</event>
<event>
 5    1  0.1055265E-009  0.9118800E+02  0.7815553E-02  0.1125453E+00
         25   -1    0    0    0    0  0.00000000000E+00  0.00000000000E+00  0.99999998245E-14  0.12509000000E+03  0.12509000000E+03 0.  0.
        -11    1    3    3    0    0 -0.11157913331E+02  0.57835865852E+02  0.13343109867E+02  0.60394743066E+02  0.51100000000E-03 0.  1.
         23    2    1    0    0    0  0.53305849709E+01  0.27251745066E+02  0.11010359786E+02  0.95218596152E+02  0.90411726481E+02 0.  0.
         11    1    3    3    0    0  0.16488498302E+02 -0.30584120787E+02 -0.23327500813E+01  0.34823853086E+02  0.51100000000E-03 0. -1.
         22    1    1    0    0    0 -0.53305849709E+01 -0.27251745066E+02 -0.11010359786E+02  0.29871403848E+02  0.00000000000E+00 0.  1.
</event>
<event>
 5    1  0.1055265E-009  0.9118800E+02  0.7815553E-02  0.1125453E+00
         25   -1    0    0    0    0  0.00000000000E+00  0.00000000000E+00  0.99999998245E-14  0.12509000000E+03  0.12509000000E+03 0.  0.
        -11    1    3    3    0    0  0.26544962085E+02  0.21340320951E+02 -0.72103866887E+01  0.34814278491E+02  0.51100000000E-03 0. -1.
         23    2    1    0    0    0 -0.10210096931E+02 -0.17213814228E+02  0.21822515424E+02  0.95479467093E+02  0.90771939371E+02 0.  0.
         11    1    3    3    0    0 -0.36755059016E+02 -0.38554135179E+02  0.29032902113E+02  0.60665188602E+02  0.51100000000E-03 0.  1.
         22    1    1    0    0    0  0.10210096931E+02  0.17213814228E+02 -0.21822515424E+02  0.29610532907E+02  0.00000000000E+00 0.  1.
</event>
<event>
 5    1  0.1055265E-009  0.9118800E+02  0.7815553E-02  0.1125453E+00
         25   -1    0    0    0    0  0.00000000000E+00  0.00000000000E+00  0.99999998245E-14  0.12509000000E+03  0.12509000000E+03 0.  0.
        -11    1    3    3    0    0 -0.33993067303E+02 -0.80221560632E+01  0.20213744806E+02  0.40354418493E+02  0.51100000000E-03 0. -1.
         23    2    1    0    0    0  0.61192868084E+01  0.21738922474E+02 -0.11728720818E+02  0.99642223803E+02  0.96337860942E+02 0.  0.
         11    1    3    3    0    0  0.40112354111E+02  0.29761078537E+02 -0.31942465624E+02  0.59287805310E+02  0.51100000000E-03 0.  1.
         22    1    1    0    0    0 -0.61192868084E+01 -0.21738922474E+02  0.11728720818E+02  0.25447776197E+02  0.00000000000E+00 0.  1.
</event>
<event>
 5    1  0.1055265E-009  0.9118800E+02  0.7815553E-02  0.1125453E+00
         25   -1    0    0    0    0  0.00000000000E+00  0.00000000000E+00  0.99999998245E-14  0.12509000000E+03  0.12509000000E+03 0.  0.
        -11    1    3    3    0    0  0.44210036626E+02  0.16483862174E+02  0.81793196503E+01  0.47886807378E+02  0.51100000000E-03 0. -1.
         23    2    1    0    0    0  0.45071592530E+01  0.22441045779E+02 -0.18133259727E+02  0.95888456745E+02  0.91333816346E+02 0.  0.
         11    1    3    3    0    0 -0.39702877373E+02  0.59571836040E+01 -0.26312579377E+02  0.48001649367E+02  0.51100000000E-03 0.  1.
         22    1    1    0    0    0 -0.45071592530E+01 -0.22441045779E+02  0.18133259727E+02  0.29201543255E+02  0.00000000000E+00 0.  1.
</event>
<event>
 5    1  0.1055265E-009  0.9118800E+02  0.7815553E-02  0.1125453E+00
         25   -1    0    0    0    0  0.00000000000E+00  0.00000000000E+00  0.99999998245E-14  0.12509000000E+03  0.12509000000E+03 0.  0.
        -11    1    3    3    0    0 -0.18794749829E+02 -0.73463494768E+01 -0.20398449097E+02  0.28693347619E+02  0.51100000000E-03 0.  1.
         23    2    1    0    0    0  0.11973455282E+02  0.18279321642E+02  0.26749082241E+02  0.90550014015E+02  0.83703610473E+02 0.  0.
         11    1    3    3    0    0  0.30768205112E+02  0.25625671118E+02  0.47147531338E+02  0.61856666396E+02  0.51100000000E-03 0. -1.
         22    1    1    0    0    0 -0.11973455282E+02 -0.18279321642E+02 -0.26749082241E+02  0.34539985985E+02  0.00000000000E+00 0. -1.
</event>
<event>
 5    1  0.1055265E-009  0.9118800E+02  0.7815553E-02  0.1125453E+00
         25   -1    0    0    0    0  0.00000000000E+00  0.00000000000E+00  0.99999998245E-14  0.12509000000E+03  0.12509000000E+03 0.  0.
        -11    1    3    3    0    0 -0.21419548629E+02 -0.32490349972E+01 -0.35564340310E+02  0.41643433983E+02  0.51100000000E-03 0. -1.
         23    2    1    0    0    0  0.26703082578E+02 -0.35567359818E+01 -0.85719162578E+01  0.96820179725E+02  0.92601104009E+02 0.  0.
         11    1    3    3    0    0  0.48122631208E+02 -0.30770098460E+00  0.26992424052E+02  0.55176745743E+02  0.51100000000E-03 0.  1.
         22    1    1    0    0    0 -0.26703082578E+02  0.35567359818E+01  0.85719162578E+01  0.28269820275E+02  0.00000000000E+00 0.  1.
</event>
<event>
 5    1  0.1055265E-009  0.9118800E+02  0.7815553E-02  0.1125453E+00
         25   -1    0    0    0    0  0.00000000000E+00  0.00000000000E+00  0.99999998245E-14  0.12509000000E+03  0.12509000000E+03 0.  0.
        -11    1    3    3    0    0  0.70020840639E+01 -0.29824321748E+02  0.29893681874E+02  0.42803639626E+02  0.51100000000E-03 0.  1.
         23    2    1    0    0    0  0.67647037462E+01  0.21552824050E+02  0.19557096071E+02  0.95210819154E+02  0.90400965901E+02 0.  0.
         11    1    3    3    0    0 -0.23738031765E+00  0.51377145798E+02 -0.10336585802E+02  0.52407179528E+02  0.51100000000E-03 0. -1.
         22    1    1    0    0    0 -0.67647037462E+01 -0.21552824050E+02 -0.19557096071E+02  0.29879180846E+02  0.00000000000E+00 0.  1.
</event>
<event>
 5    1  0.1055265E-009  0.9118800E+02  0.7815553E-02  0.1125453E+00
         25   -1    0    0    0    0  0.00000000000E+00  0.00000000000E+00  0.99999998245E-14  0.12509000000E+03  0.12509000000E+03 0.  0.
        -11    1    3    3    0    0  0.12552338561E+02 -0.22912467679E+02  0.26735182185E+02  0.37380641316E+02  0.51100000000E-03 0.  1.
         23    2    1    0    0    0  0.12862308701E+02  0.25879973927E+02 -0.52414814377E+01  0.95718497430E+02  0.91100744163E+02 0.  0.
         11    1    3    3    0    0  0.30997014020E+00  0.48792441605E+02 -0.31976663622E+02  0.58337856114E+02  0.51100000000E-03 0. -1.
         22    1    1    0    0    0 -0.12862308701E+02 -0.25879973927E+02  0.52414814377E+01  0.29371502570E+02  0.00000000000E+00 0. -1.
</event>
<event>
 5    1  0.1055265E-009  0.9118800E+02  0.7815553E-02  0.1125453E+00
         25   -1    0    0    0    0  0.00000000000E+00  0.00000000000E+00  0.99999998245E-14  0.12509000000E+03  0.12509000000E+03 0.  0.
        -11    1    3    3    0    0  0.17369688777E+00  0.24324882193E+02  0.23302505929E+02  0.33685855298E+02  0.51100000000E-03 0. -1.
         23    2    1    0    0    0 -0.85258717575E+01 -0.23419127228E+02 -0.15429824367E+02  0.95777451674E+02  0.91181658023E+02 0.  0.
         11    1    3    3    0    0 -0.86995686452E+01 -0.47744009421E+02 -0.38732330295E+02  0.62091596377E+02  0.51100000000E-03 0.  1.
         22    1    1    0    0    0  0.85258717575E+01  0.23419127228E+02  0.15429824367E+02  0.29312548326E+02  0.00000000000E+00 0.  1.
</event>
<event>
 5    1  0.1055265E-009  0.9118800E+02  0.7815553E-02  0.1125453E+00
         25   -1    0    0    0    0  0.00000000000E+00  0.00000000000E+00  0.99999998245E-14  0.12509000000E+03  0.12509000000E+03 0.  0.
        -11    1    3    3    0    0 -0.49491214680E+02  0.19719830410E+02  0.31837900580E+02  0.62063708845E+02  0.51100000000E-03 0.  1.
         23    2    1    0    0    0 -0.25798007922E+02  0.88571025851E+01  0.10097988648E+02  0.96004696947E+02  0.91492879407E+02 0.  0.
         11    1    3    3    0    0  0.23693206758E+02 -0.10862727825E+02 -0.21739911932E+02  0.33940988102E+02  0.51100000000E-03 0. -1.
         22    1    1    0    0    0  0.25798007922E+02 -0.88571025851E+01 -0.10097988648E+02  0.29085303053E+02  0.00000000000E+00 0.  1.
</event>
<event>
 5    1  0.1055265E-009  0.9118800E+02  0.7815553E-02  0.1125453E+00
         25   -1    0    0    0    0  0.00000000000E+00  0.00000000000E+00  0.99999998245E-14  0.12509000000E+03  0.12509000000E+03 0.  0.
        -11    1    3    3    0    0 -0.18761752942E+02  0.22682534410E+02  0.12614034448E+02  0.32025218282E+02  0.51100000000E-03 0.  1.
         23    2    1    0    0    0  0.17388538718E+01 -0.29830564456E+02 -0.11141917672E+02  0.93199115441E+02  0.87573092906E+02 0.  0.
         11    1    3    3    0    0  0.20500606814E+02 -0.52513098865E+02 -0.23755952120E+02  0.61173897159E+02  0.51100000000E-03 0. -1.
         22    1    1    0    0    0 -0.17388538718E+01  0.29830564456E+02  0.11141917672E+02  0.31890884559E+02  0.00000000000E+00 0. -1.
</event>
<event>
 5    1  0.1055265E-009  0.9118800E+02  0.7815553E-02  0.1125453E+00
         25   -1    0    0    0    0  0.00000000000E+00  0.00000000000E+00  0.99999998245E-14  0.12509000000E+03  0.12509000000E+03 0.  0.
        -11    1    3    3    0    0  0.34440784400E+02  0.66330556881E+01  0.19551247539E+02  0.40154904289E+02  0.51100000000E-03 0. -1.
         23    2    1    0    0    0 -0.19891582085E+02 -0.49289555549E+01  0.21033636405E+02  0.95723633165E+02  0.91107795743E+02 0.  0.
         11    1    3    3    0    0 -0.54332366485E+02 -0.11562011243E+02  0.14823888665E+01  0.55568728876E+02  0.51100000000E-03 0.  1.
         22    1    1    0    0    0  0.19891582085E+02  0.49289555549E+01 -0.21033636405E+02  0.29366366835E+02  0.00000000000E+00 0.  1.
</event>
<event>
 5    1  0.1055265E-009  0.9118800E+02  0.7815553E-02  0.1125453E+00
         25   -1    0    0    0    0  0.00000000000E+00  0.00000000000E+00  0.99999998245E-14  0.12509000000E+03  0.12509000000E+03 0.  0.
        -11    1    3    3    0    0  0.42754332714E+02 -0.14961315761E+02  0.48656921663E+01  0.45557094899E+02  0.51100000000E-03 0. -1.
         23    2    1    0    0    0 -0.33687189403E+01 -0.14027949647E+02  0.25263129871E+02  0.95997778196E+02  0.91483419531E+02 0.  0.
         11    1    3    3    0    0 -0.46123051655E+02  0.93336611395E+00  0.20397437705E+02  0.50440683297E+02  0.51100000000E-03 0.  1.
         22    1    1    0    0    0  0.33687189403E+01  0.14027949647E+02 -0.25263129871E+02  0.29092221804E+02  0.00000000000E+00 0.  1.
</event>
<event>
 5    1  0.1055265E-009  0.9118800E+02  0.7815553E-02  0.1125453E+00
         25   -1    0    0    0    0  0.00000000000E+00  0.00000000000E+00  0.99999998245E-14  0.12509000000E+03  0.12509000000E+03 0.  0.
        -11    1    3    3    0    0 -0.38027016862E+02  0.23642227779E+01  0.48828884777E+02  0.61934671627E+02  0.51100000000E-03 0.  1.
         23    2    1    0    0    0 -0.15781605290E+02 -0.48552514096E+01  0.22973495715E+02  0.96798410488E+02  0.92571692411E+02 0.  0.
         11    1    3    3    0    0  0.22245411572E+02 -0.72194741876E+01 -0.25855389062E+02  0.34863738861E+02  0.51100000000E-03 0. -1.
         22    1    1    0    0    0  0.15781605290E+02  0.48552514096E+01 -0.22973495715E+02  0.28291589512E+02  0.00000000000E+00 0.  1.
</event>
<event>
 5    1  0.1055265E-009  0.9118800E+02  0.7815553E-02  0.1125453E+00
         25   -1    0    0    0    0  0.00000000000E+00  0.00000000000E+00  0.99999998245E-14  0.12509000000E+03  0.12509000000E+03 0.  0.
        -11    1    3    3    0    0  0.46478802761E+01 -0.24550324828E+02 -0.26434170883E+02  0.36374257803E+02  0.51100000000E-03 0.  1.
         23    2    1    0    0    0 -0.20242099936E+02  0.19931169098E+02  0.49804599581E+01  0.96249072608E+02  0.91826384472E+02 0.  0.
         11    1    3    3    0    0 -0.24889980212E+02  0.44481493926E+02  0.31414630841E+02  0.59874814805E+02  0.51100000000E-03 0. -1.
         22    1    1    0    0    0  0.20242099936E+02 -0.19931169098E+02 -0.49804599581E+01  0.28840927392E+02  0.00000000000E+00 0. -1.
</event>
<event>
 5    1  0.1055265E-009  0.9118800E+02  0.7815553E-02  0.1125453E+00
         25   -1    0    0    0    0  0.00000000000E+00  0.00000000000E+00  0.99999998245E-14  0.12509000000E+03  0.12509000000E+03 0.  0.
        -11    1    3    3    0    0 -0.28877738977E+02  0.48705482172E+02  0.10134895224E+02  0.57522725105E+02  0.51100000000E-03 0. -1.
         23    2    1    0    0    0 -0.17159795611E+02  0.40716042595E+02 -0.76270928724E+01  0.80252211744E+02  0.66558171805E+02 0.  0.
         11    1    3    3    0    0  0.11717943366E+02 -0.79894395769E+01 -0.17761988097E+02  0.22729486639E+02  0.51100000000E-03 0.  1.
         22    1    1    0    0    0  0.17159795611E+02 -0.40716042595E+02  0.76270928724E+01  0.44837788256E+02  0.00000000000E+00 0. -1.
</event>
<event>
 5    1  0.1055265E-009  0.9118800E+02  0.7815553E-02  0.1125453E+00
         25   -1    0    0    0    0  0.00000000000E+00  0.00000000000E+00  0.99999998245E-14  0.12509000000E+03  0.12509000000E+03 0.  0.
        -11    1    3    3    0    0 -0.42386071171E+02  0.83748103625E+00 -0.11914502078E+02  0.44036754692E+02  0.51100000000E-03 0. -1.
         23    2    1    0    0    0  0.44844515235E+01 -0.17832022673E+02 -0.22951141419E+02  0.95681731936E+02  0.91050247643E+02 0.  0.
         11    1    3    3    0    0  0.46870522694E+02 -0.18669503709E+02 -0.11036639341E+02  0.51644977244E+02  0.51100000000E-03 0.  1.
         22    1    1    0    0    0 -0.44844515235E+01  0.17832022673E+02  0.22951141419E+02  0.29408268064E+02  0.00000000000E+00 0. -1.
</event>
<event>
 5    1  0.1055265E-009  0.9118800E+02  0.7815553E-02  0.1125453E+00
         25   -1    0    0    0    0  0.00000000000E+00  0.00000000000E+00  0.99999998245E-14  0.12509000000E+03  0.12509000000E+03 0.  0.
        -11    1    3    3    0    0  0.33260028958E+02 -0.48655988921E+02  0.19474317321E+02  0.62071602360E+02  0.51100000000E-03 0.  1.
         23    2    1    0    0    0  0.19331783785E+02 -0.19975531216E+02  0.61961206838E+01  0.96609627404E+02  0.92316241712E+02 0.  0.
         11    1    3    3    0    0 -0.13928245173E+02  0.28680457704E+02 -0.13278196637E+02  0.34538025044E+02  0.51100000000E-03 0. -1.
         22    1    1    0    0    0 -0.19331783785E+02  0.19975531216E+02 -0.61961206838E+01  0.28480372596E+02  0.00000000000E+00 0.  1.
</event>
<event>
 5    1  0.1055265E-009  0.9118800E+02  0.7815553E-02  0.1125453E+00
         25   -1    0    0    0    0  0.00000000000E+00  0.00000000000E+00  0.99999998245E-14  0.12509000000E+03  0.12509000000E+03 0.  0.
        -11    1    3    3    0    0  0.35727355629E+02 -0.95636015139E+01  0.92163914436E+00  0.36996700300E+02  0.51100000000E-03 0. -1.
         23    2    1    0    0    0 -0.15496704656E+02  0.75855013317E+01  0.23828060266E+02  0.95671228073E+02  0.91035815695E+02 0.  0.
         11    1    3    3    0    0 -0.51224060285E+02  0.17149102846E+02  0.22906421122E+02  0.58674527773E+02  0.51100000000E-03 0.  1.
         22    1    1    0    0    0  0.15496704656E+02 -0.75855013317E+01 -0.23828060266E+02  0.29418771927E+02  0.00000000000E+00 0.  1.
</event>
<event>
 5    1  0.1055265E-009  0.9118800E+02  0.7815553E-02  0.1125453E+00
         25   -1    0    0    0    0  0.00000000000E+00  0.00000000000E+00  0.99999998245E-14  0.12509000000E+03  0.12509000000E+03 0.  0.
        -11    1    3    3    0    0  0.39784872059E+02 -0.60217253258E+01 -0.34935559826E+02  0.53287808749E+02  0.51100000000E-03 0.  1.
         23    2    1    0    0    0 -0.32610570354E+01 -0.23558977401E+01 -0.27709831307E+02  0.97089651820E+02  0.92964407126E+02 0.  0.
         11    1    3    3    0    0 -0.43045929095E+02  0.36658275857E+01  0.72257285188E+01  0.43801843071E+02  0.51100000000E-03 0. -1.
         22    1    1    0    0    0  0.32610570354E+01  0.23558977401E+01  0.27709831307E+02  0.28000348180E+02  0.00000000000E+00 0.  1.
</event>
<event>
 5    1  0.1055265E-009  0.9118800E+02  0.7815553E-02  0.1125453E+00
         25   -1    0    0    0    0  0.00000000000E+00  0.00000000000E+00  0.99999998245E-14  0.12509000000E+03  0.12509000000E+03 0.  0.
        -11    1    3    3    0    0 -0.21340762112E+02 -0.15830859659E+02 -0.27563629165E+02  0.38285740140E+02  0.51100000000E-03 0.  1.
         23    2    1    0    0    0 -0.81229842389E+01  0.23991843427E+02  0.12976306611E+02  0.96629923450E+02  0.92343739088E+02 0.  0.
         11    1    3    3    0    0  0.13217777873E+02  0.39822703086E+02  0.40539935777E+02  0.58344183309E+02  0.51100000000E-03 0. -1.
         22    1    1    0    0    0  0.81229842389E+01 -0.23991843427E+02 -0.12976306611E+02  0.28460076550E+02  0.00000000000E+00 0. -1.
</event>
<event>
 5    1  0.1055265E-009  0.9118800E+02  0.7815553E-02  0.1125453E+00
         25   -1    0    0    0    0  0.00000000000E+00  0.00000000000E+00  0.99999998245E-14  0.12509000000E+03  0.12509000000E+03 0.  0.
        -11    1    3    3    0    0 -0.21345544630E+02 -0.18603183297E+02  0.45418310197E+02  0.53521337854E+02  0.51100000000E-03 0. -1.
         23    2    1    0    0    0 -0.85945173290E+01  0.14580690194E+02  0.26105329937E+02  0.93978097041E+02  0.88678814932E+02 0.  0.
         11    1    3    3    0    0  0.12751027301E+02  0.33183873491E+02 -0.19312980260E+02  0.40456759186E+02  0.51100000000E-03 0.  1.
         22    1    1    0    0    0  0.85945173290E+01 -0.14580690194E+02 -0.26105329937E+02  0.31111902959E+02  0.00000000000E+00 0. -1.
</event>
<event>
 5    1  0.1055265E-009  0.9118800E+02  0.7815553E-02  0.1125453E+00
         25   -1    0    0    0    0  0.00000000000E+00  0.00000000000E+00  0.99999998245E-14  0.12509000000E+03  0.12509000000E+03 0.  0.
        -11    1    3    3    0    0 -0.53289545631E+02  0.28528448240E+01  0.23801851997E+02  0.58433231606E+02  0.51100000000E-03 0.  1.
         23    2    1    0    0    0 -0.14853485107E+02 -0.87317566377E+01  0.19901625616E+02  0.98766164870E+02  0.95193545092E+02 0.  0.
         11    1    3    3    0    0  0.38436060524E+02 -0.11584601462E+02 -0.39002263813E+01  0.40332933264E+02  0.51100000000E-03 0. -1.
         22    1    1    0    0    0  0.14853485107E+02  0.87317566377E+01 -0.19901625616E+02  0.26323835130E+02  0.00000000000E+00 0.  1.
</event>
<event>
 5    1  0.1055265E-009  0.9118800E+02  0.7815553E-02  0.1125453E+00
         25   -1    0    0    0    0  0.00000000000E+00  0.00000000000E+00  0.99999998245E-14  0.12509000000E+03  0.12509000000E+03 0.  0.
        -11    1    3    3    0    0  0.19429166742E+02  0.20514712412E+02 -0.16760217265E+02  0.32851953194E+02  0.51100000000E-03 0.  1.
         23    2    1    0    0    0 -0.95503515104E+01 -0.26391910912E+02  0.11439525525E+02  0.94781504165E+02  0.89804947591E+02 0.  0.
         11    1    3    3    0    0 -0.28979518252E+02 -0.46906623324E+02  0.28199742789E+02  0.61929550971E+02  0.51100000000E-03 0. -1.
         22    1    1    0    0    0  0.95503515104E+01  0.26391910912E+02 -0.11439525525E+02  0.30308495835E+02  0.00000000000E+00 0. -1.
</event>
<event>
 5    1  0.1055265E-009  0.9118800E+02  0.7815553E-02  0.1125453E+00
         25   -1    0    0    0    0  0.00000000000E+00  0.00000000000E+00  0.99999998245E-14  0.12509000000E+03  0.12509000000E+03 0.  0.
        -11    1    3    3    0    0 -0.23119195322E+02 -0.71247555842E+01  0.25203688000E+02  0.34935443658E+02  0.51100000000E-03 0.  1.
         23    2    1    0    0    0  0.29029591675E+01  0.18340418234E+02 -0.23117729652E+02  0.95438228768E+02  0.90715092312E+02 0.  0.
         11    1    3    3    0    0  0.26022154490E+02  0.25465173818E+02 -0.48321417652E+02  0.60502785110E+02  0.51100000000E-03 0. -1.
         22    1    1    0    0    0 -0.29029591675E+01 -0.18340418234E+02  0.23117729652E+02  0.29651771232E+02  0.00000000000E+00 0. -1.
</event>
<event>
 5    1  0.1055265E-009  0.9118800E+02  0.7815553E-02  0.1125453E+00
         25   -1    0    0    0    0  0.00000000000E+00  0.00000000000E+00  0.99999998245E-14  0.12509000000E+03  0.12509000000E+03 0.  0.
        -11    1    3    3    0    0 -0.44461193936E+01 -0.23919545146E+02 -0.24320024683E+02  0.34400235733E+02  0.51100000000E-03 0.  1.
         23    2    1    0    0    0  0.18662297592E+02  0.21802890979E+02  0.83985340267E+01  0.95187110838E+02  0.90368154177E+02 0.  0.
         11    1    3    3    0    0  0.23108416986E+02  0.45722436125E+02  0.32718558709E+02  0.60786875105E+02  0.51100000000E-03 0. -1.
         22    1    1    0    0    0 -0.18662297592E+02 -0.21802890979E+02 -0.83985340267E+01  0.29902889162E+02  0.00000000000E+00 0. -1.
</event>
<event>
 5    1  0.1055265E-009  0.9118800E+02  0.7815553E-02  0.1125453E+00
         25   -1    0    0    0    0  0.00000000000E+00  0.00000000000E+00  0.99999998245E-14  0.12509000000E+03  0.12509000000E+03 0.  0.
        -11    1    3    3    0    0  0.22889425827E+02  0.19430273525E+02  0.54164360949E+02  0.61929309226E+02  0.51100000000E-03 0. -1.
         23    2    1    0    0    0  0.15850254345E+02  0.56319761354E+01  0.24894745993E+02  0.95045065385E+02  0.90171316714E+02 0.  0.
         11    1    3    3    0    0 -0.70391714827E+01 -0.13798297389E+02 -0.29269614956E+02  0.33115756159E+02  0.51100000000E-03 0.  1.
         22    1    1    0    0    0 -0.15850254345E+02 -0.56319761354E+01 -0.24894745993E+02  0.30044934615E+02  0.00000000000E+00 0. -1.
</event>
<event>
 5    1  0.1055265E-009  0.9118800E+02  0.7815553E-02  0.1125453E+00
         25   -1    0    0    0    0  0.00000000000E+00  0.00000000000E+00  0.99999998245E-14  0.12509000000E+03  0.12509000000E+03 0.  0.
        -11    1    3    3    0    0 -0.21867106608E+02 -0.27324263358E+02 -0.18755131236E+02  0.39705675506E+02  0.51100000000E-03 0.  1.
         23    2    1    0    0    0  0.63583450227E+01  0.20029379469E+02 -0.21661971075E+02  0.94909781574E+02  0.89983448780E+02 0.  0.
         11    1    3    3    0    0  0.28225451630E+02  0.47353642827E+02 -0.29068398388E+01  0.55204106069E+02  0.51100000000E-03 0. -1.
         22    1    1    0    0    0 -0.63583450227E+01 -0.20029379469E+02  0.21661971075E+02  0.30180218426E+02  0.00000000000E+00 0. -1.
</event>
<event>
 5    1  0.1055265E-009  0.9118800E+02  0.7815553E-02  0.1125453E+00
         25   -1    0    0    0    0  0.00000000000E+00  0.00000000000E+00  0.99999998245E-14  0.12509000000E+03  0.12509000000E+03 0.  0.
        -11    1    3    3    0    0 -0.17261309222E+02 -0.39243915477E+02 -0.17948136026E+02  0.46477664368E+02  0.51100000000E-03 0.  1.
         23    2    1    0    0    0  0.10385920215E+02 -0.20421547166E+02  0.18277086479E+02  0.95782000792E+02  0.91187898639E+02 0.  0.
         11    1    3    3    0    0  0.27647229438E+02  0.18822368311E+02  0.36225222505E+02  0.49304336424E+02  0.51100000000E-03 0. -1.
         22    1    1    0    0    0 -0.10385920215E+02  0.20421547166E+02 -0.18277086479E+02  0.29307999208E+02  0.00000000000E+00 0. -1.
</event>
<event>
 5    1  0.1055265E-009  0.9118800E+02  0.7815553E-02  0.1125453E+00
         25   -1    0    0    0    0  0.00000000000E+00  0.00000000000E+00  0.99999998245E-14  0.12509000000E+03  0.12509000000E+03 0.  0.
        -11    1    3    3    0    0  0.38048254534E+02 -0.71905870296E+01  0.18021652293E+01  0.38763668747E+02  0.51100000000E-03 0.  1.
         23    2    1    0    0    0 -0.60907791911E+01  0.17434140781E+02 -0.23431404240E+02  0.95255832330E+02  0.90463230278E+02 0.  0.
         11    1    3    3    0    0 -0.44139033725E+02  0.24624727810E+02 -0.25233569469E+02  0.56492163583E+02  0.51100000000E-03 0. -1.
         22    1    1    0    0    0  0.60907791911E+01 -0.17434140781E+02  0.23431404240E+02  0.29834167670E+02  0.00000000000E+00 0. -1.
</event>
<event>
 5    1  0.1055265E-009  0.9118800E+02  0.7815553E-02  0.1125453E+00
         25   -1    0    0    0    0  0.00000000000E+00  0.00000000000E+00  0.99999998245E-14  0.12509000000E+03  0.12509000000E+03 0.  0.
        -11    1    3    3    0    0  0.48473777725E+02 -0.95430856875E+01 -0.12783679328E+02  0.51031363579E+02  0.51100000000E-03 0.  1.
         23    2    1    0    0    0  0.16992841435E+02 -0.16193126822E+02  0.17960612899E+02  0.95533991609E+02  0.90847046846E+02 0.  0.
         11    1    3    3    0    0 -0.31480936290E+02 -0.66500411343E+01  0.30744292227E+02  0.44502628030E+02  0.51100000000E-03 0. -1.
         22    1    1    0    0    0 -0.16992841435E+02  0.16193126822E+02 -0.17960612899E+02  0.29556008391E+02  0.00000000000E+00 0. -1.
</event>
<event>
 5    1  0.1055265E-009  0.9118800E+02  0.7815553E-02  0.1125453E+00
         25   -1    0    0    0    0  0.00000000000E+00  0.00000000000E+00  0.99999998245E-14  0.12509000000E+03  0.12509000000E+03 0.  0.
        -11    1    3    3    0    0 -0.51402606897E+01  0.38353323709E+02 -0.20763627038E+02  0.43915007998E+02  0.51100000000E-03 0. -1.
         23    2    1    0    0    0 -0.26674181025E+02 -0.27147485596E+01  0.62202208727E+01  0.97565957041E+02  0.93603114438E+02 0.  0.
         11    1    3    3    0    0 -0.21533920336E+02 -0.41068072268E+02  0.26983847910E+02  0.53650949043E+02  0.51100000000E-03 0.  1.
         22    1    1    0    0    0  0.26674181025E+02  0.27147485596E+01 -0.62202208727E+01  0.27524042959E+02  0.00000000000E+00 0. -1.
</event>
<event>
 5    1  0.1055265E-009  0.9118800E+02  0.7815553E-02  0.1125453E+00
         25   -1    0    0    0    0  0.00000000000E+00  0.00000000000E+00  0.99999998245E-14  0.12509000000E+03  0.12509000000E+03 0.  0.
        -11    1    3    3    0    0 -0.99864048564E+01  0.20404151570E+02 -0.33438212055E+02  0.40424889721E+02  0.51100000000E-03 0. -1.
         23    2    1    0    0    0  0.24176502495E+02 -0.13114040270E+02 -0.23715210440E+01  0.97483742790E+02  0.93493179811E+02 0.  0.
         11    1    3    3    0    0  0.34162907352E+02 -0.33518191840E+02  0.31066691011E+02  0.57058853069E+02  0.51100000000E-03 0.  1.
         22    1    1    0    0    0 -0.24176502495E+02  0.13114040270E+02  0.23715210440E+01  0.27606257210E+02  0.00000000000E+00 0.  1.
</event>
<event>
 5    1  0.1055265E-009  0.9118800E+02  0.7815553E-02  0.1125453E+00
         25   -1    0    0    0    0  0.00000000000E+00  0.00000000000E+00  0.99999998245E-14  0.12509000000E+03  0.12509000000E+03 0.  0.
        -11    1    3    3    0    0  0.39295117743E+01  0.40496093712E+02  0.10043787560E+02  0.41907664425E+02  0.51100000000E-03 0.  1.
         23    2    1    0    0    0 -0.12390875604E+02  0.63096515522E+01 -0.26891726370E+02  0.94816076434E+02  0.89853090666E+02 0.  0.
         11    1    3    3    0    0 -0.16320387378E+02 -0.34186442160E+02 -0.36935513930E+02  0.52908412009E+02  0.51100000000E-03 0. -1.
         22    1    1    0    0    0  0.12390875604E+02 -0.63096515522E+01  0.26891726370E+02  0.30273923566E+02  0.00000000000E+00 0. -1.
</event>
<event>
 5    1  0.1055265E-009  0.9118800E+02  0.7815553E-02  0.1125453E+00
         25   -1    0    0    0    0  0.00000000000E+00  0.00000000000E+00  0.99999998245E-14  0.12509000000E+03  0.12509000000E+03 0.  0.
        -11    1    3    3    0    0  0.60489978609E+01 -0.37266872065E+02  0.29172714998E+02  0.47712235635E+02  0.51100000000E-03 0. -1.
         23    2    1    0    0    0 -0.25855797938E+02 -0.17166293044E+02  0.23936237180E+01  0.93962305926E+02  0.88656537247E+02 0.  0.
         11    1    3    3    0    0 -0.31904795798E+02  0.20100579021E+02 -0.26779091280E+02  0.46250070292E+02  0.51100000000E-03 0.  1.
         22    1    1    0    0    0  0.25855797938E+02  0.17166293044E+02 -0.23936237180E+01  0.31127694074E+02  0.00000000000E+00 0.  1.
</event>
<event>
 5    1  0.1055265E-009  0.9118800E+02  0.7815553E-02  0.1125453E+00
         25   -1    0    0    0    0  0.00000000000E+00  0.00000000000E+00  0.99999998245E-14  0.12509000000E+03  0.12509000000E+03 0.  0.
        -11    1    3    3    0    0 -0.34602102868E+02 -0.16397497076E+01 -0.27312032484E+02  0.44112826033E+02  0.51100000000E-03 0.  1.
         23    2    1    0    0    0 -0.16457408561E+02 -0.70097696896E+01  0.21885607889E+02  0.96824066435E+02  0.92606354213E+02 0.  0.
         11    1    3    3    0    0  0.18144694307E+02 -0.53700199820E+01  0.49197640373E+02  0.52711240401E+02  0.51100000000E-03 0. -1.
         22    1    1    0    0    0  0.16457408561E+02  0.70097696896E+01 -0.21885607889E+02  0.28265933565E+02  0.00000000000E+00 0. -1.
</event>
<event>
 5    1  0.1055265E-009  0.9118800E+02  0.7815553E-02  0.1125453E+00
         25   -1    0    0    0    0  0.00000000000E+00  0.00000000000E+00  0.99999998245E-14  0.12509000000E+03  0.12509000000E+03 0.  0.
        -11    1    3    3    0    0  0.32265061501E+02 -0.14010452778E+02 -0.20443603260E+02  0.40684983657E+02  0.51100000000E-03 0.  1.
         23    2    1    0    0    0  0.10860321500E+02 -0.10064799341E+02  0.27789669996E+02  0.93601708091E+02  0.88146283133E+02 0.  0.
         11    1    3    3    0    0 -0.21404740001E+02  0.39456534366E+01  0.48233273256E+02  0.52916724433E+02  0.51100000000E-03 0. -1.
         22    1    1    0    0    0 -0.10860321500E+02  0.10064799341E+02 -0.27789669996E+02  0.31488291909E+02  0.00000000000E+00 0. -1.
</event>
<event>
 5    1  0.1055265E-009  0.9118800E+02  0.7815553E-02  0.1125453E+00
         25   -1    0    0    0    0  0.00000000000E+00  0.00000000000E+00  0.99999998245E-14  0.12509000000E+03  0.12509000000E+03 0.  0.
        -11    1    3    3    0    0 -0.15132611310E+01  0.32026519413E+02 -0.70145521583E+01  0.32820600958E+02  0.51100000000E-03 0. -1.
         23    2    1    0    0    0  0.37640199737E+01 -0.28184574223E+02  0.88498540183E+01  0.95309839042E+02  0.90537878436E+02 0.  0.
         11    1    3    3    0    0  0.52772811047E+01 -0.60211093637E+02  0.15864406177E+02  0.62489238085E+02  0.51100000000E-03 0.  1.
         22    1    1    0    0    0 -0.37640199737E+01  0.28184574223E+02 -0.88498540183E+01  0.29780160958E+02  0.00000000000E+00 0.  1.
</event>
<event>
 5    1  0.1055265E-009  0.9118800E+02  0.7815553E-02  0.1125453E+00
         25   -1    0    0    0    0  0.00000000000E+00  0.00000000000E+00  0.99999998245E-14  0.12509000000E+03  0.12509000000E+03 0.  0.
        -11    1    3    3    0    0 -0.19099123078E+02  0.31131905780E+02  0.41002827311E+02  0.54910872399E+02  0.51100000000E-03 0. -1.
         23    2    1    0    0    0 -0.93596309479E+01 -0.69103987650E+01  0.25373975523E+02  0.97175936584E+02  0.93080436798E+02 0.  0.
         11    1    3    3    0    0  0.97394921305E+01 -0.38042304545E+02 -0.15628851788E+02  0.42265064185E+02  0.51100000000E-03 0.  1.
         22    1    1    0    0    0  0.93596309479E+01  0.69103987650E+01 -0.25373975523E+02  0.27914063416E+02  0.00000000000E+00 0. -1.
</event>
<event>
 5    1  0.1055265E-009  0.9118800E+02  0.7815553E-02  0.1125453E+00
         25   -1    0    0    0    0  0.00000000000E+00  0.00000000000E+00  0.99999998245E-14  0.12509000000E+03  0.12509000000E+03 0.  0.
        -11    1    3    3    0    0 -0.34995278209E+02 -0.11247854783E+02 -0.69211972267E+01  0.37404367465E+02  0.51100000000E-03 0.  1.
         23    2    1    0    0    0  0.17998455236E+02 -0.11316809572E+02  0.19161120122E+02  0.96468974615E+02  0.92125457769E+02 0.  0.
         11    1    3    3    0    0  0.52993733445E+02 -0.68954789759E-01  0.26082317349E+02  0.59064607150E+02  0.51100000000E-03 0. -1.
         22    1    1    0    0    0 -0.17998455236E+02  0.11316809572E+02 -0.19161120122E+02  0.28621025385E+02  0.00000000000E+00 0. -1.
</event>
<event>
 5    1  0.1055265E-009  0.9118800E+02  0.7815553E-02  0.1125453E+00
         25   -1    0    0    0    0  0.00000000000E+00  0.00000000000E+00  0.99999998245E-14  0.12509000000E+03  0.12509000000E+03 0.  0.
        -11    1    3    3    0    0  0.42348173749E+02  0.82347837524E+01  0.29879146289E+02  0.52478022701E+02  0.51100000000E-03 0.  1.
         23    2    1    0    0    0  0.28050791657E+02 -0.60443328869E+01 -0.79053689670E+01  0.95326335388E+02  0.90560667441E+02 0.  0.
         11    1    3    3    0    0 -0.14297382092E+02 -0.14279116639E+02 -0.37784515256E+02  0.42848312687E+02  0.51100000000E-03 0. -1.
         22    1    1    0    0    0 -0.28050791657E+02  0.60443328869E+01  0.79053689670E+01  0.29763664612E+02  0.00000000000E+00 0.  1.
</event>
<event>
 5    1  0.1055265E-009  0.9118800E+02  0.7815553E-02  0.1125453E+00
         25   -1    0    0    0    0  0.00000000000E+00  0.00000000000E+00  0.99999998245E-14  0.12509000000E+03  0.12509000000E+03 0.  0.
        -11    1    3    3    0    0 -0.18023457483E+02  0.31466474344E+02 -0.23912458737E+02  0.43437192708E+02  0.51100000000E-03 0. -1.
         23    2    1    0    0    0 -0.24892474194E+02 -0.33609412548E+01  0.14779417103E+02  0.95946177884E+02  0.91412836533E+02 0.  0.
         11    1    3    3    0    0 -0.68690167114E+01 -0.34827415599E+02  0.38691875840E+02  0.52508985176E+02  0.51100000000E-03 0.  1.
         22    1    1    0    0    0  0.24892474194E+02  0.33609412548E+01 -0.14779417103E+02  0.29143822116E+02  0.00000000000E+00 0.  1.
</event>
<event>
 5    1  0.1055265E-009  0.9118800E+02  0.7815553E-02  0.1125453E+00
         25   -1    0    0    0    0  0.00000000000E+00  0.00000000000E+00  0.99999998245E-14  0.12509000000E+03  0.12509000000E+03 0.  0.
        -11    1    3    3    0    0 -0.19500292991E+02 -0.46957380841E+02  0.14857336874E+02  0.52971666968E+02  0.51100000000E-03 0.  1.
         23    2    1    0    0    0 -0.26439940886E+02 -0.86622903453E+01 -0.52475931438E+01  0.96776699558E+02  0.92542350281E+02 0.  0.
         11    1    3    3    0    0 -0.69396478952E+01  0.38295090495E+02 -0.20104930018E+02  0.43805032590E+02  0.51100000000E-03 0. -1.
         22    1    1    0    0    0  0.26439940886E+02  0.86622903453E+01  0.52475931438E+01  0.28313300442E+02  0.00000000000E+00 0.  1.
</event>
<event>
 5    1  0.1055265E-009  0.9118800E+02  0.7815553E-02  0.1125453E+00
         25   -1    0    0    0    0  0.00000000000E+00  0.00000000000E+00  0.99999998245E-14  0.12509000000E+03  0.12509000000E+03 0.  0.
        -11    1    3    3    0    0  0.27430241855E+02 -0.33912683758E+01  0.45469683118E+02  0.53211004055E+02  0.51100000000E-03 0.  1.
         23    2    1    0    0    0  0.25676395613E+02  0.14250638054E+02  0.80146610576E+01  0.94650013658E+02  0.89621606307E+02 0.  0.
         11    1    3    3    0    0 -0.17538462422E+01  0.17641906430E+02 -0.37455022060E+02  0.41439009604E+02  0.51100000000E-03 0. -1.
         22    1    1    0    0    0 -0.25676395613E+02 -0.14250638054E+02 -0.80146610576E+01  0.30439986342E+02  0.00000000000E+00 0.  1.
</event>
<event>
 5    1  0.1055265E-009  0.9118800E+02  0.7815553E-02  0.1125453E+00
         25   -1    0    0    0    0  0.00000000000E+00  0.00000000000E+00  0.99999998245E-14  0.12509000000E+03  0.12509000000E+03 0.  0.
        -11    1    3    3    0    0 -0.29326850887E+02 -0.80655347043E+01  0.18201821811E+02  0.35446062553E+02  0.51100000000E-03 0.  1.
         23    2    1    0    0    0  0.14946369238E+02 -0.24284140047E+02 -0.14765523572E+02  0.92978723202E+02  0.87257715251E+02 0.  0.
         11    1    3    3    0    0  0.44273220125E+02 -0.16218605343E+02 -0.32967345383E+02  0.57532660649E+02  0.51100000000E-03 0. -1.
         22    1    1    0    0    0 -0.14946369238E+02  0.24284140047E+02  0.14765523572E+02  0.32111276798E+02  0.00000000000E+00 0. -1.
</event>
<event>
 5    1  0.1055265E-009  0.9118800E+02  0.7815553E-02  0.1125453E+00
         25   -1    0    0    0    0  0.00000000000E+00  0.00000000000E+00  0.99999998245E-14  0.12509000000E+03  0.12509000000E+03 0.  0.
        -11    1    3    3    0    0  0.19688529262E+02  0.35835773979E+02  0.36157536753E+02  0.54582124780E+02  0.51100000000E-03 0. -1.
         23    2    1    0    0    0  0.27634098710E+02  0.82207467973E+01  0.72082827190E+01  0.95371597803E+02  0.90623166124E+02 0.  0.
         11    1    3    3    0    0  0.79455694475E+01 -0.27615027182E+02 -0.28949254034E+02  0.40789473023E+02  0.51100000000E-03 0.  1.
         22    1    1    0    0    0 -0.27634098710E+02 -0.82207467973E+01 -0.72082827190E+01  0.29718402197E+02  0.00000000000E+00 0. -1.
</event>
<event>
 5    1  0.1055265E-009  0.9118800E+02  0.7815553E-02  0.1125453E+00
         25   -1    0    0    0    0  0.00000000000E+00  0.00000000000E+00  0.99999998245E-14  0.12509000000E+03  0.12509000000E+03 0.  0.
        -11    1    3    3    0    0  0.28934223027E+01  0.36016204245E+02  0.50865743853E+02  0.62392810153E+02  0.51100000000E-03 0.  1.
         23    2    1    0    0    0  0.30885102410E+01  0.18444527454E+02  0.21700291555E+02  0.96443147780E+02  0.92090382840E+02 0.  0.
         11    1    3    3    0    0  0.19508793830E+00 -0.17571676791E+02 -0.29165452297E+02  0.34050337627E+02  0.51100000000E-03 0. -1.
         22    1    1    0    0    0 -0.30885102410E+01 -0.18444527454E+02 -0.21700291555E+02  0.28646852220E+02  0.00000000000E+00 0.  1.
</event>
<event>
 5    1  0.1055265E-009  0.9118800E+02  0.7815553E-02  0.1125453E+00
         25   -1    0    0    0    0  0.00000000000E+00  0.00000000000E+00  0.99999998245E-14  0.12509000000E+03  0.12509000000E+03 0.  0.
        -11    1    3    3    0    0  0.11564067970E+01  0.37818410344E+02 -0.19042311142E+02  0.42357750784E+02  0.51100000000E-03 0.  1.
         23    2    1    0    0    0 -0.62532672658E+00 -0.17838459405E+02 -0.20301754875E+02  0.98057373075E+02  0.94257548747E+02 0.  0.
         11    1    3    3    0    0 -0.17817335236E+01 -0.55656869749E+02 -0.12594437336E+01  0.55699622291E+02  0.51100000000E-03 0. -1.
         22    1    1    0    0    0  0.62532672658E+00  0.17838459405E+02  0.20301754875E+02  0.27032626925E+02  0.00000000000E+00 0.  1.
</event>
<event>
 5    1  0.1055265E-009  0.9118800E+02  0.7815553E-02  0.1125453E+00
         25   -1    0    0    0    0  0.00000000000E+00  0.00000000000E+00  0.99999998245E-14  0.12509000000E+03  0.12509000000E+03 0.  0.
        -11    1    3    3    0    0  0.11510908332E+02  0.48176087876E+02 -0.14323526175E-01  0.49532178017E+02  0.51100000000E-03 0.  1.
         23    2    1    0    0    0 -0.34334432471E+01  0.11778131815E+02  0.25752245125E+02  0.96564729615E+02  0.92255384423E+02 0.  0.
         11    1    3    3    0    0 -0.14944351579E+02 -0.36397956061E+02  0.25766568651E+02  0.47032551598E+02  0.51100000000E-03 0. -1.
         22    1    1    0    0    0  0.34334432471E+01 -0.11778131815E+02 -0.25752245125E+02  0.28525270385E+02  0.00000000000E+00 0.  1.
</event>
<event>
 5    1  0.1055265E-009  0.9118800E+02  0.7815553E-02  0.1125453E+00
         25   -1    0    0    0    0  0.00000000000E+00  0.00000000000E+00  0.99999998245E-14  0.12509000000E+03  0.12509000000E+03 0.  0.
        -11    1    3    3    0    0  0.20735204568E+02 -0.33766845922E+02 -0.28626044232E+02  0.48883524839E+02  0.51100000000E-03 0.  1.
         23    2    1    0    0    0  0.22126599241E+02  0.11285522804E+02 -0.15428756949E+02  0.95849686050E+02  0.91280700895E+02 0.  0.
         11    1    3    3    0    0  0.13913946725E+01  0.45052368726E+02  0.13197287283E+02  0.46966161211E+02  0.51100000000E-03 0. -1.
         22    1    1    0    0    0 -0.22126599241E+02 -0.11285522804E+02  0.15428756949E+02  0.29240313950E+02  0.00000000000E+00 0. -1.
</event>
<event>
 4    1  0.1055265E-009  0.9118800E+02  0.7815553E-02  0.1125453E+00
         25   -1    0    0    0    0  0.00000000000E+00  0.00000000000E+00  0.99999998245E-14  0.12509000000E+03  0.12509000000E+03 0.  0.
        -11    1    1    0    0    0 -0.19602387853E+02  0.14074776471E+02 -0.53569255098E+01  0.24719417336E+02  0.51100000000E-03 0.  1.
         11    1    1    0    0    0 -0.24297484167E+02 -0.37736165178E+02  0.18892170397E+02  0.48695995747E+02  0.51100000000E-03 0. -1.
         22    1    1    0    0    0  0.43899872020E+02  0.23661388707E+02 -0.13535244887E+02  0.51674586918E+02  0.00000000000E+00 0. -1.
</event>
<event>
 5    1  0.1055265E-009  0.9118800E+02  0.7815553E-02  0.1125453E+00
         25   -1    0    0    0    0  0.00000000000E+00  0.00000000000E+00  0.99999998245E-14  0.12509000000E+03  0.12509000000E+03 0.  0.
        -11    1    3    3    0    0  0.51307699385E+01 -0.41754899505E+02 -0.13804593215E+02  0.44275989283E+02  0.51100000000E-03 0.  1.
         23    2    1    0    0    0  0.22346025353E+02 -0.21782035277E+01  0.16684163683E+02  0.97117679083E+02  0.93002112089E+02 0.  0.
         11    1    3    3    0    0  0.17215255414E+02  0.39576695977E+02  0.30488756898E+02  0.52841689800E+02  0.51100000000E-03 0. -1.
         22    1    1    0    0    0 -0.22346025353E+02  0.21782035277E+01 -0.16684163683E+02  0.27972320917E+02  0.00000000000E+00 0. -1.
</event>
<event>
 5    1  0.1055265E-009  0.9118800E+02  0.7815553E-02  0.1125453E+00
         25   -1    0    0    0    0  0.00000000000E+00  0.00000000000E+00  0.99999998245E-14  0.12509000000E+03  0.12509000000E+03 0.  0.
        -11    1    3    3    0    0 -0.41821658254E+02  0.31364381458E+02  0.98209143703E+01  0.53190467968E+02  0.51100000000E-03 0.  1.
         23    2    1    0    0    0  0.87816163849E-01  0.28868869156E+02  0.76222224907E+01  0.95231708125E+02  0.90429865856E+02 0.  0.
         11    1    3    3    0    0  0.41909474418E+02 -0.24955123023E+01 -0.21986918796E+01  0.42041240156E+02  0.51100000000E-03 0. -1.
         22    1    1    0    0    0 -0.87816163849E-01 -0.28868869156E+02 -0.76222224907E+01  0.29858291875E+02  0.00000000000E+00 0.  1.
</event>
<event>
 5    1  0.1055265E-009  0.9118800E+02  0.7815553E-02  0.1125453E+00
         25   -1    0    0    0    0  0.00000000000E+00  0.00000000000E+00  0.99999998245E-14  0.12509000000E+03  0.12509000000E+03 0.  0.
        -11    1    3    3    0    0 -0.59853525498E+01  0.69312637053E+01  0.33874727960E+02  0.35090797316E+02  0.51100000000E-03 0.  1.
         23    2    1    0    0    0  0.96261204563E+01  0.83316400203E+01 -0.25547832836E+02  0.96545820504E+02  0.92229741807E+02 0.  0.
         11    1    3    3    0    0  0.15611473006E+02  0.14003763151E+01 -0.59422560796E+02  0.61455023188E+02  0.51100000000E-03 0. -1.
         22    1    1    0    0    0 -0.96261204563E+01 -0.83316400203E+01  0.25547832836E+02  0.28544179496E+02  0.00000000000E+00 0. -1.
</event>
<event>
 5    1  0.1055265E-009  0.9118800E+02  0.7815553E-02  0.1125453E+00
         25   -1    0    0    0    0  0.00000000000E+00  0.00000000000E+00  0.99999998245E-14  0.12509000000E+03  0.12509000000E+03 0.  0.
        -11    1    3    3    0    0 -0.10780344054E+02 -0.26708421039E+02 -0.34747767261E+02  0.45132725402E+02  0.51100000000E-03 0.  1.
         23    2    1    0    0    0 -0.29330732302E+02 -0.55566526813E+01  0.59913965591E+01  0.94642256584E+02  0.89610778660E+02 0.  0.
         11    1    3    3    0    0 -0.18550388249E+02  0.21151768358E+02  0.40739163820E+02  0.49509531182E+02  0.51100000000E-03 0. -1.
         22    1    1    0    0    0  0.29330732302E+02  0.55566526813E+01 -0.59913965591E+01  0.30447743416E+02  0.00000000000E+00 0. -1.
</event>
<event>
 5    1  0.1055265E-009  0.9118800E+02  0.7815553E-02  0.1125453E+00
         25   -1    0    0    0    0  0.00000000000E+00  0.00000000000E+00  0.99999998245E-14  0.12509000000E+03  0.12509000000E+03 0.  0.
        -11    1    3    3    0    0  0.15672509616E+02 -0.42027724441E+02  0.15309546377E+01  0.44880964804E+02  0.51100000000E-03 0.  1.
         23    2    1    0    0    0  0.36421181315E+02 -0.37214116709E+01  0.15673574465E+01  0.88445655790E+02  0.80497366823E+02 0.  0.
         11    1    3    3    0    0  0.20748671699E+02  0.38306312770E+02  0.36402808793E-01  0.43564690986E+02  0.51100000000E-03 0. -1.
         22    1    1    0    0    0 -0.36421181315E+02  0.37214116709E+01 -0.15673574465E+01  0.36644344210E+02  0.00000000000E+00 0. -1.
</event>
<event>
 5    1  0.1055265E-009  0.9118800E+02  0.7815553E-02  0.1125453E+00
         25   -1    0    0    0    0  0.00000000000E+00  0.00000000000E+00  0.99999998245E-14  0.12509000000E+03  0.12509000000E+03 0.  0.
        -11    1    3    3    0    0 -0.52384081416E+02  0.22703049493E+02 -0.78450684124E+01  0.57628686786E+02  0.51100000000E-03 0. -1.
         23    2    1    0    0    0 -0.21326991367E+02  0.25115037823E+02  0.57967271193E+01  0.91635437816E+02  0.85310290897E+02 0.  0.
         11    1    3    3    0    0  0.31057090049E+02  0.24119883302E+01  0.13641795532E+02  0.34006751030E+02  0.51100000000E-03 0.  1.
         22    1    1    0    0    0  0.21326991367E+02 -0.25115037823E+02 -0.57967271193E+01  0.33454562184E+02  0.00000000000E+00 0. -1.
</event>
<event>
 5    1  0.1055265E-009  0.9118800E+02  0.7815553E-02  0.1125453E+00
         25   -1    0    0    0    0  0.00000000000E+00  0.00000000000E+00  0.99999998245E-14  0.12509000000E+03  0.12509000000E+03 0.  0.
        -11    1    3    3    0    0  0.91818437288E+01 -0.89542278065E+01 -0.55945344169E+02  0.57396567705E+02  0.51100000000E-03 0.  1.
         23    2    1    0    0    0  0.17055933968E+02 -0.16727117164E+02 -0.23901746846E+02  0.91296585931E+02  0.84811978919E+02 0.  0.
         11    1    3    3    0    0  0.78740902396E+01 -0.77728893576E+01  0.32043597323E+02  0.33900018226E+02  0.51100000000E-03 0. -1.
         22    1    1    0    0    0 -0.17055933968E+02  0.16727117164E+02  0.23901746846E+02  0.33793414069E+02  0.00000000000E+00 0.  1.
</event>
<event>
 5    1  0.1055265E-009  0.9118800E+02  0.7815553E-02  0.1125453E+00
         25   -1    0    0    0    0  0.00000000000E+00  0.00000000000E+00  0.99999998245E-14  0.12509000000E+03  0.12509000000E+03 0.  0.
        -11    1    3    3    0    0  0.42687696435E+02  0.23163956634E+00 -0.24468446296E+01  0.42758392541E+02  0.51100000000E-03 0.  1.
         23    2    1    0    0    0  0.40660319090E+01 -0.24363978250E+02  0.19580530630E+02  0.93569637829E+02  0.88100759883E+02 0.  0.
         11    1    3    3    0    0 -0.38621664526E+02 -0.24595617817E+02  0.22027375259E+02  0.50811245287E+02  0.51100000000E-03 0. -1.
         22    1    1    0    0    0 -0.40660319090E+01  0.24363978250E+02 -0.19580530630E+02  0.31520362171E+02  0.00000000000E+00 0.  1.
</event>
<event>
 5    1  0.1055265E-009  0.9118800E+02  0.7815553E-02  0.1125453E+00
         25   -1    0    0    0    0  0.00000000000E+00  0.00000000000E+00  0.99999998245E-14  0.12509000000E+03  0.12509000000E+03 0.  0.
        -11    1    3    3    0    0  0.88343382379E+01 -0.39772005405E+02  0.31336055689E+02  0.51398505157E+02  0.51100000000E-03 0.  1.
         23    2    1    0    0    0 -0.61367081733E+01 -0.56857620904E+01  0.35276085515E+02  0.88835492873E+02  0.81100897079E+02 0.  0.
         11    1    3    3    0    0 -0.14971046411E+02  0.34086243314E+02  0.39400298261E+01  0.37436987716E+02  0.51100000000E-03 0. -1.
         22    1    1    0    0    0  0.61367081733E+01  0.56857620904E+01 -0.35276085515E+02  0.36254507127E+02  0.00000000000E+00 0.  1.
</event>
<event>
 5    1  0.1055265E-009  0.9118800E+02  0.7815553E-02  0.1125453E+00
         25   -1    0    0    0    0  0.00000000000E+00  0.00000000000E+00  0.99999998245E-14  0.12509000000E+03  0.12509000000E+03 0.  0.
        -11    1    3    3    0    0  0.31754522819E+02 -0.21248293154E+02 -0.47009003867E+02  0.60577934318E+02  0.51100000000E-03 0.  1.
         23    2    1    0    0    0  0.23026372935E+02 -0.10606207601E+02 -0.14490305461E+02  0.95889410236E+02  0.91335122230E+02 0.  0.
         11    1    3    3    0    0 -0.87281498843E+01  0.10642085552E+02  0.32518698405E+02  0.35311475918E+02  0.51100000000E-03 0. -1.
         22    1    1    0    0    0 -0.23026372935E+02  0.10606207601E+02  0.14490305461E+02  0.29200589764E+02  0.00000000000E+00 0.  1.
</event>
<event>
 5    1  0.1055265E-009  0.9118800E+02  0.7815553E-02  0.1125453E+00
         25   -1    0    0    0    0  0.00000000000E+00  0.00000000000E+00  0.99999998245E-14  0.12509000000E+03  0.12509000000E+03 0.  0.
        -11    1    3    3    0    0 -0.37027586685E+02  0.82967065984E+01  0.12485075088E+02  0.39946897455E+02  0.51100000000E-03 0.  1.
         23    2    1    0    0    0  0.84886177158E+01 -0.24122919586E+02  0.14169573478E+02  0.95853914547E+02  0.91286495394E+02 0.  0.
         11    1    3    3    0    0  0.45516204401E+02 -0.32419626185E+02  0.16844983902E+01  0.55907017092E+02  0.51100000000E-03 0. -1.
         22    1    1    0    0    0 -0.84886177158E+01  0.24122919586E+02 -0.14169573478E+02  0.29236085453E+02  0.00000000000E+00 0. -1.
</event>
<event>
 5    1  0.1055265E-009  0.9118800E+02  0.7815553E-02  0.1125453E+00
         25   -1    0    0    0    0  0.00000000000E+00  0.00000000000E+00  0.99999998245E-14  0.12509000000E+03  0.12509000000E+03 0.  0.
        -11    1    3    3    0    0 -0.17145767847E+02  0.59561902665E+02 -0.13612829156E+01  0.61995569968E+02  0.51100000000E-03 0. -1.
         23    2    1    0    0    0 -0.10554489002E+02  0.26055462305E+02 -0.56606526440E+01  0.96413749506E+02  0.92050441343E+02 0.  0.
         11    1    3    3    0    0  0.65912788448E+01 -0.33506440360E+02 -0.42993697285E+01  0.34418179539E+02  0.51100000000E-03 0.  1.
         22    1    1    0    0    0  0.10554489002E+02 -0.26055462305E+02  0.56606526440E+01  0.28676250494E+02  0.00000000000E+00 0. -1.
</event>
<event>
 5    1  0.1055265E-009  0.9118800E+02  0.7815553E-02  0.1125453E+00
         25   -1    0    0    0    0  0.00000000000E+00  0.00000000000E+00  0.99999998245E-14  0.12509000000E+03  0.12509000000E+03 0.  0.
        -11    1    3    3    0    0  0.26622283447E+02 -0.12032811974E+02 -0.19703622074E+02  0.35238718237E+02  0.51100000000E-03 0.  1.
         23    2    1    0    0    0  0.11180687048E+02  0.23893250407E+02  0.20768462225E+02  0.91515840278E+02  0.85134745086E+02 0.  0.
         11    1    3    3    0    0 -0.15441596399E+02  0.35926062381E+02  0.40472084298E+02  0.56277122041E+02  0.51100000000E-03 0. -1.
         22    1    1    0    0    0 -0.11180687048E+02 -0.23893250407E+02 -0.20768462225E+02  0.33574159722E+02  0.00000000000E+00 0. -1.
</event>
<event>
 5    1  0.1055265E-009  0.9118800E+02  0.7815553E-02  0.1125453E+00
         25   -1    0    0    0    0  0.00000000000E+00  0.00000000000E+00  0.99999998245E-14  0.12509000000E+03  0.12509000000E+03 0.  0.
        -11    1    3    3    0    0 -0.60111938835E+02 -0.10277578527E+02  0.13543183313E+02  0.62469925767E+02  0.51100000000E-03 0.  1.
         23    2    1    0    0    0 -0.28556494041E+02 -0.34554912810E+01  0.80658310542E+01  0.95215740134E+02  0.90407774925E+02 0.  0.
         11    1    3    3    0    0  0.31555444794E+02  0.68220872457E+01 -0.54773522587E+01  0.32745814367E+02  0.51100000000E-03 0. -1.
         22    1    1    0    0    0  0.28556494041E+02  0.34554912810E+01 -0.80658310542E+01  0.29874259866E+02  0.00000000000E+00 0.  1.
</event>
<event>
 4    1  0.1055265E-009  0.9118800E+02  0.7815553E-02  0.1125453E+00
         25   -1    0    0    0    0  0.00000000000E+00  0.00000000000E+00  0.99999998245E-14  0.12509000000E+03  0.12509000000E+03 0.  0.
        -11    1    1    0    0    0 -0.18475118445E+02  0.20484544207E+01 -0.68919564647E+01  0.19824863965E+02  0.51100000000E-03 0.  1.
         11    1    1    0    0    0 -0.10038938928E+01 -0.44330782600E+02  0.29755202992E+02  0.53400357623E+02  0.51100000000E-03 0. -1.
         22    1    1    0    0    0  0.19479012338E+02  0.42282328179E+02 -0.22863246527E+02  0.51864778412E+02  0.00000000000E+00 0. -1.
</event>
<event>
 5    1  0.1055265E-009  0.9118800E+02  0.7815553E-02  0.1125453E+00
         25   -1    0    0    0    0  0.00000000000E+00  0.00000000000E+00  0.99999998245E-14  0.12509000000E+03  0.12509000000E+03 0.  0.
        -11    1    3    3    0    0 -0.32796764127E+02 -0.26254656872E+02 -0.12647778847E+02  0.43873694336E+02  0.51100000000E-03 0.  1.
         23    2    1    0    0    0 -0.19676124155E+02  0.17240484770E+02  0.12820782129E+02  0.95956571927E+02  0.91427058712E+02 0.  0.
         11    1    3    3    0    0  0.13120639972E+02  0.43495141642E+02  0.25468560977E+02  0.52082877591E+02  0.51100000000E-03 0. -1.
         22    1    1    0    0    0  0.19676124155E+02 -0.17240484770E+02 -0.12820782129E+02  0.29133428073E+02  0.00000000000E+00 0. -1.
</event>
<event>
 5    1  0.1055265E-009  0.9118800E+02  0.7815553E-02  0.1125453E+00
         25   -1    0    0    0    0  0.00000000000E+00  0.00000000000E+00  0.99999998245E-14  0.12509000000E+03  0.12509000000E+03 0.  0.
        -11    1    3    3    0    0  0.38204264408E+01 -0.15361908650E+02 -0.57417849950E+02  0.59559998226E+02  0.51100000000E-03 0.  1.
         23    2    1    0    0    0 -0.10503927373E+02 -0.13563219874E+01 -0.28021921778E+02  0.95133361341E+02  0.90293722043E+02 0.  0.
         11    1    3    3    0    0 -0.14324353814E+02  0.14005586663E+02  0.29395928172E+02  0.35573363115E+02  0.51100000000E-03 0. -1.
         22    1    1    0    0    0  0.10503927373E+02  0.13563219874E+01  0.28021921778E+02  0.29956638659E+02  0.00000000000E+00 0.  1.
</event>
<event>
 5    1  0.1055265E-009  0.9118800E+02  0.7815553E-02  0.1125453E+00
         25   -1    0    0    0    0  0.00000000000E+00  0.00000000000E+00  0.99999998245E-14  0.12509000000E+03  0.12509000000E+03 0.  0.
        -11    1    3    3    0    0  0.59096174934E+02  0.61909671817E+01  0.14283898237E+02  0.61112320490E+02  0.51100000000E-03 0. -1.
         23    2    1    0    0    0  0.24870995848E+02  0.33266436938E+01  0.15707510214E+02  0.95486640903E+02  0.90781824839E+02 0.  0.
         11    1    3    3    0    0 -0.34225179087E+02 -0.28643234879E+01  0.14236119765E+01  0.34374320413E+02  0.51100000000E-03 0.  1.
         22    1    1    0    0    0 -0.24870995848E+02 -0.33266436938E+01 -0.15707510214E+02  0.29603359097E+02  0.00000000000E+00 0. -1.
</event>
<event>
 5    1  0.1055265E-009  0.9118800E+02  0.7815553E-02  0.1125453E+00
         25   -1    0    0    0    0  0.00000000000E+00  0.00000000000E+00  0.99999998245E-14  0.12509000000E+03  0.12509000000E+03 0.  0.
        -11    1    3    3    0    0  0.24312274051E+02  0.74648771606E+01 -0.35980172864E+02  0.44061138207E+02  0.51100000000E-03 0. -1.
         23    2    1    0    0    0 -0.86571715631E+01 -0.24593509140E+02 -0.17851004261E+02  0.93491809159E+02  0.87990185336E+02 0.  0.
         11    1    3    3    0    0 -0.32969445614E+02 -0.32058386300E+02  0.18129168603E+02  0.49430670952E+02  0.51100000000E-03 0.  1.
         22    1    1    0    0    0  0.86571715631E+01  0.24593509140E+02  0.17851004261E+02  0.31598190841E+02  0.00000000000E+00 0. -1.
</event>
<event>
 5    1  0.1055265E-009  0.9118800E+02  0.7815553E-02  0.1125453E+00
         25   -1    0    0    0    0  0.00000000000E+00  0.00000000000E+00  0.99999998245E-14  0.12509000000E+03  0.12509000000E+03 0.  0.
        -11    1    3    3    0    0 -0.45864373346E+02 -0.18143272801E+02 -0.18753630901E+02  0.52767582497E+02  0.51100000000E-03 0. -1.
         23    2    1    0    0    0 -0.47927082127E+01 -0.26583278312E+02 -0.13074362064E+02  0.95080340202E+02  0.90220238371E+02 0.  0.
         11    1    3    3    0    0  0.41071665133E+02 -0.84400055112E+01  0.56792688373E+01  0.42312757705E+02  0.51100000000E-03 0.  1.
         22    1    1    0    0    0  0.47927082127E+01  0.26583278312E+02  0.13074362064E+02  0.30009659798E+02  0.00000000000E+00 0. -1.
</event>
<event>
 5    1  0.1055265E-009  0.9118800E+02  0.7815553E-02  0.1125453E+00
         25   -1    0    0    0    0  0.00000000000E+00  0.00000000000E+00  0.99999998245E-14  0.12509000000E+03  0.12509000000E+03 0.  0.
        -11    1    3    3    0    0 -0.76437017976E+01  0.44794022678E+02 -0.84043487555E+01  0.46212159906E+02  0.51100000000E-03 0.  1.
         23    2    1    0    0    0  0.38438967231E+01  0.28279022649E+02 -0.35234946008E+02  0.79747083418E+02  0.65601960561E+02 0.  0.
         11    1    3    3    0    0  0.11487598521E+02 -0.16515000030E+02 -0.26830597253E+02  0.33534923512E+02  0.51100000000E-03 0. -1.
         22    1    1    0    0    0 -0.38438967231E+01 -0.28279022649E+02  0.35234946008E+02  0.45342916582E+02  0.00000000000E+00 0.  1.
</event>
<event>
 5    1  0.1055265E-009  0.9118800E+02  0.7815553E-02  0.1125453E+00
         25   -1    0    0    0    0  0.00000000000E+00  0.00000000000E+00  0.99999998245E-14  0.12509000000E+03  0.12509000000E+03 0.  0.
        -11    1    3    3    0    0  0.11730363360E+02 -0.41029979229E+02 -0.19056100289E+02  0.46735378233E+02  0.51100000000E-03 0.  1.
         23    2    1    0    0    0  0.28862925840E+02  0.22190803706E+01 -0.28258812982E+01  0.96004291983E+02  0.91492325734E+02 0.  0.
         11    1    3    3    0    0  0.17132562480E+02  0.43249059599E+02  0.16230218991E+02  0.49268913750E+02  0.51100000000E-03 0. -1.
         22    1    1    0    0    0 -0.28862925840E+02 -0.22190803706E+01  0.28258812982E+01  0.29085708017E+02  0.00000000000E+00 0. -1.
</event>
<event>
 5    1  0.1055265E-009  0.9118800E+02  0.7815553E-02  0.1125453E+00
         25   -1    0    0    0    0  0.00000000000E+00  0.00000000000E+00  0.99999998245E-14  0.12509000000E+03  0.12509000000E+03 0.  0.
        -11    1    3    3    0    0  0.38128313547E+02  0.21132262358E+02  0.24867796142E+02  0.50187130736E+02  0.51100000000E-03 0.  1.
         23    2    1    0    0    0  0.65381395294E+00 -0.17933400259E+01  0.30546864757E+02  0.94483554802E+02  0.89388968226E+02 0.  0.
         11    1    3    3    0    0 -0.37474499594E+02 -0.22925602384E+02  0.56790686156E+01  0.44296424067E+02  0.51100000000E-03 0. -1.
         22    1    1    0    0    0 -0.65381395294E+00  0.17933400259E+01 -0.30546864757E+02  0.30606445198E+02  0.00000000000E+00 0.  1.
</event>
<event>
 4    1  0.1055265E-009  0.9118800E+02  0.7815553E-02  0.1125453E+00
         25   -1    0    0    0    0  0.00000000000E+00  0.00000000000E+00  0.99999998245E-14  0.12509000000E+03  0.12509000000E+03 0.  0.
        -11    1    1    0    0    0 -0.43971961370E+02  0.12039230583E+02 -0.19427564752E+02  0.49557105769E+02  0.51100000000E-03 0. -1.
         11    1    1    0    0    0  0.10605565775E+02  0.21264028824E+02 -0.18027621196E+01  0.23830377646E+02  0.51100000000E-03 0.  1.
         22    1    1    0    0    0  0.33366395595E+02 -0.33303259408E+02  0.21230326871E+02  0.51702516585E+02  0.00000000000E+00 0. -1.
</event>
<event>
 5    1  0.1055265E-009  0.9118800E+02  0.7815553E-02  0.1125453E+00
         25   -1    0    0    0    0  0.00000000000E+00  0.00000000000E+00  0.99999998245E-14  0.12509000000E+03  0.12509000000E+03 0.  0.
        -11    1    3    3    0    0  0.14900599815E+02 -0.34594041955E+02 -0.33248329981E+02  0.50241686481E+02  0.51100000000E-03 0.  1.
         23    2    1    0    0    0  0.10021798413E+02  0.10923334945E+02 -0.23902065420E+02  0.96964132527E+02  0.92795358589E+02 0.  0.
         11    1    3    3    0    0 -0.48788014026E+01  0.45517376901E+02  0.93462645609E+01  0.46722446046E+02  0.51100000000E-03 0. -1.
         22    1    1    0    0    0 -0.10021798413E+02 -0.10923334945E+02  0.23902065420E+02  0.28125867473E+02  0.00000000000E+00 0.  1.
</event>
<event>
 5    1  0.1055265E-009  0.9118800E+02  0.7815553E-02  0.1125453E+00
         25   -1    0    0    0    0  0.00000000000E+00  0.00000000000E+00  0.99999998245E-14  0.12509000000E+03  0.12509000000E+03 0.  0.
        -11    1    3    3    0    0  0.14194791032E+02  0.59524708051E+02 -0.32274401207E+01  0.61278865288E+02  0.51100000000E-03 0.  1.
         23    2    1    0    0    0 -0.14119713989E+01  0.30269026802E+02  0.13855187143E+01  0.94756399672E+02  0.89769972540E+02 0.  0.
         11    1    3    3    0    0 -0.15606762430E+02 -0.29255681250E+02  0.46129588351E+01  0.33477534384E+02  0.51100000000E-03 0. -1.
         22    1    1    0    0    0  0.14119713989E+01 -0.30269026802E+02 -0.13855187143E+01  0.30333600328E+02  0.00000000000E+00 0.  1.
</event>
<event>
 5    1  0.1055265E-009  0.9118800E+02  0.7815553E-02  0.1125453E+00
         25   -1    0    0    0    0  0.00000000000E+00  0.00000000000E+00  0.99999998245E-14  0.12509000000E+03  0.12509000000E+03 0.  0.
        -11    1    3    3    0    0  0.14018319917E+02 -0.46991649127E+02 -0.32802551923E+02  0.58997760922E+02  0.51100000000E-03 0. -1.
         23    2    1    0    0    0 -0.86517275207E+01 -0.18816107503E+02 -0.16232579125E+02  0.98776601973E+02  0.95207259080E+02 0.  0.
         11    1    3    3    0    0 -0.22670047437E+02  0.28175541623E+02  0.16569972797E+02  0.39778841051E+02  0.51100000000E-03 0.  1.
         22    1    1    0    0    0  0.86517275207E+01  0.18816107503E+02  0.16232579125E+02  0.26313398027E+02  0.00000000000E+00 0. -1.
</event>
<event>
 5    1  0.1055265E-009  0.9118800E+02  0.7815553E-02  0.1125453E+00
         25   -1    0    0    0    0  0.00000000000E+00  0.00000000000E+00  0.99999998245E-14  0.12509000000E+03  0.12509000000E+03 0.  0.
        -11    1    3    3    0    0  0.14278015332E+02  0.32893643029E+02 -0.57979709479E+01  0.36324508818E+02  0.51100000000E-03 0.  1.
         23    2    1    0    0    0 -0.22274039643E+02 -0.11392610209E+02 -0.17017224177E+02  0.94832598789E+02  0.89876089506E+02 0.  0.
         11    1    3    3    0    0 -0.36552054975E+02 -0.44286253237E+02 -0.11219253229E+02  0.58508089970E+02  0.51100000000E-03 0. -1.
         22    1    1    0    0    0  0.22274039643E+02  0.11392610209E+02  0.17017224177E+02  0.30257401211E+02  0.00000000000E+00 0. -1.
</event>
<event>
 5    1  0.1055265E-009  0.9118800E+02  0.7815553E-02  0.1125453E+00
         25   -1    0    0    0    0  0.00000000000E+00  0.00000000000E+00  0.99999998245E-14  0.12509000000E+03  0.12509000000E+03 0.  0.
        -11    1    3    3    0    0 -0.10740615149E+02  0.14421388058E+01 -0.29007848612E+02  0.30966043652E+02  0.51100000000E-03 0. -1.
         23    2    1    0    0    0  0.29173521738E+02  0.90877474216E+01  0.15154748456E+02  0.90982113455E+02  0.84346885208E+02 0.  0.
         11    1    3    3    0    0  0.39914136887E+02  0.76456086158E+01  0.44162597068E+02  0.60016069803E+02  0.51100000000E-03 0.  1.
         22    1    1    0    0    0 -0.29173521738E+02 -0.90877474216E+01 -0.15154748456E+02  0.34107886545E+02  0.00000000000E+00 0.  1.
</event>
<event>
 5    1  0.1055265E-009  0.9118800E+02  0.7815553E-02  0.1125453E+00
         25   -1    0    0    0    0  0.00000000000E+00  0.00000000000E+00  0.99999998245E-14  0.12509000000E+03  0.12509000000E+03 0.  0.
        -11    1    3    3    0    0 -0.54217991400E+01 -0.11149372023E+02  0.32330326998E+02  0.34625921598E+02  0.51100000000E-03 0. -1.
         23    2    1    0    0    0  0.19643437349E+02  0.19906874588E+01 -0.21781549335E+02  0.95691643603E+02  0.91063863835E+02 0.  0.
         11    1    3    3    0    0  0.25065236489E+02  0.13140059481E+02 -0.54111876333E+02  0.61065722005E+02  0.51100000000E-03 0.  1.
         22    1    1    0    0    0 -0.19643437349E+02 -0.19906874588E+01  0.21781549335E+02  0.29398356397E+02  0.00000000000E+00 0.  1.
</event>
<event>
 5    1  0.1055265E-009  0.9118800E+02  0.7815553E-02  0.1125453E+00
         25   -1    0    0    0    0  0.00000000000E+00  0.00000000000E+00  0.99999998245E-14  0.12509000000E+03  0.12509000000E+03 0.  0.
        -11    1    3    3    0    0  0.37195590965E+02  0.45373046322E+01  0.20836222287E+02  0.42874786064E+02  0.51100000000E-03 0.  1.
         23    2    1    0    0    0 -0.27152105458E+01  0.30325055307E+02  0.29391650295E+00  0.94642212977E+02  0.89610717789E+02 0.  0.
         11    1    3    3    0    0 -0.39910801511E+02  0.25787750674E+02 -0.20542305784E+02  0.51767426914E+02  0.51100000000E-03 0. -1.
         22    1    1    0    0    0  0.27152105458E+01 -0.30325055307E+02 -0.29391650295E+00  0.30447787023E+02  0.00000000000E+00 0.  1.
</event>
<event>
 5    1  0.1055265E-009  0.9118800E+02  0.7815553E-02  0.1125453E+00
         25   -1    0    0    0    0  0.00000000000E+00  0.00000000000E+00  0.99999998245E-14  0.12509000000E+03  0.12509000000E+03 0.  0.
        -11    1    3    3    0    0  0.36902552370E+02 -0.94846712178E+01  0.18950318717E+02  0.42554341015E+02  0.51100000000E-03 0.  1.
         23    2    1    0    0    0 -0.15157875721E+02 -0.74695821891E+00  0.25160367912E+02  0.95706956311E+02  0.91084895728E+02 0.  0.
         11    1    3    3    0    0 -0.52060428091E+02  0.87377129989E+01  0.62100491948E+01  0.53152615295E+02  0.51100000000E-03 0. -1.
         22    1    1    0    0    0  0.15157875721E+02  0.74695821891E+00 -0.25160367912E+02  0.29383043689E+02  0.00000000000E+00 0. -1.
</event>
<event>
 5    1  0.1055265E-009  0.9118800E+02  0.7815553E-02  0.1125453E+00
         25   -1    0    0    0    0  0.00000000000E+00  0.00000000000E+00  0.99999998245E-14  0.12509000000E+03  0.12509000000E+03 0.  0.
        -11    1    3    3    0    0 -0.10781262700E+02 -0.48925057825E+02 -0.23049363321E+02  0.55146804606E+02  0.51100000000E-03 0.  1.
         23    2    1    0    0    0  0.85232948554E+01 -0.24160242711E+02  0.69189226052E+01  0.98552566570E+02  0.94912449154E+02 0.  0.
         11    1    3    3    0    0  0.19304557556E+02  0.24764815113E+02  0.29968285926E+02  0.43405761963E+02  0.51100000000E-03 0. -1.
         22    1    1    0    0    0 -0.85232948554E+01  0.24160242711E+02 -0.69189226052E+01  0.26537433430E+02  0.00000000000E+00 0.  1.
</event>
<event>
 5    1  0.1055265E-009  0.9118800E+02  0.7815553E-02  0.1125453E+00
         25   -1    0    0    0    0  0.00000000000E+00  0.00000000000E+00  0.99999998245E-14  0.12509000000E+03  0.12509000000E+03 0.  0.
        -11    1    3    3    0    0  0.32695301348E+02  0.26540412598E+02 -0.21995351933E+02  0.47509701515E+02  0.51100000000E-03 0.  1.
         23    2    1    0    0    0  0.21049378682E+02 -0.18249842277E+02 -0.51553484605E+01  0.96757850350E+02  0.92516868195E+02 0.  0.
         11    1    3    3    0    0 -0.11645922666E+02 -0.44790254875E+02  0.16840003473E+02  0.49248148836E+02  0.51100000000E-03 0. -1.
         22    1    1    0    0    0 -0.21049378682E+02  0.18249842277E+02  0.51553484605E+01  0.28332149650E+02  0.00000000000E+00 0. -1.
</event>
<event>
 5    1  0.1055265E-009  0.9118800E+02  0.7815553E-02  0.1125453E+00
         25   -1    0    0    0    0  0.00000000000E+00  0.00000000000E+00  0.99999998245E-14  0.12509000000E+03  0.12509000000E+03 0.  0.
        -11    1    3    3    0    0 -0.17588074000E+02 -0.30805047654E+02 -0.30971958112E+01  0.35607357809E+02  0.51100000000E-03 0.  1.
         23    2    1    0    0    0 -0.59347884321E+01  0.27997400287E+02 -0.68208026894E+01  0.95668927859E+02  0.91032654975E+02 0.  0.
         11    1    3    3    0    0  0.11653285568E+02  0.58802447942E+02 -0.37236068782E+01  0.60061570050E+02  0.51100000000E-03 0. -1.
         22    1    1    0    0    0  0.59347884321E+01 -0.27997400287E+02  0.68208026894E+01  0.29421072141E+02  0.00000000000E+00 0. -1.
</event>
<event>
 5    1  0.1055265E-009  0.9118800E+02  0.7815553E-02  0.1125453E+00
         25   -1    0    0    0    0  0.00000000000E+00  0.00000000000E+00  0.99999998245E-14  0.12509000000E+03  0.12509000000E+03 0.  0.
        -11    1    3    3    0    0 -0.10937539582E+02 -0.48901956291E+02 -0.35642224899E+02  0.61493083329E+02  0.51100000000E-03 0.  1.
         23    2    1    0    0    0  0.13438086176E+01 -0.17473024931E+02 -0.19415307442E+02  0.98935333401E+02  0.95415583686E+02 0.  0.
         11    1    3    3    0    0  0.12281348199E+02  0.31428931360E+02  0.16226917457E+02  0.37442250072E+02  0.51100000000E-03 0. -1.
         22    1    1    0    0    0 -0.13438086176E+01  0.17473024931E+02  0.19415307442E+02  0.26154666599E+02  0.00000000000E+00 0.  1.
</event>
<event>
 5    1  0.1055265E-009  0.9118800E+02  0.7815553E-02  0.1125453E+00
         25   -1    0    0    0    0  0.00000000000E+00  0.00000000000E+00  0.99999998245E-14  0.12509000000E+03  0.12509000000E+03 0.  0.
        -11    1    3    3    0    0  0.76361844290E+00  0.33471006889E+02  0.39863312842E+02  0.52057421433E+02  0.51100000000E-03 0. -1.
         23    2    1    0    0    0 -0.21728015848E+02  0.19654061818E+02  0.56801571417E+01  0.95246189858E+02  0.90449895958E+02 0.  0.
         11    1    3    3    0    0 -0.22491634291E+02 -0.13816945071E+02 -0.34183155700E+02  0.43188768425E+02  0.51100000000E-03 0.  1.
         22    1    1    0    0    0  0.21728015848E+02 -0.19654061818E+02 -0.56801571417E+01  0.29843810142E+02  0.00000000000E+00 0. -1.
</event>
<event>
 5    1  0.1055265E-009  0.9118800E+02  0.7815553E-02  0.1125453E+00
         25   -1    0    0    0    0  0.00000000000E+00  0.00000000000E+00  0.99999998245E-14  0.12509000000E+03  0.12509000000E+03 0.  0.
        -11    1    3    3    0    0 -0.31590533841E+02  0.14729389482E+00 -0.27618215504E+02  0.41961283962E+02  0.51100000000E-03 0.  1.
         23    2    1    0    0    0 -0.18766902104E+02 -0.18851189712E+02  0.17970927424E+02  0.92988314676E+02  0.87271464212E+02 0.  0.
         11    1    3    3    0    0  0.12823631737E+02 -0.18998483607E+02  0.45589142928E+02  0.51027030714E+02  0.51100000000E-03 0. -1.
         22    1    1    0    0    0  0.18766902104E+02  0.18851189712E+02 -0.17970927424E+02  0.32101685324E+02  0.00000000000E+00 0.  1.
</event>
<event>
 5    1  0.1055265E-009  0.9118800E+02  0.7815553E-02  0.1125453E+00
         25   -1    0    0    0    0  0.00000000000E+00  0.00000000000E+00  0.99999998245E-14  0.12509000000E+03  0.12509000000E+03 0.  0.
        -11    1    3    3    0    0 -0.95096069136E+01  0.17375617436E+02 -0.13165731456E+02  0.23784053270E+02  0.51100000000E-03 0. -1.
         23    2    1    0    0    0  0.13629935377E+02 -0.33709033210E+02  0.14036810028E+02  0.86114288408E+02  0.76789091504E+02 0.  0.
         11    1    3    3    0    0  0.23139542291E+02 -0.51084650645E+02  0.27202541484E+02  0.62330235138E+02  0.51100000000E-03 0.  1.
         22    1    1    0    0    0 -0.13629935377E+02  0.33709033210E+02 -0.14036810028E+02  0.38975711592E+02  0.00000000000E+00 0.  1.
</event>
<event>
 5    1  0.1055265E-009  0.9118800E+02  0.7815553E-02  0.1125453E+00
         25   -1    0    0    0    0  0.00000000000E+00  0.00000000000E+00  0.99999998245E-14  0.12509000000E+03  0.12509000000E+03 0.  0.
        -11    1    3    3    0    0  0.28049977194E+02  0.12454217483E+01  0.15131264046E+02  0.31895257450E+02  0.51100000000E-03 0. -1.
         23    2    1    0    0    0 -0.17573092924E+02  0.32292956740E+02  0.66571378943E+01  0.87727369808E+02  0.79373328509E+02 0.  0.
         11    1    3    3    0    0 -0.45623070118E+02  0.31047534992E+02 -0.84741261521E+01  0.55832112358E+02  0.51100000000E-03 0.  1.
         22    1    1    0    0    0  0.17573092924E+02 -0.32292956740E+02 -0.66571378943E+01  0.37362630192E+02  0.00000000000E+00 0.  1.
</event>
<event>
 5    1  0.1055265E-009  0.9118800E+02  0.7815553E-02  0.1125453E+00
         25   -1    0    0    0    0  0.00000000000E+00  0.00000000000E+00  0.99999998245E-14  0.12509000000E+03  0.12509000000E+03 0.  0.
        -11    1    3    3    0    0  0.51811066284E+02 -0.17718753767E+02 -0.10887144041E+02  0.55828941690E+02  0.51100000000E-03 0.  1.
         23    2    1    0    0    0  0.14782879253E+02 -0.13169951601E+02 -0.22707587142E+02  0.94963339747E+02  0.90057871604E+02 0.  0.
         11    1    3    3    0    0 -0.37028187031E+02  0.45488021660E+01 -0.11820443101E+02  0.39134398057E+02  0.51100000000E-03 0. -1.
         22    1    1    0    0    0 -0.14782879253E+02  0.13169951601E+02  0.22707587142E+02  0.30126660253E+02  0.00000000000E+00 0.  1.
</event>
<event>
 5    1  0.1055265E-009  0.9118800E+02  0.7815553E-02  0.1125453E+00
         25   -1    0    0    0    0  0.00000000000E+00  0.00000000000E+00  0.99999998245E-14  0.12509000000E+03  0.12509000000E+03 0.  0.
        -11    1    3    3    0    0  0.28563379802E+02  0.90100984062E+01  0.24695127800E+02  0.38818782520E+02  0.51100000000E-03 0. -1.
         23    2    1    0    0    0  0.42349929527E+01  0.14493509213E+02 -0.25833890218E+02  0.95166984470E+02  0.90340290428E+02 0.  0.
         11    1    3    3    0    0 -0.24328386849E+02  0.54834108065E+01 -0.50529018019E+02  0.56348201950E+02  0.51100000000E-03 0.  1.
         22    1    1    0    0    0 -0.42349929527E+01 -0.14493509213E+02  0.25833890218E+02  0.29923015530E+02  0.00000000000E+00 0.  1.
</event>
<event>
 5    1  0.1055265E-009  0.9118800E+02  0.7815553E-02  0.1125453E+00
         25   -1    0    0    0    0  0.00000000000E+00  0.00000000000E+00  0.99999998245E-14  0.12509000000E+03  0.12509000000E+03 0.  0.
        -11    1    3    3    0    0 -0.51829096509E+02 -0.64222646463E+01 -0.19241532320E+02  0.55657320223E+02  0.51100000000E-03 0. -1.
         23    2    1    0    0    0 -0.12278921947E+02 -0.42091210387E+01 -0.26176543928E+02  0.95871853650E+02  0.91311074061E+02 0.  0.
         11    1    3    3    0    0  0.39550174562E+02  0.22131436076E+01 -0.69350116080E+01  0.40214533427E+02  0.51100000000E-03 0.  1.
         22    1    1    0    0    0  0.12278921947E+02  0.42091210387E+01  0.26176543928E+02  0.29218146350E+02  0.00000000000E+00 0. -1.
</event>
<event>
 5    1  0.1055265E-009  0.9118800E+02  0.7815553E-02  0.1125453E+00
         25   -1    0    0    0    0  0.00000000000E+00  0.00000000000E+00  0.99999998245E-14  0.12509000000E+03  0.12509000000E+03 0.  0.
        -11    1    3    3    0    0  0.60234740850E+02 -0.99376768898E+01  0.40383768879E+01  0.61182431427E+02  0.51100000000E-03 0.  1.
         23    2    1    0    0    0  0.25305629970E+02 -0.13420627221E+02  0.28427352158E+01  0.96305120520E+02  0.91902703723E+02 0.  0.
         11    1    3    3    0    0 -0.34929110880E+02 -0.34829503310E+01 -0.11956416720E+01  0.35122689093E+02  0.51100000000E-03 0. -1.
         22    1    1    0    0    0 -0.25305629970E+02  0.13420627221E+02 -0.28427352158E+01  0.28784879480E+02  0.00000000000E+00 0.  1.
</event>
<event>
 5    1  0.1055265E-009  0.9118800E+02  0.7815553E-02  0.1125453E+00
         25   -1    0    0    0    0  0.00000000000E+00  0.00000000000E+00  0.99999998245E-14  0.12509000000E+03  0.12509000000E+03 0.  0.
        -11    1    3    3    0    0  0.54853820712E+01  0.27338877736E+02 -0.38636949778E+02  0.47647849277E+02  0.51100000000E-03 0.  1.
         23    2    1    0    0    0 -0.24956583803E+02  0.12994987066E+02 -0.27911558664E+01  0.96814722548E+02  0.92593731899E+02 0.  0.
         11    1    3    3    0    0 -0.30441965874E+02 -0.14343890670E+02  0.35845793911E+02  0.49166873271E+02  0.51100000000E-03 0. -1.
         22    1    1    0    0    0  0.24956583803E+02 -0.12994987066E+02  0.27911558664E+01  0.28275277452E+02  0.00000000000E+00 0.  1.
</event>
<event>
 5    1  0.1055265E-009  0.9118800E+02  0.7815553E-02  0.1125453E+00
         25   -1    0    0    0    0  0.00000000000E+00  0.00000000000E+00  0.99999998245E-14  0.12509000000E+03  0.12509000000E+03 0.  0.
        -11    1    3    3    0    0 -0.12266673398E+02  0.57647310295E+01  0.33401225127E+01  0.13959219848E+02  0.51100000000E-03 0. -1.
         23    2    1    0    0    0  0.39012392609E+02 -0.25912758680E+02  0.16093112916E+02  0.75568023840E+02  0.57079769658E+02 0.  0.
         11    1    3    3    0    0  0.51279066007E+02 -0.31677489710E+02  0.12752990404E+02  0.61608803992E+02  0.51100000000E-03 0.  1.
         22    1    1    0    0    0 -0.39012392609E+02  0.25912758680E+02 -0.16093112916E+02  0.49521976160E+02  0.00000000000E+00 0.  1.
</event>
<event>
 5    1  0.1055265E-009  0.9118800E+02  0.7815553E-02  0.1125453E+00
         25   -1    0    0    0    0  0.00000000000E+00  0.00000000000E+00  0.99999998245E-14  0.12509000000E+03  0.12509000000E+03 0.  0.
        -11    1    3    3    0    0 -0.94840619892E+01  0.10404005397E+02 -0.42300200876E+02  0.44581361067E+02  0.51100000000E-03 0. -1.
         23    2    1    0    0    0  0.25555142400E+02 -0.90760903850E+01 -0.95817106131E+01  0.96328047736E+02  0.91933904968E+02 0.  0.
         11    1    3    3    0    0  0.35039204389E+02 -0.19480095782E+02  0.32718490263E+02  0.51746686669E+02  0.51100000000E-03 0.  1.
         22    1    1    0    0    0 -0.25555142400E+02  0.90760903850E+01  0.95817106131E+01  0.28761952264E+02  0.00000000000E+00 0. -1.
</event>
<event>
 5    1  0.1055265E-009  0.9118800E+02  0.7815553E-02  0.1125453E+00
         25   -1    0    0    0    0  0.00000000000E+00  0.00000000000E+00  0.99999998245E-14  0.12509000000E+03  0.12509000000E+03 0.  0.
        -11    1    3    3    0    0 -0.43639577391E+01 -0.15706611109E+02  0.46433923714E+02  0.49212305691E+02  0.51100000000E-03 0. -1.
         23    2    1    0    0    0 -0.23043350998E+02  0.11865808335E+02  0.14316135427E+02  0.95480117085E+02  0.90772835101E+02 0.  0.
         11    1    3    3    0    0 -0.18679393259E+02  0.27572419444E+02 -0.32117788287E+02  0.46267811394E+02  0.51100000000E-03 0.  1.
         22    1    1    0    0    0  0.23043350998E+02 -0.11865808335E+02 -0.14316135427E+02  0.29609882915E+02  0.00000000000E+00 0. -1.
</event>
<event>
 5    1  0.1055265E-009  0.9118800E+02  0.7815553E-02  0.1125453E+00
         25   -1    0    0    0    0  0.00000000000E+00  0.00000000000E+00  0.99999998245E-14  0.12509000000E+03  0.12509000000E+03 0.  0.
        -11    1    3    3    0    0 -0.48238495085E+01  0.27422565408E+02  0.84375844609E+01  0.29093976171E+02  0.51100000000E-03 0.  1.
         23    2    1    0    0    0 -0.14626629061E+02 -0.29109428545E+02 -0.12537219786E+02  0.90183281623E+02  0.83153744933E+02 0.  0.
         11    1    3    3    0    0 -0.98027795523E+01 -0.56531993953E+02 -0.20974804247E+02  0.61089305452E+02  0.51100000000E-03 0. -1.
         22    1    1    0    0    0  0.14626629061E+02  0.29109428545E+02  0.12537219786E+02  0.34906718377E+02  0.00000000000E+00 0. -1.
</event>
<event>
 5    1  0.1055265E-009  0.9118800E+02  0.7815553E-02  0.1125453E+00
         25   -1    0    0    0    0  0.00000000000E+00  0.00000000000E+00  0.99999998245E-14  0.12509000000E+03  0.12509000000E+03 0.  0.
        -11    1    3    3    0    0 -0.88940620066E+01  0.56023337536E+02  0.32811955987E+01  0.56819758293E+02  0.51100000000E-03 0.  1.
         23    2    1    0    0    0  0.14774302526E+02  0.25581449810E+02 -0.31067365594E+00  0.95547029472E+02  0.90864997294E+02 0.  0.
         11    1    3    3    0    0  0.23668364532E+02 -0.30441887726E+02 -0.35918692546E+01  0.38727271179E+02  0.51100000000E-03 0. -1.
         22    1    1    0    0    0 -0.14774302526E+02 -0.25581449810E+02  0.31067365594E+00  0.29542970528E+02  0.00000000000E+00 0.  1.
</event>
<event>
 5    1  0.1055265E-009  0.9118800E+02  0.7815553E-02  0.1125453E+00
         25   -1    0    0    0    0  0.00000000000E+00  0.00000000000E+00  0.99999998245E-14  0.12509000000E+03  0.12509000000E+03 0.  0.
        -11    1    3    3    0    0 -0.31412681839E+02 -0.27186138304E+02  0.60152726597E+01  0.41976495824E+02  0.51100000000E-03 0. -1.
         23    2    1    0    0    0  0.96551349439E+01 -0.12150425262E+01  0.28101509176E+02  0.95351257978E+02  0.90595086074E+02 0.  0.
         11    1    3    3    0    0  0.41067816783E+02  0.25971095778E+02  0.22086236516E+02  0.53374762154E+02  0.51100000000E-03 0.  1.
         22    1    1    0    0    0 -0.96551349439E+01  0.12150425262E+01 -0.28101509176E+02  0.29738742022E+02  0.00000000000E+00 0.  1.
</event>
<event>
 5    1  0.1055265E-009  0.9118800E+02  0.7815553E-02  0.1125453E+00
         25   -1    0    0    0    0  0.00000000000E+00  0.00000000000E+00  0.99999998245E-14  0.12509000000E+03  0.12509000000E+03 0.  0.
        -11    1    3    3    0    0 -0.13993034627E+02 -0.16985683422E+02 -0.29848244505E+02  0.37084176676E+02  0.51100000000E-03 0.  1.
         23    2    1    0    0    0 -0.20962984666E+01 -0.47634849805E+01  0.27596231949E+02  0.97007313622E+02  0.92853549323E+02 0.  0.
         11    1    3    3    0    0  0.11896736161E+02  0.12222198441E+02  0.57444476455E+02  0.59923136946E+02  0.51100000000E-03 0. -1.
         22    1    1    0    0    0  0.20962984666E+01  0.47634849805E+01 -0.27596231949E+02  0.28082686378E+02  0.00000000000E+00 0. -1.
</event>
<event>
 5    1  0.1055265E-009  0.9118800E+02  0.7815553E-02  0.1125453E+00
         25   -1    0    0    0    0  0.00000000000E+00  0.00000000000E+00  0.99999998245E-14  0.12509000000E+03  0.12509000000E+03 0.  0.
        -11    1    3    3    0    0  0.30934855955E+02  0.19926000456E+02  0.20312794442E+02  0.42031183965E+02  0.51100000000E-03 0.  1.
         23    2    1    0    0    0  0.93449689225E+01  0.11382215777E+02 -0.26774831532E+02  0.94532269657E+02  0.89457113316E+02 0.  0.
         11    1    3    3    0    0 -0.21589887033E+02 -0.85437846789E+01 -0.47087625974E+02  0.52501085692E+02  0.51100000000E-03 0. -1.
         22    1    1    0    0    0 -0.93449689225E+01 -0.11382215777E+02  0.26774831532E+02  0.30557730343E+02  0.00000000000E+00 0. -1.
</event>
<event>
 5    1  0.1055265E-009  0.9118800E+02  0.7815553E-02  0.1125453E+00
         25   -1    0    0    0    0  0.00000000000E+00  0.00000000000E+00  0.99999998245E-14  0.12509000000E+03  0.12509000000E+03 0.  0.
        -11    1    3    3    0    0 -0.43066824512E+01  0.33247735034E+02 -0.14063365234E+02  0.36355709876E+02  0.51100000000E-03 0.  1.
         23    2    1    0    0    0  0.11552752715E+02 -0.20625729223E+02  0.12351434582E+02  0.98417078572E+02  0.94733714258E+02 0.  0.
         11    1    3    3    0    0  0.15859435166E+02 -0.53873464257E+02  0.26414799815E+02  0.62061368696E+02  0.51100000000E-03 0. -1.
         22    1    1    0    0    0 -0.11552752715E+02  0.20625729223E+02 -0.12351434582E+02  0.26672921428E+02  0.00000000000E+00 0. -1.
</event>
<event>
 5    1  0.1055265E-009  0.9118800E+02  0.7815553E-02  0.1125453E+00
         25   -1    0    0    0    0  0.00000000000E+00  0.00000000000E+00  0.99999998245E-14  0.12509000000E+03  0.12509000000E+03 0.  0.
        -11    1    3    3    0    0  0.27855378087E+02  0.52620173210E+01 -0.17176500322E+02  0.33145785226E+02  0.51100000000E-03 0. -1.
         23    2    1    0    0    0 -0.23243630178E+02 -0.60570858162E+00  0.18191946981E+02  0.95567463495E+02  0.90893123596E+02 0.  0.
         11    1    3    3    0    0 -0.51099008265E+02 -0.58677259026E+01  0.35368447304E+02  0.62421678269E+02  0.51100000000E-03 0.  1.
         22    1    1    0    0    0  0.23243630178E+02  0.60570858162E+00 -0.18191946981E+02  0.29522536505E+02  0.00000000000E+00 0.  1.
</event>
<event>
 5    1  0.1055265E-009  0.9118800E+02  0.7815553E-02  0.1125453E+00
         25   -1    0    0    0    0  0.00000000000E+00  0.00000000000E+00  0.99999998245E-14  0.12509000000E+03  0.12509000000E+03 0.  0.
        -11    1    3    3    0    0 -0.14703075289E+02  0.11177065364E+02 -0.55832586607E+02  0.58808034660E+02  0.51100000000E-03 0.  1.
         23    2    1    0    0    0  0.25231920450E+01  0.10703010207E+02 -0.44060791834E+02  0.79677729603E+02  0.65469582953E+02 0.  0.
         11    1    3    3    0    0  0.17226267334E+02 -0.47405515679E+00  0.11771794774E+02  0.20869694943E+02  0.51100000000E-03 0. -1.
         22    1    1    0    0    0 -0.25231920450E+01 -0.10703010207E+02  0.44060791834E+02  0.45412270397E+02  0.00000000000E+00 0.  1.
</event>
<event>
 5    1  0.1055265E-009  0.9118800E+02  0.7815553E-02  0.1125453E+00
         25   -1    0    0    0    0  0.00000000000E+00  0.00000000000E+00  0.99999998245E-14  0.12509000000E+03  0.12509000000E+03 0.  0.
        -11    1    3    3    0    0  0.71526712243E+00 -0.41284681893E+02  0.75995349696E+01  0.41984395888E+02  0.51100000000E-03 0. -1.
         23    2    1    0    0    0  0.29647957202E+02 -0.82669868241E+00  0.14283604106E+02  0.92170307668E+02  0.86090995304E+02 0.  0.
         11    1    3    3    0    0  0.28932690080E+02  0.40457983211E+02  0.66840691363E+01  0.50185911780E+02  0.51100000000E-03 0.  1.
         22    1    1    0    0    0 -0.29647957202E+02  0.82669868241E+00 -0.14283604106E+02  0.32919692332E+02  0.00000000000E+00 0. -1.
</event>
<event>
 5    1  0.1055265E-009  0.9118800E+02  0.7815553E-02  0.1125453E+00
         25   -1    0    0    0    0  0.00000000000E+00  0.00000000000E+00  0.99999998245E-14  0.12509000000E+03  0.12509000000E+03 0.  0.
        -11    1    3    3    0    0 -0.20530570821E+02  0.65874023847E+01  0.38764622575E+02  0.44357571756E+02  0.51100000000E-03 0.  1.
         23    2    1    0    0    0 -0.77075175214E+01  0.26221485719E+02 -0.79487765944E+01  0.96626774796E+02  0.92339473783E+02 0.  0.
         11    1    3    3    0    0  0.12823053300E+02  0.19634083334E+02 -0.46713399169E+02  0.52269203041E+02  0.51100000000E-03 0. -1.
         22    1    1    0    0    0  0.77075175214E+01 -0.26221485719E+02  0.79487765944E+01  0.28463225204E+02  0.00000000000E+00 0. -1.
</event>
<event>
 5    1  0.1055265E-009  0.9118800E+02  0.7815553E-02  0.1125453E+00
         25   -1    0    0    0    0  0.00000000000E+00  0.00000000000E+00  0.99999998245E-14  0.12509000000E+03  0.12509000000E+03 0.  0.
        -11    1    3    3    0    0 -0.25094346023E+02  0.12734885602E+02  0.17942592027E+02  0.33374243400E+02  0.51100000000E-03 0. -1.
         23    2    1    0    0    0  0.20147280690E+02  0.73743026501E+01 -0.22288677543E+02  0.94153316186E+02  0.88925634906E+02 0.  0.
         11    1    3    3    0    0  0.45241626713E+02 -0.53605829520E+01 -0.40231269570E+02  0.60779072786E+02  0.51100000000E-03 0.  1.
         22    1    1    0    0    0 -0.20147280690E+02 -0.73743026501E+01  0.22288677543E+02  0.30936683814E+02  0.00000000000E+00 0.  1.
</event>
<event>
 5    1  0.1055265E-009  0.9118800E+02  0.7815553E-02  0.1125453E+00
         25   -1    0    0    0    0  0.00000000000E+00  0.00000000000E+00  0.99999998245E-14  0.12509000000E+03  0.12509000000E+03 0.  0.
        -11    1    3    3    0    0  0.50507390627E+02  0.17315013796E+02  0.69808261829E+01  0.53847359686E+02  0.51100000000E-03 0.  1.
         23    2    1    0    0    0  0.29921916759E+02 -0.14169509506E+02  0.76935267008E+00  0.91973719930E+02  0.85804878369E+02 0.  0.
         11    1    3    3    0    0 -0.20585473868E+02 -0.31484523303E+02 -0.62114735129E+01  0.38126360244E+02  0.51100000000E-03 0. -1.
         22    1    1    0    0    0 -0.29921916759E+02  0.14169509506E+02 -0.76935267008E+00  0.33116280070E+02  0.00000000000E+00 0.  1.
</event>
<event>
 5    1  0.1055265E-009  0.9118800E+02  0.7815553E-02  0.1125453E+00
         25   -1    0    0    0    0  0.00000000000E+00  0.00000000000E+00  0.99999998245E-14  0.12509000000E+03  0.12509000000E+03 0.  0.
        -11    1    3    3    0    0 -0.48979131001E+02 -0.11255081711E+02 -0.20101472529E+02  0.54126715548E+02  0.51100000000E-03 0.  1.
         23    2    1    0    0    0 -0.23797365994E+02  0.17583755394E+02 -0.11342148446E+02  0.93401714887E+02  0.87862010735E+02 0.  0.
         11    1    3    3    0    0  0.25181765007E+02  0.28838837106E+02  0.87593240831E+01  0.39274999339E+02  0.51100000000E-03 0. -1.
         22    1    1    0    0    0  0.23797365994E+02 -0.17583755394E+02  0.11342148446E+02  0.31688285113E+02  0.00000000000E+00 0.  1.
</event>
<event>
 5    1  0.1055265E-009  0.9118800E+02  0.7815553E-02  0.1125453E+00
         25   -1    0    0    0    0  0.00000000000E+00  0.00000000000E+00  0.99999998245E-14  0.12509000000E+03  0.12509000000E+03 0.  0.
        -11    1    3    3    0    0  0.88865009655E+01  0.61487566864E+01  0.46934885562E+02  0.48162854890E+02  0.51100000000E-03 0. -1.
         23    2    1    0    0    0  0.85685332091E+01  0.27613042158E+02  0.43496072754E+01  0.95852713155E+02  0.91284849111E+02 0.  0.
         11    1    3    3    0    0 -0.31796775641E+00  0.21464285472E+02 -0.42585278287E+02  0.47689858265E+02  0.51100000000E-03 0.  1.
         22    1    1    0    0    0 -0.85685332091E+01 -0.27613042158E+02 -0.43496072754E+01  0.29237286845E+02  0.00000000000E+00 0. -1.
</event>
<event>
 5    1  0.1055265E-009  0.9118800E+02  0.7815553E-02  0.1125453E+00
         25   -1    0    0    0    0  0.00000000000E+00  0.00000000000E+00  0.99999998245E-14  0.12509000000E+03  0.12509000000E+03 0.  0.
        -11    1    3    3    0    0 -0.14946470618E+02 -0.36587277265E+02  0.46721800146E+02  0.61196016625E+02  0.51100000000E-03 0.  1.
         23    2    1    0    0    0 -0.25944913377E+01 -0.10538954099E+02  0.26623951485E+02  0.96338726437E+02  0.91948433810E+02 0.  0.
         11    1    3    3    0    0  0.12351979281E+02  0.26048323166E+02 -0.20097848661E+02  0.35142709813E+02  0.51100000000E-03 0. -1.
         22    1    1    0    0    0  0.25944913377E+01  0.10538954099E+02 -0.26623951485E+02  0.28751273563E+02  0.00000000000E+00 0.  1.
</event>
<event>
 5    1  0.1055265E-009  0.9118800E+02  0.7815553E-02  0.1125453E+00
         25   -1    0    0    0    0  0.00000000000E+00  0.00000000000E+00  0.99999998245E-14  0.12509000000E+03  0.12509000000E+03 0.  0.
        -11    1    3    3    0    0  0.56462560753E+02  0.25320757622E+02 -0.82769560735E+01  0.62431318547E+02  0.51100000000E-03 0.  1.
         23    2    1    0    0    0  0.26551682782E+02  0.10403750347E+02 -0.15154434792E+01  0.96532576293E+02  0.92211777106E+02 0.  0.
         11    1    3    3    0    0 -0.29910877971E+02 -0.14917007275E+02  0.67615125943E+01  0.34101257746E+02  0.51100000000E-03 0. -1.
         22    1    1    0    0    0 -0.26551682782E+02 -0.10403750347E+02  0.15154434792E+01  0.28557423707E+02  0.00000000000E+00 0.  1.
</event>
<event>
 5    1  0.1055265E-009  0.9118800E+02  0.7815553E-02  0.1125453E+00
         25   -1    0    0    0    0  0.00000000000E+00  0.00000000000E+00  0.99999998245E-14  0.12509000000E+03  0.12509000000E+03 0.  0.
        -11    1    3    3    0    0  0.49194769633E+01 -0.54703100142E+01 -0.35310206639E+02  0.36068493708E+02  0.51100000000E-03 0. -1.
         23    2    1    0    0    0 -0.22741425784E+01  0.29149011455E+02  0.10576633086E+02  0.93998172124E+02  0.88707128247E+02 0.  0.
         11    1    3    3    0    0 -0.71936195417E+01  0.34619321469E+02  0.45886839725E+02  0.57929678415E+02  0.51100000000E-03 0.  1.
         22    1    1    0    0    0  0.22741425784E+01 -0.29149011455E+02 -0.10576633086E+02  0.31091827876E+02  0.00000000000E+00 0.  1.
</event>
<event>
 5    1  0.1055265E-009  0.9118800E+02  0.7815553E-02  0.1125453E+00
         25   -1    0    0    0    0  0.00000000000E+00  0.00000000000E+00  0.99999998245E-14  0.12509000000E+03  0.12509000000E+03 0.  0.
        -11    1    3    3    0    0 -0.43395860172E+02  0.10352469183E+01 -0.19939232651E+02  0.47768665621E+02  0.51100000000E-03 0.  1.
         23    2    1    0    0    0  0.26308386939E-01  0.23015768464E+02 -0.16907331222E+02  0.96531566235E+02  0.92210406899E+02 0.  0.
         11    1    3    3    0    0  0.43422168559E+02  0.21980521545E+02  0.30319014291E+01  0.48762900614E+02  0.51100000000E-03 0. -1.
         22    1    1    0    0    0 -0.26308386939E-01 -0.23015768464E+02  0.16907331222E+02  0.28558433765E+02  0.00000000000E+00 0.  1.
</event>
<event>
 5    1  0.1055265E-009  0.9118800E+02  0.7815553E-02  0.1125453E+00
         25   -1    0    0    0    0  0.00000000000E+00  0.00000000000E+00  0.99999998245E-14  0.12509000000E+03  0.12509000000E+03 0.  0.
        -11    1    3    3    0    0 -0.13706389405E+01  0.30883676650E+02  0.16173124622E+02  0.34889111408E+02  0.51100000000E-03 0. -1.
         23    2    1    0    0    0  0.21185611006E+02 -0.17789074689E+02 -0.11356589585E+02  0.95185929725E+02  0.90366519235E+02 0.  0.
         11    1    3    3    0    0  0.22556249947E+02 -0.48672751339E+02 -0.27529714207E+02  0.60296818317E+02  0.51100000000E-03 0.  1.
         22    1    1    0    0    0 -0.21185611006E+02  0.17789074689E+02  0.11356589585E+02  0.29904070275E+02  0.00000000000E+00 0.  1.
</event>
<event>
 5    1  0.1055265E-009  0.9118800E+02  0.7815553E-02  0.1125453E+00
         25   -1    0    0    0    0  0.00000000000E+00  0.00000000000E+00  0.99999998245E-14  0.12509000000E+03  0.12509000000E+03 0.  0.
        -11    1    3    3    0    0 -0.70795759646E+01  0.33560162351E+02 -0.27800495000E+01  0.34411241889E+02  0.51100000000E-03 0. -1.
         23    2    1    0    0    0  0.40051396667E+01 -0.25345428252E+02 -0.14690215120E+02  0.95522546655E+02  0.90831286582E+02 0.  0.
         11    1    3    3    0    0  0.11084715631E+02 -0.58905590603E+02 -0.11910165620E+02  0.61111304766E+02  0.51100000000E-03 0.  1.
         22    1    1    0    0    0 -0.40051396667E+01  0.25345428252E+02  0.14690215120E+02  0.29567453345E+02  0.00000000000E+00 0.  1.
</event>
<event>
 5    1  0.1055265E-009  0.9118800E+02  0.7815553E-02  0.1125453E+00
         25   -1    0    0    0    0  0.00000000000E+00  0.00000000000E+00  0.99999998245E-14  0.12509000000E+03  0.12509000000E+03 0.  0.
        -11    1    3    3    0    0  0.22247767082E+02 -0.52453026805E+02 -0.10887444295E+02  0.58007065128E+02  0.51100000000E-03 0. -1.
         23    2    1    0    0    0  0.19475495896E+02 -0.14138268461E+02 -0.15141374039E+02  0.96656801389E+02  0.92380141110E+02 0.  0.
         11    1    3    3    0    0 -0.27722711859E+01  0.38314758345E+02 -0.42539297436E+01  0.38649736261E+02  0.51100000000E-03 0.  1.
         22    1    1    0    0    0 -0.19475495896E+02  0.14138268461E+02  0.15141374039E+02  0.28433198611E+02  0.00000000000E+00 0. -1.
</event>
<event>
 5    1  0.1055265E-009  0.9118800E+02  0.7815553E-02  0.1125453E+00
         25   -1    0    0    0    0  0.00000000000E+00  0.00000000000E+00  0.99999998245E-14  0.12509000000E+03  0.12509000000E+03 0.  0.
        -11    1    3    3    0    0 -0.40958587764E+02  0.32957310062E+02  0.15872219217E+02  0.54915549176E+02  0.51100000000E-03 0.  1.
         23    2    1    0    0    0 -0.28088538630E+02  0.33434513014E+01 -0.87043735998E+01  0.95494209949E+02  0.90792253773E+02 0.  0.
         11    1    3    3    0    0  0.12870049134E+02 -0.29613858761E+02 -0.24576592817E+02  0.40578660773E+02  0.51100000000E-03 0. -1.
         22    1    1    0    0    0  0.28088538630E+02 -0.33434513014E+01  0.87043735998E+01  0.29595790051E+02  0.00000000000E+00 0.  1.
</event>
<event>
 5    1  0.1055265E-009  0.9118800E+02  0.7815553E-02  0.1125453E+00
         25   -1    0    0    0    0  0.00000000000E+00  0.00000000000E+00  0.99999998245E-14  0.12509000000E+03  0.12509000000E+03 0.  0.
        -11    1    3    3    0    0  0.86388120408E+01  0.23676453974E+02 -0.43301928501E+02  0.50102500521E+02  0.51100000000E-03 0.  1.
         23    2    1    0    0    0 -0.14743211904E+02 -0.11103227772E+02 -0.19244896744E+02  0.98425228955E+02  0.94744475722E+02 0.  0.
         11    1    3    3    0    0 -0.23382023945E+02 -0.34779681746E+02  0.24057031757E+02  0.48322728434E+02  0.51100000000E-03 0. -1.
         22    1    1    0    0    0  0.14743211904E+02  0.11103227772E+02  0.19244896744E+02  0.26664771045E+02  0.00000000000E+00 0.  1.
</event>
<event>
 5    1  0.1055265E-009  0.9118800E+02  0.7815553E-02  0.1125453E+00
         25   -1    0    0    0    0  0.00000000000E+00  0.00000000000E+00  0.99999998245E-14  0.12509000000E+03  0.12509000000E+03 0.  0.
        -11    1    3    3    0    0 -0.48054806487E+02  0.97671148902E+01  0.37766029620E+02  0.61894538962E+02  0.51100000000E-03 0.  1.
         23    2    1    0    0    0 -0.24112598801E+02 -0.14818702208E+00  0.23232161168E+02  0.91606083071E+02  0.85267237335E+02 0.  0.
         11    1    3    3    0    0  0.23942207686E+02 -0.99153019123E+01 -0.14533868452E+02  0.29711544109E+02  0.51100000000E-03 0. -1.
         22    1    1    0    0    0  0.24112598801E+02  0.14818702208E+00 -0.23232161168E+02  0.33483916929E+02  0.00000000000E+00 0.  1.
</event>
<event>
 5    1  0.1055265E-009  0.9118800E+02  0.7815553E-02  0.1125453E+00
         25   -1    0    0    0    0  0.00000000000E+00  0.00000000000E+00  0.99999998245E-14  0.12509000000E+03  0.12509000000E+03 0.  0.
        -11    1    3    3    0    0  0.33234101997E+02  0.45649614412E+01  0.40651012004E+01  0.33791558954E+02  0.51100000000E-03 0. -1.
         23    2    1    0    0    0 -0.25716042461E+02 -0.14044801637E+02  0.31890080203E+01  0.95615586265E+02  0.90959327569E+02 0.  0.
         11    1    3    3    0    0 -0.58950144458E+02 -0.18609763079E+02 -0.87609318004E+00  0.61824027311E+02  0.51100000000E-03 0.  1.
         22    1    1    0    0    0  0.25716042461E+02  0.14044801637E+02 -0.31890080203E+01  0.29474413735E+02  0.00000000000E+00 0.  1.
</event>
<event>
 5    1  0.1055265E-009  0.9118800E+02  0.7815553E-02  0.1125453E+00
         25   -1    0    0    0    0  0.00000000000E+00  0.00000000000E+00  0.99999998245E-14  0.12509000000E+03  0.12509000000E+03 0.  0.
        -11    1    3    3    0    0 -0.39901785139E+01  0.14953820302E+01 -0.56560935052E+02  0.56721222362E+02  0.51100000000E-03 0. -1.
         23    2    1    0    0    0 -0.17640680439E+02 -0.93011060847E+01 -0.22135516715E+02  0.95295952256E+02  0.90518689979E+02 0.  0.
         11    1    3    3    0    0 -0.13650501925E+02 -0.10796488115E+02  0.34425418338E+02  0.38574729894E+02  0.51100000000E-03 0.  1.
         22    1    1    0    0    0  0.17640680439E+02  0.93011060847E+01  0.22135516715E+02  0.29794047744E+02  0.00000000000E+00 0.  1.
</event>
<event>
 5    1  0.1055265E-009  0.9118800E+02  0.7815553E-02  0.1125453E+00
         25   -1    0    0    0    0  0.00000000000E+00  0.00000000000E+00  0.99999998245E-14  0.12509000000E+03  0.12509000000E+03 0.  0.
        -11    1    3    3    0    0 -0.32836085537E+02  0.44931073822E+01  0.24597175651E+02  0.41272479664E+02  0.51100000000E-03 0. -1.
         23    2    1    0    0    0 -0.41682197204E+01  0.11338191380E+02 -0.24064217983E+02  0.98163893216E+02  0.94398806692E+02 0.  0.
         11    1    3    3    0    0  0.28667865816E+02  0.68450839979E+01 -0.48661393634E+02  0.56891413553E+02  0.51100000000E-03 0.  1.
         22    1    1    0    0    0  0.41682197204E+01 -0.11338191380E+02  0.24064217983E+02  0.26926106784E+02  0.00000000000E+00 0.  1.
</event>
<event>
 5    1  0.1055265E-009  0.9118800E+02  0.7815553E-02  0.1125453E+00
         25   -1    0    0    0    0  0.00000000000E+00  0.00000000000E+00  0.99999998245E-14  0.12509000000E+03  0.12509000000E+03 0.  0.
        -11    1    3    3    0    0 -0.18493017835E+02  0.50063210085E+02 -0.23959840281E+02  0.58501202203E+02  0.51100000000E-03 0.  1.
         23    2    1    0    0    0 -0.14431891502E+02  0.99047149669E+01 -0.19142957490E+02  0.99150923448E+02  0.95697805243E+02 0.  0.
         11    1    3    3    0    0  0.40611263336E+01 -0.40158495118E+02  0.48168827909E+01  0.40649721245E+02  0.51100000000E-03 0. -1.
         22    1    1    0    0    0  0.14431891502E+02 -0.99047149669E+01  0.19142957490E+02  0.25939076552E+02  0.00000000000E+00 0. -1.
</event>
<event>
 5    1  0.1055265E-009  0.9118800E+02  0.7815553E-02  0.1125453E+00
         25   -1    0    0    0    0  0.00000000000E+00  0.00000000000E+00  0.99999998245E-14  0.12509000000E+03  0.12509000000E+03 0.  0.
        -11    1    3    3    0    0  0.34928236250E+02  0.15056973542E+02 -0.12667834847E+02  0.40089502114E+02  0.51100000000E-03 0. -1.
         23    2    1    0    0    0  0.11030540483E+02 -0.28293199478E+02  0.79290803386E+01  0.93704521271E+02  0.88292066640E+02 0.  0.
         11    1    3    3    0    0 -0.23897695766E+02 -0.43350173020E+02  0.20596915186E+02  0.53615019157E+02  0.51100000000E-03 0.  1.
         22    1    1    0    0    0 -0.11030540483E+02  0.28293199478E+02 -0.79290803386E+01  0.31385478729E+02  0.00000000000E+00 0.  1.
</event>
<event>
 5    1  0.1055265E-009  0.9118800E+02  0.7815553E-02  0.1125453E+00
         25   -1    0    0    0    0  0.00000000000E+00  0.00000000000E+00  0.99999998245E-14  0.12509000000E+03  0.12509000000E+03 0.  0.
        -11    1    3    3    0    0 -0.14551645923E+02 -0.31364084585E+02 -0.13960276107E+01  0.34603541644E+02  0.51100000000E-03 0.  1.
         23    2    1    0    0    0 -0.49595413885E+01  0.28964224649E+02 -0.84215825282E+00  0.95692166902E+02  0.91064582663E+02 0.  0.
         11    1    3    3    0    0  0.95921045342E+01  0.60328309234E+02  0.55386935785E+00  0.61088625259E+02  0.51100000000E-03 0. -1.
         22    1    1    0    0    0  0.49595413885E+01 -0.28964224649E+02  0.84215825282E+00  0.29397833098E+02  0.00000000000E+00 0. -1.
</event>
<event>
 5    1  0.1055265E-009  0.9118800E+02  0.7815553E-02  0.1125453E+00
         25   -1    0    0    0    0  0.00000000000E+00  0.00000000000E+00  0.99999998245E-14  0.12509000000E+03  0.12509000000E+03 0.  0.
        -11    1    3    3    0    0 -0.24001530543E+02 -0.19405641739E+02  0.23725480165E+02  0.38930075893E+02  0.51100000000E-03 0. -1.
         23    2    1    0    0    0  0.17102962984E+02 -0.18055484003E+02 -0.15517909666E+02  0.95775884530E+02  0.91179508069E+02 0.  0.
         11    1    3    3    0    0  0.41104493526E+02  0.13501577359E+01 -0.39243389831E+02  0.56845808637E+02  0.51100000000E-03 0.  1.
         22    1    1    0    0    0 -0.17102962984E+02  0.18055484003E+02  0.15517909666E+02  0.29314115470E+02  0.00000000000E+00 0.  1.
</event>
<event>
 5    1  0.1055265E-009  0.9118800E+02  0.7815553E-02  0.1125453E+00
         25   -1    0    0    0    0  0.00000000000E+00  0.00000000000E+00  0.99999998245E-14  0.12509000000E+03  0.12509000000E+03 0.  0.
        -11    1    3    3    0    0 -0.33358123111E+02  0.99082447653E+00  0.23025150300E+02  0.40545081789E+02  0.51100000000E-03 0. -1.
         23    2    1    0    0    0  0.21921293875E+02  0.20589130279E+01  0.19045607765E+02  0.95977847501E+02  0.91456163203E+02 0.  0.
         11    1    3    3    0    0  0.55279416986E+02  0.10680885514E+01 -0.39795425355E+01  0.55432765712E+02  0.51100000000E-03 0.  1.
         22    1    1    0    0    0 -0.21921293875E+02 -0.20589130279E+01 -0.19045607765E+02  0.29112152499E+02  0.00000000000E+00 0.  1.
</event>
<event>
 5    1  0.1055265E-009  0.9118800E+02  0.7815553E-02  0.1125453E+00
         25   -1    0    0    0    0  0.00000000000E+00  0.00000000000E+00  0.99999998245E-14  0.12509000000E+03  0.12509000000E+03 0.  0.
        -11    1    3    3    0    0  0.38267223314E+02  0.23137480045E+02  0.40516749447E+02  0.60343436669E+02  0.51100000000E-03 0.  1.
         23    2    1    0    0    0  0.82533605411E+01  0.16917972221E+02  0.21926039733E+02  0.96192128752E+02  0.91748780216E+02 0.  0.
         11    1    3    3    0    0 -0.30013862773E+02 -0.62195078250E+01 -0.18590709713E+02  0.35848692083E+02  0.51100000000E-03 0. -1.
         22    1    1    0    0    0 -0.82533605411E+01 -0.16917972221E+02 -0.21926039733E+02  0.28897871248E+02  0.00000000000E+00 0.  1.
</event>
<event>
 5    1  0.1055265E-009  0.9118800E+02  0.7815553E-02  0.1125453E+00
         25   -1    0    0    0    0  0.00000000000E+00  0.00000000000E+00  0.99999998245E-14  0.12509000000E+03  0.12509000000E+03 0.  0.
        -11    1    3    3    0    0 -0.26375690449E+02  0.14069211139E+02 -0.20974500141E+02  0.36517795732E+02  0.51100000000E-03 0.  1.
         23    2    1    0    0    0  0.12570919785E+02  0.31719795724E+02  0.10249071734E+02  0.89463928979E+02  0.82064472532E+02 0.  0.
         11    1    3    3    0    0  0.38946610233E+02  0.17650584585E+02  0.31223571875E+02  0.52946133247E+02  0.51100000000E-03 0. -1.
         22    1    1    0    0    0 -0.12570919785E+02 -0.31719795724E+02 -0.10249071734E+02  0.35626071021E+02  0.00000000000E+00 0. -1.
</event>
<event>
 5    1  0.1055265E-009  0.9118800E+02  0.7815553E-02  0.1125453E+00
         25   -1    0    0    0    0  0.00000000000E+00  0.00000000000E+00  0.99999998245E-14  0.12509000000E+03  0.12509000000E+03 0.  0.
        -11    1    3    3    0    0 -0.22936386349E+02  0.46041692514E+02  0.30180480431E+02  0.59638717857E+02  0.51100000000E-03 0. -1.
         23    2    1    0    0    0 -0.35098013143E+01  0.28874168474E+02  0.53919435678E+01  0.95507752524E+02  0.90810910283E+02 0.  0.
         11    1    3    3    0    0  0.19426585035E+02 -0.17167524041E+02 -0.24788536863E+02  0.35869034666E+02  0.51100000000E-03 0.  1.
         22    1    1    0    0    0  0.35098013143E+01 -0.28874168474E+02 -0.53919435678E+01  0.29582247476E+02  0.00000000000E+00 0. -1.
</event>
<event>
 5    1  0.1055265E-009  0.9118800E+02  0.7815553E-02  0.1125453E+00
         25   -1    0    0    0    0  0.00000000000E+00  0.00000000000E+00  0.99999998245E-14  0.12509000000E+03  0.12509000000E+03 0.  0.
        -11    1    3    3    0    0  0.38474241625E+02 -0.43677062757E+02 -0.11192147227E+02  0.59272398631E+02  0.51100000000E-03 0. -1.
         23    2    1    0    0    0  0.11817034049E+02 -0.21093657210E+02 -0.18101694976E+02  0.94886423569E+02  0.89950971916E+02 0.  0.
         11    1    3    3    0    0 -0.26657207577E+02  0.22583405547E+02 -0.69095477498E+01  0.35614024938E+02  0.51100000000E-03 0.  1.
         22    1    1    0    0    0 -0.11817034049E+02  0.21093657210E+02  0.18101694976E+02  0.30203576431E+02  0.00000000000E+00 0. -1.
</event>
<event>
 5    1  0.1055265E-009  0.9118800E+02  0.7815553E-02  0.1125453E+00
         25   -1    0    0    0    0  0.00000000000E+00  0.00000000000E+00  0.99999998245E-14  0.12509000000E+03  0.12509000000E+03 0.  0.
        -11    1    3    3    0    0  0.17050028502E+02  0.52917776094E+02 -0.26348639039E+02  0.61524347035E+02  0.51100000000E-03 0.  1.
         23    2    1    0    0    0  0.95084410516E+01  0.28793011881E+02 -0.55361582070E+01  0.94266355957E+02  0.89084503890E+02 0.  0.
         11    1    3    3    0    0 -0.75415874508E+01 -0.24124764213E+02  0.20812480832E+02  0.32742008922E+02  0.51100000000E-03 0. -1.
         22    1    1    0    0    0 -0.95084410516E+01 -0.28793011881E+02  0.55361582070E+01  0.30823644043E+02  0.00000000000E+00 0.  1.
</event>
<event>
 5    1  0.1055265E-009  0.9118800E+02  0.7815553E-02  0.1125453E+00
         25   -1    0    0    0    0  0.00000000000E+00  0.00000000000E+00  0.99999998245E-14  0.12509000000E+03  0.12509000000E+03 0.  0.
        -11    1    3    3    0    0  0.21492295577E+02 -0.54388560638E+02  0.21577577486E+00  0.58481457376E+02  0.51100000000E-03 0. -1.
         23    2    1    0    0    0  0.19286571727E+02 -0.21652707214E+02 -0.12292929948E+02  0.93595116203E+02  0.88136927969E+02 0.  0.
         11    1    3    3    0    0 -0.22057238500E+01  0.32735853424E+02 -0.12508705722E+02  0.35113658827E+02  0.51100000000E-03 0.  1.
         22    1    1    0    0    0 -0.19286571727E+02  0.21652707214E+02  0.12292929948E+02  0.31494883797E+02  0.00000000000E+00 0. -1.
</event>
<event>
 5    1  0.1055265E-009  0.9118800E+02  0.7815553E-02  0.1125453E+00
         25   -1    0    0    0    0  0.00000000000E+00  0.00000000000E+00  0.99999998245E-14  0.12509000000E+03  0.12509000000E+03 0.  0.
        -11    1    3    3    0    0 -0.37701085416E+02  0.28839440392E+00  0.36868361220E+01  0.37882024414E+02  0.51100000000E-03 0. -1.
         23    2    1    0    0    0  0.14008837250E+02  0.23840243868E+02 -0.88256163981E+01  0.96064213988E+02  0.91574215561E+02 0.  0.
         11    1    3    3    0    0  0.51709922666E+02  0.23551849464E+02 -0.12512452520E+02  0.58182189574E+02  0.51100000000E-03 0.  1.
         22    1    1    0    0    0 -0.14008837250E+02 -0.23840243868E+02  0.88256163981E+01  0.29025786012E+02  0.00000000000E+00 0.  1.
</event>
<event>
 5    1  0.1055265E-009  0.9118800E+02  0.7815553E-02  0.1125453E+00
         25   -1    0    0    0    0  0.00000000000E+00  0.00000000000E+00  0.99999998245E-14  0.12509000000E+03  0.12509000000E+03 0.  0.
        -11    1    3    3    0    0 -0.10715838480E+02  0.75140841573E+01 -0.42526969120E+02  0.44495322876E+02  0.51100000000E-03 0. -1.
         23    2    1    0    0    0 -0.72190140698E+01  0.29085257118E+02  0.29771691326E+01  0.94974723448E+02  0.90073682129E+02 0.  0.
         11    1    3    3    0    0  0.34968244103E+01  0.21571172960E+02  0.45504138252E+02  0.50479400573E+02  0.51100000000E-03 0.  1.
         22    1    1    0    0    0  0.72190140698E+01 -0.29085257118E+02 -0.29771691326E+01  0.30115276552E+02  0.00000000000E+00 0.  1.
</event>
<event>
 5    1  0.1055265E-009  0.9118800E+02  0.7815553E-02  0.1125453E+00
         25   -1    0    0    0    0  0.00000000000E+00  0.00000000000E+00  0.99999998245E-14  0.12509000000E+03  0.12509000000E+03 0.  0.
        -11    1    3    3    0    0 -0.71617874970E+01  0.60373350753E+02  0.63903896850E+01  0.61131577453E+02  0.51100000000E-03 0.  1.
         23    2    1    0    0    0  0.29584563814E+01  0.28036012699E+02 -0.40987812913E+01  0.96601923893E+02  0.92305802741E+02 0.  0.
         11    1    3    3    0    0  0.10120243878E+02 -0.32337338054E+02 -0.10489170976E+02  0.35470346441E+02  0.51100000000E-03 0. -1.
         22    1    1    0    0    0 -0.29584563814E+01 -0.28036012699E+02  0.40987812913E+01  0.28488076107E+02  0.00000000000E+00 0.  1.
</event>
<event>
 5    1  0.1055265E-009  0.9118800E+02  0.7815553E-02  0.1125453E+00
         25   -1    0    0    0    0  0.00000000000E+00  0.00000000000E+00  0.99999998245E-14  0.12509000000E+03  0.12509000000E+03 0.  0.
        -11    1    3    3    0    0  0.21583999465E+02 -0.88658856046E+01 -0.17265459186E+02  0.29027039835E+02  0.51100000000E-03 0.  1.
         23    2    1    0    0    0 -0.15330324517E+02 -0.23930072844E+02  0.25078703489E+02  0.87187379975E+02  0.78517708971E+02 0.  0.
         11    1    3    3    0    0 -0.36914323982E+02 -0.15064187239E+02  0.42344162675E+02  0.58160340139E+02  0.51100000000E-03 0. -1.
         22    1    1    0    0    0  0.15330324517E+02  0.23930072844E+02 -0.25078703489E+02  0.37902620025E+02  0.00000000000E+00 0. -1.
</event>
<event>
 5    1  0.1055265E-009  0.9118800E+02  0.7815553E-02  0.1125453E+00
         25   -1    0    0    0    0  0.00000000000E+00  0.00000000000E+00  0.99999998245E-14  0.12509000000E+03  0.12509000000E+03 0.  0.
        -11    1    3    3    0    0 -0.31283681068E+02 -0.17300166574E+02 -0.43559306348E+02  0.56350489212E+02  0.51100000000E-03 0.  1.
         23    2    1    0    0    0 -0.61255040369E+01  0.10596401176E+02 -0.22654081900E+02  0.99340962264E+02  0.95945890164E+02 0.  0.
         11    1    3    3    0    0  0.25158177031E+02  0.27896567750E+02  0.20905224448E+02  0.42990473052E+02  0.51100000000E-03 0. -1.
         22    1    1    0    0    0  0.61255040369E+01 -0.10596401176E+02  0.22654081900E+02  0.25749037736E+02  0.00000000000E+00 0. -1.
</event>
<event>
 5    1  0.1055265E-009  0.9118800E+02  0.7815553E-02  0.1125453E+00
         25   -1    0    0    0    0  0.00000000000E+00  0.00000000000E+00  0.99999998245E-14  0.12509000000E+03  0.12509000000E+03 0.  0.
        -11    1    3    3    0    0  0.13143811775E+02 -0.16209402065E+02  0.51293370241E+02  0.55376117002E+02  0.51100000000E-03 0.  1.
         23    2    1    0    0    0  0.10663923370E+02 -0.27680240758E+02  0.18684527540E+02  0.90032524913E+02  0.82926648207E+02 0.  0.
         11    1    3    3    0    0 -0.24798884046E+01 -0.11470838692E+02 -0.32608842700E+02  0.34656407912E+02  0.51100000000E-03 0. -1.
         22    1    1    0    0    0 -0.10663923370E+02  0.27680240758E+02 -0.18684527540E+02  0.35057475087E+02  0.00000000000E+00 0.  1.
</event>
<event>
 5    1  0.1055265E-009  0.9118800E+02  0.7815553E-02  0.1125453E+00
         25   -1    0    0    0    0  0.00000000000E+00  0.00000000000E+00  0.99999998245E-14  0.12509000000E+03  0.12509000000E+03 0.  0.
        -11    1    3    3    0    0 -0.15205480135E+02  0.63216944764E+01 -0.44727695869E+02  0.47662744625E+02  0.51100000000E-03 0. -1.
         23    2    1    0    0    0 -0.30713233284E+01 -0.26803002199E+02 -0.12856797357E+02  0.95204699397E+02  0.90392497449E+02 0.  0.
         11    1    3    3    0    0  0.12134156806E+02 -0.33124696675E+02  0.31870898513E+02  0.47541954772E+02  0.51100000000E-03 0.  1.
         22    1    1    0    0    0  0.30713233284E+01  0.26803002199E+02  0.12856797357E+02  0.29885300603E+02  0.00000000000E+00 0.  1.
</event>
<event>
 5    1  0.1055265E-009  0.9118800E+02  0.7815553E-02  0.1125453E+00
         25   -1    0    0    0    0  0.00000000000E+00  0.00000000000E+00  0.99999998245E-14  0.12509000000E+03  0.12509000000E+03 0.  0.
        -11    1    3    3    0    0 -0.20204868914E+02  0.11399414692E+01  0.27528191557E+02  0.34166321503E+02  0.51100000000E-03 0.  1.
         23    2    1    0    0    0  0.37019465199E+01 -0.14921349082E+02 -0.25962050833E+02  0.94917510047E+02  0.89994191833E+02 0.  0.
         11    1    3    3    0    0  0.23906815434E+02 -0.16061290551E+02 -0.53490242390E+02  0.60751188545E+02  0.51100000000E-03 0. -1.
         22    1    1    0    0    0 -0.37019465199E+01  0.14921349082E+02  0.25962050833E+02  0.30172489953E+02  0.00000000000E+00 0. -1.
</event>
<event>
 5    1  0.1055265E-009  0.9118800E+02  0.7815553E-02  0.1125453E+00
         25   -1    0    0    0    0  0.00000000000E+00  0.00000000000E+00  0.99999998245E-14  0.12509000000E+03  0.12509000000E+03 0.  0.
        -11    1    3    3    0    0 -0.30590922064E+02  0.22595765681E+02 -0.23598835441E+02  0.44757995641E+02  0.51100000000E-03 0. -1.
         23    2    1    0    0    0 -0.17955662123E+02  0.29819489652E+01  0.22335049885E+02  0.96277636763E+02  0.91865287598E+02 0.  0.
         11    1    3    3    0    0  0.12635259940E+02 -0.19613816716E+02  0.45933885326E+02  0.51519641122E+02  0.51100000000E-03 0.  1.
         22    1    1    0    0    0  0.17955662123E+02 -0.29819489652E+01 -0.22335049885E+02  0.28812363237E+02  0.00000000000E+00 0.  1.
</event>
<event>
 5    1  0.1055265E-009  0.9118800E+02  0.7815553E-02  0.1125453E+00
         25   -1    0    0    0    0  0.00000000000E+00  0.00000000000E+00  0.99999998245E-14  0.12509000000E+03  0.12509000000E+03 0.  0.
        -11    1    3    3    0    0  0.17936035068E+02 -0.27919505072E+02 -0.32854106118E+01  0.33346574646E+02  0.51100000000E-03 0.  1.
         23    2    1    0    0    0 -0.21302309261E+02  0.20104799941E+02  0.28236815086E+01  0.95662724595E+02  0.91024130532E+02 0.  0.
         11    1    3    3    0    0 -0.39238344329E+02  0.48024305013E+02  0.61090921204E+01  0.62316149949E+02  0.51100000000E-03 0. -1.
         22    1    1    0    0    0  0.21302309261E+02 -0.20104799941E+02 -0.28236815086E+01  0.29427275405E+02  0.00000000000E+00 0. -1.
</event>
<event>
 5    1  0.1055265E-009  0.9118800E+02  0.7815553E-02  0.1125453E+00
         25   -1    0    0    0    0  0.00000000000E+00  0.00000000000E+00  0.99999998245E-14  0.12509000000E+03  0.12509000000E+03 0.  0.
        -11    1    3    3    0    0 -0.12908637764E+02 -0.28491446767E+02 -0.30628470629E+02  0.43777833216E+02  0.51100000000E-03 0. -1.
         23    2    1    0    0    0 -0.15273364629E+01 -0.22924798413E+02  0.19172828199E+02  0.95165486970E+02  0.90338216886E+02 0.  0.
         11    1    3    3    0    0  0.11381301301E+02  0.55666483540E+01  0.49801298827E+02  0.51387653754E+02  0.51100000000E-03 0.  1.
         22    1    1    0    0    0  0.15273364629E+01  0.22924798413E+02 -0.19172828199E+02  0.29924513030E+02  0.00000000000E+00 0.  1.
</event>
<event>
 5    1  0.1055265E-009  0.9118800E+02  0.7815553E-02  0.1125453E+00
         25   -1    0    0    0    0  0.00000000000E+00  0.00000000000E+00  0.99999998245E-14  0.12509000000E+03  0.12509000000E+03 0.  0.
        -11    1    3    3    0    0 -0.23674686297E+02 -0.10342138150E+02  0.27258210558E+01  0.25978465957E+02  0.51100000000E-03 0.  1.
         23    2    1    0    0    0  0.33427014519E+02  0.14810983605E+02 -0.13117907862E+01  0.88505148900E+02  0.80589763939E+02 0.  0.
         11    1    3    3    0    0  0.57101700816E+02  0.25153121756E+02 -0.40376118420E+01  0.62526682942E+02  0.51100000000E-03 0. -1.
         22    1    1    0    0    0 -0.33427014519E+02 -0.14810983605E+02  0.13117907862E+01  0.36584851100E+02  0.00000000000E+00 0. -1.
</event>
<event>
 5    1  0.1055265E-009  0.9118800E+02  0.7815553E-02  0.1125453E+00
         25   -1    0    0    0    0  0.00000000000E+00  0.00000000000E+00  0.99999998245E-14  0.12509000000E+03  0.12509000000E+03 0.  0.
        -11    1    3    3    0    0 -0.36744348815E+02 -0.18506003826E+02 -0.59136209809E+01  0.41564290693E+02  0.51100000000E-03 0.  1.
         23    2    1    0    0    0  0.14760498730E+02 -0.13417326045E+02 -0.21642427537E+02  0.95657167471E+02  0.91016493329E+02 0.  0.
         11    1    3    3    0    0  0.51504847545E+02  0.50886777803E+01 -0.15728806556E+02  0.54092876778E+02  0.51100000000E-03 0. -1.
         22    1    1    0    0    0 -0.14760498730E+02  0.13417326045E+02  0.21642427537E+02  0.29432832529E+02  0.00000000000E+00 0. -1.
</event>
<event>
 5    1  0.1055265E-009  0.9118800E+02  0.7815553E-02  0.1125453E+00
         25   -1    0    0    0    0  0.00000000000E+00  0.00000000000E+00  0.99999998245E-14  0.12509000000E+03  0.12509000000E+03 0.  0.
        -11    1    3    3    0    0 -0.12237311832E+02  0.44648142797E+02  0.68642735288E+01  0.46800926353E+02  0.51100000000E-03 0.  1.
         23    2    1    0    0    0 -0.15805539468E+02 -0.45219462205E+00  0.24973229845E+02  0.95531891692E+02  0.90844155363E+02 0.  0.
         11    1    3    3    0    0 -0.35682276358E+01 -0.45100337419E+02  0.18108956316E+02  0.48730965340E+02  0.51100000000E-03 0. -1.
         22    1    1    0    0    0  0.15805539468E+02  0.45219462205E+00 -0.24973229845E+02  0.29558108308E+02  0.00000000000E+00 0. -1.
</event>
<event>
 5    1  0.1055265E-009  0.9118800E+02  0.7815553E-02  0.1125453E+00
         25   -1    0    0    0    0  0.00000000000E+00  0.00000000000E+00  0.99999998245E-14  0.12509000000E+03  0.12509000000E+03 0.  0.
        -11    1    3    3    0    0 -0.60435445292E-01 -0.12673358606E+02 -0.32784587372E+02  0.35148923742E+02  0.51100000000E-03 0. -1.
         23    2    1    0    0    0  0.12939201115E+02 -0.26709136209E+00  0.25691029644E+02  0.96323295853E+02  0.91927439084E+02 0.  0.
         11    1    3    3    0    0  0.12999636561E+02  0.12406267244E+02  0.58475617016E+02  0.61174372112E+02  0.51100000000E-03 0.  1.
         22    1    1    0    0    0 -0.12939201115E+02  0.26709136209E+00 -0.25691029644E+02  0.28766704147E+02  0.00000000000E+00 0.  1.
</event>
<event>
 5    1  0.1055265E-009  0.9118800E+02  0.7815553E-02  0.1125453E+00
         25   -1    0    0    0    0  0.00000000000E+00  0.00000000000E+00  0.99999998245E-14  0.12509000000E+03  0.12509000000E+03 0.  0.
        -11    1    3    3    0    0  0.15000199603E+02 -0.21781242693E+02 -0.36198182918E+02  0.44830089986E+02  0.51100000000E-03 0.  1.
         23    2    1    0    0    0 -0.26545159536E+02 -0.66275385890E+01 -0.12375063445E+02  0.95061480925E+02  0.90194086269E+02 0.  0.
         11    1    3    3    0    0 -0.41545359139E+02  0.15153704103E+02  0.23823119472E+02  0.50231390939E+02  0.51100000000E-03 0. -1.
         22    1    1    0    0    0  0.26545159536E+02  0.66275385890E+01  0.12375063445E+02  0.30028519075E+02  0.00000000000E+00 0. -1.
</event>
<event>
 5    1  0.1055265E-009  0.9118800E+02  0.7815553E-02  0.1125453E+00
         25   -1    0    0    0    0  0.00000000000E+00  0.00000000000E+00  0.99999998245E-14  0.12509000000E+03  0.12509000000E+03 0.  0.
        -11    1    3    3    0    0 -0.28292368713E+01  0.31630021528E+02 -0.83571759226E+01  0.32837558265E+02  0.51100000000E-03 0. -1.
         23    2    1    0    0    0 -0.12553920723E+02 -0.86903157751E+01  0.31326664849E+02  0.90240574692E+02  0.83239887532E+02 0.  0.
         11    1    3    3    0    0 -0.97246838513E+01 -0.40320337303E+02  0.39683840771E+02  0.57403016427E+02  0.51100000000E-03 0.  1.
         22    1    1    0    0    0  0.12553920723E+02  0.86903157751E+01 -0.31326664849E+02  0.34849425308E+02  0.00000000000E+00 0.  1.
</event>
<event>
 5    1  0.1055265E-009  0.9118800E+02  0.7815553E-02  0.1125453E+00
         25   -1    0    0    0    0  0.00000000000E+00  0.00000000000E+00  0.99999998245E-14  0.12509000000E+03  0.12509000000E+03 0.  0.
        -11    1    3    3    0    0  0.20275049735E+02 -0.27806444191E+02 -0.25962577743E+01  0.34511107415E+02  0.51100000000E-03 0.  1.
         23    2    1    0    0    0 -0.86663491252E+01 -0.19185172316E+01  0.35253344858E+02  0.88736394412E+02  0.80947903333E+02 0.  0.
         11    1    3    3    0    0 -0.28941398860E+02  0.25887926960E+02  0.37849602633E+02  0.54225286997E+02  0.51100000000E-03 0. -1.
         22    1    1    0    0    0  0.86663491252E+01  0.19185172316E+01 -0.35253344858E+02  0.36353605588E+02  0.00000000000E+00 0. -1.
</event>
<event>
 5    1  0.1055265E-009  0.9118800E+02  0.7815553E-02  0.1125453E+00
         25   -1    0    0    0    0  0.00000000000E+00  0.00000000000E+00  0.99999998245E-14  0.12509000000E+03  0.12509000000E+03 0.  0.
        -11    1    3    3    0    0  0.36676320539E+02  0.21969666725E+02 -0.21209323112E+02  0.47724774818E+02  0.51100000000E-03 0.  1.
         23    2    1    0    0    0  0.45687505419E+01 -0.14456397327E+02 -0.24375003041E+02  0.96384570575E+02  0.92010780708E+02 0.  0.
         11    1    3    3    0    0 -0.32107569997E+02 -0.36426064052E+02 -0.31656799293E+01  0.48659795757E+02  0.51100000000E-03 0. -1.
         22    1    1    0    0    0 -0.45687505419E+01  0.14456397327E+02  0.24375003041E+02  0.28705429425E+02  0.00000000000E+00 0. -1.
</event>
<event>
 5    1  0.1055265E-009  0.9118800E+02  0.7815553E-02  0.1125453E+00
         25   -1    0    0    0    0  0.00000000000E+00  0.00000000000E+00  0.99999998245E-14  0.12509000000E+03  0.12509000000E+03 0.  0.
        -11    1    3    3    0    0 -0.17968046494E+02  0.51176009719E+02 -0.14387565274E+02  0.56114496347E+02  0.51100000000E-03 0. -1.
         23    2    1    0    0    0  0.13892335867E+01  0.23899671337E+02 -0.24278685770E+02  0.90993389571E+02  0.84363606508E+02 0.  0.
         11    1    3    3    0    0  0.19357280080E+02 -0.27276338382E+02 -0.98911204957E+01  0.34878893224E+02  0.51100000000E-03 0.  1.
         22    1    1    0    0    0 -0.13892335867E+01 -0.23899671337E+02  0.24278685770E+02  0.34096610429E+02  0.00000000000E+00 0. -1.
</event>
<event>
 5    1  0.1055265E-009  0.9118800E+02  0.7815553E-02  0.1125453E+00
         25   -1    0    0    0    0  0.00000000000E+00  0.00000000000E+00  0.99999998245E-14  0.12509000000E+03  0.12509000000E+03 0.  0.
        -11    1    3    3    0    0  0.33953524767E+02  0.44777043957E+02 -0.18181112710E+02  0.59062495454E+02  0.51100000000E-03 0.  1.
         23    2    1    0    0    0  0.22116039399E+02  0.95910383892E+01 -0.15809649376E+02  0.96262023493E+02  0.91844025050E+02 0.  0.
         11    1    3    3    0    0 -0.11837485368E+02 -0.35186005568E+02  0.23714633339E+01  0.37199528038E+02  0.51100000000E-03 0. -1.
         22    1    1    0    0    0 -0.22116039399E+02 -0.95910383892E+01  0.15809649376E+02  0.28827976507E+02  0.00000000000E+00 0.  1.
</event>
<event>
 5    1  0.1055265E-009  0.9118800E+02  0.7815553E-02  0.1125453E+00
         25   -1    0    0    0    0  0.00000000000E+00  0.00000000000E+00  0.99999998245E-14  0.12509000000E+03  0.12509000000E+03 0.  0.
        -11    1    3    3    0    0 -0.47496408691E+02 -0.27126366701E+02  0.29227595789E+02  0.62016134714E+02  0.51100000000E-03 0. -1.
         23    2    1    0    0    0 -0.19095423487E+02 -0.96275546669E+01  0.53332144317E+01  0.10304985065E+03  0.10066530453E+03 0.  0.
         11    1    3    3    0    0  0.28400985204E+02  0.17498812034E+02 -0.23894381357E+02  0.41033715941E+02  0.51100000000E-03 0.  1.
         22    1    1    0    0    0  0.19095423487E+02  0.96275546669E+01 -0.53332144317E+01  0.22040149346E+02  0.00000000000E+00 0. -1.
</event>
<event>
 5    1  0.1055265E-009  0.9118800E+02  0.7815553E-02  0.1125453E+00
         25   -1    0    0    0    0  0.00000000000E+00  0.00000000000E+00  0.99999998245E-14  0.12509000000E+03  0.12509000000E+03 0.  0.
        -11    1    3    3    0    0 -0.28275281365E+02  0.17863475951E+02  0.38997645485E+01  0.33671998354E+02  0.51100000000E-03 0. -1.
         23    2    1    0    0    0  0.17242658825E+02 -0.18105140669E+02 -0.16461414896E+02  0.95155344793E+02  0.90324172071E+02 0.  0.
         11    1    3    3    0    0  0.45517940190E+02 -0.35968616620E+02 -0.20361179444E+02  0.61483346439E+02  0.51100000000E-03 0.  1.
         22    1    1    0    0    0 -0.17242658825E+02  0.18105140669E+02  0.16461414896E+02  0.29934655207E+02  0.00000000000E+00 0.  1.
</event>
<event>
 5    1  0.1055265E-009  0.9118800E+02  0.7815553E-02  0.1125453E+00
         25   -1    0    0    0    0  0.00000000000E+00  0.00000000000E+00  0.99999998245E-14  0.12509000000E+03  0.12509000000E+03 0.  0.
        -11    1    3    3    0    0 -0.22666716905E+02  0.42938731640E+02  0.35459125100E+02  0.60123741427E+02  0.51100000000E-03 0.  1.
         23    2    1    0    0    0 -0.21183130460E+02  0.14883526894E+02  0.12841557769E+02  0.96191038170E+02  0.91747293309E+02 0.  0.
         11    1    3    3    0    0  0.14835864445E+01 -0.28055204746E+02 -0.22617567332E+02  0.36067296743E+02  0.51100000000E-03 0. -1.
         22    1    1    0    0    0  0.21183130460E+02 -0.14883526894E+02 -0.12841557769E+02  0.28898961830E+02  0.00000000000E+00 0.  1.
</event>
<event>
 5    1  0.1055265E-009  0.9118800E+02  0.7815553E-02  0.1125453E+00
         25   -1    0    0    0    0  0.00000000000E+00  0.00000000000E+00  0.99999998245E-14  0.12509000000E+03  0.12509000000E+03 0.  0.
        -11    1    3    3    0    0 -0.17254483710E+02  0.28956790200E+02  0.82355904753E+01  0.34699248660E+02  0.51100000000E-03 0.  1.
         23    2    1    0    0    0  0.64045539998E+01 -0.18560432948E+02 -0.21850396231E+02  0.95714026849E+02  0.91094605422E+02 0.  0.
         11    1    3    3    0    0  0.23659037710E+02 -0.47517223148E+02 -0.30085986706E+02  0.61014778189E+02  0.51100000000E-03 0. -1.
         22    1    1    0    0    0 -0.64045539998E+01  0.18560432948E+02  0.21850396231E+02  0.29375973151E+02  0.00000000000E+00 0. -1.
</event>
<event>
 5    1  0.1055265E-009  0.9118800E+02  0.7815553E-02  0.1125453E+00
         25   -1    0    0    0    0  0.00000000000E+00  0.00000000000E+00  0.99999998245E-14  0.12509000000E+03  0.12509000000E+03 0.  0.
        -11    1    3    3    0    0  0.16325492611E+02 -0.45293121839E+02 -0.24419061119E+02  0.53984063770E+02  0.51100000000E-03 0.  1.
         23    2    1    0    0    0  0.17408131890E+02 -0.19211935122E+02  0.10103946676E+02  0.97264988851E+02  0.93200036538E+02 0.  0.
         11    1    3    3    0    0  0.10826392796E+01  0.26081186717E+02  0.34523007795E+02  0.43280925081E+02  0.51100000000E-03 0. -1.
         22    1    1    0    0    0 -0.17408131890E+02  0.19211935122E+02 -0.10103946676E+02  0.27825011149E+02  0.00000000000E+00 0.  1.
</event>
<event>
 5    1  0.1055265E-009  0.9118800E+02  0.7815553E-02  0.1125453E+00
         25   -1    0    0    0    0  0.00000000000E+00  0.00000000000E+00  0.99999998245E-14  0.12509000000E+03  0.12509000000E+03 0.  0.
        -11    1    3    3    0    0  0.38152553398E+02 -0.25848259851E+01  0.36395695134E+01  0.38412824977E+02  0.51100000000E-03 0. -1.
         23    2    1    0    0    0 -0.12757109726E+02  0.16986946276E+02  0.20567036974E+02  0.95521381462E+02  0.90829681900E+02 0.  0.
         11    1    3    3    0    0 -0.50909663125E+02  0.19571772261E+02  0.16927467461E+02  0.57108556485E+02  0.51100000000E-03 0.  1.
         22    1    1    0    0    0  0.12757109726E+02 -0.16986946276E+02 -0.20567036974E+02  0.29568618538E+02  0.00000000000E+00 0.  1.
</event>
<event>
 5    1  0.1055265E-009  0.9118800E+02  0.7815553E-02  0.1125453E+00
         25   -1    0    0    0    0  0.00000000000E+00  0.00000000000E+00  0.99999998245E-14  0.12509000000E+03  0.12509000000E+03 0.  0.
        -11    1    3    3    0    0  0.34426313239E+02  0.24218876797E+02  0.15645889040E+02  0.44905666465E+02  0.51100000000E-03 0.  1.
         23    2    1    0    0    0  0.21163125073E+02 -0.19039221560E+02 -0.73920552355E+01  0.95678908537E+02  0.91046368613E+02 0.  0.
         11    1    3    3    0    0 -0.13263188166E+02 -0.43258098357E+02 -0.23037944275E+02  0.50773242072E+02  0.51100000000E-03 0. -1.
         22    1    1    0    0    0 -0.21163125073E+02  0.19039221560E+02  0.73920552355E+01  0.29411091463E+02  0.00000000000E+00 0. -1.
</event>
<event>
 5    1  0.1055265E-009  0.9118800E+02  0.7815553E-02  0.1125453E+00
         25   -1    0    0    0    0  0.00000000000E+00  0.00000000000E+00  0.99999998245E-14  0.12509000000E+03  0.12509000000E+03 0.  0.
        -11    1    3    3    0    0 -0.29248547772E+02  0.37588796225E+02 -0.17352373424E+02  0.50690235866E+02  0.51100000000E-03 0.  1.
         23    2    1    0    0    0 -0.27859756873E+02 -0.60054308169E+01 -0.39587883755E+01  0.96316691923E+02  0.91918452365E+02 0.  0.
         11    1    3    3    0    0  0.13887908995E+01 -0.43594227042E+02  0.13393585049E+02  0.45626456057E+02  0.51100000000E-03 0. -1.
         22    1    1    0    0    0  0.27859756873E+02  0.60054308169E+01  0.39587883755E+01  0.28773308077E+02  0.00000000000E+00 0. -1.
</event>
<event>
 5    1  0.1055265E-009  0.9118800E+02  0.7815553E-02  0.1125453E+00
         25   -1    0    0    0    0  0.00000000000E+00  0.00000000000E+00  0.99999998245E-14  0.12509000000E+03  0.12509000000E+03 0.  0.
        -11    1    3    3    0    0 -0.28991570443E+02  0.32078417283E+02  0.27533343556E+02  0.51260325982E+02  0.51100000000E-03 0. -1.
         23    2    1    0    0    0  0.75645961272E+01  0.30665415111E+02  0.16405851038E+02  0.89498670342E+02  0.82117411347E+02 0.  0.
         11    1    3    3    0    0  0.36556166570E+02 -0.14130021720E+01 -0.11127492518E+02  0.38238344361E+02  0.51100000000E-03 0.  1.
         22    1    1    0    0    0 -0.75645961272E+01 -0.30665415111E+02 -0.16405851038E+02  0.35591329658E+02  0.00000000000E+00 0. -1.
</event>
<event>
 5    1  0.1055265E-009  0.9118800E+02  0.7815553E-02  0.1125453E+00
         25   -1    0    0    0    0  0.00000000000E+00  0.00000000000E+00  0.99999998245E-14  0.12509000000E+03  0.12509000000E+03 0.  0.
        -11    1    3    3    0    0  0.69825710912E+01  0.34118853660E+01 -0.34604164537E+02  0.35466117131E+02  0.51100000000E-03 0.  1.
         23    2    1    0    0    0 -0.83901164570E+01 -0.11345570016E+02  0.23680418400E+02  0.97524111138E+02  0.93547175396E+02 0.  0.
         11    1    3    3    0    0 -0.15372687548E+02 -0.14757455382E+02  0.58284582937E+02  0.62057994007E+02  0.51100000000E-03 0. -1.
         22    1    1    0    0    0  0.83901164570E+01  0.11345570016E+02 -0.23680418400E+02  0.27565888862E+02  0.00000000000E+00 0. -1.
</event>
<event>
 5    1  0.1055265E-009  0.9118800E+02  0.7815553E-02  0.1125453E+00
         25   -1    0    0    0    0  0.00000000000E+00  0.00000000000E+00  0.99999998245E-14  0.12509000000E+03  0.12509000000E+03 0.  0.
        -11    1    3    3    0    0  0.38458237119E+02  0.29036030695E+02 -0.52107072343E+01  0.48469356825E+02  0.51100000000E-03 0.  1.
         23    2    1    0    0    0  0.25616335520E+02 -0.14856320593E+02  0.42612385744E+01  0.95172362038E+02  0.90347736190E+02 0.  0.
         11    1    3    3    0    0 -0.12841901599E+02 -0.43892351288E+02  0.94719458088E+01  0.46703005213E+02  0.51100000000E-03 0. -1.
         22    1    1    0    0    0 -0.25616335520E+02  0.14856320593E+02 -0.42612385744E+01  0.29917637962E+02  0.00000000000E+00 0. -1.
</event>
<event>
 5    1  0.1055265E-009  0.9118800E+02  0.7815553E-02  0.1125453E+00
         25   -1    0    0    0    0  0.00000000000E+00  0.00000000000E+00  0.99999998245E-14  0.12509000000E+03  0.12509000000E+03 0.  0.
        -11    1    3    3    0    0 -0.35421705040E+02 -0.41909545696E+02  0.12182403967E+02  0.56209591486E+02  0.51100000000E-03 0.  1.
         23    2    1    0    0    0 -0.23564177541E+02 -0.11344230829E+02 -0.11365229297E+02  0.96574557284E+02  0.92268708897E+02 0.  0.
         11    1    3    3    0    0  0.11857527500E+02  0.30565314866E+02 -0.23547633264E+02  0.40364965798E+02  0.51100000000E-03 0. -1.
         22    1    1    0    0    0  0.23564177541E+02  0.11344230829E+02  0.11365229297E+02  0.28515442716E+02  0.00000000000E+00 0.  1.
</event>
<event>
 5    1  0.1055265E-009  0.9118800E+02  0.7815553E-02  0.1125453E+00
         25   -1    0    0    0    0  0.00000000000E+00  0.00000000000E+00  0.99999998245E-14  0.12509000000E+03  0.12509000000E+03 0.  0.
        -11    1    3    3    0    0  0.40369742191E+02  0.26447674146E+02  0.27660384316E+02  0.55626364370E+02  0.51100000000E-03 0. -1.
         23    2    1    0    0    0  0.11065587993E+02  0.28168472060E+02  0.17583013279E+01  0.94774959518E+02  0.89795831041E+02 0.  0.
         11    1    3    3    0    0 -0.29304154198E+02  0.17207979138E+01 -0.25902082988E+02  0.39148595148E+02  0.51100000000E-03 0.  1.
         22    1    1    0    0    0 -0.11065587993E+02 -0.28168472060E+02 -0.17583013279E+01  0.30315040482E+02  0.00000000000E+00 0. -1.
</event>
<event>
 5    1  0.1055265E-009  0.9118800E+02  0.7815553E-02  0.1125453E+00
         25   -1    0    0    0    0  0.00000000000E+00  0.00000000000E+00  0.99999998245E-14  0.12509000000E+03  0.12509000000E+03 0.  0.
        -11    1    3    3    0    0  0.38754377676E+02 -0.12436600364E+02 -0.42056522010E+02  0.58526249337E+02  0.51100000000E-03 0. -1.
         23    2    1    0    0    0  0.25745255793E+02  0.68416119442E+01 -0.30812652197E+02  0.84358619159E+02  0.73873752044E+02 0.  0.
         11    1    3    3    0    0 -0.13009121883E+02  0.19278212308E+02  0.11243869812E+02  0.25832369821E+02  0.51100000000E-03 0.  1.
         22    1    1    0    0    0 -0.25745255793E+02 -0.68416119442E+01  0.30812652197E+02  0.40731380841E+02  0.00000000000E+00 0. -1.
</event>
<event>
 5    1  0.1055265E-009  0.9118800E+02  0.7815553E-02  0.1125453E+00
         25   -1    0    0    0    0  0.00000000000E+00  0.00000000000E+00  0.99999998245E-14  0.12509000000E+03  0.12509000000E+03 0.  0.
        -11    1    3    3    0    0 -0.20303362582E+02  0.12960220446E+02  0.32482229709E+02  0.40438707859E+02  0.51100000000E-03 0.  1.
         23    2    1    0    0    0  0.21509878485E+02 -0.16406223235E+02  0.12232402717E+02  0.95400427596E+02  0.90662952059E+02 0.  0.
         11    1    3    3    0    0  0.41813241067E+02 -0.29366443682E+02 -0.20249826992E+02  0.54961719737E+02  0.51100000000E-03 0. -1.
         22    1    1    0    0    0 -0.21509878485E+02  0.16406223235E+02 -0.12232402717E+02  0.29689572404E+02  0.00000000000E+00 0. -1.
</event>
<event>
 5    1  0.1055265E-009  0.9118800E+02  0.7815553E-02  0.1125453E+00
         25   -1    0    0    0    0  0.00000000000E+00  0.00000000000E+00  0.99999998245E-14  0.12509000000E+03  0.12509000000E+03 0.  0.
        -11    1    3    3    0    0 -0.14663859866E+02  0.45264818996E+01 -0.30014359469E+02  0.33710229889E+02  0.51100000000E-03 0.  1.
         23    2    1    0    0    0 -0.56938694114E+01  0.42020484215E+01  0.29936080299E+02  0.94328883904E+02  0.89172260681E+02 0.  0.
         11    1    3    3    0    0  0.89699904544E+01 -0.32443347816E+00  0.59950439769E+02  0.60618654015E+02  0.51100000000E-03 0. -1.
         22    1    1    0    0    0  0.56938694114E+01 -0.42020484215E+01 -0.29936080299E+02  0.30761116096E+02  0.00000000000E+00 0. -1.
</event>
<event>
 5    1  0.1055265E-009  0.9118800E+02  0.7815553E-02  0.1125453E+00
         25   -1    0    0    0    0  0.00000000000E+00  0.00000000000E+00  0.99999998245E-14  0.12509000000E+03  0.12509000000E+03 0.  0.
        -11    1    3    3    0    0 -0.26850167451E+02 -0.11977721219E+02  0.48040599700E+02  0.56323143711E+02  0.51100000000E-03 0. -1.
         23    2    1    0    0    0 -0.20260118145E+02 -0.19373289780E+02  0.10488136383E+02  0.95160119463E+02  0.90330784273E+02 0.  0.
         11    1    3    3    0    0  0.65900493058E+01 -0.73955685613E+01 -0.37552463316E+02  0.38836975752E+02  0.51100000000E-03 0.  1.
         22    1    1    0    0    0  0.20260118145E+02  0.19373289780E+02 -0.10488136383E+02  0.29929880537E+02  0.00000000000E+00 0. -1.
</event>
<event>
 5    1  0.1055265E-009  0.9118800E+02  0.7815553E-02  0.1125453E+00
         25   -1    0    0    0    0  0.00000000000E+00  0.00000000000E+00  0.99999998245E-14  0.12509000000E+03  0.12509000000E+03 0.  0.
        -11    1    3    3    0    0 -0.35888459052E+02  0.31487111409E+02 -0.75384727658E+01  0.48334751990E+02  0.51100000000E-03 0. -1.
         23    2    1    0    0    0 -0.20383292699E+02  0.20536210206E+01  0.23556065065E+02  0.93871669137E+02  0.88528560842E+02 0.  0.
         11    1    3    3    0    0  0.15505166353E+02 -0.29433490389E+02  0.31094537830E+02  0.45536917147E+02  0.51100000000E-03 0.  1.
         22    1    1    0    0    0  0.20383292699E+02 -0.20536210206E+01 -0.23556065065E+02  0.31218330863E+02  0.00000000000E+00 0. -1.
</event>
<event>
 5    1  0.1055265E-009  0.9118800E+02  0.7815553E-02  0.1125453E+00
         25   -1    0    0    0    0  0.00000000000E+00  0.00000000000E+00  0.99999998245E-14  0.12509000000E+03  0.12509000000E+03 0.  0.
        -11    1    3    3    0    0  0.34501598176E+01  0.10770486875E+02 -0.39338238155E+02  0.40931698862E+02  0.51100000000E-03 0.  1.
         23    2    1    0    0    0 -0.28399924415E+02 -0.28449996643E+01  0.38445265477E+01  0.96290171628E+02  0.91882354333E+02 0.  0.
         11    1    3    3    0    0 -0.31850084233E+02 -0.13615486539E+02  0.43182764703E+02  0.55358472766E+02  0.51100000000E-03 0. -1.
         22    1    1    0    0    0  0.28399924415E+02  0.28449996643E+01 -0.38445265477E+01  0.28799828372E+02  0.00000000000E+00 0. -1.
</event>
<event>
 5    1  0.1055265E-009  0.9118800E+02  0.7815553E-02  0.1125453E+00
         25   -1    0    0    0    0  0.00000000000E+00  0.00000000000E+00  0.99999998245E-14  0.12509000000E+03  0.12509000000E+03 0.  0.
        -11    1    3    3    0    0  0.51290015913E+02 -0.16536874139E+02 -0.31093919180E+02  0.62217085667E+02  0.51100000000E-03 0.  1.
         23    2    1    0    0    0  0.25530987542E+02 -0.42815266722E+01 -0.17693436788E+02  0.93733652941E+02  0.88333330022E+02 0.  0.
         11    1    3    3    0    0 -0.25759028371E+02  0.12255347467E+02  0.13400482392E+02  0.31516567274E+02  0.51100000000E-03 0. -1.
         22    1    1    0    0    0 -0.25530987542E+02  0.42815266722E+01  0.17693436788E+02  0.31356347059E+02  0.00000000000E+00 0.  1.
</event>
<event>
 5    1  0.1055265E-009  0.9118800E+02  0.7815553E-02  0.1125453E+00
         25   -1    0    0    0    0  0.00000000000E+00  0.00000000000E+00  0.99999998245E-14  0.12509000000E+03  0.12509000000E+03 0.  0.
        -11    1    3    3    0    0  0.22851387863E+02  0.31842123358E+02  0.23525094167E+02  0.45711451553E+02  0.51100000000E-03 0. -1.
         23    2    1    0    0    0  0.26434329342E+02 -0.85520155323E+01 -0.69641266757E+01  0.96447203387E+02  0.92095891567E+02 0.  0.
         11    1    3    3    0    0  0.35829414788E+01 -0.40394138890E+02 -0.30489220843E+02  0.50735751834E+02  0.51100000000E-03 0.  1.
         22    1    1    0    0    0 -0.26434329342E+02  0.85520155323E+01  0.69641266757E+01  0.28642796613E+02  0.00000000000E+00 0.  1.
</event>
<event>
 5    1  0.1055265E-009  0.9118800E+02  0.7815553E-02  0.1125453E+00
         25   -1    0    0    0    0  0.00000000000E+00  0.00000000000E+00  0.99999998245E-14  0.12509000000E+03  0.12509000000E+03 0.  0.
        -11    1    3    3    0    0 -0.34274944967E+02 -0.35358067360E+02  0.22937685088E+02  0.54324047873E+02  0.51100000000E-03 0. -1.
         23    2    1    0    0    0  0.53494181899E+01 -0.22554923986E+02  0.16904367103E+02  0.96400306761E+02  0.92032171796E+02 0.  0.
         11    1    3    3    0    0  0.39624363157E+02  0.12803143374E+02 -0.60333179848E+01  0.42076258888E+02  0.51100000000E-03 0.  1.
         22    1    1    0    0    0 -0.53494181899E+01  0.22554923986E+02 -0.16904367103E+02  0.28689693239E+02  0.00000000000E+00 0. -1.
</event>
<event>
 5    1  0.1055265E-009  0.9118800E+02  0.7815553E-02  0.1125453E+00
         25   -1    0    0    0    0  0.00000000000E+00  0.00000000000E+00  0.99999998245E-14  0.12509000000E+03  0.12509000000E+03 0.  0.
        -11    1    3    3    0    0  0.38544332568E+02  0.10835397742E+02  0.47658545632E+01  0.40321021655E+02  0.51100000000E-03 0. -1.
         23    2    1    0    0    0 -0.47590196036E+01  0.83701700888E+00 -0.28719726443E+02  0.95966615032E+02  0.91440798600E+02 0.  0.
         11    1    3    3    0    0 -0.43303352172E+02 -0.99983807331E+01 -0.33485581006E+02  0.55645593376E+02  0.51100000000E-03 0.  1.
         22    1    1    0    0    0  0.47590196036E+01 -0.83701700888E+00  0.28719726443E+02  0.29123384968E+02  0.00000000000E+00 0.  1.
</event>
<event>
 5    1  0.1055265E-009  0.9118800E+02  0.7815553E-02  0.1125453E+00
         25   -1    0    0    0    0  0.00000000000E+00  0.00000000000E+00  0.99999998245E-14  0.12509000000E+03  0.12509000000E+03 0.  0.
        -11    1    3    3    0    0 -0.10531824521E+02 -0.75654063569E+01 -0.34250621835E+02  0.36623213915E+02  0.51100000000E-03 0. -1.
         23    2    1    0    0    0 -0.29177657319E+01  0.22204754567E+02  0.17404115465E+02  0.96726859881E+02  0.92474957178E+02 0.  0.
         11    1    3    3    0    0  0.76140587889E+01  0.29770160924E+02  0.51654737300E+02  0.60103645967E+02  0.51100000000E-03 0.  1.
         22    1    1    0    0    0  0.29177657319E+01 -0.22204754567E+02 -0.17404115465E+02  0.28363140119E+02  0.00000000000E+00 0.  1.
</event>
<event>
 5    1  0.1055265E-009  0.9118800E+02  0.7815553E-02  0.1125453E+00
         25   -1    0    0    0    0  0.00000000000E+00  0.00000000000E+00  0.99999998245E-14  0.12509000000E+03  0.12509000000E+03 0.  0.
        -11    1    3    3    0    0 -0.11315196260E+02 -0.39507109324E+02  0.19522399848E+02  0.45496916925E+02  0.51100000000E-03 0.  1.
         23    2    1    0    0    0  0.26229854843E+02 -0.17713230068E+02  0.17425407685E+02  0.88959560790E+02  0.81292034163E+02 0.  0.
         11    1    3    3    0    0  0.37545051103E+02  0.21793879256E+02 -0.20969921621E+01  0.43462643865E+02  0.51100000000E-03 0. -1.
         22    1    1    0    0    0 -0.26229854843E+02  0.17713230068E+02 -0.17425407685E+02  0.36130439210E+02  0.00000000000E+00 0. -1.
</event>
<event>
 5    1  0.1055265E-009  0.9118800E+02  0.7815553E-02  0.1125453E+00
         25   -1    0    0    0    0  0.00000000000E+00  0.00000000000E+00  0.99999998245E-14  0.12509000000E+03  0.12509000000E+03 0.  0.
        -11    1    3    3    0    0 -0.60845752715E+01 -0.24019762997E+02  0.33079268196E+02  0.41330485786E+02  0.51100000000E-03 0.  1.
         23    2    1    0    0    0 -0.20319011767E+02  0.20032954766E+02  0.33248607948E+01  0.96363075084E+02  0.91981552631E+02 0.  0.
         11    1    3    3    0    0 -0.14234436495E+02  0.44052717764E+02 -0.29754407402E+02  0.55032589297E+02  0.51100000000E-03 0. -1.
         22    1    1    0    0    0  0.20319011767E+02 -0.20032954766E+02 -0.33248607948E+01  0.28726924916E+02  0.00000000000E+00 0. -1.
</event>
<event>
 5    1  0.1055265E-009  0.9118800E+02  0.7815553E-02  0.1125453E+00
         25   -1    0    0    0    0  0.00000000000E+00  0.00000000000E+00  0.99999998245E-14  0.12509000000E+03  0.12509000000E+03 0.  0.
        -11    1    3    3    0    0  0.85387210942E+01 -0.33871206148E+02 -0.10097569284E+02  0.36361095549E+02  0.51100000000E-03 0. -1.
         23    2    1    0    0    0  0.20207410578E+02  0.20777173610E+02  0.78669846063E+01  0.95058019840E+02  0.90189285969E+02 0.  0.
         11    1    3    3    0    0  0.11668689484E+02  0.54648379758E+02  0.17964553891E+02  0.58696924291E+02  0.51100000000E-03 0.  1.
         22    1    1    0    0    0 -0.20207410578E+02 -0.20777173610E+02 -0.78669846063E+01  0.30031980160E+02  0.00000000000E+00 0.  1.
</event>
<event>
 5    1  0.1055265E-009  0.9118800E+02  0.7815553E-02  0.1125453E+00
         25   -1    0    0    0    0  0.00000000000E+00  0.00000000000E+00  0.99999998245E-14  0.12509000000E+03  0.12509000000E+03 0.  0.
        -11    1    3    3    0    0 -0.15605036952E+02  0.58332586734E+02  0.55692502445E+01  0.60640122047E+02  0.51100000000E-03 0. -1.
         23    2    1    0    0    0 -0.69510269160E+01  0.27070642861E+02  0.13527228690E+02  0.94039679613E+02  0.88765640569E+02 0.  0.
         11    1    3    3    0    0  0.86540100363E+01 -0.31261943873E+02  0.79579784450E+01  0.33399557566E+02  0.51100000000E-03 0.  1.
         22    1    1    0    0    0  0.69510269160E+01 -0.27070642861E+02 -0.13527228690E+02  0.31050320387E+02  0.00000000000E+00 0. -1.
</event>
<event>
 5    1  0.1055265E-009  0.9118800E+02  0.7815553E-02  0.1125453E+00
         25   -1    0    0    0    0  0.00000000000E+00  0.00000000000E+00  0.99999998245E-14  0.12509000000E+03  0.12509000000E+03 0.  0.
        -11    1    3    3    0    0 -0.92141643515E+00 -0.43348568978E+02  0.17024451968E+02  0.46580890994E+02  0.51100000000E-03 0.  1.
         23    2    1    0    0    0 -0.28235641701E+02 -0.44400111130E+01  0.19997590591E+01  0.96437527205E+02  0.92082747875E+02 0.  0.
         11    1    3    3    0    0 -0.27314225266E+02  0.38908557865E+02 -0.15024692909E+02  0.49856636211E+02  0.51100000000E-03 0. -1.
         22    1    1    0    0    0  0.28235641701E+02  0.44400111130E+01 -0.19997590591E+01  0.28652472795E+02  0.00000000000E+00 0. -1.
</event>
<event>
 5    1  0.1055265E-009  0.9118800E+02  0.7815553E-02  0.1125453E+00
         25   -1    0    0    0    0  0.00000000000E+00  0.00000000000E+00  0.99999998245E-14  0.12509000000E+03  0.12509000000E+03 0.  0.
        -11    1    3    3    0    0  0.12888369406E+02  0.30208868358E+02 -0.24150184539E+02  0.40766618783E+02  0.51100000000E-03 0. -1.
         23    2    1    0    0    0  0.64469853251E+01 -0.24420292593E+02 -0.12125476871E+02  0.97073192554E+02  0.92942257414E+02 0.  0.
         11    1    3    3    0    0 -0.64413840813E+01 -0.54629160951E+02  0.12024707669E+02  0.56306573772E+02  0.51100000000E-03 0.  1.
         22    1    1    0    0    0 -0.64469853251E+01  0.24420292593E+02  0.12125476871E+02  0.28016807446E+02  0.00000000000E+00 0.  1.
</event>
<event>
 5    1  0.1055265E-009  0.9118800E+02  0.7815553E-02  0.1125453E+00
         25   -1    0    0    0    0  0.00000000000E+00  0.00000000000E+00  0.99999998245E-14  0.12509000000E+03  0.12509000000E+03 0.  0.
        -11    1    3    3    0    0  0.40572023193E+02  0.41923697737E+01  0.47280950179E+02  0.62443200434E+02  0.51100000000E-03 0. -1.
         23    2    1    0    0    0  0.21234965730E+02  0.34043014348E+01  0.21497261976E+02  0.94682018971E+02  0.89666266824E+02 0.  0.
         11    1    3    3    0    0 -0.19337057463E+02 -0.78806833886E+00 -0.25783688204E+02  0.32238818537E+02  0.51100000000E-03 0.  1.
         22    1    1    0    0    0 -0.21234965730E+02 -0.34043014348E+01 -0.21497261976E+02  0.30407981029E+02  0.00000000000E+00 0. -1.
</event>
<event>
 5    1  0.1055265E-009  0.9118800E+02  0.7815553E-02  0.1125453E+00
         25   -1    0    0    0    0  0.00000000000E+00  0.00000000000E+00  0.99999998245E-14  0.12509000000E+03  0.12509000000E+03 0.  0.
        -11    1    3    3    0    0 -0.21772657625E+01 -0.13656367391E+02  0.48064464848E+02  0.50014294336E+02  0.51100000000E-03 0. -1.
         23    2    1    0    0    0  0.23696069665E+02 -0.13579662334E+02  0.10071091406E+02  0.95980932190E+02  0.91460382217E+02 0.  0.
         11    1    3    3    0    0  0.25873335428E+02  0.76705056584E-01 -0.37993373442E+02  0.45966637854E+02  0.51100000000E-03 0.  1.
         22    1    1    0    0    0 -0.23696069665E+02  0.13579662334E+02 -0.10071091406E+02  0.29109067810E+02  0.00000000000E+00 0. -1.
</event>
<event>
 5    1  0.1055265E-009  0.9118800E+02  0.7815553E-02  0.1125453E+00
         25   -1    0    0    0    0  0.00000000000E+00  0.00000000000E+00  0.99999998245E-14  0.12509000000E+03  0.12509000000E+03 0.  0.
        -11    1    3    3    0    0 -0.35438771477E+02  0.25325640525E+02  0.41645029198E+02  0.60262783283E+02  0.51100000000E-03 0. -1.
         23    2    1    0    0    0 -0.20359350145E+02  0.19200642883E+02  0.10886763658E+02  0.95061855728E+02  0.90194606081E+02 0.  0.
         11    1    3    3    0    0  0.15079421332E+02 -0.61249976424E+01 -0.30758265539E+02  0.34799072446E+02  0.51100000000E-03 0.  1.
         22    1    1    0    0    0  0.20359350145E+02 -0.19200642883E+02 -0.10886763658E+02  0.30028144272E+02  0.00000000000E+00 0. -1.
</event>
<event>
 5    1  0.1055265E-009  0.9118800E+02  0.7815553E-02  0.1125453E+00
         25   -1    0    0    0    0  0.00000000000E+00  0.00000000000E+00  0.99999998245E-14  0.12509000000E+03  0.12509000000E+03 0.  0.
        -11    1    3    3    0    0 -0.32320491134E+02 -0.13213646301E+02  0.36047215495E+02  0.50185818125E+02  0.51100000000E-03 0.  1.
         23    2    1    0    0    0 -0.28002538746E+02 -0.94412993787E+01 -0.78963653710E+01  0.94501883087E+02  0.89414612960E+02 0.  0.
         11    1    3    3    0    0  0.43179523877E+01  0.37723469222E+01 -0.43943580866E+02  0.44316064962E+02  0.51100000000E-03 0. -1.
         22    1    1    0    0    0  0.28002538746E+02  0.94412993787E+01  0.78963653710E+01  0.30588116913E+02  0.00000000000E+00 0.  1.
</event>
<event>
 5    1  0.1055265E-009  0.9118800E+02  0.7815553E-02  0.1125453E+00
         25   -1    0    0    0    0  0.00000000000E+00  0.00000000000E+00  0.99999998245E-14  0.12509000000E+03  0.12509000000E+03 0.  0.
        -11    1    3    3    0    0 -0.43192620560E+02  0.22033624598E+02 -0.19426299303E+01  0.48526867765E+02  0.51100000000E-03 0.  1.
         23    2    1    0    0    0 -0.85681476230E+01  0.10565785386E+02  0.26846448766E+02  0.94993807784E+02  0.90100181640E+02 0.  0.
         11    1    3    3    0    0  0.34624472937E+02 -0.11467839211E+02  0.28789078697E+02  0.46466940020E+02  0.51100000000E-03 0. -1.
         22    1    1    0    0    0  0.85681476230E+01 -0.10565785386E+02 -0.26846448766E+02  0.30096192216E+02  0.00000000000E+00 0.  1.
</event>
<event>
 5    1  0.1055265E-009  0.9118800E+02  0.7815553E-02  0.1125453E+00
         25   -1    0    0    0    0  0.00000000000E+00  0.00000000000E+00  0.99999998245E-14  0.12509000000E+03  0.12509000000E+03 0.  0.
        -11    1    3    3    0    0 -0.45231291415E+02 -0.14150184238E+02  0.14860088911E+02  0.49668095190E+02  0.51100000000E-03 0. -1.
         23    2    1    0    0    0 -0.19982798838E+02  0.16294548075E+02 -0.11141623244E+02  0.97001562613E+02  0.92845801383E+02 0.  0.
         11    1    3    3    0    0  0.25248492578E+02  0.30444732312E+02 -0.26001712155E+02  0.47333467423E+02  0.51100000000E-03 0.  1.
         22    1    1    0    0    0  0.19982798838E+02 -0.16294548075E+02  0.11141623244E+02  0.28088437387E+02  0.00000000000E+00 0.  1.
</event>
<event>
 5    1  0.1055265E-009  0.9118800E+02  0.7815553E-02  0.1125453E+00
         25   -1    0    0    0    0  0.00000000000E+00  0.00000000000E+00  0.99999998245E-14  0.12509000000E+03  0.12509000000E+03 0.  0.
        -11    1    3    3    0    0  0.94277001613E+01 -0.32857988181E+02  0.48599959327E+02  0.59417884214E+02  0.51100000000E-03 0. -1.
         23    2    1    0    0    0  0.11840693193E+02 -0.24488454917E+02  0.15209710524E+02  0.93925569414E+02  0.88604688679E+02 0.  0.
         11    1    3    3    0    0  0.24129930316E+01  0.83695332636E+01 -0.33390248803E+02  0.34507685199E+02  0.51100000000E-03 0.  1.
         22    1    1    0    0    0 -0.11840693193E+02  0.24488454917E+02 -0.15209710524E+02  0.31164430586E+02  0.00000000000E+00 0. -1.
</event>
<event>
 5    1  0.1055265E-009  0.9118800E+02  0.7815553E-02  0.1125453E+00
         25   -1    0    0    0    0  0.00000000000E+00  0.00000000000E+00  0.99999998245E-14  0.12509000000E+03  0.12509000000E+03 0.  0.
        -11    1    3    3    0    0  0.52049788585E+02 -0.12510558973E+02 -0.76304953936E+01  0.54073274709E+02  0.51100000000E-03 0.  1.
         23    2    1    0    0    0  0.12394197639E+02 -0.13412457588E+02 -0.22212055337E+02  0.96334382184E+02  0.91942523540E+02 0.  0.
         11    1    3    3    0    0 -0.39655590946E+02 -0.90189861557E+00 -0.14581559943E+02  0.42261107475E+02  0.51100000000E-03 0. -1.
         22    1    1    0    0    0 -0.12394197639E+02  0.13412457588E+02  0.22212055337E+02  0.28755617816E+02  0.00000000000E+00 0. -1.
</event>
<event>
 5    1  0.1055265E-009  0.9118800E+02  0.7815553E-02  0.1125453E+00
         25   -1    0    0    0    0  0.00000000000E+00  0.00000000000E+00  0.99999998245E-14  0.12509000000E+03  0.12509000000E+03 0.  0.
        -11    1    3    3    0    0  0.34319197287E+01  0.57466007039E+02 -0.15218352193E+02  0.59545934217E+02  0.51100000000E-03 0. -1.
         23    2    1    0    0    0  0.14669487289E+02  0.21568351349E+02 -0.75496062103E+01  0.97935181070E+02  0.94095246958E+02 0.  0.
         11    1    3    3    0    0  0.11237567560E+02 -0.35897655690E+02  0.76687459831E+01  0.38389246853E+02  0.51100000000E-03 0.  1.
         22    1    1    0    0    0 -0.14669487289E+02 -0.21568351349E+02  0.75496062103E+01  0.27154818930E+02  0.00000000000E+00 0. -1.
</event>
<event>
 5    1  0.1055265E-009  0.9118800E+02  0.7815553E-02  0.1125453E+00
         25   -1    0    0    0    0  0.00000000000E+00  0.00000000000E+00  0.99999998245E-14  0.12509000000E+03  0.12509000000E+03 0.  0.
        -11    1    3    3    0    0  0.51392815727E+02 -0.83859752918E+01  0.92033401538E+01  0.52879557110E+02  0.51100000000E-03 0.  1.
         23    2    1    0    0    0  0.16085624644E+02 -0.24283355787E+02 -0.74415526377E+01  0.95026643665E+02  0.90145757594E+02 0.  0.
         11    1    3    3    0    0 -0.35307191083E+02 -0.15897380495E+02 -0.16644892791E+02  0.42147086555E+02  0.51100000000E-03 0. -1.
         22    1    1    0    0    0 -0.16085624644E+02  0.24283355787E+02  0.74415526377E+01  0.30063356335E+02  0.00000000000E+00 0.  1.
</event>
<event>
 5    1  0.1055265E-009  0.9118800E+02  0.7815553E-02  0.1125453E+00
         25   -1    0    0    0    0  0.00000000000E+00  0.00000000000E+00  0.99999998245E-14  0.12509000000E+03  0.12509000000E+03 0.  0.
        -11    1    3    3    0    0  0.41309049678E+02 -0.11509699518E+01  0.75446173785E+01  0.42008136935E+02  0.51100000000E-03 0. -1.
         23    2    1    0    0    0 -0.12007282159E+02 -0.19949623504E+02  0.12327869469E+02  0.98743488496E+02  0.95163742317E+02 0.  0.
         11    1    3    3    0    0 -0.53316331837E+02 -0.18798653552E+02  0.47832520907E+01  0.56735351561E+02  0.51100000000E-03 0.  1.
         22    1    1    0    0    0  0.12007282159E+02  0.19949623504E+02 -0.12327869469E+02  0.26346511504E+02  0.00000000000E+00 0.  1.
</event>
<event>
 5    1  0.1055265E-009  0.9118800E+02  0.7815553E-02  0.1125453E+00
         25   -1    0    0    0    0  0.00000000000E+00  0.00000000000E+00  0.99999998245E-14  0.12509000000E+03  0.12509000000E+03 0.  0.
        -11    1    3    3    0    0  0.43708604041E+02  0.40601610314E+02  0.68989426542E+01  0.60054377337E+02  0.51100000000E-03 0.  1.
         23    2    1    0    0    0  0.21677333004E+02  0.26233039906E+02 -0.77878466060E+01  0.90179690583E+02  0.83148342677E+02 0.  0.
         11    1    3    3    0    0 -0.22031271037E+02 -0.14368570409E+02 -0.14686789260E+02  0.30125313246E+02  0.51100000000E-03 0. -1.
         22    1    1    0    0    0 -0.21677333004E+02 -0.26233039906E+02  0.77878466060E+01  0.34910309417E+02  0.00000000000E+00 0.  1.
</event>
<event>
 5    1  0.1055265E-009  0.9118800E+02  0.7815553E-02  0.1125453E+00
         25   -1    0    0    0    0  0.00000000000E+00  0.00000000000E+00  0.99999998245E-14  0.12509000000E+03  0.12509000000E+03 0.  0.
        -11    1    3    3    0    0 -0.29725695879E+02  0.19356214494E+02  0.53377626287E+01  0.35871600817E+02  0.51100000000E-03 0.  1.
         23    2    1    0    0    0  0.17812134892E+02 -0.71338092588E+01 -0.21266590002E+02  0.96446829186E+02  0.92095383303E+02 0.  0.
         11    1    3    3    0    0  0.47537830771E+02 -0.26490023752E+02 -0.26604352631E+02  0.60575228369E+02  0.51100000000E-03 0. -1.
         22    1    1    0    0    0 -0.17812134892E+02  0.71338092588E+01  0.21266590002E+02  0.28643170814E+02  0.00000000000E+00 0. -1.
</event>
<event>
 5    1  0.1055265E-009  0.9118800E+02  0.7815553E-02  0.1125453E+00
         25   -1    0    0    0    0  0.00000000000E+00  0.00000000000E+00  0.99999998245E-14  0.12509000000E+03  0.12509000000E+03 0.  0.
        -11    1    3    3    0    0  0.36303071232E+02  0.11126763916E+01  0.23797566721E+02  0.43422059045E+02  0.51100000000E-03 0. -1.
         23    2    1    0    0    0 -0.13627709742E+02 -0.12099845717E+02  0.23853600191E+02  0.95071422731E+02  0.90207873486E+02 0.  0.
         11    1    3    3    0    0 -0.49930780974E+02 -0.13212522108E+02  0.56033470607E-01  0.51649363686E+02  0.51100000000E-03 0.  1.
         22    1    1    0    0    0  0.13627709742E+02  0.12099845717E+02 -0.23853600191E+02  0.30018577269E+02  0.00000000000E+00 0.  1.
</event>
<event>
 5    1  0.1055265E-009  0.9118800E+02  0.7815553E-02  0.1125453E+00
         25   -1    0    0    0    0  0.00000000000E+00  0.00000000000E+00  0.99999998245E-14  0.12509000000E+03  0.12509000000E+03 0.  0.
        -11    1    3    3    0    0  0.42156937143E+02  0.24471558616E+02 -0.21331567452E+01  0.48791545254E+02  0.51100000000E-03 0.  1.
         23    2    1    0    0    0  0.20080019710E+02 -0.18066439478E+02 -0.76051479820E+01  0.97028608324E+02  0.92882232588E+02 0.  0.
         11    1    3    3    0    0 -0.22076917433E+02 -0.42537998094E+02 -0.54719912368E+01  0.48237063070E+02  0.51100000000E-03 0. -1.
         22    1    1    0    0    0 -0.20080019710E+02  0.18066439478E+02  0.76051479820E+01  0.28061391676E+02  0.00000000000E+00 0.  1.
</event>
<event>
 5    1  0.1055265E-009  0.9118800E+02  0.7815553E-02  0.1125453E+00
         25   -1    0    0    0    0  0.00000000000E+00  0.00000000000E+00  0.99999998245E-14  0.12509000000E+03  0.12509000000E+03 0.  0.
        -11    1    3    3    0    0 -0.31264293250E+02 -0.50191887258E+02  0.18222018205E+02  0.61876679990E+02  0.51100000000E-03 0.  1.
         23    2    1    0    0    0 -0.19536330112E+02 -0.21483408606E+02  0.48443425421E+01  0.95650694739E+02  0.91007596990E+02 0.  0.
         11    1    3    3    0    0  0.11727963137E+02  0.28708478652E+02 -0.13377675663E+02  0.33774014749E+02  0.51100000000E-03 0. -1.
         22    1    1    0    0    0  0.19536330112E+02  0.21483408606E+02 -0.48443425421E+01  0.29439305261E+02  0.00000000000E+00 0.  1.
</event>
<event>
 5    1  0.1055265E-009  0.9118800E+02  0.7815553E-02  0.1125453E+00
         25   -1    0    0    0    0  0.00000000000E+00  0.00000000000E+00  0.99999998245E-14  0.12509000000E+03  0.12509000000E+03 0.  0.
        -11    1    3    3    0    0 -0.44236133557E+02 -0.65109779554E+01 -0.40481785864E+02  0.60315863030E+02  0.51100000000E-03 0.  1.
         23    2    1    0    0    0 -0.25667603073E+02 -0.15358562445E+02 -0.22123823637E+02  0.87885499463E+02  0.79622146138E+02 0.  0.
         11    1    3    3    0    0  0.18568530484E+02 -0.88475844895E+01  0.18357962227E+02  0.27569636433E+02  0.51100000000E-03 0. -1.
         22    1    1    0    0    0  0.25667603073E+02  0.15358562445E+02  0.22123823637E+02  0.37204500537E+02  0.00000000000E+00 0.  1.
</event>
<event>
 5    1  0.1055265E-009  0.9118800E+02  0.7815553E-02  0.1125453E+00
         25   -1    0    0    0    0  0.00000000000E+00  0.00000000000E+00  0.99999998245E-14  0.12509000000E+03  0.12509000000E+03 0.  0.
        -11    1    3    3    0    0 -0.29737736582E+02  0.51447141067E+01  0.42785501178E+01  0.30481257383E+02  0.51100000000E-03 0. -1.
         23    2    1    0    0    0  0.19996844821E+02 -0.28241436114E+02  0.10347221535E+01  0.90470306667E+02  0.83584407768E+02 0.  0.
         11    1    3    3    0    0  0.49734581403E+02 -0.33386150220E+02 -0.32438279643E+01  0.59989049284E+02  0.51100000000E-03 0.  1.
         22    1    1    0    0    0 -0.19996844821E+02  0.28241436114E+02 -0.10347221535E+01  0.34619693333E+02  0.00000000000E+00 0.  1.
</event>
<event>
 5    1  0.1055265E-009  0.9118800E+02  0.7815553E-02  0.1125453E+00
         25   -1    0    0    0    0  0.00000000000E+00  0.00000000000E+00  0.99999998245E-14  0.12509000000E+03  0.12509000000E+03 0.  0.
        -11    1    3    3    0    0  0.12551496568E+02 -0.54729516768E+01  0.59666590885E+02  0.61217606407E+02  0.51100000000E-03 0. -1.
         23    2    1    0    0    0 -0.30291503593E+01 -0.41661371044E+01  0.28957814565E+02  0.95677630584E+02  0.91044612798E+02 0.  0.
         11    1    3    3    0    0 -0.15580646927E+02  0.13068145724E+01 -0.30708776319E+02  0.34460024177E+02  0.51100000000E-03 0.  1.
         22    1    1    0    0    0  0.30291503593E+01  0.41661371044E+01 -0.28957814565E+02  0.29412369416E+02  0.00000000000E+00 0. -1.
</event>
<event>
 5    1  0.1055265E-009  0.9118800E+02  0.7815553E-02  0.1125453E+00
         25   -1    0    0    0    0  0.00000000000E+00  0.00000000000E+00  0.99999998245E-14  0.12509000000E+03  0.12509000000E+03 0.  0.
        -11    1    3    3    0    0 -0.25838580460E+02  0.16082296218E+02 -0.78013239068E+01  0.31418675128E+02  0.51100000000E-03 0.  1.
         23    2    1    0    0    0  0.61860534210E+01 -0.26529262962E+02  0.19769923359E+02  0.91431139059E+02  0.85010200974E+02 0.  0.
         11    1    3    3    0    0  0.32024633881E+02 -0.42611559180E+02  0.27571247266E+02  0.60012463931E+02  0.51100000000E-03 0. -1.
         22    1    1    0    0    0 -0.61860534210E+01  0.26529262962E+02 -0.19769923359E+02  0.33658860941E+02  0.00000000000E+00 0. -1.
</event>
<event>
 5    1  0.1055265E-009  0.9118800E+02  0.7815553E-02  0.1125453E+00
         25   -1    0    0    0    0  0.00000000000E+00  0.00000000000E+00  0.99999998245E-14  0.12509000000E+03  0.12509000000E+03 0.  0.
        -11    1    3    3    0    0 -0.43143361689E+01  0.36074334810E+01 -0.55383263351E+02  0.55668060255E+02  0.51100000000E-03 0.  1.
         23    2    1    0    0    0  0.18617486098E+02  0.30020169527E+00 -0.22705111197E+02  0.95726366299E+02  0.91111548229E+02 0.  0.
         11    1    3    3    0    0  0.22931822267E+02 -0.33072317858E+01  0.32678152155E+02  0.40058306044E+02  0.51100000000E-03 0. -1.
         22    1    1    0    0    0 -0.18617486098E+02 -0.30020169527E+00  0.22705111197E+02  0.29363633701E+02  0.00000000000E+00 0. -1.
</event>
<event>
 5    1  0.1055265E-009  0.9118800E+02  0.7815553E-02  0.1125453E+00
         25   -1    0    0    0    0  0.00000000000E+00  0.00000000000E+00  0.99999998245E-14  0.12509000000E+03  0.12509000000E+03 0.  0.
        -11    1    3    3    0    0 -0.37439477187E+02  0.22334151060E+02 -0.30454444429E+02  0.53178961454E+02  0.51100000000E-03 0. -1.
         23    2    1    0    0    0 -0.15477301153E+02 -0.11960293063E+02 -0.23536998949E+02  0.94486310996E+02  0.89392825131E+02 0.  0.
         11    1    3    3    0    0  0.21962176034E+02 -0.34294444124E+02  0.69174454800E+01  0.41307349541E+02  0.51100000000E-03 0.  1.
         22    1    1    0    0    0  0.15477301153E+02  0.11960293063E+02  0.23536998949E+02  0.30603689004E+02  0.00000000000E+00 0. -1.
</event>
<event>
 5    1  0.1055265E-009  0.9118800E+02  0.7815553E-02  0.1125453E+00
         25   -1    0    0    0    0  0.00000000000E+00  0.00000000000E+00  0.99999998245E-14  0.12509000000E+03  0.12509000000E+03 0.  0.
        -11    1    3    3    0    0 -0.11119504274E+02  0.54975734907E+02  0.14351681070E+02  0.57895989099E+02  0.51100000000E-03 0.  1.
         23    2    1    0    0    0  0.10137803614E+02  0.27165269968E+02 -0.90506637874E+00  0.96080586016E+02  0.91596576953E+02 0.  0.
         11    1    3    3    0    0  0.21257307887E+02 -0.27810464940E+02 -0.15256747449E+02  0.38184596918E+02  0.51100000000E-03 0. -1.
         22    1    1    0    0    0 -0.10137803614E+02 -0.27165269968E+02  0.90506637874E+00  0.29009413984E+02  0.00000000000E+00 0.  1.
</event>
<event>
 5    1  0.1055265E-009  0.9118800E+02  0.7815553E-02  0.1125453E+00
         25   -1    0    0    0    0  0.00000000000E+00  0.00000000000E+00  0.99999998245E-14  0.12509000000E+03  0.12509000000E+03 0.  0.
        -11    1    3    3    0    0 -0.43542779198E+01  0.10135434101E+02  0.41340603703E+02  0.42787057336E+02  0.51100000000E-03 0. -1.
         23    2    1    0    0    0  0.25383141998E+02  0.12837029252E+02 -0.32587757115E+01  0.96459372399E+02  0.92112418743E+02 0.  0.
         11    1    3    3    0    0  0.29737419918E+02  0.27015951507E+01 -0.44599379415E+02  0.53672315063E+02  0.51100000000E-03 0.  1.
         22    1    1    0    0    0 -0.25383141998E+02 -0.12837029252E+02  0.32587757115E+01  0.28630627601E+02  0.00000000000E+00 0. -1.
</event>
<event>
 5    1  0.1055265E-009  0.9118800E+02  0.7815553E-02  0.1125453E+00
         25   -1    0    0    0    0  0.00000000000E+00  0.00000000000E+00  0.99999998245E-14  0.12509000000E+03  0.12509000000E+03 0.  0.
        -11    1    3    3    0    0 -0.37926048837E+02  0.39421036915E+02  0.93649316476E+01  0.55498696173E+02  0.51100000000E-03 0. -1.
         23    2    1    0    0    0 -0.98123839494E+01  0.16664827506E+02  0.23783639258E+02  0.94436111977E+02  0.89322552552E+02 0.  0.
         11    1    3    3    0    0  0.28113664888E+02 -0.22756209409E+02  0.14418707610E+02  0.38937415804E+02  0.51100000000E-03 0.  1.
         22    1    1    0    0    0  0.98123839494E+01 -0.16664827506E+02 -0.23783639258E+02  0.30653888023E+02  0.00000000000E+00 0. -1.
</event>
<event>
 5    1  0.1055265E-009  0.9118800E+02  0.7815553E-02  0.1125453E+00
         25   -1    0    0    0    0  0.00000000000E+00  0.00000000000E+00  0.99999998245E-14  0.12509000000E+03  0.12509000000E+03 0.  0.
        -11    1    3    3    0    0  0.21465892776E+01  0.52727968938E+02  0.54064758401E+01  0.53047870222E+02  0.51100000000E-03 0. -1.
         23    2    1    0    0    0  0.17229159834E+02  0.16683542639E+02  0.19078951159E+02  0.94443778032E+02  0.89333287682E+02 0.  0.
         11    1    3    3    0    0  0.15082570557E+02 -0.36044426299E+02  0.13672475318E+02  0.41395907810E+02  0.51100000000E-03 0.  1.
         22    1    1    0    0    0 -0.17229159834E+02 -0.16683542639E+02 -0.19078951159E+02  0.30646221968E+02  0.00000000000E+00 0. -1.
</event>
<event>
 5    1  0.1055265E-009  0.9118800E+02  0.7815553E-02  0.1125453E+00
         25   -1    0    0    0    0  0.00000000000E+00  0.00000000000E+00  0.99999998245E-14  0.12509000000E+03  0.12509000000E+03 0.  0.
        -11    1    3    3    0    0  0.96924016923E+00 -0.39794344178E+02 -0.16550230430E+02  0.43109620534E+02  0.51100000000E-03 0. -1.
         23    2    1    0    0    0 -0.27601138299E+02  0.32395826166E+01 -0.11512525570E+02  0.95009175944E+02  0.90121515398E+02 0.  0.
         11    1    3    3    0    0 -0.28570378468E+02  0.43033926794E+02  0.50377048605E+01  0.51899555409E+02  0.51100000000E-03 0.  1.
         22    1    1    0    0    0  0.27601138299E+02 -0.32395826166E+01  0.11512525570E+02  0.30080824056E+02  0.00000000000E+00 0.  1.
</event>
<event>
 5    1  0.1055265E-009  0.9118800E+02  0.7815553E-02  0.1125453E+00
         25   -1    0    0    0    0  0.00000000000E+00  0.00000000000E+00  0.99999998245E-14  0.12509000000E+03  0.12509000000E+03 0.  0.
        -11    1    3    3    0    0  0.90795188263E+01 -0.11335292388E+02  0.53510616746E+02  0.55446484293E+02  0.51100000000E-03 0.  1.
         23    2    1    0    0    0  0.39601879069E+01 -0.24240432434E+02  0.15175316237E+02  0.96218355161E+02  0.91784530255E+02 0.  0.
         11    1    3    3    0    0 -0.51193309194E+01 -0.12905140046E+02 -0.38335300509E+02  0.40771870868E+02  0.51100000000E-03 0. -1.
         22    1    1    0    0    0 -0.39601879069E+01  0.24240432434E+02 -0.15175316237E+02  0.28871644839E+02  0.00000000000E+00 0.  1.
</event>
<event>
 5    1  0.1055265E-009  0.9118800E+02  0.7815553E-02  0.1125453E+00
         25   -1    0    0    0    0  0.00000000000E+00  0.00000000000E+00  0.99999998245E-14  0.12509000000E+03  0.12509000000E+03 0.  0.
        -11    1    3    3    0    0 -0.11225380814E+02 -0.53610726556E+01 -0.20266667927E+02  0.23779993767E+02  0.51100000000E-03 0. -1.
         23    2    1    0    0    0  0.23911407831E+02 -0.18264592847E+02  0.27405264720E+02  0.84391114135E+02  0.73928755124E+02 0.  0.
         11    1    3    3    0    0  0.35136788645E+02 -0.12903520191E+02  0.47671932647E+02  0.60611120367E+02  0.51100000000E-03 0.  1.
         22    1    1    0    0    0 -0.23911407831E+02  0.18264592847E+02 -0.27405264720E+02  0.40698885865E+02  0.00000000000E+00 0.  1.
</event>
<event>
 5    1  0.1055265E-009  0.9118800E+02  0.7815553E-02  0.1125453E+00
         25   -1    0    0    0    0  0.00000000000E+00  0.00000000000E+00  0.99999998245E-14  0.12509000000E+03  0.12509000000E+03 0.  0.
        -11    1    3    3    0    0 -0.14855900674E+02  0.22584253050E+02  0.30785576173E+02  0.40969476091E+02  0.51100000000E-03 0. -1.
         23    2    1    0    0    0  0.11366495033E+02  0.16996938607E+02 -0.18783406250E+02  0.97324743263E+02  0.93280202452E+02 0.  0.
         11    1    3    3    0    0  0.26222395706E+02 -0.55873144429E+01 -0.49568982423E+02  0.56355267171E+02  0.51100000000E-03 0.  1.
         22    1    1    0    0    0 -0.11366495033E+02 -0.16996938607E+02  0.18783406250E+02  0.27765256737E+02  0.00000000000E+00 0.  1.
</event>
<event>
 5    1  0.1055265E-009  0.9118800E+02  0.7815553E-02  0.1125453E+00
         25   -1    0    0    0    0  0.00000000000E+00  0.00000000000E+00  0.99999998245E-14  0.12509000000E+03  0.12509000000E+03 0.  0.
        -11    1    3    3    0    0 -0.39049844441E+02 -0.77598930719E+01 -0.90932321615E+01  0.40838623419E+02  0.51100000000E-03 0. -1.
         23    2    1    0    0    0  0.73258515122E+00  0.29250320792E+02 -0.57002308503E+01  0.95280428061E+02  0.90497234170E+02 0.  0.
         11    1    3    3    0    0  0.39782429593E+02  0.37010213864E+02  0.33930013111E+01  0.54441804642E+02  0.51100000000E-03 0.  1.
         22    1    1    0    0    0 -0.73258515122E+00 -0.29250320792E+02  0.57002308503E+01  0.29809571939E+02  0.00000000000E+00 0.  1.
</event>
<event>
 5    1  0.1055265E-009  0.9118800E+02  0.7815553E-02  0.1125453E+00
         25   -1    0    0    0    0  0.00000000000E+00  0.00000000000E+00  0.99999998245E-14  0.12509000000E+03  0.12509000000E+03 0.  0.
        -11    1    3    3    0    0 -0.45635219198E+01  0.50177754217E+02 -0.27776420914E+02  0.57534010026E+02  0.51100000000E-03 0.  1.
         23    2    1    0    0    0  0.69914631748E+01  0.28993636090E+02  0.11985876015E+01  0.95241246202E+02  0.90443058743E+02 0.  0.
         11    1    3    3    0    0  0.11554985095E+02 -0.21184118127E+02  0.28975008515E+02  0.37707236177E+02  0.51100000000E-03 0. -1.
         22    1    1    0    0    0 -0.69914631748E+01 -0.28993636090E+02 -0.11985876015E+01  0.29848753798E+02  0.00000000000E+00 0.  1.
</event>
<event>
 5    1  0.1055265E-009  0.9118800E+02  0.7815553E-02  0.1125453E+00
         25   -1    0    0    0    0  0.00000000000E+00  0.00000000000E+00  0.99999998245E-14  0.12509000000E+03  0.12509000000E+03 0.  0.
        -11    1    3    3    0    0  0.16889282039E+02  0.31652659635E+02 -0.31273009212E+01  0.36012757754E+02  0.51100000000E-03 0. -1.
         23    2    1    0    0    0 -0.24383194749E+02 -0.10319697567E+02 -0.12823382145E+02  0.95671035476E+02  0.91035551052E+02 0.  0.
         11    1    3    3    0    0 -0.41272476788E+02 -0.41972357202E+02 -0.96960812235E+01  0.59658277721E+02  0.51100000000E-03 0.  1.
         22    1    1    0    0    0  0.24383194749E+02  0.10319697567E+02  0.12823382145E+02  0.29418964524E+02  0.00000000000E+00 0.  1.
</event>
<event>
 5    1  0.1055265E-009  0.9118800E+02  0.7815553E-02  0.1125453E+00
         25   -1    0    0    0    0  0.00000000000E+00  0.00000000000E+00  0.99999998245E-14  0.12509000000E+03  0.12509000000E+03 0.  0.
        -11    1    3    3    0    0  0.17922921912E+02  0.23246478536E+02 -0.13981010132E+02  0.32513051822E+02  0.51100000000E-03 0. -1.
         23    2    1    0    0    0 -0.85345727368E+01 -0.23120554926E+02  0.17843075480E+02  0.94663460031E+02  0.89640372213E+02 0.  0.
         11    1    3    3    0    0 -0.26457494649E+02 -0.46367033462E+02  0.31824085613E+02  0.62150408209E+02  0.51100000000E-03 0.  1.
         22    1    1    0    0    0  0.85345727368E+01  0.23120554926E+02 -0.17843075480E+02  0.30426539969E+02  0.00000000000E+00 0.  1.
</event>
<event>
 5    1  0.1055265E-009  0.9118800E+02  0.7815553E-02  0.1125453E+00
         25   -1    0    0    0    0  0.00000000000E+00  0.00000000000E+00  0.99999998245E-14  0.12509000000E+03  0.12509000000E+03 0.  0.
        -11    1    3    3    0    0  0.24204286666E+02 -0.31773780112E+02  0.31448406409E+02  0.50837219254E+02  0.51100000000E-03 0. -1.
         23    2    1    0    0    0  0.79230165729E+01  0.89991160670E+01  0.27707295137E+02  0.94899728630E+02  0.89969472649E+02 0.  0.
         11    1    3    3    0    0 -0.16281270093E+02  0.40772896179E+02 -0.37411112723E+01  0.44062509376E+02  0.51100000000E-03 0.  1.
         22    1    1    0    0    0 -0.79230165729E+01 -0.89991160670E+01 -0.27707295137E+02  0.30190271370E+02  0.00000000000E+00 0. -1.
</event>
<event>
 5    1  0.1055265E-009  0.9118800E+02  0.7815553E-02  0.1125453E+00
         25   -1    0    0    0    0  0.00000000000E+00  0.00000000000E+00  0.99999998245E-14  0.12509000000E+03  0.12509000000E+03 0.  0.
        -11    1    3    3    0    0  0.60428161268E+01  0.57151300653E+01  0.22017111819E+02  0.23535750499E+02  0.51100000000E-03 0.  1.
         23    2    1    0    0    0  0.13978443966E+02  0.16535000342E+01 -0.38184447438E+02  0.84393771868E+02  0.73933251963E+02 0.  0.
         11    1    3    3    0    0  0.79356278396E+01 -0.40616300311E+01 -0.60201559257E+02  0.60858021369E+02  0.51100000000E-03 0. -1.
         22    1    1    0    0    0 -0.13978443966E+02 -0.16535000342E+01  0.38184447438E+02  0.40696228132E+02  0.00000000000E+00 0. -1.
</event>
<event>
 5    1  0.1055265E-009  0.9118800E+02  0.7815553E-02  0.1125453E+00
         25   -1    0    0    0    0  0.00000000000E+00  0.00000000000E+00  0.99999998245E-14  0.12509000000E+03  0.12509000000E+03 0.  0.
        -11    1    3    3    0    0 -0.74773629276E+01  0.51387778035E+02  0.45872996136E+01  0.52131161561E+02  0.51100000000E-03 0.  1.
         23    2    1    0    0    0  0.15604271134E+02  0.16575581103E+02  0.18072995228E+02  0.96023243679E+02  0.91518233175E+02 0.  0.
         11    1    3    3    0    0  0.23081634062E+02 -0.34812196932E+02  0.13485695614E+02  0.43892082118E+02  0.51100000000E-03 0. -1.
         22    1    1    0    0    0 -0.15604271134E+02 -0.16575581103E+02 -0.18072995228E+02  0.29066756321E+02  0.00000000000E+00 0.  1.
</event>
<event>
 5    1  0.1055265E-009  0.9118800E+02  0.7815553E-02  0.1125453E+00
         25   -1    0    0    0    0  0.00000000000E+00  0.00000000000E+00  0.99999998245E-14  0.12509000000E+03  0.12509000000E+03 0.  0.
        -11    1    3    3    0    0  0.59779653424E+01  0.21512605872E+01  0.37141135359E+02  0.37680604132E+02  0.51100000000E-03 0. -1.
         23    2    1    0    0    0 -0.17045259237E+02 -0.23173008272E+02 -0.88348489978E+01  0.94997081703E+02  0.90104726849E+02 0.  0.
         11    1    3    3    0    0 -0.23023224579E+02 -0.25324268859E+02 -0.45975984357E+02  0.57316477571E+02  0.51100000000E-03 0.  1.
         22    1    1    0    0    0  0.17045259237E+02  0.23173008272E+02  0.88348489978E+01  0.30092918297E+02  0.00000000000E+00 0.  1.
</event>
<event>
 5    1  0.1055265E-009  0.9118800E+02  0.7815553E-02  0.1125453E+00
         25   -1    0    0    0    0  0.00000000000E+00  0.00000000000E+00  0.99999998245E-14  0.12509000000E+03  0.12509000000E+03 0.  0.
        -11    1    3    3    0    0 -0.26635302672E+02 -0.28613861922E+01  0.24305306265E+02  0.36171463784E+02  0.51100000000E-03 0.  1.
         23    2    1    0    0    0  0.35822298791E+01 -0.92910150087E+01 -0.27140351855E+02  0.96180589255E+02  0.91733045953E+02 0.  0.
         11    1    3    3    0    0  0.30217532551E+02 -0.64296288165E+01 -0.51445658120E+02  0.60009125471E+02  0.51100000000E-03 0. -1.
         22    1    1    0    0    0 -0.35822298791E+01  0.92910150087E+01  0.27140351855E+02  0.28909410745E+02  0.00000000000E+00 0. -1.
</event>
<event>
 5    1  0.1055265E-009  0.9118800E+02  0.7815553E-02  0.1125453E+00
         25   -1    0    0    0    0  0.00000000000E+00  0.00000000000E+00  0.99999998245E-14  0.12509000000E+03  0.12509000000E+03 0.  0.
        -11    1    3    3    0    0  0.29383854939E+01  0.84412495993E+01  0.54160762989E+02  0.54893324293E+02  0.51100000000E-03 0. -1.
         23    2    1    0    0    0 -0.15865899383E+02  0.16143722165E+02  0.18849710362E+02  0.95633963109E+02  0.90984596447E+02 0.  0.
         11    1    3    3    0    0 -0.18804284877E+02  0.77024725653E+01 -0.35311052626E+02  0.40740638817E+02  0.51100000000E-03 0.  1.
         22    1    1    0    0    0  0.15865899383E+02 -0.16143722165E+02 -0.18849710362E+02  0.29456036891E+02  0.00000000000E+00 0. -1.
</event>
<event>
 5    1  0.1055265E-009  0.9118800E+02  0.7815553E-02  0.1125453E+00
         25   -1    0    0    0    0  0.00000000000E+00  0.00000000000E+00  0.99999998245E-14  0.12509000000E+03  0.12509000000E+03 0.  0.
        -11    1    3    3    0    0  0.10238551954E+02 -0.36446501926E+02 -0.16773385897E+02  0.41406785959E+02  0.51100000000E-03 0. -1.
         23    2    1    0    0    0 -0.27818000225E+02 -0.90489700237E+01  0.84345047782E+01  0.94645528156E+02  0.89615345416E+02 0.  0.
         11    1    3    3    0    0 -0.38056552179E+02  0.27397531902E+02  0.25207890676E+02  0.53238742197E+02  0.51100000000E-03 0.  1.
         22    1    1    0    0    0  0.27818000225E+02  0.90489700237E+01 -0.84345047782E+01  0.30444471844E+02  0.00000000000E+00 0.  1.
</event>
<event>
 5    1  0.1055265E-009  0.9118800E+02  0.7815553E-02  0.1125453E+00
         25   -1    0    0    0    0  0.00000000000E+00  0.00000000000E+00  0.99999998245E-14  0.12509000000E+03  0.12509000000E+03 0.  0.
        -11    1    3    3    0    0 -0.31373514646E+02  0.34626688240E+01 -0.23639210069E+02  0.39434753069E+02  0.51100000000E-03 0.  1.
         23    2    1    0    0    0  0.60066785855E+01  0.27267066840E+02  0.10379330062E+02  0.95302358028E+02  0.90527541840E+02 0.  0.
         11    1    3    3    0    0  0.37380193232E+02  0.23804398016E+02  0.34018540132E+02  0.55867604959E+02  0.51100000000E-03 0. -1.
         22    1    1    0    0    0 -0.60066785855E+01 -0.27267066840E+02 -0.10379330062E+02  0.29787641972E+02  0.00000000000E+00 0. -1.
</event>
<event>
 5    1  0.1055265E-009  0.9118800E+02  0.7815553E-02  0.1125453E+00
         25   -1    0    0    0    0  0.00000000000E+00  0.00000000000E+00  0.99999998245E-14  0.12509000000E+03  0.12509000000E+03 0.  0.
        -11    1    3    3    0    0 -0.36267871226E+02  0.15515103765E+02 -0.85902306871E+01  0.40371635979E+02  0.51100000000E-03 0.  1.
         23    2    1    0    0    0 -0.36455955001E+01 -0.28917605835E+02 -0.36746955316E+01  0.95712769344E+02  0.91092878615E+02 0.  0.
         11    1    3    3    0    0  0.32622275726E+02 -0.44432709600E+02  0.49155351555E+01  0.55341133365E+02  0.51100000000E-03 0. -1.
         22    1    1    0    0    0  0.36455955001E+01  0.28917605835E+02  0.36746955316E+01  0.29377230656E+02  0.00000000000E+00 0. -1.
</event>
<event>
 5    1  0.1055265E-009  0.9118800E+02  0.7815553E-02  0.1125453E+00
         25   -1    0    0    0    0  0.00000000000E+00  0.00000000000E+00  0.99999998245E-14  0.12509000000E+03  0.12509000000E+03 0.  0.
        -11    1    3    3    0    0 -0.15162527844E+01  0.12325111932E+02  0.32282540406E+02  0.34588579358E+02  0.51100000000E-03 0. -1.
         23    2    1    0    0    0  0.50462618934E+01 -0.65173969197E+01 -0.26853497684E+02  0.96999938420E+02  0.92843613102E+02 0.  0.
         11    1    3    3    0    0  0.65625146777E+01 -0.18842508852E+02 -0.59136038090E+02  0.62411359062E+02  0.51100000000E-03 0.  1.
         22    1    1    0    0    0 -0.50462618934E+01  0.65173969197E+01  0.26853497684E+02  0.28090061580E+02  0.00000000000E+00 0.  1.
</event>
<event>
 5    1  0.1055265E-009  0.9118800E+02  0.7815553E-02  0.1125453E+00
         25   -1    0    0    0    0  0.00000000000E+00  0.00000000000E+00  0.99999998245E-14  0.12509000000E+03  0.12509000000E+03 0.  0.
        -11    1    3    3    0    0  0.21514040584E+02  0.51916235374E+01  0.15739691557E+02  0.27157775825E+02  0.51100000000E-03 0. -1.
         23    2    1    0    0    0 -0.35431240179E+02  0.62772688062E+01  0.19362006093E+02  0.84228475748E+02  0.73653051278E+02 0.  0.
         11    1    3    3    0    0 -0.56945280763E+02  0.10856452688E+01  0.36223145353E+01  0.57070699923E+02  0.51100000000E-03 0.  1.
         22    1    1    0    0    0  0.35431240179E+02 -0.62772688062E+01 -0.19362006093E+02  0.40861524252E+02  0.00000000000E+00 0.  1.
</event>
<event>
 5    1  0.1055265E-009  0.9118800E+02  0.7815553E-02  0.1125453E+00
         25   -1    0    0    0    0  0.00000000000E+00  0.00000000000E+00  0.99999998245E-14  0.12509000000E+03  0.12509000000E+03 0.  0.
        -11    1    3    3    0    0 -0.37470656436E+02 -0.58117005290E+01  0.90321224160E+01  0.38979548386E+02  0.51100000000E-03 0.  1.
         23    2    1    0    0    0  0.15370707602E+02  0.10952818253E+02  0.22192314712E+02  0.95957171230E+02  0.91427878671E+02 0.  0.
         11    1    3    3    0    0  0.52841364038E+02  0.16764518782E+02  0.13160192296E+02  0.56977622844E+02  0.51100000000E-03 0. -1.
         22    1    1    0    0    0 -0.15370707602E+02 -0.10952818253E+02 -0.22192314712E+02  0.29132828770E+02  0.00000000000E+00 0. -1.
</event>
<event>
 5    1  0.1055265E-009  0.9118800E+02  0.7815553E-02  0.1125453E+00
         25   -1    0    0    0    0  0.00000000000E+00  0.00000000000E+00  0.99999998245E-14  0.12509000000E+03  0.12509000000E+03 0.  0.
        -11    1    3    3    0    0 -0.57777710285E+02 -0.31336769892E+00 -0.23668821465E+02  0.62438570731E+02  0.51100000000E-03 0. -1.
         23    2    1    0    0    0 -0.27011306368E+02  0.24258586248E+01 -0.10950012596E+02  0.95842808038E+02  0.91271274862E+02 0.  0.
         11    1    3    3    0    0  0.30766403916E+02  0.27392263237E+01  0.12718808869E+02  0.33404237307E+02  0.51100000000E-03 0.  1.
         22    1    1    0    0    0  0.27011306368E+02 -0.24258586248E+01  0.10950012596E+02  0.29247191962E+02  0.00000000000E+00 0. -1.
</event>
<event>
 5    1  0.1055265E-009  0.9118800E+02  0.7815553E-02  0.1125453E+00
         25   -1    0    0    0    0  0.00000000000E+00  0.00000000000E+00  0.99999998245E-14  0.12509000000E+03  0.12509000000E+03 0.  0.
        -11    1    3    3    0    0 -0.35815986358E+02 -0.67940188235E+01  0.46212838301E+01  0.36746426154E+02  0.51100000000E-03 0. -1.
         23    2    1    0    0    0  0.14798492140E+02  0.30994235470E+01  0.27921229696E+02  0.93337884107E+02  0.87771087186E+02 0.  0.
         11    1    3    3    0    0  0.50614478498E+02  0.98934423705E+01  0.23299945866E+02  0.56591457953E+02  0.51100000000E-03 0.  1.
         22    1    1    0    0    0 -0.14798492140E+02 -0.30994235470E+01 -0.27921229696E+02  0.31752115893E+02  0.00000000000E+00 0.  1.
</event>
<event>
 5    1  0.1055265E-009  0.9118800E+02  0.7815553E-02  0.1125453E+00
         25   -1    0    0    0    0  0.00000000000E+00  0.00000000000E+00  0.99999998245E-14  0.12509000000E+03  0.12509000000E+03 0.  0.
        -11    1    3    3    0    0 -0.19787810703E+02 -0.52947822776E+02 -0.15172157204E+02  0.58525411093E+02  0.51100000000E-03 0. -1.
         23    2    1    0    0    0 -0.55914147721E+00 -0.22596976581E+02 -0.20163404098E+02  0.94799756445E+02  0.89830367735E+02 0.  0.
         11    1    3    3    0    0  0.19228669226E+02  0.30350846195E+02 -0.49912468944E+01  0.36274345353E+02  0.51100000000E-03 0.  1.
         22    1    1    0    0    0  0.55914147721E+00  0.22596976581E+02  0.20163404098E+02  0.30290243555E+02  0.00000000000E+00 0. -1.
</event>
<event>
 5    1  0.1055265E-009  0.9118800E+02  0.7815553E-02  0.1125453E+00
         25   -1    0    0    0    0  0.00000000000E+00  0.00000000000E+00  0.99999998245E-14  0.12509000000E+03  0.12509000000E+03 0.  0.
        -11    1    3    3    0    0 -0.45947453374E+02 -0.43165287789E+01 -0.37143905779E+02  0.59240785182E+02  0.51100000000E-03 0. -1.
         23    2    1    0    0    0 -0.29579130193E+02  0.10562574513E+02 -0.16000146414E+02  0.89840920457E+02  0.82637118657E+02 0.  0.
         11    1    3    3    0    0  0.16368323180E+02  0.14879103292E+02  0.21143759365E+02  0.30600135275E+02  0.51100000000E-03 0.  1.
         22    1    1    0    0    0  0.29579130193E+02 -0.10562574513E+02  0.16000146414E+02  0.35249079543E+02  0.00000000000E+00 0. -1.
</event>
<event>
 5    1  0.1055265E-009  0.9118800E+02  0.7815553E-02  0.1125453E+00
         25   -1    0    0    0    0  0.00000000000E+00  0.00000000000E+00  0.99999998245E-14  0.12509000000E+03  0.12509000000E+03 0.  0.
        -11    1    3    3    0    0  0.18182521409E+02 -0.51929385918E+00 -0.37786417097E+02  0.41936703116E+02  0.51100000000E-03 0. -1.
         23    2    1    0    0    0 -0.19571214928E+02 -0.17161126279E+02  0.16457241922E+01  0.99008490898E+02  0.95511445141E+02 0.  0.
         11    1    3    3    0    0 -0.37753736337E+02 -0.16641832420E+02  0.39432141289E+02  0.57071787782E+02  0.51100000000E-03 0.  1.
         22    1    1    0    0    0  0.19571214928E+02  0.17161126279E+02 -0.16457241922E+01  0.26081509102E+02  0.00000000000E+00 0.  1.
</event>
<event>
 5    1  0.1055265E-009  0.9118800E+02  0.7815553E-02  0.1125453E+00
         25   -1    0    0    0    0  0.00000000000E+00  0.00000000000E+00  0.99999998245E-14  0.12509000000E+03  0.12509000000E+03 0.  0.
        -11    1    3    3    0    0 -0.32260917835E+02 -0.72724064316E+01  0.31224852426E+01  0.33217534966E+02  0.51100000000E-03 0.  1.
         23    2    1    0    0    0  0.23670785632E+02  0.16696280983E+02 -0.79146232244E+01  0.95061461043E+02  0.90194058695E+02 0.  0.
         11    1    3    3    0    0  0.55931703467E+02  0.23968687414E+02 -0.11037108467E+02  0.61843926077E+02  0.51100000000E-03 0. -1.
         22    1    1    0    0    0 -0.23670785632E+02 -0.16696280983E+02  0.79146232244E+01  0.30028538957E+02  0.00000000000E+00 0. -1.
</event>
<event>
 5    1  0.1055265E-009  0.9118800E+02  0.7815553E-02  0.1125453E+00
         25   -1    0    0    0    0  0.00000000000E+00  0.00000000000E+00  0.99999998245E-14  0.12509000000E+03  0.12509000000E+03 0.  0.
        -11    1    3    3    0    0 -0.75708493912E+00  0.28845490759E+02  0.55231149480E+02  0.62314648261E+02  0.51100000000E-03 0.  1.
         23    2    1    0    0    0 -0.29358250763E+01  0.15266209946E+02  0.23319969096E+02  0.97063277151E+02  0.92928911420E+02 0.  0.
         11    1    3    3    0    0 -0.21787401372E+01 -0.13579280813E+02 -0.31911180384E+02  0.34748628890E+02  0.51100000000E-03 0. -1.
         22    1    1    0    0    0  0.29358250763E+01 -0.15266209946E+02 -0.23319969096E+02  0.28026722849E+02  0.00000000000E+00 0.  1.
</event>
<event>
 5    1  0.1055265E-009  0.9118800E+02  0.7815553E-02  0.1125453E+00
         25   -1    0    0    0    0  0.00000000000E+00  0.00000000000E+00  0.99999998245E-14  0.12509000000E+03  0.12509000000E+03 0.  0.
        -11    1    3    3    0    0 -0.20056085379E+02  0.12349343266E+02  0.36942340374E+02  0.43811977271E+02  0.51100000000E-03 0. -1.
         23    2    1    0    0    0 -0.18412719596E+02 -0.21994915128E+02 -0.26888500744E+01  0.96279681551E+02  0.91868071877E+02 0.  0.
         11    1    3    3    0    0  0.16433657830E+01 -0.34344258394E+02 -0.39631190449E+02  0.52467704280E+02  0.51100000000E-03 0.  1.
         22    1    1    0    0    0  0.18412719596E+02  0.21994915128E+02  0.26888500744E+01  0.28810318449E+02  0.00000000000E+00 0.  1.
</event>
<event>
 5    1  0.1055265E-009  0.9118800E+02  0.7815553E-02  0.1125453E+00
         25   -1    0    0    0    0  0.00000000000E+00  0.00000000000E+00  0.99999998245E-14  0.12509000000E+03  0.12509000000E+03 0.  0.
        -11    1    3    3    0    0  0.68595216625E+01 -0.38440967683E+02  0.25353285425E+02  0.46556955613E+02  0.51100000000E-03 0. -1.
         23    2    1    0    0    0 -0.19010136832E+02  0.28226911157E+01  0.22721750243E+02  0.95330449909E+02  0.90566350584E+02 0.  0.
         11    1    3    3    0    0 -0.25869658495E+02  0.41263658799E+02 -0.26315351817E+01  0.48773494295E+02  0.51100000000E-03 0.  1.
         22    1    1    0    0    0  0.19010136832E+02 -0.28226911157E+01 -0.22721750243E+02  0.29759550091E+02  0.00000000000E+00 0.  1.
</event>
<event>
 5    1  0.1055265E-009  0.9118800E+02  0.7815553E-02  0.1125453E+00
         25   -1    0    0    0    0  0.00000000000E+00  0.00000000000E+00  0.99999998245E-14  0.12509000000E+03  0.12509000000E+03 0.  0.
        -11    1    3    3    0    0  0.21506563479E+02  0.44795091721E+02  0.28929138736E+01  0.49774506185E+02  0.51100000000E-03 0. -1.
         23    2    1    0    0    0  0.90930665504E+01  0.44803452932E+01  0.25511290276E+02  0.97638528550E+02  0.93700047879E+02 0.  0.
         11    1    3    3    0    0 -0.12413496929E+02 -0.40314746428E+02  0.22618376403E+02  0.47864022365E+02  0.51100000000E-03 0.  1.
         22    1    1    0    0    0 -0.90930665504E+01 -0.44803452932E+01 -0.25511290276E+02  0.27451471450E+02  0.00000000000E+00 0.  1.
</event>
<event>
 5    1  0.1055265E-009  0.9118800E+02  0.7815553E-02  0.1125453E+00
         25   -1    0    0    0    0  0.00000000000E+00  0.00000000000E+00  0.99999998245E-14  0.12509000000E+03  0.12509000000E+03 0.  0.
        -11    1    3    3    0    0 -0.25143190466E+02  0.19570858378E+02  0.30098285717E+02  0.43830415556E+02  0.51100000000E-03 0. -1.
         23    2    1    0    0    0  0.22076058180E+02  0.15053373622E+02  0.37029025092E+01  0.98114679999E+02  0.94333570601E+02 0.  0.
         11    1    3    3    0    0  0.47219248646E+02 -0.45174847559E+01 -0.26395383208E+02  0.54284264443E+02  0.51100000000E-03 0.  1.
         22    1    1    0    0    0 -0.22076058180E+02 -0.15053373622E+02 -0.37029025092E+01  0.26975320001E+02  0.00000000000E+00 0.  1.
</event>
<event>
 5    1  0.1055265E-009  0.9118800E+02  0.7815553E-02  0.1125453E+00
         25   -1    0    0    0    0  0.00000000000E+00  0.00000000000E+00  0.99999998245E-14  0.12509000000E+03  0.12509000000E+03 0.  0.
        -11    1    3    3    0    0  0.27480718314E+01 -0.50459677175E+02 -0.13311446576E+02  0.52258258003E+02  0.51100000000E-03 0.  1.
         23    2    1    0    0    0 -0.23474140383E+02 -0.18887066145E+02 -0.16905682050E+01  0.94913609309E+02  0.89988769726E+02 0.  0.
         11    1    3    3    0    0 -0.26222212214E+02  0.31572611029E+02  0.11620878371E+02  0.42655351305E+02  0.51100000000E-03 0. -1.
         22    1    1    0    0    0  0.23474140383E+02  0.18887066145E+02  0.16905682050E+01  0.30176390691E+02  0.00000000000E+00 0.  1.
</event>
<event>
 5    1  0.1055265E-009  0.9118800E+02  0.7815553E-02  0.1125453E+00
         25   -1    0    0    0    0  0.00000000000E+00  0.00000000000E+00  0.99999998245E-14  0.12509000000E+03  0.12509000000E+03 0.  0.
        -11    1    3    3    0    0 -0.47329908083E+02  0.34555644208E+01 -0.81825283390E+01  0.48156151164E+02  0.51100000000E-03 0.  1.
         23    2    1    0    0    0 -0.21262097021E+02  0.30298786782E+02  0.48068916508E+01  0.87764412830E+02  0.79431685755E+02 0.  0.
         11    1    3    3    0    0  0.26067811062E+02  0.26843222361E+02  0.12989419990E+02  0.39608261666E+02  0.51100000000E-03 0. -1.
         22    1    1    0    0    0  0.21262097021E+02 -0.30298786782E+02 -0.48068916508E+01  0.37325587170E+02  0.00000000000E+00 0.  1.
</event>
<event>
 5    1  0.1055265E-009  0.9118800E+02  0.7815553E-02  0.1125453E+00
         25   -1    0    0    0    0  0.00000000000E+00  0.00000000000E+00  0.99999998245E-14  0.12509000000E+03  0.12509000000E+03 0.  0.
        -11    1    3    3    0    0  0.32416525027E+02  0.43140310622E+02 -0.68943821611E+01  0.54400827209E+02  0.51100000000E-03 0. -1.
         23    2    1    0    0    0  0.89757383184E+01  0.19705721191E+02  0.18858612430E+02  0.96375428981E+02  0.91998351738E+02 0.  0.
         11    1    3    3    0    0 -0.23440786709E+02 -0.23434589430E+02  0.25752994591E+02  0.41974601772E+02  0.51100000000E-03 0.  1.
         22    1    1    0    0    0 -0.89757383184E+01 -0.19705721191E+02 -0.18858612430E+02  0.28714571019E+02  0.00000000000E+00 0. -1.
</event>
<event>
 5    1  0.1055265E-009  0.9118800E+02  0.7815553E-02  0.1125453E+00
         25   -1    0    0    0    0  0.00000000000E+00  0.00000000000E+00  0.99999998245E-14  0.12509000000E+03  0.12509000000E+03 0.  0.
        -11    1    3    3    0    0  0.92927080231E+01 -0.14962172232E+02 -0.38030161881E+02  0.41910788984E+02  0.51100000000E-03 0.  1.
         23    2    1    0    0    0 -0.14897030053E+02 -0.22070916446E+02  0.10393920907E+02  0.96505380902E+02  0.92174877782E+02 0.  0.
         11    1    3    3    0    0 -0.24189738076E+02 -0.71087442141E+01  0.48424082789E+02  0.54594591918E+02  0.51100000000E-03 0. -1.
         22    1    1    0    0    0  0.14897030053E+02  0.22070916446E+02 -0.10393920907E+02  0.28584619098E+02  0.00000000000E+00 0. -1.
</event>
<event>
 5    1  0.1055265E-009  0.9118800E+02  0.7815553E-02  0.1125453E+00
         25   -1    0    0    0    0  0.00000000000E+00  0.00000000000E+00  0.99999998245E-14  0.12509000000E+03  0.12509000000E+03 0.  0.
        -11    1    3    3    0    0 -0.28259908502E+02 -0.22696268614E+02  0.12231573036E+02  0.38253815715E+02  0.51100000000E-03 0.  1.
         23    2    1    0    0    0 -0.71360511378E+01  0.22863753646E+02 -0.16400546195E+02  0.96061524805E+02  0.91570542074E+02 0.  0.
         11    1    3    3    0    0  0.21123857365E+02  0.45560022260E+02 -0.28632119231E+02  0.57807709090E+02  0.51100000000E-03 0. -1.
         22    1    1    0    0    0  0.71360511378E+01 -0.22863753646E+02  0.16400546195E+02  0.29028475195E+02  0.00000000000E+00 0. -1.
</event>
<event>
 5    1  0.1055265E-009  0.9118800E+02  0.7815553E-02  0.1125453E+00
         25   -1    0    0    0    0  0.00000000000E+00  0.00000000000E+00  0.99999998245E-14  0.12509000000E+03  0.12509000000E+03 0.  0.
        -11    1    3    3    0    0 -0.26388562012E+02 -0.32124464835E+02  0.38994127220E+02  0.56998942130E+02  0.51100000000E-03 0.  1.
         23    2    1    0    0    0 -0.55271995619E+01 -0.19289669137E+01  0.29645651102E+02  0.94871868397E+02  0.89930728538E+02 0.  0.
         11    1    3    3    0    0  0.20861362450E+02  0.30195497921E+02 -0.93484761184E+01  0.37872926267E+02  0.51100000000E-03 0. -1.
         22    1    1    0    0    0  0.55271995619E+01  0.19289669137E+01 -0.29645651102E+02  0.30218131603E+02  0.00000000000E+00 0.  1.
</event>
<event>
 5    1  0.1055265E-009  0.9118800E+02  0.7815553E-02  0.1125453E+00
         25   -1    0    0    0    0  0.00000000000E+00  0.00000000000E+00  0.99999998245E-14  0.12509000000E+03  0.12509000000E+03 0.  0.
        -11    1    3    3    0    0 -0.34684953798E+02  0.11837963574E+02 -0.35763323692E+02  0.51207408871E+02  0.51100000000E-03 0.  1.
         23    2    1    0    0    0 -0.13533330987E+02 -0.21174544710E+02 -0.17548823099E+02  0.94439166676E+02  0.89326830342E+02 0.  0.
         11    1    3    3    0    0  0.21151622811E+02 -0.33012508284E+02  0.18214500593E+02  0.43231757805E+02  0.51100000000E-03 0. -1.
         22    1    1    0    0    0  0.13533330987E+02  0.21174544710E+02  0.17548823099E+02  0.30650833324E+02  0.00000000000E+00 0. -1.
</event>
<event>
 5    1  0.1055265E-009  0.9118800E+02  0.7815553E-02  0.1125453E+00
         25   -1    0    0    0    0  0.00000000000E+00  0.00000000000E+00  0.99999998245E-14  0.12509000000E+03  0.12509000000E+03 0.  0.
        -11    1    3    3    0    0 -0.22583676705E+02  0.28454218007E+01  0.32693161045E+02  0.39836687339E+02  0.51100000000E-03 0.  1.
         23    2    1    0    0    0 -0.14698056075E+02  0.21368726531E+02 -0.17423191822E+02  0.93845433445E+02  0.88491482297E+02 0.  0.
         11    1    3    3    0    0  0.78856206303E+01  0.18523304731E+02 -0.50116352868E+02  0.54008746106E+02  0.51100000000E-03 0. -1.
         22    1    1    0    0    0  0.14698056075E+02 -0.21368726531E+02  0.17423191822E+02  0.31244566555E+02  0.00000000000E+00 0. -1.
</event>
<event>
 5    1  0.1055265E-009  0.9118800E+02  0.7815553E-02  0.1125453E+00
         25   -1    0    0    0    0  0.00000000000E+00  0.00000000000E+00  0.99999998245E-14  0.12509000000E+03  0.12509000000E+03 0.  0.
        -11    1    3    3    0    0 -0.51091698483E+01 -0.15146214239E+02  0.51278209997E+02  0.53711881768E+02  0.51100000000E-03 0.  1.
         23    2    1    0    0    0 -0.16521698664E+02 -0.19998524645E+02  0.92209169948E+01  0.97559420185E+02  0.93594378259E+02 0.  0.
         11    1    3    3    0    0 -0.11412528816E+02 -0.48523104065E+01 -0.42057293002E+02  0.43847538417E+02  0.51100000000E-03 0. -1.
         22    1    1    0    0    0  0.16521698664E+02  0.19998524645E+02 -0.92209169948E+01  0.27530579815E+02  0.00000000000E+00 0.  1.
</event>
<event>
 5    1  0.1055265E-009  0.9118800E+02  0.7815553E-02  0.1125453E+00
         25   -1    0    0    0    0  0.00000000000E+00  0.00000000000E+00  0.99999998245E-14  0.12509000000E+03  0.12509000000E+03 0.  0.
        -11    1    3    3    0    0 -0.43666705350E+02 -0.33439794787E+02  0.18791295293E+02  0.58121543429E+02  0.51100000000E-03 0.  1.
         23    2    1    0    0    0 -0.24751675935E+02 -0.14766574267E+02 -0.72905791972E+01  0.95360389808E+02  0.90607694056E+02 0.  0.
         11    1    3    3    0    0  0.18915029415E+02  0.18673220520E+02 -0.26081874491E+02  0.37238846378E+02  0.51100000000E-03 0. -1.
         22    1    1    0    0    0  0.24751675935E+02  0.14766574267E+02  0.72905791972E+01  0.29729610192E+02  0.00000000000E+00 0.  1.
</event>
<event>
 5    1  0.1055265E-009  0.9118800E+02  0.7815553E-02  0.1125453E+00
         25   -1    0    0    0    0  0.00000000000E+00  0.00000000000E+00  0.99999998245E-14  0.12509000000E+03  0.12509000000E+03 0.  0.
        -11    1    3    3    0    0  0.31636665419E+02  0.28588845964E+02 -0.43285099778E+02  0.60760189067E+02  0.51100000000E-03 0.  1.
         23    2    1    0    0    0  0.23482679870E+02  0.11537995333E+02 -0.14554393726E+02  0.95150194274E+02  0.90317038833E+02 0.  0.
         11    1    3    3    0    0 -0.81539855492E+01 -0.17050850631E+02  0.28730706053E+02  0.34390005207E+02  0.51100000000E-03 0. -1.
         22    1    1    0    0    0 -0.23482679870E+02 -0.11537995333E+02  0.14554393726E+02  0.29939805726E+02  0.00000000000E+00 0.  1.
</event>
<event>
 5    1  0.1055265E-009  0.9118800E+02  0.7815553E-02  0.1125453E+00
         25   -1    0    0    0    0  0.00000000000E+00  0.00000000000E+00  0.99999998245E-14  0.12509000000E+03  0.12509000000E+03 0.  0.
        -11    1    3    3    0    0  0.15118940767E+02 -0.31456633684E+02 -0.43720906098E+02  0.55943004951E+02  0.51100000000E-03 0. -1.
         23    2    1    0    0    0 -0.37551915863E+01 -0.25699708018E+02 -0.61216026549E+01  0.98405726071E+02  0.94718722797E+02 0.  0.
         11    1    3    3    0    0 -0.18874132353E+02  0.57569256653E+01  0.37599303443E+02  0.42462721120E+02  0.51100000000E-03 0.  1.
         22    1    1    0    0    0  0.37551915863E+01  0.25699708018E+02  0.61216026549E+01  0.26684273929E+02  0.00000000000E+00 0. -1.
</event>
<event>
 5    1  0.1055265E-009  0.9118800E+02  0.7815553E-02  0.1125453E+00
         25   -1    0    0    0    0  0.00000000000E+00  0.00000000000E+00  0.99999998245E-14  0.12509000000E+03  0.12509000000E+03 0.  0.
        -11    1    3    3    0    0 -0.48872297453E+02  0.31035514494E+02  0.20236106633E+01  0.57929263923E+02  0.51100000000E-03 0.  1.
         23    2    1    0    0    0 -0.25492832404E+02  0.95793101962E+01 -0.15061743867E+02  0.93969206050E+02  0.88666272446E+02 0.  0.
         11    1    3    3    0    0  0.23379465050E+02 -0.21456204297E+02 -0.17085354530E+02  0.36039942127E+02  0.51100000000E-03 0. -1.
         22    1    1    0    0    0  0.25492832404E+02 -0.95793101962E+01  0.15061743867E+02  0.31120793950E+02  0.00000000000E+00 0.  1.
</event>
<event>
 5    1  0.1055265E-009  0.9118800E+02  0.7815553E-02  0.1125453E+00
         25   -1    0    0    0    0  0.00000000000E+00  0.00000000000E+00  0.99999998245E-14  0.12509000000E+03  0.12509000000E+03 0.  0.
        -11    1    3    3    0    0 -0.16666384155E+02 -0.31666090055E+02 -0.38076773835E+02  0.52252754244E+02  0.51100000000E-03 0.  1.
         23    2    1    0    0    0 -0.27023777612E+02 -0.16820990341E+02 -0.13123936963E+01  0.93231678486E+02  0.87619593834E+02 0.  0.
         11    1    3    3    0    0 -0.10357393457E+02  0.14845099715E+02  0.36764380139E+02  0.40978924242E+02  0.51100000000E-03 0. -1.
         22    1    1    0    0    0  0.27023777612E+02  0.16820990341E+02  0.13123936963E+01  0.31858321514E+02  0.00000000000E+00 0. -1.
</event>
<event>
 5    1  0.1055265E-009  0.9118800E+02  0.7815553E-02  0.1125453E+00
         25   -1    0    0    0    0  0.00000000000E+00  0.00000000000E+00  0.99999998245E-14  0.12509000000E+03  0.12509000000E+03 0.  0.
        -11    1    3    3    0    0 -0.23203645364E+02 -0.29332963221E+01  0.34021136717E+02  0.41284998841E+02  0.51100000000E-03 0.  1.
         23    2    1    0    0    0  0.23684687158E+02 -0.12106439410E+02  0.28345012823E+01  0.98339959281E+02  0.94631828223E+02 0.  0.
         11    1    3    3    0    0  0.46888332522E+02 -0.91731430882E+01 -0.31186635435E+02  0.57054960440E+02  0.51100000000E-03 0. -1.
         22    1    1    0    0    0 -0.23684687158E+02  0.12106439410E+02 -0.28345012823E+01  0.26750040719E+02  0.00000000000E+00 0. -1.
</event>
<event>
 5    1  0.1055265E-009  0.9118800E+02  0.7815553E-02  0.1125453E+00
         25   -1    0    0    0    0  0.00000000000E+00  0.00000000000E+00  0.99999998245E-14  0.12509000000E+03  0.12509000000E+03 0.  0.
        -11    1    3    3    0    0 -0.10724624339E+02 -0.26385070468E+02  0.21881004072E+02  0.35916122429E+02  0.51100000000E-03 0. -1.
         23    2    1    0    0    0  0.78532795539E+01 -0.12517158711E+00 -0.28409836482E+02  0.95614442726E+02  0.90957754926E+02 0.  0.
         11    1    3    3    0    0  0.18577903893E+02  0.26259898881E+02 -0.50290840555E+02  0.59698320297E+02  0.51100000000E-03 0.  1.
         22    1    1    0    0    0 -0.78532795539E+01  0.12517158711E+00  0.28409836482E+02  0.29475557274E+02  0.00000000000E+00 0.  1.
</event>
<event>
 5    1  0.1055265E-009  0.9118800E+02  0.7815553E-02  0.1125453E+00
         25   -1    0    0    0    0  0.00000000000E+00  0.00000000000E+00  0.99999998245E-14  0.12509000000E+03  0.12509000000E+03 0.  0.
        -11    1    3    3    0    0 -0.48703154021E+02  0.18190268410E+02 -0.17054618290E+02  0.54715108350E+02  0.51100000000E-03 0.  1.
         23    2    1    0    0    0 -0.10827847227E+02 -0.40520692954E+01 -0.23299181701E+02  0.99080128622E+02  0.95605222026E+02 0.  0.
         11    1    3    3    0    0  0.37875306794E+02 -0.22242337705E+02 -0.62445634108E+01  0.44365020273E+02  0.51100000000E-03 0. -1.
         22    1    1    0    0    0  0.10827847227E+02  0.40520692954E+01  0.23299181701E+02  0.26009871378E+02  0.00000000000E+00 0. -1.
</event>
<event>
 5    1  0.1055265E-009  0.9118800E+02  0.7815553E-02  0.1125453E+00
         25   -1    0    0    0    0  0.00000000000E+00  0.00000000000E+00  0.99999998245E-14  0.12509000000E+03  0.12509000000E+03 0.  0.
        -11    1    3    3    0    0  0.18087518873E+01 -0.46693062300E+01 -0.45447374385E+02  0.45722399793E+02  0.51100000000E-03 0. -1.
         23    2    1    0    0    0 -0.14578608234E+02  0.20740970426E+02 -0.69899904642E+00  0.99728370085E+02  0.96449652814E+02 0.  0.
         11    1    3    3    0    0 -0.16387360121E+02  0.25410276656E+02  0.44748375339E+02  0.54005970292E+02  0.51100000000E-03 0.  1.
         22    1    1    0    0    0  0.14578608234E+02 -0.20740970426E+02  0.69899904642E+00  0.25361629915E+02  0.00000000000E+00 0. -1.
</event>
<event>
 5    1  0.1055265E-009  0.9118800E+02  0.7815553E-02  0.1125453E+00
         25   -1    0    0    0    0  0.00000000000E+00  0.00000000000E+00  0.99999998245E-14  0.12509000000E+03  0.12509000000E+03 0.  0.
        -11    1    3    3    0    0  0.15506236865E+01  0.19135481777E+02 -0.35706886609E+02  0.40540755398E+02  0.51100000000E-03 0.  1.
         23    2    1    0    0    0 -0.25595523915E+02 -0.14414683368E+02 -0.13844507108E+01  0.95681996925E+02  0.91050611698E+02 0.  0.
         11    1    3    3    0    0 -0.27146147602E+02 -0.33550165145E+02  0.34322435898E+02  0.55141241527E+02  0.51100000000E-03 0. -1.
         22    1    1    0    0    0  0.25595523915E+02  0.14414683368E+02  0.13844507108E+01  0.29408003075E+02  0.00000000000E+00 0. -1.
</event>
<event>
 5    1  0.1055265E-009  0.9118800E+02  0.7815553E-02  0.1125453E+00
         25   -1    0    0    0    0  0.00000000000E+00  0.00000000000E+00  0.99999998245E-14  0.12509000000E+03  0.12509000000E+03 0.  0.
        -11    1    3    3    0    0 -0.15026532011E+02 -0.29450963647E+02 -0.13321211169E+02  0.35645625135E+02  0.51100000000E-03 0. -1.
         23    2    1    0    0    0  0.28157935865E+02  0.79875590466E+01  0.44193001243E+01  0.95489313094E+02  0.90785506827E+02 0.  0.
         11    1    3    3    0    0  0.43184467877E+02  0.37438522693E+02  0.17740511294E+02  0.59843687959E+02  0.51100000000E-03 0.  1.
         22    1    1    0    0    0 -0.28157935865E+02 -0.79875590466E+01 -0.44193001243E+01  0.29600686906E+02  0.00000000000E+00 0.  1.
</event>
<event>
 5    1  0.1055265E-009  0.9118800E+02  0.7815553E-02  0.1125453E+00
         25   -1    0    0    0    0  0.00000000000E+00  0.00000000000E+00  0.99999998245E-14  0.12509000000E+03  0.12509000000E+03 0.  0.
        -11    1    3    3    0    0 -0.94118347164E+01  0.31120345472E+02  0.20748212158E+02  0.38568728823E+02  0.51100000000E-03 0. -1.
         23    2    1    0    0    0  0.29055852716E+02 -0.22792761070E+01 -0.47872775546E+01  0.95554331682E+02  0.90875049382E+02 0.  0.
         11    1    3    3    0    0  0.38467687432E+02 -0.33399621579E+02 -0.25535489713E+02  0.56985602858E+02  0.51100000000E-03 0.  1.
         22    1    1    0    0    0 -0.29055852716E+02  0.22792761070E+01  0.47872775546E+01  0.29535668318E+02  0.00000000000E+00 0.  1.
</event>
<event>
 5    1  0.1055265E-009  0.9118800E+02  0.7815553E-02  0.1125453E+00
         25   -1    0    0    0    0  0.00000000000E+00  0.00000000000E+00  0.99999998245E-14  0.12509000000E+03  0.12509000000E+03 0.  0.
        -11    1    3    3    0    0  0.26497240946E+02  0.43949852001E+02  0.27382743462E+02  0.58167928521E+02  0.51100000000E-03 0.  1.
         23    2    1    0    0    0 -0.29250180682E+01  0.19891432207E+02  0.19697954810E+02  0.96943344255E+02  0.92767331349E+02 0.  0.
         11    1    3    3    0    0 -0.29422259014E+02 -0.24058419794E+02 -0.76847886526E+01  0.38775415734E+02  0.51100000000E-03 0. -1.
         22    1    1    0    0    0  0.29250180682E+01 -0.19891432207E+02 -0.19697954810E+02  0.28146655745E+02  0.00000000000E+00 0.  1.
</event>
<event>
 5    1  0.1055265E-009  0.9118800E+02  0.7815553E-02  0.1125453E+00
         25   -1    0    0    0    0  0.00000000000E+00  0.00000000000E+00  0.99999998245E-14  0.12509000000E+03  0.12509000000E+03 0.  0.
        -11    1    3    3    0    0  0.14533583570E+02  0.42044436612E+02 -0.24836043085E+02  0.50948883577E+02  0.51100000000E-03 0.  1.
         23    2    1    0    0    0 -0.20045185482E+02  0.20091991479E+02 -0.14630068388E+02  0.93159818609E+02  0.87516943043E+02 0.  0.
         11    1    3    3    0    0 -0.34578769052E+02 -0.21952445133E+02  0.10205974697E+02  0.42210935032E+02  0.51100000000E-03 0. -1.
         22    1    1    0    0    0  0.20045185482E+02 -0.20091991479E+02  0.14630068388E+02  0.31930181391E+02  0.00000000000E+00 0.  1.
</event>
<event>
 5    1  0.1055265E-009  0.9118800E+02  0.7815553E-02  0.1125453E+00
         25   -1    0    0    0    0  0.00000000000E+00  0.00000000000E+00  0.99999998245E-14  0.12509000000E+03  0.12509000000E+03 0.  0.
        -11    1    3    3    0    0 -0.41396987979E+02 -0.43382515422E+02  0.17151549397E+02  0.62369294569E+02  0.51100000000E-03 0. -1.
         23    2    1    0    0    0 -0.21095929779E+02 -0.18372496351E+02  0.10126986693E+02  0.95338651545E+02  0.90577677954E+02 0.  0.
         11    1    3    3    0    0  0.20301058200E+02  0.25010019070E+02 -0.70245627041E+01  0.32969356976E+02  0.51100000000E-03 0.  1.
         22    1    1    0    0    0  0.21095929779E+02  0.18372496351E+02 -0.10126986693E+02  0.29751348455E+02  0.00000000000E+00 0. -1.
</event>
<event>
 5    1  0.1055265E-009  0.9118800E+02  0.7815553E-02  0.1125453E+00
         25   -1    0    0    0    0  0.00000000000E+00  0.00000000000E+00  0.99999998245E-14  0.12509000000E+03  0.12509000000E+03 0.  0.
        -11    1    3    3    0    0 -0.58062737394E+02  0.16238454042E+02 -0.99603015699E+01  0.61107908416E+02  0.51100000000E-03 0. -1.
         23    2    1    0    0    0 -0.24912990285E+02  0.15687713494E+02 -0.27515361273E+00  0.95647901754E+02  0.91003757949E+02 0.  0.
         11    1    3    3    0    0  0.33149747109E+02 -0.55074054766E+00  0.96851479572E+01  0.34539993338E+02  0.51100000000E-03 0.  1.
         22    1    1    0    0    0  0.24912990285E+02 -0.15687713494E+02  0.27515361273E+00  0.29442098246E+02  0.00000000000E+00 0. -1.
</event>
<event>
 5    1  0.1055265E-009  0.9118800E+02  0.7815553E-02  0.1125453E+00
         25   -1    0    0    0    0  0.00000000000E+00  0.00000000000E+00  0.99999998245E-14  0.12509000000E+03  0.12509000000E+03 0.  0.
        -11    1    3    3    0    0  0.53475674645E+01  0.51519617114E+02 -0.35845804152E+01  0.51920291240E+02  0.51100000000E-03 0. -1.
         23    2    1    0    0    0  0.23004159641E+02  0.12368784387E+02 -0.13040348255E+02  0.95897040736E+02  0.91345572149E+02 0.  0.
         11    1    3    3    0    0  0.17656592176E+02 -0.39150832727E+02 -0.94557678401E+01  0.43976749496E+02  0.51100000000E-03 0.  1.
         22    1    1    0    0    0 -0.23004159641E+02 -0.12368784387E+02  0.13040348255E+02  0.29192959264E+02  0.00000000000E+00 0. -1.
</event>
<event>
 5    1  0.1055265E-009  0.9118800E+02  0.7815553E-02  0.1125453E+00
         25   -1    0    0    0    0  0.00000000000E+00  0.00000000000E+00  0.99999998245E-14  0.12509000000E+03  0.12509000000E+03 0.  0.
        -11    1    3    3    0    0 -0.22969900653E+02 -0.39274159579E+02 -0.29284505219E+02  0.54107838552E+02  0.51100000000E-03 0. -1.
         23    2    1    0    0    0  0.11156144256E+02 -0.17032995053E+02 -0.21312356910E+02  0.95614602934E+02  0.90957975253E+02 0.  0.
         11    1    3    3    0    0  0.34126044908E+02  0.22241164526E+02  0.79721483089E+01  0.41506764382E+02  0.51100000000E-03 0.  1.
         22    1    1    0    0    0 -0.11156144256E+02  0.17032995053E+02  0.21312356910E+02  0.29475397066E+02  0.00000000000E+00 0. -1.
</event>
<event>
 5    1  0.1055265E-009  0.9118800E+02  0.7815553E-02  0.1125453E+00
         25   -1    0    0    0    0  0.00000000000E+00  0.00000000000E+00  0.99999998245E-14  0.12509000000E+03  0.12509000000E+03 0.  0.
        -11    1    3    3    0    0  0.22875264241E+02 -0.16158682660E+02 -0.45281152516E+01  0.28370487613E+02  0.51100000000E-03 0.  1.
         23    2    1    0    0    0 -0.10635878323E+02  0.28794553757E+02  0.18794494471E+02  0.89097205496E+02  0.81503562935E+02 0.  0.
         11    1    3    3    0    0 -0.33511142564E+02  0.44953236417E+02  0.23322609723E+02  0.60726717883E+02  0.51100000000E-03 0. -1.
         22    1    1    0    0    0  0.10635878323E+02 -0.28794553757E+02 -0.18794494471E+02  0.35992794504E+02  0.00000000000E+00 0. -1.
</event>
<event>
 5    1  0.1055265E-009  0.9118800E+02  0.7815553E-02  0.1125453E+00
         25   -1    0    0    0    0  0.00000000000E+00  0.00000000000E+00  0.99999998245E-14  0.12509000000E+03  0.12509000000E+03 0.  0.
        -11    1    3    3    0    0 -0.13019642359E+02  0.34956445024E+02  0.43730385170E+02  0.57478784984E+02  0.51100000000E-03 0. -1.
         23    2    1    0    0    0 -0.14645891038E+02  0.65169932098E+01  0.74984601318E+00  0.10904208444E+03  0.10785471981E+03 0.  0.
         11    1    3    3    0    0 -0.16262486785E+01 -0.28439451814E+02 -0.42980539157E+02  0.51563299456E+02  0.51100000000E-03 0.  1.
         22    1    1    0    0    0  0.14645891038E+02 -0.65169932098E+01 -0.74984601318E+00  0.16047915560E+02  0.00000000000E+00 0. -1.
</event>
<event>
 5    1  0.1055265E-009  0.9118800E+02  0.7815553E-02  0.1125453E+00
         25   -1    0    0    0    0  0.00000000000E+00  0.00000000000E+00  0.99999998245E-14  0.12509000000E+03  0.12509000000E+03 0.  0.
        -11    1    3    3    0    0  0.18890544294E+02  0.14042672778E+02 -0.25057482596E+02  0.34379161664E+02  0.51100000000E-03 0.  1.
         23    2    1    0    0    0 -0.24963708789E+02 -0.13418714218E+02  0.78269229696E+01  0.95687459788E+02  0.91058116551E+02 0.  0.
         11    1    3    3    0    0 -0.43854253082E+02 -0.27461386996E+02  0.32884405565E+02  0.61308298123E+02  0.51100000000E-03 0. -1.
         22    1    1    0    0    0  0.24963708789E+02  0.13418714218E+02 -0.78269229696E+01  0.29402540212E+02  0.00000000000E+00 0. -1.
</event>
<event>
 5    1  0.1055265E-009  0.9118800E+02  0.7815553E-02  0.1125453E+00
         25   -1    0    0    0    0  0.00000000000E+00  0.00000000000E+00  0.99999998245E-14  0.12509000000E+03  0.12509000000E+03 0.  0.
        -11    1    3    3    0    0 -0.58669596457E+02  0.11314792908E+02  0.11326947696E+01  0.59761434761E+02  0.51100000000E-03 0. -1.
         23    2    1    0    0    0 -0.21867418593E+02  0.17483173458E+02  0.48428891747E-01  0.97092719856E+02  0.92968535289E+02 0.  0.
         11    1    3    3    0    0  0.36802177864E+02  0.61683805496E+01 -0.10842658778E+01  0.37331285096E+02  0.51100000000E-03 0.  1.
         22    1    1    0    0    0  0.21867418593E+02 -0.17483173458E+02 -0.48428891747E-01  0.27997280144E+02  0.00000000000E+00 0. -1.
</event>
<event>
 5    1  0.1055265E-009  0.9118800E+02  0.7815553E-02  0.1125453E+00
         25   -1    0    0    0    0  0.00000000000E+00  0.00000000000E+00  0.99999998245E-14  0.12509000000E+03  0.12509000000E+03 0.  0.
        -11    1    3    3    0    0 -0.25975857416E+02  0.90895113320E+01  0.25409458664E+02  0.37456708005E+02  0.51100000000E-03 0. -1.
         23    2    1    0    0    0 -0.46797272857E+01 -0.21475885075E+02 -0.19430923190E+02  0.95752749562E+02  0.91147763469E+02 0.  0.
         11    1    3    3    0    0  0.21296130130E+02 -0.30565396407E+02 -0.44840381854E+02  0.58296041557E+02  0.51100000000E-03 0.  1.
         22    1    1    0    0    0  0.46797272857E+01  0.21475885075E+02  0.19430923190E+02  0.29337250438E+02  0.00000000000E+00 0. -1.
</event>
<event>
 5    1  0.1055265E-009  0.9118800E+02  0.7815553E-02  0.1125453E+00
         25   -1    0    0    0    0  0.00000000000E+00  0.00000000000E+00  0.99999998245E-14  0.12509000000E+03  0.12509000000E+03 0.  0.
        -11    1    3    3    0    0 -0.17106934636E+02 -0.82933956996E+01  0.32989063514E+02  0.38075004093E+02  0.51100000000E-03 0. -1.
         23    2    1    0    0    0 -0.14933337181E+02 -0.13295540191E+02 -0.23162803846E+02  0.94491120440E+02  0.89399554874E+02 0.  0.
         11    1    3    3    0    0  0.21735974550E+01 -0.50021444911E+01 -0.56151867360E+02  0.56416116347E+02  0.51100000000E-03 0.  1.
         22    1    1    0    0    0  0.14933337181E+02  0.13295540191E+02  0.23162803846E+02  0.30598879560E+02  0.00000000000E+00 0.  1.
</event>
<event>
 5    1  0.1055265E-009  0.9118800E+02  0.7815553E-02  0.1125453E+00
         25   -1    0    0    0    0  0.00000000000E+00  0.00000000000E+00  0.99999998245E-14  0.12509000000E+03  0.12509000000E+03 0.  0.
        -11    1    3    3    0    0  0.48319731317E+02 -0.16995072885E+02 -0.13135670774E+02  0.52878868973E+02  0.51100000000E-03 0.  1.
         23    2    1    0    0    0  0.19299745982E+02  0.15630351372E+02 -0.14056147647E+02  0.96552947495E+02  0.92239407546E+02 0.  0.
         11    1    3    3    0    0 -0.29019985335E+02  0.32625424257E+02 -0.92047687265E+00  0.43674078522E+02  0.51100000000E-03 0. -1.
         22    1    1    0    0    0 -0.19299745982E+02 -0.15630351372E+02  0.14056147647E+02  0.28537052505E+02  0.00000000000E+00 0.  1.
</event>
<event>
 5    1  0.1055265E-009  0.9118800E+02  0.7815553E-02  0.1125453E+00
         25   -1    0    0    0    0  0.00000000000E+00  0.00000000000E+00  0.99999998245E-14  0.12509000000E+03  0.12509000000E+03 0.  0.
        -11    1    3    3    0    0  0.27610174161E+00  0.51597081065E+02 -0.33091914746E+02  0.61297714708E+02  0.51100000000E-03 0.  1.
         23    2    1    0    0    0 -0.56797093509E+01  0.27162578774E+02 -0.95615713289E+01  0.95738876848E+02  0.91128722749E+02 0.  0.
         11    1    3    3    0    0 -0.59558110925E+01 -0.24434502291E+02  0.23530343417E+02  0.34441162140E+02  0.51100000000E-03 0. -1.
         22    1    1    0    0    0  0.56797093509E+01 -0.27162578774E+02  0.95615713289E+01  0.29351123152E+02  0.00000000000E+00 0.  1.
</event>
<event>
 5    1  0.1055265E-009  0.9118800E+02  0.7815553E-02  0.1125453E+00
         25   -1    0    0    0    0  0.00000000000E+00  0.00000000000E+00  0.99999998245E-14  0.12509000000E+03  0.12509000000E+03 0.  0.
        -11    1    3    3    0    0 -0.10675698733E+01  0.22882738193E+01 -0.38265266060E+02  0.38348487446E+02  0.51100000000E-03 0. -1.
         23    2    1    0    0    0 -0.20795467578E+02 -0.16484868841E+02  0.12346423506E+02  0.95821646000E+02  0.91242267049E+02 0.  0.
         11    1    3    3    0    0 -0.19727897705E+02 -0.18773142661E+02  0.50611689566E+02  0.57473158554E+02  0.51100000000E-03 0.  1.
         22    1    1    0    0    0  0.20795467578E+02  0.16484868841E+02 -0.12346423506E+02  0.29268354000E+02  0.00000000000E+00 0.  1.
</event>
<event>
 5    1  0.1055265E-009  0.9118800E+02  0.7815553E-02  0.1125453E+00
         25   -1    0    0    0    0  0.00000000000E+00  0.00000000000E+00  0.99999998245E-14  0.12509000000E+03  0.12509000000E+03 0.  0.
        -11    1    3    3    0    0  0.66774526216E+01 -0.40356919207E+02  0.54443236088E+01  0.41266329631E+02  0.51100000000E-03 0.  1.
         23    2    1    0    0    0  0.22324357531E+02  0.12976564087E+02  0.10790574335E+02  0.97104206297E+02  0.92983989113E+02 0.  0.
         11    1    3    3    0    0  0.15646904910E+02  0.53333483294E+02  0.53462507259E+01  0.55837876667E+02  0.51100000000E-03 0. -1.
         22    1    1    0    0    0 -0.22324357531E+02 -0.12976564087E+02 -0.10790574335E+02  0.27985793703E+02  0.00000000000E+00 0. -1.
</event>
<event>
 5    1  0.1055265E-009  0.9118800E+02  0.7815553E-02  0.1125453E+00
         25   -1    0    0    0    0  0.00000000000E+00  0.00000000000E+00  0.99999998245E-14  0.12509000000E+03  0.12509000000E+03 0.  0.
        -11    1    3    3    0    0 -0.42301455396E+01  0.29655476326E+02  0.30845705266E+02  0.42997662041E+02  0.51100000000E-03 0. -1.
         23    2    1    0    0    0 -0.26720781783E+02 -0.10579933275E+02  0.47667985218E+01  0.95958272702E+02  0.91429385674E+02 0.  0.
         11    1    3    3    0    0 -0.22490636244E+02 -0.40235409600E+02 -0.26078906744E+02  0.52960610661E+02  0.51100000000E-03 0.  1.
         22    1    1    0    0    0  0.26720781783E+02  0.10579933275E+02 -0.47667985218E+01  0.29131727298E+02  0.00000000000E+00 0. -1.
</event>
<event>
 5    1  0.1055265E-009  0.9118800E+02  0.7815553E-02  0.1125453E+00
         25   -1    0    0    0    0  0.00000000000E+00  0.00000000000E+00  0.99999998245E-14  0.12509000000E+03  0.12509000000E+03 0.  0.
        -11    1    3    3    0    0 -0.29413863525E+02 -0.84511562123E+01  0.41814572244E+02  0.51817524651E+02  0.51100000000E-03 0. -1.
         23    2    1    0    0    0 -0.47893198768E+01  0.20819420908E+02  0.19861015190E+02  0.95920738847E+02  0.91378018936E+02 0.  0.
         11    1    3    3    0    0  0.24624543648E+02  0.29270577121E+02 -0.21953557054E+02  0.44103214196E+02  0.51100000000E-03 0.  1.
         22    1    1    0    0    0  0.47893198768E+01 -0.20819420908E+02 -0.19861015190E+02  0.29169261153E+02  0.00000000000E+00 0. -1.
</event>
<event>
 5    1  0.1055265E-009  0.9118800E+02  0.7815553E-02  0.1125453E+00
         25   -1    0    0    0    0  0.00000000000E+00  0.00000000000E+00  0.99999998245E-14  0.12509000000E+03  0.12509000000E+03 0.  0.
        -11    1    3    3    0    0  0.43783024001E+02  0.16980504356E+02 -0.45975264381E+01  0.47185039668E+02  0.51100000000E-03 0. -1.
         23    2    1    0    0    0  0.11906120028E+00  0.24301029225E+02  0.15978525119E+02  0.96006199321E+02  0.91494933445E+02 0.  0.
         11    1    3    3    0    0 -0.43663962801E+02  0.73205248692E+01  0.20576051557E+02  0.48821159652E+02  0.51100000000E-03 0.  1.
         22    1    1    0    0    0 -0.11906120028E+00 -0.24301029225E+02 -0.15978525119E+02  0.29083800679E+02  0.00000000000E+00 0. -1.
</event>
<event>
 5    1  0.1055265E-009  0.9118800E+02  0.7815553E-02  0.1125453E+00
         25   -1    0    0    0    0  0.00000000000E+00  0.00000000000E+00  0.99999998245E-14  0.12509000000E+03  0.12509000000E+03 0.  0.
        -11    1    3    3    0    0 -0.35696289573E+02 -0.19385589150E+01  0.24700422064E+02  0.43452203056E+02  0.51100000000E-03 0.  1.
         23    2    1    0    0    0  0.15342725383E+02  0.33997339657E+01  0.25913288735E+02  0.94783961884E+02  0.89808370902E+02 0.  0.
         11    1    3    3    0    0  0.51039014956E+02  0.53382928807E+01  0.12128666711E+01  0.51331758828E+02  0.51100000000E-03 0. -1.
         22    1    1    0    0    0 -0.15342725383E+02 -0.33997339657E+01 -0.25913288735E+02  0.30306038116E+02  0.00000000000E+00 0. -1.
</event>
<event>
 5    1  0.1055265E-009  0.9118800E+02  0.7815553E-02  0.1125453E+00
         25   -1    0    0    0    0  0.00000000000E+00  0.00000000000E+00  0.99999998245E-14  0.12509000000E+03  0.12509000000E+03 0.  0.
        -11    1    3    3    0    0 -0.46191280401E+00  0.23357845207E+01 -0.59098098554E+02  0.59146043872E+02  0.51100000000E-03 0. -1.
         23    2    1    0    0    0 -0.14269279081E+02 -0.22551371517E+01 -0.25051816691E+02  0.96171295178E+02  0.91720371388E+02 0.  0.
         11    1    3    3    0    0 -0.13807366277E+02 -0.45909216724E+01  0.34046281863E+02  0.37025251306E+02  0.51100000000E-03 0.  1.
         22    1    1    0    0    0  0.14269279081E+02  0.22551371517E+01  0.25051816691E+02  0.28918704822E+02  0.00000000000E+00 0. -1.
</event>
<event>
 5    1  0.1055265E-009  0.9118800E+02  0.7815553E-02  0.1125453E+00
         25   -1    0    0    0    0  0.00000000000E+00  0.00000000000E+00  0.99999998245E-14  0.12509000000E+03  0.12509000000E+03 0.  0.
        -11    1    3    3    0    0  0.25755019918E+02  0.11749844601E+02 -0.28406439563E+02  0.40103686963E+02  0.51100000000E-03 0.  1.
         23    2    1    0    0    0 -0.16370566982E+02  0.20394760444E+02  0.93365257402E+01  0.97321088790E+02  0.93275301626E+02 0.  0.
         11    1    3    3    0    0 -0.42125586900E+02  0.86449158430E+01  0.37742965304E+02  0.57217401827E+02  0.51100000000E-03 0. -1.
         22    1    1    0    0    0  0.16370566982E+02 -0.20394760444E+02 -0.93365257402E+01  0.27768911210E+02  0.00000000000E+00 0. -1.
</event>
<event>
 5    1  0.1055265E-009  0.9118800E+02  0.7815553E-02  0.1125453E+00
         25   -1    0    0    0    0  0.00000000000E+00  0.00000000000E+00  0.99999998245E-14  0.12509000000E+03  0.12509000000E+03 0.  0.
        -11    1    3    3    0    0 -0.29469326803E+02 -0.18531273264E+01  0.96373847749E+01  0.31060497238E+02  0.51100000000E-03 0. -1.
         23    2    1    0    0    0  0.24691724248E+02 -0.14221371864E+02  0.23312589120E+02  0.88274168140E+02  0.80230438646E+02 0.  0.
         11    1    3    3    0    0  0.54161051052E+02 -0.12368244538E+02  0.13675204345E+02  0.57213670902E+02  0.51100000000E-03 0.  1.
         22    1    1    0    0    0 -0.24691724248E+02  0.14221371864E+02 -0.23312589120E+02  0.36815831860E+02  0.00000000000E+00 0.  1.
</event>
<event>
 5    1  0.1055265E-009  0.9118800E+02  0.7815553E-02  0.1125453E+00
         25   -1    0    0    0    0  0.00000000000E+00  0.00000000000E+00  0.99999998245E-14  0.12509000000E+03  0.12509000000E+03 0.  0.
        -11    1    3    3    0    0 -0.18885448225E+02  0.11703649538E+02 -0.26588442409E+02  0.34649398800E+02  0.51100000000E-03 0.  1.
         23    2    1    0    0    0  0.25532201967E+00 -0.18554348622E+02  0.22826964842E+02  0.95672329017E+02  0.91037328462E+02 0.  0.
         11    1    3    3    0    0  0.19140770244E+02 -0.30257998161E+02  0.49415407252E+02  0.61022930218E+02  0.51100000000E-03 0. -1.
         22    1    1    0    0    0 -0.25532201967E+00  0.18554348622E+02 -0.22826964842E+02  0.29417670983E+02  0.00000000000E+00 0. -1.
</event>
<event>
 5    1  0.1055265E-009  0.9118800E+02  0.7815553E-02  0.1125453E+00
         25   -1    0    0    0    0  0.00000000000E+00  0.00000000000E+00  0.99999998245E-14  0.12509000000E+03  0.12509000000E+03 0.  0.
        -11    1    3    3    0    0 -0.21238464930E+02  0.43961610485E+02  0.24343660053E+02  0.54555562265E+02  0.51100000000E-03 0.  1.
         23    2    1    0    0    0 -0.20456633615E+02  0.33066479876E+01  0.21364101528E+02  0.95327059724E+02  0.90561667950E+02 0.  0.
         11    1    3    3    0    0  0.78183131467E+00 -0.40654962497E+02 -0.29795585253E+01  0.40771497460E+02  0.51100000000E-03 0. -1.
         22    1    1    0    0    0  0.20456633615E+02 -0.33066479876E+01 -0.21364101528E+02  0.29762940276E+02  0.00000000000E+00 0.  1.
</event>
<event>
 5    1  0.1055265E-009  0.9118800E+02  0.7815553E-02  0.1125453E+00
         25   -1    0    0    0    0  0.00000000000E+00  0.00000000000E+00  0.99999998245E-14  0.12509000000E+03  0.12509000000E+03 0.  0.
        -11    1    3    3    0    0  0.15390617720E+02  0.24730141131E+01  0.41077060951E+02  0.43935314375E+02  0.51100000000E-03 0.  1.
         23    2    1    0    0    0  0.36817845886E+01 -0.28342576067E+02  0.12223534000E+00  0.96509025605E+02  0.92179823855E+02 0.  0.
         11    1    3    3    0    0 -0.11708833131E+02 -0.30815590180E+02 -0.40954825611E+02  0.52573711230E+02  0.51100000000E-03 0. -1.
         22    1    1    0    0    0 -0.36817845886E+01  0.28342576067E+02 -0.12223534000E+00  0.28580974395E+02  0.00000000000E+00 0. -1.
</event>
<event>
 5    1  0.1055265E-009  0.9118800E+02  0.7815553E-02  0.1125453E+00
         25   -1    0    0    0    0  0.00000000000E+00  0.00000000000E+00  0.99999998245E-14  0.12509000000E+03  0.12509000000E+03 0.  0.
        -11    1    3    3    0    0 -0.17189926973E+02 -0.36579471079E+02 -0.13816744679E+02  0.42713624612E+02  0.51100000000E-03 0.  1.
         23    2    1    0    0    0  0.86434126168E+01 -0.12372536657E+02  0.25398761412E+02  0.95545367217E+02  0.90862708909E+02 0.  0.
         11    1    3    3    0    0  0.25833339590E+02  0.24206934422E+02  0.39215506091E+02  0.52831742605E+02  0.51100000000E-03 0. -1.
         22    1    1    0    0    0 -0.86434126168E+01  0.12372536657E+02 -0.25398761412E+02  0.29544632783E+02  0.00000000000E+00 0. -1.
</event>
<event>
 5    1  0.1055265E-009  0.9118800E+02  0.7815553E-02  0.1125453E+00
         25   -1    0    0    0    0  0.00000000000E+00  0.00000000000E+00  0.99999998245E-14  0.12509000000E+03  0.12509000000E+03 0.  0.
        -11    1    3    3    0    0  0.28652769207E+02 -0.42511218382E+02 -0.22256251960E+02  0.55888510654E+02  0.51100000000E-03 0. -1.
         23    2    1    0    0    0  0.82598682049E+01 -0.26879109643E+02  0.82605017026E+01  0.95782187964E+02  0.91188155398E+02 0.  0.
         11    1    3    3    0    0 -0.20392901003E+02  0.15632108740E+02  0.30516753662E+02  0.39893677310E+02  0.51100000000E-03 0.  1.
         22    1    1    0    0    0 -0.82598682049E+01  0.26879109643E+02 -0.82605017026E+01  0.29307812036E+02  0.00000000000E+00 0. -1.
</event>
<event>
 5    1  0.1055265E-009  0.9118800E+02  0.7815553E-02  0.1125453E+00
         25   -1    0    0    0    0  0.00000000000E+00  0.00000000000E+00  0.99999998245E-14  0.12509000000E+03  0.12509000000E+03 0.  0.
        -11    1    3    3    0    0 -0.12207549923E+02  0.46348476346E+02  0.34532048901E+02  0.59073411415E+02  0.51100000000E-03 0.  1.
         23    2    1    0    0    0  0.45813821006E+01  0.28034913619E+02  0.76645220485E+01  0.95667383838E+02  0.91030533276E+02 0.  0.
         11    1    3    3    0    0  0.16788932023E+02 -0.18313562727E+02 -0.26867526852E+02  0.36593972422E+02  0.51100000000E-03 0. -1.
         22    1    1    0    0    0 -0.45813821006E+01 -0.28034913619E+02 -0.76645220485E+01  0.29422616162E+02  0.00000000000E+00 0.  1.
</event>
<event>
 5    1  0.1055265E-009  0.9118800E+02  0.7815553E-02  0.1125453E+00
         25   -1    0    0    0    0  0.00000000000E+00  0.00000000000E+00  0.99999998245E-14  0.12509000000E+03  0.12509000000E+03 0.  0.
        -11    1    3    3    0    0  0.47973159583E+02  0.35826828949E+02 -0.13683316452E+02  0.61418391889E+02  0.51100000000E-03 0.  1.
         23    2    1    0    0    0  0.21216995760E+02  0.23273161758E+02 -0.99586732319E+00  0.93581386590E+02  0.88117439801E+02 0.  0.
         11    1    3    3    0    0 -0.26756163823E+02 -0.12553667191E+02  0.12687449129E+02  0.32162994700E+02  0.51100000000E-03 0. -1.
         22    1    1    0    0    0 -0.21216995760E+02 -0.23273161758E+02  0.99586732319E+00  0.31508613410E+02  0.00000000000E+00 0.  1.
</event>
<event>
 5    1  0.1055265E-009  0.9118800E+02  0.7815553E-02  0.1125453E+00
         25   -1    0    0    0    0  0.00000000000E+00  0.00000000000E+00  0.99999998245E-14  0.12509000000E+03  0.12509000000E+03 0.  0.
        -11    1    3    3    0    0 -0.65052898115E+01 -0.31637645709E+02 -0.43297124330E+02  0.54017593403E+02  0.51100000000E-03 0. -1.
         23    2    1    0    0    0  0.19843691999E+02 -0.14379918694E+02 -0.15012457765E+02  0.96351035823E+02  0.91965178422E+02 0.  0.
         11    1    3    3    0    0  0.26348981811E+02  0.17257727015E+02  0.28284666565E+02  0.42333442420E+02  0.51100000000E-03 0.  1.
         22    1    1    0    0    0 -0.19843691999E+02  0.14379918694E+02  0.15012457765E+02  0.28738964177E+02  0.00000000000E+00 0. -1.
</event>
<event>
 5    1  0.1055265E-009  0.9118800E+02  0.7815553E-02  0.1125453E+00
         25   -1    0    0    0    0  0.00000000000E+00  0.00000000000E+00  0.99999998245E-14  0.12509000000E+03  0.12509000000E+03 0.  0.
        -11    1    3    3    0    0  0.20382828112E+02  0.11113744524E+02  0.50063069787E+02  0.55184109633E+02  0.51100000000E-03 0.  1.
         23    2    1    0    0    0  0.20894201288E+02 -0.11020851651E+02  0.13629572233E+02  0.97817448637E+02  0.93938603354E+02 0.  0.
         11    1    3    3    0    0  0.51137317565E+00 -0.22134596176E+02 -0.36433497554E+02  0.42633339005E+02  0.51100000000E-03 0. -1.
         22    1    1    0    0    0 -0.20894201288E+02  0.11020851651E+02 -0.13629572233E+02  0.27272551363E+02  0.00000000000E+00 0.  1.
</event>
<event>
 5    1  0.1055265E-009  0.9118800E+02  0.7815553E-02  0.1125453E+00
         25   -1    0    0    0    0  0.00000000000E+00  0.00000000000E+00  0.99999998245E-14  0.12509000000E+03  0.12509000000E+03 0.  0.
        -11    1    3    3    0    0  0.42102585675E+02  0.28458684261E+01  0.41394810625E+01  0.42401202712E+02  0.51100000000E-03 0. -1.
         23    2    1    0    0    0  0.79629954526E+00 -0.29875663559E+02  0.11907524724E+01  0.95180014084E+02  0.90358330128E+02 0.  0.
         11    1    3    3    0    0 -0.41306286130E+02 -0.32721531985E+02 -0.29487285902E+01  0.52778811372E+02  0.51100000000E-03 0.  1.
         22    1    1    0    0    0 -0.79629954526E+00  0.29875663559E+02 -0.11907524724E+01  0.29909985916E+02  0.00000000000E+00 0.  1.
</event>
<event>
 5    1  0.1055265E-009  0.9118800E+02  0.7815553E-02  0.1125453E+00
         25   -1    0    0    0    0  0.00000000000E+00  0.00000000000E+00  0.99999998245E-14  0.12509000000E+03  0.12509000000E+03 0.  0.
        -11    1    3    3    0    0 -0.12564031930E+02  0.24251635243E+01  0.36545214366E+02  0.38720653530E+02  0.51100000000E-03 0. -1.
         23    2    1    0    0    0  0.29886507618E+02 -0.13052500778E+01 -0.47773357343E+00  0.95171189115E+02  0.90346112218E+02 0.  0.
         11    1    3    3    0    0  0.42450539548E+02 -0.37304136021E+01 -0.37022947939E+02  0.56450535586E+02  0.51100000000E-03 0.  1.
         22    1    1    0    0    0 -0.29886507618E+02  0.13052500778E+01  0.47773357343E+00  0.29918810885E+02  0.00000000000E+00 0.  1.
</event>
<event>
 5    1  0.1055265E-009  0.9118800E+02  0.7815553E-02  0.1125453E+00
         25   -1    0    0    0    0  0.00000000000E+00  0.00000000000E+00  0.99999998245E-14  0.12509000000E+03  0.12509000000E+03 0.  0.
        -11    1    3    3    0    0 -0.20117216415E+02  0.24972111977E+02  0.16464218994E+02  0.36046903893E+02  0.51100000000E-03 0.  1.
         23    2    1    0    0    0  0.11613502772E+02 -0.12820797927E+00 -0.27164039179E+02  0.95547235938E+02  0.90865281527E+02 0.  0.
         11    1    3    3    0    0  0.31730719187E+02 -0.25100319957E+02 -0.43628258173E+02  0.59500332045E+02  0.51100000000E-03 0. -1.
         22    1    1    0    0    0 -0.11613502772E+02  0.12820797927E+00  0.27164039179E+02  0.29542764062E+02  0.00000000000E+00 0. -1.
</event>
<event>
 5    1  0.1055265E-009  0.9118800E+02  0.7815553E-02  0.1125453E+00
         25   -1    0    0    0    0  0.00000000000E+00  0.00000000000E+00  0.99999998245E-14  0.12509000000E+03  0.12509000000E+03 0.  0.
        -11    1    3    3    0    0 -0.29726765592E+02  0.24923742011E+02 -0.70792452890E+01  0.39433351652E+02  0.51100000000E-03 0.  1.
         23    2    1    0    0    0 -0.11700737167E+02 -0.24756158759E+02  0.11413442915E+02  0.95424509512E+02  0.90696172409E+02 0.  0.
         11    1    3    3    0    0  0.18026028425E+02 -0.49679900770E+02  0.18492688204E+02  0.55991157860E+02  0.51100000000E-03 0. -1.
         22    1    1    0    0    0  0.11700737167E+02  0.24756158759E+02 -0.11413442915E+02  0.29665490488E+02  0.00000000000E+00 0. -1.
</event>
<event>
 5    1  0.1055265E-009  0.9118800E+02  0.7815553E-02  0.1125453E+00
         25   -1    0    0    0    0  0.00000000000E+00  0.00000000000E+00  0.99999998245E-14  0.12509000000E+03  0.12509000000E+03 0.  0.
        -11    1    3    3    0    0  0.12308189562E+02  0.49901485081E+02 -0.21310431328E+02  0.55639771991E+02  0.51100000000E-03 0.  1.
         23    2    1    0    0    0  0.14849301145E+02  0.11000617814E+02 -0.24096489466E+02  0.94722976087E+02  0.89723386346E+02 0.  0.
         11    1    3    3    0    0  0.25411115827E+01 -0.38900867266E+02 -0.27860581377E+01  0.39083204095E+02  0.51100000000E-03 0. -1.
         22    1    1    0    0    0 -0.14849301145E+02 -0.11000617814E+02  0.24096489466E+02  0.30367023913E+02  0.00000000000E+00 0. -1.
</event>
<event>
 5    1  0.1055265E-009  0.9118800E+02  0.7815553E-02  0.1125453E+00
         25   -1    0    0    0    0  0.00000000000E+00  0.00000000000E+00  0.99999998245E-14  0.12509000000E+03  0.12509000000E+03 0.  0.
        -11    1    3    3    0    0  0.50098555997E+01  0.14410535176E+02 -0.44394434755E+02  0.46942816433E+02  0.51100000000E-03 0. -1.
         23    2    1    0    0    0 -0.25421196638E+02 -0.69056445979E+01 -0.12396426642E+02  0.95976488372E+02  0.91454304223E+02 0.  0.
         11    1    3    3    0    0 -0.30431052238E+02 -0.21316179774E+02  0.31998008112E+02  0.49033671939E+02  0.51100000000E-03 0.  1.
         22    1    1    0    0    0  0.25421196638E+02  0.69056445979E+01  0.12396426642E+02  0.29113511628E+02  0.00000000000E+00 0. -1.
</event>
<event>
 5    1  0.1055265E-009  0.9118800E+02  0.7815553E-02  0.1125453E+00
         25   -1    0    0    0    0  0.00000000000E+00  0.00000000000E+00  0.99999998245E-14  0.12509000000E+03  0.12509000000E+03 0.  0.
        -11    1    3    3    0    0 -0.28025085390E+02 -0.24979643842E+02 -0.22501024035E+02  0.43768528653E+02  0.51100000000E-03 0.  1.
         23    2    1    0    0    0 -0.21204898873E+02  0.19850579682E+02  0.31606755816E+01  0.95872143814E+02  0.91311471566E+02 0.  0.
         11    1    3    3    0    0  0.68201865162E+01  0.44830223524E+02  0.25661699617E+02  0.52103615161E+02  0.51100000000E-03 0. -1.
         22    1    1    0    0    0  0.21204898873E+02 -0.19850579682E+02 -0.31606755816E+01  0.29217856186E+02  0.00000000000E+00 0. -1.
</event>
<event>
 5    1  0.1055265E-009  0.9118800E+02  0.7815553E-02  0.1125453E+00
         25   -1    0    0    0    0  0.00000000000E+00  0.00000000000E+00  0.99999998245E-14  0.12509000000E+03  0.12509000000E+03 0.  0.
        -11    1    3    3    0    0 -0.10812366697E+02  0.15001637934E+02  0.26045584268E+02  0.31942587159E+02  0.51100000000E-03 0.  1.
         23    2    1    0    0    0  0.25011022011E+02 -0.92568743718E+01 -0.17392687884E+02  0.93250613433E+02  0.87646622117E+02 0.  0.
         11    1    3    3    0    0  0.35823388708E+02 -0.24258512305E+02 -0.43438272152E+02  0.61308026274E+02  0.51100000000E-03 0. -1.
         22    1    1    0    0    0 -0.25011022011E+02  0.92568743718E+01  0.17392687884E+02  0.31839386567E+02  0.00000000000E+00 0. -1.
</event>
<event>
 5    1  0.1055265E-009  0.9118800E+02  0.7815553E-02  0.1125453E+00
         25   -1    0    0    0    0  0.00000000000E+00  0.00000000000E+00  0.99999998245E-14  0.12509000000E+03  0.12509000000E+03 0.  0.
        -11    1    3    3    0    0 -0.36240455924E+02  0.20337089011E+02 -0.14613025758E+02  0.44051201540E+02  0.51100000000E-03 0. -1.
         23    2    1    0    0    0  0.91711685091E+01  0.25953241908E+02  0.97471594672E+01  0.95889174412E+02  0.91334799252E+02 0.  0.
         11    1    3    3    0    0  0.45411624434E+02  0.56161528969E+01  0.24360185225E+02  0.51837972872E+02  0.51100000000E-03 0.  1.
         22    1    1    0    0    0 -0.91711685091E+01 -0.25953241908E+02 -0.97471594672E+01  0.29200825588E+02  0.00000000000E+00 0.  1.
</event>
<event>
 5    1  0.1055265E-009  0.9118800E+02  0.7815553E-02  0.1125453E+00
         25   -1    0    0    0    0  0.00000000000E+00  0.00000000000E+00  0.99999998245E-14  0.12509000000E+03  0.12509000000E+03 0.  0.
        -11    1    3    3    0    0  0.39990657417E+02  0.15744269336E+02  0.23666387992E+02  0.49063556928E+02  0.51100000000E-03 0.  1.
         23    2    1    0    0    0  0.27243731195E+01  0.24207811125E+02 -0.87802949877E+01  0.99195330502E+02  0.95755833686E+02 0.  0.
         11    1    3    3    0    0 -0.37266284298E+02  0.84635417892E+01 -0.32446682980E+02  0.50131773574E+02  0.51100000000E-03 0. -1.
         22    1    1    0    0    0 -0.27243731195E+01 -0.24207811125E+02  0.87802949877E+01  0.25894669498E+02  0.00000000000E+00 0. -1.
</event>
<event>
 5    1  0.1055265E-009  0.9118800E+02  0.7815553E-02  0.1125453E+00
         25   -1    0    0    0    0  0.00000000000E+00  0.00000000000E+00  0.99999998245E-14  0.12509000000E+03  0.12509000000E+03 0.  0.
        -11    1    3    3    0    0 -0.48612214552E+02  0.32268864310E+02 -0.79300368237E+01  0.58883889917E+02  0.51100000000E-03 0. -1.
         23    2    1    0    0    0 -0.22650905911E+02  0.15069700482E+02  0.11460312796E+02  0.95568851977E+02  0.90895034450E+02 0.  0.
         11    1    3    3    0    0  0.25961308641E+02 -0.17199163827E+02  0.19390349620E+02  0.36684962060E+02  0.51100000000E-03 0.  1.
         22    1    1    0    0    0  0.22650905911E+02 -0.15069700482E+02 -0.11460312796E+02  0.29521148023E+02  0.00000000000E+00 0. -1.
</event>
<event>
 5    1  0.1055265E-009  0.9118800E+02  0.7815553E-02  0.1125453E+00
         25   -1    0    0    0    0  0.00000000000E+00  0.00000000000E+00  0.99999998245E-14  0.12509000000E+03  0.12509000000E+03 0.  0.
        -11    1    3    3    0    0 -0.37309415715E+02  0.22968596900E+02  0.41867738025E+02  0.60600795639E+02  0.51100000000E-03 0.  1.
         23    2    1    0    0    0 -0.20449365311E+02  0.18049355925E+02  0.11909357748E+02  0.95327799260E+02  0.90562689441E+02 0.  0.
         11    1    3    3    0    0  0.16860050403E+02 -0.49192409757E+01 -0.29958380277E+02  0.34727003621E+02  0.51100000000E-03 0. -1.
         22    1    1    0    0    0  0.20449365311E+02 -0.18049355925E+02 -0.11909357748E+02  0.29762200740E+02  0.00000000000E+00 0.  1.
</event>
<event>
 5    1  0.1055265E-009  0.9118800E+02  0.7815553E-02  0.1125453E+00
         25   -1    0    0    0    0  0.00000000000E+00  0.00000000000E+00  0.99999998245E-14  0.12509000000E+03  0.12509000000E+03 0.  0.
        -11    1    3    3    0    0  0.63554060171E+01 -0.12597187450E+02 -0.34851769051E+02  0.37599549512E+02  0.51100000000E-03 0. -1.
         23    2    1    0    0    0  0.64381831512E+01  0.19071300083E+02  0.17256769577E+02  0.98576592347E+02  0.94944108681E+02 0.  0.
         11    1    3    3    0    0  0.82777134176E-01  0.31668487533E+02  0.52108538628E+02  0.60977042835E+02  0.51100000000E-03 0.  1.
         22    1    1    0    0    0 -0.64381831512E+01 -0.19071300083E+02 -0.17256769577E+02  0.26513407653E+02  0.00000000000E+00 0.  1.
</event>
<event>
 5    1  0.1055265E-009  0.9118800E+02  0.7815553E-02  0.1125453E+00
         25   -1    0    0    0    0  0.00000000000E+00  0.00000000000E+00  0.99999998245E-14  0.12509000000E+03  0.12509000000E+03 0.  0.
        -11    1    3    3    0    0  0.15946540117E+02 -0.19421893307E+01 -0.32420511679E+02  0.36182230706E+02  0.51100000000E-03 0. -1.
         23    2    1    0    0    0 -0.45966346203E+01  0.22446604053E+02  0.18076942706E+02  0.95905159056E+02  0.91356688822E+02 0.  0.
         11    1    3    3    0    0 -0.20543174737E+02  0.24388793384E+02  0.50497454385E+02  0.59722928349E+02  0.51100000000E-03 0.  1.
         22    1    1    0    0    0  0.45966346203E+01 -0.22446604053E+02 -0.18076942706E+02  0.29184840944E+02  0.00000000000E+00 0.  1.
</event>
<event>
 5    1  0.1055265E-009  0.9118800E+02  0.7815553E-02  0.1125453E+00
         25   -1    0    0    0    0  0.00000000000E+00  0.00000000000E+00  0.99999998245E-14  0.12509000000E+03  0.12509000000E+03 0.  0.
        -11    1    3    3    0    0  0.43555027741E+00 -0.24339963694E+02  0.32473892098E+02  0.40585430945E+02  0.51100000000E-03 0.  1.
         23    2    1    0    0    0  0.18341048449E+02  0.20140606866E+02  0.22948376501E+02  0.89471660803E+02  0.82076257223E+02 0.  0.
         11    1    3    3    0    0  0.17905498172E+02  0.44480570560E+02 -0.95255155977E+01  0.48886229859E+02  0.51100000000E-03 0. -1.
         22    1    1    0    0    0 -0.18341048449E+02 -0.20140606866E+02 -0.22948376501E+02  0.35618339197E+02  0.00000000000E+00 0. -1.
</event>
<event>
 5    1  0.1055265E-009  0.9118800E+02  0.7815553E-02  0.1125453E+00
         25   -1    0    0    0    0  0.00000000000E+00  0.00000000000E+00  0.99999998245E-14  0.12509000000E+03  0.12509000000E+03 0.  0.
        -11    1    3    3    0    0  0.23106170004E+02  0.26232244898E+02 -0.55016133445E+01  0.35387759385E+02  0.51100000000E-03 0.  1.
         23    2    1    0    0    0 -0.11320032480E+02 -0.21741692767E+02 -0.16621719723E+02  0.95473688510E+02  0.90763975736E+02 0.  0.
         11    1    3    3    0    0 -0.34426202484E+02 -0.47973937665E+02 -0.11120106379E+02  0.60085929124E+02  0.51100000000E-03 0. -1.
         22    1    1    0    0    0  0.11320032480E+02  0.21741692767E+02  0.16621719723E+02  0.29616311490E+02  0.00000000000E+00 0. -1.
</event>
<event>
 5    1  0.1055265E-009  0.9118800E+02  0.7815553E-02  0.1125453E+00
         25   -1    0    0    0    0  0.00000000000E+00  0.00000000000E+00  0.99999998245E-14  0.12509000000E+03  0.12509000000E+03 0.  0.
        -11    1    3    3    0    0 -0.35764473095E+01  0.28220839885E+00  0.34952267034E+02  0.35135901696E+02  0.51100000000E-03 0. -1.
         23    2    1    0    0    0 -0.21344393294E+02  0.64242146628E+01 -0.21185643402E+02  0.94338005829E+02  0.89185055914E+02 0.  0.
         11    1    3    3    0    0 -0.17767945985E+02  0.61420062639E+01 -0.56137910435E+02  0.59202104133E+02  0.51100000000E-03 0.  1.
         22    1    1    0    0    0  0.21344393294E+02 -0.64242146628E+01  0.21185643402E+02  0.30751994171E+02  0.00000000000E+00 0.  1.
</event>
<event>
 5    1  0.1055265E-009  0.9118800E+02  0.7815553E-02  0.1125453E+00
         25   -1    0    0    0    0  0.00000000000E+00  0.00000000000E+00  0.99999998245E-14  0.12509000000E+03  0.12509000000E+03 0.  0.
        -11    1    3    3    0    0  0.35365799630E+02 -0.11344979404E+02 -0.12786746651E+02  0.39280392454E+02  0.51100000000E-03 0.  1.
         23    2    1    0    0    0 -0.47174696990E+01  0.25729604249E+02  0.80490213801E+01  0.97721152740E+02  0.93810286710E+02 0.  0.
         11    1    3    3    0    0 -0.40083269329E+02  0.37074583653E+02  0.20835768031E+02  0.58440760286E+02  0.51100000000E-03 0. -1.
         22    1    1    0    0    0  0.47174696990E+01 -0.25729604249E+02 -0.80490213801E+01  0.27368847260E+02  0.00000000000E+00 0. -1.
</event>
<event>
 5    1  0.1055265E-009  0.9118800E+02  0.7815553E-02  0.1125453E+00
         25   -1    0    0    0    0  0.00000000000E+00  0.00000000000E+00  0.99999998245E-14  0.12509000000E+03  0.12509000000E+03 0.  0.
        -11    1    3    3    0    0 -0.19382991641E+02 -0.50398772662E+02 -0.87333676978E+01  0.54699253764E+02  0.51100000000E-03 0. -1.
         23    2    1    0    0    0  0.94977226986E+01 -0.24936263615E+02  0.87816797908E+01  0.96998330781E+02  0.92841447074E+02 0.  0.
         11    1    3    3    0    0  0.28880714339E+02  0.25462509047E+02  0.17515047489E+02  0.42299077017E+02  0.51100000000E-03 0.  1.
         22    1    1    0    0    0 -0.94977226986E+01  0.24936263615E+02 -0.87816797908E+01  0.28091669219E+02  0.00000000000E+00 0. -1.
</event>
<event>
 5    1  0.1055265E-009  0.9118800E+02  0.7815553E-02  0.1125453E+00
         25   -1    0    0    0    0  0.00000000000E+00  0.00000000000E+00  0.99999998245E-14  0.12509000000E+03  0.12509000000E+03 0.  0.
        -11    1    3    3    0    0 -0.95559363162E+00 -0.34784414996E+02 -0.48745569145E+02  0.59891561988E+02  0.51100000000E-03 0. -1.
         23    2    1    0    0    0 -0.10542862540E+02 -0.21686862374E+02 -0.16872825118E+02  0.95659332702E+02  0.91019469100E+02 0.  0.
         11    1    3    3    0    0 -0.95872689080E+01  0.13097552622E+02  0.31872744027E+02  0.35767770714E+02  0.51100000000E-03 0.  1.
         22    1    1    0    0    0  0.10542862540E+02  0.21686862374E+02  0.16872825118E+02  0.29430667298E+02  0.00000000000E+00 0. -1.
</event>
<event>
 5    1  0.1055265E-009  0.9118800E+02  0.7815553E-02  0.1125453E+00
         25   -1    0    0    0    0  0.00000000000E+00  0.00000000000E+00  0.99999998245E-14  0.12509000000E+03  0.12509000000E+03 0.  0.
        -11    1    3    3    0    0  0.53215863471E+02  0.15349928779E+02  0.12731245150E+02  0.56829860477E+02  0.51100000000E-03 0. -1.
         23    2    1    0    0    0  0.23830161024E+02  0.10618771898E+02 -0.12787318849E+02  0.96035733284E+02  0.91535302769E+02 0.  0.
         11    1    3    3    0    0 -0.29385702447E+02 -0.47311568816E+01 -0.25518563999E+02  0.39205872807E+02  0.51100000000E-03 0.  1.
         22    1    1    0    0    0 -0.23830161024E+02 -0.10618771898E+02  0.12787318849E+02  0.29054266716E+02  0.00000000000E+00 0. -1.
</event>
<event>
 5    1  0.1055265E-009  0.9118800E+02  0.7815553E-02  0.1125453E+00
         25   -1    0    0    0    0  0.00000000000E+00  0.00000000000E+00  0.99999998245E-14  0.12509000000E+03  0.12509000000E+03 0.  0.
        -11    1    3    3    0    0 -0.14110683348E+02 -0.31546263600E+02 -0.28391291088E+02  0.44725200296E+02  0.51100000000E-03 0. -1.
         23    2    1    0    0    0  0.12886724129E+02  0.11401273463E+02 -0.23884467157E+02  0.95653212357E+02  0.91011057391E+02 0.  0.
         11    1    3    3    0    0  0.26997407477E+02  0.42947537063E+02  0.45068239307E+01  0.50928012061E+02  0.51100000000E-03 0.  1.
         22    1    1    0    0    0 -0.12886724129E+02 -0.11401273463E+02  0.23884467157E+02  0.29436787643E+02  0.00000000000E+00 0.  1.
</event>
<event>
 5    1  0.1055265E-009  0.9118800E+02  0.7815553E-02  0.1125453E+00
         25   -1    0    0    0    0  0.00000000000E+00  0.00000000000E+00  0.99999998245E-14  0.12509000000E+03  0.12509000000E+03 0.  0.
        -11    1    3    3    0    0 -0.18836242861E+02  0.30915799211E+02 -0.54879686067E+01  0.36615686334E+02  0.51100000000E-03 0.  1.
         23    2    1    0    0    0  0.20073230966E+02 -0.43574838445E+01  0.21238720576E+02  0.95543333207E+02  0.90859908660E+02 0.  0.
         11    1    3    3    0    0  0.38909473827E+02 -0.35273283056E+02  0.26726689183E+02  0.58927646873E+02  0.51100000000E-03 0. -1.
         22    1    1    0    0    0 -0.20073230966E+02  0.43574838445E+01 -0.21238720576E+02  0.29546666793E+02  0.00000000000E+00 0. -1.
</event>
<event>
 5    1  0.1055265E-009  0.9118800E+02  0.7815553E-02  0.1125453E+00
         25   -1    0    0    0    0  0.00000000000E+00  0.00000000000E+00  0.99999998245E-14  0.12509000000E+03  0.12509000000E+03 0.  0.
        -11    1    3    3    0    0  0.38797081976E+02  0.93257450697E+01  0.14314519893E+02  0.42392081466E+02  0.51100000000E-03 0.  1.
         23    2    1    0    0    0  0.24320804898E+01  0.10253300631E+01 -0.26946896595E+02  0.98014151845E+02  0.94200172019E+02 0.  0.
         11    1    3    3    0    0 -0.36365001487E+02 -0.83004150065E+01 -0.41261416488E+02  0.55622070379E+02  0.51100000000E-03 0. -1.
         22    1    1    0    0    0 -0.24320804898E+01 -0.10253300631E+01  0.26946896595E+02  0.27075848155E+02  0.00000000000E+00 0. -1.
</event>
<event>
 5    1  0.1055265E-009  0.9118800E+02  0.7815553E-02  0.1125453E+00
         25   -1    0    0    0    0  0.00000000000E+00  0.00000000000E+00  0.99999998245E-14  0.12509000000E+03  0.12509000000E+03 0.  0.
        -11    1    3    3    0    0  0.37934529348E+02 -0.43168829893E+02 -0.14524767424E+02  0.59275165628E+02  0.51100000000E-03 0.  1.
         23    2    1    0    0    0  0.19260629137E+02 -0.12841207078E+02 -0.18962139252E+02  0.95166244237E+02  0.90339265456E+02 0.  0.
         11    1    3    3    0    0 -0.18673900211E+02  0.30327622815E+02 -0.44373718281E+01  0.35891078609E+02  0.51100000000E-03 0. -1.
         22    1    1    0    0    0 -0.19260629137E+02  0.12841207078E+02  0.18962139252E+02  0.29923755763E+02  0.00000000000E+00 0.  1.
</event>
<event>
 5    1  0.1055265E-009  0.9118800E+02  0.7815553E-02  0.1125453E+00
         25   -1    0    0    0    0  0.00000000000E+00  0.00000000000E+00  0.99999998245E-14  0.12509000000E+03  0.12509000000E+03 0.  0.
        -11    1    3    3    0    0 -0.17928745702E+02  0.65265734275E+01 -0.26722423582E+02  0.32834798698E+02  0.51100000000E-03 0.  1.
         23    2    1    0    0    0  0.13950092208E+02 -0.65205910502E+01  0.25445017644E+02  0.95348243106E+02  0.90590923167E+02 0.  0.
         11    1    3    3    0    0  0.31878837910E+02 -0.13047164478E+02  0.52167441226E+02  0.62513444408E+02  0.51100000000E-03 0. -1.
         22    1    1    0    0    0 -0.13950092208E+02  0.65205910502E+01 -0.25445017644E+02  0.29741756894E+02  0.00000000000E+00 0. -1.
</event>
<event>
 5    1  0.1055265E-009  0.9118800E+02  0.7815553E-02  0.1125453E+00
         25   -1    0    0    0    0  0.00000000000E+00  0.00000000000E+00  0.99999998245E-14  0.12509000000E+03  0.12509000000E+03 0.  0.
        -11    1    3    3    0    0  0.10920532097E+02  0.11586123499E+02 -0.30688957053E+02  0.34573231904E+02  0.51100000000E-03 0. -1.
         23    2    1    0    0    0 -0.13707631971E+02 -0.31603110600E+02 -0.58555328215E+01  0.90148004658E+02  0.83100660078E+02 0.  0.
         11    1    3    3    0    0 -0.24628164068E+02 -0.43189234099E+02  0.24833424231E+02  0.55574772755E+02  0.51100000000E-03 0.  1.
         22    1    1    0    0    0  0.13707631971E+02  0.31603110600E+02  0.58555328215E+01  0.34941995342E+02  0.00000000000E+00 0.  1.
</event>
<event>
 4    1  0.1055265E-009  0.9118800E+02  0.7815553E-02  0.1125453E+00
         25   -1    0    0    0    0  0.00000000000E+00  0.00000000000E+00  0.99999998245E-14  0.12509000000E+03  0.12509000000E+03 0.  0.
        -11    1    1    0    0    0 -0.15705376549E+02  0.19691143169E+02 -0.11240181375E+01  0.25212365793E+02  0.51100000000E-03 0. -1.
         11    1    1    0    0    0  0.37632394050E+02  0.28001066773E+02 -0.43165860697E+01  0.47105092484E+02  0.51100000000E-03 0.  1.
         22    1    1    0    0    0 -0.21927017501E+02 -0.47692209943E+02  0.54406042071E+01  0.52772541723E+02  0.00000000000E+00 0. -1.
</event>
<event>
 5    1  0.1055265E-009  0.9118800E+02  0.7815553E-02  0.1125453E+00
         25   -1    0    0    0    0  0.00000000000E+00  0.00000000000E+00  0.99999998245E-14  0.12509000000E+03  0.12509000000E+03 0.  0.
        -11    1    3    3    0    0  0.11927912036E+02 -0.57346277706E+02 -0.29660229843E+01  0.58648682380E+02  0.51100000000E-03 0. -1.
         23    2    1    0    0    0 -0.36679317559E+01 -0.25562720653E+02 -0.13977658349E+02  0.95725372580E+02  0.91110183910E+02 0.  0.
         11    1    3    3    0    0 -0.15595843792E+02  0.31783557053E+02 -0.11011635365E+02  0.37076690200E+02  0.51100000000E-03 0.  1.
         22    1    1    0    0    0  0.36679317559E+01  0.25562720653E+02  0.13977658349E+02  0.29364627420E+02  0.00000000000E+00 0. -1.
</event>
<event>
 5    1  0.1055265E-009  0.9118800E+02  0.7815553E-02  0.1125453E+00
         25   -1    0    0    0    0  0.00000000000E+00  0.00000000000E+00  0.99999998245E-14  0.12509000000E+03  0.12509000000E+03 0.  0.
        -11    1    3    3    0    0  0.18600720394E+01  0.20057780356E+02 -0.38269665503E+02  0.43247447540E+02  0.51100000000E-03 0.  1.
         23    2    1    0    0    0  0.49604105073E+01  0.36489860865E+02  0.33614651051E+01  0.88111424230E+02  0.79976296575E+02 0.  0.
         11    1    3    3    0    0  0.31003384679E+01  0.16432080509E+02  0.41631130608E+02  0.44863976690E+02  0.51100000000E-03 0. -1.
         22    1    1    0    0    0 -0.49604105073E+01 -0.36489860865E+02 -0.33614651051E+01  0.36978575770E+02  0.00000000000E+00 0. -1.
</event>
<event>
 5    1  0.1055265E-009  0.9118800E+02  0.7815553E-02  0.1125453E+00
         25   -1    0    0    0    0  0.00000000000E+00  0.00000000000E+00  0.99999998245E-14  0.12509000000E+03  0.12509000000E+03 0.  0.
        -11    1    3    3    0    0 -0.29420114938E+02 -0.17479550094E+01  0.23635659485E+02  0.37778868554E+02  0.51100000000E-03 0.  1.
         23    2    1    0    0    0  0.65232241908E+01  0.20892707514E+02 -0.17617389063E+02  0.96993201633E+02  0.92834536055E+02 0.  0.
         11    1    3    3    0    0  0.35943339129E+02  0.22640662523E+02 -0.41253048548E+02  0.59214333079E+02  0.51100000000E-03 0. -1.
         22    1    1    0    0    0 -0.65232241908E+01 -0.20892707514E+02  0.17617389063E+02  0.28096798367E+02  0.00000000000E+00 0. -1.
</event>
<event>
 5    1  0.1055265E-009  0.9118800E+02  0.7815553E-02  0.1125453E+00
         25   -1    0    0    0    0  0.00000000000E+00  0.00000000000E+00  0.99999998245E-14  0.12509000000E+03  0.12509000000E+03 0.  0.
        -11    1    3    3    0    0 -0.39173658137E+02  0.97492202838E+01  0.18247845603E+02  0.44301316655E+02  0.51100000000E-03 0. -1.
         23    2    1    0    0    0  0.80232038763E+01  0.25849428041E+02  0.14687606195E+02  0.94295674123E+02  0.89125662141E+02 0.  0.
         11    1    3    3    0    0  0.47196862013E+02  0.16100207757E+02 -0.35602394087E+01  0.49994357468E+02  0.51100000000E-03 0.  1.
         22    1    1    0    0    0 -0.80232038763E+01 -0.25849428041E+02 -0.14687606195E+02  0.30794325877E+02  0.00000000000E+00 0.  1.
</event>
<event>
 5    1  0.1055265E-009  0.9118800E+02  0.7815553E-02  0.1125453E+00
         25   -1    0    0    0    0  0.00000000000E+00  0.00000000000E+00  0.99999998245E-14  0.12509000000E+03  0.12509000000E+03 0.  0.
        -11    1    3    3    0    0 -0.23728217094E+02  0.26239189235E+01  0.56562896451E+02  0.61394417435E+02  0.51100000000E-03 0.  1.
         23    2    1    0    0    0 -0.82465909092E+01 -0.64586942291E+01  0.28699439129E+02  0.94538751268E+02  0.89466176246E+02 0.  0.
         11    1    3    3    0    0  0.15481626185E+02 -0.90826131526E+01 -0.27863457322E+02  0.33144333832E+02  0.51100000000E-03 0. -1.
         22    1    1    0    0    0  0.82465909092E+01  0.64586942291E+01 -0.28699439129E+02  0.30551248732E+02  0.00000000000E+00 0.  1.
</event>
<event>
 5    1  0.1055265E-009  0.9118800E+02  0.7815553E-02  0.1125453E+00
         25   -1    0    0    0    0  0.00000000000E+00  0.00000000000E+00  0.99999998245E-14  0.12509000000E+03  0.12509000000E+03 0.  0.
        -11    1    3    3    0    0 -0.34758870510E+02 -0.32846973343E+02  0.23874839050E+02  0.53451947362E+02  0.51100000000E-03 0.  1.
         23    2    1    0    0    0  0.43010175008E+01 -0.17168653074E+02  0.23661204729E+02  0.95541497345E+02  0.90857381130E+02 0.  0.
         11    1    3    3    0    0  0.39059888011E+02  0.15678320269E+02 -0.21363432093E+00  0.42089549983E+02  0.51100000000E-03 0. -1.
         22    1    1    0    0    0 -0.43010175008E+01  0.17168653074E+02 -0.23661204729E+02  0.29548502655E+02  0.00000000000E+00 0.  1.
</event>
<event>
 5    1  0.1055265E-009  0.9118800E+02  0.7815553E-02  0.1125453E+00
         25   -1    0    0    0    0  0.00000000000E+00  0.00000000000E+00  0.99999998245E-14  0.12509000000E+03  0.12509000000E+03 0.  0.
        -11    1    3    3    0    0  0.39058235018E+02 -0.45527307041E+02 -0.16987760354E+02  0.62344730421E+02  0.51100000000E-03 0.  1.
         23    2    1    0    0    0  0.16547496706E+02 -0.24666460844E+02 -0.78263607990E+01  0.94373459486E+02  0.89234768976E+02 0.  0.
         11    1    3    3    0    0 -0.22510738312E+02  0.20860846197E+02  0.91613995553E+01  0.32028729065E+02  0.51100000000E-03 0. -1.
         22    1    1    0    0    0 -0.16547496706E+02  0.24666460844E+02  0.78263607990E+01  0.30716540514E+02  0.00000000000E+00 0.  1.
</event>
<event>
 5    1  0.1055265E-009  0.9118800E+02  0.7815553E-02  0.1125453E+00
         25   -1    0    0    0    0  0.00000000000E+00  0.00000000000E+00  0.99999998245E-14  0.12509000000E+03  0.12509000000E+03 0.  0.
        -11    1    3    3    0    0 -0.15096207274E+02 -0.28533241126E+02 -0.15654718947E+02  0.35876336893E+02  0.51100000000E-03 0. -1.
         23    2    1    0    0    0  0.30913309141E+02  0.20255473232E+01  0.24819786521E+01  0.94011136732E+02  0.88725408354E+02 0.  0.
         11    1    3    3    0    0  0.46009516415E+02  0.30558788450E+02  0.18136697599E+02  0.58134799839E+02  0.51100000000E-03 0.  1.
         22    1    1    0    0    0 -0.30913309141E+02 -0.20255473232E+01 -0.24819786521E+01  0.31078863268E+02  0.00000000000E+00 0.  1.
</event>
<event>
 5    1  0.1055265E-009  0.9118800E+02  0.7815553E-02  0.1125453E+00
         25   -1    0    0    0    0  0.00000000000E+00  0.00000000000E+00  0.99999998245E-14  0.12509000000E+03  0.12509000000E+03 0.  0.
        -11    1    3    3    0    0 -0.37982193221E+02 -0.15455424501E+02  0.42983161135E+02  0.59405970153E+02  0.51100000000E-03 0. -1.
         23    2    1    0    0    0 -0.57140112939E+01 -0.67612775221E+01  0.27430137119E+02  0.96266793705E+02  0.91850521768E+02 0.  0.
         11    1    3    3    0    0  0.32268181928E+02  0.86941469786E+01 -0.15553024016E+02  0.36860823552E+02  0.51100000000E-03 0.  1.
         22    1    1    0    0    0  0.57140112939E+01  0.67612775221E+01 -0.27430137119E+02  0.28823206295E+02  0.00000000000E+00 0. -1.
</event>
<event>
 5    1  0.1055265E-009  0.9118800E+02  0.7815553E-02  0.1125453E+00
         25   -1    0    0    0    0  0.00000000000E+00  0.00000000000E+00  0.99999998245E-14  0.12509000000E+03  0.12509000000E+03 0.  0.
        -11    1    3    3    0    0 -0.10185244059E+02 -0.31385700486E+02  0.44015451642E+02  0.55010556942E+02  0.51100000000E-03 0.  1.
         23    2    1    0    0    0  0.13387099052E+02 -0.11014215048E+02  0.32555262876E+02  0.88206772171E+02  0.80125290400E+02 0.  0.
         11    1    3    3    0    0  0.23572343112E+02  0.20371485438E+02 -0.11460188766E+02  0.33196215229E+02  0.51100000000E-03 0. -1.
         22    1    1    0    0    0 -0.13387099052E+02  0.11014215048E+02 -0.32555262876E+02  0.36883227829E+02  0.00000000000E+00 0.  1.
</event>
<event>
 5    1  0.1055265E-009  0.9118800E+02  0.7815553E-02  0.1125453E+00
         25   -1    0    0    0    0  0.00000000000E+00  0.00000000000E+00  0.99999998245E-14  0.12509000000E+03  0.12509000000E+03 0.  0.
        -11    1    3    3    0    0  0.28819706477E+02  0.26273407756E+02 -0.27933985521E+01  0.39098216228E+02  0.51100000000E-03 0.  1.
         23    2    1    0    0    0 -0.22399391529E+02  0.66596905826E+01 -0.17515620029E+02  0.95885870762E+02  0.91330274538E+02 0.  0.
         11    1    3    3    0    0 -0.51219098006E+02 -0.19613717173E+02 -0.14722221477E+02  0.56787654533E+02  0.51100000000E-03 0. -1.
         22    1    1    0    0    0  0.22399391529E+02 -0.66596905826E+01  0.17515620029E+02  0.29204129238E+02  0.00000000000E+00 0. -1.
</event>
<event>
 5    1  0.1055265E-009  0.9118800E+02  0.7815553E-02  0.1125453E+00
         25   -1    0    0    0    0  0.00000000000E+00  0.00000000000E+00  0.99999998245E-14  0.12509000000E+03  0.12509000000E+03 0.  0.
        -11    1    3    3    0    0  0.23820815453E+02 -0.19638657723E+02  0.38224831664E+02  0.49134976158E+02  0.51100000000E-03 0. -1.
         23    2    1    0    0    0  0.27335841854E+02  0.10544354447E+01 -0.50871224373E+01  0.97264851327E+02  0.93199851958E+02 0.  0.
         11    1    3    3    0    0  0.35150264012E+01  0.20693093167E+02 -0.43311954102E+02  0.48129875169E+02  0.51100000000E-03 0.  1.
         22    1    1    0    0    0 -0.27335841854E+02 -0.10544354447E+01  0.50871224373E+01  0.27825148673E+02  0.00000000000E+00 0.  1.
</event>
<event>
 5    1  0.1055265E-009  0.9118800E+02  0.7815553E-02  0.1125453E+00
         25   -1    0    0    0    0  0.00000000000E+00  0.00000000000E+00  0.99999998245E-14  0.12509000000E+03  0.12509000000E+03 0.  0.
        -11    1    3    3    0    0 -0.24053065729E+02 -0.26533226428E+02 -0.35395440331E+02  0.50352748407E+02  0.51100000000E-03 0. -1.
         23    2    1    0    0    0 -0.29413899728E+02  0.29156406193E+01 -0.16136294082E+01  0.95487934915E+02  0.90783607865E+02 0.  0.
         11    1    3    3    0    0 -0.53608339990E+01  0.29448867048E+02  0.33781810923E+02  0.45135186507E+02  0.51100000000E-03 0.  1.
         22    1    1    0    0    0  0.29413899728E+02 -0.29156406193E+01  0.16136294082E+01  0.29602065085E+02  0.00000000000E+00 0. -1.
</event>
<event>
 5    1  0.1055265E-009  0.9118800E+02  0.7815553E-02  0.1125453E+00
         25   -1    0    0    0    0  0.00000000000E+00  0.00000000000E+00  0.99999998245E-14  0.12509000000E+03  0.12509000000E+03 0.  0.
        -11    1    3    3    0    0  0.26136685240E+02  0.10372108708E+02  0.31911316297E+02  0.42532799843E+02  0.51100000000E-03 0.  1.
         23    2    1    0    0    0  0.20279260280E+02 -0.14038667684E+02 -0.15344016443E+02  0.96042256053E+02  0.91544216198E+02 0.  0.
         11    1    3    3    0    0 -0.58574249604E+01 -0.24410776391E+02 -0.47255332741E+02  0.53509456210E+02  0.51100000000E-03 0. -1.
         22    1    1    0    0    0 -0.20279260280E+02  0.14038667684E+02  0.15344016443E+02  0.29047743947E+02  0.00000000000E+00 0. -1.
</event>
<event>
 5    1  0.1055265E-009  0.9118800E+02  0.7815553E-02  0.1125453E+00
         25   -1    0    0    0    0  0.00000000000E+00  0.00000000000E+00  0.99999998245E-14  0.12509000000E+03  0.12509000000E+03 0.  0.
        -11    1    3    3    0    0 -0.14803142275E+02  0.76748858659E+01 -0.34253430909E+02  0.38096383339E+02  0.51100000000E-03 0.  1.
         23    2    1    0    0    0  0.15271444334E+02 -0.26077373824E+02  0.90941323173E-01  0.94869895633E+02  0.89927984463E+02 0.  0.
         11    1    3    3    0    0  0.30074586609E+02 -0.33752259690E+02  0.34344372232E+02  0.56773512294E+02  0.51100000000E-03 0. -1.
         22    1    1    0    0    0 -0.15271444334E+02  0.26077373824E+02 -0.90941323173E-01  0.30220104367E+02  0.00000000000E+00 0.  1.
</event>
<event>
 5    1  0.1055265E-009  0.9118800E+02  0.7815553E-02  0.1125453E+00
         25   -1    0    0    0    0  0.00000000000E+00  0.00000000000E+00  0.99999998245E-14  0.12509000000E+03  0.12509000000E+03 0.  0.
        -11    1    3    3    0    0 -0.15447744110E+02 -0.35142679664E+02  0.50020424017E+01  0.38712545260E+02  0.51100000000E-03 0.  1.
         23    2    1    0    0    0  0.27206155372E+02  0.36493436922E+01  0.81551625569E+01  0.96454370518E+02  0.92105625866E+02 0.  0.
         11    1    3    3    0    0  0.42653899482E+02  0.38792023356E+02  0.31531201552E+01  0.57741825258E+02  0.51100000000E-03 0. -1.
         22    1    1    0    0    0 -0.27206155372E+02 -0.36493436922E+01 -0.81551625569E+01  0.28635629482E+02  0.00000000000E+00 0. -1.
</event>
<event>
 5    1  0.1055265E-009  0.9118800E+02  0.7815553E-02  0.1125453E+00
         25   -1    0    0    0    0  0.00000000000E+00  0.00000000000E+00  0.99999998245E-14  0.12509000000E+03  0.12509000000E+03 0.  0.
        -11    1    3    3    0    0 -0.25969965493E+02 -0.15086664876E+02 -0.49125158500E+02  0.57578882958E+02  0.51100000000E-03 0.  1.
         23    2    1    0    0    0 -0.23654704634E+02 -0.13635734743E+02 -0.11238333874E+02  0.95564105237E+02  0.90888501738E+02 0.  0.
         11    1    3    3    0    0  0.23152608593E+01  0.14509301325E+01  0.37886824626E+02  0.37985222279E+02  0.51100000000E-03 0. -1.
         22    1    1    0    0    0  0.23654704634E+02  0.13635734743E+02  0.11238333874E+02  0.29525894763E+02  0.00000000000E+00 0.  1.
</event>
<event>
 5    1  0.1055265E-009  0.9118800E+02  0.7815553E-02  0.1125453E+00
         25   -1    0    0    0    0  0.00000000000E+00  0.00000000000E+00  0.99999998245E-14  0.12509000000E+03  0.12509000000E+03 0.  0.
        -11    1    3    3    0    0 -0.18226762256E+02  0.72137942804E+01 -0.39549199558E+02  0.44140603487E+02  0.51100000000E-03 0. -1.
         23    2    1    0    0    0  0.15178189796E+02  0.25318125958E+02 -0.57031944693E+01  0.95024881096E+02  0.90143311747E+02 0.  0.
         11    1    3    3    0    0  0.33404952052E+02  0.18104331678E+02  0.33846005089E+02  0.50884277609E+02  0.51100000000E-03 0.  1.
         22    1    1    0    0    0 -0.15178189796E+02 -0.25318125958E+02  0.57031944693E+01  0.30065118904E+02  0.00000000000E+00 0.  1.
</event>
<event>
 5    1  0.1055265E-009  0.9118800E+02  0.7815553E-02  0.1125453E+00
         25   -1    0    0    0    0  0.00000000000E+00  0.00000000000E+00  0.99999998245E-14  0.12509000000E+03  0.12509000000E+03 0.  0.
        -11    1    3    3    0    0 -0.25057156477E+01 -0.14908581692E+02 -0.30558184341E+02  0.34093211193E+02  0.51100000000E-03 0.  1.
         23    2    1    0    0    0  0.11994317109E+02  0.18452844517E+02  0.19304703170E+02  0.95814708743E+02  0.91232755814E+02 0.  0.
         11    1    3    3    0    0  0.14500032757E+02  0.33361426209E+02  0.49862887511E+02  0.61721497550E+02  0.51100000000E-03 0. -1.
         22    1    1    0    0    0 -0.11994317109E+02 -0.18452844517E+02 -0.19304703170E+02  0.29275291257E+02  0.00000000000E+00 0. -1.
</event>
<event>
 5    1  0.1055265E-009  0.9118800E+02  0.7815553E-02  0.1125453E+00
         25   -1    0    0    0    0  0.00000000000E+00  0.00000000000E+00  0.99999998245E-14  0.12509000000E+03  0.12509000000E+03 0.  0.
        -11    1    3    3    0    0 -0.13140434471E+01  0.42627490042E+02  0.11796062725E+02  0.44249030651E+02  0.51100000000E-03 0.  1.
         23    2    1    0    0    0  0.21030503847E+02 -0.31820658170E+01  0.20024104678E+02  0.95877461544E+02  0.91318756173E+02 0.  0.
         11    1    3    3    0    0  0.22344547294E+02 -0.45809555859E+02  0.82280419528E+01  0.51628430893E+02  0.51100000000E-03 0. -1.
         22    1    1    0    0    0 -0.21030503847E+02  0.31820658170E+01 -0.20024104678E+02  0.29212538456E+02  0.00000000000E+00 0. -1.
</event>
<event>
 5    1  0.1055265E-009  0.9118800E+02  0.7815553E-02  0.1125453E+00
         25   -1    0    0    0    0  0.00000000000E+00  0.00000000000E+00  0.99999998245E-14  0.12509000000E+03  0.12509000000E+03 0.  0.
        -11    1    3    3    0    0  0.22998167780E+02 -0.61164094895E+01  0.30232348671E+02  0.38474941101E+02  0.51100000000E-03 0. -1.
         23    2    1    0    0    0 -0.20482399328E+02  0.20094999218E+02  0.25973949701E+01  0.96278819247E+02  0.91866897733E+02 0.  0.
         11    1    3    3    0    0 -0.43480567107E+02  0.26211408707E+02 -0.27634953701E+02  0.57803878146E+02  0.51100000000E-03 0.  1.
         22    1    1    0    0    0  0.20482399328E+02 -0.20094999218E+02 -0.25973949701E+01  0.28811180753E+02  0.00000000000E+00 0. -1.
</event>
<event>
 5    1  0.1055265E-009  0.9118800E+02  0.7815553E-02  0.1125453E+00
         25   -1    0    0    0    0  0.00000000000E+00  0.00000000000E+00  0.99999998245E-14  0.12509000000E+03  0.12509000000E+03 0.  0.
        -11    1    3    3    0    0 -0.12130926696E+02 -0.27392519871E+02 -0.28209588306E+02  0.41149609962E+02  0.51100000000E-03 0.  1.
         23    2    1    0    0    0  0.24113217752E+02  0.10724820537E+02 -0.77748199379E+01  0.97577877746E+02  0.93619043759E+02 0.  0.
         11    1    3    3    0    0  0.36244144448E+02  0.38117340408E+02  0.20434768368E+02  0.56428267783E+02  0.51100000000E-03 0. -1.
         22    1    1    0    0    0 -0.24113217752E+02 -0.10724820537E+02  0.77748199379E+01  0.27512122254E+02  0.00000000000E+00 0. -1.
</event>
<event>
 5    1  0.1055265E-009  0.9118800E+02  0.7815553E-02  0.1125453E+00
         25   -1    0    0    0    0  0.00000000000E+00  0.00000000000E+00  0.99999998245E-14  0.12509000000E+03  0.12509000000E+03 0.  0.
        -11    1    3    3    0    0 -0.19356206334E+02 -0.40119233320E+02  0.14708157611E+02  0.46909972356E+02  0.51100000000E-03 0.  1.
         23    2    1    0    0    0 -0.17360920917E+02 -0.11766039639E+02 -0.22891399998E+02  0.94043946181E+02  0.88771652883E+02 0.  0.
         11    1    3    3    0    0  0.19952854175E+01  0.28353193681E+02 -0.37599557610E+02  0.47133973825E+02  0.51100000000E-03 0. -1.
         22    1    1    0    0    0  0.17360920917E+02  0.11766039639E+02  0.22891399998E+02  0.31046053819E+02  0.00000000000E+00 0. -1.
</event>
<event>
 5    1  0.1055265E-009  0.9118800E+02  0.7815553E-02  0.1125453E+00
         25   -1    0    0    0    0  0.00000000000E+00  0.00000000000E+00  0.99999998245E-14  0.12509000000E+03  0.12509000000E+03 0.  0.
        -11    1    3    3    0    0 -0.27220214165E+02  0.21887309719E+02  0.29599225500E+02  0.45783277913E+02  0.51100000000E-03 0. -1.
         23    2    1    0    0    0  0.24418592087E+01  0.28889928361E+02 -0.87845958842E+01  0.94795449963E+02  0.89824370700E+02 0.  0.
         11    1    3    3    0    0  0.29662073374E+02  0.70026186424E+01 -0.38383821385E+02  0.49012172050E+02  0.51100000000E-03 0.  1.
         22    1    1    0    0    0 -0.24418592087E+01 -0.28889928361E+02  0.87845958842E+01  0.30294550037E+02  0.00000000000E+00 0. -1.
</event>
<event>
 5    1  0.1055265E-009  0.9118800E+02  0.7815553E-02  0.1125453E+00
         25   -1    0    0    0    0  0.00000000000E+00  0.00000000000E+00  0.99999998245E-14  0.12509000000E+03  0.12509000000E+03 0.  0.
        -11    1    3    3    0    0 -0.36646510444E+02 -0.43984305105E+01 -0.65455151447E+01  0.37485419665E+02  0.51100000000E-03 0.  1.
         23    2    1    0    0    0  0.15383399872E+02 -0.23694690641E+02  0.95561193006E+01  0.95267076396E+02  0.90478776919E+02 0.  0.
         11    1    3    3    0    0  0.52029910316E+02 -0.19296260130E+02  0.16101634445E+02  0.57781656731E+02  0.51100000000E-03 0. -1.
         22    1    1    0    0    0 -0.15383399872E+02  0.23694690641E+02 -0.95561193006E+01  0.29822923604E+02  0.00000000000E+00 0. -1.
</event>
<event>
 5    1  0.1055265E-009  0.9118800E+02  0.7815553E-02  0.1125453E+00
         25   -1    0    0    0    0  0.00000000000E+00  0.00000000000E+00  0.99999998245E-14  0.12509000000E+03  0.12509000000E+03 0.  0.
        -11    1    3    3    0    0 -0.21137302266E+02 -0.31414123036E+02 -0.10702001787E+02  0.39346734499E+02  0.51100000000E-03 0. -1.
         23    2    1    0    0    0  0.12533557981E+02 -0.95531064897E+00  0.25001393763E+02  0.97106569471E+02  0.92987168202E+02 0.  0.
         11    1    3    3    0    0  0.33670860247E+02  0.30458812388E+02  0.35703395550E+02  0.57759834971E+02  0.51100000000E-03 0.  1.
         22    1    1    0    0    0 -0.12533557981E+02  0.95531064897E+00 -0.25001393763E+02  0.27983430529E+02  0.00000000000E+00 0.  1.
</event>
<event>
 5    1  0.1055265E-009  0.9118800E+02  0.7815553E-02  0.1125453E+00
         25   -1    0    0    0    0  0.00000000000E+00  0.00000000000E+00  0.99999998245E-14  0.12509000000E+03  0.12509000000E+03 0.  0.
        -11    1    3    3    0    0  0.47243775593E+01 -0.35721781130E+02  0.44303839739E+02  0.57106878800E+02  0.51100000000E-03 0. -1.
         23    2    1    0    0    0 -0.31808769741E+00 -0.12045274735E+01  0.30408247308E+02  0.94656242911E+02  0.89630300410E+02 0.  0.
         11    1    3    3    0    0 -0.50424652567E+01  0.34517253657E+02 -0.13895592431E+02  0.37549364111E+02  0.51100000000E-03 0.  1.
         22    1    1    0    0    0  0.31808769741E+00  0.12045274735E+01 -0.30408247308E+02  0.30433757089E+02  0.00000000000E+00 0. -1.
</event>
<event>
 5    1  0.1055265E-009  0.9118800E+02  0.7815553E-02  0.1125453E+00
         25   -1    0    0    0    0  0.00000000000E+00  0.00000000000E+00  0.99999998245E-14  0.12509000000E+03  0.12509000000E+03 0.  0.
        -11    1    3    3    0    0 -0.46909427334E+02 -0.56346235490E+01 -0.18957646266E+02  0.50908110429E+02  0.51100000000E-03 0. -1.
         23    2    1    0    0    0 -0.17988195270E+02 -0.24878248578E+02  0.61624939813E+01  0.93777402639E+02  0.88395262839E+02 0.  0.
         11    1    3    3    0    0  0.28921232063E+02 -0.19243625029E+02  0.25120140247E+02  0.42869292210E+02  0.51100000000E-03 0.  1.
         22    1    1    0    0    0  0.17988195270E+02  0.24878248578E+02 -0.61624939813E+01  0.31312597361E+02  0.00000000000E+00 0. -1.
</event>
<event>
 5    1  0.1055265E-009  0.9118800E+02  0.7815553E-02  0.1125453E+00
         25   -1    0    0    0    0  0.00000000000E+00  0.00000000000E+00  0.99999998245E-14  0.12509000000E+03  0.12509000000E+03 0.  0.
        -11    1    3    3    0    0 -0.45477194322E+02 -0.15999864482E+02 -0.27618493559E+02  0.55560346053E+02  0.51100000000E-03 0.  1.
         23    2    1    0    0    0 -0.25655988147E+01 -0.19697583578E+02 -0.14198718485E+02  0.10067318811E+03  0.97667344093E+02 0.  0.
         11    1    3    3    0    0  0.42911595507E+02 -0.36977190956E+01  0.13419775074E+02  0.45112842060E+02  0.51100000000E-03 0. -1.
         22    1    1    0    0    0  0.25655988147E+01  0.19697583578E+02  0.14198718485E+02  0.24416811887E+02  0.00000000000E+00 0. -1.
</event>
<event>
 5    1  0.1055265E-009  0.9118800E+02  0.7815553E-02  0.1125453E+00
         25   -1    0    0    0    0  0.00000000000E+00  0.00000000000E+00  0.99999998245E-14  0.12509000000E+03  0.12509000000E+03 0.  0.
        -11    1    3    3    0    0  0.31569374073E+01  0.35758724181E+02  0.80999239659E+01  0.36800290452E+02  0.51100000000E-03 0. -1.
         23    2    1    0    0    0  0.11884293996E+02 -0.12732776959E+02 -0.23875132578E+02  0.95536962788E+02  0.90851137859E+02 0.  0.
         11    1    3    3    0    0  0.87273565884E+01 -0.48491501140E+02 -0.31975056543E+02  0.58736672336E+02  0.51100000000E-03 0.  1.
         22    1    1    0    0    0 -0.11884293996E+02  0.12732776959E+02  0.23875132578E+02  0.29553037212E+02  0.00000000000E+00 0.  1.
</event>
<event>
 5    1  0.1055265E-009  0.9118800E+02  0.7815553E-02  0.1125453E+00
         25   -1    0    0    0    0  0.00000000000E+00  0.00000000000E+00  0.99999998245E-14  0.12509000000E+03  0.12509000000E+03 0.  0.
        -11    1    3    3    0    0  0.34478272697E+02  0.37070978194E+02 -0.27215714478E+02  0.57477855103E+02  0.51100000000E-03 0.  1.
         23    2    1    0    0    0  0.21689957439E+02  0.19518979475E+02  0.41385665811E+01  0.95618445124E+02  0.90963259073E+02 0.  0.
         11    1    3    3    0    0 -0.12788315258E+02 -0.17551998719E+02  0.31354281059E+02  0.38140590021E+02  0.51100000000E-03 0. -1.
         22    1    1    0    0    0 -0.21689957439E+02 -0.19518979475E+02 -0.41385665811E+01  0.29471554876E+02  0.00000000000E+00 0.  1.
</event>
<event>
 5    1  0.1055265E-009  0.9118800E+02  0.7815553E-02  0.1125453E+00
         25   -1    0    0    0    0  0.00000000000E+00  0.00000000000E+00  0.99999998245E-14  0.12509000000E+03  0.12509000000E+03 0.  0.
        -11    1    3    3    0    0 -0.52618041753E+01  0.47214265439E+02  0.18165045888E+02  0.50861009983E+02  0.51100000000E-03 0. -1.
         23    2    1    0    0    0  0.11675648266E+02  0.13074121477E+02 -0.15484753334E+02  0.10170130614E+03  0.98975374054E+02 0.  0.
         11    1    3    3    0    0  0.16937452442E+02 -0.34140143962E+02 -0.33649799222E+02  0.50840296153E+02  0.51100000000E-03 0.  1.
         22    1    1    0    0    0 -0.11675648266E+02 -0.13074121477E+02  0.15484753334E+02  0.23388693864E+02  0.00000000000E+00 0.  1.
</event>
<event>
 5    1  0.1055265E-009  0.9118800E+02  0.7815553E-02  0.1125453E+00
         25   -1    0    0    0    0  0.00000000000E+00  0.00000000000E+00  0.99999998245E-14  0.12509000000E+03  0.12509000000E+03 0.  0.
        -11    1    3    3    0    0  0.22540599706E+02  0.25772102981E+02  0.20037045851E+02  0.39670683557E+02  0.51100000000E-03 0.  1.
         23    2    1    0    0    0  0.10231432675E+02 -0.12768196720E+02 -0.21775298249E+02  0.97852660264E+02  0.93985479968E+02 0.  0.
         11    1    3    3    0    0 -0.12309167031E+02 -0.38540299701E+02 -0.41812344100E+02  0.58181976707E+02  0.51100000000E-03 0. -1.
         22    1    1    0    0    0 -0.10231432675E+02  0.12768196720E+02  0.21775298249E+02  0.27237339736E+02  0.00000000000E+00 0. -1.
</event>
<event>
 5    1  0.1055265E-009  0.9118800E+02  0.7815553E-02  0.1125453E+00
         25   -1    0    0    0    0  0.00000000000E+00  0.00000000000E+00  0.99999998245E-14  0.12509000000E+03  0.12509000000E+03 0.  0.
        -11    1    3    3    0    0  0.71609298768E+01 -0.75285953090E+01 -0.52160904764E+02  0.53185699677E+02  0.51100000000E-03 0.  1.
         23    2    1    0    0    0 -0.17964502968E+01 -0.25700176156E+02 -0.15634772045E+02  0.94954101391E+02  0.90045038652E+02 0.  0.
         11    1    3    3    0    0 -0.89573801736E+01 -0.18171580847E+02  0.36526132719E+02  0.41768401714E+02  0.51100000000E-03 0. -1.
         22    1    1    0    0    0  0.17964502968E+01  0.25700176156E+02  0.15634772045E+02  0.30135898609E+02  0.00000000000E+00 0.  1.
</event>
<event>
 5    1  0.1055265E-009  0.9118800E+02  0.7815553E-02  0.1125453E+00
         25   -1    0    0    0    0  0.00000000000E+00  0.00000000000E+00  0.99999998245E-14  0.12509000000E+03  0.12509000000E+03 0.  0.
        -11    1    3    3    0    0 -0.37694673984E+02  0.32221245071E+01  0.20866080483E+02  0.43204905371E+02  0.51100000000E-03 0.  1.
         23    2    1    0    0    0 -0.77630783077E+01 -0.24647232600E+02 -0.12870333293E+02  0.96221384884E+02  0.91788659269E+02 0.  0.
         11    1    3    3    0    0  0.29931595677E+02 -0.27869357107E+02 -0.33736413776E+02  0.53016479513E+02  0.51100000000E-03 0. -1.
         22    1    1    0    0    0  0.77630783077E+01  0.24647232600E+02  0.12870333293E+02  0.28868615116E+02  0.00000000000E+00 0. -1.
</event>
<event>
 5    1  0.1055265E-009  0.9118800E+02  0.7815553E-02  0.1125453E+00
         25   -1    0    0    0    0  0.00000000000E+00  0.00000000000E+00  0.99999998245E-14  0.12509000000E+03  0.12509000000E+03 0.  0.
        -11    1    3    3    0    0  0.74501916189E+01 -0.35597422013E+02  0.47200363113E+02  0.59586542838E+02  0.51100000000E-03 0.  1.
         23    2    1    0    0    0 -0.58244356796E+01 -0.25459680781E+02  0.17531219387E+02  0.93634268414E+02  0.88192477977E+02 0.  0.
         11    1    3    3    0    0 -0.13274627298E+02  0.10137741233E+02 -0.29669143726E+02  0.34047725576E+02  0.51100000000E-03 0. -1.
         22    1    1    0    0    0  0.58244356796E+01  0.25459680781E+02 -0.17531219387E+02  0.31455731586E+02  0.00000000000E+00 0.  1.
</event>
<event>
 5    1  0.1055265E-009  0.9118800E+02  0.7815553E-02  0.1125453E+00
         25   -1    0    0    0    0  0.00000000000E+00  0.00000000000E+00  0.99999998245E-14  0.12509000000E+03  0.12509000000E+03 0.  0.
        -11    1    3    3    0    0 -0.52317968258E+02  0.23792781733E+02  0.14591481005E+02  0.59297365737E+02  0.51100000000E-03 0. -1.
         23    2    1    0    0    0 -0.21746682089E+02  0.36076723397E+00  0.16387707761E+02  0.97857568957E+02  0.93992012968E+02 0.  0.
         11    1    3    3    0    0  0.30571286169E+02 -0.23432014499E+02  0.17962267555E+01  0.38560203220E+02  0.51100000000E-03 0.  1.
         22    1    1    0    0    0  0.21746682089E+02 -0.36076723397E+00 -0.16387707761E+02  0.27232431043E+02  0.00000000000E+00 0. -1.
</event>
<event>
 5    1  0.1055265E-009  0.9118800E+02  0.7815553E-02  0.1125453E+00
         25   -1    0    0    0    0  0.00000000000E+00  0.00000000000E+00  0.99999998245E-14  0.12509000000E+03  0.12509000000E+03 0.  0.
        -11    1    3    3    0    0 -0.23753049704E+02 -0.53973345706E+02 -0.19718624263E+02  0.62178401074E+02  0.51100000000E-03 0.  1.
         23    2    1    0    0    0 -0.15304575291E+02 -0.23258040252E+02 -0.10396749944E+02  0.95370328558E+02  0.90621414129E+02 0.  0.
         11    1    3    3    0    0  0.84484744131E+01  0.30715305454E+02  0.93218743189E+01  0.33191927484E+02  0.51100000000E-03 0. -1.
         22    1    1    0    0    0  0.15304575291E+02  0.23258040252E+02  0.10396749944E+02  0.29719671442E+02  0.00000000000E+00 0.  1.
</event>
<event>
 5    1  0.1055265E-009  0.9118800E+02  0.7815553E-02  0.1125453E+00
         25   -1    0    0    0    0  0.00000000000E+00  0.00000000000E+00  0.99999998245E-14  0.12509000000E+03  0.12509000000E+03 0.  0.
        -11    1    3    3    0    0 -0.48641566042E+02 -0.21908020736E+02  0.15970202377E+02  0.55686719097E+02  0.51100000000E-03 0. -1.
         23    2    1    0    0    0 -0.11859063547E+02 -0.25931850515E+02 -0.13530519869E+01  0.96543038532E+02  0.92225968577E+02 0.  0.
         11    1    3    3    0    0  0.36782502494E+02 -0.40238297796E+01 -0.17323254363E+02  0.40856319436E+02  0.51100000000E-03 0.  1.
         22    1    1    0    0    0  0.11859063547E+02  0.25931850515E+02  0.13530519869E+01  0.28546961468E+02  0.00000000000E+00 0. -1.
</event>
<event>
 5    1  0.1055265E-009  0.9118800E+02  0.7815553E-02  0.1125453E+00
         25   -1    0    0    0    0  0.00000000000E+00  0.00000000000E+00  0.99999998245E-14  0.12509000000E+03  0.12509000000E+03 0.  0.
        -11    1    3    3    0    0 -0.17294158804E+02  0.11299190535E+02  0.56249114576E+02  0.59922637845E+02  0.51100000000E-03 0.  1.
         23    2    1    0    0    0 -0.10057019186E+02 -0.74942034015E+01  0.25380356217E+02  0.96779768612E+02  0.92546498644E+02 0.  0.
         11    1    3    3    0    0  0.72371396188E+01 -0.18793393937E+02 -0.30868758358E+02  0.36857130767E+02  0.51100000000E-03 0. -1.
         22    1    1    0    0    0  0.10057019186E+02  0.74942034015E+01 -0.25380356217E+02  0.28310231388E+02  0.00000000000E+00 0.  1.
</event>
<event>
 5    1  0.1055265E-009  0.9118800E+02  0.7815553E-02  0.1125453E+00
         25   -1    0    0    0    0  0.00000000000E+00  0.00000000000E+00  0.99999998245E-14  0.12509000000E+03  0.12509000000E+03 0.  0.
        -11    1    3    3    0    0  0.23767957436E+02 -0.31324065429E+02 -0.71098668109E+01  0.39958266754E+02  0.51100000000E-03 0.  1.
         23    2    1    0    0    0  0.65475571690E+01  0.98165261452E+01  0.26683221132E+02  0.95914171298E+02  0.91369027988E+02 0.  0.
         11    1    3    3    0    0 -0.17220400267E+02  0.41140591574E+02  0.33793087943E+02  0.55955904544E+02  0.51100000000E-03 0. -1.
         22    1    1    0    0    0 -0.65475571690E+01 -0.98165261452E+01 -0.26683221132E+02  0.29175828702E+02  0.00000000000E+00 0. -1.
</event>
<event>
 5    1  0.1055265E-009  0.9118800E+02  0.7815553E-02  0.1125453E+00
         25   -1    0    0    0    0  0.00000000000E+00  0.00000000000E+00  0.99999998245E-14  0.12509000000E+03  0.12509000000E+03 0.  0.
        -11    1    3    3    0    0  0.11761569519E+02  0.16592438624E+02  0.26479055581E+02  0.33388380041E+02  0.51100000000E-03 0.  1.
         23    2    1    0    0    0 -0.77058877581E+01 -0.28703491437E+02 -0.88943858314E+01  0.94067730158E+02  0.88805161060E+02 0.  0.
         11    1    3    3    0    0 -0.19467457277E+02 -0.45295930061E+02 -0.35373441413E+02  0.60679350117E+02  0.51100000000E-03 0. -1.
         22    1    1    0    0    0  0.77058877581E+01  0.28703491437E+02  0.88943858314E+01  0.31022269842E+02  0.00000000000E+00 0. -1.
</event>
<event>
 5    1  0.1055265E-009  0.9118800E+02  0.7815553E-02  0.1125453E+00
         25   -1    0    0    0    0  0.00000000000E+00  0.00000000000E+00  0.99999998245E-14  0.12509000000E+03  0.12509000000E+03 0.  0.
        -11    1    3    3    0    0 -0.38527669929E+01 -0.61975592804E+02 -0.62496920230E+01  0.62408946214E+02  0.51100000000E-03 0.  1.
         23    2    1    0    0    0  0.55911174229E+00 -0.30260234696E+02 -0.46483935053E+01  0.94469713065E+02  0.89369596142E+02 0.  0.
         11    1    3    3    0    0  0.44118787352E+01  0.31715358108E+02  0.16012985177E+01  0.32060766851E+02  0.51100000000E-03 0. -1.
         22    1    1    0    0    0 -0.55911174229E+00  0.30260234696E+02  0.46483935053E+01  0.30620286935E+02  0.00000000000E+00 0.  1.
</event>
<event>
 5    1  0.1055265E-009  0.9118800E+02  0.7815553E-02  0.1125453E+00
         25   -1    0    0    0    0  0.00000000000E+00  0.00000000000E+00  0.99999998245E-14  0.12509000000E+03  0.12509000000E+03 0.  0.
        -11    1    3    3    0    0  0.28276719883E+02  0.21350276413E+02 -0.12793392858E+02  0.37670652919E+02  0.51100000000E-03 0. -1.
         23    2    1    0    0    0 -0.27493372687E+02  0.98718761243E+01 -0.75581496461E+00  0.95868248920E+02  0.91306135691E+02 0.  0.
         11    1    3    3    0    0 -0.55770092570E+02 -0.11478400289E+02  0.12037577894E+02  0.58197596001E+02  0.51100000000E-03 0.  1.
         22    1    1    0    0    0  0.27493372687E+02 -0.98718761243E+01  0.75581496461E+00  0.29221751080E+02  0.00000000000E+00 0.  1.
</event>
<event>
 5    1  0.1055265E-009  0.9118800E+02  0.7815553E-02  0.1125453E+00
         25   -1    0    0    0    0  0.00000000000E+00  0.00000000000E+00  0.99999998245E-14  0.12509000000E+03  0.12509000000E+03 0.  0.
        -11    1    3    3    0    0  0.32216620313E+02 -0.29898124035E+02  0.26260396773E+02  0.51199774259E+02  0.51100000000E-03 0.  1.
         23    2    1    0    0    0  0.21091978518E+02  0.12163123708E+02  0.16169412907E+02  0.95862221264E+02  0.91297877389E+02 0.  0.
         11    1    3    3    0    0 -0.11124641796E+02  0.42061247743E+02 -0.10090983866E+02  0.44662447005E+02  0.51100000000E-03 0. -1.
         22    1    1    0    0    0 -0.21091978518E+02 -0.12163123708E+02 -0.16169412907E+02  0.29227778736E+02  0.00000000000E+00 0.  1.
</event>
<event>
 5    1  0.1055265E-009  0.9118800E+02  0.7815553E-02  0.1125453E+00
         25   -1    0    0    0    0  0.00000000000E+00  0.00000000000E+00  0.99999998245E-14  0.12509000000E+03  0.12509000000E+03 0.  0.
        -11    1    3    3    0    0 -0.19097467561E+02 -0.25083643036E+02 -0.21542926749E+02  0.38183767603E+02  0.51100000000E-03 0. -1.
         23    2    1    0    0    0  0.20595634148E+02  0.13683232782E+02 -0.19317855945E+02  0.93711813889E+02  0.88302398034E+02 0.  0.
         11    1    3    3    0    0  0.39693101709E+02  0.38766875818E+02  0.22250708033E+01  0.55528046286E+02  0.51100000000E-03 0.  1.
         22    1    1    0    0    0 -0.20595634148E+02 -0.13683232782E+02  0.19317855945E+02  0.31378186111E+02  0.00000000000E+00 0.  1.
</event>
<event>
 5    1  0.1055265E-009  0.9118800E+02  0.7815553E-02  0.1125453E+00
         25   -1    0    0    0    0  0.00000000000E+00  0.00000000000E+00  0.99999998245E-14  0.12509000000E+03  0.12509000000E+03 0.  0.
        -11    1    3    3    0    0 -0.24331114615E+02  0.90201590029E+01 -0.31889198232E+02  0.41113104614E+02  0.51100000000E-03 0. -1.
         23    2    1    0    0    0 -0.21608795503E+02 -0.29379990144E+02 -0.45354400441E+01  0.88338209835E+02  0.80330226169E+02 0.  0.
         11    1    3    3    0    0  0.27223191116E+01 -0.38400149147E+02  0.27353758188E+02  0.47225105221E+02  0.51100000000E-03 0.  1.
         22    1    1    0    0    0  0.21608795503E+02  0.29379990144E+02  0.45354400441E+01  0.36751790165E+02  0.00000000000E+00 0.  1.
</event>
<event>
 5    1  0.1055265E-009  0.9118800E+02  0.7815553E-02  0.1125453E+00
         25   -1    0    0    0    0  0.00000000000E+00  0.00000000000E+00  0.99999998245E-14  0.12509000000E+03  0.12509000000E+03 0.  0.
        -11    1    3    3    0    0  0.26957726254E+02 -0.39461041520E+02  0.65076327332E+01  0.48231131924E+02  0.51100000000E-03 0.  1.
         23    2    1    0    0    0 -0.16452329460E+02 -0.24115278206E+02 -0.44504093057E+01  0.95559813231E+02  0.90882594451E+02 0.  0.
         11    1    3    3    0    0 -0.43410055713E+02  0.15345763314E+02 -0.10958042039E+02  0.47328681307E+02  0.51100000000E-03 0. -1.
         22    1    1    0    0    0  0.16452329460E+02  0.24115278206E+02  0.44504093057E+01  0.29530186769E+02  0.00000000000E+00 0. -1.
</event>
<event>
 5    1  0.1055265E-009  0.9118800E+02  0.7815553E-02  0.1125453E+00
         25   -1    0    0    0    0  0.00000000000E+00  0.00000000000E+00  0.99999998245E-14  0.12509000000E+03  0.12509000000E+03 0.  0.
        -11    1    3    3    0    0  0.31210402301E+02  0.36074721553E+01 -0.23170066560E+02  0.39037866896E+02  0.51100000000E-03 0. -1.
         23    2    1    0    0    0 -0.25676639396E+02  0.15193487680E+01 -0.10184489326E+02  0.97425545294E+02  0.93415281521E+02 0.  0.
         11    1    3    3    0    0 -0.56887041697E+02 -0.20881233873E+01  0.12985577234E+02  0.58387678398E+02  0.51100000000E-03 0.  1.
         22    1    1    0    0    0  0.25676639396E+02 -0.15193487680E+01  0.10184489326E+02  0.27664454706E+02  0.00000000000E+00 0.  1.
</event>
<event>
 5    1  0.1055265E-009  0.9118800E+02  0.7815553E-02  0.1125453E+00
         25   -1    0    0    0    0  0.00000000000E+00  0.00000000000E+00  0.99999998245E-14  0.12509000000E+03  0.12509000000E+03 0.  0.
        -11    1    3    3    0    0 -0.29592053469E+02 -0.48764487280E+02 -0.24673417690E+02  0.62148550980E+02  0.51100000000E-03 0.  1.
         23    2    1    0    0    0 -0.17749844483E+02 -0.19735550883E+02 -0.10761463648E+02  0.96448106772E+02  0.92097118589E+02 0.  0.
         11    1    3    3    0    0  0.11842208986E+02  0.29028936397E+02  0.13911954042E+02  0.34299555792E+02  0.51100000000E-03 0. -1.
         22    1    1    0    0    0  0.17749844483E+02  0.19735550883E+02  0.10761463648E+02  0.28641893228E+02  0.00000000000E+00 0.  1.
</event>
<event>
 5    1  0.1055265E-009  0.9118800E+02  0.7815553E-02  0.1125453E+00
         25   -1    0    0    0    0  0.00000000000E+00  0.00000000000E+00  0.99999998245E-14  0.12509000000E+03  0.12509000000E+03 0.  0.
        -11    1    3    3    0    0 -0.79209207004E+01  0.42849329817E+02  0.27257322113E+02  0.51398128950E+02  0.51100000000E-03 0. -1.
         23    2    1    0    0    0 -0.19181678579E+02 -0.18294899291E+00  0.21542082317E+02  0.96245042486E+02  0.91820894296E+02 0.  0.
         11    1    3    3    0    0 -0.11260757878E+02 -0.43032278810E+02 -0.57152397960E+01  0.44846913537E+02  0.51100000000E-03 0.  1.
         22    1    1    0    0    0  0.19181678579E+02  0.18294899291E+00 -0.21542082317E+02  0.28844957514E+02  0.00000000000E+00 0. -1.
</event>
<event>
 5    1  0.1055265E-009  0.9118800E+02  0.7815553E-02  0.1125453E+00
         25   -1    0    0    0    0  0.00000000000E+00  0.00000000000E+00  0.99999998245E-14  0.12509000000E+03  0.12509000000E+03 0.  0.
        -11    1    3    3    0    0 -0.18717175437E+02  0.11855802738E+02  0.47794719612E+01  0.22665746566E+02  0.51100000000E-03 0. -1.
         23    2    1    0    0    0  0.37713897266E+02  0.18479787082E+02 -0.11077662256E+02  0.81655507041E+02  0.69145257621E+02 0.  0.
         11    1    3    3    0    0  0.56431072703E+02  0.66239843434E+01 -0.15857134217E+02  0.58989760475E+02  0.51100000000E-03 0.  1.
         22    1    1    0    0    0 -0.37713897266E+02 -0.18479787082E+02  0.11077662256E+02  0.43434492959E+02  0.00000000000E+00 0.  1.
</event>
<event>
 5    1  0.1055265E-009  0.9118800E+02  0.7815553E-02  0.1125453E+00
         25   -1    0    0    0    0  0.00000000000E+00  0.00000000000E+00  0.99999998245E-14  0.12509000000E+03  0.12509000000E+03 0.  0.
        -11    1    3    3    0    0 -0.47647987982E+02 -0.25843395524E+02  0.17932474622E+02  0.57094531238E+02  0.51100000000E-03 0. -1.
         23    2    1    0    0    0 -0.20071534326E+02 -0.20379905107E+02 -0.80494267642E+01  0.95374679144E+02  0.90627419296E+02 0.  0.
         11    1    3    3    0    0  0.27576453656E+02  0.54634904172E+01 -0.25981901386E+02  0.38280147906E+02  0.51100000000E-03 0.  1.
         22    1    1    0    0    0  0.20071534326E+02  0.20379905107E+02  0.80494267642E+01  0.29715320856E+02  0.00000000000E+00 0.  1.
</event>
<event>
 5    1  0.1055265E-009  0.9118800E+02  0.7815553E-02  0.1125453E+00
         25   -1    0    0    0    0  0.00000000000E+00  0.00000000000E+00  0.99999998245E-14  0.12509000000E+03  0.12509000000E+03 0.  0.
        -11    1    3    3    0    0  0.41256335944E+02 -0.57482724517E+00  0.10290041562E+02  0.42524118304E+02  0.51100000000E-03 0.  1.
         23    2    1    0    0    0  0.15558912187E+01  0.24078692231E+02 -0.15994516389E+02  0.96141273403E+02  0.91679417974E+02 0.  0.
         11    1    3    3    0    0 -0.39700444726E+02  0.24653519476E+02 -0.26284557951E+02  0.53617155099E+02  0.51100000000E-03 0. -1.
         22    1    1    0    0    0 -0.15558912187E+01 -0.24078692231E+02  0.15994516389E+02  0.28948726597E+02  0.00000000000E+00 0.  1.
</event>
<event>
 5    1  0.1055265E-009  0.9118800E+02  0.7815553E-02  0.1125453E+00
         25   -1    0    0    0    0  0.00000000000E+00  0.00000000000E+00  0.99999998245E-14  0.12509000000E+03  0.12509000000E+03 0.  0.
        -11    1    3    3    0    0  0.26883615055E+02  0.20089067128E+02 -0.42487469525E+02  0.54143184644E+02  0.51100000000E-03 0. -1.
         23    2    1    0    0    0  0.11343235635E+02  0.25754059555E+02 -0.32042573935E+01  0.96766726113E+02  0.92528868138E+02 0.  0.
         11    1    3    3    0    0 -0.15540379420E+02  0.56649924271E+01  0.39283212131E+02  0.42623541469E+02  0.51100000000E-03 0.  1.
         22    1    1    0    0    0 -0.11343235635E+02 -0.25754059555E+02  0.32042573935E+01  0.28323273887E+02  0.00000000000E+00 0. -1.
</event>
<event>
 5    1  0.1055265E-009  0.9118800E+02  0.7815553E-02  0.1125453E+00
         25   -1    0    0    0    0  0.00000000000E+00  0.00000000000E+00  0.99999998245E-14  0.12509000000E+03  0.12509000000E+03 0.  0.
        -11    1    3    3    0    0  0.47451040919E+02 -0.15367373601E+02  0.10646579257E+02  0.51001050046E+02  0.51100000000E-03 0.  1.
         23    2    1    0    0    0  0.49073659277E+01 -0.18575768283E+02  0.22714596153E+02  0.95339465785E+02  0.90578802433E+02 0.  0.
         11    1    3    3    0    0 -0.42543674991E+02 -0.32083946818E+01  0.12068016896E+02  0.44338415739E+02  0.51100000000E-03 0. -1.
         22    1    1    0    0    0 -0.49073659277E+01  0.18575768283E+02 -0.22714596153E+02  0.29750534215E+02  0.00000000000E+00 0.  1.
</event>
<event>
 5    1  0.1055265E-009  0.9118800E+02  0.7815553E-02  0.1125453E+00
         25   -1    0    0    0    0  0.00000000000E+00  0.00000000000E+00  0.99999998245E-14  0.12509000000E+03  0.12509000000E+03 0.  0.
        -11    1    3    3    0    0 -0.14164828965E+02  0.28573218683E+01 -0.60826361269E+02  0.62519220192E+02  0.51100000000E-03 0. -1.
         23    2    1    0    0    0 -0.58660207704E+01  0.39412091623E+00 -0.28877843571E+02  0.95619754323E+02  0.90965059426E+02 0.  0.
         11    1    3    3    0    0  0.82988081950E+01 -0.24632009521E+01  0.31948517698E+02  0.33100534131E+02  0.51100000000E-03 0.  1.
         22    1    1    0    0    0  0.58660207704E+01 -0.39412091623E+00  0.28877843571E+02  0.29470245677E+02  0.00000000000E+00 0. -1.
</event>
<event>
 5    1  0.1055265E-009  0.9118800E+02  0.7815553E-02  0.1125453E+00
         25   -1    0    0    0    0  0.00000000000E+00  0.00000000000E+00  0.99999998245E-14  0.12509000000E+03  0.12509000000E+03 0.  0.
        -11    1    3    3    0    0  0.38111053712E+02  0.19004650294E+02  0.38944061651E+02  0.57708483657E+02  0.51100000000E-03 0. -1.
         23    2    1    0    0    0  0.13230243334E+02 -0.63189698271E+01  0.25510359175E+02  0.95666418579E+02  0.91029206852E+02 0.  0.
         11    1    3    3    0    0 -0.24880810378E+02 -0.25323620121E+02 -0.13433702476E+02  0.37957934922E+02  0.51100000000E-03 0.  1.
         22    1    1    0    0    0 -0.13230243334E+02  0.63189698271E+01 -0.25510359175E+02  0.29423581421E+02  0.00000000000E+00 0. -1.
</event>
<event>
 5    1  0.1055265E-009  0.9118800E+02  0.7815553E-02  0.1125453E+00
         25   -1    0    0    0    0  0.00000000000E+00  0.00000000000E+00  0.99999998245E-14  0.12509000000E+03  0.12509000000E+03 0.  0.
        -11    1    3    3    0    0 -0.22483019292E+02  0.20982557123E+02  0.44030723928E+02  0.53707155108E+02  0.51100000000E-03 0. -1.
         23    2    1    0    0    0 -0.26809451371E+02  0.10858029776E+02  0.32088455128E+01  0.95987763265E+02  0.91469724574E+02 0.  0.
         11    1    3    3    0    0 -0.43264320799E+01 -0.10124527347E+02 -0.40821878415E+02  0.42280608157E+02  0.51100000000E-03 0.  1.
         22    1    1    0    0    0  0.26809451371E+02 -0.10858029776E+02 -0.32088455128E+01  0.29102236735E+02  0.00000000000E+00 0. -1.
</event>
<event>
 5    1  0.1055265E-009  0.9118800E+02  0.7815553E-02  0.1125453E+00
         25   -1    0    0    0    0  0.00000000000E+00  0.00000000000E+00  0.99999998245E-14  0.12509000000E+03  0.12509000000E+03 0.  0.
        -11    1    3    3    0    0  0.17664569363E+02 -0.45266535132E+02 -0.36502111311E+02  0.60774174976E+02  0.51100000000E-03 0. -1.
         23    2    1    0    0    0  0.18265328822E+02 -0.17962518522E+02 -0.16670993686E+02  0.94525374383E+02  0.89447470971E+02 0.  0.
         11    1    3    3    0    0  0.60075945874E+00  0.27304016609E+02  0.19831117625E+02  0.33751199407E+02  0.51100000000E-03 0.  1.
         22    1    1    0    0    0 -0.18265328822E+02  0.17962518522E+02  0.16670993686E+02  0.30564625617E+02  0.00000000000E+00 0. -1.
</event>
<event>
 5    1  0.1055265E-009  0.9118800E+02  0.7815553E-02  0.1125453E+00
         25   -1    0    0    0    0  0.00000000000E+00  0.00000000000E+00  0.99999998245E-14  0.12509000000E+03  0.12509000000E+03 0.  0.
        -11    1    3    3    0    0  0.24446794059E+02  0.18559834342E+02  0.30153301396E+02  0.43027139992E+02  0.51100000000E-03 0. -1.
         23    2    1    0    0    0  0.22756833647E+02 -0.16298274280E+02 -0.91998069854E+01  0.95625722125E+02  0.90973265640E+02 0.  0.
         11    1    3    3    0    0 -0.16899604119E+01 -0.34858108622E+02 -0.39353108381E+02  0.52598582133E+02  0.51100000000E-03 0.  1.
         22    1    1    0    0    0 -0.22756833647E+02  0.16298274280E+02  0.91998069854E+01  0.29464277875E+02  0.00000000000E+00 0.  1.
</event>
<event>
 5    1  0.1055265E-009  0.9118800E+02  0.7815553E-02  0.1125453E+00
         25   -1    0    0    0    0  0.00000000000E+00  0.00000000000E+00  0.99999998245E-14  0.12509000000E+03  0.12509000000E+03 0.  0.
        -11    1    3    3    0    0 -0.14789419049E+02  0.36726355418E+02  0.10176210570E+02  0.40879180030E+02  0.51100000000E-03 0.  1.
         23    2    1    0    0    0  0.20814462835E+02 -0.45329089261E+01  0.19549574232E+02  0.96176768097E+02  0.91727835156E+02 0.  0.
         11    1    3    3    0    0  0.35603881884E+02 -0.41259264344E+02  0.93733636620E+01  0.55297588067E+02  0.51100000000E-03 0. -1.
         22    1    1    0    0    0 -0.20814462835E+02  0.45329089261E+01 -0.19549574232E+02  0.28913231903E+02  0.00000000000E+00 0. -1.
</event>
<event>
 5    1  0.1055265E-009  0.9118800E+02  0.7815553E-02  0.1125453E+00
         25   -1    0    0    0    0  0.00000000000E+00  0.00000000000E+00  0.99999998245E-14  0.12509000000E+03  0.12509000000E+03 0.  0.
        -11    1    3    3    0    0  0.38425561706E+01 -0.24912480985E+02  0.29637036718E+02  0.38906951723E+02  0.51100000000E-03 0. -1.
         23    2    1    0    0    0  0.93186631703E+01 -0.13952991819E+02 -0.25044695372E+02  0.94944349729E+02  0.90031490687E+02 0.  0.
         11    1    3    3    0    0  0.54761069997E+01  0.10959489166E+02 -0.54681732090E+02  0.56037398006E+02  0.51100000000E-03 0.  1.
         22    1    1    0    0    0 -0.93186631703E+01  0.13952991819E+02  0.25044695372E+02  0.30145650271E+02  0.00000000000E+00 0.  1.
</event>
<event>
 5    1  0.1055265E-009  0.9118800E+02  0.7815553E-02  0.1125453E+00
         25   -1    0    0    0    0  0.00000000000E+00  0.00000000000E+00  0.99999998245E-14  0.12509000000E+03  0.12509000000E+03 0.  0.
        -11    1    3    3    0    0  0.32383605716E+02 -0.22414867086E+01  0.50820033121E+02  0.60302553417E+02  0.51100000000E-03 0.  1.
         23    2    1    0    0    0  0.20602383505E+02 -0.10029102152E+02  0.18270311897E+02  0.95783935902E+02  0.91190553151E+02 0.  0.
         11    1    3    3    0    0 -0.11781222211E+02 -0.77876154432E+01 -0.32549721224E+02  0.35481382486E+02  0.51100000000E-03 0. -1.
         22    1    1    0    0    0 -0.20602383505E+02  0.10029102152E+02 -0.18270311897E+02  0.29306064098E+02  0.00000000000E+00 0.  1.
</event>
<event>
 5    1  0.1055265E-009  0.9118800E+02  0.7815553E-02  0.1125453E+00
         25   -1    0    0    0    0  0.00000000000E+00  0.00000000000E+00  0.99999998245E-14  0.12509000000E+03  0.12509000000E+03 0.  0.
        -11    1    3    3    0    0  0.14644091576E+02  0.22393155822E+02  0.11368990150E+02  0.29071580333E+02  0.51100000000E-03 0. -1.
         23    2    1    0    0    0 -0.90308973183E+01 -0.33283619433E+02  0.15934767657E+00  0.90602584605E+02  0.83782137216E+02 0.  0.
         11    1    3    3    0    0 -0.23674988894E+02 -0.55676775256E+02 -0.11209642473E+02  0.61531004272E+02  0.51100000000E-03 0.  1.
         22    1    1    0    0    0  0.90308973183E+01  0.33283619433E+02 -0.15934767657E+00  0.34487415395E+02  0.00000000000E+00 0.  1.
</event>
<event>
 5    1  0.1055265E-009  0.9118800E+02  0.7815553E-02  0.1125453E+00
         25   -1    0    0    0    0  0.00000000000E+00  0.00000000000E+00  0.99999998245E-14  0.12509000000E+03  0.12509000000E+03 0.  0.
        -11    1    3    3    0    0 -0.15899120875E+02  0.38375512421E+02 -0.41626198319E+02  0.58806482508E+02  0.51100000000E-03 0. -1.
         23    2    1    0    0    0  0.64406930727E+01  0.23837458615E+02 -0.16856903585E+02  0.95192472360E+02  0.90375575434E+02 0.  0.
         11    1    3    3    0    0  0.22339813948E+02 -0.14538053806E+02  0.24769294734E+02  0.36385989853E+02  0.51100000000E-03 0.  1.
         22    1    1    0    0    0 -0.64406930727E+01 -0.23837458615E+02  0.16856903585E+02  0.29897527640E+02  0.00000000000E+00 0. -1.
</event>
<event>
 5    1  0.1055265E-009  0.9118800E+02  0.7815553E-02  0.1125453E+00
         25   -1    0    0    0    0  0.00000000000E+00  0.00000000000E+00  0.99999998245E-14  0.12509000000E+03  0.12509000000E+03 0.  0.
        -11    1    3    3    0    0  0.38589209298E+02 -0.15200366782E+02 -0.84857356491E+00  0.41483711284E+02  0.51100000000E-03 0.  1.
         23    2    1    0    0    0  0.73584039238E+01  0.13257750484E+02  0.28416648256E+02  0.92880995757E+02  0.87117503514E+02 0.  0.
         11    1    3    3    0    0 -0.31230805374E+02  0.28458117266E+02  0.29265221821E+02  0.51397284473E+02  0.51100000000E-03 0. -1.
         22    1    1    0    0    0 -0.73584039238E+01 -0.13257750484E+02 -0.28416648256E+02  0.32209004243E+02  0.00000000000E+00 0. -1.
</event>
<event>
 5    1  0.1055265E-009  0.9118800E+02  0.7815553E-02  0.1125453E+00
         25   -1    0    0    0    0  0.00000000000E+00  0.00000000000E+00  0.99999998245E-14  0.12509000000E+03  0.12509000000E+03 0.  0.
        -11    1    3    3    0    0 -0.16876003575E+02  0.38835336956E+02 -0.45548408263E+02  0.62190356075E+02  0.51100000000E-03 0.  1.
         23    2    1    0    0    0 -0.50632650749E+01  0.21786602849E+02 -0.20120444881E+02  0.95004704270E+02  0.90115308435E+02 0.  0.
         11    1    3    3    0    0  0.11812738500E+02 -0.17048734107E+02  0.25427963382E+02  0.32814348196E+02  0.51100000000E-03 0. -1.
         22    1    1    0    0    0  0.50632650749E+01 -0.21786602849E+02  0.20120444881E+02  0.30085295730E+02  0.00000000000E+00 0.  1.
</event>
<event>
 5    1  0.1055265E-009  0.9118800E+02  0.7815553E-02  0.1125453E+00
         25   -1    0    0    0    0  0.00000000000E+00  0.00000000000E+00  0.99999998245E-14  0.12509000000E+03  0.12509000000E+03 0.  0.
        -11    1    3    3    0    0 -0.37462761429E+01  0.45112855264E+02 -0.10028541687E+02  0.46365676353E+02  0.51100000000E-03 0. -1.
         23    2    1    0    0    0 -0.30075206712E+02  0.57902458303E+01 -0.61812517304E+01  0.93844954336E+02  0.88490805036E+02 0.  0.
         11    1    3    3    0    0 -0.26328930569E+02 -0.39322609434E+02  0.38472899562E+01  0.47479277984E+02  0.51100000000E-03 0.  1.
         22    1    1    0    0    0  0.30075206712E+02 -0.57902458303E+01  0.61812517304E+01  0.31245045664E+02  0.00000000000E+00 0. -1.
</event>
<event>
 5    1  0.1055265E-009  0.9118800E+02  0.7815553E-02  0.1125453E+00
         25   -1    0    0    0    0  0.00000000000E+00  0.00000000000E+00  0.99999998245E-14  0.12509000000E+03  0.12509000000E+03 0.  0.
        -11    1    3    3    0    0 -0.13542960644E+02  0.26379979143E+02  0.19355417607E+02  0.35411117938E+02  0.51100000000E-03 0.  1.
         23    2    1    0    0    0  0.19484867969E+02 -0.25272855478E+01 -0.21913983683E+02  0.95657536072E+02  0.91016999920E+02 0.  0.
         11    1    3    3    0    0  0.33027828614E+02 -0.28907264691E+02 -0.41269401290E+02  0.60246418134E+02  0.51100000000E-03 0. -1.
         22    1    1    0    0    0 -0.19484867969E+02  0.25272855478E+01  0.21913983683E+02  0.29432463928E+02  0.00000000000E+00 0. -1.
</event>
<event>
 5    1  0.1055265E-009  0.9118800E+02  0.7815553E-02  0.1125453E+00
         25   -1    0    0    0    0  0.00000000000E+00  0.00000000000E+00  0.99999998245E-14  0.12509000000E+03  0.12509000000E+03 0.  0.
        -11    1    3    3    0    0  0.47494620281E+02 -0.13989802917E+01  0.31676930813E+02  0.57106252263E+02  0.51100000000E-03 0. -1.
         23    2    1    0    0    0  0.10942573011E+02 -0.91594012453E+01  0.26717096697E+02  0.94800764433E+02  0.89831771361E+02 0.  0.
         11    1    3    3    0    0 -0.36552047270E+02 -0.77604209537E+01 -0.49598341159E+01  0.37694512170E+02  0.51100000000E-03 0.  1.
         22    1    1    0    0    0 -0.10942573011E+02  0.91594012453E+01 -0.26717096697E+02  0.30289235567E+02  0.00000000000E+00 0. -1.
</event>
<event>
 5    1  0.1055265E-009  0.9118800E+02  0.7815553E-02  0.1125453E+00
         25   -1    0    0    0    0  0.00000000000E+00  0.00000000000E+00  0.99999998245E-14  0.12509000000E+03  0.12509000000E+03 0.  0.
        -11    1    3    3    0    0  0.48709997582E+01 -0.35502988635E+02 -0.17563509297E+02  0.39908215943E+02  0.51100000000E-03 0. -1.
         23    2    1    0    0    0  0.90461748962E+01  0.21163730902E+02 -0.16556870844E+02  0.96737455880E+02  0.92489289175E+02 0.  0.
         11    1    3    3    0    0  0.41751751380E+01  0.56666719537E+02  0.10066384538E+01  0.56829239937E+02  0.51100000000E-03 0.  1.
         22    1    1    0    0    0 -0.90461748962E+01 -0.21163730902E+02  0.16556870844E+02  0.28352544120E+02  0.00000000000E+00 0.  1.
</event>
<event>
 5    1  0.1055265E-009  0.9118800E+02  0.7815553E-02  0.1125453E+00
         25   -1    0    0    0    0  0.00000000000E+00  0.00000000000E+00  0.99999998245E-14  0.12509000000E+03  0.12509000000E+03 0.  0.
        -11    1    3    3    0    0 -0.61006981603E+02 -0.17773587030E+01  0.69934297057E+01  0.61432229876E+02  0.51100000000E-03 0. -1.
         23    2    1    0    0    0 -0.24856475618E+02 -0.79323244417E+01  0.68939625829E+01  0.98103098153E+02  0.94318211370E+02 0.  0.
         11    1    3    3    0    0  0.36150505985E+02 -0.61549657387E+01 -0.99467122759E-01  0.36670868277E+02  0.51100000000E-03 0.  1.
         22    1    1    0    0    0  0.24856475618E+02  0.79323244417E+01 -0.68939625829E+01  0.26986901847E+02  0.00000000000E+00 0. -1.
</event>
<event>
 5    1  0.1055265E-009  0.9118800E+02  0.7815553E-02  0.1125453E+00
         25   -1    0    0    0    0  0.00000000000E+00  0.00000000000E+00  0.99999998245E-14  0.12509000000E+03  0.12509000000E+03 0.  0.
        -11    1    3    3    0    0 -0.93169087674E+01  0.17704330068E+02 -0.28502822084E+02  0.34823253138E+02  0.51100000000E-03 0. -1.
         23    2    1    0    0    0  0.19845160479E+02 -0.17375576270E+02  0.12262539376E+02  0.96002014214E+02  0.91489211473E+02 0.  0.
         11    1    3    3    0    0  0.29162069246E+02 -0.35079906339E+02  0.40765361460E+02  0.61178761075E+02  0.51100000000E-03 0.  1.
         22    1    1    0    0    0 -0.19845160479E+02  0.17375576270E+02 -0.12262539376E+02  0.29087985786E+02  0.00000000000E+00 0.  1.
</event>
<event>
 5    1  0.1055265E-009  0.9118800E+02  0.7815553E-02  0.1125453E+00
         25   -1    0    0    0    0  0.00000000000E+00  0.00000000000E+00  0.99999998245E-14  0.12509000000E+03  0.12509000000E+03 0.  0.
        -11    1    3    3    0    0 -0.24979248818E+02 -0.33352717394E+02  0.19935073800E+02  0.46192789445E+02  0.51100000000E-03 0.  1.
         23    2    1    0    0    0 -0.92125550783E+01 -0.13310305785E+02 -0.23496411172E+02  0.96557268810E+02  0.92245267688E+02 0.  0.
         11    1    3    3    0    0  0.15766693739E+02  0.20042411609E+02 -0.43431484972E+02  0.50364479365E+02  0.51100000000E-03 0. -1.
         22    1    1    0    0    0  0.92125550783E+01  0.13310305785E+02  0.23496411172E+02  0.28532731190E+02  0.00000000000E+00 0. -1.
</event>
<event>
 5    1  0.1055265E-009  0.9118800E+02  0.7815553E-02  0.1125453E+00
         25   -1    0    0    0    0  0.00000000000E+00  0.00000000000E+00  0.99999998245E-14  0.12509000000E+03  0.12509000000E+03 0.  0.
        -11    1    3    3    0    0  0.84169524392E+01 -0.43346681889E+02 -0.10599781893E+02  0.45410739870E+02  0.51100000000E-03 0. -1.
         23    2    1    0    0    0 -0.19071090530E+02 -0.13849862786E+02  0.18493850412E+02  0.95130899608E+02  0.90290311574E+02 0.  0.
         11    1    3    3    0    0 -0.27488042969E+02  0.29496819102E+02  0.29093632305E+02  0.49720159738E+02  0.51100000000E-03 0.  1.
         22    1    1    0    0    0  0.19071090530E+02  0.13849862786E+02 -0.18493850412E+02  0.29959100392E+02  0.00000000000E+00 0.  1.
</event>
<event>
 5    1  0.1055265E-009  0.9118800E+02  0.7815553E-02  0.1125453E+00
         25   -1    0    0    0    0  0.00000000000E+00  0.00000000000E+00  0.99999998245E-14  0.12509000000E+03  0.12509000000E+03 0.  0.
        -11    1    3    3    0    0 -0.61492826158E+01 -0.86803500860E+01  0.54320692969E+02  0.55352505265E+02  0.51100000000E-03 0.  1.
         23    2    1    0    0    0  0.59709172443E+00  0.16894469106E+02  0.25750449927E+02  0.94286343134E+02  0.89112564912E+02 0.  0.
         11    1    3    3    0    0  0.67463743402E+01  0.25574819192E+02 -0.28570243041E+02  0.38933837868E+02  0.51100000000E-03 0. -1.
         22    1    1    0    0    0 -0.59709172443E+00 -0.16894469106E+02 -0.25750449927E+02  0.30803656866E+02  0.00000000000E+00 0.  1.
</event>
<event>
 5    1  0.1055265E-009  0.9118800E+02  0.7815553E-02  0.1125453E+00
         25   -1    0    0    0    0  0.00000000000E+00  0.00000000000E+00  0.99999998245E-14  0.12509000000E+03  0.12509000000E+03 0.  0.
        -11    1    3    3    0    0 -0.27342483240E+02 -0.20444725594E+02 -0.36245346191E+02  0.49792803849E+02  0.51100000000E-03 0.  1.
         23    2    1    0    0    0 -0.10463451696E+02  0.19080886014E+02 -0.19338599894E+02  0.95977365658E+02  0.91455504155E+02 0.  0.
         11    1    3    3    0    0  0.16879031544E+02  0.39525611609E+02  0.16906746297E+02  0.46184561809E+02  0.51100000000E-03 0. -1.
         22    1    1    0    0    0  0.10463451696E+02 -0.19080886014E+02  0.19338599894E+02  0.29112634342E+02  0.00000000000E+00 0.  1.
</event>
<event>
 5    1  0.1055265E-009  0.9118800E+02  0.7815553E-02  0.1125453E+00
         25   -1    0    0    0    0  0.00000000000E+00  0.00000000000E+00  0.99999998245E-14  0.12509000000E+03  0.12509000000E+03 0.  0.
        -11    1    3    3    0    0 -0.33694451468E+02 -0.34531458774E+02 -0.32724831792E+02  0.58297961550E+02  0.51100000000E-03 0.  1.
         23    2    1    0    0    0 -0.11275561486E+02 -0.60873549350E+01 -0.27317582791E+02  0.94916427018E+02  0.89992686433E+02 0.  0.
         11    1    3    3    0    0  0.22418889982E+02  0.28444103839E+02  0.54072490004E+01  0.36618465468E+02  0.51100000000E-03 0. -1.
         22    1    1    0    0    0  0.11275561486E+02  0.60873549350E+01  0.27317582791E+02  0.30173572982E+02  0.00000000000E+00 0.  1.
</event>
<event>
 5    1  0.1055265E-009  0.9118800E+02  0.7815553E-02  0.1125453E+00
         25   -1    0    0    0    0  0.00000000000E+00  0.00000000000E+00  0.99999998245E-14  0.12509000000E+03  0.12509000000E+03 0.  0.
        -11    1    3    3    0    0 -0.25631279543E+02 -0.30329416613E+02  0.77633312534E+01  0.40461158108E+02  0.51100000000E-03 0.  1.
         23    2    1    0    0    0  0.24863014457E+02 -0.69344401088E+01  0.12685887188E+02  0.96329129338E+02  0.91935376639E+02 0.  0.
         11    1    3    3    0    0  0.50494293999E+02  0.23394976504E+02  0.49225559349E+01  0.55867971229E+02  0.51100000000E-03 0. -1.
         22    1    1    0    0    0 -0.24863014457E+02  0.69344401088E+01 -0.12685887188E+02  0.28760870662E+02  0.00000000000E+00 0. -1.
</event>
<event>
 5    1  0.1055265E-009  0.9118800E+02  0.7815553E-02  0.1125453E+00
         25   -1    0    0    0    0  0.00000000000E+00  0.00000000000E+00  0.99999998245E-14  0.12509000000E+03  0.12509000000E+03 0.  0.
        -11    1    3    3    0    0  0.80326703660E+00 -0.65879098436E+01  0.33986495086E+02  0.34628422466E+02  0.51100000000E-03 0.  1.
         23    2    1    0    0    0 -0.67370544025E+01  0.20823493274E+02 -0.19870942650E+02  0.95528874583E+02  0.90840000788E+02 0.  0.
         11    1    3    3    0    0 -0.75403214391E+01  0.27411403117E+02 -0.53857437736E+02  0.60900452116E+02  0.51100000000E-03 0. -1.
         22    1    1    0    0    0  0.67370544025E+01 -0.20823493274E+02  0.19870942650E+02  0.29561125417E+02  0.00000000000E+00 0. -1.
</event>
<event>
 5    1  0.1055265E-009  0.9118800E+02  0.7815553E-02  0.1125453E+00
         25   -1    0    0    0    0  0.00000000000E+00  0.00000000000E+00  0.99999998245E-14  0.12509000000E+03  0.12509000000E+03 0.  0.
        -11    1    3    3    0    0 -0.32273256697E+02 -0.52427240342E+01 -0.12527134038E+02  0.35013973505E+02  0.51100000000E-03 0.  1.
         23    2    1    0    0    0  0.22773677766E+02  0.18405289316E+02 -0.46731717825E+01  0.95438126395E+02  0.90714951147E+02 0.  0.
         11    1    3    3    0    0  0.55046934463E+02  0.23648013350E+02  0.78539622558E+01  0.60424152890E+02  0.51100000000E-03 0. -1.
         22    1    1    0    0    0 -0.22773677766E+02 -0.18405289316E+02  0.46731717825E+01  0.29651873605E+02  0.00000000000E+00 0. -1.
</event>
<event>
 5    1  0.1055265E-009  0.9118800E+02  0.7815553E-02  0.1125453E+00
         25   -1    0    0    0    0  0.00000000000E+00  0.00000000000E+00  0.99999998245E-14  0.12509000000E+03  0.12509000000E+03 0.  0.
        -11    1    3    3    0    0  0.38171063717E+02  0.45305421372E+01 -0.16813163945E+02  0.41955195143E+02  0.51100000000E-03 0. -1.
         23    2    1    0    0    0  0.10066161674E+02 -0.32550404417E+01  0.27850993278E+02  0.95297371286E+02  0.90520650949E+02 0.  0.
         11    1    3    3    0    0 -0.28104902043E+02 -0.77855825789E+01  0.44664157223E+02  0.53342176143E+02  0.51100000000E-03 0.  1.
         22    1    1    0    0    0 -0.10066161674E+02  0.32550404417E+01 -0.27850993278E+02  0.29792628714E+02  0.00000000000E+00 0.  1.
</event>
<event>
 5    1  0.1055265E-009  0.9118800E+02  0.7815553E-02  0.1125453E+00
         25   -1    0    0    0    0  0.00000000000E+00  0.00000000000E+00  0.99999998245E-14  0.12509000000E+03  0.12509000000E+03 0.  0.
        -11    1    3    3    0    0  0.42426375535E+02  0.73435126449E+01  0.90444881443E+01  0.43996900858E+02  0.51100000000E-03 0. -1.
         23    2    1    0    0    0  0.36498487288E+01  0.20537398124E+02 -0.21532329209E+02  0.95110885293E+02  0.90262579083E+02 0.  0.
         11    1    3    3    0    0 -0.38776526806E+02  0.13193885479E+02 -0.30576817353E+02  0.51113984436E+02  0.51100000000E-03 0.  1.
         22    1    1    0    0    0 -0.36498487288E+01 -0.20537398124E+02  0.21532329209E+02  0.29979114707E+02  0.00000000000E+00 0. -1.
</event>
<event>
 5    1  0.1055265E-009  0.9118800E+02  0.7815553E-02  0.1125453E+00
         25   -1    0    0    0    0  0.00000000000E+00  0.00000000000E+00  0.99999998245E-14  0.12509000000E+03  0.12509000000E+03 0.  0.
        -11    1    3    3    0    0  0.19812066396E+02  0.18397713475E+02 -0.21409334705E+02  0.34487004056E+02  0.51100000000E-03 0.  1.
         23    2    1    0    0    0 -0.73078344259E+01 -0.28045701501E+02 -0.22687402108E+02  0.88283967463E+02  0.80245715648E+02 0.  0.
         11    1    3    3    0    0 -0.27119900822E+02 -0.46443414976E+02 -0.12780674025E+01  0.53796963407E+02  0.51100000000E-03 0. -1.
         22    1    1    0    0    0  0.73078344259E+01  0.28045701501E+02  0.22687402108E+02  0.36806032537E+02  0.00000000000E+00 0. -1.
</event>
<event>
 5    1  0.1055265E-009  0.9118800E+02  0.7815553E-02  0.1125453E+00
         25   -1    0    0    0    0  0.00000000000E+00  0.00000000000E+00  0.99999998245E-14  0.12509000000E+03  0.12509000000E+03 0.  0.
        -11    1    3    3    0    0  0.10278631590E+02 -0.10887987323E+02 -0.50560924786E+02  0.52731448404E+02  0.51100000000E-03 0.  1.
         23    2    1    0    0    0  0.27695779926E+02 -0.33570262893E+01 -0.14108721701E+02  0.93826892681E+02  0.88465269518E+02 0.  0.
         11    1    3    3    0    0  0.17417148336E+02  0.75309610341E+01  0.36452203086E+02  0.41095444277E+02  0.51100000000E-03 0. -1.
         22    1    1    0    0    0 -0.27695779926E+02  0.33570262893E+01  0.14108721701E+02  0.31263107319E+02  0.00000000000E+00 0. -1.
</event>
<event>
 5    1  0.1055265E-009  0.9118800E+02  0.7815553E-02  0.1125453E+00
         25   -1    0    0    0    0  0.00000000000E+00  0.00000000000E+00  0.99999998245E-14  0.12509000000E+03  0.12509000000E+03 0.  0.
        -11    1    3    3    0    0  0.28176818584E+02  0.16810840235E+01 -0.45630380907E+02  0.53655296206E+02  0.51100000000E-03 0. -1.
         23    2    1    0    0    0  0.24117398362E+02 -0.46939595116E+01  0.61319789718E+00  0.10051240510E+03  0.97461199494E+02 0.  0.
         11    1    3    3    0    0 -0.40594202219E+01 -0.63750435351E+01  0.46243578804E+02  0.46857108889E+02  0.51100000000E-03 0.  1.
         22    1    1    0    0    0 -0.24117398362E+02  0.46939595116E+01 -0.61319789718E+00  0.24577594905E+02  0.00000000000E+00 0.  1.
</event>
<event>
 5    1  0.1055265E-009  0.9118800E+02  0.7815553E-02  0.1125453E+00
         25   -1    0    0    0    0  0.00000000000E+00  0.00000000000E+00  0.99999998245E-14  0.12509000000E+03  0.12509000000E+03 0.  0.
        -11    1    3    3    0    0 -0.81906316050E+01 -0.44235056101E+02 -0.16578531648E+02  0.47944492345E+02  0.51100000000E-03 0. -1.
         23    2    1    0    0    0 -0.88539008522E+01 -0.15136461184E+02  0.22432295007E+02  0.96616997405E+02  0.92326227644E+02 0.  0.
         11    1    3    3    0    0 -0.66326924717E+00  0.29098594918E+02  0.39010826655E+02  0.48672505060E+02  0.51100000000E-03 0.  1.
         22    1    1    0    0    0  0.88539008522E+01  0.15136461184E+02 -0.22432295007E+02  0.28473002595E+02  0.00000000000E+00 0. -1.
</event>
<event>
 5    1  0.1055265E-009  0.9118800E+02  0.7815553E-02  0.1125453E+00
         25   -1    0    0    0    0  0.00000000000E+00  0.00000000000E+00  0.99999998245E-14  0.12509000000E+03  0.12509000000E+03 0.  0.
        -11    1    3    3    0    0 -0.34271260444E+02 -0.21084056347E+02 -0.59255444374E+01  0.40671474053E+02  0.51100000000E-03 0. -1.
         23    2    1    0    0    0 -0.49880585649E+00  0.19058412198E+01  0.29969992388E+02  0.95055328672E+02  0.90185553318E+02 0.  0.
         11    1    3    3    0    0  0.33772454588E+02  0.22989897567E+02  0.35895536825E+02  0.54383854619E+02  0.51100000000E-03 0.  1.
         22    1    1    0    0    0  0.49880585649E+00 -0.19058412198E+01 -0.29969992388E+02  0.30034671328E+02  0.00000000000E+00 0.  1.
</event>
<event>
 5    1  0.1055265E-009  0.9118800E+02  0.7815553E-02  0.1125453E+00
         25   -1    0    0    0    0  0.00000000000E+00  0.00000000000E+00  0.99999998245E-14  0.12509000000E+03  0.12509000000E+03 0.  0.
        -11    1    3    3    0    0 -0.30621504925E+02  0.18899760154E+02 -0.89756032994E+01  0.37086910799E+02  0.51100000000E-03 0. -1.
         23    2    1    0    0    0  0.20653549713E+02  0.13307214551E+02  0.17365855407E+02  0.95003059164E+02  0.90113024817E+02 0.  0.
         11    1    3    3    0    0  0.51275054638E+02 -0.55925456032E+01  0.26341458706E+02  0.57916148365E+02  0.51100000000E-03 0.  1.
         22    1    1    0    0    0 -0.20653549713E+02 -0.13307214551E+02 -0.17365855407E+02  0.30086940836E+02  0.00000000000E+00 0.  1.
</event>
<event>
 5    1  0.1055265E-009  0.9118800E+02  0.7815553E-02  0.1125453E+00
         25   -1    0    0    0    0  0.00000000000E+00  0.00000000000E+00  0.99999998245E-14  0.12509000000E+03  0.12509000000E+03 0.  0.
        -11    1    3    3    0    0  0.42496973813E+02 -0.11998319474E+02 -0.15215284897E+02  0.46706073997E+02  0.51100000000E-03 0.  1.
         23    2    1    0    0    0  0.82501203076E+01 -0.22645479771E+02  0.17543873684E+02  0.95279435715E+02  0.90495862486E+02 0.  0.
         11    1    3    3    0    0 -0.34246853505E+02 -0.10647160298E+02  0.32759158581E+02  0.48573361718E+02  0.51100000000E-03 0. -1.
         22    1    1    0    0    0 -0.82501203076E+01  0.22645479771E+02 -0.17543873684E+02  0.29810564285E+02  0.00000000000E+00 0.  1.
</event>
<event>
 5    1  0.1055265E-009  0.9118800E+02  0.7815553E-02  0.1125453E+00
         25   -1    0    0    0    0  0.00000000000E+00  0.00000000000E+00  0.99999998245E-14  0.12509000000E+03  0.12509000000E+03 0.  0.
        -11    1    3    3    0    0  0.26364567246E+02  0.22101611546E+02  0.86016498129E+01  0.35462092701E+02  0.51100000000E-03 0. -1.
         23    2    1    0    0    0 -0.11914905262E+02 -0.14046295734E+02 -0.22030161233E+02  0.96374300545E+02  0.91996817392E+02 0.  0.
         11    1    3    3    0    0 -0.38279472507E+02 -0.36147907280E+02 -0.30631811046E+02  0.60912207844E+02  0.51100000000E-03 0.  1.
         22    1    1    0    0    0  0.11914905262E+02  0.14046295734E+02  0.22030161233E+02  0.28715699455E+02  0.00000000000E+00 0.  1.
</event>
<event>
 5    1  0.1055265E-009  0.9118800E+02  0.7815553E-02  0.1125453E+00
         25   -1    0    0    0    0  0.00000000000E+00  0.00000000000E+00  0.99999998245E-14  0.12509000000E+03  0.12509000000E+03 0.  0.
        -11    1    3    3    0    0  0.44037147844E+02 -0.21011646433E+02  0.32564758281E+01  0.48901577798E+02  0.51100000000E-03 0. -1.
         23    2    1    0    0    0  0.14893000079E+02  0.81344389138E+01 -0.22048643231E+02  0.97267109853E+02  0.93202883233E+02 0.  0.
         11    1    3    3    0    0 -0.29144147765E+02  0.29146085347E+02 -0.25305119059E+02  0.48365532054E+02  0.51100000000E-03 0.  1.
         22    1    1    0    0    0 -0.14893000079E+02 -0.81344389138E+01  0.22048643231E+02  0.27822890147E+02  0.00000000000E+00 0.  1.
</event>
<event>
 5    1  0.1055265E-009  0.9118800E+02  0.7815553E-02  0.1125453E+00
         25   -1    0    0    0    0  0.00000000000E+00  0.00000000000E+00  0.99999998245E-14  0.12509000000E+03  0.12509000000E+03 0.  0.
        -11    1    3    3    0    0 -0.43245783749E+02 -0.34966825486E+02 -0.28309176524E+02  0.62404215982E+02  0.51100000000E-03 0. -1.
         23    2    1    0    0    0 -0.18035885364E+02 -0.18380427885E+02 -0.13229673443E+02  0.96139049247E+02  0.91676383222E+02 0.  0.
         11    1    3    3    0    0  0.25209898386E+02  0.16586397601E+02  0.15079503081E+02  0.33734833265E+02  0.51100000000E-03 0.  1.
         22    1    1    0    0    0  0.18035885364E+02  0.18380427885E+02  0.13229673443E+02  0.28950950753E+02  0.00000000000E+00 0. -1.
</event>
<event>
 5    1  0.1055265E-009  0.9118800E+02  0.7815553E-02  0.1125453E+00
         25   -1    0    0    0    0  0.00000000000E+00  0.00000000000E+00  0.99999998245E-14  0.12509000000E+03  0.12509000000E+03 0.  0.
        -11    1    3    3    0    0  0.70807629117E+01  0.32927285965E+02  0.36566403230E+01  0.33877933572E+02  0.51100000000E-03 0.  1.
         23    2    1    0    0    0 -0.14952204198E+02 -0.23909982446E+02  0.10008412008E+02  0.95166364160E+02  0.90339431510E+02 0.  0.
         11    1    3    3    0    0 -0.22032967110E+02 -0.56837268411E+02  0.63517716850E+01  0.61288430588E+02  0.51100000000E-03 0. -1.
         22    1    1    0    0    0  0.14952204198E+02  0.23909982446E+02 -0.10008412008E+02  0.29923635840E+02  0.00000000000E+00 0. -1.
</event>
<event>
 5    1  0.1055265E-009  0.9118800E+02  0.7815553E-02  0.1125453E+00
         25   -1    0    0    0    0  0.00000000000E+00  0.00000000000E+00  0.99999998245E-14  0.12509000000E+03  0.12509000000E+03 0.  0.
        -11    1    3    3    0    0 -0.47588218541E+00 -0.37695473736E+02  0.39527794440E+01  0.37905140411E+02  0.51100000000E-03 0.  1.
         23    2    1    0    0    0  0.16230548628E+02  0.11615071313E+02 -0.21411727716E+02  0.95818808118E+02  0.91238376328E+02 0.  0.
         11    1    3    3    0    0  0.16706430814E+02  0.49310545048E+02 -0.25364507160E+02  0.57913667707E+02  0.51100000000E-03 0. -1.
         22    1    1    0    0    0 -0.16230548628E+02 -0.11615071313E+02  0.21411727716E+02  0.29271191882E+02  0.00000000000E+00 0. -1.
</event>
<event>
 5    1  0.1055265E-009  0.9118800E+02  0.7815553E-02  0.1125453E+00
         25   -1    0    0    0    0  0.00000000000E+00  0.00000000000E+00  0.99999998245E-14  0.12509000000E+03  0.12509000000E+03 0.  0.
        -11    1    3    3    0    0 -0.14251672167E+02 -0.35845354066E+02  0.10856059241E+02  0.40073103077E+02  0.51100000000E-03 0.  1.
         23    2    1    0    0    0 -0.24060204267E+02  0.42902085819E+01 -0.21490407535E+02  0.92545615921E+02  0.86634601004E+02 0.  0.
         11    1    3    3    0    0 -0.98085321002E+01  0.40135562648E+02 -0.32346466776E+02  0.52472512844E+02  0.51100000000E-03 0. -1.
         22    1    1    0    0    0  0.24060204267E+02 -0.42902085819E+01  0.21490407535E+02  0.32544384079E+02  0.00000000000E+00 0. -1.
</event>
<event>
 5    1  0.1055265E-009  0.9118800E+02  0.7815553E-02  0.1125453E+00
         25   -1    0    0    0    0  0.00000000000E+00  0.00000000000E+00  0.99999998245E-14  0.12509000000E+03  0.12509000000E+03 0.  0.
        -11    1    3    3    0    0 -0.54633021674E+01  0.17604894513E+01  0.44934412583E+02  0.45299541147E+02  0.51100000000E-03 0. -1.
         23    2    1    0    0    0 -0.28925044143E+02 -0.67437216084E+01  0.15506500887E+01  0.95348774815E+02  0.90591657360E+02 0.  0.
         11    1    3    3    0    0 -0.23461741976E+02 -0.85042110597E+01 -0.43383762494E+02  0.50049233668E+02  0.51100000000E-03 0.  1.
         22    1    1    0    0    0  0.28925044143E+02  0.67437216084E+01 -0.15506500887E+01  0.29741225185E+02  0.00000000000E+00 0.  1.
</event>
<event>
 5    1  0.1055265E-009  0.9118800E+02  0.7815553E-02  0.1125453E+00
         25   -1    0    0    0    0  0.00000000000E+00  0.00000000000E+00  0.99999998245E-14  0.12509000000E+03  0.12509000000E+03 0.  0.
        -11    1    3    3    0    0  0.12022506538E+01 -0.33818677594E+02  0.17251880730E+02  0.37983888029E+02  0.51100000000E-03 0. -1.
         23    2    1    0    0    0 -0.69361876777E+01  0.10316626916E+01 -0.28312159724E+02  0.95922322416E+02  0.91380186704E+02 0.  0.
         11    1    3    3    0    0 -0.81384383315E+01  0.34850340285E+02 -0.45564040454E+02  0.57938434387E+02  0.51100000000E-03 0.  1.
         22    1    1    0    0    0  0.69361876777E+01 -0.10316626916E+01  0.28312159724E+02  0.29167677584E+02  0.00000000000E+00 0.  1.
</event>
<event>
 5    1  0.1055265E-009  0.9118800E+02  0.7815553E-02  0.1125453E+00
         25   -1    0    0    0    0  0.00000000000E+00  0.00000000000E+00  0.99999998245E-14  0.12509000000E+03  0.12509000000E+03 0.  0.
        -11    1    3    3    0    0 -0.18830728931E+02  0.29246626155E+02 -0.15211527929E+02  0.37965142904E+02  0.51100000000E-03 0.  1.
         23    2    1    0    0    0  0.13742214860E+02 -0.21473678049E+02 -0.38211957863E+01  0.99310766973E+02  0.95906514801E+02 0.  0.
         11    1    3    3    0    0  0.32572943791E+02 -0.50720304205E+02  0.11390332142E+02  0.61345624069E+02  0.51100000000E-03 0. -1.
         22    1    1    0    0    0 -0.13742214860E+02  0.21473678049E+02  0.38211957863E+01  0.25779233027E+02  0.00000000000E+00 0. -1.
</event>
<event>
 5    1  0.1055265E-009  0.9118800E+02  0.7815553E-02  0.1125453E+00
         25   -1    0    0    0    0  0.00000000000E+00  0.00000000000E+00  0.99999998245E-14  0.12509000000E+03  0.12509000000E+03 0.  0.
        -11    1    3    3    0    0 -0.35590336566E+02 -0.28955432917E+02 -0.23130219138E+02  0.51381866353E+02  0.51100000000E-03 0.  1.
         23    2    1    0    0    0 -0.14923850670E+02 -0.18325288297E+02  0.15757717894E+02  0.96685014817E+02  0.92418336422E+02 0.  0.
         11    1    3    3    0    0  0.20666485895E+02  0.10630144620E+02  0.38887937032E+02  0.45303148464E+02  0.51100000000E-03 0. -1.
         22    1    1    0    0    0  0.14923850670E+02  0.18325288297E+02 -0.15757717894E+02  0.28404985183E+02  0.00000000000E+00 0. -1.
</event>
<event>
 5    1  0.1055265E-009  0.9118800E+02  0.7815553E-02  0.1125453E+00
         25   -1    0    0    0    0  0.00000000000E+00  0.00000000000E+00  0.99999998245E-14  0.12509000000E+03  0.12509000000E+03 0.  0.
        -11    1    3    3    0    0  0.26978725298E+02 -0.32680077334E+02  0.24543078993E+02  0.48971438614E+02  0.51100000000E-03 0.  1.
         23    2    1    0    0    0  0.73042186584E+01 -0.24494820655E+01  0.37126618006E+02  0.87172492999E+02  0.78493988295E+02 0.  0.
         11    1    3    3    0    0 -0.19674506639E+02  0.30230595268E+02  0.12583539013E+02  0.38201054385E+02  0.51100000000E-03 0. -1.
         22    1    1    0    0    0 -0.73042186584E+01  0.24494820655E+01 -0.37126618006E+02  0.37917507001E+02  0.00000000000E+00 0.  1.
</event>
<event>
 5    1  0.1055265E-009  0.9118800E+02  0.7815553E-02  0.1125453E+00
         25   -1    0    0    0    0  0.00000000000E+00  0.00000000000E+00  0.99999998245E-14  0.12509000000E+03  0.12509000000E+03 0.  0.
        -11    1    3    3    0    0  0.53224394589E+02 -0.28853496047E+01 -0.31867595105E+02  0.62102375475E+02  0.51100000000E-03 0.  1.
         23    2    1    0    0    0  0.29913326229E+02 -0.23692528563E+01 -0.11868262736E+02  0.92821189896E+02  0.87031587302E+02 0.  0.
         11    1    3    3    0    0 -0.23311068360E+02  0.51609674835E+00  0.19999332369E+02  0.30718814421E+02  0.51100000000E-03 0. -1.
         22    1    1    0    0    0 -0.29913326229E+02  0.23692528563E+01  0.11868262736E+02  0.32268810104E+02  0.00000000000E+00 0.  1.
</event>
<event>
 5    1  0.1055265E-009  0.9118800E+02  0.7815553E-02  0.1125453E+00
         25   -1    0    0    0    0  0.00000000000E+00  0.00000000000E+00  0.99999998245E-14  0.12509000000E+03  0.12509000000E+03 0.  0.
        -11    1    3    3    0    0  0.16840071759E+02 -0.27883517042E+02 -0.21899621258E+02  0.39251394255E+02  0.51100000000E-03 0.  1.
         23    2    1    0    0    0 -0.23083300861E+02  0.37610546488E+01  0.10317732136E+02  0.99527529323E+02  0.96188820483E+02 0.  0.
         11    1    3    3    0    0 -0.39923372620E+02  0.31644571690E+02  0.32217353394E+02  0.60276135068E+02  0.51100000000E-03 0. -1.
         22    1    1    0    0    0  0.23083300861E+02 -0.37610546488E+01 -0.10317732136E+02  0.25562470677E+02  0.00000000000E+00 0. -1.
</event>
<event>
 5    1  0.1055265E-009  0.9118800E+02  0.7815553E-02  0.1125453E+00
         25   -1    0    0    0    0  0.00000000000E+00  0.00000000000E+00  0.99999998245E-14  0.12509000000E+03  0.12509000000E+03 0.  0.
        -11    1    3    3    0    0 -0.24746718857E+02  0.25793784902E+02  0.21514562164E+01  0.35809889666E+02  0.51100000000E-03 0.  1.
         23    2    1    0    0    0 -0.30184865018E+02 -0.19915366994E+02 -0.16327604951E+02  0.85412064039E+02  0.75636512885E+02 0.  0.
         11    1    3    3    0    0 -0.54381461606E+01 -0.45709151896E+02 -0.18479061167E+02  0.49602174374E+02  0.51100000000E-03 0. -1.
         22    1    1    0    0    0  0.30184865018E+02  0.19915366994E+02  0.16327604951E+02  0.39677935961E+02  0.00000000000E+00 0. -1.
</event>
<event>
 5    1  0.1055265E-009  0.9118800E+02  0.7815553E-02  0.1125453E+00
         25   -1    0    0    0    0  0.00000000000E+00  0.00000000000E+00  0.99999998245E-14  0.12509000000E+03  0.12509000000E+03 0.  0.
        -11    1    3    3    0    0  0.30901814779E+02  0.39884179685E+02  0.71868571819E+01  0.50963917258E+02  0.51100000000E-03 0. -1.
         23    2    1    0    0    0  0.50976587188E+01  0.66100676437E+01  0.26512643003E+02  0.97294328437E+02  0.93239406842E+02 0.  0.
         11    1    3    3    0    0 -0.25804156060E+02 -0.33274112042E+02  0.19325785821E+02  0.46330411179E+02  0.51100000000E-03 0.  1.
         22    1    1    0    0    0 -0.50976587188E+01 -0.66100676437E+01 -0.26512643003E+02  0.27795671563E+02  0.00000000000E+00 0. -1.
</event>
<event>
 5    1  0.1055265E-009  0.9118800E+02  0.7815553E-02  0.1125453E+00
         25   -1    0    0    0    0  0.00000000000E+00  0.00000000000E+00  0.99999998245E-14  0.12509000000E+03  0.12509000000E+03 0.  0.
        -11    1    3    3    0    0 -0.43965906109E+02  0.58788425429E+01 -0.30199086494E+02  0.53661406196E+02  0.51100000000E-03 0. -1.
         23    2    1    0    0    0 -0.24671170295E+02  0.18594400239E+02  0.29347692805E+01  0.94057255443E+02  0.88790405263E+02 0.  0.
         11    1    3    3    0    0  0.19294735814E+02  0.12715557696E+02  0.33133855774E+02  0.40395849247E+02  0.51100000000E-03 0.  1.
         22    1    1    0    0    0  0.24671170295E+02 -0.18594400239E+02 -0.29347692805E+01  0.31032744557E+02  0.00000000000E+00 0. -1.
</event>
<event>
 5    1  0.1055265E-009  0.9118800E+02  0.7815553E-02  0.1125453E+00
         25   -1    0    0    0    0  0.00000000000E+00  0.00000000000E+00  0.99999998245E-14  0.12509000000E+03  0.12509000000E+03 0.  0.
        -11    1    3    3    0    0 -0.34261968464E+02  0.25697585236E+02  0.23396282639E+02  0.48801991881E+02  0.51100000000E-03 0.  1.
         23    2    1    0    0    0 -0.18610033435E+02  0.38212322512E+02 -0.36126952864E+01  0.82433622945E+02  0.70538894863E+02 0.  0.
         11    1    3    3    0    0  0.15651935028E+02  0.12514737276E+02 -0.27008977925E+02  0.33631631064E+02  0.51100000000E-03 0. -1.
         22    1    1    0    0    0  0.18610033435E+02 -0.38212322512E+02  0.36126952864E+01  0.42656377055E+02  0.00000000000E+00 0.  1.
</event>
<event>
 5    1  0.1055265E-009  0.9118800E+02  0.7815553E-02  0.1125453E+00
         25   -1    0    0    0    0  0.00000000000E+00  0.00000000000E+00  0.99999998245E-14  0.12509000000E+03  0.12509000000E+03 0.  0.
        -11    1    3    3    0    0  0.23377065930E+01 -0.15726162817E+02 -0.53642866382E+02  0.55949389478E+02  0.51100000000E-03 0.  1.
         23    2    1    0    0    0  0.17290384177E+02 -0.29509323876E+01 -0.43730049103E+02  0.77973308887E+02  0.62127725834E+02 0.  0.
         11    1    3    3    0    0  0.14952677584E+02  0.12775230430E+02  0.99128172790E+01  0.22023919409E+02  0.51100000000E-03 0. -1.
         22    1    1    0    0    0 -0.17290384177E+02  0.29509323876E+01  0.43730049103E+02  0.47116691113E+02  0.00000000000E+00 0.  1.
</event>
<event>
 5    1  0.1055265E-009  0.9118800E+02  0.7815553E-02  0.1125453E+00
         25   -1    0    0    0    0  0.00000000000E+00  0.00000000000E+00  0.99999998245E-14  0.12509000000E+03  0.12509000000E+03 0.  0.
        -11    1    3    3    0    0  0.47611102839E+02 -0.15124825210E+02 -0.24769663161E+01  0.50017125203E+02  0.51100000000E-03 0.  1.
         23    2    1    0    0    0  0.20596922052E+02  0.20465257613E+02  0.58586785851E+01  0.95469330156E+02  0.90757968898E+02 0.  0.
         11    1    3    3    0    0 -0.27014180787E+02  0.35590082823E+02  0.83356449011E+01  0.45452204953E+02  0.51100000000E-03 0. -1.
         22    1    1    0    0    0 -0.20596922052E+02 -0.20465257613E+02 -0.58586785851E+01  0.29620669844E+02  0.00000000000E+00 0.  1.
</event>
<event>
 5    1  0.1055265E-009  0.9118800E+02  0.7815553E-02  0.1125453E+00
         25   -1    0    0    0    0  0.00000000000E+00  0.00000000000E+00  0.99999998245E-14  0.12509000000E+03  0.12509000000E+03 0.  0.
        -11    1    3    3    0    0 -0.64920903396E+01 -0.96027536814E+01 -0.46041816230E+02  0.47478510479E+02  0.51100000000E-03 0.  1.
         23    2    1    0    0    0 -0.27454610600E+02 -0.11184091264E+02 -0.31085076501E+01  0.95282243284E+02  0.90499743231E+02 0.  0.
         11    1    3    3    0    0 -0.20962520260E+02 -0.15813375830E+01  0.42933308580E+02  0.47803732805E+02  0.51100000000E-03 0. -1.
         22    1    1    0    0    0  0.27454610600E+02  0.11184091264E+02  0.31085076501E+01  0.29807756716E+02  0.00000000000E+00 0.  1.
</event>
<event>
 5    1  0.1055265E-009  0.9118800E+02  0.7815553E-02  0.1125453E+00
         25   -1    0    0    0    0  0.00000000000E+00  0.00000000000E+00  0.99999998245E-14  0.12509000000E+03  0.12509000000E+03 0.  0.
        -11    1    3    3    0    0  0.16326250525E+02  0.23103888154E+02  0.93812391243E+01  0.29805096071E+02  0.51100000000E-03 0.  1.
         23    2    1    0    0    0 -0.18919299569E+02 -0.27326497448E+02  0.48971025404E+01  0.91494479878E+02  0.85103354082E+02 0.  0.
         11    1    3    3    0    0 -0.35245550094E+02 -0.50430385602E+02 -0.44841365839E+01  0.61689383807E+02  0.51100000000E-03 0. -1.
         22    1    1    0    0    0  0.18919299569E+02  0.27326497448E+02 -0.48971025404E+01  0.33595520122E+02  0.00000000000E+00 0. -1.
</event>
<event>
 5    1  0.1055265E-009  0.9118800E+02  0.7815553E-02  0.1125453E+00
         25   -1    0    0    0    0  0.00000000000E+00  0.00000000000E+00  0.99999998245E-14  0.12509000000E+03  0.12509000000E+03 0.  0.
        -11    1    3    3    0    0 -0.11575608264E+02 -0.35521446816E+02 -0.73217149430E+01  0.38070663254E+02  0.51100000000E-03 0.  1.
         23    2    1    0    0    0  0.87136099299E+01  0.69853080875E+01  0.26683328488E+02  0.96163860501E+02  0.91710231273E+02 0.  0.
         11    1    3    3    0    0  0.20289218194E+02  0.42506754904E+02  0.34005043431E+02  0.58093197247E+02  0.51100000000E-03 0. -1.
         22    1    1    0    0    0 -0.87136099299E+01 -0.69853080875E+01 -0.26683328488E+02  0.28926139499E+02  0.00000000000E+00 0. -1.
</event>
<event>
 5    1  0.1055265E-009  0.9118800E+02  0.7815553E-02  0.1125453E+00
         25   -1    0    0    0    0  0.00000000000E+00  0.00000000000E+00  0.99999998245E-14  0.12509000000E+03  0.12509000000E+03 0.  0.
        -11    1    3    3    0    0  0.11010214718E+02 -0.11849164671E+02 -0.38869687694E+02  0.42100833165E+02  0.51100000000E-03 0.  1.
         23    2    1    0    0    0  0.54761512741E+01  0.11775032783E+02  0.17399605184E+02  0.10337857696E+03  0.10107296515E+03 0.  0.
         11    1    3    3    0    0 -0.55340634438E+01  0.23624197454E+02  0.56269292878E+02  0.61277743796E+02  0.51100000000E-03 0. -1.
         22    1    1    0    0    0 -0.54761512741E+01 -0.11775032783E+02 -0.17399605184E+02  0.21711423039E+02  0.00000000000E+00 0. -1.
</event>
<event>
 5    1  0.1055265E-009  0.9118800E+02  0.7815553E-02  0.1125453E+00
         25   -1    0    0    0    0  0.00000000000E+00  0.00000000000E+00  0.99999998245E-14  0.12509000000E+03  0.12509000000E+03 0.  0.
        -11    1    3    3    0    0 -0.12070954055E+02  0.41664732207E+02 -0.29393215991E+02  0.52398654450E+02  0.51100000000E-03 0.  1.
         23    2    1    0    0    0 -0.12071052334E+02  0.26474885037E+02  0.97637297080E+01  0.94398628900E+02  0.89270044686E+02 0.  0.
         11    1    3    3    0    0 -0.98279545802E-04 -0.15189847170E+02  0.39156945699E+02  0.41999974450E+02  0.51100000000E-03 0. -1.
         22    1    1    0    0    0  0.12071052334E+02 -0.26474885037E+02 -0.97637297080E+01  0.30691371100E+02  0.00000000000E+00 0. -1.
</event>
<event>
 5    1  0.1055265E-009  0.9118800E+02  0.7815553E-02  0.1125453E+00
         25   -1    0    0    0    0  0.00000000000E+00  0.00000000000E+00  0.99999998245E-14  0.12509000000E+03  0.12509000000E+03 0.  0.
        -11    1    3    3    0    0 -0.32518956721E+02  0.32676884534E+02  0.56209270976E+01  0.46441965406E+02  0.51100000000E-03 0.  1.
         23    2    1    0    0    0  0.24638384990E+01  0.11062498605E+02 -0.24952868017E+02  0.97683887583E+02  0.93760582846E+02 0.  0.
         11    1    3    3    0    0  0.34982795220E+02 -0.21614385929E+02 -0.30573795115E+02  0.51241922178E+02  0.51100000000E-03 0. -1.
         22    1    1    0    0    0 -0.24638384990E+01 -0.11062498605E+02  0.24952868017E+02  0.27406112417E+02  0.00000000000E+00 0. -1.
</event>
<event>
 5    1  0.1055265E-009  0.9118800E+02  0.7815553E-02  0.1125453E+00
         25   -1    0    0    0    0  0.00000000000E+00  0.00000000000E+00  0.99999998245E-14  0.12509000000E+03  0.12509000000E+03 0.  0.
        -11    1    3    3    0    0 -0.13966037618E+02 -0.12691057511E+02  0.58160641922E+01  0.19746892172E+02  0.51100000000E-03 0.  1.
         23    2    1    0    0    0  0.38062595656E+02  0.66693378767E+01 -0.20682245414E+02  0.81260825571E+02  0.68427518158E+02 0.  0.
         11    1    3    3    0    0  0.52028633275E+02  0.19360395387E+02 -0.26498309606E+02  0.61513933399E+02  0.51100000000E-03 0. -1.
         22    1    1    0    0    0 -0.38062595656E+02 -0.66693378767E+01  0.20682245414E+02  0.43829174429E+02  0.00000000000E+00 0. -1.
</event>
<event>
 4    1  0.1055265E-009  0.9118800E+02  0.7815553E-02  0.1125453E+00
         25   -1    0    0    0    0  0.00000000000E+00  0.00000000000E+00  0.99999998245E-14  0.12509000000E+03  0.12509000000E+03 0.  0.
        -11    1    1    0    0    0  0.82586199585E+01 -0.17901508846E+01 -0.17574037249E+02  0.19500159725E+02  0.51100000000E-03 0.  1.
         11    1    1    0    0    0 -0.51508469444E+02 -0.13008572828E+02 -0.71755845761E+01  0.53608156150E+02  0.51100000000E-03 0. -1.
         22    1    1    0    0    0  0.43249849486E+02  0.14798723712E+02  0.24749621825E+02  0.51981684126E+02  0.00000000000E+00 0. -1.
</event>
<event>
 5    1  0.1055265E-009  0.9118800E+02  0.7815553E-02  0.1125453E+00
         25   -1    0    0    0    0  0.00000000000E+00  0.00000000000E+00  0.99999998245E-14  0.12509000000E+03  0.12509000000E+03 0.  0.
        -11    1    3    3    0    0  0.14256311327E+02  0.55328462014E+02 -0.10851322277E+02  0.58156962755E+02  0.51100000000E-03 0.  1.
         23    2    1    0    0    0  0.27213399202E+01  0.34879865628E+02  0.90700259966E+01  0.88947558345E+02  0.81273563026E+02 0.  0.
         11    1    3    3    0    0 -0.11534971406E+02 -0.20448596386E+02  0.19921348274E+02  0.30790595590E+02  0.51100000000E-03 0. -1.
         22    1    1    0    0    0 -0.27213399202E+01 -0.34879865628E+02 -0.90700259966E+01  0.36142441655E+02  0.00000000000E+00 0.  1.
</event>
<event>
 5    1  0.1055265E-009  0.9118800E+02  0.7815553E-02  0.1125453E+00
         25   -1    0    0    0    0  0.00000000000E+00  0.00000000000E+00  0.99999998245E-14  0.12509000000E+03  0.12509000000E+03 0.  0.
        -11    1    3    3    0    0  0.30886921090E+02 -0.22686935149E+02 -0.19735980787E+02  0.43106935158E+02  0.51100000000E-03 0.  1.
         23    2    1    0    0    0  0.16373343186E+02  0.12402153900E+02  0.18826816562E+02  0.97226963369E+02  0.93148986015E+02 0.  0.
         11    1    3    3    0    0 -0.14513577904E+02  0.35089089049E+02  0.38562797349E+02  0.54120028211E+02  0.51100000000E-03 0. -1.
         22    1    1    0    0    0 -0.16373343186E+02 -0.12402153900E+02 -0.18826816562E+02  0.27863036631E+02  0.00000000000E+00 0. -1.
</event>
<event>
 5    1  0.1055265E-009  0.9118800E+02  0.7815553E-02  0.1125453E+00
         25   -1    0    0    0    0  0.00000000000E+00  0.00000000000E+00  0.99999998245E-14  0.12509000000E+03  0.12509000000E+03 0.  0.
        -11    1    3    3    0    0  0.25296466565E+02 -0.29806172073E+02  0.36643281980E+02  0.53582172678E+02  0.51100000000E-03 0. -1.
         23    2    1    0    0    0 -0.10482014739E+02  0.24427634064E+01  0.15580685568E+02  0.10615332952E+03  0.10445061934E+03 0.  0.
         11    1    3    3    0    0 -0.35778481304E+02  0.32248935479E+02 -0.21062596412E+02  0.52571156843E+02  0.51100000000E-03 0.  1.
         22    1    1    0    0    0  0.10482014739E+02 -0.24427634064E+01 -0.15580685568E+02  0.18936670479E+02  0.00000000000E+00 0. -1.
</event>
<event>
 5    1  0.1055265E-009  0.9118800E+02  0.7815553E-02  0.1125453E+00
         25   -1    0    0    0    0  0.00000000000E+00  0.00000000000E+00  0.99999998245E-14  0.12509000000E+03  0.12509000000E+03 0.  0.
        -11    1    3    3    0    0 -0.22542350167E+02 -0.39594725609E+02  0.71500363388E+01  0.46119658141E+02  0.51100000000E-03 0. -1.
         23    2    1    0    0    0  0.21294743716E+02 -0.20119117703E+02  0.98988637537E+01  0.94166990594E+02  0.88944868356E+02 0.  0.
         11    1    3    3    0    0  0.43837093883E+02  0.19475607906E+02  0.27488274149E+01  0.48047332453E+02  0.51100000000E-03 0.  1.
         22    1    1    0    0    0 -0.21294743716E+02  0.20119117703E+02 -0.98988637537E+01  0.30923009406E+02  0.00000000000E+00 0.  1.
</event>
<event>
 5    1  0.1055265E-009  0.9118800E+02  0.7815553E-02  0.1125453E+00
         25   -1    0    0    0    0  0.00000000000E+00  0.00000000000E+00  0.99999998245E-14  0.12509000000E+03  0.12509000000E+03 0.  0.
        -11    1    3    3    0    0  0.52546879923E+02  0.13479782004E+01 -0.19356027730E+02  0.56014707395E+02  0.51100000000E-03 0. -1.
         23    2    1    0    0    0  0.31686581169E+02 -0.13473178085E+02  0.37011234816E+01  0.90459604840E+02  0.83568390189E+02 0.  0.
         11    1    3    3    0    0 -0.20860298754E+02 -0.14821156286E+02  0.23057151211E+02  0.34444897445E+02  0.51100000000E-03 0.  1.
         22    1    1    0    0    0 -0.31686581169E+02  0.13473178085E+02 -0.37011234816E+01  0.34630395160E+02  0.00000000000E+00 0. -1.
</event>
<event>
 5    1  0.1055265E-009  0.9118800E+02  0.7815553E-02  0.1125453E+00
         25   -1    0    0    0    0  0.00000000000E+00  0.00000000000E+00  0.99999998245E-14  0.12509000000E+03  0.12509000000E+03 0.  0.
        -11    1    3    3    0    0  0.47014462806E+02 -0.18848853752E+02  0.12404866347E+02  0.52149014468E+02  0.51100000000E-03 0. -1.
         23    2    1    0    0    0  0.23115656020E+02  0.16082166024E+02 -0.20052560090E+01  0.96858976836E+02  0.92653498179E+02 0.  0.
         11    1    3    3    0    0 -0.23898806786E+02  0.34931019775E+02 -0.14410122356E+02  0.44709962368E+02  0.51100000000E-03 0.  1.
         22    1    1    0    0    0 -0.23115656020E+02 -0.16082166024E+02  0.20052560090E+01  0.28231023164E+02  0.00000000000E+00 0. -1.
</event>
<event>
 5    1  0.1055265E-009  0.9118800E+02  0.7815553E-02  0.1125453E+00
         25   -1    0    0    0    0  0.00000000000E+00  0.00000000000E+00  0.99999998245E-14  0.12509000000E+03  0.12509000000E+03 0.  0.
        -11    1    3    3    0    0 -0.46263652809E+02 -0.12988795768E+02 -0.38092414036E+02  0.61319380248E+02  0.51100000000E-03 0.  1.
         23    2    1    0    0    0 -0.23805022812E+02 -0.79184599769E+01 -0.89622692017E+01  0.98449741204E+02  0.94776833427E+02 0.  0.
         11    1    3    3    0    0  0.22458629997E+02  0.50703357914E+01  0.29130144834E+02  0.37130360955E+02  0.51100000000E-03 0. -1.
         22    1    1    0    0    0  0.23805022812E+02  0.79184599769E+01  0.89622692017E+01  0.26640258796E+02  0.00000000000E+00 0.  1.
</event>
<event>
 5    1  0.1055265E-009  0.9118800E+02  0.7815553E-02  0.1125453E+00
         25   -1    0    0    0    0  0.00000000000E+00  0.00000000000E+00  0.99999998245E-14  0.12509000000E+03  0.12509000000E+03 0.  0.
        -11    1    3    3    0    0 -0.26537814186E+02 -0.51817200491E+02 -0.18852003765E+02  0.61193756992E+02  0.51100000000E-03 0.  1.
         23    2    1    0    0    0 -0.47040904249E+01 -0.26940838390E+02 -0.40824940308E+01  0.97438526307E+02  0.93432662445E+02 0.  0.
         11    1    3    3    0    0  0.21833723762E+02  0.24876362101E+02  0.14769509735E+02  0.36244769315E+02  0.51100000000E-03 0. -1.
         22    1    1    0    0    0  0.47040904249E+01  0.26940838390E+02  0.40824940308E+01  0.27651473693E+02  0.00000000000E+00 0.  1.
</event>
<event>
 5    1  0.1055265E-009  0.9118800E+02  0.7815553E-02  0.1125453E+00
         25   -1    0    0    0    0  0.00000000000E+00  0.00000000000E+00  0.99999998245E-14  0.12509000000E+03  0.12509000000E+03 0.  0.
        -11    1    3    3    0    0  0.37593144469E+01 -0.74383922375E+01  0.32271538783E+02  0.33330381634E+02  0.51100000000E-03 0.  1.
         23    2    1    0    0    0 -0.36104997054E+02  0.16121324437E+02  0.13289922696E+02  0.83375614482E+02  0.72190048699E+02 0.  0.
         11    1    3    3    0    0 -0.39864311501E+02  0.23559716675E+02 -0.18981616087E+02  0.50045232848E+02  0.51100000000E-03 0. -1.
         22    1    1    0    0    0  0.36104997054E+02 -0.16121324437E+02 -0.13289922696E+02  0.41714385518E+02  0.00000000000E+00 0.  1.
</event>
<event>
 5    1  0.1055265E-009  0.9118800E+02  0.7815553E-02  0.1125453E+00
         25   -1    0    0    0    0  0.00000000000E+00  0.00000000000E+00  0.99999998245E-14  0.12509000000E+03  0.12509000000E+03 0.  0.
        -11    1    3    3    0    0 -0.83486442432E+01  0.46347307017E+02  0.40578134321E+01  0.47267732953E+02  0.51100000000E-03 0.  1.
         23    2    1    0    0    0 -0.19012577747E+02  0.32575976942E+01  0.22602414952E+02  0.95375370320E+02  0.90628373298E+02 0.  0.
         11    1    3    3    0    0 -0.10663933504E+02 -0.43089709322E+02  0.18544601520E+02  0.48107637367E+02  0.51100000000E-03 0. -1.
         22    1    1    0    0    0  0.19012577747E+02 -0.32575976942E+01 -0.22602414952E+02  0.29714629680E+02  0.00000000000E+00 0. -1.
</event>
<event>
 5    1  0.1055265E-009  0.9118800E+02  0.7815553E-02  0.1125453E+00
         25   -1    0    0    0    0  0.00000000000E+00  0.00000000000E+00  0.99999998245E-14  0.12509000000E+03  0.12509000000E+03 0.  0.
        -11    1    3    3    0    0  0.19760924861E+02 -0.31831242469E+01 -0.31634710353E+02  0.37435028125E+02  0.51100000000E-03 0. -1.
         23    2    1    0    0    0 -0.30481605887E+02 -0.60518522739E+00 -0.55593849709E+01  0.94099657829E+02  0.88850122654E+02 0.  0.
         11    1    3    3    0    0 -0.50242530748E+02  0.25779390195E+01  0.26075325382E+02  0.56664629705E+02  0.51100000000E-03 0.  1.
         22    1    1    0    0    0  0.30481605887E+02  0.60518522739E+00  0.55593849709E+01  0.30990342171E+02  0.00000000000E+00 0.  1.
</event>
<event>
 5    1  0.1055265E-009  0.9118800E+02  0.7815553E-02  0.1125453E+00
         25   -1    0    0    0    0  0.00000000000E+00  0.00000000000E+00  0.99999998245E-14  0.12509000000E+03  0.12509000000E+03 0.  0.
        -11    1    3    3    0    0 -0.28003615616E+02  0.22913616513E+02 -0.51328444527E+00  0.36187011074E+02  0.51100000000E-03 0. -1.
         23    2    1    0    0    0  0.20535814369E+02 -0.15981320000E+02 -0.51636991396E+01  0.98561033765E+02  0.94923607850E+02 0.  0.
         11    1    3    3    0    0  0.48539429984E+02 -0.38894936513E+02 -0.46504146944E+01  0.62374022691E+02  0.51100000000E-03 0.  1.
         22    1    1    0    0    0 -0.20535814369E+02  0.15981320000E+02  0.51636991396E+01  0.26528966235E+02  0.00000000000E+00 0.  1.
</event>
<event>
 5    1  0.1055265E-009  0.9118800E+02  0.7815553E-02  0.1125453E+00
         25   -1    0    0    0    0  0.00000000000E+00  0.00000000000E+00  0.99999998245E-14  0.12509000000E+03  0.12509000000E+03 0.  0.
        -11    1    3    3    0    0 -0.16025259144E+02 -0.22398154321E+02  0.21732503948E+02  0.35082587929E+02  0.51100000000E-03 0.  1.
         23    2    1    0    0    0  0.22228748623E+02 -0.13940961442E+01 -0.19771299404E+02  0.95308041543E+02  0.90535394920E+02 0.  0.
         11    1    3    3    0    0  0.38254007767E+02  0.21004058177E+02 -0.41503803352E+02  0.60225453615E+02  0.51100000000E-03 0. -1.
         22    1    1    0    0    0 -0.22228748623E+02  0.13940961442E+01  0.19771299404E+02  0.29781958457E+02  0.00000000000E+00 0. -1.
</event>
<event>
 5    1  0.1055265E-009  0.9118800E+02  0.7815553E-02  0.1125453E+00
         25   -1    0    0    0    0  0.00000000000E+00  0.00000000000E+00  0.99999998245E-14  0.12509000000E+03  0.12509000000E+03 0.  0.
        -11    1    3    3    0    0  0.30471504112E+02  0.24098051755E+02  0.49648564261E+01  0.39164760447E+02  0.51100000000E-03 0. -1.
         23    2    1    0    0    0 -0.25484538495E+02  0.10190136034E+02  0.66560970197E+01  0.96848112629E+02  0.92638829427E+02 0.  0.
         11    1    3    3    0    0 -0.55956042608E+02 -0.13907915721E+02  0.16912405936E+01  0.57683352183E+02  0.51100000000E-03 0.  1.
         22    1    1    0    0    0  0.25484538495E+02 -0.10190136034E+02 -0.66560970197E+01  0.28241887371E+02  0.00000000000E+00 0.  1.
</event>
<event>
 5    1  0.1055265E-009  0.9118800E+02  0.7815553E-02  0.1125453E+00
         25   -1    0    0    0    0  0.00000000000E+00  0.00000000000E+00  0.99999998245E-14  0.12509000000E+03  0.12509000000E+03 0.  0.
        -11    1    3    3    0    0  0.33642970856E+02  0.16921464226E+02 -0.33673491282E+02  0.50518209142E+02  0.51100000000E-03 0.  1.
         23    2    1    0    0    0  0.16256186906E+02  0.21626208636E+02  0.87893962611E+01  0.96643383341E+02  0.92361970228E+02 0.  0.
         11    1    3    3    0    0 -0.17386783950E+02  0.47047444102E+01  0.42462887543E+02  0.46125174199E+02  0.51100000000E-03 0. -1.
         22    1    1    0    0    0 -0.16256186906E+02 -0.21626208636E+02 -0.87893962611E+01  0.28446616659E+02  0.00000000000E+00 0. -1.
</event>
<event>
 5    1  0.1055265E-009  0.9118800E+02  0.7815553E-02  0.1125453E+00
         25   -1    0    0    0    0  0.00000000000E+00  0.00000000000E+00  0.99999998245E-14  0.12509000000E+03  0.12509000000E+03 0.  0.
        -11    1    3    3    0    0 -0.27966381797E+02 -0.75995663976E+01 -0.51138639805E+02  0.58779523659E+02  0.51100000000E-03 0. -1.
         23    2    1    0    0    0 -0.24621054542E+02 -0.53298185363E+01 -0.13741580155E+02  0.96394454744E+02  0.92024217399E+02 0.  0.
         11    1    3    3    0    0  0.33453272555E+01  0.22697478612E+01  0.37397059650E+02  0.37614931085E+02  0.51100000000E-03 0.  1.
         22    1    1    0    0    0  0.24621054542E+02  0.53298185363E+01  0.13741580155E+02  0.28695545256E+02  0.00000000000E+00 0. -1.
</event>
<event>
 5    1  0.1055265E-009  0.9118800E+02  0.7815553E-02  0.1125453E+00
         25   -1    0    0    0    0  0.00000000000E+00  0.00000000000E+00  0.99999998245E-14  0.12509000000E+03  0.12509000000E+03 0.  0.
        -11    1    3    3    0    0  0.21641595323E+02  0.94263633738E+01 -0.20560830222E+02  0.31304356154E+02  0.51100000000E-03 0. -1.
         23    2    1    0    0    0 -0.25586628490E+02  0.46249914439E+01  0.18826628853E+02  0.92988472664E+02  0.87271690662E+02 0.  0.
         11    1    3    3    0    0 -0.47228223813E+02 -0.48013719299E+01  0.39387459075E+02  0.61684116509E+02  0.51100000000E-03 0.  1.
         22    1    1    0    0    0  0.25586628490E+02 -0.46249914439E+01 -0.18826628853E+02  0.32101527336E+02  0.00000000000E+00 0.  1.
</event>
<event>
 5    1  0.1055265E-009  0.9118800E+02  0.7815553E-02  0.1125453E+00
         25   -1    0    0    0    0  0.00000000000E+00  0.00000000000E+00  0.99999998245E-14  0.12509000000E+03  0.12509000000E+03 0.  0.
        -11    1    3    3    0    0  0.39858526761E+01 -0.32846612714E+02 -0.98577983793E+01  0.34524819731E+02  0.51100000000E-03 0. -1.
         23    2    1    0    0    0 -0.33008179269E+02  0.20447952976E+01  0.12044687661E+02  0.89893471942E+02  0.82716628984E+02 0.  0.
         11    1    3    3    0    0 -0.36994031946E+02  0.34891408012E+02  0.21902486040E+02  0.55368652211E+02  0.51100000000E-03 0.  1.
         22    1    1    0    0    0  0.33008179269E+02 -0.20447952976E+01 -0.12044687661E+02  0.35196528058E+02  0.00000000000E+00 0.  1.
</event>
<event>
 5    1  0.1055265E-009  0.9118800E+02  0.7815553E-02  0.1125453E+00
         25   -1    0    0    0    0  0.00000000000E+00  0.00000000000E+00  0.99999998245E-14  0.12509000000E+03  0.12509000000E+03 0.  0.
        -11    1    3    3    0    0 -0.18231684424E+02 -0.88271180482E+01  0.56133464048E+02  0.59676445238E+02  0.51100000000E-03 0.  1.
         23    2    1    0    0    0 -0.18540058114E+02 -0.10149399683E+02  0.19507992888E+02  0.96327074987E+02  0.91932581386E+02 0.  0.
         11    1    3    3    0    0 -0.30837369079E+00 -0.13222816345E+01 -0.36625471160E+02  0.36650629749E+02  0.51100000000E-03 0. -1.
         22    1    1    0    0    0  0.18540058114E+02  0.10149399683E+02 -0.19507992888E+02  0.28762925013E+02  0.00000000000E+00 0.  1.
</event>
<event>
 5    1  0.1055265E-009  0.9118800E+02  0.7815553E-02  0.1125453E+00
         25   -1    0    0    0    0  0.00000000000E+00  0.00000000000E+00  0.99999998245E-14  0.12509000000E+03  0.12509000000E+03 0.  0.
        -11    1    3    3    0    0  0.44105628372E+02  0.13850753822E+02 -0.16994292554E+01  0.46260543615E+02  0.51100000000E-03 0. -1.
         23    2    1    0    0    0  0.94832421048E+01 -0.17255333074E+02 -0.20689420670E+02  0.96529003379E+02  0.92206930138E+02 0.  0.
         11    1    3    3    0    0 -0.34622386267E+02 -0.31106086897E+02 -0.18989991415E+02  0.50268459764E+02  0.51100000000E-03 0.  1.
         22    1    1    0    0    0 -0.94832421048E+01  0.17255333074E+02  0.20689420670E+02  0.28560996621E+02  0.00000000000E+00 0.  1.
</event>
<event>
 5    1  0.1055265E-009  0.9118800E+02  0.7815553E-02  0.1125453E+00
         25   -1    0    0    0    0  0.00000000000E+00  0.00000000000E+00  0.99999998245E-14  0.12509000000E+03  0.12509000000E+03 0.  0.
        -11    1    3    3    0    0 -0.19324476159E+02 -0.18227703209E+02  0.34154781029E+02  0.43269314884E+02  0.51100000000E-03 0.  1.
         23    2    1    0    0    0  0.24802441216E+02 -0.14143170334E+02  0.55810842586E+01  0.95998096334E+02  0.91483854537E+02 0.  0.
         11    1    3    3    0    0  0.44126917376E+02  0.40845328745E+01 -0.28573696771E+02  0.52728781451E+02  0.51100000000E-03 0. -1.
         22    1    1    0    0    0 -0.24802441216E+02  0.14143170334E+02 -0.55810842586E+01  0.29091903666E+02  0.00000000000E+00 0.  1.
</event>
<event>
 5    1  0.1055265E-009  0.9118800E+02  0.7815553E-02  0.1125453E+00
         25   -1    0    0    0    0  0.00000000000E+00  0.00000000000E+00  0.99999998245E-14  0.12509000000E+03  0.12509000000E+03 0.  0.
        -11    1    3    3    0    0  0.36496346882E+02  0.34367622828E+02 -0.13373050559E+02  0.51884056472E+02  0.51100000000E-03 0.  1.
         23    2    1    0    0    0  0.37936971926E+02  0.48317825370E+01 -0.19619614114E+02  0.82107570806E+02  0.69958301611E+02 0.  0.
         11    1    3    3    0    0  0.14406250444E+01 -0.29535840290E+02 -0.62465635548E+01  0.30223514334E+02  0.51100000000E-03 0. -1.
         22    1    1    0    0    0 -0.37936971926E+02 -0.48317825370E+01  0.19619614114E+02  0.42982429194E+02  0.00000000000E+00 0.  1.
</event>
<event>
 5    1  0.1055265E-009  0.9118800E+02  0.7815553E-02  0.1125453E+00
         25   -1    0    0    0    0  0.00000000000E+00  0.00000000000E+00  0.99999998245E-14  0.12509000000E+03  0.12509000000E+03 0.  0.
        -11    1    3    3    0    0 -0.23541158276E+02 -0.35807055545E+02  0.17519496950E+01  0.42888234841E+02  0.51100000000E-03 0. -1.
         23    2    1    0    0    0  0.18048640317E+02 -0.89791923823E+01 -0.19767802653E+02  0.96856237678E+02  0.92649800012E+02 0.  0.
         11    1    3    3    0    0  0.41589798593E+02  0.26827863163E+02 -0.21519752348E+02  0.53968002837E+02  0.51100000000E-03 0.  1.
         22    1    1    0    0    0 -0.18048640317E+02  0.89791923823E+01  0.19767802653E+02  0.28233762322E+02  0.00000000000E+00 0.  1.
</event>
<event>
 5    1  0.1055265E-009  0.9118800E+02  0.7815553E-02  0.1125453E+00
         25   -1    0    0    0    0  0.00000000000E+00  0.00000000000E+00  0.99999998245E-14  0.12509000000E+03  0.12509000000E+03 0.  0.
        -11    1    3    3    0    0  0.71688973352E+01 -0.18029663956E+02 -0.31173176803E+02  0.36718235573E+02  0.51100000000E-03 0. -1.
         23    2    1    0    0    0  0.11370991724E+02  0.25805392075E+02  0.81288877514E+01  0.95742146092E+02  0.91133210244E+02 0.  0.
         11    1    3    3    0    0  0.42020943889E+01  0.43835056031E+02  0.39302064554E+02  0.59023910519E+02  0.51100000000E-03 0.  1.
         22    1    1    0    0    0 -0.11370991724E+02 -0.25805392075E+02 -0.81288877514E+01  0.29347853908E+02  0.00000000000E+00 0.  1.
</event>
<event>
 5    1  0.1055265E-009  0.9118800E+02  0.7815553E-02  0.1125453E+00
         25   -1    0    0    0    0  0.00000000000E+00  0.00000000000E+00  0.99999998245E-14  0.12509000000E+03  0.12509000000E+03 0.  0.
        -11    1    3    3    0    0 -0.43946454449E+02  0.27214701899E+02 -0.10202048267E+02  0.52687879509E+02  0.51100000000E-03 0.  1.
         23    2    1    0    0    0 -0.16818731340E+02  0.12653847469E+02  0.20171744351E+02  0.95937146798E+02  0.91400477493E+02 0.  0.
         11    1    3    3    0    0  0.27127723109E+02 -0.14560854430E+02  0.30373792618E+02  0.43249267289E+02  0.51100000000E-03 0. -1.
         22    1    1    0    0    0  0.16818731340E+02 -0.12653847469E+02 -0.20171744351E+02  0.29152853202E+02  0.00000000000E+00 0.  1.
</event>
<event>
 5    1  0.1055265E-009  0.9118800E+02  0.7815553E-02  0.1125453E+00
         25   -1    0    0    0    0  0.00000000000E+00  0.00000000000E+00  0.99999998245E-14  0.12509000000E+03  0.12509000000E+03 0.  0.
        -11    1    3    3    0    0 -0.34283681917E+02  0.25143169497E+02  0.39778670695E+02  0.58222783003E+02  0.51100000000E-03 0. -1.
         23    2    1    0    0    0 -0.22338098168E+02  0.21155997555E+02  0.67208011864E+01  0.93598159296E+02  0.88141246830E+02 0.  0.
         11    1    3    3    0    0  0.11945583749E+02 -0.39871719418E+01 -0.33057869508E+02  0.35375376293E+02  0.51100000000E-03 0.  1.
         22    1    1    0    0    0  0.22338098168E+02 -0.21155997555E+02 -0.67208011864E+01  0.31491840704E+02  0.00000000000E+00 0. -1.
</event>
<event>
 5    1  0.1055265E-009  0.9118800E+02  0.7815553E-02  0.1125453E+00
         25   -1    0    0    0    0  0.00000000000E+00  0.00000000000E+00  0.99999998245E-14  0.12509000000E+03  0.12509000000E+03 0.  0.
        -11    1    3    3    0    0 -0.67630672558E+01 -0.11236549038E+02  0.55332027109E+02  0.56865036158E+02  0.51100000000E-03 0.  1.
         23    2    1    0    0    0 -0.20908675274E+02 -0.22876320799E+01  0.19526195577E+02  0.96390204252E+02  0.92018439456E+02 0.  0.
         11    1    3    3    0    0 -0.14145608018E+02  0.89489169578E+01 -0.35805831532E+02  0.39525168094E+02  0.51100000000E-03 0. -1.
         22    1    1    0    0    0  0.20908675274E+02  0.22876320799E+01 -0.19526195577E+02  0.28699795748E+02  0.00000000000E+00 0.  1.
</event>
<event>
 5    1  0.1055265E-009  0.9118800E+02  0.7815553E-02  0.1125453E+00
         25   -1    0    0    0    0  0.00000000000E+00  0.00000000000E+00  0.99999998245E-14  0.12509000000E+03  0.12509000000E+03 0.  0.
        -11    1    3    3    0    0  0.56875721935E+02 -0.18975730327E+02  0.45434569469E+01  0.60129602430E+02  0.51100000000E-03 0. -1.
         23    2    1    0    0    0  0.27399162837E+02 -0.30662518200E+01  0.12898338727E+02  0.94651814010E+02  0.89624119126E+02 0.  0.
         11    1    3    3    0    0 -0.29476559098E+02  0.15909478507E+02  0.83548817805E+01  0.34522211581E+02  0.51100000000E-03 0.  1.
         22    1    1    0    0    0 -0.27399162837E+02  0.30662518200E+01 -0.12898338727E+02  0.30438185990E+02  0.00000000000E+00 0. -1.
</event>
<event>
 5    1  0.1055265E-009  0.9118800E+02  0.7815553E-02  0.1125453E+00
         25   -1    0    0    0    0  0.00000000000E+00  0.00000000000E+00  0.99999998245E-14  0.12509000000E+03  0.12509000000E+03 0.  0.
        -11    1    3    3    0    0 -0.24659540561E+02  0.93626053018E+01 -0.23383131669E+02  0.35249427876E+02  0.51100000000E-03 0.  1.
         23    2    1    0    0    0  0.11571523846E+02 -0.47808429192E+01  0.24882139351E+02  0.97235422605E+02  0.93160345252E+02 0.  0.
         11    1    3    3    0    0  0.36231064406E+02 -0.14143448221E+02  0.48265271020E+02  0.61985994729E+02  0.51100000000E-03 0. -1.
         22    1    1    0    0    0 -0.11571523846E+02  0.47808429192E+01 -0.24882139351E+02  0.27854577395E+02  0.00000000000E+00 0. -1.
</event>
<event>
 5    1  0.1055265E-009  0.9118800E+02  0.7815553E-02  0.1125453E+00
         25   -1    0    0    0    0  0.00000000000E+00  0.00000000000E+00  0.99999998245E-14  0.12509000000E+03  0.12509000000E+03 0.  0.
        -11    1    3    3    0    0  0.52980213234E+02 -0.99928529045E+00 -0.10066597827E+02  0.53937352155E+02  0.51100000000E-03 0.  1.
         23    2    1    0    0    0  0.18164312883E+02  0.16479279635E+02  0.10982901171E+02  0.98217466850E+02  0.94469771654E+02 0.  0.
         11    1    3    3    0    0 -0.34815900351E+02  0.17478564925E+02  0.21049498998E+02  0.44280114695E+02  0.51100000000E-03 0. -1.
         22    1    1    0    0    0 -0.18164312883E+02 -0.16479279635E+02 -0.10982901171E+02  0.26872533150E+02  0.00000000000E+00 0.  1.
</event>
<event>
 5    1  0.1055265E-009  0.9118800E+02  0.7815553E-02  0.1125453E+00
         25   -1    0    0    0    0  0.00000000000E+00  0.00000000000E+00  0.99999998245E-14  0.12509000000E+03  0.12509000000E+03 0.  0.
        -11    1    3    3    0    0 -0.36924602489E+02  0.94231913027E+01  0.11735900948E+02  0.39874229455E+02  0.51100000000E-03 0. -1.
         23    2    1    0    0    0  0.21824067532E+02  0.40143890040E+01  0.13890669784E+02  0.98910696156E+02  0.95383278746E+02 0.  0.
         11    1    3    3    0    0  0.58748670021E+02 -0.54088022987E+01  0.21547688352E+01  0.59036466701E+02  0.51100000000E-03 0.  1.
         22    1    1    0    0    0 -0.21824067532E+02 -0.40143890040E+01 -0.13890669784E+02  0.26179303844E+02  0.00000000000E+00 0.  1.
</event>
<event>
 5    1  0.1055265E-009  0.9118800E+02  0.7815553E-02  0.1125453E+00
         25   -1    0    0    0    0  0.00000000000E+00  0.00000000000E+00  0.99999998245E-14  0.12509000000E+03  0.12509000000E+03 0.  0.
        -11    1    3    3    0    0  0.60723987496E+01  0.36839995805E+02  0.12332323409E+02  0.39321056934E+02  0.51100000000E-03 0.  1.
         23    2    1    0    0    0 -0.58290452812E+01 -0.22929769151E+02  0.65676759996E+01  0.10053625385E+03  0.97491804204E+02 0.  0.
         11    1    3    3    0    0 -0.11901444031E+02 -0.59769764956E+02 -0.57646474098E+01  0.61215196911E+02  0.51100000000E-03 0. -1.
         22    1    1    0    0    0  0.58290452812E+01  0.22929769151E+02 -0.65676759996E+01  0.24553746155E+02  0.00000000000E+00 0. -1.
</event>
<event>
 5    1  0.1055265E-009  0.9118800E+02  0.7815553E-02  0.1125453E+00
         25   -1    0    0    0    0  0.00000000000E+00  0.00000000000E+00  0.99999998245E-14  0.12509000000E+03  0.12509000000E+03 0.  0.
        -11    1    3    3    0    0  0.74697933252E+01 -0.49613620226E+01 -0.26773144435E+02  0.28234981647E+02  0.51100000000E-03 0.  1.
         23    2    1    0    0    0 -0.30790265501E+02  0.10401452157E+02  0.17037731733E+02  0.88395109903E+02  0.80418781983E+02 0.  0.
         11    1    3    3    0    0 -0.38260058827E+02  0.15362814180E+02  0.43810876168E+02  0.60160128256E+02  0.51100000000E-03 0. -1.
         22    1    1    0    0    0  0.30790265501E+02 -0.10401452157E+02 -0.17037731733E+02  0.36694890097E+02  0.00000000000E+00 0. -1.
</event>
<event>
 5    1  0.1055265E-009  0.9118800E+02  0.7815553E-02  0.1125453E+00
         25   -1    0    0    0    0  0.00000000000E+00  0.00000000000E+00  0.99999998245E-14  0.12509000000E+03  0.12509000000E+03 0.  0.
        -11    1    3    3    0    0  0.47959790328E+02  0.13209453402E+02  0.20174144957E+02  0.53680790535E+02  0.51100000000E-03 0.  1.
         23    2    1    0    0    0  0.24096450640E+02 -0.17237099436E+02  0.61280408374E+01  0.94835919037E+02  0.89880710526E+02 0.  0.
         11    1    3    3    0    0 -0.23863339688E+02 -0.30446552838E+02 -0.14046104120E+02  0.41155128502E+02  0.51100000000E-03 0. -1.
         22    1    1    0    0    0 -0.24096450640E+02  0.17237099436E+02 -0.61280408374E+01  0.30254080963E+02  0.00000000000E+00 0.  1.
</event>
<event>
 5    1  0.1055265E-009  0.9118800E+02  0.7815553E-02  0.1125453E+00
         25   -1    0    0    0    0  0.00000000000E+00  0.00000000000E+00  0.99999998245E-14  0.12509000000E+03  0.12509000000E+03 0.  0.
        -11    1    3    3    0    0 -0.30972229614E+01 -0.24094651307E+02  0.57741590876E+01  0.24969700140E+02  0.51100000000E-03 0.  1.
         23    2    1    0    0    0  0.11643937423E+02  0.29089112610E+02 -0.22050190095E+02  0.86775921199E+02  0.77859436587E+02 0.  0.
         11    1    3    3    0    0  0.14741160384E+02  0.53183763917E+02 -0.27824349182E+02  0.61806221059E+02  0.51100000000E-03 0. -1.
         22    1    1    0    0    0 -0.11643937423E+02 -0.29089112610E+02  0.22050190095E+02  0.38314078801E+02  0.00000000000E+00 0. -1.
</event>
<event>
 5    1  0.1055265E-009  0.9118800E+02  0.7815553E-02  0.1125453E+00
         25   -1    0    0    0    0  0.00000000000E+00  0.00000000000E+00  0.99999998245E-14  0.12509000000E+03  0.12509000000E+03 0.  0.
        -11    1    3    3    0    0  0.25971703110E+02 -0.39549403630E+02  0.26699049162E+02  0.54327929432E+02  0.51100000000E-03 0. -1.
         23    2    1    0    0    0  0.25053417380E+02 -0.81696709307E-01  0.16462151904E+02  0.95111960670E+02  0.90264069376E+02 0.  0.
         11    1    3    3    0    0 -0.91828573040E+00  0.39467706921E+02 -0.10236897258E+02  0.40784031238E+02  0.51100000000E-03 0.  1.
         22    1    1    0    0    0 -0.25053417380E+02  0.81696709307E-01 -0.16462151904E+02  0.29978039330E+02  0.00000000000E+00 0.  1.
</event>
<event>
 5    1  0.1055265E-009  0.9118800E+02  0.7815553E-02  0.1125453E+00
         25   -1    0    0    0    0  0.00000000000E+00  0.00000000000E+00  0.99999998245E-14  0.12509000000E+03  0.12509000000E+03 0.  0.
        -11    1    3    3    0    0 -0.10752713232E+02 -0.52192324834E+02  0.30978163709E+02  0.61638512640E+02  0.51100000000E-03 0.  1.
         23    2    1    0    0    0 -0.12225452514E+02 -0.22282033310E+02  0.13526468577E+02  0.96299097795E+02  0.91894505746E+02 0.  0.
         11    1    3    3    0    0 -0.14727392819E+01  0.29910291524E+02 -0.17451695132E+02  0.34660585155E+02  0.51100000000E-03 0. -1.
         22    1    1    0    0    0  0.12225452514E+02  0.22282033310E+02 -0.13526468577E+02  0.28790902205E+02  0.00000000000E+00 0.  1.
</event>
<event>
 5    1  0.1055265E-009  0.9118800E+02  0.7815553E-02  0.1125453E+00
         25   -1    0    0    0    0  0.00000000000E+00  0.00000000000E+00  0.99999998245E-14  0.12509000000E+03  0.12509000000E+03 0.  0.
        -11    1    3    3    0    0  0.33885666408E+02 -0.48286882564E+02 -0.92158420333E+01  0.59705888824E+02  0.51100000000E-03 0.  1.
         23    2    1    0    0    0  0.14841253552E+02 -0.21661485696E+02  0.92014231232E+01  0.97266467567E+02  0.93202021200E+02 0.  0.
         11    1    3    3    0    0 -0.19044412856E+02  0.26625396867E+02  0.18417265156E+02  0.37560578743E+02  0.51100000000E-03 0. -1.
         22    1    1    0    0    0 -0.14841253552E+02  0.21661485696E+02 -0.92014231232E+01  0.27823532433E+02  0.00000000000E+00 0.  1.
</event>
<event>
 5    1  0.1055265E-009  0.9118800E+02  0.7815553E-02  0.1125453E+00
         25   -1    0    0    0    0  0.00000000000E+00  0.00000000000E+00  0.99999998245E-14  0.12509000000E+03  0.12509000000E+03 0.  0.
        -11    1    3    3    0    0  0.43170588444E+01  0.32127047519E+02 -0.20131624010E+02  0.38158438974E+02  0.51100000000E-03 0. -1.
         23    2    1    0    0    0  0.20318577619E+02  0.48988276503E+01  0.24533071289E+02  0.92860902965E+02  0.87088647962E+02 0.  0.
         11    1    3    3    0    0  0.16001518774E+02 -0.27228219869E+02  0.44664695300E+02  0.54702463992E+02  0.51100000000E-03 0.  1.
         22    1    1    0    0    0 -0.20318577619E+02 -0.48988276503E+01 -0.24533071289E+02  0.32229097035E+02  0.00000000000E+00 0.  1.
</event>
<event>
 5    1  0.1055265E-009  0.9118800E+02  0.7815553E-02  0.1125453E+00
         25   -1    0    0    0    0  0.00000000000E+00  0.00000000000E+00  0.99999998245E-14  0.12509000000E+03  0.12509000000E+03 0.  0.
        -11    1    3    3    0    0 -0.52655339368E+02  0.23085376235E+02 -0.19222500451E+02  0.60621975254E+02  0.51100000000E-03 0.  1.
         23    2    1    0    0    0 -0.27626098639E+02  0.21191582177E+00 -0.88897731959E+01  0.96068037596E+02  0.91579438444E+02 0.  0.
         11    1    3    3    0    0  0.25029240729E+02 -0.22873460413E+02  0.10332727255E+02  0.35446062342E+02  0.51100000000E-03 0. -1.
         22    1    1    0    0    0  0.27626098639E+02 -0.21191582177E+00  0.88897731959E+01  0.29021962404E+02  0.00000000000E+00 0.  1.
</event>
<event>
 5    1  0.1055265E-009  0.9118800E+02  0.7815553E-02  0.1125453E+00
         25   -1    0    0    0    0  0.00000000000E+00  0.00000000000E+00  0.99999998245E-14  0.12509000000E+03  0.12509000000E+03 0.  0.
        -11    1    3    3    0    0  0.18402854761E+02 -0.29407559641E+02 -0.64201895686E+01  0.35280142598E+02  0.51100000000E-03 0. -1.
         23    2    1    0    0    0  0.33322157298E+01  0.28985487956E+02 -0.40567557609E+01  0.95632922055E+02  0.90983165145E+02 0.  0.
         11    1    3    3    0    0 -0.15070639031E+02  0.58393047598E+02  0.23634338077E+01  0.60352779457E+02  0.51100000000E-03 0.  1.
         22    1    1    0    0    0 -0.33322157298E+01 -0.28985487956E+02  0.40567557609E+01  0.29457077945E+02  0.00000000000E+00 0.  1.
</event>
<event>
 5    1  0.1055265E-009  0.9118800E+02  0.7815553E-02  0.1125453E+00
         25   -1    0    0    0    0  0.00000000000E+00  0.00000000000E+00  0.99999998245E-14  0.12509000000E+03  0.12509000000E+03 0.  0.
        -11    1    3    3    0    0  0.29734580190E+02 -0.14348000403E+02  0.42349856944E+02  0.53698424168E+02  0.51100000000E-03 0. -1.
         23    2    1    0    0    0 -0.93963599987E+01 -0.31005839610E+01  0.25454423513E+02  0.97780058980E+02  0.93888801546E+02 0.  0.
         11    1    3    3    0    0 -0.39130940189E+02  0.11247416442E+02 -0.16895433431E+02  0.44081634813E+02  0.51100000000E-03 0.  1.
         22    1    1    0    0    0  0.93963599987E+01  0.31005839610E+01 -0.25454423513E+02  0.27309941020E+02  0.00000000000E+00 0.  1.
</event>
<event>
 5    1  0.1055265E-009  0.9118800E+02  0.7815553E-02  0.1125453E+00
         25   -1    0    0    0    0  0.00000000000E+00  0.00000000000E+00  0.99999998245E-14  0.12509000000E+03  0.12509000000E+03 0.  0.
        -11    1    3    3    0    0 -0.59526736017E+01 -0.27004793680E+02 -0.53277739048E+02  0.60026749729E+02  0.51100000000E-03 0.  1.
         23    2    1    0    0    0 -0.14129022836E+02 -0.71462901031E+01 -0.24038865499E+02  0.96305181032E+02  0.91902786087E+02 0.  0.
         11    1    3    3    0    0 -0.81763492342E+01  0.19858503577E+02  0.29238873549E+02  0.36278431303E+02  0.51100000000E-03 0. -1.
         22    1    1    0    0    0  0.14129022836E+02  0.71462901031E+01  0.24038865499E+02  0.28784818968E+02  0.00000000000E+00 0.  1.
</event>
<event>
 5    1  0.1055265E-009  0.9118800E+02  0.7815553E-02  0.1125453E+00
         25   -1    0    0    0    0  0.00000000000E+00  0.00000000000E+00  0.99999998245E-14  0.12509000000E+03  0.12509000000E+03 0.  0.
        -11    1    3    3    0    0  0.35916076874E+01  0.29751873282E+02  0.24403004021E+02  0.38646865527E+02  0.51100000000E-03 0.  1.
         23    2    1    0    0    0  0.13482691390E+02  0.26673116894E+02 -0.23131516196E+02  0.87297075087E+02  0.78692275004E+02 0.  0.
         11    1    3    3    0    0  0.98910837022E+01 -0.30787563878E+01 -0.47534520217E+02  0.48650209560E+02  0.51100000000E-03 0. -1.
         22    1    1    0    0    0 -0.13482691390E+02 -0.26673116894E+02  0.23131516196E+02  0.37792924913E+02  0.00000000000E+00 0. -1.
</event>
<event>
 5    1  0.1055265E-009  0.9118800E+02  0.7815553E-02  0.1125453E+00
         25   -1    0    0    0    0  0.00000000000E+00  0.00000000000E+00  0.99999998245E-14  0.12509000000E+03  0.12509000000E+03 0.  0.
        -11    1    3    3    0    0 -0.34842161269E+02  0.38345461824E+02 -0.28923899021E+02  0.59337530950E+02  0.51100000000E-03 0. -1.
         23    2    1    0    0    0 -0.43848213579E+01  0.25545253982E+02 -0.14546852891E+02  0.95367994879E+02  0.90618192759E+02 0.  0.
         11    1    3    3    0    0  0.30457339911E+02 -0.12800207842E+02  0.14377046130E+02  0.36030463929E+02  0.51100000000E-03 0.  1.
         22    1    1    0    0    0  0.43848213579E+01 -0.25545253982E+02  0.14546852891E+02  0.29722005121E+02  0.00000000000E+00 0. -1.
</event>
<event>
 5    1  0.1055265E-009  0.9118800E+02  0.7815553E-02  0.1125453E+00
         25   -1    0    0    0    0  0.00000000000E+00  0.00000000000E+00  0.99999998245E-14  0.12509000000E+03  0.12509000000E+03 0.  0.
        -11    1    3    3    0    0  0.41066421606E+02  0.30550648810E+02 -0.23062261008E+01  0.51235844927E+02  0.51100000000E-03 0.  1.
         23    2    1    0    0    0  0.37171557747E+01  0.18738026882E+02 -0.22718067612E+02  0.95407656856E+02  0.90672925905E+02 0.  0.
         11    1    3    3    0    0 -0.37349265832E+02 -0.11812621927E+02 -0.20411841511E+02  0.44171811929E+02  0.51100000000E-03 0. -1.
         22    1    1    0    0    0 -0.37171557747E+01 -0.18738026882E+02  0.22718067612E+02  0.29682343144E+02  0.00000000000E+00 0.  1.
</event>
<event>
 5    1  0.1055265E-009  0.9118800E+02  0.7815553E-02  0.1125453E+00
         25   -1    0    0    0    0  0.00000000000E+00  0.00000000000E+00  0.99999998245E-14  0.12509000000E+03  0.12509000000E+03 0.  0.
        -11    1    3    3    0    0  0.22470765185E+02  0.17984410850E+02 -0.22788266132E+02  0.36710753127E+02  0.51100000000E-03 0. -1.
         23    2    1    0    0    0 -0.12397285854E+02 -0.26108309880E+02 -0.11120121985E+02  0.94122377322E+02  0.88882103139E+02 0.  0.
         11    1    3    3    0    0 -0.34868051039E+02 -0.44092720730E+02  0.11668144147E+02  0.57411624195E+02  0.51100000000E-03 0.  1.
         22    1    1    0    0    0  0.12397285854E+02  0.26108309880E+02  0.11120121985E+02  0.30967622678E+02  0.00000000000E+00 0.  1.
</event>
<event>
 5    1  0.1055265E-009  0.9118800E+02  0.7815553E-02  0.1125453E+00
         25   -1    0    0    0    0  0.00000000000E+00  0.00000000000E+00  0.99999998245E-14  0.12509000000E+03  0.12509000000E+03 0.  0.
        -11    1    3    3    0    0  0.33430429271E+02 -0.14148867955E+02  0.33809909286E+02  0.49607398962E+02  0.51100000000E-03 0.  1.
         23    2    1    0    0    0  0.20279498085E+02  0.21434642654E+02  0.13449861729E+02  0.92661606133E+02  0.86801915430E+02 0.  0.
         11    1    3    3    0    0 -0.13150931186E+02  0.35583510609E+02 -0.20360047557E+02  0.43054207171E+02  0.51100000000E-03 0. -1.
         22    1    1    0    0    0 -0.20279498085E+02 -0.21434642654E+02 -0.13449861729E+02  0.32428393867E+02  0.00000000000E+00 0.  1.
</event>
<event>
 5    1  0.1055265E-009  0.9118800E+02  0.7815553E-02  0.1125453E+00
         25   -1    0    0    0    0  0.00000000000E+00  0.00000000000E+00  0.99999998245E-14  0.12509000000E+03  0.12509000000E+03 0.  0.
        -11    1    3    3    0    0  0.37845250034E+01 -0.54805219032E+02  0.13795035158E+02  0.56641306994E+02  0.51100000000E-03 0.  1.
         23    2    1    0    0    0 -0.89223206043E+01 -0.26240636041E+02 -0.96747783832E+01  0.95733908272E+02  0.91121902260E+02 0.  0.
         11    1    3    3    0    0 -0.12706845608E+02  0.28564582992E+02 -0.23469813541E+02  0.39092601278E+02  0.51100000000E-03 0. -1.
         22    1    1    0    0    0  0.89223206043E+01  0.26240636041E+02  0.96747783832E+01  0.29356091728E+02  0.00000000000E+00 0.  1.
</event>
<event>
 5    1  0.1055265E-009  0.9118800E+02  0.7815553E-02  0.1125453E+00
         25   -1    0    0    0    0  0.00000000000E+00  0.00000000000E+00  0.99999998245E-14  0.12509000000E+03  0.12509000000E+03 0.  0.
        -11    1    3    3    0    0  0.38799926866E+02 -0.24166136468E+02  0.36268806849E+02  0.58351202448E+02  0.51100000000E-03 0.  1.
         23    2    1    0    0    0  0.20014559896E+02 -0.20912532506E+02  0.39490745165E+01  0.95875075506E+02  0.91315487679E+02 0.  0.
         11    1    3    3    0    0 -0.18785366970E+02  0.32536039618E+01 -0.32319732333E+02  0.37523873058E+02  0.51100000000E-03 0. -1.
         22    1    1    0    0    0 -0.20014559896E+02  0.20912532506E+02 -0.39490745165E+01  0.29214924494E+02  0.00000000000E+00 0.  1.
</event>
<event>
 5    1  0.1055265E-009  0.9118800E+02  0.7815553E-02  0.1125453E+00
         25   -1    0    0    0    0  0.00000000000E+00  0.00000000000E+00  0.99999998245E-14  0.12509000000E+03  0.12509000000E+03 0.  0.
        -11    1    3    3    0    0 -0.43534230257E+02 -0.66408550463E+01  0.79812289864E+01  0.44755225128E+02  0.51100000000E-03 0. -1.
         23    2    1    0    0    0  0.15347879788E+01 -0.29180246578E+02 -0.55575088490E+00  0.95864134341E+02  0.91300498517E+02 0.  0.
         11    1    3    3    0    0  0.45069018236E+02 -0.22539391531E+02 -0.85369798713E+01  0.51108909213E+02  0.51100000000E-03 0.  1.
         22    1    1    0    0    0 -0.15347879788E+01  0.29180246578E+02  0.55575088490E+00  0.29225865659E+02  0.00000000000E+00 0.  1.
</event>
<event>
 5    1  0.1055265E-009  0.9118800E+02  0.7815553E-02  0.1125453E+00
         25   -1    0    0    0    0  0.00000000000E+00  0.00000000000E+00  0.99999998245E-14  0.12509000000E+03  0.12509000000E+03 0.  0.
        -11    1    3    3    0    0  0.44776943717E+02 -0.90016859784E+01 -0.39594006438E+02  0.60445763997E+02  0.51100000000E-03 0.  1.
         23    2    1    0    0    0  0.19713670258E+02 -0.12627448039E+02 -0.93786039868E+01  0.99870177405E+02  0.96633394244E+02 0.  0.
         11    1    3    3    0    0 -0.25063273460E+02 -0.36257620606E+01  0.30215402451E+02  0.39424413408E+02  0.51100000000E-03 0. -1.
         22    1    1    0    0    0 -0.19713670258E+02  0.12627448039E+02  0.93786039868E+01  0.25219822595E+02  0.00000000000E+00 0.  1.
</event>
<event>
 5    1  0.1055265E-009  0.9118800E+02  0.7815553E-02  0.1125453E+00
         25   -1    0    0    0    0  0.00000000000E+00  0.00000000000E+00  0.99999998245E-14  0.12509000000E+03  0.12509000000E+03 0.  0.
        -11    1    3    3    0    0 -0.14877479474E+02  0.27349792055E+02 -0.96282105264E+01  0.32589154011E+02  0.51100000000E-03 0. -1.
         23    2    1    0    0    0 -0.43551268538E+01 -0.31445826439E+02 -0.80477948987E+01  0.92339822397E+02  0.86336948447E+02 0.  0.
         11    1    3    3    0    0  0.10522352620E+02 -0.58795618494E+02  0.15804156277E+01  0.59750668386E+02  0.51100000000E-03 0.  1.
         22    1    1    0    0    0  0.43551268538E+01  0.31445826439E+02  0.80477948987E+01  0.32750177603E+02  0.00000000000E+00 0.  1.
</event>
<event>
 5    1  0.1055265E-009  0.9118800E+02  0.7815553E-02  0.1125453E+00
         25   -1    0    0    0    0  0.00000000000E+00  0.00000000000E+00  0.99999998245E-14  0.12509000000E+03  0.12509000000E+03 0.  0.
        -11    1    3    3    0    0 -0.18456409495E+02 -0.52327024562E+02 -0.86212643028E+00  0.55493241149E+02  0.51100000000E-03 0.  1.
         23    2    1    0    0    0 -0.22892928559E+02 -0.15634359336E+02  0.12346876053E+02  0.94742599483E+02  0.89750740602E+02 0.  0.
         11    1    3    3    0    0 -0.44365190644E+01  0.36692665226E+02  0.13209002483E+02  0.39249358334E+02  0.51100000000E-03 0. -1.
         22    1    1    0    0    0  0.22892928559E+02  0.15634359336E+02 -0.12346876053E+02  0.30347400517E+02  0.00000000000E+00 0.  1.
</event>
<event>
 5    1  0.1055265E-009  0.9118800E+02  0.7815553E-02  0.1125453E+00
         25   -1    0    0    0    0  0.00000000000E+00  0.00000000000E+00  0.99999998245E-14  0.12509000000E+03  0.12509000000E+03 0.  0.
        -11    1    3    3    0    0  0.46520771729E+01 -0.53094140574E+01  0.37894194990E+02  0.38546098556E+02  0.51100000000E-03 0.  1.
         23    2    1    0    0    0 -0.10562272964E+02  0.24417011597E+02 -0.97742847025E+01  0.96747651703E+02  0.92503077804E+02 0.  0.
         11    1    3    3    0    0 -0.15214350137E+02  0.29726425655E+02 -0.47668479693E+02  0.58201553148E+02  0.51100000000E-03 0. -1.
         22    1    1    0    0    0  0.10562272964E+02 -0.24417011597E+02  0.97742847025E+01  0.28342348297E+02  0.00000000000E+00 0. -1.
</event>
<event>
 5    1  0.1055265E-009  0.9118800E+02  0.7815553E-02  0.1125453E+00
         25   -1    0    0    0    0  0.00000000000E+00  0.00000000000E+00  0.99999998245E-14  0.12509000000E+03  0.12509000000E+03 0.  0.
        -11    1    3    3    0    0 -0.39384896885E+02 -0.31143198031E+01 -0.11073490518E+02  0.41030370252E+02  0.51100000000E-03 0. -1.
         23    2    1    0    0    0 -0.16780010545E+01 -0.14126941296E+02  0.26260469400E+02  0.95223657555E+02  0.90418728962E+02 0.  0.
         11    1    3    3    0    0  0.37706895831E+02 -0.11012621493E+02  0.37333959918E+02  0.54193287303E+02  0.51100000000E-03 0.  1.
         22    1    1    0    0    0  0.16780010545E+01  0.14126941296E+02 -0.26260469400E+02  0.29866342445E+02  0.00000000000E+00 0.  1.
</event>
<event>
 5    1  0.1055265E-009  0.9118800E+02  0.7815553E-02  0.1125453E+00
         25   -1    0    0    0    0  0.00000000000E+00  0.00000000000E+00  0.99999998245E-14  0.12509000000E+03  0.12509000000E+03 0.  0.
        -11    1    3    3    0    0  0.17729969134E+02  0.11313757818E+02 -0.29901958446E+02  0.36557899839E+02  0.51100000000E-03 0.  1.
         23    2    1    0    0    0  0.82901020191E+01  0.11587950126E+02  0.27172583527E+02  0.94408479908E+02  0.89283847382E+02 0.  0.
         11    1    3    3    0    0 -0.94398671150E+01  0.27419230866E+00  0.57074541973E+02  0.57850580069E+02  0.51100000000E-03 0. -1.
         22    1    1    0    0    0 -0.82901020191E+01 -0.11587950126E+02 -0.27172583527E+02  0.30681520092E+02  0.00000000000E+00 0. -1.
</event>
<event>
 5    1  0.1055265E-009  0.9118800E+02  0.7815553E-02  0.1125453E+00
         25   -1    0    0    0    0  0.00000000000E+00  0.00000000000E+00  0.99999998245E-14  0.12509000000E+03  0.12509000000E+03 0.  0.
        -11    1    3    3    0    0  0.24519236769E+01 -0.26514448894E+02 -0.35027122717E+02  0.43999173355E+02  0.51100000000E-03 0. -1.
         23    2    1    0    0    0  0.15971639786E+02 -0.16777463454E+02  0.15510628715E+02  0.97212479297E+02  0.93129533288E+02 0.  0.
         11    1    3    3    0    0  0.13519716110E+02  0.97369854400E+01  0.50537751432E+02  0.53213305942E+02  0.51100000000E-03 0.  1.
         22    1    1    0    0    0 -0.15971639786E+02  0.16777463454E+02 -0.15510628715E+02  0.27877520703E+02  0.00000000000E+00 0.  1.
</event>
<event>
 5    1  0.1055265E-009  0.9118800E+02  0.7815553E-02  0.1125453E+00
         25   -1    0    0    0    0  0.00000000000E+00  0.00000000000E+00  0.99999998245E-14  0.12509000000E+03  0.12509000000E+03 0.  0.
        -11    1    3    3    0    0  0.19690567191E+02  0.19462191703E+02  0.55751845694E+02  0.62247599478E+02  0.51100000000E-03 0.  1.
         23    2    1    0    0    0  0.51143225673E+01  0.10338938874E+02  0.26660773906E+02  0.96040958404E+02  0.91542443017E+02 0.  0.
         11    1    3    3    0    0 -0.14576244624E+02 -0.91232528288E+01 -0.29091071788E+02  0.33793358926E+02  0.51100000000E-03 0. -1.
         22    1    1    0    0    0 -0.51143225673E+01 -0.10338938874E+02 -0.26660773906E+02  0.29049041596E+02  0.00000000000E+00 0.  1.
</event>
<event>
 5    1  0.1055265E-009  0.9118800E+02  0.7815553E-02  0.1125453E+00
         25   -1    0    0    0    0  0.00000000000E+00  0.00000000000E+00  0.99999998245E-14  0.12509000000E+03  0.12509000000E+03 0.  0.
        -11    1    3    3    0    0  0.70445388848E+01  0.61590161619E+01 -0.41388318265E+02  0.42432910544E+02  0.51100000000E-03 0. -1.
         23    2    1    0    0    0 -0.24785532604E+02 -0.15559953182E+02 -0.50612526069E+01  0.95390655775E+02  0.90649468624E+02 0.  0.
         11    1    3    3    0    0 -0.31830071488E+02 -0.21718969344E+02  0.36327065658E+02  0.52957745231E+02  0.51100000000E-03 0.  1.
         22    1    1    0    0    0  0.24785532604E+02  0.15559953182E+02  0.50612526069E+01  0.29699344225E+02  0.00000000000E+00 0.  1.
</event>
<event>
 5    1  0.1055265E-009  0.9118800E+02  0.7815553E-02  0.1125453E+00
         25   -1    0    0    0    0  0.00000000000E+00  0.00000000000E+00  0.99999998245E-14  0.12509000000E+03  0.12509000000E+03 0.  0.
        -11    1    3    3    0    0  0.25436646120E+02  0.24471411810E+02 -0.18201316842E+01  0.35343823242E+02  0.51100000000E-03 0. -1.
         23    2    1    0    0    0 -0.18031058987E+02 -0.12053742530E+02 -0.20631901482E+02  0.95155285104E+02  0.90324089407E+02 0.  0.
         11    1    3    3    0    0 -0.43467705106E+02 -0.36525154340E+02 -0.18811769798E+02  0.59811461861E+02  0.51100000000E-03 0.  1.
         22    1    1    0    0    0  0.18031058987E+02  0.12053742530E+02  0.20631901482E+02  0.29934714896E+02  0.00000000000E+00 0.  1.
</event>
<event>
 5    1  0.1055265E-009  0.9118800E+02  0.7815553E-02  0.1125453E+00
         25   -1    0    0    0    0  0.00000000000E+00  0.00000000000E+00  0.99999998245E-14  0.12509000000E+03  0.12509000000E+03 0.  0.
        -11    1    3    3    0    0 -0.22428960583E+02  0.17220468110E+02 -0.33406072991E+02  0.43767208133E+02  0.51100000000E-03 0. -1.
         23    2    1    0    0    0 -0.14134768594E+02 -0.25968213616E+02 -0.84149116313E+01  0.94349952190E+02  0.89201810177E+02 0.  0.
         11    1    3    3    0    0  0.82941919892E+01 -0.43188681726E+02  0.24991161360E+02  0.50582744057E+02  0.51100000000E-03 0.  1.
         22    1    1    0    0    0  0.14134768594E+02  0.25968213616E+02  0.84149116313E+01  0.30740047810E+02  0.00000000000E+00 0.  1.
</event>
<event>
 5    1  0.1055265E-009  0.9118800E+02  0.7815553E-02  0.1125453E+00
         25   -1    0    0    0    0  0.00000000000E+00  0.00000000000E+00  0.99999998245E-14  0.12509000000E+03  0.12509000000E+03 0.  0.
        -11    1    3    3    0    0  0.32683391461E+02  0.81670355732E+01 -0.11843537644E+02  0.35709577590E+02  0.51100000000E-03 0.  1.
         23    2    1    0    0    0 -0.27037613296E+02 -0.15573010511E+01  0.24952409281E+01  0.97892868780E+02  0.94038980276E+02 0.  0.
         11    1    3    3    0    0 -0.59721004757E+02 -0.97243366243E+01  0.14338778572E+02  0.62183291190E+02  0.51100000000E-03 0. -1.
         22    1    1    0    0    0  0.27037613296E+02  0.15573010511E+01 -0.24952409281E+01  0.27197131220E+02  0.00000000000E+00 0. -1.
</event>
<event>
 5    1  0.1055265E-009  0.9118800E+02  0.7815553E-02  0.1125453E+00
         25   -1    0    0    0    0  0.00000000000E+00  0.00000000000E+00  0.99999998245E-14  0.12509000000E+03  0.12509000000E+03 0.  0.
        -11    1    3    3    0    0  0.18474288287E+02 -0.17855524142E+02  0.27823556205E+02  0.37871748708E+02  0.51100000000E-03 0.  1.
         23    2    1    0    0    0 -0.16442501735E+02  0.23374125894E+02  0.81215203027E+01  0.95380326211E+02  0.90635213419E+02 0.  0.
         11    1    3    3    0    0 -0.34916790021E+02  0.41229650036E+02 -0.19702035902E+02  0.57508577503E+02  0.51100000000E-03 0. -1.
         22    1    1    0    0    0  0.16442501735E+02 -0.23374125894E+02 -0.81215203027E+01  0.29709673789E+02  0.00000000000E+00 0. -1.
</event>
<event>
 5    1  0.1055265E-009  0.9118800E+02  0.7815553E-02  0.1125453E+00
         25   -1    0    0    0    0  0.00000000000E+00  0.00000000000E+00  0.99999998245E-14  0.12509000000E+03  0.12509000000E+03 0.  0.
        -11    1    3    3    0    0 -0.47501958070E+00  0.46383970674E+01  0.35636074043E+02  0.35939812804E+02  0.51100000000E-03 0.  1.
         23    2    1    0    0    0 -0.10048066195E+02  0.15398096961E+02 -0.22614388436E+02  0.95944235495E+02  0.91410178515E+02 0.  0.
         11    1    3    3    0    0 -0.95730466138E+01  0.10759699894E+02 -0.58250462478E+02  0.60004422691E+02  0.51100000000E-03 0. -1.
         22    1    1    0    0    0  0.10048066195E+02 -0.15398096961E+02  0.22614388436E+02  0.29145764505E+02  0.00000000000E+00 0. -1.
</event>
<event>
 5    1  0.1055265E-009  0.9118800E+02  0.7815553E-02  0.1125453E+00
         25   -1    0    0    0    0  0.00000000000E+00  0.00000000000E+00  0.99999998245E-14  0.12509000000E+03  0.12509000000E+03 0.  0.
        -11    1    3    3    0    0 -0.40001225914E+02 -0.40274992501E+02  0.17282451233E+02  0.59336803221E+02  0.51100000000E-03 0.  1.
         23    2    1    0    0    0 -0.27310595790E+02 -0.94807662897E+01  0.16392792734E+01  0.96134157612E+02  0.91669708472E+02 0.  0.
         11    1    3    3    0    0  0.12690630124E+02  0.30794226212E+02 -0.15643171960E+02  0.36797354391E+02  0.51100000000E-03 0. -1.
         22    1    1    0    0    0  0.27310595790E+02  0.94807662897E+01 -0.16392792734E+01  0.28955842388E+02  0.00000000000E+00 0.  1.
</event>
<event>
 5    1  0.1055265E-009  0.9118800E+02  0.7815553E-02  0.1125453E+00
         25   -1    0    0    0    0  0.00000000000E+00  0.00000000000E+00  0.99999998245E-14  0.12509000000E+03  0.12509000000E+03 0.  0.
        -11    1    3    3    0    0  0.59053669901E+02 -0.33779019569E+01  0.80323733463E+00  0.59155653499E+02  0.51100000000E-03 0. -1.
         23    2    1    0    0    0  0.24703098380E+02 -0.99098078155E+01 -0.11323298653E+02  0.96164847401E+02  0.91711577365E+02 0.  0.
         11    1    3    3    0    0 -0.34350571521E+02 -0.65319058586E+01 -0.12126535987E+02  0.37009193902E+02  0.51100000000E-03 0.  1.
         22    1    1    0    0    0 -0.24703098380E+02  0.99098078155E+01  0.11323298653E+02  0.28925152599E+02  0.00000000000E+00 0. -1.
</event>
<event>
 5    1  0.1055265E-009  0.9118800E+02  0.7815553E-02  0.1125453E+00
         25   -1    0    0    0    0  0.00000000000E+00  0.00000000000E+00  0.99999998245E-14  0.12509000000E+03  0.12509000000E+03 0.  0.
        -11    1    3    3    0    0 -0.15215288908E+02  0.14815826342E+01 -0.46816963250E+02  0.49249651286E+02  0.51100000000E-03 0. -1.
         23    2    1    0    0    0 -0.16446143285E+02 -0.24853913454E+02 -0.11905933445E+02  0.92997261038E+02  0.87284286481E+02 0.  0.
         11    1    3    3    0    0 -0.12308543770E+01 -0.26335496088E+02  0.34911029805E+02  0.43747609752E+02  0.51100000000E-03 0.  1.
         22    1    1    0    0    0  0.16446143285E+02  0.24853913454E+02  0.11905933445E+02  0.32092738962E+02  0.00000000000E+00 0. -1.
</event>
<event>
 5    1  0.1055265E-009  0.9118800E+02  0.7815553E-02  0.1125453E+00
         25   -1    0    0    0    0  0.00000000000E+00  0.00000000000E+00  0.99999998245E-14  0.12509000000E+03  0.12509000000E+03 0.  0.
        -11    1    3    3    0    0 -0.18807759219E+02 -0.36564629103E+02  0.12806671006E+02  0.43066399093E+02  0.51100000000E-03 0. -1.
         23    2    1    0    0    0 -0.19028660030E+02  0.17010578053E+02  0.12561995870E+02  0.96642620358E+02  0.92360936879E+02 0.  0.
         11    1    3    3    0    0 -0.22090081097E+00  0.53575207155E+02 -0.24467513594E+00  0.53576221266E+02  0.51100000000E-03 0.  1.
         22    1    1    0    0    0  0.19028660030E+02 -0.17010578053E+02 -0.12561995870E+02  0.28447379642E+02  0.00000000000E+00 0.  1.
</event>
<event>
 5    1  0.1055265E-009  0.9118800E+02  0.7815553E-02  0.1125453E+00
         25   -1    0    0    0    0  0.00000000000E+00  0.00000000000E+00  0.99999998245E-14  0.12509000000E+03  0.12509000000E+03 0.  0.
        -11    1    3    3    0    0 -0.50024992571E+01 -0.33963228193E+02 -0.11705406100E+02  0.36270406675E+02  0.51100000000E-03 0.  1.
         23    2    1    0    0    0 -0.10599843799E+02  0.92591059830E+01  0.27053162045E+02  0.94594733010E+02  0.89544414703E+02 0.  0.
         11    1    3    3    0    0 -0.55973445415E+01  0.43222334176E+02  0.38758568145E+02  0.58324326335E+02  0.51100000000E-03 0. -1.
         22    1    1    0    0    0  0.10599843799E+02 -0.92591059830E+01 -0.27053162045E+02  0.30495266990E+02  0.00000000000E+00 0. -1.
</event>
<event>
 5    1  0.1055265E-009  0.9118800E+02  0.7815553E-02  0.1125453E+00
         25   -1    0    0    0    0  0.00000000000E+00  0.00000000000E+00  0.99999998245E-14  0.12509000000E+03  0.12509000000E+03 0.  0.
        -11    1    3    3    0    0 -0.14537629364E+01 -0.24967056829E+02 -0.30711297692E+02  0.39606201024E+02  0.51100000000E-03 0.  1.
         23    2    1    0    0    0 -0.26667102051E+02  0.22343758229E+01  0.11644452636E+02  0.95905756917E+02  0.91357507439E+02 0.  0.
         11    1    3    3    0    0 -0.25213339115E+02  0.27201432652E+02  0.42355750328E+02  0.56299555893E+02  0.51100000000E-03 0. -1.
         22    1    1    0    0    0  0.26667102051E+02 -0.22343758229E+01 -0.11644452636E+02  0.29184243083E+02  0.00000000000E+00 0. -1.
</event>
<event>
 5    1  0.1055265E-009  0.9118800E+02  0.7815553E-02  0.1125453E+00
         25   -1    0    0    0    0  0.00000000000E+00  0.00000000000E+00  0.99999998245E-14  0.12509000000E+03  0.12509000000E+03 0.  0.
        -11    1    3    3    0    0 -0.46186712918E+01  0.41484399049E+01 -0.50473782982E+02  0.50854148768E+02  0.51100000000E-03 0. -1.
         23    2    1    0    0    0  0.93726403096E+01 -0.22255034164E+02 -0.18092732106E+02  0.94915840739E+02  0.89991871500E+02 0.  0.
         11    1    3    3    0    0  0.13991311601E+02 -0.26403474069E+02  0.32381050876E+02  0.44061691971E+02  0.51100000000E-03 0.  1.
         22    1    1    0    0    0 -0.93726403096E+01  0.22255034164E+02  0.18092732106E+02  0.30174159261E+02  0.00000000000E+00 0. -1.
</event>
<event>
 5    1  0.1055265E-009  0.9118800E+02  0.7815553E-02  0.1125453E+00
         25   -1    0    0    0    0  0.00000000000E+00  0.00000000000E+00  0.99999998245E-14  0.12509000000E+03  0.12509000000E+03 0.  0.
        -11    1    3    3    0    0 -0.25877262137E+02  0.21719136683E+02 -0.15697349443E+02  0.37252655929E+02  0.51100000000E-03 0.  1.
         23    2    1    0    0    0  0.21954733615E+02  0.79492488712E+01  0.16469398416E+02  0.96516551312E+02  0.92190035835E+02 0.  0.
         11    1    3    3    0    0  0.47831995752E+02 -0.13769887812E+02  0.32166747859E+02  0.59263895384E+02  0.51100000000E-03 0. -1.
         22    1    1    0    0    0 -0.21954733615E+02 -0.79492488712E+01 -0.16469398416E+02  0.28573448688E+02  0.00000000000E+00 0. -1.
</event>
<event>
 5    1  0.1055265E-009  0.9118800E+02  0.7815553E-02  0.1125453E+00
         25   -1    0    0    0    0  0.00000000000E+00  0.00000000000E+00  0.99999998245E-14  0.12509000000E+03  0.12509000000E+03 0.  0.
        -11    1    3    3    0    0  0.22019407522E+02  0.38046754429E+02  0.88615738339E+01  0.44843475794E+02  0.51100000000E-03 0. -1.
         23    2    1    0    0    0 -0.82727054662E+01  0.33429883638E+01  0.28727018653E+02  0.95009195030E+02  0.90121541890E+02 0.  0.
         11    1    3    3    0    0 -0.30292112988E+02 -0.34703766065E+02  0.19865444819E+02  0.50165719237E+02  0.51100000000E-03 0.  1.
         22    1    1    0    0    0  0.82727054662E+01 -0.33429883638E+01 -0.28727018653E+02  0.30080804970E+02  0.00000000000E+00 0.  1.
</event>
<event>
 5    1  0.1055265E-009  0.9118800E+02  0.7815553E-02  0.1125453E+00
         25   -1    0    0    0    0  0.00000000000E+00  0.00000000000E+00  0.99999998245E-14  0.12509000000E+03  0.12509000000E+03 0.  0.
        -11    1    3    3    0    0 -0.13621146853E+01 -0.10685864847E+02 -0.48698665858E+02  0.49875877141E+02  0.51100000000E-03 0.  1.
         23    2    1    0    0    0  0.24066502870E+01  0.22456142725E+02 -0.11828216330E+02  0.99595353244E+02  0.96276982579E+02 0.  0.
         11    1    3    3    0    0  0.37687649724E+01  0.33142007572E+02  0.36870449528E+02  0.49719476103E+02  0.51100000000E-03 0. -1.
         22    1    1    0    0    0 -0.24066502870E+01 -0.22456142725E+02  0.11828216330E+02  0.25494646756E+02  0.00000000000E+00 0. -1.
</event>
<event>
 5    1  0.1055265E-009  0.9118800E+02  0.7815553E-02  0.1125453E+00
         25   -1    0    0    0    0  0.00000000000E+00  0.00000000000E+00  0.99999998245E-14  0.12509000000E+03  0.12509000000E+03 0.  0.
        -11    1    3    3    0    0 -0.76706538078E+01 -0.99044009819E+01  0.30182447422E+02  0.32678987458E+02  0.51100000000E-03 0.  1.
         23    2    1    0    0    0  0.17059144969E+02 -0.34282038064E+01 -0.25655444202E+02  0.94090502817E+02  0.88837232593E+02 0.  0.
         11    1    3    3    0    0  0.24729798777E+02  0.64761971755E+01 -0.55837891624E+02  0.61411515359E+02  0.51100000000E-03 0. -1.
         22    1    1    0    0    0 -0.17059144969E+02  0.34282038064E+01  0.25655444202E+02  0.30999497183E+02  0.00000000000E+00 0. -1.
</event>
<event>
 5    1  0.1055265E-009  0.9118800E+02  0.7815553E-02  0.1125453E+00
         25   -1    0    0    0    0  0.00000000000E+00  0.00000000000E+00  0.99999998245E-14  0.12509000000E+03  0.12509000000E+03 0.  0.
        -11    1    3    3    0    0  0.20714353574E+02 -0.29496106251E+02  0.41945825540E+02  0.55304222338E+02  0.51100000000E-03 0. -1.
         23    2    1    0    0    0  0.12958532169E+02  0.68774910299E+01  0.24841144225E+02  0.96240287952E+02  0.91814416841E+02 0.  0.
         11    1    3    3    0    0 -0.77558214045E+01  0.36373597281E+02 -0.17104681315E+02  0.40936065614E+02  0.51100000000E-03 0.  1.
         22    1    1    0    0    0 -0.12958532169E+02 -0.68774910299E+01 -0.24841144225E+02  0.28849712048E+02  0.00000000000E+00 0. -1.
</event>
<event>
 5    1  0.1055265E-009  0.9118800E+02  0.7815553E-02  0.1125453E+00
         25   -1    0    0    0    0  0.00000000000E+00  0.00000000000E+00  0.99999998245E-14  0.12509000000E+03  0.12509000000E+03 0.  0.
        -11    1    3    3    0    0 -0.14834429645E+02 -0.35779754538E+02  0.22902801027E+02  0.44997660304E+02  0.51100000000E-03 0.  1.
         23    2    1    0    0    0 -0.19688302258E+02  0.15373669633E+02  0.11293940113E+02  0.97675915170E+02  0.93749945906E+02 0.  0.
         11    1    3    3    0    0 -0.48538726128E+01  0.51153424171E+02 -0.11608860914E+02  0.52678254866E+02  0.51100000000E-03 0. -1.
         22    1    1    0    0    0  0.19688302258E+02 -0.15373669633E+02 -0.11293940113E+02  0.27414084830E+02  0.00000000000E+00 0. -1.
</event>
<event>
 5    1  0.1055265E-009  0.9118800E+02  0.7815553E-02  0.1125453E+00
         25   -1    0    0    0    0  0.00000000000E+00  0.00000000000E+00  0.99999998245E-14  0.12509000000E+03  0.12509000000E+03 0.  0.
        -11    1    3    3    0    0 -0.37782105756E+02  0.58109082873E+01  0.79585135457E+01  0.39046025516E+02  0.51100000000E-03 0.  1.
         23    2    1    0    0    0  0.17184486909E+02  0.97294386597E+01  0.21608183514E+02  0.95817450371E+02  0.91236514806E+02 0.  0.
         11    1    3    3    0    0  0.54966592666E+02  0.39185303724E+01  0.13649669968E+02  0.56771424855E+02  0.51100000000E-03 0. -1.
         22    1    1    0    0    0 -0.17184486909E+02 -0.97294386597E+01 -0.21608183514E+02  0.29272549629E+02  0.00000000000E+00 0. -1.
</event>
<event>
 5    1  0.1055265E-009  0.9118800E+02  0.7815553E-02  0.1125453E+00
         25   -1    0    0    0    0  0.00000000000E+00  0.00000000000E+00  0.99999998245E-14  0.12509000000E+03  0.12509000000E+03 0.  0.
        -11    1    3    3    0    0 -0.27181265196E+02  0.30574126341E+02  0.38498417816E+01  0.41090384048E+02  0.51100000000E-03 0.  1.
         23    2    1    0    0    0 -0.18505301338E+02 -0.21030609307E+02 -0.10208389904E+02  0.95274837249E+02  0.90489505927E+02 0.  0.
         11    1    3    3    0    0  0.86759638579E+01 -0.51604735649E+02 -0.14058231686E+02  0.54184453200E+02  0.51100000000E-03 0. -1.
         22    1    1    0    0    0  0.18505301338E+02  0.21030609307E+02  0.10208389904E+02  0.29815162751E+02  0.00000000000E+00 0.  1.
</event>
<event>
 5    1  0.1055265E-009  0.9118800E+02  0.7815553E-02  0.1125453E+00
         25   -1    0    0    0    0  0.00000000000E+00  0.00000000000E+00  0.99999998245E-14  0.12509000000E+03  0.12509000000E+03 0.  0.
        -11    1    3    3    0    0  0.30064659048E+02  0.45907563851E+02  0.11027818745E+02  0.55973216174E+02  0.51100000000E-03 0. -1.
         23    2    1    0    0    0  0.28793184959E+02  0.94366435504E+01 -0.20048019255E+01  0.94723621020E+02  0.89724285490E+02 0.  0.
         11    1    3    3    0    0 -0.12714740890E+01 -0.36470920300E+02 -0.13032620670E+02  0.38750404845E+02  0.51100000000E-03 0.  1.
         22    1    1    0    0    0 -0.28793184959E+02 -0.94366435504E+01  0.20048019255E+01  0.30366378980E+02  0.00000000000E+00 0.  1.
</event>
<event>
 5    1  0.1055265E-009  0.9118800E+02  0.7815553E-02  0.1125453E+00
         25   -1    0    0    0    0  0.00000000000E+00  0.00000000000E+00  0.99999998245E-14  0.12509000000E+03  0.12509000000E+03 0.  0.
        -11    1    3    3    0    0 -0.75613196857E+00  0.28830058869E+02 -0.48750665293E+02  0.56642487557E+02  0.51100000000E-03 0.  1.
         23    2    1    0    0    0 -0.16635773697E+02  0.14658274415E+02 -0.10187685911E+02  0.10068912052E+03  0.97687747804E+02 0.  0.
         11    1    3    3    0    0 -0.15879641728E+02 -0.14171784455E+02  0.38562979382E+02  0.44046632960E+02  0.51100000000E-03 0. -1.
         22    1    1    0    0    0  0.16635773697E+02 -0.14658274415E+02  0.10187685911E+02  0.24400879482E+02  0.00000000000E+00 0.  1.
</event>
<event>
 5    1  0.1055265E-009  0.9118800E+02  0.7815553E-02  0.1125453E+00
         25   -1    0    0    0    0  0.00000000000E+00  0.00000000000E+00  0.99999998245E-14  0.12509000000E+03  0.12509000000E+03 0.  0.
        -11    1    3    3    0    0 -0.47580245584E+02 -0.17917714160E+02 -0.20849559130E+02  0.54951145272E+02  0.51100000000E-03 0.  1.
         23    2    1    0    0    0 -0.23682071209E+02  0.13342589222E+02 -0.12478327877E+02  0.95180572548E+02  0.90359103250E+02 0.  0.
         11    1    3    3    0    0  0.23898174375E+02  0.31260303382E+02  0.83712312531E+01  0.40229427276E+02  0.51100000000E-03 0. -1.
         22    1    1    0    0    0  0.23682071209E+02 -0.13342589222E+02  0.12478327877E+02  0.29909427452E+02  0.00000000000E+00 0. -1.
</event>
<event>
 5    1  0.1055265E-009  0.9118800E+02  0.7815553E-02  0.1125453E+00
         25   -1    0    0    0    0  0.00000000000E+00  0.00000000000E+00  0.99999998245E-14  0.12509000000E+03  0.12509000000E+03 0.  0.
        -11    1    3    3    0    0  0.24704967136E+02 -0.56256765741E+02  0.76948119496E+01  0.61922283743E+02  0.51100000000E-03 0.  1.
         23    2    1    0    0    0  0.10828536558E+02 -0.28579609999E+02 -0.22601215266E+01  0.94444291312E+02  0.89334006405E+02 0.  0.
         11    1    3    3    0    0 -0.13876430577E+02  0.27677155742E+02 -0.99549334762E+01  0.32522007569E+02  0.51100000000E-03 0. -1.
         22    1    1    0    0    0 -0.10828536558E+02  0.28579609999E+02  0.22601215266E+01  0.30645708688E+02  0.00000000000E+00 0.  1.
</event>
<event>
 5    1  0.1055265E-009  0.9118800E+02  0.7815553E-02  0.1125453E+00
         25   -1    0    0    0    0  0.00000000000E+00  0.00000000000E+00  0.99999998245E-14  0.12509000000E+03  0.12509000000E+03 0.  0.
        -11    1    3    3    0    0  0.30038869346E+02 -0.31231310889E+02  0.26681266806E+02  0.50888293841E+02  0.51100000000E-03 0. -1.
         23    2    1    0    0    0  0.38056784716E+01 -0.23972056665E+02  0.37699251697E+02  0.80252780328E+02  0.66559240399E+02 0.  0.
         11    1    3    3    0    0 -0.26233190874E+02  0.72592542240E+01  0.11017984891E+02  0.29364486487E+02  0.51100000000E-03 0.  1.
         22    1    1    0    0    0 -0.38056784716E+01  0.23972056665E+02 -0.37699251697E+02  0.44837219672E+02  0.00000000000E+00 0. -1.
</event>
<event>
 5    1  0.1055265E-009  0.9118800E+02  0.7815553E-02  0.1125453E+00
         25   -1    0    0    0    0  0.00000000000E+00  0.00000000000E+00  0.99999998245E-14  0.12509000000E+03  0.12509000000E+03 0.  0.
        -11    1    3    3    0    0 -0.11263261208E+02  0.32905560149E+02  0.14353205762E+02  0.37625143956E+02  0.51100000000E-03 0. -1.
         23    2    1    0    0    0  0.21213944047E+02 -0.16008449956E+02  0.10660434293E+02  0.96455287650E+02  0.92106871429E+02 0.  0.
         11    1    3    3    0    0  0.32477205255E+02 -0.48914010105E+02 -0.36927714692E+01  0.58830143695E+02  0.51100000000E-03 0.  1.
         22    1    1    0    0    0 -0.21213944047E+02  0.16008449956E+02 -0.10660434293E+02  0.28634712350E+02  0.00000000000E+00 0.  1.
</event>
<event>
 5    1  0.1055265E-009  0.9118800E+02  0.7815553E-02  0.1125453E+00
         25   -1    0    0    0    0  0.00000000000E+00  0.00000000000E+00  0.99999998245E-14  0.12509000000E+03  0.12509000000E+03 0.  0.
        -11    1    3    3    0    0  0.14899327605E+02 -0.42329722642E+02 -0.34999540138E+01  0.45011610285E+02  0.51100000000E-03 0. -1.
         23    2    1    0    0    0 -0.24098271599E+02 -0.10753097587E+02 -0.12332860143E+02  0.95961744970E+02  0.91434136167E+02 0.  0.
         11    1    3    3    0    0 -0.38997599203E+02  0.31576625056E+02 -0.88329061296E+01  0.50950134686E+02  0.51100000000E-03 0.  1.
         22    1    1    0    0    0  0.24098271599E+02  0.10753097587E+02  0.12332860143E+02  0.29128255030E+02  0.00000000000E+00 0. -1.
</event>
<event>
 5    1  0.1055265E-009  0.9118800E+02  0.7815553E-02  0.1125453E+00
         25   -1    0    0    0    0  0.00000000000E+00  0.00000000000E+00  0.99999998245E-14  0.12509000000E+03  0.12509000000E+03 0.  0.
        -11    1    3    3    0    0 -0.12663538213E+02 -0.26505500738E+02 -0.49836722469E+02  0.57849854590E+02  0.51100000000E-03 0. -1.
         23    2    1    0    0    0 -0.12720622990E+02 -0.19729944588E+02 -0.79138776576E+01  0.10031673977E+03  0.97209741572E+02 0.  0.
         11    1    3    3    0    0 -0.57084776691E-01  0.67755561506E+01  0.41922844811E+02  0.42466885183E+02  0.51100000000E-03 0.  1.
         22    1    1    0    0    0  0.12720622990E+02  0.19729944588E+02  0.79138776576E+01  0.24773260227E+02  0.00000000000E+00 0. -1.
</event>
<event>
 5    1  0.1055265E-009  0.9118800E+02  0.7815553E-02  0.1125453E+00
         25   -1    0    0    0    0  0.00000000000E+00  0.00000000000E+00  0.99999998245E-14  0.12509000000E+03  0.12509000000E+03 0.  0.
        -11    1    3    3    0    0  0.38848547929E+02 -0.28293927082E+02  0.25980554818E+02  0.54632821773E+02  0.51100000000E-03 0.  1.
         23    2    1    0    0    0  0.16041766730E+02  0.48539268505E+01  0.25137454726E+02  0.94877576797E+02  0.89938668342E+02 0.  0.
         11    1    3    3    0    0 -0.22806781199E+02  0.33147853932E+02 -0.84310009269E+00  0.40244755025E+02  0.51100000000E-03 0. -1.
         22    1    1    0    0    0 -0.16041766730E+02 -0.48539268505E+01 -0.25137454726E+02  0.30212423203E+02  0.00000000000E+00 0.  1.
</event>
<event>
 5    1  0.1055265E-009  0.9118800E+02  0.7815553E-02  0.1125453E+00
         25   -1    0    0    0    0  0.00000000000E+00  0.00000000000E+00  0.99999998245E-14  0.12509000000E+03  0.12509000000E+03 0.  0.
        -11    1    3    3    0    0 -0.24148526991E+02  0.56491396422E+01  0.43102921364E+02  0.49728522650E+02  0.51100000000E-03 0.  1.
         23    2    1    0    0    0 -0.24699297663E+01  0.27483135730E+02  0.81005203912E+01  0.96331666717E+02  0.91938829007E+02 0.  0.
         11    1    3    3    0    0  0.21678597225E+02  0.21833996088E+02 -0.35002400973E+02  0.46603144067E+02  0.51100000000E-03 0. -1.
         22    1    1    0    0    0  0.24699297663E+01 -0.27483135730E+02 -0.81005203912E+01  0.28758333283E+02  0.00000000000E+00 0.  1.
</event>
<event>
 5    1  0.1055265E-009  0.9118800E+02  0.7815553E-02  0.1125453E+00
         25   -1    0    0    0    0  0.00000000000E+00  0.00000000000E+00  0.99999998245E-14  0.12509000000E+03  0.12509000000E+03 0.  0.
        -11    1    3    3    0    0 -0.33771551290E+02  0.37310512891E+02 -0.31670476323E+02  0.59461005033E+02  0.51100000000E-03 0. -1.
         23    2    1    0    0    0 -0.14341992416E+02  0.76491469279E+01 -0.24580416214E+02  0.95621388624E+02  0.90967306797E+02 0.  0.
         11    1    3    3    0    0  0.19429558874E+02 -0.29661365963E+02  0.70900601092E+01  0.36160383591E+02  0.51100000000E-03 0.  1.
         22    1    1    0    0    0  0.14341992416E+02 -0.76491469279E+01  0.24580416214E+02  0.29468611376E+02  0.00000000000E+00 0. -1.
</event>
<event>
 5    1  0.1055265E-009  0.9118800E+02  0.7815553E-02  0.1125453E+00
         25   -1    0    0    0    0  0.00000000000E+00  0.00000000000E+00  0.99999998245E-14  0.12509000000E+03  0.12509000000E+03 0.  0.
        -11    1    3    3    0    0  0.14184039717E+02  0.45918408628E+02  0.24027753429E+02  0.53730998211E+02  0.51100000000E-03 0.  1.
         23    2    1    0    0    0  0.10975824431E+02  0.41583358968E+01  0.26928811614E+02  0.95714476612E+02  0.91095223030E+02 0.  0.
         11    1    3    3    0    0 -0.32082152861E+01 -0.41760072731E+02  0.29010581850E+01  0.41983478402E+02  0.51100000000E-03 0. -1.
         22    1    1    0    0    0 -0.10975824431E+02 -0.41583358968E+01 -0.26928811614E+02  0.29375523388E+02  0.00000000000E+00 0.  1.
</event>
<event>
 5    1  0.1055265E-009  0.9118800E+02  0.7815553E-02  0.1125453E+00
         25   -1    0    0    0    0  0.00000000000E+00  0.00000000000E+00  0.99999998245E-14  0.12509000000E+03  0.12509000000E+03 0.  0.
        -11    1    3    3    0    0 -0.30139376358E+02 -0.21304137853E+02 -0.76173802690E+01  0.37686506595E+02  0.51100000000E-03 0.  1.
         23    2    1    0    0    0  0.27028730899E+02 -0.82636606183E+01 -0.50452988677E+01  0.96379454525E+02  0.92003825100E+02 0.  0.
         11    1    3    3    0    0  0.57168107256E+02  0.13040477235E+02  0.25720814013E+01  0.58692947930E+02  0.51100000000E-03 0. -1.
         22    1    1    0    0    0 -0.27028730899E+02  0.82636606183E+01  0.50452988677E+01  0.28710545475E+02  0.00000000000E+00 0. -1.
</event>
<event>
 5    1  0.1055265E-009  0.9118800E+02  0.7815553E-02  0.1125453E+00
         25   -1    0    0    0    0  0.00000000000E+00  0.00000000000E+00  0.99999998245E-14  0.12509000000E+03  0.12509000000E+03 0.  0.
        -11    1    3    3    0    0 -0.22830012897E+01 -0.13408403120E+02 -0.51177019505E+02  0.52953608893E+02  0.51100000000E-03 0.  1.
         23    2    1    0    0    0 -0.21925054624E+02  0.63248072117E+01 -0.20076497627E+02  0.94696300595E+02  0.89686188362E+02 0.  0.
         11    1    3    3    0    0 -0.19642053334E+02  0.19733210331E+02  0.31100521878E+02  0.41742691702E+02  0.51100000000E-03 0. -1.
         22    1    1    0    0    0  0.21925054624E+02 -0.63248072117E+01  0.20076497627E+02  0.30393699405E+02  0.00000000000E+00 0. -1.
</event>
<event>
 5    1  0.1055265E-009  0.9118800E+02  0.7815553E-02  0.1125453E+00
         25   -1    0    0    0    0  0.00000000000E+00  0.00000000000E+00  0.99999998245E-14  0.12509000000E+03  0.12509000000E+03 0.  0.
        -11    1    3    3    0    0 -0.19124457542E+02 -0.47304843192E+02  0.18363987070E+02  0.54228489625E+02  0.51100000000E-03 0.  1.
         23    2    1    0    0    0 -0.19299148884E+02 -0.18504025043E+02 -0.11738414484E+02  0.95889889297E+02  0.91335778337E+02 0.  0.
         11    1    3    3    0    0 -0.17469134195E+00  0.28800818148E+02 -0.30102401554E+02  0.41661399672E+02  0.51100000000E-03 0. -1.
         22    1    1    0    0    0  0.19299148884E+02  0.18504025043E+02  0.11738414484E+02  0.29200110703E+02  0.00000000000E+00 0.  1.
</event>
<event>
 5    1  0.1055265E-009  0.9118800E+02  0.7815553E-02  0.1125453E+00
         25   -1    0    0    0    0  0.00000000000E+00  0.00000000000E+00  0.99999998245E-14  0.12509000000E+03  0.12509000000E+03 0.  0.
        -11    1    3    3    0    0  0.30921083308E+02 -0.96111167858E+01  0.22934768049E+02  0.39679850611E+02  0.51100000000E-03 0.  1.
         23    2    1    0    0    0 -0.69504243574E+01 -0.18305684538E+02 -0.19664935270E+02  0.97339033092E+02  0.93299363336E+02 0.  0.
         11    1    3    3    0    0 -0.37871507665E+02 -0.86945677525E+01 -0.42599703319E+02  0.57659182481E+02  0.51100000000E-03 0. -1.
         22    1    1    0    0    0  0.69504243574E+01  0.18305684538E+02  0.19664935270E+02  0.27750966908E+02  0.00000000000E+00 0. -1.
</event>
<event>
 5    1  0.1055265E-009  0.9118800E+02  0.7815553E-02  0.1125453E+00
         25   -1    0    0    0    0  0.00000000000E+00  0.00000000000E+00  0.99999998245E-14  0.12509000000E+03  0.12509000000E+03 0.  0.
        -11    1    3    3    0    0  0.40594167330E+02  0.11200598619E+02 -0.31784310721E+02  0.52759664886E+02  0.51100000000E-03 0.  1.
         23    2    1    0    0    0  0.37808731259E+02  0.86682267266E+01  0.15146780186E+01  0.86270770699E+02  0.77043580612E+02 0.  0.
         11    1    3    3    0    0 -0.27854360711E+01 -0.25323718926E+01  0.33298988739E+02  0.33511105813E+02  0.51100000000E-03 0. -1.
         22    1    1    0    0    0 -0.37808731259E+02 -0.86682267266E+01 -0.15146780186E+01  0.38819229301E+02  0.00000000000E+00 0.  1.
</event>
<event>
 5    1  0.1055265E-009  0.9118800E+02  0.7815553E-02  0.1125453E+00
         25   -1    0    0    0    0  0.00000000000E+00  0.00000000000E+00  0.99999998245E-14  0.12509000000E+03  0.12509000000E+03 0.  0.
        -11    1    3    3    0    0 -0.55802334854E+02  0.20510899231E+02  0.16515663190E+01  0.59475417056E+02  0.51100000000E-03 0.  1.
         23    2    1    0    0    0 -0.23294799732E+02  0.12421181774E+02 -0.12548598892E+02  0.95859865115E+02  0.91294649101E+02 0.  0.
         11    1    3    3    0    0  0.32507535122E+02 -0.80897174573E+01 -0.14200165211E+02  0.36384448059E+02  0.51100000000E-03 0. -1.
         22    1    1    0    0    0  0.23294799732E+02 -0.12421181774E+02  0.12548598892E+02  0.29230134885E+02  0.00000000000E+00 0.  1.
</event>
<event>
 5    1  0.1055265E-009  0.9118800E+02  0.7815553E-02  0.1125453E+00
         25   -1    0    0    0    0  0.00000000000E+00  0.00000000000E+00  0.99999998245E-14  0.12509000000E+03  0.12509000000E+03 0.  0.
        -11    1    3    3    0    0  0.59291687758E+02  0.94820048820E+00  0.12583366991E+02  0.60619670458E+02  0.51100000000E-03 0.  1.
         23    2    1    0    0    0  0.27366887083E+02  0.10739018376E+02  0.21107141209E+01  0.95615805551E+02  0.90959629137E+02 0.  0.
         11    1    3    3    0    0 -0.31924800674E+02  0.97908178882E+01 -0.10472652871E+02  0.34996135093E+02  0.51100000000E-03 0. -1.
         22    1    1    0    0    0 -0.27366887083E+02 -0.10739018376E+02 -0.21107141209E+01  0.29474194449E+02  0.00000000000E+00 0.  1.
</event>
<event>
 5    1  0.1055265E-009  0.9118800E+02  0.7815553E-02  0.1125453E+00
         25   -1    0    0    0    0  0.00000000000E+00  0.00000000000E+00  0.99999998245E-14  0.12509000000E+03  0.12509000000E+03 0.  0.
        -11    1    3    3    0    0 -0.31121908594E+02 -0.49031274425E+02  0.48278118427E+01  0.58274752970E+02  0.51100000000E-03 0.  1.
         23    2    1    0    0    0 -0.98363671145E+00 -0.29298570657E+02 -0.43624378638E+01  0.95452107905E+02  0.90734228688E+02 0.  0.
         11    1    3    3    0    0  0.30138271882E+02  0.19732703768E+02 -0.91902497065E+01  0.37177354935E+02  0.51100000000E-03 0. -1.
         22    1    1    0    0    0  0.98363671145E+00  0.29298570657E+02  0.43624378638E+01  0.29637892095E+02  0.00000000000E+00 0.  1.
</event>
<event>
 5    1  0.1055265E-009  0.9118800E+02  0.7815553E-02  0.1125453E+00
         25   -1    0    0    0    0  0.00000000000E+00  0.00000000000E+00  0.99999998245E-14  0.12509000000E+03  0.12509000000E+03 0.  0.
        -11    1    3    3    0    0  0.23426437918E+02 -0.24129528622E+02 -0.14540942883E+01  0.33662241986E+02  0.51100000000E-03 0.  1.
         23    2    1    0    0    0 -0.73191451162E+01  0.29010960201E+02  0.15536132238E+01  0.95129702754E+02  0.90288653412E+02 0.  0.
         11    1    3    3    0    0 -0.30745583035E+02  0.53140488823E+02  0.30077075121E+01  0.61467460768E+02  0.51100000000E-03 0. -1.
         22    1    1    0    0    0  0.73191451162E+01 -0.29010960201E+02 -0.15536132238E+01  0.29960297246E+02  0.00000000000E+00 0. -1.
</event>
<event>
 5    1  0.1055265E-009  0.9118800E+02  0.7815553E-02  0.1125453E+00
         25   -1    0    0    0    0  0.00000000000E+00  0.00000000000E+00  0.99999998245E-14  0.12509000000E+03  0.12509000000E+03 0.  0.
        -11    1    3    3    0    0 -0.37202374891E+02 -0.28550955688E+01 -0.27323553624E+02  0.46246565831E+02  0.51100000000E-03 0.  1.
         23    2    1    0    0    0  0.12104451490E+02 -0.10749935219E+02 -0.23800522276E+02  0.96305564732E+02  0.91903308345E+02 0.  0.
         11    1    3    3    0    0  0.49306826381E+02 -0.78948396505E+01  0.35230313479E+01  0.50058998901E+02  0.51100000000E-03 0. -1.
         22    1    1    0    0    0 -0.12104451490E+02  0.10749935219E+02  0.23800522276E+02  0.28784435268E+02  0.00000000000E+00 0. -1.
</event>
<event>
 5    1  0.1055265E-009  0.9118800E+02  0.7815553E-02  0.1125453E+00
         25   -1    0    0    0    0  0.00000000000E+00  0.00000000000E+00  0.99999998245E-14  0.12509000000E+03  0.12509000000E+03 0.  0.
        -11    1    3    3    0    0 -0.20417206549E+02  0.53047947162E+02 -0.18573557235E+01  0.56871757419E+02  0.51100000000E-03 0.  1.
         23    2    1    0    0    0 -0.24035789665E+02  0.15185523567E+02  0.67505992769E+01  0.95868605416E+02  0.91306624092E+02 0.  0.
         11    1    3    3    0    0 -0.36185831153E+01 -0.37862423594E+02  0.86079550004E+01  0.38996847998E+02  0.51100000000E-03 0. -1.
         22    1    1    0    0    0  0.24035789665E+02 -0.15185523567E+02 -0.67505992769E+01  0.29221394584E+02  0.00000000000E+00 0.  1.
</event>
<event>
 5    1  0.1055265E-009  0.9118800E+02  0.7815553E-02  0.1125453E+00
         25   -1    0    0    0    0  0.00000000000E+00  0.00000000000E+00  0.99999998245E-14  0.12509000000E+03  0.12509000000E+03 0.  0.
        -11    1    3    3    0    0 -0.33856545693E+02  0.20430077382E+02  0.47556350274E+00  0.39545921522E+02  0.51100000000E-03 0.  1.
         23    2    1    0    0    0  0.84991839932E+01 -0.29737005073E+01 -0.27988905713E+02  0.95688335655E+02  0.91059319755E+02 0.  0.
         11    1    3    3    0    0  0.42355729686E+02 -0.23403777890E+02 -0.28464469215E+02  0.56142414133E+02  0.51100000000E-03 0. -1.
         22    1    1    0    0    0 -0.84991839932E+01  0.29737005073E+01  0.27988905713E+02  0.29401664345E+02  0.00000000000E+00 0. -1.
</event>
<event>
 5    1  0.1055265E-009  0.9118800E+02  0.7815553E-02  0.1125453E+00
         25   -1    0    0    0    0  0.00000000000E+00  0.00000000000E+00  0.99999998245E-14  0.12509000000E+03  0.12509000000E+03 0.  0.
        -11    1    3    3    0    0  0.15318807690E+02  0.30905454715E+02  0.50551826921E+02  0.61198857878E+02  0.51100000000E-03 0.  1.
         23    2    1    0    0    0 -0.39022529538E-01  0.10380535613E+02  0.27582906226E+02  0.95618424571E+02  0.90963230809E+02 0.  0.
         11    1    3    3    0    0 -0.15357830219E+02 -0.20524919102E+02 -0.22968920696E+02  0.34419566694E+02  0.51100000000E-03 0. -1.
         22    1    1    0    0    0  0.39022529538E-01 -0.10380535613E+02 -0.27582906226E+02  0.29471575429E+02  0.00000000000E+00 0.  1.
</event>
<event>
 5    1  0.1055265E-009  0.9118800E+02  0.7815553E-02  0.1125453E+00
         25   -1    0    0    0    0  0.00000000000E+00  0.00000000000E+00  0.99999998245E-14  0.12509000000E+03  0.12509000000E+03 0.  0.
        -11    1    3    3    0    0 -0.36823267450E+02 -0.18202495804E+02  0.46261282471E+02  0.61865904466E+02  0.51100000000E-03 0.  1.
         23    2    1    0    0    0 -0.20236281552E+02 -0.14289004074E+02  0.19633230191E+02  0.93480721992E+02  0.87974422010E+02 0.  0.
         11    1    3    3    0    0  0.16586985898E+02  0.39134917300E+01 -0.26628052280E+02  0.31614817526E+02  0.51100000000E-03 0. -1.
         22    1    1    0    0    0  0.20236281552E+02  0.14289004074E+02 -0.19633230191E+02  0.31609278008E+02  0.00000000000E+00 0.  1.
</event>
<event>
 5    1  0.1055265E-009  0.9118800E+02  0.7815553E-02  0.1125453E+00
         25   -1    0    0    0    0  0.00000000000E+00  0.00000000000E+00  0.99999998245E-14  0.12509000000E+03  0.12509000000E+03 0.  0.
        -11    1    3    3    0    0  0.39404012329E+01  0.16417514506E+01  0.57527316994E+02  0.57685477466E+02  0.51100000000E-03 0. -1.
         23    2    1    0    0    0  0.18588257869E+02  0.31052614206E+01  0.22123748569E+02  0.96027546045E+02  0.91524113596E+02 0.  0.
         11    1    3    3    0    0  0.14647856636E+02  0.14635099700E+01 -0.35403568425E+02  0.38342068579E+02  0.51100000000E-03 0.  1.
         22    1    1    0    0    0 -0.18588257869E+02 -0.31052614206E+01 -0.22123748569E+02  0.29062453955E+02  0.00000000000E+00 0. -1.
</event>
<event>
 5    1  0.1055265E-009  0.9118800E+02  0.7815553E-02  0.1125453E+00
         25   -1    0    0    0    0  0.00000000000E+00  0.00000000000E+00  0.99999998245E-14  0.12509000000E+03  0.12509000000E+03 0.  0.
        -11    1    3    3    0    0  0.33604180229E+02  0.14742420021E+02 -0.19100508224E+02  0.41369182874E+02  0.51100000000E-03 0.  1.
         23    2    1    0    0    0  0.13195322562E+02 -0.27230001710E+02  0.58194806132E+01  0.94276757956E+02  0.89099108893E+02 0.  0.
         11    1    3    3    0    0 -0.20408857667E+02 -0.41972421731E+02  0.24919988837E+02  0.52907575083E+02  0.51100000000E-03 0. -1.
         22    1    1    0    0    0 -0.13195322562E+02  0.27230001710E+02 -0.58194806132E+01  0.30813242044E+02  0.00000000000E+00 0. -1.
</event>
<event>
 5    1  0.1055265E-009  0.9118800E+02  0.7815553E-02  0.1125453E+00
         25   -1    0    0    0    0  0.00000000000E+00  0.00000000000E+00  0.99999998245E-14  0.12509000000E+03  0.12509000000E+03 0.  0.
        -11    1    3    3    0    0  0.59974201875E+02  0.55355547190E+01 -0.36489524022E+01  0.60339556764E+02  0.51100000000E-03 0.  1.
         23    2    1    0    0    0  0.25523905773E+02 -0.32370587376E+01 -0.11757720962E+02  0.96802329233E+02  0.92576987570E+02 0.  0.
         11    1    3    3    0    0 -0.34450296102E+02 -0.87726134566E+01 -0.81087685598E+01  0.36462772470E+02  0.51100000000E-03 0. -1.
         22    1    1    0    0    0 -0.25523905773E+02  0.32370587376E+01  0.11757720962E+02  0.28287670767E+02  0.00000000000E+00 0.  1.
</event>
<event>
 5    1  0.1055265E-009  0.9118800E+02  0.7815553E-02  0.1125453E+00
         25   -1    0    0    0    0  0.00000000000E+00  0.00000000000E+00  0.99999998245E-14  0.12509000000E+03  0.12509000000E+03 0.  0.
        -11    1    3    3    0    0 -0.58703798357E+02 -0.16018135420E+01  0.12289671036E+01  0.58738506182E+02  0.51100000000E-03 0. -1.
         23    2    1    0    0    0 -0.26164845201E+02  0.13805853836E+02  0.55193764049E+01  0.94995744063E+02  0.90102869819E+02 0.  0.
         11    1    3    3    0    0  0.32538953156E+02  0.15407667378E+02  0.42904093013E+01  0.36257237880E+02  0.51100000000E-03 0.  1.
         22    1    1    0    0    0  0.26164845201E+02 -0.13805853836E+02 -0.55193764049E+01  0.30094255937E+02  0.00000000000E+00 0. -1.
</event>
<event>
 5    1  0.1055265E-009  0.9118800E+02  0.7815553E-02  0.1125453E+00
         25   -1    0    0    0    0  0.00000000000E+00  0.00000000000E+00  0.99999998245E-14  0.12509000000E+03  0.12509000000E+03 0.  0.
        -11    1    3    3    0    0 -0.14556160043E+02 -0.23572819521E+02  0.23733194934E+02  0.36480462681E+02  0.51100000000E-03 0.  1.
         23    2    1    0    0    0  0.85198325247E+01  0.27659347033E+02  0.49374656892E+01  0.95730068257E+02  0.91116630625E+02 0.  0.
         11    1    3    3    0    0  0.23075992568E+02  0.51232166554E+02 -0.18795729245E+02  0.59249605576E+02  0.51100000000E-03 0. -1.
         22    1    1    0    0    0 -0.85198325247E+01 -0.27659347033E+02 -0.49374656892E+01  0.29359931743E+02  0.00000000000E+00 0. -1.
</event>
<event>
 5    1  0.1055265E-009  0.9118800E+02  0.7815553E-02  0.1125453E+00
         25   -1    0    0    0    0  0.00000000000E+00  0.00000000000E+00  0.99999998245E-14  0.12509000000E+03  0.12509000000E+03 0.  0.
        -11    1    3    3    0    0  0.51115037551E+01  0.44742014245E+02 -0.37738951675E+02  0.58755457475E+02  0.51100000000E-03 0. -1.
         23    2    1    0    0    0  0.35466765839E+01  0.11845079170E+02 -0.30079159670E+02  0.92568612241E+02  0.86667798578E+02 0.  0.
         11    1    3    3    0    0 -0.15648271712E+01 -0.32896935075E+02  0.76597920051E+01  0.33813154766E+02  0.51100000000E-03 0.  1.
         22    1    1    0    0    0 -0.35466765839E+01 -0.11845079170E+02  0.30079159670E+02  0.32521387759E+02  0.00000000000E+00 0. -1.
</event>
<event>
 5    1  0.1055265E-009  0.9118800E+02  0.7815553E-02  0.1125453E+00
         25   -1    0    0    0    0  0.00000000000E+00  0.00000000000E+00  0.99999998245E-14  0.12509000000E+03  0.12509000000E+03 0.  0.
        -11    1    3    3    0    0 -0.18474084283E+02 -0.78797579341E+01 -0.52270659933E+02  0.55996466543E+02  0.51100000000E-03 0. -1.
         23    2    1    0    0    0 -0.25544274277E+02 -0.17958526625E+01 -0.12976653709E+02  0.96382360309E+02  0.92007775770E+02 0.  0.
         11    1    3    3    0    0 -0.70701899940E+01  0.60839052716E+01  0.39294006224E+02  0.40385893766E+02  0.51100000000E-03 0.  1.
         22    1    1    0    0    0  0.25544274277E+02  0.17958526625E+01  0.12976653709E+02  0.28707639691E+02  0.00000000000E+00 0. -1.
</event>
<event>
 5    1  0.1055265E-009  0.9118800E+02  0.7815553E-02  0.1125453E+00
         25   -1    0    0    0    0  0.00000000000E+00  0.00000000000E+00  0.99999998245E-14  0.12509000000E+03  0.12509000000E+03 0.  0.
        -11    1    3    3    0    0  0.51764718686E+02  0.19505941311E+02 -0.10667516638E+02  0.56337054933E+02  0.51100000000E-03 0. -1.
         23    2    1    0    0    0  0.25520403846E+02 -0.10813093761E+02 -0.62297068795E+01  0.96681845239E+02  0.92414046236E+02 0.  0.
         11    1    3    3    0    0 -0.26244314840E+02 -0.30319035071E+02  0.44378097581E+01  0.40344790305E+02  0.51100000000E-03 0.  1.
         22    1    1    0    0    0 -0.25520403846E+02  0.10813093761E+02  0.62297068795E+01  0.28408154761E+02  0.00000000000E+00 0. -1.
</event>
<event>
 5    1  0.1055265E-009  0.9118800E+02  0.7815553E-02  0.1125453E+00
         25   -1    0    0    0    0  0.00000000000E+00  0.00000000000E+00  0.99999998245E-14  0.12509000000E+03  0.12509000000E+03 0.  0.
        -11    1    3    3    0    0 -0.79014709018E+01 -0.10321683081E+01 -0.32909738351E+02  0.33860736737E+02  0.51100000000E-03 0. -1.
         23    2    1    0    0    0 -0.10703859054E+01  0.45436908804E+01  0.28656776358E+02  0.96055508717E+02  0.91562323424E+02 0.  0.
         11    1    3    3    0    0  0.68310849963E+01  0.55758591885E+01  0.61566514709E+02  0.62194771980E+02  0.51100000000E-03 0.  1.
         22    1    1    0    0    0  0.10703859054E+01 -0.45436908804E+01 -0.28656776358E+02  0.29034491283E+02  0.00000000000E+00 0.  1.
</event>
<event>
 5    1  0.1055265E-009  0.9118800E+02  0.7815553E-02  0.1125453E+00
         25   -1    0    0    0    0  0.00000000000E+00  0.00000000000E+00  0.99999998245E-14  0.12509000000E+03  0.12509000000E+03 0.  0.
        -11    1    3    3    0    0 -0.50146745342E+01  0.10444569719E+02  0.60572815636E+02  0.61670916903E+02  0.51100000000E-03 0.  1.
         23    2    1    0    0    0 -0.88075220668E+00  0.11924972133E+02  0.26604487840E+02  0.95921875994E+02  0.91379575596E+02 0.  0.
         11    1    3    3    0    0  0.41339223275E+01  0.14804024143E+01 -0.33968327796E+02  0.34250959091E+02  0.51100000000E-03 0. -1.
         22    1    1    0    0    0  0.88075220668E+00 -0.11924972133E+02 -0.26604487840E+02  0.29168124006E+02  0.00000000000E+00 0.  1.
</event>
<event>
 5    1  0.1055265E-009  0.9118800E+02  0.7815553E-02  0.1125453E+00
         25   -1    0    0    0    0  0.00000000000E+00  0.00000000000E+00  0.99999998245E-14  0.12509000000E+03  0.12509000000E+03 0.  0.
        -11    1    3    3    0    0  0.27799299950E+02 -0.49201438017E+02  0.14839041618E+02  0.58427559739E+02  0.51100000000E-03 0.  1.
         23    2    1    0    0    0  0.15307057865E+02 -0.15280570496E+02  0.20821991755E+02  0.95067388591E+02  0.90202279226E+02 0.  0.
         11    1    3    3    0    0 -0.12492242085E+02  0.33920867521E+02  0.59829501376E+01  0.36639828852E+02  0.51100000000E-03 0. -1.
         22    1    1    0    0    0 -0.15307057865E+02  0.15280570496E+02 -0.20821991755E+02  0.30022611409E+02  0.00000000000E+00 0.  1.
</event>
<event>
 5    1  0.1055265E-009  0.9118800E+02  0.7815553E-02  0.1125453E+00
         25   -1    0    0    0    0  0.00000000000E+00  0.00000000000E+00  0.99999998245E-14  0.12509000000E+03  0.12509000000E+03 0.  0.
        -11    1    3    3    0    0 -0.85441513593E+01  0.14607653921E+02  0.49420234081E+02  0.52237396685E+02  0.51100000000E-03 0.  1.
         23    2    1    0    0    0  0.21473857108E+02  0.59370723663E+01  0.20232474945E+02  0.94994677942E+02  0.90101389710E+02 0.  0.
         11    1    3    3    0    0  0.30018008467E+02 -0.86705815550E+01 -0.29187759137E+02  0.42757281257E+02  0.51100000000E-03 0. -1.
         22    1    1    0    0    0 -0.21473857108E+02 -0.59370723663E+01 -0.20232474945E+02  0.30095322058E+02  0.00000000000E+00 0.  1.
</event>
<event>
 5    1  0.1055265E-009  0.9118800E+02  0.7815553E-02  0.1125453E+00
         25   -1    0    0    0    0  0.00000000000E+00  0.00000000000E+00  0.99999998245E-14  0.12509000000E+03  0.12509000000E+03 0.  0.
        -11    1    3    3    0    0 -0.13415967605E+01  0.37932656574E+01 -0.37289227649E+02  0.37505669507E+02  0.51100000000E-03 0. -1.
         23    2    1    0    0    0  0.19309070792E+02  0.15129649059E+02  0.16022529149E+02  0.95790376524E+02  0.91199387601E+02 0.  0.
         11    1    3    3    0    0  0.20650667553E+02  0.11336383401E+02  0.53311756798E+02  0.58284707018E+02  0.51100000000E-03 0.  1.
         22    1    1    0    0    0 -0.19309070792E+02 -0.15129649059E+02 -0.16022529149E+02  0.29299623476E+02  0.00000000000E+00 0.  1.
</event>
<event>
 5    1  0.1055265E-009  0.9118800E+02  0.7815553E-02  0.1125453E+00
         25   -1    0    0    0    0  0.00000000000E+00  0.00000000000E+00  0.99999998245E-14  0.12509000000E+03  0.12509000000E+03 0.  0.
        -11    1    3    3    0    0  0.26732209642E+01 -0.45236707892E+02 -0.38031857345E+02  0.59160189524E+02  0.51100000000E-03 0. -1.
         23    2    1    0    0    0 -0.13145404665E+02 -0.21063303515E+02 -0.15244759140E+02  0.95954676079E+02  0.91424464786E+02 0.  0.
         11    1    3    3    0    0 -0.15818625629E+02  0.24173404376E+02  0.22787098205E+02  0.36794486554E+02  0.51100000000E-03 0.  1.
         22    1    1    0    0    0  0.13145404665E+02  0.21063303515E+02  0.15244759140E+02  0.29135323921E+02  0.00000000000E+00 0. -1.
</event>
<event>
 5    1  0.1055265E-009  0.9118800E+02  0.7815553E-02  0.1125453E+00
         25   -1    0    0    0    0  0.00000000000E+00  0.00000000000E+00  0.99999998245E-14  0.12509000000E+03  0.12509000000E+03 0.  0.
        -11    1    3    3    0    0 -0.46955752928E+02 -0.39023378680E+02  0.58287903238E+01  0.61332223288E+02  0.51100000000E-03 0. -1.
         23    2    1    0    0    0 -0.25247192395E+02 -0.14036893298E+02 -0.41572872241E+01  0.95905446991E+02  0.91357083076E+02 0.  0.
         11    1    3    3    0    0  0.21708560533E+02  0.24986485381E+02 -0.99860775479E+01  0.34573223702E+02  0.51100000000E-03 0.  1.
         22    1    1    0    0    0  0.25247192395E+02  0.14036893298E+02  0.41572872241E+01  0.29184553009E+02  0.00000000000E+00 0. -1.
</event>
<event>
 5    1  0.1055265E-009  0.9118800E+02  0.7815553E-02  0.1125453E+00
         25   -1    0    0    0    0  0.00000000000E+00  0.00000000000E+00  0.99999998245E-14  0.12509000000E+03  0.12509000000E+03 0.  0.
        -11    1    3    3    0    0 -0.35462651834E+01 -0.58106697981E+02 -0.12015549446E+02  0.59441885702E+02  0.51100000000E-03 0. -1.
         23    2    1    0    0    0  0.93801757510E+01 -0.23030580233E+02 -0.13384753895E+02  0.96849126079E+02  0.92640197875E+02 0.  0.
         11    1    3    3    0    0  0.12926440934E+02  0.35076117748E+02 -0.13692044495E+01  0.37407240377E+02  0.51100000000E-03 0.  1.
         22    1    1    0    0    0 -0.93801757510E+01  0.23030580233E+02  0.13384753895E+02  0.28240873921E+02  0.00000000000E+00 0. -1.
</event>
<event>
 5    1  0.1055265E-009  0.9118800E+02  0.7815553E-02  0.1125453E+00
         25   -1    0    0    0    0  0.00000000000E+00  0.00000000000E+00  0.99999998245E-14  0.12509000000E+03  0.12509000000E+03 0.  0.
        -11    1    3    3    0    0  0.51497630090E+02 -0.19317853528E+02  0.20814272902E+02  0.58808327017E+02  0.51100000000E-03 0. -1.
         23    2    1    0    0    0  0.28407566687E+02  0.56033754023E+01  0.95504236240E+01  0.94600686259E+02  0.89552730770E+02 0.  0.
         11    1    3    3    0    0 -0.23090063403E+02  0.24921228930E+02 -0.11263849278E+02  0.35792359243E+02  0.51100000000E-03 0.  1.
         22    1    1    0    0    0 -0.28407566687E+02 -0.56033754023E+01 -0.95504236240E+01  0.30489313741E+02  0.00000000000E+00 0. -1.
</event>
<event>
 5    1  0.1055265E-009  0.9118800E+02  0.7815553E-02  0.1125453E+00
         25   -1    0    0    0    0  0.00000000000E+00  0.00000000000E+00  0.99999998245E-14  0.12509000000E+03  0.12509000000E+03 0.  0.
        -11    1    3    3    0    0 -0.53148257501E+02  0.25609976326E+01  0.27342813221E+02  0.59824120716E+02  0.51100000000E-03 0.  1.
         23    2    1    0    0    0 -0.30297783559E+02 -0.25348028574E+01  0.15657445039E+01  0.94646076633E+02  0.89616111007E+02 0.  0.
         11    1    3    3    0    0  0.22850473942E+02 -0.50958004899E+01 -0.25777068717E+02  0.34821955917E+02  0.51100000000E-03 0. -1.
         22    1    1    0    0    0  0.30297783559E+02  0.25348028574E+01 -0.15657445039E+01  0.30443923367E+02  0.00000000000E+00 0.  1.
</event>
<event>
 5    1  0.1055265E-009  0.9118800E+02  0.7815553E-02  0.1125453E+00
         25   -1    0    0    0    0  0.00000000000E+00  0.00000000000E+00  0.99999998245E-14  0.12509000000E+03  0.12509000000E+03 0.  0.
        -11    1    3    3    0    0 -0.10436965874E+02  0.34841994610E+02  0.23423022409E+02  0.43261216165E+02  0.51100000000E-03 0.  1.
         23    2    1    0    0    0  0.24950618620E+02  0.14308030092E+02 -0.84363619949E+01  0.95116256517E+02  0.90270022463E+02 0.  0.
         11    1    3    3    0    0  0.35387584494E+02 -0.20533964517E+02 -0.31859384404E+02  0.51855040352E+02  0.51100000000E-03 0. -1.
         22    1    1    0    0    0 -0.24950618620E+02 -0.14308030092E+02  0.84363619949E+01  0.29973743483E+02  0.00000000000E+00 0. -1.
</event>
<event>
 5    1  0.1055265E-009  0.9118800E+02  0.7815553E-02  0.1125453E+00
         25   -1    0    0    0    0  0.00000000000E+00  0.00000000000E+00  0.99999998245E-14  0.12509000000E+03  0.12509000000E+03 0.  0.
        -11    1    3    3    0    0 -0.35077209943E+02  0.32372556606E+01 -0.17461764662E+02  0.39316710277E+02  0.51100000000E-03 0.  1.
         23    2    1    0    0    0  0.13799600818E+02  0.24123678006E+02 -0.17077657567E+02  0.92470570035E+02  0.86526175873E+02 0.  0.
         11    1    3    3    0    0  0.48876810762E+02  0.20886422346E+02  0.38410709574E+00  0.53153859758E+02  0.51100000000E-03 0. -1.
         22    1    1    0    0    0 -0.13799600818E+02 -0.24123678006E+02  0.17077657567E+02  0.32619429965E+02  0.00000000000E+00 0.  1.
</event>
<event>
 5    1  0.1055265E-009  0.9118800E+02  0.7815553E-02  0.1125453E+00
         25   -1    0    0    0    0  0.00000000000E+00  0.00000000000E+00  0.99999998245E-14  0.12509000000E+03  0.12509000000E+03 0.  0.
        -11    1    3    3    0    0  0.26286444936E+02  0.15297465435E+02 -0.27230422467E+02  0.40822610697E+02  0.51100000000E-03 0. -1.
         23    2    1    0    0    0 -0.50224173876E+01  0.19387160889E+02  0.19445769600E+02  0.97175404551E+02  0.93079721801E+02 0.  0.
         11    1    3    3    0    0 -0.31308862324E+02  0.40896954545E+01  0.46676192067E+02  0.56352793854E+02  0.51100000000E-03 0.  1.
         22    1    1    0    0    0  0.50224173876E+01 -0.19387160889E+02 -0.19445769600E+02  0.27914595449E+02  0.00000000000E+00 0.  1.
</event>
<event>
 5    1  0.1055265E-009  0.9118800E+02  0.7815553E-02  0.1125453E+00
         25   -1    0    0    0    0  0.00000000000E+00  0.00000000000E+00  0.99999998245E-14  0.12509000000E+03  0.12509000000E+03 0.  0.
        -11    1    3    3    0    0 -0.54127824683E+02  0.19890729493E+02  0.21342260488E+01  0.57706303345E+02  0.51100000000E-03 0. -1.
         23    2    1    0    0    0 -0.27202658750E+02 -0.76035724795E+01 -0.36091531297E+01  0.96615011961E+02  0.92323537586E+02 0.  0.
         11    1    3    3    0    0  0.26925165933E+02 -0.27494301973E+02 -0.57433791785E+01  0.38908708616E+02  0.51100000000E-03 0.  1.
         22    1    1    0    0    0  0.27202658750E+02  0.76035724795E+01  0.36091531297E+01  0.28474988039E+02  0.00000000000E+00 0. -1.
</event>
<event>
 5    1  0.1055265E-009  0.9118800E+02  0.7815553E-02  0.1125453E+00
         25   -1    0    0    0    0  0.00000000000E+00  0.00000000000E+00  0.99999998245E-14  0.12509000000E+03  0.12509000000E+03 0.  0.
        -11    1    3    3    0    0  0.47303681090E+02 -0.12267457523E+02 -0.12255731687E+02  0.50381859019E+02  0.51100000000E-03 0.  1.
         23    2    1    0    0    0  0.14817331295E+02 -0.22515355939E+02  0.15211188441E+02  0.94140447280E+02  0.88907530617E+02 0.  0.
         11    1    3    3    0    0 -0.32486349795E+02 -0.10247898416E+02  0.27466920128E+02  0.43758588261E+02  0.51100000000E-03 0. -1.
         22    1    1    0    0    0 -0.14817331295E+02  0.22515355939E+02 -0.15211188441E+02  0.30949552720E+02  0.00000000000E+00 0. -1.
</event>
<event>
 5    1  0.1055265E-009  0.9118800E+02  0.7815553E-02  0.1125453E+00
         25   -1    0    0    0    0  0.00000000000E+00  0.00000000000E+00  0.99999998245E-14  0.12509000000E+03  0.12509000000E+03 0.  0.
        -11    1    3    3    0    0 -0.26740085013E+02  0.53525588372E+02 -0.18059720454E+02  0.62499394078E+02  0.51100000000E-03 0.  1.
         23    2    1    0    0    0 -0.10611714891E+02  0.24962091692E+02 -0.84340645198E+01  0.96684930754E+02  0.92418222640E+02 0.  0.
         11    1    3    3    0    0  0.16128370122E+02 -0.28563496680E+02  0.96256559337E+01  0.34185536676E+02  0.51100000000E-03 0. -1.
         22    1    1    0    0    0  0.10611714891E+02 -0.24962091692E+02  0.84340645198E+01  0.28405069246E+02  0.00000000000E+00 0.  1.
</event>
<event>
 5    1  0.1055265E-009  0.9118800E+02  0.7815553E-02  0.1125453E+00
         25   -1    0    0    0    0  0.00000000000E+00  0.00000000000E+00  0.99999998245E-14  0.12509000000E+03  0.12509000000E+03 0.  0.
        -11    1    3    3    0    0 -0.43206345952E+02  0.15811892002E+02  0.30864865526E+02  0.55402564773E+02  0.51100000000E-03 0. -1.
         23    2    1    0    0    0 -0.91268820360E+01 -0.61791026415E+01  0.26736345892E+02  0.96170915007E+02  0.91719852903E+02 0.  0.
         11    1    3    3    0    0  0.34079463916E+02 -0.21990994643E+02 -0.41285196340E+01  0.40768350234E+02  0.51100000000E-03 0.  1.
         22    1    1    0    0    0  0.91268820360E+01  0.61791026415E+01 -0.26736345892E+02  0.28919084993E+02  0.00000000000E+00 0. -1.
</event>
<event>
 5    1  0.1055265E-009  0.9118800E+02  0.7815553E-02  0.1125453E+00
         25   -1    0    0    0    0  0.00000000000E+00  0.00000000000E+00  0.99999998245E-14  0.12509000000E+03  0.12509000000E+03 0.  0.
        -11    1    3    3    0    0  0.50192884972E+02 -0.83600425639E+01  0.35918280304E+02  0.62284338912E+02  0.51100000000E-03 0.  1.
         23    2    1    0    0    0  0.26491326421E+02 -0.68411704277E+00  0.16484851654E+02  0.93880887136E+02  0.88541584827E+02 0.  0.
         11    1    3    3    0    0 -0.23701558550E+02  0.76759255211E+01 -0.19433428650E+02  0.31596548224E+02  0.51100000000E-03 0. -1.
         22    1    1    0    0    0 -0.26491326421E+02  0.68411704277E+00 -0.16484851654E+02  0.31209112864E+02  0.00000000000E+00 0.  1.
</event>
<event>
 5    1  0.1055265E-009  0.9118800E+02  0.7815553E-02  0.1125453E+00
         25   -1    0    0    0    0  0.00000000000E+00  0.00000000000E+00  0.99999998245E-14  0.12509000000E+03  0.12509000000E+03 0.  0.
        -11    1    3    3    0    0 -0.19809524947E+02  0.28926525349E+02  0.67122306150E+01  0.35696150878E+02  0.51100000000E-03 0. -1.
         23    2    1    0    0    0  0.42345951601E+01 -0.27293243158E+02  0.58997279160E+01  0.96847129967E+02  0.92637502531E+02 0.  0.
         11    1    3    3    0    0  0.24044120107E+02 -0.56219768507E+02 -0.81250269900E+00  0.61150979089E+02  0.51100000000E-03 0.  1.
         22    1    1    0    0    0 -0.42345951601E+01  0.27293243158E+02 -0.58997279160E+01  0.28242870033E+02  0.00000000000E+00 0.  1.
</event>
<event>
 5    1  0.1055265E-009  0.9118800E+02  0.7815553E-02  0.1125453E+00
         25   -1    0    0    0    0  0.00000000000E+00  0.00000000000E+00  0.99999998245E-14  0.12509000000E+03  0.12509000000E+03 0.  0.
        -11    1    3    3    0    0  0.32842133265E+02 -0.19133028379E+02  0.19606372280E+02  0.42767842202E+02  0.51100000000E-03 0. -1.
         23    2    1    0    0    0  0.16754107435E+02  0.21220648533E+02 -0.10991162094E+02  0.95904015619E+02  0.91355123161E+02 0.  0.
         11    1    3    3    0    0 -0.16088025830E+02  0.40353676912E+02 -0.30597534375E+02  0.53136173418E+02  0.51100000000E-03 0.  1.
         22    1    1    0    0    0 -0.16754107435E+02 -0.21220648533E+02  0.10991162094E+02  0.29185984381E+02  0.00000000000E+00 0.  1.
</event>
<event>
 4    1  0.1055265E-009  0.9118800E+02  0.7815553E-02  0.1125453E+00
         25   -1    0    0    0    0  0.00000000000E+00  0.00000000000E+00  0.99999998245E-14  0.12509000000E+03  0.12509000000E+03 0.  0.
        -11    1    1    0    0    0  0.22142251577E+02  0.53239447166E+02 -0.38088717328E+01  0.57786032426E+02  0.51100000000E-03 0.  1.
         11    1    1    0    0    0 -0.36052173853E+01 -0.55862296157E+01 -0.12055861582E+02  0.13767619709E+02  0.51100000000E-03 0. -1.
         22    1    1    0    0    0 -0.18537034192E+02 -0.47653217550E+02  0.15864733315E+02  0.53536347865E+02  0.00000000000E+00 0.  1.
</event>
<event>
 5    1  0.1055265E-009  0.9118800E+02  0.7815553E-02  0.1125453E+00
         25   -1    0    0    0    0  0.00000000000E+00  0.00000000000E+00  0.99999998245E-14  0.12509000000E+03  0.12509000000E+03 0.  0.
        -11    1    3    3    0    0  0.28076682033E+02  0.59820704678E+00 -0.29982689828E+02  0.41080647697E+02  0.51100000000E-03 0. -1.
         23    2    1    0    0    0 -0.82942483033E+01  0.28129164997E+02  0.17288596003E+00  0.95762975468E+02  0.91161796289E+02 0.  0.
         11    1    3    3    0    0 -0.36370930336E+02  0.27530957950E+02  0.30155575788E+02  0.54682327771E+02  0.51100000000E-03 0.  1.
         22    1    1    0    0    0  0.82942483033E+01 -0.28129164997E+02 -0.17288596003E+00  0.29327024532E+02  0.00000000000E+00 0.  1.
</event>
<event>
 5    1  0.1055265E-009  0.9118800E+02  0.7815553E-02  0.1125453E+00
         25   -1    0    0    0    0  0.00000000000E+00  0.00000000000E+00  0.99999998245E-14  0.12509000000E+03  0.12509000000E+03 0.  0.
        -11    1    3    3    0    0  0.29626058647E+02 -0.61153035649E+01 -0.18780476669E+02  0.35606271818E+02  0.51100000000E-03 0.  1.
         23    2    1    0    0    0 -0.93616907265E+01  0.64544714781E+01  0.26250896495E+02  0.96482116085E+02  0.92143299822E+02 0.  0.
         11    1    3    3    0    0 -0.38987749373E+02  0.12569775043E+02  0.45031373164E+02  0.60875844266E+02  0.51100000000E-03 0. -1.
         22    1    1    0    0    0  0.93616907265E+01 -0.64544714781E+01 -0.26250896495E+02  0.28607883915E+02  0.00000000000E+00 0. -1.
</event>
<event>
 5    1  0.1055265E-009  0.9118800E+02  0.7815553E-02  0.1125453E+00
         25   -1    0    0    0    0  0.00000000000E+00  0.00000000000E+00  0.99999998245E-14  0.12509000000E+03  0.12509000000E+03 0.  0.
        -11    1    3    3    0    0 -0.36157432045E+02  0.14321134255E+02  0.31322049020E+02  0.49935213362E+02  0.51100000000E-03 0. -1.
         23    2    1    0    0    0 -0.56083093956E+01 -0.18579854088E+02  0.21932756549E+02  0.95803314936E+02  0.91217132331E+02 0.  0.
         11    1    3    3    0    0  0.30549122649E+02 -0.32900988343E+02 -0.93892924716E+01  0.45868101574E+02  0.51100000000E-03 0.  1.
         22    1    1    0    0    0  0.56083093956E+01  0.18579854088E+02 -0.21932756549E+02  0.29286685064E+02  0.00000000000E+00 0. -1.
</event>
<event>
 5    1  0.1055265E-009  0.9118800E+02  0.7815553E-02  0.1125453E+00
         25   -1    0    0    0    0  0.00000000000E+00  0.00000000000E+00  0.99999998245E-14  0.12509000000E+03  0.12509000000E+03 0.  0.
        -11    1    3    3    0    0 -0.35525458565E+02 -0.78592426836E+01  0.25395232281E+02  0.44370527658E+02  0.51100000000E-03 0.  1.
         23    2    1    0    0    0  0.81317188384E+01 -0.27302955359E+02  0.58314102633E+01  0.96011114735E+02  0.91501653451E+02 0.  0.
         11    1    3    3    0    0  0.43657177403E+02 -0.19443712676E+02 -0.19563822018E+02  0.51640587077E+02  0.51100000000E-03 0. -1.
         22    1    1    0    0    0 -0.81317188384E+01  0.27302955359E+02 -0.58314102633E+01  0.29078885265E+02  0.00000000000E+00 0. -1.
</event>
<event>
 5    1  0.1055265E-009  0.9118800E+02  0.7815553E-02  0.1125453E+00
         25   -1    0    0    0    0  0.00000000000E+00  0.00000000000E+00  0.99999998245E-14  0.12509000000E+03  0.12509000000E+03 0.  0.
        -11    1    3    3    0    0 -0.18202287263E+02 -0.37764814566E+02  0.24326863174E+02  0.48469585855E+02  0.51100000000E-03 0. -1.
         23    2    1    0    0    0 -0.22838893061E+02  0.77854028267E+01  0.18624406684E+02  0.94608922956E+02  0.89564235302E+02 0.  0.
         11    1    3    3    0    0 -0.46366057981E+01  0.45550217393E+02 -0.57024564901E+01  0.46139337101E+02  0.51100000000E-03 0.  1.
         22    1    1    0    0    0  0.22838893061E+02 -0.77854028267E+01 -0.18624406684E+02  0.30481077044E+02  0.00000000000E+00 0.  1.
</event>
<event>
 5    1  0.1055265E-009  0.9118800E+02  0.7815553E-02  0.1125453E+00
         25   -1    0    0    0    0  0.00000000000E+00  0.00000000000E+00  0.99999998245E-14  0.12509000000E+03  0.12509000000E+03 0.  0.
        -11    1    3    3    0    0 -0.32583777835E+02  0.23691902903E+02 -0.43943218411E+01  0.40525533998E+02  0.51100000000E-03 0. -1.
         23    2    1    0    0    0  0.21658259667E+02 -0.69173206883E+00 -0.11734400130E+02  0.10044745850E+03  0.97377805829E+02 0.  0.
         11    1    3    3    0    0  0.54242037501E+02 -0.24383634972E+02 -0.73400782894E+01  0.59921924504E+02  0.51100000000E-03 0.  1.
         22    1    1    0    0    0 -0.21658259667E+02  0.69173206883E+00  0.11734400130E+02  0.24642541498E+02  0.00000000000E+00 0.  1.
</event>
<event>
 5    1  0.1055265E-009  0.9118800E+02  0.7815553E-02  0.1125453E+00
         25   -1    0    0    0    0  0.00000000000E+00  0.00000000000E+00  0.99999998245E-14  0.12509000000E+03  0.12509000000E+03 0.  0.
        -11    1    3    3    0    0 -0.51973320305E+02 -0.40334518678E+01  0.10423358740E+02  0.53161463159E+02  0.51100000000E-03 0.  1.
         23    2    1    0    0    0 -0.21935655040E+02  0.65543931118E+01 -0.18091778425E+02  0.95910461319E+02  0.91363948649E+02 0.  0.
         11    1    3    3    0    0  0.30037665265E+02  0.10587844980E+02 -0.28515137165E+02  0.42748998160E+02  0.51100000000E-03 0. -1.
         22    1    1    0    0    0  0.21935655040E+02 -0.65543931118E+01  0.18091778425E+02  0.29179538681E+02  0.00000000000E+00 0.  1.
</event>
<event>
 5    1  0.1055265E-009  0.9118800E+02  0.7815553E-02  0.1125453E+00
         25   -1    0    0    0    0  0.00000000000E+00  0.00000000000E+00  0.99999998245E-14  0.12509000000E+03  0.12509000000E+03 0.  0.
        -11    1    3    3    0    0 -0.37467941189E+02  0.15318788834E+02 -0.31925168137E+02  0.51553159642E+02  0.51100000000E-03 0. -1.
         23    2    1    0    0    0 -0.23226300381E+02 -0.17027321095E+02 -0.52885156812E+01  0.95809305145E+02  0.91225346594E+02 0.  0.
         11    1    3    3    0    0  0.14241640808E+02 -0.32346109930E+02  0.26636652456E+02  0.44256145503E+02  0.51100000000E-03 0.  1.
         22    1    1    0    0    0  0.23226300381E+02  0.17027321095E+02  0.52885156812E+01  0.29280694855E+02  0.00000000000E+00 0. -1.
</event>
<event>
 5    1  0.1055265E-009  0.9118800E+02  0.7815553E-02  0.1125453E+00
         25   -1    0    0    0    0  0.00000000000E+00  0.00000000000E+00  0.99999998245E-14  0.12509000000E+03  0.12509000000E+03 0.  0.
        -11    1    3    3    0    0  0.11574201517E+02 -0.34518518436E+02 -0.37882364559E+02  0.52541067753E+02  0.51100000000E-03 0.  1.
         23    2    1    0    0    0  0.16971062102E+02 -0.21658526685E+02  0.45447157731E+01  0.97201594371E+02  0.93114911694E+02 0.  0.
         11    1    3    3    0    0  0.53968605851E+01  0.12859991751E+02  0.42427080332E+02  0.44660526618E+02  0.51100000000E-03 0. -1.
         22    1    1    0    0    0 -0.16971062102E+02  0.21658526685E+02 -0.45447157731E+01  0.27888405629E+02  0.00000000000E+00 0. -1.
</event>
<event>
 5    1  0.1055265E-009  0.9118800E+02  0.7815553E-02  0.1125453E+00
         25   -1    0    0    0    0  0.00000000000E+00  0.00000000000E+00  0.99999998245E-14  0.12509000000E+03  0.12509000000E+03 0.  0.
        -11    1    3    3    0    0  0.70348349079E+01 -0.33018670671E+02  0.19610177677E+02  0.39042036113E+02  0.51100000000E-03 0. -1.
         23    2    1    0    0    0 -0.23084983833E+02  0.14541769955E+02  0.92374621200E+01  0.96285308396E+02  0.91875733219E+02 0.  0.
         11    1    3    3    0    0 -0.30119818741E+02  0.47560440625E+02 -0.10372715557E+02  0.57243272284E+02  0.51100000000E-03 0.  1.
         22    1    1    0    0    0  0.23084983833E+02 -0.14541769955E+02 -0.92374621200E+01  0.28804691604E+02  0.00000000000E+00 0.  1.
</event>
<event>
 5    1  0.1055265E-009  0.9118800E+02  0.7815553E-02  0.1125453E+00
         25   -1    0    0    0    0  0.00000000000E+00  0.00000000000E+00  0.99999998245E-14  0.12509000000E+03  0.12509000000E+03 0.  0.
        -11    1    3    3    0    0  0.47622959331E+02 -0.12449931496E+02 -0.14619201046E+02  0.51348496465E+02  0.51100000000E-03 0. -1.
         23    2    1    0    0    0  0.12897963831E+02  0.15952761357E+02 -0.19887341590E+02  0.96518083344E+02  0.92192114581E+02 0.  0.
         11    1    3    3    0    0 -0.34724995500E+02  0.28402692853E+02 -0.52681405443E+01  0.45169586879E+02  0.51100000000E-03 0.  1.
         22    1    1    0    0    0 -0.12897963831E+02 -0.15952761357E+02  0.19887341590E+02  0.28571916656E+02  0.00000000000E+00 0. -1.
</event>
<event>
 5    1  0.1055265E-009  0.9118800E+02  0.7815553E-02  0.1125453E+00
         25   -1    0    0    0    0  0.00000000000E+00  0.00000000000E+00  0.99999998245E-14  0.12509000000E+03  0.12509000000E+03 0.  0.
        -11    1    3    3    0    0 -0.72220257406E+00  0.20809918679E+02 -0.52216791226E+02  0.56215367811E+02  0.51100000000E-03 0. -1.
         23    2    1    0    0    0 -0.19640270941E+02  0.11103539969E+02 -0.19314582420E+02  0.95390135749E+02  0.90648751020E+02 0.  0.
         11    1    3    3    0    0 -0.18918068367E+02 -0.97063787101E+01  0.32902208805E+02  0.39174767937E+02  0.51100000000E-03 0.  1.
         22    1    1    0    0    0  0.19640270941E+02 -0.11103539969E+02  0.19314582420E+02  0.29699864251E+02  0.00000000000E+00 0. -1.
</event>
<event>
 5    1  0.1055265E-009  0.9118800E+02  0.7815553E-02  0.1125453E+00
         25   -1    0    0    0    0  0.00000000000E+00  0.00000000000E+00  0.99999998245E-14  0.12509000000E+03  0.12509000000E+03 0.  0.
        -11    1    3    3    0    0  0.15968647087E+02  0.52637219167E+02 -0.15052427538E+02  0.57028502580E+02  0.51100000000E-03 0. -1.
         23    2    1    0    0    0 -0.53045284593E+01  0.18837107580E+02 -0.19804608957E+02  0.97247636952E+02  0.93176744484E+02 0.  0.
         11    1    3    3    0    0 -0.21273175546E+02 -0.33800111587E+02 -0.47521814185E+01  0.40219134372E+02  0.51100000000E-03 0.  1.
         22    1    1    0    0    0  0.53045284593E+01 -0.18837107580E+02  0.19804608957E+02  0.27842363048E+02  0.00000000000E+00 0. -1.
</event>
<event>
 5    1  0.1055265E-009  0.9118800E+02  0.7815553E-02  0.1125453E+00
         25   -1    0    0    0    0  0.00000000000E+00  0.00000000000E+00  0.99999998245E-14  0.12509000000E+03  0.12509000000E+03 0.  0.
        -11    1    3    3    0    0  0.19238404373E+02  0.57665829111E+02 -0.11136364357E+02  0.61801963247E+02  0.51100000000E-03 0.  1.
         23    2    1    0    0    0  0.39687936894E+01  0.27204162292E+02 -0.17124339718E+00  0.97597326545E+02  0.93645026858E+02 0.  0.
         11    1    3    3    0    0 -0.15269610683E+02 -0.30461666818E+02  0.10965120959E+02  0.35795363299E+02  0.51100000000E-03 0. -1.
         22    1    1    0    0    0 -0.39687936894E+01 -0.27204162292E+02  0.17124339718E+00  0.27492673455E+02  0.00000000000E+00 0.  1.
</event>
<event>
 5    1  0.1055265E-009  0.9118800E+02  0.7815553E-02  0.1125453E+00
         25   -1    0    0    0    0  0.00000000000E+00  0.00000000000E+00  0.99999998245E-14  0.12509000000E+03  0.12509000000E+03 0.  0.
        -11    1    3    3    0    0 -0.54061623852E+02 -0.56692417342E+01 -0.27272550953E+02  0.60816046493E+02  0.51100000000E-03 0. -1.
         23    2    1    0    0    0 -0.19630764137E+02 -0.42545110087E+00 -0.21243484998E+02  0.96161924294E+02  0.91707590306E+02 0.  0.
         11    1    3    3    0    0  0.34430859715E+02  0.52437906333E+01  0.60290659548E+01  0.35345877800E+02  0.51100000000E-03 0.  1.
         22    1    1    0    0    0  0.19630764137E+02  0.42545110087E+00  0.21243484998E+02  0.28928075706E+02  0.00000000000E+00 0. -1.
</event>
<event>
 5    1  0.1055265E-009  0.9118800E+02  0.7815553E-02  0.1125453E+00
         25   -1    0    0    0    0  0.00000000000E+00  0.00000000000E+00  0.99999998245E-14  0.12509000000E+03  0.12509000000E+03 0.  0.
        -11    1    3    3    0    0  0.34236367219E+02 -0.32304790523E+01  0.51757153669E+02  0.62139904985E+02  0.51100000000E-03 0.  1.
         23    2    1    0    0    0  0.23278673387E+02 -0.30826850670E+01  0.26434655434E+02  0.89731965696E+02  0.82472026033E+02 0.  0.
         11    1    3    3    0    0 -0.10957693832E+02  0.14779398535E+00 -0.25322498235E+02  0.27592060712E+02  0.51100000000E-03 0. -1.
         22    1    1    0    0    0 -0.23278673387E+02  0.30826850670E+01 -0.26434655434E+02  0.35358034304E+02  0.00000000000E+00 0.  1.
</event>
<event>
 5    1  0.1055265E-009  0.9118800E+02  0.7815553E-02  0.1125453E+00
         25   -1    0    0    0    0  0.00000000000E+00  0.00000000000E+00  0.99999998245E-14  0.12509000000E+03  0.12509000000E+03 0.  0.
        -11    1    3    3    0    0 -0.32760268752E+02  0.23587142126E+02 -0.36625858180E+02  0.54507265296E+02  0.51100000000E-03 0. -1.
         23    2    1    0    0    0  0.40774973176E+01  0.22904546218E+02 -0.17190503437E+02  0.96163236782E+02  0.91709380536E+02 0.  0.
         11    1    3    3    0    0  0.36837766070E+02 -0.68259590793E+00  0.19435354743E+02  0.41655971486E+02  0.51100000000E-03 0.  1.
         22    1    1    0    0    0 -0.40774973176E+01 -0.22904546218E+02  0.17190503437E+02  0.28926763218E+02  0.00000000000E+00 0.  1.
</event>
<event>
 5    1  0.1055265E-009  0.9118800E+02  0.7815553E-02  0.1125453E+00
         25   -1    0    0    0    0  0.00000000000E+00  0.00000000000E+00  0.99999998245E-14  0.12509000000E+03  0.12509000000E+03 0.  0.
        -11    1    3    3    0    0  0.20278750756E+02  0.20916907723E+02 -0.10708424562E+02  0.31038929069E+02  0.51100000000E-03 0. -1.
         23    2    1    0    0    0 -0.70842805166E+00  0.32745095603E+02  0.31505954264E+02  0.79643676602E+02  0.65404486942E+02 0.  0.
         11    1    3    3    0    0 -0.20987178807E+02  0.11828187881E+02  0.42214378826E+02  0.48604747533E+02  0.51100000000E-03 0.  1.
         22    1    1    0    0    0  0.70842805166E+00 -0.32745095603E+02 -0.31505954264E+02  0.45446323398E+02  0.00000000000E+00 0.  1.
</event>
<event>
 5    1  0.1055265E-009  0.9118800E+02  0.7815553E-02  0.1125453E+00
         25   -1    0    0    0    0  0.00000000000E+00  0.00000000000E+00  0.99999998245E-14  0.12509000000E+03  0.12509000000E+03 0.  0.
        -11    1    3    3    0    0  0.17692996287E+02  0.80000199316E+01 -0.37874314610E+02  0.42561792067E+02  0.51100000000E-03 0.  1.
         23    2    1    0    0    0  0.25356046276E+01 -0.28806192792E+02 -0.20734524421E+01  0.96098186689E+02  0.91620610377E+02 0.  0.
         11    1    3    3    0    0 -0.15157391659E+02 -0.36806212724E+02  0.35800862168E+02  0.53536394623E+02  0.51100000000E-03 0. -1.
         22    1    1    0    0    0 -0.25356046276E+01  0.28806192792E+02  0.20734524421E+01  0.28991813311E+02  0.00000000000E+00 0.  1.
</event>
<event>
 5    1  0.1055265E-009  0.9118800E+02  0.7815553E-02  0.1125453E+00
         25   -1    0    0    0    0  0.00000000000E+00  0.00000000000E+00  0.99999998245E-14  0.12509000000E+03  0.12509000000E+03 0.  0.
        -11    1    3    3    0    0  0.11349624895E+02 -0.36553684990E+02  0.17760624490E+01  0.38316318583E+02  0.51100000000E-03 0.  1.
         23    2    1    0    0    0 -0.86390986763E+01 -0.36137190472E+00  0.33539341569E+02  0.90454006460E+02  0.83560009791E+02 0.  0.
         11    1    3    3    0    0 -0.19988723571E+02  0.36192313086E+02  0.31763279120E+02  0.52137687878E+02  0.51100000000E-03 0. -1.
         22    1    1    0    0    0  0.86390986763E+01  0.36137190472E+00 -0.33539341569E+02  0.34635993540E+02  0.00000000000E+00 0. -1.
</event>
<event>
 5    1  0.1055265E-009  0.9118800E+02  0.7815553E-02  0.1125453E+00
         25   -1    0    0    0    0  0.00000000000E+00  0.00000000000E+00  0.99999998245E-14  0.12509000000E+03  0.12509000000E+03 0.  0.
        -11    1    3    3    0    0  0.32968443056E+02  0.46615277064E+01  0.20495087925E+02  0.39098551219E+02  0.51100000000E-03 0.  1.
         23    2    1    0    0    0 -0.32739323367E+01  0.19211674860E+02 -0.21245018534E+02  0.96260190837E+02  0.91841528970E+02 0.  0.
         11    1    3    3    0    0 -0.36242375393E+02  0.14550147154E+02 -0.41740106459E+02  0.57161639618E+02  0.51100000000E-03 0. -1.
         22    1    1    0    0    0  0.32739323367E+01 -0.19211674860E+02  0.21245018534E+02  0.28829809163E+02  0.00000000000E+00 0. -1.
</event>
<event>
 5    1  0.1055265E-009  0.9118800E+02  0.7815553E-02  0.1125453E+00
         25   -1    0    0    0    0  0.00000000000E+00  0.00000000000E+00  0.99999998245E-14  0.12509000000E+03  0.12509000000E+03 0.  0.
        -11    1    3    3    0    0 -0.78022100118E+01 -0.31926119908E+02  0.77849937809E+01  0.33775105357E+02  0.51100000000E-03 0.  1.
         23    2    1    0    0    0  0.39053828709E+00  0.29248335644E+02  0.18441615760E+01  0.95780981081E+02  0.91186499806E+02 0.  0.
         11    1    3    3    0    0  0.81927482989E+01  0.61174455552E+02 -0.59408322048E+01  0.62005875724E+02  0.51100000000E-03 0. -1.
         22    1    1    0    0    0 -0.39053828709E+00 -0.29248335644E+02 -0.18441615760E+01  0.29309018919E+02  0.00000000000E+00 0. -1.
</event>
<event>
 5    1  0.1055265E-009  0.9118800E+02  0.7815553E-02  0.1125453E+00
         25   -1    0    0    0    0  0.00000000000E+00  0.00000000000E+00  0.99999998245E-14  0.12509000000E+03  0.12509000000E+03 0.  0.
        -11    1    3    3    0    0  0.23188270827E+02 -0.23776586243E+01  0.51163391416E+02  0.56223142796E+02  0.51100000000E-03 0. -1.
         23    2    1    0    0    0  0.10815707342E+02  0.17618938558E+02  0.14283408446E+02  0.99961882720E+02  0.96752032118E+02 0.  0.
         11    1    3    3    0    0 -0.12372563485E+02  0.19996597182E+02 -0.36879982969E+02  0.43738739924E+02  0.51100000000E-03 0.  1.
         22    1    1    0    0    0 -0.10815707342E+02 -0.17618938558E+02 -0.14283408446E+02  0.25128117280E+02  0.00000000000E+00 0.  1.
</event>
<event>
 5    1  0.1055265E-009  0.9118800E+02  0.7815553E-02  0.1125453E+00
         25   -1    0    0    0    0  0.00000000000E+00  0.00000000000E+00  0.99999998245E-14  0.12509000000E+03  0.12509000000E+03 0.  0.
        -11    1    3    3    0    0  0.32108416378E+02  0.38082193058E+02 -0.11373367142E+02  0.51093613209E+02  0.51100000000E-03 0.  1.
         23    2    1    0    0    0 -0.12075675807E+01  0.11959873872E+02 -0.26452125404E+02  0.96034677925E+02  0.91533860529E+02 0.  0.
         11    1    3    3    0    0 -0.33315983958E+02 -0.26122319186E+02 -0.15078758262E+02  0.44941064716E+02  0.51100000000E-03 0. -1.
         22    1    1    0    0    0  0.12075675807E+01 -0.11959873872E+02  0.26452125404E+02  0.29055322075E+02  0.00000000000E+00 0.  1.
</event>
<event>
 5    1  0.1055265E-009  0.9118800E+02  0.7815553E-02  0.1125453E+00
         25   -1    0    0    0    0  0.00000000000E+00  0.00000000000E+00  0.99999998245E-14  0.12509000000E+03  0.12509000000E+03 0.  0.
        -11    1    3    3    0    0 -0.47782536028E+02 -0.16235880050E+02 -0.20077818198E+02  0.54312920508E+02  0.51100000000E-03 0. -1.
         23    2    1    0    0    0 -0.16469035141E+02  0.15648085169E+02 -0.10714338313E+02  0.99972501450E+02  0.96765760023E+02 0.  0.
         11    1    3    3    0    0  0.31313500888E+02  0.31883965219E+02  0.93634798849E+01  0.45659580942E+02  0.51100000000E-03 0.  1.
         22    1    1    0    0    0  0.16469035141E+02 -0.15648085169E+02  0.10714338313E+02  0.25117498550E+02  0.00000000000E+00 0. -1.
</event>
<event>
 5    1  0.1055265E-009  0.9118800E+02  0.7815553E-02  0.1125453E+00
         25   -1    0    0    0    0  0.00000000000E+00  0.00000000000E+00  0.99999998245E-14  0.12509000000E+03  0.12509000000E+03 0.  0.
        -11    1    3    3    0    0 -0.81799708485E+01 -0.11928836775E+02 -0.35774482764E+02  0.38587856732E+02  0.51100000000E-03 0.  1.
         23    2    1    0    0    0  0.16574515029E+02 -0.14759428598E+02  0.17122446281E+02  0.97059062669E+02  0.92923238206E+02 0.  0.
         11    1    3    3    0    0  0.24754485877E+02 -0.28305918225E+01  0.52896929045E+02  0.58471205938E+02  0.51100000000E-03 0. -1.
         22    1    1    0    0    0 -0.16574515029E+02  0.14759428598E+02 -0.17122446281E+02  0.28030937331E+02  0.00000000000E+00 0. -1.
</event>
<event>
 5    1  0.1055265E-009  0.9118800E+02  0.7815553E-02  0.1125453E+00
         25   -1    0    0    0    0  0.00000000000E+00  0.00000000000E+00  0.99999998245E-14  0.12509000000E+03  0.12509000000E+03 0.  0.
        -11    1    3    3    0    0  0.18304312302E+02 -0.32944529863E+02 -0.82392227868E+01  0.38578163372E+02  0.51100000000E-03 0. -1.
         23    2    1    0    0    0 -0.44173627546E+01  0.82314099950E+01 -0.32343354724E+02  0.91424560763E+02  0.85000520656E+02 0.  0.
         11    1    3    3    0    0 -0.22721675056E+02  0.41175939858E+02 -0.24104131937E+02  0.52846397392E+02  0.51100000000E-03 0.  1.
         22    1    1    0    0    0  0.44173627546E+01 -0.82314099950E+01  0.32343354724E+02  0.33665439237E+02  0.00000000000E+00 0.  1.
</event>
<event>
 5    1  0.1055265E-009  0.9118800E+02  0.7815553E-02  0.1125453E+00
         25   -1    0    0    0    0  0.00000000000E+00  0.00000000000E+00  0.99999998245E-14  0.12509000000E+03  0.12509000000E+03 0.  0.
        -11    1    3    3    0    0 -0.14852370813E+02 -0.49472796228E+01  0.32090239612E+02  0.35705069291E+02  0.51100000000E-03 0.  1.
         23    2    1    0    0    0  0.25641741176E+02  0.13503008899E+02 -0.73781984051E+01  0.95185686740E+02  0.90366182881E+02 0.  0.
         11    1    3    3    0    0  0.40494111990E+02  0.18450288521E+02 -0.39468438017E+02  0.59480617449E+02  0.51100000000E-03 0. -1.
         22    1    1    0    0    0 -0.25641741176E+02 -0.13503008899E+02  0.73781984051E+01  0.29904313260E+02  0.00000000000E+00 0. -1.
</event>
<event>
 5    1  0.1055265E-009  0.9118800E+02  0.7815553E-02  0.1125453E+00
         25   -1    0    0    0    0  0.00000000000E+00  0.00000000000E+00  0.99999998245E-14  0.12509000000E+03  0.12509000000E+03 0.  0.
        -11    1    3    3    0    0 -0.19753771802E+02  0.42871493293E+02 -0.31075036736E+02  0.56514019022E+02  0.51100000000E-03 0. -1.
         23    2    1    0    0    0  0.92003407984E+01  0.25424443501E+02 -0.10517769726E+02  0.96078414760E+02  0.91593611703E+02 0.  0.
         11    1    3    3    0    0  0.28954112600E+02 -0.17447049793E+02  0.20557267011E+02  0.39564395738E+02  0.51100000000E-03 0.  1.
         22    1    1    0    0    0 -0.92003407984E+01 -0.25424443501E+02  0.10517769726E+02  0.29011585240E+02  0.00000000000E+00 0. -1.
</event>
<event>
 5    1  0.1055265E-009  0.9118800E+02  0.7815553E-02  0.1125453E+00
         25   -1    0    0    0    0  0.00000000000E+00  0.00000000000E+00  0.99999998245E-14  0.12509000000E+03  0.12509000000E+03 0.  0.
        -11    1    3    3    0    0  0.18639398610E+02  0.54247989711E+02 -0.12784241499E+02  0.58768260134E+02  0.51100000000E-03 0.  1.
         23    2    1    0    0    0  0.22070773815E+02  0.18254269270E+02 -0.87065359151E+01  0.95154382902E+02  0.90322839938E+02 0.  0.
         11    1    3    3    0    0  0.34313752052E+01 -0.35993720441E+02  0.40777055837E+01  0.36386122768E+02  0.51100000000E-03 0. -1.
         22    1    1    0    0    0 -0.22070773815E+02 -0.18254269270E+02  0.87065359151E+01  0.29935617098E+02  0.00000000000E+00 0.  1.
</event>
<event>
 5    1  0.1055265E-009  0.9118800E+02  0.7815553E-02  0.1125453E+00
         25   -1    0    0    0    0  0.00000000000E+00  0.00000000000E+00  0.99999998245E-14  0.12509000000E+03  0.12509000000E+03 0.  0.
        -11    1    3    3    0    0 -0.11945527116E+02  0.45168481975E+02  0.39819885563E+02  0.61388196492E+02  0.51100000000E-03 0.  1.
         23    2    1    0    0    0  0.22655828639E+01  0.19537688685E+02  0.21503403522E+02  0.95948097044E+02  0.91415462688E+02 0.  0.
         11    1    3    3    0    0  0.14211109980E+02 -0.25630793290E+02 -0.18316482041E+02  0.34559900552E+02  0.51100000000E-03 0. -1.
         22    1    1    0    0    0 -0.22655828639E+01 -0.19537688685E+02 -0.21503403522E+02  0.29141902956E+02  0.00000000000E+00 0.  1.
</event>
<event>
 5    1  0.1055265E-009  0.9118800E+02  0.7815553E-02  0.1125453E+00
         25   -1    0    0    0    0  0.00000000000E+00  0.00000000000E+00  0.99999998245E-14  0.12509000000E+03  0.12509000000E+03 0.  0.
        -11    1    3    3    0    0  0.39076920430E+02 -0.34437257691E+02 -0.17019496922E+02  0.54795927799E+02  0.51100000000E-03 0.  1.
         23    2    1    0    0    0  0.27409791273E+02  0.42750991261E+01 -0.79362858857E+01  0.96235922925E+02  0.91808469639E+02 0.  0.
         11    1    3    3    0    0 -0.11667129157E+02  0.38712356817E+02  0.90832110361E+01  0.41439995127E+02  0.51100000000E-03 0. -1.
         22    1    1    0    0    0 -0.27409791273E+02 -0.42750991261E+01  0.79362858857E+01  0.28854077075E+02  0.00000000000E+00 0.  1.
</event>
<event>
 5    1  0.1055265E-009  0.9118800E+02  0.7815553E-02  0.1125453E+00
         25   -1    0    0    0    0  0.00000000000E+00  0.00000000000E+00  0.99999998245E-14  0.12509000000E+03  0.12509000000E+03 0.  0.
        -11    1    3    3    0    0 -0.18696302442E+02 -0.13390732216E+02 -0.26249437111E+02  0.34898372214E+02  0.51100000000E-03 0.  1.
         23    2    1    0    0    0  0.12347347156E+02 -0.23051532205E+02  0.20514283750E+02  0.91853484591E+02  0.85629414776E+02 0.  0.
         11    1    3    3    0    0  0.31043649598E+02 -0.96607999889E+01  0.46763720861E+02  0.56955112376E+02  0.51100000000E-03 0. -1.
         22    1    1    0    0    0 -0.12347347156E+02  0.23051532205E+02 -0.20514283750E+02  0.33236515409E+02  0.00000000000E+00 0. -1.
</event>
<event>
 5    1  0.1055265E-009  0.9118800E+02  0.7815553E-02  0.1125453E+00
         25   -1    0    0    0    0  0.00000000000E+00  0.00000000000E+00  0.99999998245E-14  0.12509000000E+03  0.12509000000E+03 0.  0.
        -11    1    3    3    0    0  0.46357173436E+02  0.21261111884E+02  0.32384355168E+02  0.60413316971E+02  0.51100000000E-03 0. -1.
         23    2    1    0    0    0  0.19935900088E+02  0.19871700931E+02  0.95390115060E+01  0.95369344712E+02  0.90620056059E+02 0.  0.
         11    1    3    3    0    0 -0.26421273348E+02 -0.13894109528E+01 -0.22845343662E+02  0.34956027741E+02  0.51100000000E-03 0.  1.
         22    1    1    0    0    0 -0.19935900088E+02 -0.19871700931E+02 -0.95390115060E+01  0.29720655288E+02  0.00000000000E+00 0. -1.
</event>
<event>
 5    1  0.1055265E-009  0.9118800E+02  0.7815553E-02  0.1125453E+00
         25   -1    0    0    0    0  0.00000000000E+00  0.00000000000E+00  0.99999998245E-14  0.12509000000E+03  0.12509000000E+03 0.  0.
        -11    1    3    3    0    0  0.28762095641E+01 -0.40436542503E+02 -0.29763769619E+02  0.50291833664E+02  0.51100000000E-03 0.  1.
         23    2    1    0    0    0 -0.20308482949E+02 -0.24626880917E+02  0.25237967063E+01  0.93069892361E+02  0.87388314842E+02 0.  0.
         11    1    3    3    0    0 -0.23184692513E+02  0.15809661587E+02  0.32287566326E+02  0.42778058697E+02  0.51100000000E-03 0. -1.
         22    1    1    0    0    0  0.20308482949E+02  0.24626880917E+02 -0.25237967063E+01  0.32020107639E+02  0.00000000000E+00 0.  1.
</event>
<event>
 5    1  0.1055265E-009  0.9118800E+02  0.7815553E-02  0.1125453E+00
         25   -1    0    0    0    0  0.00000000000E+00  0.00000000000E+00  0.99999998245E-14  0.12509000000E+03  0.12509000000E+03 0.  0.
        -11    1    3    3    0    0 -0.29379298718E+02  0.19305737801E+02 -0.23648640158E+01  0.35234177829E+02  0.51100000000E-03 0. -1.
         23    2    1    0    0    0  0.97822613271E+01 -0.26694365368E+02  0.54255401837E+01  0.96146636937E+02  0.91686735840E+02 0.  0.
         11    1    3    3    0    0  0.39161560045E+02 -0.46000103169E+02  0.77904041995E+01  0.60912459108E+02  0.51100000000E-03 0.  1.
         22    1    1    0    0    0 -0.97822613271E+01  0.26694365368E+02 -0.54255401837E+01  0.28943363063E+02  0.00000000000E+00 0.  1.
</event>
<event>
 5    1  0.1055265E-009  0.9118800E+02  0.7815553E-02  0.1125453E+00
         25   -1    0    0    0    0  0.00000000000E+00  0.00000000000E+00  0.99999998245E-14  0.12509000000E+03  0.12509000000E+03 0.  0.
        -11    1    3    3    0    0  0.24646348340E+02 -0.34077824563E+02  0.17785018055E+02  0.45662320144E+02  0.51100000000E-03 0. -1.
         23    2    1    0    0    0  0.22847304618E+02  0.15426482603E+02  0.97628926321E+01  0.95844662485E+02  0.91273816401E+02 0.  0.
         11    1    3    3    0    0 -0.17990437222E+01  0.49504307166E+02 -0.80221254232E+01  0.50182342341E+02  0.51100000000E-03 0.  1.
         22    1    1    0    0    0 -0.22847304618E+02 -0.15426482603E+02 -0.97628926321E+01  0.29245337515E+02  0.00000000000E+00 0.  1.
</event>
<event>
 5    1  0.1055265E-009  0.9118800E+02  0.7815553E-02  0.1125453E+00
         25   -1    0    0    0    0  0.00000000000E+00  0.00000000000E+00  0.99999998245E-14  0.12509000000E+03  0.12509000000E+03 0.  0.
        -11    1    3    3    0    0  0.51896447360E+02 -0.21100895070E+02  0.63324831206E+01  0.56378979807E+02  0.51100000000E-03 0.  1.
         23    2    1    0    0    0  0.20934094455E+02  0.97557860909E+01  0.92996864438E+01  0.10019229246E+03  0.97049469999E+02 0.  0.
         11    1    3    3    0    0 -0.30962352904E+02  0.30856681161E+02  0.29672033232E+01  0.43813312651E+02  0.51100000000E-03 0. -1.
         22    1    1    0    0    0 -0.20934094455E+02 -0.97557860909E+01 -0.92996864438E+01  0.24897707543E+02  0.00000000000E+00 0. -1.
</event>
<event>
 5    1  0.1055265E-009  0.9118800E+02  0.7815553E-02  0.1125453E+00
         25   -1    0    0    0    0  0.00000000000E+00  0.00000000000E+00  0.99999998245E-14  0.12509000000E+03  0.12509000000E+03 0.  0.
        -11    1    3    3    0    0  0.15181956129E+01  0.21799460867E+02  0.30693771828E+02  0.37677964931E+02  0.51100000000E-03 0.  1.
         23    2    1    0    0    0  0.18269121556E+02 -0.89705223821E+01 -0.18172293638E+02  0.97805144672E+02  0.93922217786E+02 0.  0.
         11    1    3    3    0    0  0.16750925943E+02 -0.30769983249E+02 -0.48866065466E+02  0.60127179741E+02  0.51100000000E-03 0. -1.
         22    1    1    0    0    0 -0.18269121556E+02  0.89705223821E+01  0.18172293638E+02  0.27284855328E+02  0.00000000000E+00 0. -1.
</event>
<event>
 5    1  0.1055265E-009  0.9118800E+02  0.7815553E-02  0.1125453E+00
         25   -1    0    0    0    0  0.00000000000E+00  0.00000000000E+00  0.99999998245E-14  0.12509000000E+03  0.12509000000E+03 0.  0.
        -11    1    3    3    0    0 -0.20861122244E+02 -0.21284620612E+02 -0.34112030948E+02  0.45297374665E+02  0.51100000000E-03 0. -1.
         23    2    1    0    0    0  0.20209262870E+02  0.48492462899E+01 -0.20621985673E+02  0.95812093851E+02  0.91229170443E+02 0.  0.
         11    1    3    3    0    0  0.41070385114E+02  0.26133866902E+02  0.13490045275E+02  0.50514719186E+02  0.51100000000E-03 0.  1.
         22    1    1    0    0    0 -0.20209262870E+02 -0.48492462899E+01  0.20621985673E+02  0.29277906149E+02  0.00000000000E+00 0.  1.
</event>
<event>
 5    1  0.1055265E-009  0.9118800E+02  0.7815553E-02  0.1125453E+00
         25   -1    0    0    0    0  0.00000000000E+00  0.00000000000E+00  0.99999998245E-14  0.12509000000E+03  0.12509000000E+03 0.  0.
        -11    1    3    3    0    0 -0.28925959777E+02  0.20088099694E+02 -0.43543192449E+02  0.56002254484E+02  0.51100000000E-03 0.  1.
         23    2    1    0    0    0 -0.53514881743E+01 -0.73200373291E+01 -0.28540712272E+02  0.95143487195E+02  0.90307748983E+02 0.  0.
         11    1    3    3    0    0  0.23574471602E+02 -0.27408137023E+02  0.15002480177E+02  0.39141232711E+02  0.51100000000E-03 0. -1.
         22    1    1    0    0    0  0.53514881743E+01  0.73200373291E+01  0.28540712272E+02  0.29946512805E+02  0.00000000000E+00 0.  1.
</event>
<event>
 5    1  0.1055265E-009  0.9118800E+02  0.7815553E-02  0.1125453E+00
         25   -1    0    0    0    0  0.00000000000E+00  0.00000000000E+00  0.99999998245E-14  0.12509000000E+03  0.12509000000E+03 0.  0.
        -11    1    3    3    0    0  0.32743318385E+02 -0.16899869837E+02 -0.20813078793E+01  0.36906128788E+02  0.51100000000E-03 0. -1.
         23    2    1    0    0    0 -0.72623573393E+01  0.26572258456E+02  0.69725590047E+01  0.96674452625E+02  0.92404039185E+02 0.  0.
         11    1    3    3    0    0 -0.40005675725E+02  0.43472128292E+02  0.90538668840E+01  0.59768323837E+02  0.51100000000E-03 0.  1.
         22    1    1    0    0    0  0.72623573393E+01 -0.26572258456E+02 -0.69725590047E+01  0.28415547375E+02  0.00000000000E+00 0.  1.
</event>
<event>
 5    1  0.1055265E-009  0.9118800E+02  0.7815553E-02  0.1125453E+00
         25   -1    0    0    0    0  0.00000000000E+00  0.00000000000E+00  0.99999998245E-14  0.12509000000E+03  0.12509000000E+03 0.  0.
        -11    1    3    3    0    0  0.14249368539E+02 -0.19794994583E+02  0.22976530850E+02  0.33508316646E+02  0.51100000000E-03 0.  1.
         23    2    1    0    0    0 -0.17329126606E+02  0.27044545002E+02  0.69732704720E+01  0.92221587438E+02  0.86165472466E+02 0.  0.
         11    1    3    3    0    0 -0.31578495144E+02  0.46839539585E+02 -0.16003260378E+02  0.58713270792E+02  0.51100000000E-03 0. -1.
         22    1    1    0    0    0  0.17329126606E+02 -0.27044545002E+02 -0.69732704720E+01  0.32868412562E+02  0.00000000000E+00 0. -1.
</event>
<event>
 5    1  0.1055265E-009  0.9118800E+02  0.7815553E-02  0.1125453E+00
         25   -1    0    0    0    0  0.00000000000E+00  0.00000000000E+00  0.99999998245E-14  0.12509000000E+03  0.12509000000E+03 0.  0.
        -11    1    3    3    0    0 -0.26440139957E+02  0.23818909387E+02  0.28807178850E+02  0.45785095816E+02  0.51100000000E-03 0. -1.
         23    2    1    0    0    0 -0.15167484160E+01 -0.20288381779E+02  0.18723171589E+02  0.97440838795E+02  0.93435758411E+02 0.  0.
         11    1    3    3    0    0  0.24923391541E+02 -0.44107291167E+02 -0.10084007262E+02  0.51655742979E+02  0.51100000000E-03 0.  1.
         22    1    1    0    0    0  0.15167484160E+01  0.20288381779E+02 -0.18723171589E+02  0.27649161205E+02  0.00000000000E+00 0.  1.
</event>
<event>
 5    1  0.1055265E-009  0.9118800E+02  0.7815553E-02  0.1125453E+00
         25   -1    0    0    0    0  0.00000000000E+00  0.00000000000E+00  0.99999998245E-14  0.12509000000E+03  0.12509000000E+03 0.  0.
        -11    1    3    3    0    0  0.32182750229E+01 -0.32475643054E+02  0.71094565276E+01  0.33400135602E+02  0.51100000000E-03 0.  1.
         23    2    1    0    0    0  0.22233947452E+02  0.10335380327E+02 -0.24906580243E+02  0.90139946420E+02  0.83088529265E+02 0.  0.
         11    1    3    3    0    0  0.19015672429E+02  0.42811023381E+02 -0.32016036771E+02  0.56739810818E+02  0.51100000000E-03 0. -1.
         22    1    1    0    0    0 -0.22233947452E+02 -0.10335380327E+02  0.24906580243E+02  0.34950053580E+02  0.00000000000E+00 0. -1.
</event>
<event>
 5    1  0.1055265E-009  0.9118800E+02  0.7815553E-02  0.1125453E+00
         25   -1    0    0    0    0  0.00000000000E+00  0.00000000000E+00  0.99999998245E-14  0.12509000000E+03  0.12509000000E+03 0.  0.
        -11    1    3    3    0    0  0.22584371277E+02  0.13409671823E+02  0.24250879723E+02  0.35748822246E+02  0.51100000000E-03 0.  1.
         23    2    1    0    0    0 -0.17431676924E+02  0.13656130354E+02 -0.19887251659E+02  0.95326666262E+02  0.90561124471E+02 0.  0.
         11    1    3    3    0    0 -0.40016048201E+02  0.24645853134E+00 -0.44138131382E+02  0.59577844016E+02  0.51100000000E-03 0. -1.
         22    1    1    0    0    0  0.17431676924E+02 -0.13656130354E+02  0.19887251659E+02  0.29763333738E+02  0.00000000000E+00 0. -1.
</event>
<event>
 5    1  0.1055265E-009  0.9118800E+02  0.7815553E-02  0.1125453E+00
         25   -1    0    0    0    0  0.00000000000E+00  0.00000000000E+00  0.99999998245E-14  0.12509000000E+03  0.12509000000E+03 0.  0.
        -11    1    3    3    0    0 -0.28110948301E+02 -0.12003527122E+02 -0.26467289336E+02  0.40432999924E+02  0.51100000000E-03 0. -1.
         23    2    1    0    0    0  0.12204710027E+02  0.23636493192E+02 -0.89847871792E+01  0.97012158952E+02  0.92860076602E+02 0.  0.
         11    1    3    3    0    0  0.40315658329E+02  0.35640020314E+02  0.17482502157E+02  0.56579159028E+02  0.51100000000E-03 0.  1.
         22    1    1    0    0    0 -0.12204710027E+02 -0.23636493192E+02  0.89847871792E+01  0.28077841048E+02  0.00000000000E+00 0.  1.
</event>
<event>
 5    1  0.1055265E-009  0.9118800E+02  0.7815553E-02  0.1125453E+00
         25   -1    0    0    0    0  0.00000000000E+00  0.00000000000E+00  0.99999998245E-14  0.12509000000E+03  0.12509000000E+03 0.  0.
        -11    1    3    3    0    0 -0.14240903460E+02 -0.18607175323E+02 -0.29603543193E+02  0.37754470924E+02  0.51100000000E-03 0. -1.
         23    2    1    0    0    0  0.24356144857E+02 -0.10340593565E+02  0.12808326031E+02  0.95692672174E+02  0.91065276723E+02 0.  0.
         11    1    3    3    0    0  0.38597048317E+02  0.82665817588E+01  0.42411869225E+02  0.57938201251E+02  0.51100000000E-03 0.  1.
         22    1    1    0    0    0 -0.24356144857E+02  0.10340593565E+02 -0.12808326031E+02  0.29397327826E+02  0.00000000000E+00 0.  1.
</event>
<event>
 5    1  0.1055265E-009  0.9118800E+02  0.7815553E-02  0.1125453E+00
         25   -1    0    0    0    0  0.00000000000E+00  0.00000000000E+00  0.99999998245E-14  0.12509000000E+03  0.12509000000E+03 0.  0.
        -11    1    3    3    0    0 -0.49039621773E+01  0.53762593698E+02  0.15260991186E+02  0.56101365210E+02  0.51100000000E-03 0.  1.
         23    2    1    0    0    0 -0.27266132192E+01  0.27380333054E+02 -0.12855965026E+02  0.94719078141E+02  0.89717951767E+02 0.  0.
         11    1    3    3    0    0  0.21773489581E+01 -0.26382260644E+02 -0.28116956212E+02  0.38617712931E+02  0.51100000000E-03 0. -1.
         22    1    1    0    0    0  0.27266132192E+01 -0.27380333054E+02  0.12855965026E+02  0.30370921859E+02  0.00000000000E+00 0.  1.
</event>
<event>
 5    1  0.1055265E-009  0.9118800E+02  0.7815553E-02  0.1125453E+00
         25   -1    0    0    0    0  0.00000000000E+00  0.00000000000E+00  0.99999998245E-14  0.12509000000E+03  0.12509000000E+03 0.  0.
        -11    1    3    3    0    0  0.36334154628E+02 -0.17345903524E+02  0.12150940734E+01  0.40280610912E+02  0.51100000000E-03 0.  1.
         23    2    1    0    0    0 -0.19601157922E+02  0.94294307624E+01 -0.54927721797E+01  0.10265587192E+03  0.10017453737E+03 0.  0.
         11    1    3    3    0    0 -0.55935312550E+02  0.26775334286E+02 -0.67078662530E+01  0.62375261010E+02  0.51100000000E-03 0. -1.
         22    1    1    0    0    0  0.19601157922E+02 -0.94294307624E+01  0.54927721797E+01  0.22434128078E+02  0.00000000000E+00 0. -1.
</event>
<event>
 5    1  0.1055265E-009  0.9118800E+02  0.7815553E-02  0.1125453E+00
         25   -1    0    0    0    0  0.00000000000E+00  0.00000000000E+00  0.99999998245E-14  0.12509000000E+03  0.12509000000E+03 0.  0.
        -11    1    3    3    0    0  0.28719977958E+02  0.35595384367E+01  0.54686168692E+01  0.29451879711E+02  0.51100000000E-03 0. -1.
         23    2    1    0    0    0 -0.24262755400E+02 -0.19164045183E+02 -0.15125854988E+02  0.90670043340E+02  0.83882795272E+02 0.  0.
         11    1    3    3    0    0 -0.52982733359E+02 -0.22723583620E+02 -0.20594471857E+02  0.61218163628E+02  0.51100000000E-03 0.  1.
         22    1    1    0    0    0  0.24262755400E+02  0.19164045183E+02  0.15125854988E+02  0.34419956660E+02  0.00000000000E+00 0.  1.
</event>
<event>
 5    1  0.1055265E-009  0.9118800E+02  0.7815553E-02  0.1125453E+00
         25   -1    0    0    0    0  0.00000000000E+00  0.00000000000E+00  0.99999998245E-14  0.12509000000E+03  0.12509000000E+03 0.  0.
        -11    1    3    3    0    0  0.68788828459E+01  0.31324771357E+02  0.19882059765E+02  0.37734024839E+02  0.51100000000E-03 0.  1.
         23    2    1    0    0    0  0.29675351776E+02 -0.12516957118E+02  0.20056030785E+02  0.87148662525E+02  0.78456002259E+02 0.  0.
         11    1    3    3    0    0  0.22796468931E+02 -0.43841728476E+02  0.17397101970E+00  0.49414637686E+02  0.51100000000E-03 0. -1.
         22    1    1    0    0    0 -0.29675351776E+02  0.12516957118E+02 -0.20056030785E+02  0.37941337475E+02  0.00000000000E+00 0. -1.
</event>
<event>
 5    1  0.1055265E-009  0.9118800E+02  0.7815553E-02  0.1125453E+00
         25   -1    0    0    0    0  0.00000000000E+00  0.00000000000E+00  0.99999998245E-14  0.12509000000E+03  0.12509000000E+03 0.  0.
        -11    1    3    3    0    0  0.54301405429E+02  0.25851035134E+01 -0.26973191554E+01  0.54429779741E+02  0.51100000000E-03 0.  1.
         23    2    1    0    0    0  0.10409821105E+02  0.19776650687E+02  0.49895870203E+01  0.10219073655E+03  0.99592019612E+02 0.  0.
         11    1    3    3    0    0 -0.43891584324E+02  0.17191547174E+02  0.76869061757E+01  0.47760956811E+02  0.51100000000E-03 0. -1.
         22    1    1    0    0    0 -0.10409821105E+02 -0.19776650687E+02 -0.49895870203E+01  0.22899263449E+02  0.00000000000E+00 0.  1.
</event>
<event>
 5    1  0.1055265E-009  0.9118800E+02  0.7815553E-02  0.1125453E+00
         25   -1    0    0    0    0  0.00000000000E+00  0.00000000000E+00  0.99999998245E-14  0.12509000000E+03  0.12509000000E+03 0.  0.
        -11    1    3    3    0    0 -0.23256486321E+02  0.12346167456E+02  0.27461681717E+02  0.38045183267E+02  0.51100000000E-03 0. -1.
         23    2    1    0    0    0 -0.29036533056E+02 -0.25339624227E+02 -0.24042073503E+01  0.86476569424E+02  0.77376999414E+02 0.  0.
         11    1    3    3    0    0 -0.57800467356E+01 -0.37685791683E+02 -0.29865889067E+02  0.48431386157E+02  0.51100000000E-03 0.  1.
         22    1    1    0    0    0  0.29036533056E+02  0.25339624227E+02  0.24042073503E+01  0.38613430576E+02  0.00000000000E+00 0.  1.
</event>
<event>
 5    1  0.1055265E-009  0.9118800E+02  0.7815553E-02  0.1125453E+00
         25   -1    0    0    0    0  0.00000000000E+00  0.00000000000E+00  0.99999998245E-14  0.12509000000E+03  0.12509000000E+03 0.  0.
        -11    1    3    3    0    0 -0.51355162288E+02 -0.29627971105E+01 -0.84300509797E+01  0.52126736135E+02  0.51100000000E-03 0.  1.
         23    2    1    0    0    0 -0.14571695495E+02  0.20393078796E+02 -0.14522332512E+02  0.96122602568E+02  0.91653939416E+02 0.  0.
         11    1    3    3    0    0  0.36783466793E+02  0.23355875906E+02 -0.60922815326E+01  0.43995866433E+02  0.51100000000E-03 0. -1.
         22    1    1    0    0    0  0.14571695495E+02 -0.20393078796E+02  0.14522332512E+02  0.28967397432E+02  0.00000000000E+00 0.  1.
</event>
<event>
 5    1  0.1055265E-009  0.9118800E+02  0.7815553E-02  0.1125453E+00
         25   -1    0    0    0    0  0.00000000000E+00  0.00000000000E+00  0.99999998245E-14  0.12509000000E+03  0.12509000000E+03 0.  0.
        -11    1    3    3    0    0 -0.54535083607E+01  0.30355066761E+02  0.47560080072E+02  0.56684495660E+02  0.51100000000E-03 0.  1.
         23    2    1    0    0    0 -0.14031868502E+02  0.22384261661E+02  0.86921032978E+01  0.97278111112E+02  0.93217647138E+02 0.  0.
         11    1    3    3    0    0 -0.85783601415E+01 -0.79708050996E+01 -0.38867976774E+02  0.40593615452E+02  0.51100000000E-03 0. -1.
         22    1    1    0    0    0  0.14031868502E+02 -0.22384261661E+02 -0.86921032978E+01  0.27811888888E+02  0.00000000000E+00 0.  1.
</event>
<event>
 5    1  0.1055265E-009  0.9118800E+02  0.7815553E-02  0.1125453E+00
         25   -1    0    0    0    0  0.00000000000E+00  0.00000000000E+00  0.99999998245E-14  0.12509000000E+03  0.12509000000E+03 0.  0.
        -11    1    3    3    0    0 -0.99517108550E+01 -0.23660847513E+02  0.20168493279E+02  0.32644147643E+02  0.51100000000E-03 0.  1.
         23    2    1    0    0    0  0.14162306386E+01  0.17560646738E+02 -0.24781712818E+02  0.94684156593E+02  0.89669248890E+02 0.  0.
         11    1    3    3    0    0  0.11367941494E+02  0.41221494251E+02 -0.44950206097E+02  0.62040008950E+02  0.51100000000E-03 0. -1.
         22    1    1    0    0    0 -0.14162306386E+01 -0.17560646738E+02  0.24781712818E+02  0.30405843407E+02  0.00000000000E+00 0. -1.
</event>
<event>
 5    1  0.1055265E-009  0.9118800E+02  0.7815553E-02  0.1125453E+00
         25   -1    0    0    0    0  0.00000000000E+00  0.00000000000E+00  0.99999998245E-14  0.12509000000E+03  0.12509000000E+03 0.  0.
        -11    1    3    3    0    0 -0.36433729872E+02  0.20441073444E+02  0.10823604989E+02  0.43155585747E+02  0.51100000000E-03 0.  1.
         23    2    1    0    0    0  0.15937751379E+02  0.23755306966E+02  0.15778139195E+01  0.96440113005E+02  0.92086260493E+02 0.  0.
         11    1    3    3    0    0  0.52371481251E+02  0.33142335224E+01 -0.92457910695E+01  0.53284527258E+02  0.51100000000E-03 0. -1.
         22    1    1    0    0    0 -0.15937751379E+02 -0.23755306966E+02 -0.15778139195E+01  0.28649886995E+02  0.00000000000E+00 0.  1.
</event>
<event>
 5    1  0.1055265E-009  0.9118800E+02  0.7815553E-02  0.1125453E+00
         25   -1    0    0    0    0  0.00000000000E+00  0.00000000000E+00  0.99999998245E-14  0.12509000000E+03  0.12509000000E+03 0.  0.
        -11    1    3    3    0    0  0.84999547086E+01  0.37720883705E+02 -0.45087585481E+02  0.59397008866E+02  0.51100000000E-03 0.  1.
         23    2    1    0    0    0  0.61500340239E+01  0.25590917484E+02 -0.94339858840E+01  0.97130778519E+02  0.93019729466E+02 0.  0.
         11    1    3    3    0    0 -0.23499206847E+01 -0.12129966221E+02  0.35653599597E+02  0.37733769653E+02  0.51100000000E-03 0. -1.
         22    1    1    0    0    0 -0.61500340239E+01 -0.25590917484E+02  0.94339858840E+01  0.27959221481E+02  0.00000000000E+00 0.  1.
</event>
<event>
 5    1  0.1055265E-009  0.9118800E+02  0.7815553E-02  0.1125453E+00
         25   -1    0    0    0    0  0.00000000000E+00  0.00000000000E+00  0.99999998245E-14  0.12509000000E+03  0.12509000000E+03 0.  0.
        -11    1    3    3    0    0  0.30978828073E+02  0.27920519973E+02  0.54024920225E+01  0.42052706746E+02  0.51100000000E-03 0.  1.
         23    2    1    0    0    0  0.77925334076E+01 -0.12817351737E+02  0.27416102410E+02  0.93838587971E+02  0.88481805127E+02 0.  0.
         11    1    3    3    0    0 -0.23186294665E+02 -0.40737871710E+02  0.22013610387E+02  0.51785881226E+02  0.51100000000E-03 0. -1.
         22    1    1    0    0    0 -0.77925334076E+01  0.12817351737E+02 -0.27416102410E+02  0.31251412029E+02  0.00000000000E+00 0. -1.
</event>
<event>
 5    1  0.1055265E-009  0.9118800E+02  0.7815553E-02  0.1125453E+00
         25   -1    0    0    0    0  0.00000000000E+00  0.00000000000E+00  0.99999998245E-14  0.12509000000E+03  0.12509000000E+03 0.  0.
        -11    1    3    3    0    0  0.53431665937E+02  0.15501209223E+02 -0.25242308672E+02  0.61093408478E+02  0.51100000000E-03 0. -1.
         23    2    1    0    0    0  0.13597056203E+02  0.39072388733E+01  0.21101290197E+01  0.11078618591E+03  0.10985890902E+03 0.  0.
         11    1    3    3    0    0 -0.39834609733E+02 -0.11593970349E+02  0.27352437692E+02  0.49692777433E+02  0.51100000000E-03 0.  1.
         22    1    1    0    0    0 -0.13597056203E+02 -0.39072388733E+01 -0.21101290197E+01  0.14303814089E+02  0.00000000000E+00 0. -1.
</event>
<event>
 5    1  0.1055265E-009  0.9118800E+02  0.7815553E-02  0.1125453E+00
         25   -1    0    0    0    0  0.00000000000E+00  0.00000000000E+00  0.99999998245E-14  0.12509000000E+03  0.12509000000E+03 0.  0.
        -11    1    3    3    0    0  0.74137851392E+01  0.61072591811E+02 -0.75976549032E+01  0.61988305679E+02  0.51100000000E-03 0. -1.
         23    2    1    0    0    0  0.77730477619E+01  0.28442399536E+02  0.46162747377E+00  0.95600960294E+02  0.90939211269E+02 0.  0.
         11    1    3    3    0    0  0.35926262262E+00 -0.32630192275E+02  0.80592823770E+01  0.33612654615E+02  0.51100000000E-03 0.  1.
         22    1    1    0    0    0 -0.77730477619E+01 -0.28442399536E+02 -0.46162747377E+00  0.29489039706E+02  0.00000000000E+00 0. -1.
</event>
<event>
 5    1  0.1055265E-009  0.9118800E+02  0.7815553E-02  0.1125453E+00
         25   -1    0    0    0    0  0.00000000000E+00  0.00000000000E+00  0.99999998245E-14  0.12509000000E+03  0.12509000000E+03 0.  0.
        -11    1    3    3    0    0  0.16618050059E+02  0.16317132730E+01  0.40773779953E+02  0.44060449474E+02  0.51100000000E-03 0.  1.
         23    2    1    0    0    0 -0.68026522286E+01  0.29616448922E+02  0.67319169963E+01  0.93965591081E+02  0.88661172317E+02 0.  0.
         11    1    3    3    0    0 -0.23420702287E+02  0.27984735649E+02 -0.34041862957E+02  0.49905141607E+02  0.51100000000E-03 0. -1.
         22    1    1    0    0    0  0.68026522286E+01 -0.29616448922E+02 -0.67319169963E+01  0.31124408919E+02  0.00000000000E+00 0. -1.
</event>
<event>
 5    1  0.1055265E-009  0.9118800E+02  0.7815553E-02  0.1125453E+00
         25   -1    0    0    0    0  0.00000000000E+00  0.00000000000E+00  0.99999998245E-14  0.12509000000E+03  0.12509000000E+03 0.  0.
        -11    1    3    3    0    0 -0.19334836751E+01  0.37630185075E+02 -0.24996070583E+02  0.45216951830E+02  0.51100000000E-03 0. -1.
         23    2    1    0    0    0 -0.13456872897E+02 -0.92268908375E+01 -0.27034607053E+02  0.93513221804E+02  0.88020621056E+02 0.  0.
         11    1    3    3    0    0 -0.11523389222E+02 -0.46857075913E+02 -0.20385364701E+01  0.48296269975E+02  0.51100000000E-03 0.  1.
         22    1    1    0    0    0  0.13456872897E+02  0.92268908375E+01  0.27034607053E+02  0.31576778196E+02  0.00000000000E+00 0. -1.
</event>
<event>
 5    1  0.1055265E-009  0.9118800E+02  0.7815553E-02  0.1125453E+00
         25   -1    0    0    0    0  0.00000000000E+00  0.00000000000E+00  0.99999998245E-14  0.12509000000E+03  0.12509000000E+03 0.  0.
        -11    1    3    3    0    0  0.60530328227E+02  0.48472277102E+01  0.13133512901E+02  0.62128137048E+02  0.51100000000E-03 0. -1.
         23    2    1    0    0    0  0.29845712626E+02  0.52430686342E+01  0.21900500376E+01  0.94708218452E+02  0.89702809278E+02 0.  0.
         11    1    3    3    0    0 -0.30684615600E+02  0.39584092396E+00 -0.10943462863E+02  0.32580081404E+02  0.51100000000E-03 0.  1.
         22    1    1    0    0    0 -0.29845712626E+02 -0.52430686342E+01 -0.21900500376E+01  0.30381781548E+02  0.00000000000E+00 0. -1.
</event>
<event>
 5    1  0.1055265E-009  0.9118800E+02  0.7815553E-02  0.1125453E+00
         25   -1    0    0    0    0  0.00000000000E+00  0.00000000000E+00  0.99999998245E-14  0.12509000000E+03  0.12509000000E+03 0.  0.
        -11    1    3    3    0    0 -0.19728055179E+02 -0.24902944932E+02  0.17322378307E+02  0.36185875945E+02  0.51100000000E-03 0.  1.
         23    2    1    0    0    0  0.11323285245E+02  0.34848294531E+01 -0.25964779913E+02  0.96550017152E+02  0.92235433490E+02 0.  0.
         11    1    3    3    0    0  0.31051340424E+02  0.28387774385E+02 -0.43287158220E+02  0.60364141207E+02  0.51100000000E-03 0. -1.
         22    1    1    0    0    0 -0.11323285245E+02 -0.34848294531E+01  0.25964779913E+02  0.28539982848E+02  0.00000000000E+00 0. -1.
</event>
<event>
 5    1  0.1055265E-009  0.9118800E+02  0.7815553E-02  0.1125453E+00
         25   -1    0    0    0    0  0.00000000000E+00  0.00000000000E+00  0.99999998245E-14  0.12509000000E+03  0.12509000000E+03 0.  0.
        -11    1    3    3    0    0  0.57787915424E+02  0.60997144608E+01 -0.20688813252E+02  0.61682061246E+02  0.51100000000E-03 0. -1.
         23    2    1    0    0    0  0.26086892078E+02 -0.34298585204E+01 -0.50264558565E+01  0.98302780543E+02  0.94582670381E+02 0.  0.
         11    1    3    3    0    0 -0.31701023346E+02 -0.95295729812E+01  0.15662357396E+02  0.36620719297E+02  0.51100000000E-03 0.  1.
         22    1    1    0    0    0 -0.26086892078E+02  0.34298585204E+01  0.50264558565E+01  0.26787219457E+02  0.00000000000E+00 0. -1.
</event>
<event>
 5    1  0.1055265E-009  0.9118800E+02  0.7815553E-02  0.1125453E+00
         25   -1    0    0    0    0  0.00000000000E+00  0.00000000000E+00  0.99999998245E-14  0.12509000000E+03  0.12509000000E+03 0.  0.
        -11    1    3    3    0    0 -0.21096339469E+02  0.13188264749E+02  0.23527653172E+02  0.34242317826E+02  0.51100000000E-03 0.  1.
         23    2    1    0    0    0  0.17049515258E+01 -0.28939887007E+02 -0.11828133665E+02  0.93779799335E+02  0.88398654388E+02 0.  0.
         11    1    3    3    0    0  0.22801290994E+02 -0.42128151756E+02 -0.35355786836E+02  0.59537481509E+02  0.51100000000E-03 0. -1.
         22    1    1    0    0    0 -0.17049515258E+01  0.28939887007E+02  0.11828133665E+02  0.31310200665E+02  0.00000000000E+00 0. -1.
</event>
<event>
 5    1  0.1055265E-009  0.9118800E+02  0.7815553E-02  0.1125453E+00
         25   -1    0    0    0    0  0.00000000000E+00  0.00000000000E+00  0.99999998245E-14  0.12509000000E+03  0.12509000000E+03 0.  0.
        -11    1    3    3    0    0 -0.25669703448E+02  0.25128542482E+02  0.14093593655E+02  0.38587649641E+02  0.51100000000E-03 0. -1.
         23    2    1    0    0    0 -0.57483702718E+01 -0.26379129080E+02 -0.61381928304E+01  0.97402825658E+02  0.93384853286E+02 0.  0.
         11    1    3    3    0    0  0.19921333177E+02 -0.51507671562E+02 -0.20231786486E+02  0.58815176018E+02  0.51100000000E-03 0.  1.
         22    1    1    0    0    0  0.57483702718E+01  0.26379129080E+02  0.61381928304E+01  0.27687174342E+02  0.00000000000E+00 0.  1.
</event>
<event>
 5    1  0.1055265E-009  0.9118800E+02  0.7815553E-02  0.1125453E+00
         25   -1    0    0    0    0  0.00000000000E+00  0.00000000000E+00  0.99999998245E-14  0.12509000000E+03  0.12509000000E+03 0.  0.
        -11    1    3    3    0    0 -0.12226052144E+02 -0.44319153837E+02 -0.18083950568E+02  0.49403370495E+02  0.51100000000E-03 0. -1.
         23    2    1    0    0    0  0.22602609278E+02 -0.24656945209E+02 -0.68486351160E+01  0.90946967092E+02  0.84294745548E+02 0.  0.
         11    1    3    3    0    0  0.34828661422E+02  0.19662208628E+02  0.11235315452E+02  0.41543596597E+02  0.51100000000E-03 0.  1.
         22    1    1    0    0    0 -0.22602609278E+02  0.24656945209E+02  0.68486351160E+01  0.34143032908E+02  0.00000000000E+00 0.  1.
</event>
<event>
 4    1  0.1055265E-009  0.9118800E+02  0.7815553E-02  0.1125453E+00
         25   -1    0    0    0    0  0.00000000000E+00  0.00000000000E+00  0.99999998245E-14  0.12509000000E+03  0.12509000000E+03 0.  0.
        -11    1    1    0    0    0 -0.57029876366E+02  0.22414085722E+01  0.23794525007E+02  0.61835346940E+02  0.51100000000E-03 0. -1.
         11    1    1    0    0    0  0.10131535334E+01 -0.29893361779E+00 -0.34794993738E+01  0.36363109801E+01  0.51100000000E-03 0.  1.
         22    1    1    0    0    0  0.56016722832E+02 -0.19424749545E+01 -0.20315025633E+02  0.59618342079E+02  0.00000000000E+00 0. -1.
</event>
<event>
 5    1  0.1055265E-009  0.9118800E+02  0.7815553E-02  0.1125453E+00
         25   -1    0    0    0    0  0.00000000000E+00  0.00000000000E+00  0.99999998245E-14  0.12509000000E+03  0.12509000000E+03 0.  0.
        -11    1    3    3    0    0  0.57996685361E+02 -0.14950672033E+02 -0.93662237737E+01  0.60620658650E+02  0.51100000000E-03 0.  1.
         23    2    1    0    0    0  0.25924368463E+02 -0.10961235185E+02  0.58485751301E+01  0.96342349869E+02  0.91953363126E+02 0.  0.
         11    1    3    3    0    0 -0.32072316898E+02  0.39894368474E+01  0.15214798904E+02  0.35721691219E+02  0.51100000000E-03 0. -1.
         22    1    1    0    0    0 -0.25924368463E+02  0.10961235185E+02 -0.58485751301E+01  0.28747650131E+02  0.00000000000E+00 0.  1.
</event>
<event>
 5    1  0.1055265E-009  0.9118800E+02  0.7815553E-02  0.1125453E+00
         25   -1    0    0    0    0  0.00000000000E+00  0.00000000000E+00  0.99999998245E-14  0.12509000000E+03  0.12509000000E+03 0.  0.
        -11    1    3    3    0    0 -0.24524165221E+02  0.22390498702E+02  0.12065219214E+02  0.35331835883E+02  0.51100000000E-03 0.  1.
         23    2    1    0    0    0 -0.55238661693E+01 -0.22110139106E+02 -0.21130747769E+02  0.94011392405E+02  0.88725768815E+02 0.  0.
         11    1    3    3    0    0  0.19000299052E+02 -0.44500637808E+02 -0.33195966984E+02  0.58679556522E+02  0.51100000000E-03 0. -1.
         22    1    1    0    0    0  0.55238661693E+01  0.22110139106E+02  0.21130747769E+02  0.31078607595E+02  0.00000000000E+00 0. -1.
</event>
<event>
 5    1  0.1055265E-009  0.9118800E+02  0.7815553E-02  0.1125453E+00
         25   -1    0    0    0    0  0.00000000000E+00  0.00000000000E+00  0.99999998245E-14  0.12509000000E+03  0.12509000000E+03 0.  0.
        -11    1    3    3    0    0  0.10841690118E+02 -0.39018296864E+02  0.10461208857E+02  0.41825908547E+02  0.51100000000E-03 0. -1.
         23    2    1    0    0    0  0.22297820803E+02  0.77820066992E+01 -0.15776193222E+02  0.96688579025E+02  0.92423160520E+02 0.  0.
         11    1    3    3    0    0  0.11456130685E+02  0.46800303563E+02 -0.26237402079E+02  0.54862670478E+02  0.51100000000E-03 0.  1.
         22    1    1    0    0    0 -0.22297820803E+02 -0.77820066992E+01  0.15776193222E+02  0.28401420975E+02  0.00000000000E+00 0.  1.
</event>
<event>
 5    1  0.1055265E-009  0.9118800E+02  0.7815553E-02  0.1125453E+00
         25   -1    0    0    0    0  0.00000000000E+00  0.00000000000E+00  0.99999998245E-14  0.12509000000E+03  0.12509000000E+03 0.  0.
        -11    1    3    3    0    0  0.23518074056E+02 -0.93797154470E+01 -0.22971557237E+02  0.34187297514E+02  0.51100000000E-03 0.  1.
         23    2    1    0    0    0 -0.18803547228E+02  0.19069614388E+02  0.11712721128E+02  0.95859683247E+02  0.91294399909E+02 0.  0.
         11    1    3    3    0    0 -0.42321621283E+02  0.28449329835E+02  0.34684278365E+02  0.61672385733E+02  0.51100000000E-03 0. -1.
         22    1    1    0    0    0  0.18803547228E+02 -0.19069614388E+02 -0.11712721128E+02  0.29230316753E+02  0.00000000000E+00 0. -1.
</event>
<event>
 5    1  0.1055265E-009  0.9118800E+02  0.7815553E-02  0.1125453E+00
         25   -1    0    0    0    0  0.00000000000E+00  0.00000000000E+00  0.99999998245E-14  0.12509000000E+03  0.12509000000E+03 0.  0.
        -11    1    3    3    0    0  0.30828609088E+01  0.44306744575E+02 -0.19545623663E+02  0.48524458275E+02  0.51100000000E-03 0. -1.
         23    2    1    0    0    0 -0.94823945140E+01  0.54862546085E+00 -0.28610020948E+02  0.94944517847E+02  0.90031724270E+02 0.  0.
         11    1    3    3    0    0 -0.12565255423E+02 -0.43758119114E+02 -0.90643972849E+01  0.46420059572E+02  0.51100000000E-03 0.  1.
         22    1    1    0    0    0  0.94823945140E+01 -0.54862546085E+00  0.28610020948E+02  0.30145482153E+02  0.00000000000E+00 0.  1.
</event>
<event>
 5    1  0.1055265E-009  0.9118800E+02  0.7815553E-02  0.1125453E+00
         25   -1    0    0    0    0  0.00000000000E+00  0.00000000000E+00  0.99999998245E-14  0.12509000000E+03  0.12509000000E+03 0.  0.
        -11    1    3    3    0    0 -0.23471761232E+02  0.16116581264E+01  0.24924929999E+02  0.34274963938E+02  0.51100000000E-03 0. -1.
         23    2    1    0    0    0  0.23816127048E+01  0.69504855683E+01 -0.29459581398E+02  0.94728045766E+02  0.89730454082E+02 0.  0.
         11    1    3    3    0    0  0.25853373937E+02  0.53388274419E+01 -0.54384511397E+02  0.60453081828E+02  0.51100000000E-03 0.  1.
         22    1    1    0    0    0 -0.23816127048E+01 -0.69504855683E+01  0.29459581398E+02  0.30361954234E+02  0.00000000000E+00 0.  1.
</event>
<event>
 5    1  0.1055265E-009  0.9118800E+02  0.7815553E-02  0.1125453E+00
         25   -1    0    0    0    0  0.00000000000E+00  0.00000000000E+00  0.99999998245E-14  0.12509000000E+03  0.12509000000E+03 0.  0.
        -11    1    3    3    0    0 -0.29037160499E+02 -0.81940069312E+01 -0.47589332832E+02  0.56347520257E+02  0.51100000000E-03 0.  1.
         23    2    1    0    0    0 -0.21269217455E+02 -0.16189982619E+02 -0.84308985391E+01  0.97061885570E+02  0.92927038218E+02 0.  0.
         11    1    3    3    0    0  0.77679430441E+01 -0.79959756877E+01  0.39158434293E+02  0.40714365313E+02  0.51100000000E-03 0. -1.
         22    1    1    0    0    0  0.21269217455E+02  0.16189982619E+02  0.84308985391E+01  0.28028114430E+02  0.00000000000E+00 0.  1.
</event>
<event>
 5    1  0.1055265E-009  0.9118800E+02  0.7815553E-02  0.1125453E+00
         25   -1    0    0    0    0  0.00000000000E+00  0.00000000000E+00  0.99999998245E-14  0.12509000000E+03  0.12509000000E+03 0.  0.
        -11    1    3    3    0    0 -0.34325412109E+02 -0.43645075179E+02  0.25978977047E+02  0.61302803790E+02  0.51100000000E-03 0. -1.
         23    2    1    0    0    0 -0.45212648599E+01 -0.17649733540E+02  0.12113405324E+02  0.10321102565E+03  0.10086538702E+03 0.  0.
         11    1    3    3    0    0  0.29804147249E+02  0.25995341639E+02 -0.13865571724E+02  0.41908221863E+02  0.51100000000E-03 0.  1.
         22    1    1    0    0    0  0.45212648599E+01  0.17649733540E+02 -0.12113405324E+02  0.21878974347E+02  0.00000000000E+00 0. -1.
</event>
<event>
 5    1  0.1055265E-009  0.9118800E+02  0.7815553E-02  0.1125453E+00
         25   -1    0    0    0    0  0.00000000000E+00  0.00000000000E+00  0.99999998245E-14  0.12509000000E+03  0.12509000000E+03 0.  0.
        -11    1    3    3    0    0 -0.25187539240E+02 -0.11365765464E+02 -0.27452885280E+02  0.38951940491E+02  0.51100000000E-03 0.  1.
         23    2    1    0    0    0  0.25827976234E+02 -0.12571976354E+02 -0.11978039950E+01  0.96339805562E+02  0.91949901879E+02 0.  0.
         11    1    3    3    0    0  0.51015515474E+02 -0.12062108897E+01  0.26255081285E+02  0.57387865071E+02  0.51100000000E-03 0. -1.
         22    1    1    0    0    0 -0.25827976234E+02  0.12571976354E+02  0.11978039950E+01  0.28750194438E+02  0.00000000000E+00 0. -1.
</event>
<event>
 5    1  0.1055265E-009  0.9118800E+02  0.7815553E-02  0.1125453E+00
         25   -1    0    0    0    0  0.00000000000E+00  0.00000000000E+00  0.99999998245E-14  0.12509000000E+03  0.12509000000E+03 0.  0.
        -11    1    3    3    0    0  0.49850012160E+01  0.23144877654E+02 -0.27742472645E+02  0.36471638124E+02  0.51100000000E-03 0.  1.
         23    2    1    0    0    0 -0.12478840016E+02 -0.27141378634E+02 -0.33386521860E+01  0.95031349320E+02  0.90152287119E+02 0.  0.
         11    1    3    3    0    0 -0.17463841232E+02 -0.50286256288E+02  0.24403820459E+02  0.58559711196E+02  0.51100000000E-03 0. -1.
         22    1    1    0    0    0  0.12478840016E+02  0.27141378634E+02  0.33386521860E+01  0.30058650680E+02  0.00000000000E+00 0. -1.
</event>
<event>
 5    1  0.1055265E-009  0.9118800E+02  0.7815553E-02  0.1125453E+00
         25   -1    0    0    0    0  0.00000000000E+00  0.00000000000E+00  0.99999998245E-14  0.12509000000E+03  0.12509000000E+03 0.  0.
        -11    1    3    3    0    0  0.21865276434E+02 -0.27252618295E+02 -0.24142657966E+02  0.42469559115E+02  0.51100000000E-03 0.  1.
         23    2    1    0    0    0 -0.18502483228E+01  0.19440562740E+02 -0.23087915566E+02  0.94850774750E+02  0.89901383343E+02 0.  0.
         11    1    3    3    0    0 -0.23715524757E+02  0.46693181035E+02  0.10547423991E+01  0.52381215636E+02  0.51100000000E-03 0. -1.
         22    1    1    0    0    0  0.18502483228E+01 -0.19440562740E+02  0.23087915566E+02  0.30239225250E+02  0.00000000000E+00 0. -1.
</event>
<event>
 5    1  0.1055265E-009  0.9118800E+02  0.7815553E-02  0.1125453E+00
         25   -1    0    0    0    0  0.00000000000E+00  0.00000000000E+00  0.99999998245E-14  0.12509000000E+03  0.12509000000E+03 0.  0.
        -11    1    3    3    0    0  0.15617919081E+02  0.49089017493E+01 -0.32085240548E+02  0.36020541002E+02  0.51100000000E-03 0. -1.
         23    2    1    0    0    0  0.41344815955E+01 -0.18540744705E+01  0.27571965128E+02  0.97148189192E+02  0.93043139844E+02 0.  0.
         11    1    3    3    0    0 -0.11483437485E+02 -0.67629762198E+01  0.59657205676E+02  0.61127648190E+02  0.51100000000E-03 0.  1.
         22    1    1    0    0    0 -0.41344815955E+01  0.18540744705E+01 -0.27571965128E+02  0.27941810808E+02  0.00000000000E+00 0.  1.
</event>
<event>
 5    1  0.1055265E-009  0.9118800E+02  0.7815553E-02  0.1125453E+00
         25   -1    0    0    0    0  0.00000000000E+00  0.00000000000E+00  0.99999998245E-14  0.12509000000E+03  0.12509000000E+03 0.  0.
        -11    1    3    3    0    0  0.22398968447E+02  0.38873055518E+02  0.39321295721E+02  0.59657292348E+02  0.51100000000E-03 0.  1.
         23    2    1    0    0    0  0.74931531715E+01  0.79140122615E+01  0.26680728505E+02  0.96269170587E+02  0.91853758755E+02 0.  0.
         11    1    3    3    0    0 -0.14905815275E+02 -0.30959043256E+02 -0.12640567217E+02  0.36611878239E+02  0.51100000000E-03 0. -1.
         22    1    1    0    0    0 -0.74931531715E+01 -0.79140122615E+01 -0.26680728505E+02  0.28820829413E+02  0.00000000000E+00 0.  1.
</event>
<event>
 5    1  0.1055265E-009  0.9118800E+02  0.7815553E-02  0.1125453E+00
         25   -1    0    0    0    0  0.00000000000E+00  0.00000000000E+00  0.99999998245E-14  0.12509000000E+03  0.12509000000E+03 0.  0.
        -11    1    3    3    0    0  0.45014323154E+02  0.15922043634E+02 -0.23423107105E+02  0.53183105487E+02  0.51100000000E-03 0.  1.
         23    2    1    0    0    0  0.96123448243E+01 -0.77926876952E+01 -0.26436847512E+02  0.95900446031E+02  0.91350235293E+02 0.  0.
         11    1    3    3    0    0 -0.35401978330E+02 -0.23714731329E+02 -0.30137404071E+01  0.42717340544E+02  0.51100000000E-03 0. -1.
         22    1    1    0    0    0 -0.96123448243E+01  0.77926876952E+01  0.26436847512E+02  0.29189553969E+02  0.00000000000E+00 0. -1.
</event>
<event>
 5    1  0.1055265E-009  0.9118800E+02  0.7815553E-02  0.1125453E+00
         25   -1    0    0    0    0  0.00000000000E+00  0.00000000000E+00  0.99999998245E-14  0.12509000000E+03  0.12509000000E+03 0.  0.
        -11    1    3    3    0    0 -0.31949127886E+02 -0.33720510796E+02 -0.13906261327E+02  0.48489212464E+02  0.51100000000E-03 0.  1.
         23    2    1    0    0    0 -0.17959805989E+02  0.68689832814E-01  0.19894574054E+02  0.98287883922E+02  0.94562966851E+02 0.  0.
         11    1    3    3    0    0  0.13989321897E+02  0.33789200629E+02  0.33800835381E+02  0.49798671458E+02  0.51100000000E-03 0. -1.
         22    1    1    0    0    0  0.17959805989E+02 -0.68689832814E-01 -0.19894574054E+02  0.26802116078E+02  0.00000000000E+00 0. -1.
</event>
<event>
 5    1  0.1055265E-009  0.9118800E+02  0.7815553E-02  0.1125453E+00
         25   -1    0    0    0    0  0.00000000000E+00  0.00000000000E+00  0.99999998245E-14  0.12509000000E+03  0.12509000000E+03 0.  0.
        -11    1    3    3    0    0  0.36476229034E+02  0.10858996031E+02  0.31499031774E+02  0.49402652583E+02  0.51100000000E-03 0. -1.
         23    2    1    0    0    0  0.25921001481E+02  0.40598482072E+01 -0.13120640835E+02  0.95755175965E+02  0.91151093372E+02 0.  0.
         11    1    3    3    0    0 -0.10555227553E+02 -0.67991478240E+01 -0.44619672609E+02  0.46352523381E+02  0.51100000000E-03 0.  1.
         22    1    1    0    0    0 -0.25921001481E+02 -0.40598482072E+01  0.13120640835E+02  0.29334824035E+02  0.00000000000E+00 0. -1.
</event>
<event>
 5    1  0.1055265E-009  0.9118800E+02  0.7815553E-02  0.1125453E+00
         25   -1    0    0    0    0  0.00000000000E+00  0.00000000000E+00  0.99999998245E-14  0.12509000000E+03  0.12509000000E+03 0.  0.
        -11    1    3    3    0    0 -0.43964117841E+02  0.39064747126E+02 -0.11644147391E+02  0.59954018166E+02  0.51100000000E-03 0. -1.
         23    2    1    0    0    0 -0.20070375191E+02  0.19432663061E+02  0.72943546689E+01  0.96216898954E+02  0.91782545619E+02 0.  0.
         11    1    3    3    0    0  0.23893742649E+02 -0.19632084065E+02  0.18938502060E+02  0.36262880788E+02  0.51100000000E-03 0.  1.
         22    1    1    0    0    0  0.20070375191E+02 -0.19432663061E+02 -0.72943546689E+01  0.28873101046E+02  0.00000000000E+00 0. -1.
</event>
<event>
 5    1  0.1055265E-009  0.9118800E+02  0.7815553E-02  0.1125453E+00
         25   -1    0    0    0    0  0.00000000000E+00  0.00000000000E+00  0.99999998245E-14  0.12509000000E+03  0.12509000000E+03 0.  0.
        -11    1    3    3    0    0 -0.26541426982E+02 -0.42306622121E+02 -0.31796704759E+02  0.59205810993E+02  0.51100000000E-03 0.  1.
         23    2    1    0    0    0 -0.81620745438E+01 -0.25842292765E+02 -0.19678400973E+01  0.97918030052E+02  0.94072443672E+02 0.  0.
         11    1    3    3    0    0  0.18379352438E+02  0.16464329356E+02  0.29828864662E+02  0.38712219059E+02  0.51100000000E-03 0. -1.
         22    1    1    0    0    0  0.81620745438E+01  0.25842292765E+02  0.19678400973E+01  0.27171969948E+02  0.00000000000E+00 0.  1.
</event>
<event>
 5    1  0.1055265E-009  0.9118800E+02  0.7815553E-02  0.1125453E+00
         25   -1    0    0    0    0  0.00000000000E+00  0.00000000000E+00  0.99999998245E-14  0.12509000000E+03  0.12509000000E+03 0.  0.
        -11    1    3    3    0    0 -0.29255387696E+02  0.14463638516E+02 -0.27363690780E+02  0.42589272379E+02  0.51100000000E-03 0.  1.
         23    2    1    0    0    0  0.14999365974E+02  0.21638603607E+02  0.55199394644E+01  0.98188701196E+02  0.94431674586E+02 0.  0.
         11    1    3    3    0    0  0.44254753670E+02  0.71749650911E+01  0.32883630245E+02  0.55599428817E+02  0.51100000000E-03 0. -1.
         22    1    1    0    0    0 -0.14999365974E+02 -0.21638603607E+02 -0.55199394644E+01  0.26901298804E+02  0.00000000000E+00 0. -1.
</event>
<event>
 5    1  0.1055265E-009  0.9118800E+02  0.7815553E-02  0.1125453E+00
         25   -1    0    0    0    0  0.00000000000E+00  0.00000000000E+00  0.99999998245E-14  0.12509000000E+03  0.12509000000E+03 0.  0.
        -11    1    3    3    0    0 -0.94976783089E+01 -0.40597242791E+02 -0.22515036574E+02  0.47384268356E+02  0.51100000000E-03 0.  1.
         23    2    1    0    0    0 -0.29035306686E+02 -0.28363503811E+01  0.86302209913E+00  0.95903723688E+02  0.91354723426E+02 0.  0.
         11    1    3    3    0    0 -0.19537628377E+02  0.37760892410E+02  0.23378058673E+02  0.48519455332E+02  0.51100000000E-03 0. -1.
         22    1    1    0    0    0  0.29035306686E+02  0.28363503811E+01 -0.86302209913E+00  0.29186276312E+02  0.00000000000E+00 0.  1.
</event>
<event>
 5    1  0.1055265E-009  0.9118800E+02  0.7815553E-02  0.1125453E+00
         25   -1    0    0    0    0  0.00000000000E+00  0.00000000000E+00  0.99999998245E-14  0.12509000000E+03  0.12509000000E+03 0.  0.
        -11    1    3    3    0    0 -0.53942017855E+01  0.36497469418E+02 -0.41444360734E+02  0.55486914887E+02  0.51100000000E-03 0.  1.
         23    2    1    0    0    0 -0.21471088150E+02  0.17343545049E+02 -0.98408592241E+01  0.95787292079E+02  0.91195156847E+02 0.  0.
         11    1    3    3    0    0 -0.16076886365E+02 -0.19153924368E+02  0.31603501510E+02  0.40300377192E+02  0.51100000000E-03 0. -1.
         22    1    1    0    0    0  0.21471088150E+02 -0.17343545049E+02  0.98408592241E+01  0.29302707921E+02  0.00000000000E+00 0. -1.
</event>
<event>
 5    1  0.1055265E-009  0.9118800E+02  0.7815553E-02  0.1125453E+00
         25   -1    0    0    0    0  0.00000000000E+00  0.00000000000E+00  0.99999998245E-14  0.12509000000E+03  0.12509000000E+03 0.  0.
        -11    1    3    3    0    0  0.43605881534E+01  0.39704250980E+02 -0.24182281578E+02  0.46692879730E+02  0.51100000000E-03 0.  1.
         23    2    1    0    0    0  0.28538425305E+02  0.59773047997E+00 -0.78358246301E+01  0.95489338720E+02  0.90785542136E+02 0.  0.
         11    1    3    3    0    0  0.24177837151E+02 -0.39106520500E+02  0.16346456948E+02  0.48796458990E+02  0.51100000000E-03 0. -1.
         22    1    1    0    0    0 -0.28538425305E+02 -0.59773047997E+00  0.78358246301E+01  0.29600661280E+02  0.00000000000E+00 0. -1.
</event>
<event>
 5    1  0.1055265E-009  0.9118800E+02  0.7815553E-02  0.1125453E+00
         25   -1    0    0    0    0  0.00000000000E+00  0.00000000000E+00  0.99999998245E-14  0.12509000000E+03  0.12509000000E+03 0.  0.
        -11    1    3    3    0    0 -0.47836159493E+02  0.25845150433E+02 -0.29401333621E+02  0.61811878914E+02  0.51100000000E-03 0.  1.
         23    2    1    0    0    0 -0.21158955005E+02  0.17695419326E+02 -0.10176067905E+02  0.95689632655E+02  0.91061101451E+02 0.  0.
         11    1    3    3    0    0  0.26677204488E+02 -0.81497311066E+01  0.19225265716E+02  0.33877753741E+02  0.51100000000E-03 0. -1.
         22    1    1    0    0    0  0.21158955005E+02 -0.17695419326E+02  0.10176067905E+02  0.29400367345E+02  0.00000000000E+00 0.  1.
</event>
<event>
 5    1  0.1055265E-009  0.9118800E+02  0.7815553E-02  0.1125453E+00
         25   -1    0    0    0    0  0.00000000000E+00  0.00000000000E+00  0.99999998245E-14  0.12509000000E+03  0.12509000000E+03 0.  0.
        -11    1    3    3    0    0  0.38402413740E+02 -0.34321561553E+02 -0.32895035904E+02  0.61112996620E+02  0.51100000000E-03 0. -1.
         23    2    1    0    0    0  0.23112061695E+02 -0.15681700208E+02 -0.74119593930E+01  0.96193282899E+02  0.91750353763E+02 0.  0.
         11    1    3    3    0    0 -0.15290352046E+02  0.18639861345E+02  0.25483076511E+02  0.35080286278E+02  0.51100000000E-03 0.  1.
         22    1    1    0    0    0 -0.23112061695E+02  0.15681700208E+02  0.74119593930E+01  0.28896717101E+02  0.00000000000E+00 0. -1.
</event>
<event>
 5    1  0.1055265E-009  0.9118800E+02  0.7815553E-02  0.1125453E+00
         25   -1    0    0    0    0  0.00000000000E+00  0.00000000000E+00  0.99999998245E-14  0.12509000000E+03  0.12509000000E+03 0.  0.
        -11    1    3    3    0    0  0.36142685275E+02  0.22974377828E+02 -0.36174804813E+02  0.56060077051E+02  0.51100000000E-03 0.  1.
         23    2    1    0    0    0  0.10693542325E+02 -0.64995345976E+01 -0.25887474022E+02  0.96336615700E+02  0.91945562241E+02 0.  0.
         11    1    3    3    0    0 -0.25449142949E+02 -0.29473912425E+02  0.10287330791E+02  0.40276538649E+02  0.51100000000E-03 0. -1.
         22    1    1    0    0    0 -0.10693542325E+02  0.64995345976E+01  0.25887474022E+02  0.28753384300E+02  0.00000000000E+00 0.  1.
</event>
<event>
 5    1  0.1055265E-009  0.9118800E+02  0.7815553E-02  0.1125453E+00
         25   -1    0    0    0    0  0.00000000000E+00  0.00000000000E+00  0.99999998245E-14  0.12509000000E+03  0.12509000000E+03 0.  0.
        -11    1    3    3    0    0 -0.31222691542E+02  0.21977316362E+01  0.41923556850E+02  0.52318936445E+02  0.51100000000E-03 0. -1.
         23    2    1    0    0    0 -0.15302865741E+02  0.23877066282E+02  0.79770743017E+01  0.95629421110E+02  0.90978351674E+02 0.  0.
         11    1    3    3    0    0  0.15919825802E+02  0.21679334646E+02 -0.33946482549E+02  0.43310484665E+02  0.51100000000E-03 0.  1.
         22    1    1    0    0    0  0.15302865741E+02 -0.23877066282E+02 -0.79770743017E+01  0.29460578890E+02  0.00000000000E+00 0. -1.
</event>
<event>
 5    1  0.1055265E-009  0.9118800E+02  0.7815553E-02  0.1125453E+00
         25   -1    0    0    0    0  0.00000000000E+00  0.00000000000E+00  0.99999998245E-14  0.12509000000E+03  0.12509000000E+03 0.  0.
        -11    1    3    3    0    0  0.30005123338E+02  0.43466392906E+02  0.31034542263E+02  0.61259917993E+02  0.51100000000E-03 0.  1.
         23    2    1    0    0    0  0.21194475168E+02  0.18888648511E+02  0.93491006448E+01  0.95200327819E+02  0.90386447622E+02 0.  0.
         11    1    3    3    0    0 -0.88106481702E+01 -0.24577744395E+02 -0.21685441618E+02  0.33940409826E+02  0.51100000000E-03 0. -1.
         22    1    1    0    0    0 -0.21194475168E+02 -0.18888648511E+02 -0.93491006448E+01  0.29889672181E+02  0.00000000000E+00 0.  1.
</event>
<event>
 5    1  0.1055265E-009  0.9118800E+02  0.7815553E-02  0.1125453E+00
         25   -1    0    0    0    0  0.00000000000E+00  0.00000000000E+00  0.99999998245E-14  0.12509000000E+03  0.12509000000E+03 0.  0.
        -11    1    3    3    0    0 -0.22144377766E+02 -0.45429504896E+02  0.35393146775E+02  0.61699985580E+02  0.51100000000E-03 0.  1.
         23    2    1    0    0    0 -0.74554182234E+01 -0.18066964083E+02  0.22393132185E+02  0.95367099383E+02  0.90616956601E+02 0.  0.
         11    1    3    3    0    0  0.14688959543E+02  0.27362540813E+02 -0.13000014590E+02  0.33667113802E+02  0.51100000000E-03 0. -1.
         22    1    1    0    0    0  0.74554182234E+01  0.18066964083E+02 -0.22393132185E+02  0.29722900617E+02  0.00000000000E+00 0.  1.
</event>
<event>
 5    1  0.1055265E-009  0.9118800E+02  0.7815553E-02  0.1125453E+00
         25   -1    0    0    0    0  0.00000000000E+00  0.00000000000E+00  0.99999998245E-14  0.12509000000E+03  0.12509000000E+03 0.  0.
        -11    1    3    3    0    0 -0.84616034846E+01  0.98541652883E+01  0.57457093499E+02  0.58906883305E+02  0.51100000000E-03 0.  1.
         23    2    1    0    0    0 -0.11387494628E+02  0.16761374742E+02  0.21872749991E+02  0.95273294794E+02  0.90487373658E+02 0.  0.
         11    1    3    3    0    0 -0.29258911439E+01  0.69072094538E+01 -0.35584343508E+02  0.36366411489E+02  0.51100000000E-03 0. -1.
         22    1    1    0    0    0  0.11387494628E+02 -0.16761374742E+02 -0.21872749991E+02  0.29816705206E+02  0.00000000000E+00 0.  1.
</event>
<event>
 5    1  0.1055265E-009  0.9118800E+02  0.7815553E-02  0.1125453E+00
         25   -1    0    0    0    0  0.00000000000E+00  0.00000000000E+00  0.99999998245E-14  0.12509000000E+03  0.12509000000E+03 0.  0.
        -11    1    3    3    0    0 -0.38234354228E+01 -0.17236516153E+02 -0.51480150561E+02  0.54423543155E+02  0.51100000000E-03 0. -1.
         23    2    1    0    0    0 -0.14511280182E+02  0.10932619876E+02 -0.21733132367E+02  0.96762831551E+02  0.92523602921E+02 0.  0.
         11    1    3    3    0    0 -0.10687844759E+02  0.28169136029E+02  0.29747018194E+02  0.42339288396E+02  0.51100000000E-03 0.  1.
         22    1    1    0    0    0  0.14511280182E+02 -0.10932619876E+02  0.21733132367E+02  0.28327168449E+02  0.00000000000E+00 0. -1.
</event>
<event>
 5    1  0.1055265E-009  0.9118800E+02  0.7815553E-02  0.1125453E+00
         25   -1    0    0    0    0  0.00000000000E+00  0.00000000000E+00  0.99999998245E-14  0.12509000000E+03  0.12509000000E+03 0.  0.
        -11    1    3    3    0    0  0.28752781898E+02  0.29075401882E+02 -0.22616166487E+02  0.46728925178E+02  0.51100000000E-03 0.  1.
         23    2    1    0    0    0  0.25381358909E+01  0.21822049445E+02  0.18730521023E+02  0.96220008771E+02  0.91786783875E+02 0.  0.
         11    1    3    3    0    0 -0.26214646007E+02 -0.72533524365E+01  0.41346687510E+02  0.49491083592E+02  0.51100000000E-03 0. -1.
         22    1    1    0    0    0 -0.25381358909E+01 -0.21822049445E+02 -0.18730521023E+02  0.28869991229E+02  0.00000000000E+00 0. -1.
</event>
<event>
 5    1  0.1055265E-009  0.9118800E+02  0.7815553E-02  0.1125453E+00
         25   -1    0    0    0    0  0.00000000000E+00  0.00000000000E+00  0.99999998245E-14  0.12509000000E+03  0.12509000000E+03 0.  0.
        -11    1    3    3    0    0  0.18567722645E+02 -0.35997854035E+02  0.48397737535E+01  0.40792514382E+02  0.51100000000E-03 0.  1.
         23    2    1    0    0    0  0.87679613005E+01  0.16417201992E+02  0.21495580829E+02  0.96656539750E+02  0.92379786829E+02 0.  0.
         11    1    3    3    0    0 -0.97997613442E+01  0.52415056027E+02  0.16655807075E+02  0.55864025368E+02  0.51100000000E-03 0. -1.
         22    1    1    0    0    0 -0.87679613005E+01 -0.16417201992E+02 -0.21495580829E+02  0.28433460250E+02  0.00000000000E+00 0.  1.
</event>
<event>
 5    1  0.1055265E-009  0.9118800E+02  0.7815553E-02  0.1125453E+00
         25   -1    0    0    0    0  0.00000000000E+00  0.00000000000E+00  0.99999998245E-14  0.12509000000E+03  0.12509000000E+03 0.  0.
        -11    1    3    3    0    0  0.28957715568E+02 -0.12130889944E+02 -0.12643915075E+02  0.33846364213E+02  0.51100000000E-03 0. -1.
         23    2    1    0    0    0 -0.22172827008E+02  0.19842248008E+02 -0.67194009203E+00  0.95327598097E+02  0.90562411584E+02 0.  0.
         11    1    3    3    0    0 -0.51130542576E+02  0.31973137952E+02  0.11971974983E+02  0.61481233884E+02  0.51100000000E-03 0.  1.
         22    1    1    0    0    0  0.22172827008E+02 -0.19842248008E+02  0.67194009203E+00  0.29762401903E+02  0.00000000000E+00 0.  1.
</event>
<event>
 5    1  0.1055265E-009  0.9118800E+02  0.7815553E-02  0.1125453E+00
         25   -1    0    0    0    0  0.00000000000E+00  0.00000000000E+00  0.99999998245E-14  0.12509000000E+03  0.12509000000E+03 0.  0.
        -11    1    3    3    0    0  0.28903663173E+02  0.24883009470E+02  0.40837959008E+02  0.55877766610E+02  0.51100000000E-03 0.  1.
         23    2    1    0    0    0  0.22381120826E+02  0.18555259571E+02  0.17974941472E+01  0.95961951449E+02  0.91434418648E+02 0.  0.
         11    1    3    3    0    0 -0.65225423465E+01 -0.63277498999E+01 -0.39040464861E+02  0.40084184840E+02  0.51100000000E-03 0. -1.
         22    1    1    0    0    0 -0.22381120826E+02 -0.18555259571E+02 -0.17974941472E+01  0.29128048551E+02  0.00000000000E+00 0. -1.
</event>
<event>
 5    1  0.1055265E-009  0.9118800E+02  0.7815553E-02  0.1125453E+00
         25   -1    0    0    0    0  0.00000000000E+00  0.00000000000E+00  0.99999998245E-14  0.12509000000E+03  0.12509000000E+03 0.  0.
        -11    1    3    3    0    0  0.21156221687E+01  0.27919913513E+02 -0.21543953535E+02  0.35329015864E+02  0.51100000000E-03 0. -1.
         23    2    1    0    0    0 -0.60653777802E+01 -0.17022141356E+02  0.20744399435E+02  0.97578689383E+02  0.93620128230E+02 0.  0.
         11    1    3    3    0    0 -0.81809999489E+01 -0.44942054869E+02  0.42288352970E+02  0.62249673519E+02  0.51100000000E-03 0.  1.
         22    1    1    0    0    0  0.60653777802E+01  0.17022141356E+02 -0.20744399435E+02  0.27511310617E+02  0.00000000000E+00 0.  1.
</event>
<event>
 5    1  0.1055265E-009  0.9118800E+02  0.7815553E-02  0.1125453E+00
         25   -1    0    0    0    0  0.00000000000E+00  0.00000000000E+00  0.99999998245E-14  0.12509000000E+03  0.12509000000E+03 0.  0.
        -11    1    3    3    0    0 -0.91552460498E+01 -0.35360321737E+02  0.17945858755E+02  0.40696741028E+02  0.51100000000E-03 0.  1.
         23    2    1    0    0    0  0.95995039376E+00 -0.83319785020E+01 -0.28501817270E+02  0.95379783606E+02  0.90634464540E+02 0.  0.
         11    1    3    3    0    0  0.10115196444E+02  0.27028343235E+02 -0.46447676025E+02  0.54683042577E+02  0.51100000000E-03 0. -1.
         22    1    1    0    0    0 -0.95995039376E+00  0.83319785020E+01  0.28501817270E+02  0.29710216394E+02  0.00000000000E+00 0. -1.
</event>
<event>
 5    1  0.1055265E-009  0.9118800E+02  0.7815553E-02  0.1125453E+00
         25   -1    0    0    0    0  0.00000000000E+00  0.00000000000E+00  0.99999998245E-14  0.12509000000E+03  0.12509000000E+03 0.  0.
        -11    1    3    3    0    0  0.21085186133E+02  0.15176098126E+02 -0.21529433915E+02  0.33740414246E+02  0.51100000000E-03 0. -1.
         23    2    1    0    0    0  0.12899085783E+01 -0.10729751205E+02  0.29149955134E+02  0.94001234998E+02  0.88711447242E+02 0.  0.
         11    1    3    3    0    0 -0.19795277554E+02 -0.25905849331E+02  0.50679389049E+02  0.60260820751E+02  0.51100000000E-03 0.  1.
         22    1    1    0    0    0 -0.12899085783E+01  0.10729751205E+02 -0.29149955134E+02  0.31088765002E+02  0.00000000000E+00 0.  1.
</event>
<event>
 5    1  0.1055265E-009  0.9118800E+02  0.7815553E-02  0.1125453E+00
         25   -1    0    0    0    0  0.00000000000E+00  0.00000000000E+00  0.99999998245E-14  0.12509000000E+03  0.12509000000E+03 0.  0.
        -11    1    3    3    0    0 -0.20379582290E+02 -0.97728703275E+01  0.49245398785E+02  0.54184367400E+02  0.51100000000E-03 0. -1.
         23    2    1    0    0    0 -0.17557423701E+02  0.16095197713E+02  0.16026652876E+02  0.96381601946E+02  0.92006744724E+02 0.  0.
         11    1    3    3    0    0  0.28221585886E+01  0.25868068040E+02 -0.33218745909E+02  0.42197234546E+02  0.51100000000E-03 0.  1.
         22    1    1    0    0    0  0.17557423701E+02 -0.16095197713E+02 -0.16026652876E+02  0.28708398054E+02  0.00000000000E+00 0. -1.
</event>
<event>
 5    1  0.1055265E-009  0.9118800E+02  0.7815553E-02  0.1125453E+00
         25   -1    0    0    0    0  0.00000000000E+00  0.00000000000E+00  0.99999998245E-14  0.12509000000E+03  0.12509000000E+03 0.  0.
        -11    1    3    3    0    0  0.18426308797E+02 -0.62724211387E+01 -0.53457634342E+02  0.56891043166E+02  0.51100000000E-03 0.  1.
         23    2    1    0    0    0 -0.10378522009E+02 -0.32271150180E+01 -0.26449517558E+02  0.96494458923E+02  0.92160054435E+02 0.  0.
         11    1    3    3    0    0 -0.28804830806E+02  0.30453061207E+01  0.27008116784E+02  0.39603415757E+02  0.51100000000E-03 0. -1.
         22    1    1    0    0    0  0.10378522009E+02  0.32271150180E+01  0.26449517558E+02  0.28595541077E+02  0.00000000000E+00 0.  1.
</event>
<event>
 5    1  0.1055265E-009  0.9118800E+02  0.7815553E-02  0.1125453E+00
         25   -1    0    0    0    0  0.00000000000E+00  0.00000000000E+00  0.99999998245E-14  0.12509000000E+03  0.12509000000E+03 0.  0.
        -11    1    3    3    0    0 -0.32271193090E+02 -0.77849143280E+01  0.68451263606E+01  0.33895288016E+02  0.51100000000E-03 0.  1.
         23    2    1    0    0    0  0.64680550146E+01  0.23540188135E+02 -0.22647494115E+02  0.91790072330E+02  0.85536730096E+02 0.  0.
         11    1    3    3    0    0  0.38739248104E+02  0.31325102463E+02 -0.29492620476E+02  0.57894784314E+02  0.51100000000E-03 0. -1.
         22    1    1    0    0    0 -0.64680550146E+01 -0.23540188135E+02  0.22647494115E+02  0.33299927670E+02  0.00000000000E+00 0. -1.
</event>
<event>
 5    1  0.1055265E-009  0.9118800E+02  0.7815553E-02  0.1125453E+00
         25   -1    0    0    0    0  0.00000000000E+00  0.00000000000E+00  0.99999998245E-14  0.12509000000E+03  0.12509000000E+03 0.  0.
        -11    1    3    3    0    0 -0.27116037835E+02 -0.53519363840E+02  0.81559377261E+01  0.60548502328E+02  0.51100000000E-03 0. -1.
         23    2    1    0    0    0 -0.26367260735E+02 -0.32375521727E+02 -0.30520006240E+00  0.83334760893E+02  0.72119223375E+02 0.  0.
         11    1    3    3    0    0  0.74877709945E+00  0.21143842113E+02 -0.84611377885E+01  0.22786258565E+02  0.51100000000E-03 0.  1.
         22    1    1    0    0    0  0.26367260735E+02  0.32375521727E+02  0.30520006240E+00  0.41755239107E+02  0.00000000000E+00 0. -1.
</event>
<event>
 5    1  0.1055265E-009  0.9118800E+02  0.7815553E-02  0.1125453E+00
         25   -1    0    0    0    0  0.00000000000E+00  0.00000000000E+00  0.99999998245E-14  0.12509000000E+03  0.12509000000E+03 0.  0.
        -11    1    3    3    0    0  0.26419199053E+02  0.12987058574E+02 -0.51245151939E+02  0.59099097849E+02  0.51100000000E-03 0. -1.
         23    2    1    0    0    0 -0.15108704179E+00  0.12787815799E+02 -0.27614622361E+02  0.94657806054E+02  0.89632481939E+02 0.  0.
         11    1    3    3    0    0 -0.26570286094E+02 -0.19924277513E+00  0.23630529578E+02  0.35558708205E+02  0.51100000000E-03 0.  1.
         22    1    1    0    0    0  0.15108704179E+00 -0.12787815799E+02  0.27614622361E+02  0.30432193946E+02  0.00000000000E+00 0. -1.
</event>
<event>
 5    1  0.1055265E-009  0.9118800E+02  0.7815553E-02  0.1125453E+00
         25   -1    0    0    0    0  0.00000000000E+00  0.00000000000E+00  0.99999998245E-14  0.12509000000E+03  0.12509000000E+03 0.  0.
        -11    1    3    3    0    0 -0.36092720205E+02 -0.31926114181E+02  0.32595966827E+02  0.58176097085E+02  0.51100000000E-03 0.  1.
         23    2    1    0    0    0 -0.52875097491E+01 -0.26567986131E+02  0.16890819949E+02  0.93166412404E+02  0.87526367201E+02 0.  0.
         11    1    3    3    0    0  0.30805210456E+02  0.53581280494E+01 -0.15705146878E+02  0.34990315319E+02  0.51100000000E-03 0. -1.
         22    1    1    0    0    0  0.52875097491E+01  0.26567986131E+02 -0.16890819949E+02  0.31923587596E+02  0.00000000000E+00 0.  1.
</event>
<event>
 5    1  0.1055265E-009  0.9118800E+02  0.7815553E-02  0.1125453E+00
         25   -1    0    0    0    0  0.00000000000E+00  0.00000000000E+00  0.99999998245E-14  0.12509000000E+03  0.12509000000E+03 0.  0.
        -11    1    3    3    0    0 -0.11567794975E+02  0.46311354277E+02  0.57927782497E+01  0.48084422588E+02  0.51100000000E-03 0.  1.
         23    2    1    0    0    0  0.43353632488E+01  0.46043762241E+01  0.26897926068E+02  0.97458603335E+02  0.93459538210E+02 0.  0.
         11    1    3    3    0    0  0.15903158223E+02 -0.41706978053E+02  0.21105147818E+02  0.49374180747E+02  0.51100000000E-03 0. -1.
         22    1    1    0    0    0 -0.43353632488E+01 -0.46043762241E+01 -0.26897926068E+02  0.27631396665E+02  0.00000000000E+00 0. -1.
</event>
<event>
 5    1  0.1055265E-009  0.9118800E+02  0.7815553E-02  0.1125453E+00
         25   -1    0    0    0    0  0.00000000000E+00  0.00000000000E+00  0.99999998245E-14  0.12509000000E+03  0.12509000000E+03 0.  0.
        -11    1    3    3    0    0  0.21649623709E+02  0.36537827503E+02 -0.10727405285E+02  0.43804066818E+02  0.51100000000E-03 0.  1.
         23    2    1    0    0    0  0.25873302196E+02 -0.14282682150E+02 -0.29508410877E+01  0.95389322582E+02  0.90647628891E+02 0.  0.
         11    1    3    3    0    0  0.42236784878E+01 -0.50820509653E+02  0.77765641977E+01  0.51585255765E+02  0.51100000000E-03 0. -1.
         22    1    1    0    0    0 -0.25873302196E+02  0.14282682150E+02  0.29508410877E+01  0.29700677418E+02  0.00000000000E+00 0. -1.
</event>
<event>
 5    1  0.1055265E-009  0.9118800E+02  0.7815553E-02  0.1125453E+00
         25   -1    0    0    0    0  0.00000000000E+00  0.00000000000E+00  0.99999998245E-14  0.12509000000E+03  0.12509000000E+03 0.  0.
        -11    1    3    3    0    0 -0.40745311246E+01 -0.52715484632E+02  0.24731753767E+02  0.58371086751E+02  0.51100000000E-03 0. -1.
         23    2    1    0    0    0  0.11372190218E+02 -0.26187067678E+02  0.21900180894E+01  0.96456358891E+02  0.92108326265E+02 0.  0.
         11    1    3    3    0    0  0.15446721343E+02  0.26528416954E+02 -0.22541735678E+02  0.38085272140E+02  0.51100000000E-03 0.  1.
         22    1    1    0    0    0 -0.11372190218E+02  0.26187067678E+02 -0.21900180894E+01  0.28633641109E+02  0.00000000000E+00 0. -1.
</event>
<event>
 5    1  0.1055265E-009  0.9118800E+02  0.7815553E-02  0.1125453E+00
         25   -1    0    0    0    0  0.00000000000E+00  0.00000000000E+00  0.99999998245E-14  0.12509000000E+03  0.12509000000E+03 0.  0.
        -11    1    3    3    0    0 -0.27560049349E+02 -0.14021825369E+02 -0.13067104553E+02  0.33569586361E+02  0.51100000000E-03 0.  1.
         23    2    1    0    0    0  0.24818481259E+02  0.16183403228E+02  0.14925021353E+00  0.95460929349E+02  0.90746389485E+02 0.  0.
         11    1    3    3    0    0  0.52378530608E+02  0.30205228596E+02  0.13216354767E+02  0.61891342988E+02  0.51100000000E-03 0. -1.
         22    1    1    0    0    0 -0.24818481259E+02 -0.16183403228E+02 -0.14925021353E+00  0.29629070651E+02  0.00000000000E+00 0. -1.
</event>
<event>
 5    1  0.1055265E-009  0.9118800E+02  0.7815553E-02  0.1125453E+00
         25   -1    0    0    0    0  0.00000000000E+00  0.00000000000E+00  0.99999998245E-14  0.12509000000E+03  0.12509000000E+03 0.  0.
        -11    1    3    3    0    0  0.99807382152E+01  0.10400597151E+02 -0.54814950067E+02  0.56678623021E+02  0.51100000000E-03 0. -1.
         23    2    1    0    0    0 -0.13475698232E+02 -0.40262694346E+00 -0.28571193689E+02  0.93497759495E+02  0.87998644140E+02 0.  0.
         11    1    3    3    0    0 -0.23456436448E+02 -0.10803224094E+02  0.26243756378E+02  0.36819136474E+02  0.51100000000E-03 0.  1.
         22    1    1    0    0    0  0.13475698232E+02  0.40262694346E+00  0.28571193689E+02  0.31592240505E+02  0.00000000000E+00 0. -1.
</event>
<event>
 5    1  0.1055265E-009  0.9118800E+02  0.7815553E-02  0.1125453E+00
         25   -1    0    0    0    0  0.00000000000E+00  0.00000000000E+00  0.99999998245E-14  0.12509000000E+03  0.12509000000E+03 0.  0.
        -11    1    3    3    0    0  0.25292212056E+02  0.36632007587E+01  0.34144644862E+02  0.42649405664E+02  0.51100000000E-03 0. -1.
         23    2    1    0    0    0 -0.14638733861E+02 -0.22406027154E+02  0.17285449214E+02  0.93229219463E+02  0.87616083142E+02 0.  0.
         11    1    3    3    0    0 -0.39930945917E+02 -0.26069227913E+02 -0.16859195648E+02  0.50579813799E+02  0.51100000000E-03 0.  1.
         22    1    1    0    0    0  0.14638733861E+02  0.22406027154E+02 -0.17285449214E+02  0.31860780537E+02  0.00000000000E+00 0.  1.
</event>
<event>
 5    1  0.1055265E-009  0.9118800E+02  0.7815553E-02  0.1125453E+00
         25   -1    0    0    0    0  0.00000000000E+00  0.00000000000E+00  0.99999998245E-14  0.12509000000E+03  0.12509000000E+03 0.  0.
        -11    1    3    3    0    0  0.15662008340E+02  0.49064228224E+02 -0.32637610344E+02  0.60973851819E+02  0.51100000000E-03 0. -1.
         23    2    1    0    0    0  0.15702573509E+02  0.18209338450E+02 -0.11070406492E+02  0.98619172256E+02  0.95000191657E+02 0.  0.
         11    1    3    3    0    0  0.40565168554E-01 -0.30854889774E+02  0.21567203852E+02  0.37645320436E+02  0.51100000000E-03 0.  1.
         22    1    1    0    0    0 -0.15702573509E+02 -0.18209338450E+02  0.11070406492E+02  0.26470827744E+02  0.00000000000E+00 0. -1.
</event>
<event>
 5    1  0.1055265E-009  0.9118800E+02  0.7815553E-02  0.1125453E+00
         25   -1    0    0    0    0  0.00000000000E+00  0.00000000000E+00  0.99999998245E-14  0.12509000000E+03  0.12509000000E+03 0.  0.
        -11    1    3    3    0    0 -0.54317946595E+01 -0.39404752411E+02 -0.19839552118E+02  0.44450497571E+02  0.51100000000E-03 0. -1.
         23    2    1    0    0    0 -0.26043037384E+02 -0.68746561865E+01  0.13110866799E+02  0.95133439415E+02  0.90293830204E+02 0.  0.
         11    1    3    3    0    0 -0.20611242724E+02  0.32530096224E+02  0.32950418916E+02  0.50682941845E+02  0.51100000000E-03 0.  1.
         22    1    1    0    0    0  0.26043037384E+02  0.68746561865E+01 -0.13110866799E+02  0.29956560585E+02  0.00000000000E+00 0.  1.
</event>
<event>
 5    1  0.1055265E-009  0.9118800E+02  0.7815553E-02  0.1125453E+00
         25   -1    0    0    0    0  0.00000000000E+00  0.00000000000E+00  0.99999998245E-14  0.12509000000E+03  0.12509000000E+03 0.  0.
        -11    1    3    3    0    0  0.17654209576E+02  0.53202914629E+02 -0.11239138373E+01  0.56066785385E+02  0.51100000000E-03 0. -1.
         23    2    1    0    0    0  0.16864521069E+02  0.12262419810E+02 -0.15112091098E+02  0.99338217385E+02  0.95942311445E+02 0.  0.
         11    1    3    3    0    0 -0.78968850751E+00 -0.40940494819E+02 -0.13988177261E+02  0.43271432000E+02  0.51100000000E-03 0.  1.
         22    1    1    0    0    0 -0.16864521069E+02 -0.12262419810E+02  0.15112091098E+02  0.25751782615E+02  0.00000000000E+00 0. -1.
</event>
<event>
 5    1  0.1055265E-009  0.9118800E+02  0.7815553E-02  0.1125453E+00
         25   -1    0    0    0    0  0.00000000000E+00  0.00000000000E+00  0.99999998245E-14  0.12509000000E+03  0.12509000000E+03 0.  0.
        -11    1    3    3    0    0  0.32592650909E+02 -0.40960844332E+02 -0.32542753461E+01  0.52446753665E+02  0.51100000000E-03 0.  1.
         23    2    1    0    0    0  0.40021431906E+02 -0.16784579078E+02  0.93352492530E+01  0.80698739765E+02  0.67392155437E+02 0.  0.
         11    1    3    3    0    0  0.74287809972E+01  0.24176265254E+02  0.12589524599E+02  0.28251986100E+02  0.51100000000E-03 0. -1.
         22    1    1    0    0    0 -0.40021431906E+02  0.16784579078E+02 -0.93352492530E+01  0.44391260235E+02  0.00000000000E+00 0.  1.
</event>
<event>
 5    1  0.1055265E-009  0.9118800E+02  0.7815553E-02  0.1125453E+00
         25   -1    0    0    0    0  0.00000000000E+00  0.00000000000E+00  0.99999998245E-14  0.12509000000E+03  0.12509000000E+03 0.  0.
        -11    1    3    3    0    0  0.58173797121E+02 -0.40257386460E+01 -0.14067588143E+02  0.59985783979E+02  0.51100000000E-03 0. -1.
         23    2    1    0    0    0  0.22948788722E+02 -0.75121818885E+01 -0.17083043679E+02  0.95511119665E+02  0.90815548326E+02 0.  0.
         11    1    3    3    0    0 -0.35225008400E+02 -0.34864432425E+01 -0.30154555361E+01  0.35525335686E+02  0.51100000000E-03 0.  1.
         22    1    1    0    0    0 -0.22948788722E+02  0.75121818885E+01  0.17083043679E+02  0.29578880335E+02  0.00000000000E+00 0. -1.
</event>
<event>
 5    1  0.1055265E-009  0.9118800E+02  0.7815553E-02  0.1125453E+00
         25   -1    0    0    0    0  0.00000000000E+00  0.00000000000E+00  0.99999998245E-14  0.12509000000E+03  0.12509000000E+03 0.  0.
        -11    1    3    3    0    0  0.86079635649E-01  0.20360058077E+01  0.61936112860E+02  0.61969628092E+02  0.51100000000E-03 0.  1.
         23    2    1    0    0    0 -0.30042250228E+01  0.61285930851E+01  0.29347877935E+02  0.94958903762E+02  0.90051709830E+02 0.  0.
         11    1    3    3    0    0 -0.30903046584E+01  0.40925872775E+01 -0.32588234925E+02  0.32989275671E+02  0.51100000000E-03 0. -1.
         22    1    1    0    0    0  0.30042250228E+01 -0.61285930851E+01 -0.29347877935E+02  0.30131096238E+02  0.00000000000E+00 0.  1.
</event>
<event>
 5    1  0.1055265E-009  0.9118800E+02  0.7815553E-02  0.1125453E+00
         25   -1    0    0    0    0  0.00000000000E+00  0.00000000000E+00  0.99999998245E-14  0.12509000000E+03  0.12509000000E+03 0.  0.
        -11    1    3    3    0    0  0.31605422001E+02 -0.39210460124E+02  0.35545253855E+02  0.61642744543E+02  0.51100000000E-03 0. -1.
         23    2    1    0    0    0  0.81509990566E+01 -0.18230805730E+02  0.20315715011E+02  0.96602645970E+02  0.92306781272E+02 0.  0.
         11    1    3    3    0    0 -0.23454422944E+02  0.20979654394E+02 -0.15229538844E+02  0.34959901427E+02  0.51100000000E-03 0.  1.
         22    1    1    0    0    0 -0.81509990566E+01  0.18230805730E+02 -0.20315715011E+02  0.28487354030E+02  0.00000000000E+00 0. -1.
</event>
<event>
 5    1  0.1055265E-009  0.9118800E+02  0.7815553E-02  0.1125453E+00
         25   -1    0    0    0    0  0.00000000000E+00  0.00000000000E+00  0.99999998245E-14  0.12509000000E+03  0.12509000000E+03 0.  0.
        -11    1    3    3    0    0 -0.13144493979E+02  0.51722166557E+01 -0.34346799108E+02  0.37138014975E+02  0.51100000000E-03 0.  1.
         23    2    1    0    0    0  0.17445970939E+02  0.17913215591E+02  0.14515511762E+02  0.96177281752E+02  0.91728535629E+02 0.  0.
         11    1    3    3    0    0  0.30590464918E+02  0.12740998935E+02  0.48862310870E+02  0.59039266777E+02  0.51100000000E-03 0. -1.
         22    1    1    0    0    0 -0.17445970939E+02 -0.17913215591E+02 -0.14515511762E+02  0.28912718248E+02  0.00000000000E+00 0. -1.
</event>
<event>
 5    1  0.1055265E-009  0.9118800E+02  0.7815553E-02  0.1125453E+00
         25   -1    0    0    0    0  0.00000000000E+00  0.00000000000E+00  0.99999998245E-14  0.12509000000E+03  0.12509000000E+03 0.  0.
        -11    1    3    3    0    0 -0.24376574047E+02 -0.47839674547E+02 -0.16466592895E+02  0.56160488823E+02  0.51100000000E-03 0. -1.
         23    2    1    0    0    0  0.14951689720E+01 -0.18354181092E+02 -0.22678986570E+02  0.95876168933E+02  0.91316985515E+02 0.  0.
         11    1    3    3    0    0  0.25871743019E+02  0.29485493455E+02 -0.62123936742E+01  0.39715680110E+02  0.51100000000E-03 0.  1.
         22    1    1    0    0    0 -0.14951689720E+01  0.18354181092E+02  0.22678986570E+02  0.29213831067E+02  0.00000000000E+00 0. -1.
</event>
<event>
 5    1  0.1055265E-009  0.9118800E+02  0.7815553E-02  0.1125453E+00
         25   -1    0    0    0    0  0.00000000000E+00  0.00000000000E+00  0.99999998245E-14  0.12509000000E+03  0.12509000000E+03 0.  0.
        -11    1    3    3    0    0  0.14913673173E+02  0.43689374413E+02  0.16234175162E+02  0.48935953323E+02  0.51100000000E-03 0.  1.
         23    2    1    0    0    0 -0.13647781717E+02  0.22013312865E+02 -0.13830470175E+02  0.95727953165E+02  0.91113726863E+02 0.  0.
         11    1    3    3    0    0 -0.28561454891E+02 -0.21676061548E+02 -0.30064645337E+02  0.46791999842E+02  0.51100000000E-03 0. -1.
         22    1    1    0    0    0  0.13647781717E+02 -0.22013312865E+02  0.13830470175E+02  0.29362046835E+02  0.00000000000E+00 0.  1.
</event>
<event>
 5    1  0.1055265E-009  0.9118800E+02  0.7815553E-02  0.1125453E+00
         25   -1    0    0    0    0  0.00000000000E+00  0.00000000000E+00  0.99999998245E-14  0.12509000000E+03  0.12509000000E+03 0.  0.
        -11    1    3    3    0    0  0.17927658143E+02  0.36154494889E+02  0.21162822258E+02  0.45567680140E+02  0.51100000000E-03 0.  1.
         23    2    1    0    0    0  0.20627735053E+02  0.44933114618E+01 -0.18935933601E+02  0.96730471043E+02  0.92479841834E+02 0.  0.
         11    1    3    3    0    0  0.27000769109E+01 -0.31661183427E+02 -0.40098755859E+02  0.51162790903E+02  0.51100000000E-03 0. -1.
         22    1    1    0    0    0 -0.20627735053E+02 -0.44933114618E+01  0.18935933601E+02  0.28359528957E+02  0.00000000000E+00 0. -1.
</event>
<event>
 5    1  0.1055265E-009  0.9118800E+02  0.7815553E-02  0.1125453E+00
         25   -1    0    0    0    0  0.00000000000E+00  0.00000000000E+00  0.99999998245E-14  0.12509000000E+03  0.12509000000E+03 0.  0.
        -11    1    3    3    0    0  0.66029835391E+01  0.54774446322E+01  0.36559020903E+02  0.37552147754E+02  0.51100000000E-03 0.  1.
         23    2    1    0    0    0 -0.64239160660E+01  0.26170300641E+02 -0.14735788924E+02  0.94376895167E+02  0.89239585011E+02 0.  0.
         11    1    3    3    0    0 -0.13026899605E+02  0.20692856009E+02 -0.51294809827E+02  0.56824747413E+02  0.51100000000E-03 0. -1.
         22    1    1    0    0    0  0.64239160660E+01 -0.26170300641E+02  0.14735788924E+02  0.30713104833E+02  0.00000000000E+00 0. -1.
</event>
<event>
 5    1  0.1055265E-009  0.9118800E+02  0.7815553E-02  0.1125453E+00
         25   -1    0    0    0    0  0.00000000000E+00  0.00000000000E+00  0.99999998245E-14  0.12509000000E+03  0.12509000000E+03 0.  0.
        -11    1    3    3    0    0 -0.17169740230E+02  0.51866899160E+01  0.51643742485E+02  0.54669716205E+02  0.51100000000E-03 0.  1.
         23    2    1    0    0    0 -0.25969155981E+02  0.62376875396E+01  0.11105489176E+02  0.96165309888E+02  0.91712208172E+02 0.  0.
         11    1    3    3    0    0 -0.87994157516E+01  0.10509976237E+01 -0.40538253308E+02  0.41495593683E+02  0.51100000000E-03 0. -1.
         22    1    1    0    0    0  0.25969155981E+02 -0.62376875396E+01 -0.11105489176E+02  0.28924690112E+02  0.00000000000E+00 0.  1.
</event>
<event>
 5    1  0.1055265E-009  0.9118800E+02  0.7815553E-02  0.1125453E+00
         25   -1    0    0    0    0  0.00000000000E+00  0.00000000000E+00  0.99999998245E-14  0.12509000000E+03  0.12509000000E+03 0.  0.
        -11    1    3    3    0    0  0.39481775364E+02  0.10876344234E+02  0.31427007576E+02  0.51621335272E+02  0.51100000000E-03 0. -1.
         23    2    1    0    0    0  0.21192367820E+02  0.22762604754E+02 -0.45139609794E+01  0.93663443193E+02  0.88233849049E+02 0.  0.
         11    1    3    3    0    0 -0.18289407544E+02  0.11886260520E+02 -0.35940968556E+02  0.42042107921E+02  0.51100000000E-03 0.  1.
         22    1    1    0    0    0 -0.21192367820E+02 -0.22762604754E+02  0.45139609794E+01  0.31426556807E+02  0.00000000000E+00 0. -1.
</event>
<event>
 5    1  0.1055265E-009  0.9118800E+02  0.7815553E-02  0.1125453E+00
         25   -1    0    0    0    0  0.00000000000E+00  0.00000000000E+00  0.99999998245E-14  0.12509000000E+03  0.12509000000E+03 0.  0.
        -11    1    3    3    0    0  0.32576191669E+02 -0.19278207481E+02 -0.30647160209E+02  0.48704270619E+02  0.51100000000E-03 0.  1.
         23    2    1    0    0    0 -0.13069683085E+02 -0.12971662418E+02 -0.23341732956E+02  0.95359255993E+02  0.90606128735E+02 0.  0.
         11    1    3    3    0    0 -0.45645874754E+02  0.63065450631E+01  0.73054272532E+01  0.46654985375E+02  0.51100000000E-03 0. -1.
         22    1    1    0    0    0  0.13069683085E+02  0.12971662418E+02  0.23341732956E+02  0.29730744007E+02  0.00000000000E+00 0.  1.
</event>
<event>
 5    1  0.1055265E-009  0.9118800E+02  0.7815553E-02  0.1125453E+00
         25   -1    0    0    0    0  0.00000000000E+00  0.00000000000E+00  0.99999998245E-14  0.12509000000E+03  0.12509000000E+03 0.  0.
        -11    1    3    3    0    0 -0.50301456068E+02  0.32987769060E+00  0.35303670227E+02  0.61454816195E+02  0.51100000000E-03 0.  1.
         23    2    1    0    0    0 -0.28555502447E+02 -0.20850281678E+01  0.10342802855E+02  0.94647634235E+02  0.89618285148E+02 0.  0.
         11    1    3    3    0    0  0.21745953620E+02 -0.24149058584E+01 -0.24960867372E+02  0.33192818039E+02  0.51100000000E-03 0. -1.
         22    1    1    0    0    0  0.28555502447E+02  0.20850281678E+01 -0.10342802855E+02  0.30442365765E+02  0.00000000000E+00 0.  1.
</event>
<event>
 5    1  0.1055265E-009  0.9118800E+02  0.7815553E-02  0.1125453E+00
         25   -1    0    0    0    0  0.00000000000E+00  0.00000000000E+00  0.99999998245E-14  0.12509000000E+03  0.12509000000E+03 0.  0.
        -11    1    3    3    0    0  0.91483550129E+01  0.52643673084E+02  0.75987124114E+01  0.53970261680E+02  0.51100000000E-03 0.  1.
         23    2    1    0    0    0  0.21709858790E+02  0.13189419790E+02  0.14337615009E+02  0.95920735916E+02  0.91378014924E+02 0.  0.
         11    1    3    3    0    0  0.12561503777E+02 -0.39454253294E+02  0.67389025973E+01  0.41950474236E+02  0.51100000000E-03 0. -1.
         22    1    1    0    0    0 -0.21709858790E+02 -0.13189419790E+02 -0.14337615009E+02  0.29169264084E+02  0.00000000000E+00 0. -1.
</event>
<event>
 5    1  0.1055265E-009  0.9118800E+02  0.7815553E-02  0.1125453E+00
         25   -1    0    0    0    0  0.00000000000E+00  0.00000000000E+00  0.99999998245E-14  0.12509000000E+03  0.12509000000E+03 0.  0.
        -11    1    3    3    0    0 -0.33209814492E+02  0.22916592730E+02 -0.11095979918E+02  0.41847135763E+02  0.51100000000E-03 0. -1.
         23    2    1    0    0    0  0.93456095668E+01 -0.66541474061E+01 -0.26752440107E+02  0.95981390491E+02  0.91461009031E+02 0.  0.
         11    1    3    3    0    0  0.42555424059E+02 -0.29570740136E+02 -0.15656460189E+02  0.54134254728E+02  0.51100000000E-03 0.  1.
         22    1    1    0    0    0 -0.93456095668E+01  0.66541474061E+01  0.26752440107E+02  0.29108609509E+02  0.00000000000E+00 0.  1.
</event>
<event>
 5    1  0.1055265E-009  0.9118800E+02  0.7815553E-02  0.1125453E+00
         25   -1    0    0    0    0  0.00000000000E+00  0.00000000000E+00  0.99999998245E-14  0.12509000000E+03  0.12509000000E+03 0.  0.
        -11    1    3    3    0    0  0.15137608818E+02 -0.31508826724E+02  0.18827524660E+02  0.39704269888E+02  0.51100000000E-03 0.  1.
         23    2    1    0    0    0 -0.24925609351E+02  0.51552375611E+01  0.17815786974E+02  0.94021289996E+02  0.88739721833E+02 0.  0.
         11    1    3    3    0    0 -0.40063218170E+02  0.36664064285E+02 -0.10117376860E+01  0.54317020108E+02  0.51100000000E-03 0. -1.
         22    1    1    0    0    0  0.24925609351E+02 -0.51552375611E+01 -0.17815786974E+02  0.31068710004E+02  0.00000000000E+00 0. -1.
</event>
<event>
 5    1  0.1055265E-009  0.9118800E+02  0.7815553E-02  0.1125453E+00
         25   -1    0    0    0    0  0.00000000000E+00  0.00000000000E+00  0.99999998245E-14  0.12509000000E+03  0.12509000000E+03 0.  0.
        -11    1    3    3    0    0 -0.50101361466E+01  0.53654421369E+02  0.14535704058E+01  0.53907432362E+02  0.51100000000E-03 0.  1.
         23    2    1    0    0    0 -0.17414119024E+02  0.17354062356E+02  0.16894802045E+02  0.95259657096E+02  0.90468518901E+02 0.  0.
         11    1    3    3    0    0 -0.12403982877E+02 -0.36300359013E+02  0.15441231639E+02  0.41352224734E+02  0.51100000000E-03 0. -1.
         22    1    1    0    0    0  0.17414119024E+02 -0.17354062356E+02 -0.16894802045E+02  0.29830342904E+02  0.00000000000E+00 0.  1.
</event>
<event>
 5    1  0.1055265E-009  0.9118800E+02  0.7815553E-02  0.1125453E+00
         25   -1    0    0    0    0  0.00000000000E+00  0.00000000000E+00  0.99999998245E-14  0.12509000000E+03  0.12509000000E+03 0.  0.
        -11    1    3    3    0    0 -0.11347207771E+02 -0.52544602306E+02  0.89171014793E+01  0.54490449207E+02  0.51100000000E-03 0.  1.
         23    2    1    0    0    0 -0.16553781967E+02 -0.17850089821E+02 -0.14578324844E+02  0.96714289272E+02  0.92457951470E+02 0.  0.
         11    1    3    3    0    0 -0.52065741964E+01  0.34694512485E+02 -0.23495426324E+02  0.42223840065E+02  0.51100000000E-03 0. -1.
         22    1    1    0    0    0  0.16553781967E+02  0.17850089821E+02  0.14578324844E+02  0.28375710728E+02  0.00000000000E+00 0. -1.
</event>
<event>
 5    1  0.1055265E-009  0.9118800E+02  0.7815553E-02  0.1125453E+00
         25   -1    0    0    0    0  0.00000000000E+00  0.00000000000E+00  0.99999998245E-14  0.12509000000E+03  0.12509000000E+03 0.  0.
        -11    1    3    3    0    0  0.35776625886E+02  0.64109921233E+01 -0.46656679831E+01  0.36644730014E+02  0.51100000000E-03 0. -1.
         23    2    1    0    0    0 -0.17836219385E+02 -0.45668929868E+01  0.21061308845E+02  0.97115619510E+02  0.92999341875E+02 0.  0.
         11    1    3    3    0    0 -0.53612845271E+02 -0.10977885110E+02  0.25726976828E+02  0.60470889497E+02  0.51100000000E-03 0.  1.
         22    1    1    0    0    0  0.17836219385E+02  0.45668929868E+01 -0.21061308845E+02  0.27974380490E+02  0.00000000000E+00 0.  1.
</event>
<event>
 5    1  0.1055265E-009  0.9118800E+02  0.7815553E-02  0.1125453E+00
         25   -1    0    0    0    0  0.00000000000E+00  0.00000000000E+00  0.99999998245E-14  0.12509000000E+03  0.12509000000E+03 0.  0.
        -11    1    3    3    0    0  0.88776417402E+01 -0.57103618488E+02 -0.34493589423E+01  0.57892433397E+02  0.51100000000E-03 0. -1.
         23    2    1    0    0    0  0.10490760662E+02 -0.20708329246E+02 -0.16520705178E+02  0.96597463100E+02  0.92299757412E+02 0.  0.
         11    1    3    3    0    0  0.16131189217E+01  0.36395289241E+02 -0.13071346236E+02  0.38705029703E+02  0.51100000000E-03 0.  1.
         22    1    1    0    0    0 -0.10490760662E+02  0.20708329246E+02  0.16520705178E+02  0.28492536900E+02  0.00000000000E+00 0. -1.
</event>
<event>
 5    1  0.1055265E-009  0.9118800E+02  0.7815553E-02  0.1125453E+00
         25   -1    0    0    0    0  0.00000000000E+00  0.00000000000E+00  0.99999998245E-14  0.12509000000E+03  0.12509000000E+03 0.  0.
        -11    1    3    3    0    0 -0.37684204192E+01  0.31930344237E+02  0.12232985384E+02  0.34400491380E+02  0.51100000000E-03 0. -1.
         23    2    1    0    0    0  0.12603413904E+02 -0.26401639636E+02  0.31085747615E+01  0.95669669367E+02  0.91033673892E+02 0.  0.
         11    1    3    3    0    0  0.16371834323E+02 -0.58331983873E+02 -0.91244106227E+01  0.61269177987E+02  0.51100000000E-03 0.  1.
         22    1    1    0    0    0 -0.12603413904E+02  0.26401639636E+02 -0.31085747615E+01  0.29420330633E+02  0.00000000000E+00 0.  1.
</event>
<event>
 5    1  0.1055265E-009  0.9118800E+02  0.7815553E-02  0.1125453E+00
         25   -1    0    0    0    0  0.00000000000E+00  0.00000000000E+00  0.99999998245E-14  0.12509000000E+03  0.12509000000E+03 0.  0.
        -11    1    3    3    0    0  0.30764004113E+02  0.17959250636E+01 -0.52645122751E+02  0.61001297082E+02  0.51100000000E-03 0.  1.
         23    2    1    0    0    0  0.18949210456E+02 -0.52685714438E+01 -0.17434878259E+02  0.98806822835E+02  0.95246957100E+02 0.  0.
         11    1    3    3    0    0 -0.11814793657E+02 -0.70644965073E+01  0.35210244492E+02  0.37805525753E+02  0.51100000000E-03 0. -1.
         22    1    1    0    0    0 -0.18949210456E+02  0.52685714438E+01  0.17434878259E+02  0.26283177165E+02  0.00000000000E+00 0.  1.
</event>
<event>
 5    1  0.1055265E-009  0.9118800E+02  0.7815553E-02  0.1125453E+00
         25   -1    0    0    0    0  0.00000000000E+00  0.00000000000E+00  0.99999998245E-14  0.12509000000E+03  0.12509000000E+03 0.  0.
        -11    1    3    3    0    0  0.47788788120E+02 -0.30370853464E+02 -0.57224918478E+01  0.56911369016E+02  0.51100000000E-03 0.  1.
         23    2    1    0    0    0  0.28156891144E+02  0.76882233217E+00  0.73572814598E+01  0.95977610934E+02  0.91455839636E+02 0.  0.
         11    1    3    3    0    0 -0.19631896976E+02  0.31139675796E+02  0.13079773308E+02  0.39066241918E+02  0.51100000000E-03 0. -1.
         22    1    1    0    0    0 -0.28156891144E+02 -0.76882233217E+00 -0.73572814598E+01  0.29112389066E+02  0.00000000000E+00 0.  1.
</event>
<event>
 5    1  0.1055265E-009  0.9118800E+02  0.7815553E-02  0.1125453E+00
         25   -1    0    0    0    0  0.00000000000E+00  0.00000000000E+00  0.99999998245E-14  0.12509000000E+03  0.12509000000E+03 0.  0.
        -11    1    3    3    0    0 -0.34297045599E+02 -0.86613327073E+01 -0.91723882194E+01  0.36543655085E+02  0.51100000000E-03 0. -1.
         23    2    1    0    0    0  0.20371568302E+02  0.13235577602E+02 -0.16256323873E+02  0.95859033964E+02  0.91293510268E+02 0.  0.
         11    1    3    3    0    0  0.54668613901E+02  0.21896910310E+02 -0.70839356538E+01  0.59315378879E+02  0.51100000000E-03 0.  1.
         22    1    1    0    0    0 -0.20371568302E+02 -0.13235577602E+02  0.16256323873E+02  0.29230966036E+02  0.00000000000E+00 0.  1.
</event>
<event>
 5    1  0.1055265E-009  0.9118800E+02  0.7815553E-02  0.1125453E+00
         25   -1    0    0    0    0  0.00000000000E+00  0.00000000000E+00  0.99999998245E-14  0.12509000000E+03  0.12509000000E+03 0.  0.
        -11    1    3    3    0    0  0.25213232642E+01 -0.26509048176E+02  0.45641811618E+02  0.52841855325E+02  0.51100000000E-03 0. -1.
         23    2    1    0    0    0  0.16181668567E+01  0.11754416093E+02  0.27380365543E+02  0.95249269799E+02  0.90454155340E+02 0.  0.
         11    1    3    3    0    0 -0.90315640745E+00  0.38263464269E+02 -0.18261446074E+02  0.42407414474E+02  0.51100000000E-03 0.  1.
         22    1    1    0    0    0 -0.16181668567E+01 -0.11754416093E+02 -0.27380365543E+02  0.29840730201E+02  0.00000000000E+00 0. -1.
</event>
<event>
 5    1  0.1055265E-009  0.9118800E+02  0.7815553E-02  0.1125453E+00
         25   -1    0    0    0    0  0.00000000000E+00  0.00000000000E+00  0.99999998245E-14  0.12509000000E+03  0.12509000000E+03 0.  0.
        -11    1    3    3    0    0  0.74315953999E+00 -0.52829797131E+02 -0.56130265999E+01  0.53132342494E+02  0.51100000000E-03 0. -1.
         23    2    1    0    0    0  0.14921618994E+02 -0.14590068609E+02 -0.19809338655E+02  0.96316145316E+02  0.91917708496E+02 0.  0.
         11    1    3    3    0    0  0.14178459454E+02  0.38239728522E+02 -0.14196312055E+02  0.43183802822E+02  0.51100000000E-03 0.  1.
         22    1    1    0    0    0 -0.14921618994E+02  0.14590068609E+02  0.19809338655E+02  0.28773854684E+02  0.00000000000E+00 0. -1.
</event>
<event>
 5    1  0.1055265E-009  0.9118800E+02  0.7815553E-02  0.1125453E+00
         25   -1    0    0    0    0  0.00000000000E+00  0.00000000000E+00  0.99999998245E-14  0.12509000000E+03  0.12509000000E+03 0.  0.
        -11    1    3    3    0    0  0.39446247323E+02 -0.10893160288E+02  0.22032849475E+02  0.46477024702E+02  0.51100000000E-03 0.  1.
         23    2    1    0    0    0  0.20337807002E+02  0.24637421461E+01 -0.21208404223E+02  0.95602836205E+02  0.90941791612E+02 0.  0.
         11    1    3    3    0    0 -0.19108440321E+02  0.13356902434E+02 -0.43241253698E+02  0.49125811502E+02  0.51100000000E-03 0. -1.
         22    1    1    0    0    0 -0.20337807002E+02 -0.24637421461E+01  0.21208404223E+02  0.29487163795E+02  0.00000000000E+00 0. -1.
</event>
<event>
 5    1  0.1055265E-009  0.9118800E+02  0.7815553E-02  0.1125453E+00
         25   -1    0    0    0    0  0.00000000000E+00  0.00000000000E+00  0.99999998245E-14  0.12509000000E+03  0.12509000000E+03 0.  0.
        -11    1    3    3    0    0  0.58955330331E+02  0.58936003058E+01  0.14399554110E+02  0.60973868647E+02  0.51100000000E-03 0.  1.
         23    2    1    0    0    0  0.23721210880E+02  0.65710939349E+01  0.15084271377E+02  0.96221152359E+02  0.91788342382E+02 0.  0.
         11    1    3    3    0    0 -0.35234119451E+02  0.67749362917E+00  0.68471726704E+00  0.35247283712E+02  0.51100000000E-03 0. -1.
         22    1    1    0    0    0 -0.23721210880E+02 -0.65710939349E+01 -0.15084271377E+02  0.28868847641E+02  0.00000000000E+00 0.  1.
</event>
<event>
 5    1  0.1055265E-009  0.9118800E+02  0.7815553E-02  0.1125453E+00
         25   -1    0    0    0    0  0.00000000000E+00  0.00000000000E+00  0.99999998245E-14  0.12509000000E+03  0.12509000000E+03 0.  0.
        -11    1    3    3    0    0  0.89508244837E+01  0.38354491398E+02 -0.41527357899E+02  0.57233781315E+02  0.51100000000E-03 0.  1.
         23    2    1    0    0    0 -0.39171093075E+01  0.52898548216E+01 -0.29754219139E+02  0.94616407072E+02  0.89574687391E+02 0.  0.
         11    1    3    3    0    0 -0.12867933791E+02 -0.33064636576E+02  0.11773138759E+02  0.37382625757E+02  0.51100000000E-03 0. -1.
         22    1    1    0    0    0  0.39171093075E+01 -0.52898548216E+01  0.29754219139E+02  0.30473592928E+02  0.00000000000E+00 0.  1.
</event>
<event>
 5    1  0.1055265E-009  0.9118800E+02  0.7815553E-02  0.1125453E+00
         25   -1    0    0    0    0  0.00000000000E+00  0.00000000000E+00  0.99999998245E-14  0.12509000000E+03  0.12509000000E+03 0.  0.
        -11    1    3    3    0    0 -0.29419724353E+02  0.18405684536E+02 -0.32951029700E+01  0.34858960227E+02  0.51100000000E-03 0.  1.
         23    2    1    0    0    0  0.26118962212E+02 -0.62450746867E+01 -0.10921014619E+02  0.96099144456E+02  0.91621918011E+02 0.  0.
         11    1    3    3    0    0  0.55538686566E+02 -0.24650759222E+02 -0.76259116486E+01  0.61240184229E+02  0.51100000000E-03 0. -1.
         22    1    1    0    0    0 -0.26118962212E+02  0.62450746867E+01  0.10921014619E+02  0.28990855544E+02  0.00000000000E+00 0. -1.
</event>
<event>
 5    1  0.1055265E-009  0.9118800E+02  0.7815553E-02  0.1125453E+00
         25   -1    0    0    0    0  0.00000000000E+00  0.00000000000E+00  0.99999998245E-14  0.12509000000E+03  0.12509000000E+03 0.  0.
        -11    1    3    3    0    0 -0.34761351811E+02  0.50438708835E+02  0.12053037228E+02  0.62431487531E+02  0.51100000000E-03 0.  1.
         23    2    1    0    0    0 -0.14088943269E+02  0.15982665627E+02  0.40362587944E+01  0.10340509032E+03  0.10110577330E+03 0.  0.
         11    1    3    3    0    0  0.20672408542E+02 -0.34456043208E+02 -0.80167784333E+01  0.40973602785E+02  0.51100000000E-03 0. -1.
         22    1    1    0    0    0  0.14088943269E+02 -0.15982665627E+02 -0.40362587944E+01  0.21684909684E+02  0.00000000000E+00 0.  1.
</event>
<event>
 5    1  0.1055265E-009  0.9118800E+02  0.7815553E-02  0.1125453E+00
         25   -1    0    0    0    0  0.00000000000E+00  0.00000000000E+00  0.99999998245E-14  0.12509000000E+03  0.12509000000E+03 0.  0.
        -11    1    3    3    0    0  0.55009256643E+02 -0.76539453147E+01  0.75313053341E+01  0.56047495534E+02  0.51100000000E-03 0. -1.
         23    2    1    0    0    0  0.18469636382E+02 -0.22259426895E+02  0.66663016317E+01  0.95407528216E+02  0.90672748436E+02 0.  0.
         11    1    3    3    0    0 -0.36539620261E+02 -0.14605481580E+02 -0.86500370237E+00  0.39360032682E+02  0.51100000000E-03 0.  1.
         22    1    1    0    0    0 -0.18469636382E+02  0.22259426895E+02 -0.66663016317E+01  0.29682471784E+02  0.00000000000E+00 0. -1.
</event>
<event>
 5    1  0.1055265E-009  0.9118800E+02  0.7815553E-02  0.1125453E+00
         25   -1    0    0    0    0  0.00000000000E+00  0.00000000000E+00  0.99999998245E-14  0.12509000000E+03  0.12509000000E+03 0.  0.
        -11    1    3    3    0    0 -0.43462371109E+02 -0.16925126738E+02  0.18875210656E+02  0.50316112678E+02  0.51100000000E-03 0. -1.
         23    2    1    0    0    0 -0.66138727940E+01 -0.28442443414E+02 -0.46429235972E+01  0.95521898265E+02  0.90830393635E+02 0.  0.
         11    1    3    3    0    0  0.36848498315E+02 -0.11517316676E+02 -0.23518134254E+02  0.45205785586E+02  0.51100000000E-03 0.  1.
         22    1    1    0    0    0  0.66138727940E+01  0.28442443414E+02  0.46429235972E+01  0.29568101735E+02  0.00000000000E+00 0.  1.
</event>
<event>
 5    1  0.1055265E-009  0.9118800E+02  0.7815553E-02  0.1125453E+00
         25   -1    0    0    0    0  0.00000000000E+00  0.00000000000E+00  0.99999998245E-14  0.12509000000E+03  0.12509000000E+03 0.  0.
        -11    1    3    3    0    0 -0.27345125948E+02  0.22066255482E+01 -0.32811376554E+02  0.42769282682E+02  0.51100000000E-03 0.  1.
         23    2    1    0    0    0  0.20348170941E+02 -0.12993749830E+02 -0.18012373867E+02  0.94968061025E+02  0.90064429201E+02 0.  0.
         11    1    3    3    0    0  0.47693296889E+02 -0.15200375378E+02  0.14799002688E+02  0.52198778344E+02  0.51100000000E-03 0. -1.
         22    1    1    0    0    0 -0.20348170941E+02  0.12993749830E+02  0.18012373867E+02  0.30121938975E+02  0.00000000000E+00 0. -1.
</event>
<event>
 5    1  0.1055265E-009  0.9118800E+02  0.7815553E-02  0.1125453E+00
         25   -1    0    0    0    0  0.00000000000E+00  0.00000000000E+00  0.99999998245E-14  0.12509000000E+03  0.12509000000E+03 0.  0.
        -11    1    3    3    0    0  0.74353909288E+00  0.20759488164E+02  0.25601767555E+02  0.32969071892E+02  0.51100000000E-03 0.  1.
         23    2    1    0    0    0  0.46078811723E+01 -0.31903741022E+02 -0.24495857953E+01  0.92762276129E+02  0.86946869651E+02 0.  0.
         11    1    3    3    0    0  0.38643420795E+01 -0.52663229186E+02 -0.28051353350E+02  0.59793204238E+02  0.51100000000E-03 0. -1.
         22    1    1    0    0    0 -0.46078811723E+01  0.31903741022E+02  0.24495857953E+01  0.32327723871E+02  0.00000000000E+00 0. -1.
</event>
<event>
 5    1  0.1055265E-009  0.9118800E+02  0.7815553E-02  0.1125453E+00
         25   -1    0    0    0    0  0.00000000000E+00  0.00000000000E+00  0.99999998245E-14  0.12509000000E+03  0.12509000000E+03 0.  0.
        -11    1    3    3    0    0  0.17468881660E+02 -0.31923762604E+02 -0.27813149147E+02  0.45802398528E+02  0.51100000000E-03 0. -1.
         23    2    1    0    0    0  0.51632546460E+01 -0.22697408422E+02  0.18978163984E+02  0.95056647609E+02  0.90187382703E+02 0.  0.
         11    1    3    3    0    0 -0.12305627014E+02  0.92263541812E+01  0.46791313131E+02  0.49254249081E+02  0.51100000000E-03 0.  1.
         22    1    1    0    0    0 -0.51632546460E+01  0.22697408422E+02 -0.18978163984E+02  0.30033352391E+02  0.00000000000E+00 0.  1.
</event>
<event>
 5    1  0.1055265E-009  0.9118800E+02  0.7815553E-02  0.1125453E+00
         25   -1    0    0    0    0  0.00000000000E+00  0.00000000000E+00  0.99999998245E-14  0.12509000000E+03  0.12509000000E+03 0.  0.
        -11    1    3    3    0    0  0.22053431381E+02 -0.86794606355E+01 -0.27294876744E+02  0.36148266477E+02  0.51100000000E-03 0.  1.
         23    2    1    0    0    0 -0.27114990736E+02 -0.45199822598E+01  0.75828398529E+01  0.96574172421E+02  0.92268187131E+02 0.  0.
         11    1    3    3    0    0 -0.49168422118E+02  0.41594783757E+01  0.34877716597E+02  0.60425905944E+02  0.51100000000E-03 0. -1.
         22    1    1    0    0    0  0.27114990736E+02  0.45199822598E+01 -0.75828398529E+01  0.28515827579E+02  0.00000000000E+00 0. -1.
</event>
<event>
 5    1  0.1055265E-009  0.9118800E+02  0.7815553E-02  0.1125453E+00
         25   -1    0    0    0    0  0.00000000000E+00  0.00000000000E+00  0.99999998245E-14  0.12509000000E+03  0.12509000000E+03 0.  0.
        -11    1    3    3    0    0  0.33949472780E+02 -0.31015697839E+02  0.38973678577E+02  0.60278419327E+02  0.51100000000E-03 0. -1.
         23    2    1    0    0    0  0.23159335963E+02 -0.16334025142E+02  0.90004071146E+01  0.95355129094E+02  0.90600430996E+02 0.  0.
         11    1    3    3    0    0 -0.10790136817E+02  0.14681672697E+02 -0.29973271462E+02  0.35076709767E+02  0.51100000000E-03 0.  1.
         22    1    1    0    0    0 -0.23159335963E+02  0.16334025142E+02 -0.90004071146E+01  0.29734870906E+02  0.00000000000E+00 0. -1.
</event>
<event>
 5    1  0.1055265E-009  0.9118800E+02  0.7815553E-02  0.1125453E+00
         25   -1    0    0    0    0  0.00000000000E+00  0.00000000000E+00  0.99999998245E-14  0.12509000000E+03  0.12509000000E+03 0.  0.
        -11    1    3    3    0    0  0.35473802127E+02  0.12235474336E+02  0.38120971272E+02  0.53491176100E+02  0.51100000000E-03 0. -1.
         23    2    1    0    0    0  0.25767853713E+02  0.16376299197E+02 -0.15280562786E+01  0.94520400455E+02  0.89440514790E+02 0.  0.
         11    1    3    3    0    0 -0.97059484140E+01  0.41408248608E+01 -0.39649027551E+02  0.41029224355E+02  0.51100000000E-03 0.  1.
         22    1    1    0    0    0 -0.25767853713E+02 -0.16376299197E+02  0.15280562786E+01  0.30569599545E+02  0.00000000000E+00 0. -1.
</event>
<event>
 5    1  0.1055265E-009  0.9118800E+02  0.7815553E-02  0.1125453E+00
         25   -1    0    0    0    0  0.00000000000E+00  0.00000000000E+00  0.99999998245E-14  0.12509000000E+03  0.12509000000E+03 0.  0.
        -11    1    3    3    0    0  0.74401823709E+01 -0.47389690554E+02 -0.45004263341E+01  0.48180835630E+02  0.51100000000E-03 0. -1.
         23    2    1    0    0    0  0.98536326465E+01  0.26574866118E+00 -0.23550709004E+02  0.99559614314E+02  0.96230536780E+02 0.  0.
         11    1    3    3    0    0  0.24134502756E+01  0.47655439215E+02 -0.19050282670E+02  0.51378778684E+02  0.51100000000E-03 0.  1.
         22    1    1    0    0    0 -0.98536326465E+01 -0.26574866118E+00  0.23550709004E+02  0.25530385686E+02  0.00000000000E+00 0.  1.
</event>
<event>
 5    1  0.1055265E-009  0.9118800E+02  0.7815553E-02  0.1125453E+00
         25   -1    0    0    0    0  0.00000000000E+00  0.00000000000E+00  0.99999998245E-14  0.12509000000E+03  0.12509000000E+03 0.  0.
        -11    1    3    3    0    0  0.13935277243E+02 -0.10312516110E+02 -0.44391041361E+02  0.47656106573E+02  0.51100000000E-03 0. -1.
         23    2    1    0    0    0  0.29017712030E+02  0.83338602190E+01 -0.39933767664E+01  0.94636299147E+02  0.89602462135E+02 0.  0.
         11    1    3    3    0    0  0.15082434787E+02  0.18646376329E+02  0.40397664595E+02  0.46980192574E+02  0.51100000000E-03 0.  1.
         22    1    1    0    0    0 -0.29017712030E+02 -0.83338602190E+01  0.39933767664E+01  0.30453700853E+02  0.00000000000E+00 0. -1.
</event>
<event>
 5    1  0.1055265E-009  0.9118800E+02  0.7815553E-02  0.1125453E+00
         25   -1    0    0    0    0  0.00000000000E+00  0.00000000000E+00  0.99999998245E-14  0.12509000000E+03  0.12509000000E+03 0.  0.
        -11    1    3    3    0    0  0.37193229108E+02 -0.39400052191E+01  0.73945951099E+01  0.38125319274E+02  0.51100000000E-03 0. -1.
         23    2    1    0    0    0 -0.29627067368E+01  0.21761063418E+02  0.27524762657E+02  0.89877302409E+02  0.82692172645E+02 0.  0.
         11    1    3    3    0    0 -0.40155935845E+02  0.25701068637E+02  0.20130167547E+02  0.51751983135E+02  0.51100000000E-03 0.  1.
         22    1    1    0    0    0  0.29627067368E+01 -0.21761063418E+02 -0.27524762657E+02  0.35212697591E+02  0.00000000000E+00 0.  1.
</event>
<event>
 5    1  0.1055265E-009  0.9118800E+02  0.7815553E-02  0.1125453E+00
         25   -1    0    0    0    0  0.00000000000E+00  0.00000000000E+00  0.99999998245E-14  0.12509000000E+03  0.12509000000E+03 0.  0.
        -11    1    3    3    0    0  0.87507134312E+01  0.39732469380E+02  0.42828033447E+02  0.59071859272E+02  0.51100000000E-03 0.  1.
         23    2    1    0    0    0 -0.10966602540E+02  0.12934105231E+02  0.13753585077E+02  0.10325611459E+03  0.10092128938E+03 0.  0.
         11    1    3    3    0    0 -0.19717315971E+02 -0.26798364149E+02 -0.29074448370E+02  0.44184255323E+02  0.51100000000E-03 0. -1.
         22    1    1    0    0    0  0.10966602540E+02 -0.12934105231E+02 -0.13753585077E+02  0.21833885405E+02  0.00000000000E+00 0.  1.
</event>
<event>
 5    1  0.1055265E-009  0.9118800E+02  0.7815553E-02  0.1125453E+00
         25   -1    0    0    0    0  0.00000000000E+00  0.00000000000E+00  0.99999998245E-14  0.12509000000E+03  0.12509000000E+03 0.  0.
        -11    1    3    3    0    0  0.12382032645E+02  0.45012064798E+02 -0.18075718421E+02  0.50061285506E+02  0.51100000000E-03 0.  1.
         23    2    1    0    0    0  0.25853632710E+02  0.65084571832E+01  0.64523876916E+01  0.97660022856E+02  0.93728738486E+02 0.  0.
         11    1    3    3    0    0  0.13471600064E+02 -0.38503607615E+02  0.24528106113E+02  0.47598737350E+02  0.51100000000E-03 0. -1.
         22    1    1    0    0    0 -0.25853632710E+02 -0.65084571832E+01 -0.64523876916E+01  0.27429977144E+02  0.00000000000E+00 0. -1.
</event>
<event>
 5    1  0.1055265E-009  0.9118800E+02  0.7815553E-02  0.1125453E+00
         25   -1    0    0    0    0  0.00000000000E+00  0.00000000000E+00  0.99999998245E-14  0.12509000000E+03  0.12509000000E+03 0.  0.
        -11    1    3    3    0    0 -0.28075985870E+02 -0.17451778980E+02 -0.14736046048E+02  0.36193599234E+02  0.51100000000E-03 0.  1.
         23    2    1    0    0    0  0.19257232135E+01  0.16635065598E+02  0.23962453177E+02  0.95855893555E+02  0.91289207192E+02 0.  0.
         11    1    3    3    0    0  0.30001709083E+02  0.34086844578E+02  0.38698499225E+02  0.59662294322E+02  0.51100000000E-03 0. -1.
         22    1    1    0    0    0 -0.19257232135E+01 -0.16635065598E+02 -0.23962453177E+02  0.29234106445E+02  0.00000000000E+00 0. -1.
</event>
<event>
 5    1  0.1055265E-009  0.9118800E+02  0.7815553E-02  0.1125453E+00
         25   -1    0    0    0    0  0.00000000000E+00  0.00000000000E+00  0.99999998245E-14  0.12509000000E+03  0.12509000000E+03 0.  0.
        -11    1    3    3    0    0  0.13631390293E+02 -0.17757630152E+02 -0.31953533689E+02  0.39015080999E+02  0.51100000000E-03 0. -1.
         23    2    1    0    0    0  0.11734245442E+02 -0.29283620785E+01  0.24689301523E+02  0.97597647786E+02  0.93645455966E+02 0.  0.
         11    1    3    3    0    0 -0.18971448502E+01  0.14829268073E+02  0.56642835212E+02  0.58582566787E+02  0.51100000000E-03 0.  1.
         22    1    1    0    0    0 -0.11734245442E+02  0.29283620785E+01 -0.24689301523E+02  0.27492352214E+02  0.00000000000E+00 0.  1.
</event>
<event>
 5    1  0.1055265E-009  0.9118800E+02  0.7815553E-02  0.1125453E+00
         25   -1    0    0    0    0  0.00000000000E+00  0.00000000000E+00  0.99999998245E-14  0.12509000000E+03  0.12509000000E+03 0.  0.
        -11    1    3    3    0    0  0.15201681384E+02 -0.51410043538E+01 -0.35322628132E+02  0.38797024384E+02  0.51100000000E-03 0.  1.
         23    2    1    0    0    0  0.33087007296E+02  0.10532344400E+02  0.91086710973E+01  0.89192253281E+02  0.81649310014E+02 0.  0.
         11    1    3    3    0    0  0.17885325912E+02  0.15673348754E+02  0.44431299229E+02  0.50395228897E+02  0.51100000000E-03 0. -1.
         22    1    1    0    0    0 -0.33087007296E+02 -0.10532344400E+02 -0.91086710973E+01  0.35897746719E+02  0.00000000000E+00 0.  1.
</event>
<event>
 5    1  0.1055265E-009  0.9118800E+02  0.7815553E-02  0.1125453E+00
         25   -1    0    0    0    0  0.00000000000E+00  0.00000000000E+00  0.99999998245E-14  0.12509000000E+03  0.12509000000E+03 0.  0.
        -11    1    3    3    0    0  0.73299879762E+01 -0.53574717772E+02 -0.81178942941E+01  0.54679788918E+02  0.51100000000E-03 0.  1.
         23    2    1    0    0    0 -0.11633518647E+02 -0.26794879952E+02  0.12372891029E+02  0.93366305697E+02  0.87811583856E+02 0.  0.
         11    1    3    3    0    0 -0.18963506623E+02  0.26779837820E+02  0.20490785323E+02  0.38686516779E+02  0.51100000000E-03 0. -1.
         22    1    1    0    0    0  0.11633518647E+02  0.26794879952E+02 -0.12372891029E+02  0.31723694303E+02  0.00000000000E+00 0.  1.
</event>
<event>
 5    1  0.1055265E-009  0.9118800E+02  0.7815553E-02  0.1125453E+00
         25   -1    0    0    0    0  0.00000000000E+00  0.00000000000E+00  0.99999998245E-14  0.12509000000E+03  0.12509000000E+03 0.  0.
        -11    1    3    3    0    0  0.65758760134E+01  0.23819155677E+02  0.24811175593E+02  0.35016978126E+02  0.51100000000E-03 0.  1.
         23    2    1    0    0    0  0.18794079763E+02 -0.22697200169E+02 -0.95364704317E+01  0.94117034402E+02  0.88874583356E+02 0.  0.
         11    1    3    3    0    0  0.12218203749E+02 -0.46516355847E+02 -0.34347646025E+02  0.59100056276E+02  0.51100000000E-03 0. -1.
         22    1    1    0    0    0 -0.18794079763E+02  0.22697200169E+02  0.95364704317E+01  0.30972965598E+02  0.00000000000E+00 0. -1.
</event>
<event>
 5    1  0.1055265E-009  0.9118800E+02  0.7815553E-02  0.1125453E+00
         25   -1    0    0    0    0  0.00000000000E+00  0.00000000000E+00  0.99999998245E-14  0.12509000000E+03  0.12509000000E+03 0.  0.
        -11    1    3    3    0    0  0.24057201940E+00 -0.18719646778E+02  0.29451849185E+02  0.34898344818E+02  0.51100000000E-03 0. -1.
         23    2    1    0    0    0  0.16029813005E+02  0.29372814058E+00 -0.25395691668E+02  0.95056979232E+02  0.90187842663E+02 0.  0.
         11    1    3    3    0    0  0.15789240986E+02  0.19013374919E+02 -0.54847540852E+02  0.60158634414E+02  0.51100000000E-03 0.  1.
         22    1    1    0    0    0 -0.16029813005E+02 -0.29372814058E+00  0.25395691668E+02  0.30033020768E+02  0.00000000000E+00 0.  1.
</event>
<event>
 5    1  0.1055265E-009  0.9118800E+02  0.7815553E-02  0.1125453E+00
         25   -1    0    0    0    0  0.00000000000E+00  0.00000000000E+00  0.99999998245E-14  0.12509000000E+03  0.12509000000E+03 0.  0.
        -11    1    3    3    0    0 -0.29079015930E+02 -0.31437576364E+02 -0.27466070480E+02  0.50875292658E+02  0.51100000000E-03 0.  1.
         23    2    1    0    0    0 -0.10740919962E+02 -0.24134417618E+02 -0.42059301553E+02  0.75422884898E+02  0.56760807287E+02 0.  0.
         11    1    3    3    0    0  0.18338095968E+02  0.73031587458E+01 -0.14593231073E+02  0.24547592241E+02  0.51100000000E-03 0. -1.
         22    1    1    0    0    0  0.10740919962E+02  0.24134417618E+02  0.42059301553E+02  0.49667115102E+02  0.00000000000E+00 0.  1.
</event>
<event>
 5    1  0.1055265E-009  0.9118800E+02  0.7815553E-02  0.1125453E+00
         25   -1    0    0    0    0  0.00000000000E+00  0.00000000000E+00  0.99999998245E-14  0.12509000000E+03  0.12509000000E+03 0.  0.
        -11    1    3    3    0    0  0.51387568269E+02 -0.14075690998E+02 -0.16379923675E+02  0.55741449116E+02  0.51100000000E-03 0.  1.
         23    2    1    0    0    0  0.13634651014E+02 -0.22615933287E+02 -0.15522541277E+02  0.94457771312E+02  0.89352879790E+02 0.  0.
         11    1    3    3    0    0 -0.37752917254E+02 -0.85402422890E+01  0.85738239787E+00  0.38716322196E+02  0.51100000000E-03 0. -1.
         22    1    1    0    0    0 -0.13634651014E+02  0.22615933287E+02  0.15522541277E+02  0.30632228688E+02  0.00000000000E+00 0.  1.
</event>
<event>
 5    1  0.1055265E-009  0.9118800E+02  0.7815553E-02  0.1125453E+00
         25   -1    0    0    0    0  0.00000000000E+00  0.00000000000E+00  0.99999998245E-14  0.12509000000E+03  0.12509000000E+03 0.  0.
        -11    1    3    3    0    0 -0.17321762435E+02 -0.36346482278E+02  0.16897505597E+02  0.43665042351E+02  0.51100000000E-03 0. -1.
         23    2    1    0    0    0  0.19238833434E+02 -0.36746881397E+02  0.82823537465E+00  0.83603231288E+02  0.72583388620E+02 0.  0.
         11    1    3    3    0    0  0.36560595870E+02 -0.40039911914E+00 -0.16069270222E+02  0.39938188937E+02  0.51100000000E-03 0.  1.
         22    1    1    0    0    0 -0.19238833434E+02  0.36746881397E+02 -0.82823537465E+00  0.41486768712E+02  0.00000000000E+00 0. -1.
</event>
<event>
 5    1  0.1055265E-009  0.9118800E+02  0.7815553E-02  0.1125453E+00
         25   -1    0    0    0    0  0.00000000000E+00  0.00000000000E+00  0.99999998245E-14  0.12509000000E+03  0.12509000000E+03 0.  0.
        -11    1    3    3    0    0  0.32552276046E+02 -0.50376097958E+02 -0.13820349649E+02  0.61550012071E+02  0.51100000000E-03 0.  1.
         23    2    1    0    0    0  0.15665346238E+02 -0.26016513712E+02  0.10325365963E+01  0.94703684160E+02  0.89696486014E+02 0.  0.
         11    1    3    3    0    0 -0.16886929807E+02  0.24359584246E+02  0.14852886246E+02  0.33153672090E+02  0.51100000000E-03 0. -1.
         22    1    1    0    0    0 -0.15665346238E+02  0.26016513712E+02 -0.10325365963E+01  0.30386315840E+02  0.00000000000E+00 0.  1.
</event>
<event>
 5    1  0.1055265E-009  0.9118800E+02  0.7815553E-02  0.1125453E+00
         25   -1    0    0    0    0  0.00000000000E+00  0.00000000000E+00  0.99999998245E-14  0.12509000000E+03  0.12509000000E+03 0.  0.
        -11    1    3    3    0    0 -0.27618070282E+02  0.25245580856E+02 -0.83010219619E+01  0.38327589602E+02  0.51100000000E-03 0.  1.
         23    2    1    0    0    0  0.11767429460E+02 -0.27664378535E+01  0.25204438124E+02  0.97136658954E+02  0.93027636953E+02 0.  0.
         11    1    3    3    0    0  0.39385499743E+02 -0.28012018709E+02  0.33505460086E+02  0.58809069351E+02  0.51100000000E-03 0. -1.
         22    1    1    0    0    0 -0.11767429460E+02  0.27664378535E+01 -0.25204438124E+02  0.27953341046E+02  0.00000000000E+00 0. -1.
</event>
<event>
 5    1  0.1055265E-009  0.9118800E+02  0.7815553E-02  0.1125453E+00
         25   -1    0    0    0    0  0.00000000000E+00  0.00000000000E+00  0.99999998245E-14  0.12509000000E+03  0.12509000000E+03 0.  0.
        -11    1    3    3    0    0  0.53051052449E+02 -0.70075874880E+01 -0.28524709066E+02  0.60639751615E+02  0.51100000000E-03 0. -1.
         23    2    1    0    0    0  0.27469558214E+02  0.53773865598E+01 -0.71550449460E+01  0.96199039773E+02  0.91758202197E+02 0.  0.
         11    1    3    3    0    0 -0.25581494235E+02  0.12384974048E+02  0.21369664120E+02  0.35559288158E+02  0.51100000000E-03 0.  1.
         22    1    1    0    0    0 -0.27469558214E+02 -0.53773865598E+01  0.71550449460E+01  0.28890960227E+02  0.00000000000E+00 0. -1.
</event>
<event>
 5    1  0.1055265E-009  0.9118800E+02  0.7815553E-02  0.1125453E+00
         25   -1    0    0    0    0  0.00000000000E+00  0.00000000000E+00  0.99999998245E-14  0.12509000000E+03  0.12509000000E+03 0.  0.
        -11    1    3    3    0    0  0.23815610531E+02 -0.15510244881E+02 -0.23503355692E+02  0.36880329856E+02  0.51100000000E-03 0.  1.
         23    2    1    0    0    0 -0.14860848815E+02 -0.23062644935E+00  0.22010531423E+02  0.98531357159E+02  0.94884492063E+02 0.  0.
         11    1    3    3    0    0 -0.38676459346E+02  0.15279618432E+02  0.45513887115E+02  0.61651027303E+02  0.51100000000E-03 0. -1.
         22    1    1    0    0    0  0.14860848815E+02  0.23062644935E+00 -0.22010531423E+02  0.26558642841E+02  0.00000000000E+00 0. -1.
</event>
<event>
 5    1  0.1055265E-009  0.9118800E+02  0.7815553E-02  0.1125453E+00
         25   -1    0    0    0    0  0.00000000000E+00  0.00000000000E+00  0.99999998245E-14  0.12509000000E+03  0.12509000000E+03 0.  0.
        -11    1    3    3    0    0 -0.72069480062E+01  0.37394320282E+02 -0.42652476384E+02  0.57179620765E+02  0.51100000000E-03 0. -1.
         23    2    1    0    0    0 -0.52804683834E+01  0.27929720983E+02 -0.47774464572E+01  0.96266803522E+02  0.91850535138E+02 0.  0.
         11    1    3    3    0    0  0.19264796228E+01 -0.94645992983E+01  0.37875029927E+02  0.39087182757E+02  0.51100000000E-03 0.  1.
         22    1    1    0    0    0  0.52804683834E+01 -0.27929720983E+02  0.47774464572E+01  0.28823196478E+02  0.00000000000E+00 0. -1.
</event>
<event>
 5    1  0.1055265E-009  0.9118800E+02  0.7815553E-02  0.1125453E+00
         25   -1    0    0    0    0  0.00000000000E+00  0.00000000000E+00  0.99999998245E-14  0.12509000000E+03  0.12509000000E+03 0.  0.
        -11    1    3    3    0    0 -0.58006097709E+01 -0.84041252864E+01 -0.37044119852E+02  0.38425814389E+02  0.51100000000E-03 0.  1.
         23    2    1    0    0    0 -0.13483160313E+01 -0.23637807833E+02  0.17767219385E+02  0.95488682462E+02  0.90784637899E+02 0.  0.
         11    1    3    3    0    0  0.44522937396E+01 -0.15233682547E+02  0.54811339238E+02  0.57062868074E+02  0.51100000000E-03 0. -1.
         22    1    1    0    0    0  0.13483160313E+01  0.23637807833E+02 -0.17767219385E+02  0.29601317538E+02  0.00000000000E+00 0. -1.
</event>
<event>
 5    1  0.1055265E-009  0.9118800E+02  0.7815553E-02  0.1125453E+00
         25   -1    0    0    0    0  0.00000000000E+00  0.00000000000E+00  0.99999998245E-14  0.12509000000E+03  0.12509000000E+03 0.  0.
        -11    1    3    3    0    0 -0.13542006817E+02  0.29115338100E+02  0.99621780614E+01  0.33620438029E+02  0.51100000000E-03 0. -1.
         23    2    1    0    0    0  0.26362493388E+01 -0.29496081636E+02 -0.12552099362E+01  0.95449753806E+02  0.90730983171E+02 0.  0.
         11    1    3    3    0    0  0.16178256155E+02 -0.58611419736E+02 -0.11217387998E+02  0.61829315777E+02  0.51100000000E-03 0.  1.
         22    1    1    0    0    0 -0.26362493388E+01  0.29496081636E+02  0.12552099362E+01  0.29640246194E+02  0.00000000000E+00 0.  1.
</event>
<event>
 5    1  0.1055265E-009  0.9118800E+02  0.7815553E-02  0.1125453E+00
         25   -1    0    0    0    0  0.00000000000E+00  0.00000000000E+00  0.99999998245E-14  0.12509000000E+03  0.12509000000E+03 0.  0.
        -11    1    3    3    0    0 -0.13993088736E+02  0.50400196855E+02  0.10773982784E+01  0.52317751889E+02  0.51100000000E-03 0.  1.
         23    2    1    0    0    0  0.18990571860E+02  0.21590961611E+02 -0.23144783025E+01  0.96242673388E+02  0.91817666754E+02 0.  0.
         11    1    3    3    0    0  0.32983660596E+02 -0.28809235244E+02 -0.33918765808E+01  0.43924921498E+02  0.51100000000E-03 0. -1.
         22    1    1    0    0    0 -0.18990571860E+02 -0.21590961611E+02  0.23144783025E+01  0.28847326612E+02  0.00000000000E+00 0.  1.
</event>
<event>
 5    1  0.1055265E-009  0.9118800E+02  0.7815553E-02  0.1125453E+00
         25   -1    0    0    0    0  0.00000000000E+00  0.00000000000E+00  0.99999998245E-14  0.12509000000E+03  0.12509000000E+03 0.  0.
        -11    1    3    3    0    0 -0.42512901472E+02  0.12570662286E+01  0.23908145943E+02  0.48790638957E+02  0.51100000000E-03 0.  1.
         23    2    1    0    0    0 -0.21639862948E+02 -0.11956558400E+02 -0.15938854827E+02  0.95674187070E+02  0.91039881487E+02 0.  0.
         11    1    3    3    0    0  0.20873038524E+02 -0.13213624628E+02 -0.39847000770E+02  0.46883548113E+02  0.51100000000E-03 0. -1.
         22    1    1    0    0    0  0.21639862948E+02  0.11956558400E+02  0.15938854827E+02  0.29415812930E+02  0.00000000000E+00 0. -1.
</event>
<event>
 5    1  0.1055265E-009  0.9118800E+02  0.7815553E-02  0.1125453E+00
         25   -1    0    0    0    0  0.00000000000E+00  0.00000000000E+00  0.99999998245E-14  0.12509000000E+03  0.12509000000E+03 0.  0.
        -11    1    3    3    0    0  0.13584505196E+02  0.38632414123E+02 -0.36083574055E+02  0.54580459134E+02  0.51100000000E-03 0.  1.
         23    2    1    0    0    0 -0.14148798092E+02  0.10329368329E+02 -0.22723517936E+02  0.96397795398E+02  0.92028758292E+02 0.  0.
         11    1    3    3    0    0 -0.27733303288E+02 -0.28303045794E+02  0.13360056119E+02  0.41817336264E+02  0.51100000000E-03 0. -1.
         22    1    1    0    0    0  0.14148798092E+02 -0.10329368329E+02  0.22723517936E+02  0.28692204602E+02  0.00000000000E+00 0.  1.
</event>
<event>
 5    1  0.1055265E-009  0.9118800E+02  0.7815553E-02  0.1125453E+00
         25   -1    0    0    0    0  0.00000000000E+00  0.00000000000E+00  0.99999998245E-14  0.12509000000E+03  0.12509000000E+03 0.  0.
        -11    1    3    3    0    0  0.49588139647E+02 -0.11567408169E+02  0.14719813186E+02  0.53004352896E+02  0.51100000000E-03 0.  1.
         23    2    1    0    0    0  0.15810750943E+02 -0.23046143602E+02 -0.88641709453E+01  0.95769732149E+02  0.91171067170E+02 0.  0.
         11    1    3    3    0    0 -0.33777388704E+02 -0.11478735433E+02 -0.23583984131E+02  0.42765379252E+02  0.51100000000E-03 0. -1.
         22    1    1    0    0    0 -0.15810750943E+02  0.23046143602E+02  0.88641709453E+01  0.29320267851E+02  0.00000000000E+00 0.  1.
</event>
<event>
 5    1  0.1055265E-009  0.9118800E+02  0.7815553E-02  0.1125453E+00
         25   -1    0    0    0    0  0.00000000000E+00  0.00000000000E+00  0.99999998245E-14  0.12509000000E+03  0.12509000000E+03 0.  0.
        -11    1    3    3    0    0 -0.44823343596E+02  0.16272419752E+02 -0.12364466682E+02  0.49262600543E+02  0.51100000000E-03 0. -1.
         23    2    1    0    0    0  0.19611634507E+01  0.21282273630E+02 -0.18639748551E+02  0.96731199620E+02  0.92480827315E+02 0.  0.
         11    1    3    3    0    0  0.46784507047E+02  0.50098538783E+01 -0.62752818699E+01  0.47468599076E+02  0.51100000000E-03 0.  1.
         22    1    1    0    0    0 -0.19611634507E+01 -0.21282273630E+02  0.18639748551E+02  0.28358800380E+02  0.00000000000E+00 0. -1.
</event>
<event>
 5    1  0.1055265E-009  0.9118800E+02  0.7815553E-02  0.1125453E+00
         25   -1    0    0    0    0  0.00000000000E+00  0.00000000000E+00  0.99999998245E-14  0.12509000000E+03  0.12509000000E+03 0.  0.
        -11    1    3    3    0    0  0.26579748993E+02 -0.56408180774E+02 -0.15926186102E+01  0.62377097954E+02  0.51100000000E-03 0.  1.
         23    2    1    0    0    0  0.11401443146E+02 -0.26159729164E+02 -0.38488681970E+01  0.96295241412E+02  0.91889256154E+02 0.  0.
         11    1    3    3    0    0 -0.15178305847E+02  0.30248451611E+02 -0.22562495867E+01  0.33918143459E+02  0.51100000000E-03 0. -1.
         22    1    1    0    0    0 -0.11401443146E+02  0.26159729164E+02  0.38488681970E+01  0.28794758588E+02  0.00000000000E+00 0.  1.
</event>
<event>
 5    1  0.1055265E-009  0.9118800E+02  0.7815553E-02  0.1125453E+00
         25   -1    0    0    0    0  0.00000000000E+00  0.00000000000E+00  0.99999998245E-14  0.12509000000E+03  0.12509000000E+03 0.  0.
        -11    1    3    3    0    0 -0.15756191054E+02  0.18211146782E+02 -0.39385142172E+02  0.46163761197E+02  0.51100000000E-03 0.  1.
         23    2    1    0    0    0  0.23527592265E+02 -0.30538203113E+01 -0.13954825009E+02  0.97565273710E+02  0.93602201239E+02 0.  0.
         11    1    3    3    0    0  0.39283783319E+02 -0.21264967094E+02  0.25430317163E+02  0.51401512513E+02  0.51100000000E-03 0. -1.
         22    1    1    0    0    0 -0.23527592265E+02  0.30538203113E+01  0.13954825009E+02  0.27524726290E+02  0.00000000000E+00 0.  1.
</event>
<event>
 5    1  0.1055265E-009  0.9118800E+02  0.7815553E-02  0.1125453E+00
         25   -1    0    0    0    0  0.00000000000E+00  0.00000000000E+00  0.99999998245E-14  0.12509000000E+03  0.12509000000E+03 0.  0.
        -11    1    3    3    0    0  0.10173404028E+02  0.16032400967E+02 -0.42055979540E+02  0.46143704290E+02  0.51100000000E-03 0.  1.
         23    2    1    0    0    0  0.21159431384E+02 -0.17454877705E+02 -0.51380865249E+01  0.97183115091E+02  0.93090083432E+02 0.  0.
         11    1    3    3    0    0  0.10986027356E+02 -0.33487278672E+02  0.36917893015E+02  0.51039410800E+02  0.51100000000E-03 0. -1.
         22    1    1    0    0    0 -0.21159431384E+02  0.17454877705E+02  0.51380865249E+01  0.27906884909E+02  0.00000000000E+00 0.  1.
</event>
<event>
 5    1  0.1055265E-009  0.9118800E+02  0.7815553E-02  0.1125453E+00
         25   -1    0    0    0    0  0.00000000000E+00  0.00000000000E+00  0.99999998245E-14  0.12509000000E+03  0.12509000000E+03 0.  0.
        -11    1    3    3    0    0  0.19391873522E+02  0.31239735439E+02 -0.85948960557E+01  0.37760271019E+02  0.51100000000E-03 0. -1.
         23    2    1    0    0    0  0.11917659349E+02 -0.25125397645E+02 -0.12178475622E+02  0.94731615991E+02  0.89735431066E+02 0.  0.
         11    1    3    3    0    0 -0.74742141739E+01 -0.56365133084E+02 -0.35835795665E+01  0.56971344971E+02  0.51100000000E-03 0.  1.
         22    1    1    0    0    0 -0.11917659349E+02  0.25125397645E+02  0.12178475622E+02  0.30358384009E+02  0.00000000000E+00 0. -1.
</event>
<event>
 5    1  0.1055265E-009  0.9118800E+02  0.7815553E-02  0.1125453E+00
         25   -1    0    0    0    0  0.00000000000E+00  0.00000000000E+00  0.99999998245E-14  0.12509000000E+03  0.12509000000E+03 0.  0.
        -11    1    3    3    0    0 -0.22805658725E+02  0.23582770036E+01 -0.38778950141E+02  0.45049600604E+02  0.51100000000E-03 0. -1.
         23    2    1    0    0    0 -0.29325102307E+02  0.37694313499E+01  0.96906433978E+01  0.93976035169E+02  0.88675906416E+02 0.  0.
         11    1    3    3    0    0 -0.65194435821E+01  0.14111543463E+01  0.48469593539E+02  0.48926434565E+02  0.51100000000E-03 0.  1.
         22    1    1    0    0    0  0.29325102307E+02 -0.37694313499E+01 -0.96906433978E+01  0.31113964831E+02  0.00000000000E+00 0.  1.
</event>
<event>
 5    1  0.1055265E-009  0.9118800E+02  0.7815553E-02  0.1125453E+00
         25   -1    0    0    0    0  0.00000000000E+00  0.00000000000E+00  0.99999998245E-14  0.12509000000E+03  0.12509000000E+03 0.  0.
        -11    1    3    3    0    0  0.17300083183E+02 -0.56874419549E+02 -0.13869555384E+02  0.61043894403E+02  0.51100000000E-03 0.  1.
         23    2    1    0    0    0  0.63683192028E+01 -0.27795140726E+02  0.30384709911E+01  0.96413221181E+02  0.92049723385E+02 0.  0.
         11    1    3    3    0    0 -0.10931763980E+02  0.29079278823E+02  0.16908026375E+02  0.35369326778E+02  0.51100000000E-03 0. -1.
         22    1    1    0    0    0 -0.63683192028E+01  0.27795140726E+02 -0.30384709911E+01  0.28676778819E+02  0.00000000000E+00 0.  1.
</event>
<event>
 5    1  0.1055265E-009  0.9118800E+02  0.7815553E-02  0.1125453E+00
         25   -1    0    0    0    0  0.00000000000E+00  0.00000000000E+00  0.99999998245E-14  0.12509000000E+03  0.12509000000E+03 0.  0.
        -11    1    3    3    0    0  0.47587727648E+00  0.59751506520E+02  0.29974470019E+01  0.59828535661E+02  0.51100000000E-03 0. -1.
         23    2    1    0    0    0  0.10072920828E+02  0.24866467735E+02 -0.69946821795E+01  0.97364009839E+02  0.93332844602E+02 0.  0.
         11    1    3    3    0    0  0.95970435516E+01 -0.34885038784E+02 -0.99921291814E+01  0.37535474178E+02  0.51100000000E-03 0.  1.
         22    1    1    0    0    0 -0.10072920828E+02 -0.24866467735E+02  0.69946821795E+01  0.27725990161E+02  0.00000000000E+00 0. -1.
</event>
<event>
 5    1  0.1055265E-009  0.9118800E+02  0.7815553E-02  0.1125453E+00
         25   -1    0    0    0    0  0.00000000000E+00  0.00000000000E+00  0.99999998245E-14  0.12509000000E+03  0.12509000000E+03 0.  0.
        -11    1    3    3    0    0 -0.38094077776E+02 -0.32287000684E+02 -0.12898573118E+02  0.51575016854E+02  0.51100000000E-03 0. -1.
         23    2    1    0    0    0 -0.49985316630E+01 -0.63792870527E+01 -0.27772405104E+02  0.96159270536E+02  0.91703970485E+02 0.  0.
         11    1    3    3    0    0  0.33095546113E+02  0.25907713631E+02 -0.14873831986E+02  0.44584253682E+02  0.51100000000E-03 0.  1.
         22    1    1    0    0    0  0.49985316630E+01  0.63792870527E+01  0.27772405104E+02  0.28930729464E+02  0.00000000000E+00 0. -1.
</event>
<event>
 5    1  0.1055265E-009  0.9118800E+02  0.7815553E-02  0.1125453E+00
         25   -1    0    0    0    0  0.00000000000E+00  0.00000000000E+00  0.99999998245E-14  0.12509000000E+03  0.12509000000E+03 0.  0.
        -11    1    3    3    0    0 -0.23392660460E+02 -0.18608567557E+02 -0.17855173153E+02  0.34818135483E+02  0.51100000000E-03 0.  1.
         23    2    1    0    0    0  0.13840523016E+02  0.63446391858E+01  0.24342585147E+02  0.96378051697E+02  0.92001917771E+02 0.  0.
         11    1    3    3    0    0  0.37233183476E+02  0.24953206743E+02  0.42197758300E+02  0.61559916214E+02  0.51100000000E-03 0. -1.
         22    1    1    0    0    0 -0.13840523016E+02 -0.63446391858E+01 -0.24342585147E+02  0.28711948303E+02  0.00000000000E+00 0. -1.
</event>
<event>
 5    1  0.1055265E-009  0.9118800E+02  0.7815553E-02  0.1125453E+00
         25   -1    0    0    0    0  0.00000000000E+00  0.00000000000E+00  0.99999998245E-14  0.12509000000E+03  0.12509000000E+03 0.  0.
        -11    1    3    3    0    0 -0.52538051232E+01 -0.11816899588E+02 -0.56764925592E+02  0.58219398502E+02  0.51100000000E-03 0. -1.
         23    2    1    0    0    0  0.13406585470E+02 -0.22985609267E+01 -0.29523968423E+02  0.92583314107E+02  0.86689015586E+02 0.  0.
         11    1    3    3    0    0  0.18660390593E+02  0.95183386612E+01  0.27240957170E+02  0.34363915605E+02  0.51100000000E-03 0.  1.
         22    1    1    0    0    0 -0.13406585470E+02  0.22985609267E+01  0.29523968423E+02  0.32506685893E+02  0.00000000000E+00 0. -1.
</event>
<event>
 5    1  0.1055265E-009  0.9118800E+02  0.7815553E-02  0.1125453E+00
         25   -1    0    0    0    0  0.00000000000E+00  0.00000000000E+00  0.99999998245E-14  0.12509000000E+03  0.12509000000E+03 0.  0.
        -11    1    3    3    0    0  0.15329415232E+02 -0.27558381084E+02  0.28076878535E+02  0.42222819042E+02  0.51100000000E-03 0.  1.
         23    2    1    0    0    0  0.18762847093E+02  0.32118250648E+01 -0.18757133214E+02  0.98365660950E+02  0.94665796127E+02 0.  0.
         11    1    3    3    0    0  0.34334318606E+01  0.30770206148E+02 -0.46834011749E+02  0.56142841908E+02  0.51100000000E-03 0. -1.
         22    1    1    0    0    0 -0.18762847093E+02 -0.32118250648E+01  0.18757133214E+02  0.26724339050E+02  0.00000000000E+00 0. -1.
</event>
<event>
 5    1  0.1055265E-009  0.9118800E+02  0.7815553E-02  0.1125453E+00
         25   -1    0    0    0    0  0.00000000000E+00  0.00000000000E+00  0.99999998245E-14  0.12509000000E+03  0.12509000000E+03 0.  0.
        -11    1    3    3    0    0  0.19775796909E+02 -0.28890565423E+02 -0.13724180810E+02  0.37604521710E+02  0.51100000000E-03 0. -1.
         23    2    1    0    0    0 -0.49559203561E+01  0.37192885070E+01  0.28213902527E+02  0.96203696163E+02  0.91764549832E+02 0.  0.
         11    1    3    3    0    0 -0.24731717265E+02  0.32609853930E+02  0.41938083338E+02  0.58599174453E+02  0.51100000000E-03 0.  1.
         22    1    1    0    0    0  0.49559203561E+01 -0.37192885070E+01 -0.28213902527E+02  0.28886303837E+02  0.00000000000E+00 0.  1.
</event>
<event>
 5    1  0.1055265E-009  0.9118800E+02  0.7815553E-02  0.1125453E+00
         25   -1    0    0    0    0  0.00000000000E+00  0.00000000000E+00  0.99999998245E-14  0.12509000000E+03  0.12509000000E+03 0.  0.
        -11    1    3    3    0    0 -0.33906700059E+02  0.40402732094E+02 -0.32593865947E+02  0.62003267391E+02  0.51100000000E-03 0. -1.
         23    2    1    0    0    0 -0.13638139710E+02  0.18999004212E+02 -0.20930643999E+02  0.93704448005E+02  0.88291962838E+02 0.  0.
         11    1    3    3    0    0  0.20268560349E+02 -0.21403727882E+02  0.11663221947E+02  0.31701180614E+02  0.51100000000E-03 0.  1.
         22    1    1    0    0    0  0.13638139710E+02 -0.18999004212E+02  0.20930643999E+02  0.31385551995E+02  0.00000000000E+00 0. -1.
</event>
<event>
 5    1  0.1055265E-009  0.9118800E+02  0.7815553E-02  0.1125453E+00
         25   -1    0    0    0    0  0.00000000000E+00  0.00000000000E+00  0.99999998245E-14  0.12509000000E+03  0.12509000000E+03 0.  0.
        -11    1    3    3    0    0  0.44619373639E+02  0.21993980265E+01  0.97766906953E+01  0.45730837919E+02  0.51100000000E-03 0.  1.
         23    2    1    0    0    0  0.95537770530E+01  0.20104796550E+01 -0.26899800088E+02  0.96473292831E+02  0.92131320953E+02 0.  0.
         11    1    3    3    0    0 -0.35065596586E+02 -0.18891837143E+00 -0.36676490783E+02  0.50742454912E+02  0.51100000000E-03 0. -1.
         22    1    1    0    0    0 -0.95537770530E+01 -0.20104796550E+01  0.26899800088E+02  0.28616707169E+02  0.00000000000E+00 0. -1.
</event>
<event>
 5    1  0.1055265E-009  0.9118800E+02  0.7815553E-02  0.1125453E+00
         25   -1    0    0    0    0  0.00000000000E+00  0.00000000000E+00  0.99999998245E-14  0.12509000000E+03  0.12509000000E+03 0.  0.
        -11    1    3    3    0    0  0.27311808248E+01  0.22267187312E+02 -0.38987079880E+02  0.44980877908E+02  0.51100000000E-03 0.  1.
         23    2    1    0    0    0  0.25174357594E+02  0.12777218326E+02  0.60779566683E+01  0.96211856956E+02  0.91775673646E+02 0.  0.
         11    1    3    3    0    0  0.22443176769E+02 -0.94899689866E+01  0.45065036549E+02  0.51230979048E+02  0.51100000000E-03 0. -1.
         22    1    1    0    0    0 -0.25174357594E+02 -0.12777218326E+02 -0.60779566683E+01  0.28878143044E+02  0.00000000000E+00 0. -1.
</event>
<event>
 5    1  0.1055265E-009  0.9118800E+02  0.7815553E-02  0.1125453E+00
         25   -1    0    0    0    0  0.00000000000E+00  0.00000000000E+00  0.99999998245E-14  0.12509000000E+03  0.12509000000E+03 0.  0.
        -11    1    3    3    0    0 -0.40305957951E+02 -0.21502073299E+02  0.81027162302E+01  0.46395726237E+02  0.51100000000E-03 0.  1.
         23    2    1    0    0    0 -0.82878912208E+01  0.17024918884E+02  0.19647253293E+02  0.97803527786E+02  0.93920064318E+02 0.  0.
         11    1    3    3    0    0  0.32018066730E+02  0.38526992183E+02  0.11544537063E+02  0.51407801549E+02  0.51100000000E-03 0. -1.
         22    1    1    0    0    0  0.82878912208E+01 -0.17024918884E+02 -0.19647253293E+02  0.27286472214E+02  0.00000000000E+00 0. -1.
</event>
<event>
 4    1  0.1055265E-009  0.9118800E+02  0.7815553E-02  0.1125453E+00
         25   -1    0    0    0    0  0.00000000000E+00  0.00000000000E+00  0.99999998245E-14  0.12509000000E+03  0.12509000000E+03 0.  0.
        -11    1    1    0    0    0  0.52063687890E+02  0.20241817004E+02 -0.88299467188E+01  0.56553750642E+02  0.51100000000E-03 0.  1.
         11    1    1    0    0    0 -0.50858306671E+01 -0.12228562390E+02 -0.10707023974E+02  0.17030671576E+02  0.51100000000E-03 0. -1.
         22    1    1    0    0    0 -0.46977857223E+02 -0.80132546142E+01  0.19536970693E+02  0.51505577782E+02  0.00000000000E+00 0.  1.
</event>
<event>
 5    1  0.1055265E-009  0.9118800E+02  0.7815553E-02  0.1125453E+00
         25   -1    0    0    0    0  0.00000000000E+00  0.00000000000E+00  0.99999998245E-14  0.12509000000E+03  0.12509000000E+03 0.  0.
        -11    1    3    3    0    0 -0.28524444004E+02 -0.22036099985E+02 -0.29966273087E+02  0.46874418730E+02  0.51100000000E-03 0.  1.
         23    2    1    0    0    0  0.18744635637E+01 -0.27640384000E+02  0.83970543205E+01  0.96141511912E+02  0.91679743401E+02 0.  0.
         11    1    3    3    0    0  0.30398907567E+02 -0.56042840149E+01  0.38363327407E+02  0.49267093182E+02  0.51100000000E-03 0. -1.
         22    1    1    0    0    0 -0.18744635637E+01  0.27640384000E+02 -0.83970543205E+01  0.28948488088E+02  0.00000000000E+00 0.  1.
</event>
<event>
 5    1  0.1055265E-009  0.9118800E+02  0.7815553E-02  0.1125453E+00
         25   -1    0    0    0    0  0.00000000000E+00  0.00000000000E+00  0.99999998245E-14  0.12509000000E+03  0.12509000000E+03 0.  0.
        -11    1    3    3    0    0 -0.83489169879E+01  0.35773502399E+02  0.65665790083E+00  0.36740700710E+02  0.51100000000E-03 0.  1.
         23    2    1    0    0    0  0.19739374973E+02 -0.12602849558E+02 -0.17829868834E+02  0.95655683906E+02  0.91014454344E+02 0.  0.
         11    1    3    3    0    0  0.28088291961E+02 -0.48376351957E+02 -0.18486526735E+02  0.58914983196E+02  0.51100000000E-03 0. -1.
         22    1    1    0    0    0 -0.19739374973E+02  0.12602849558E+02  0.17829868834E+02  0.29434316094E+02  0.00000000000E+00 0. -1.
</event>
<event>
 5    1  0.1055265E-009  0.9118800E+02  0.7815553E-02  0.1125453E+00
         25   -1    0    0    0    0  0.00000000000E+00  0.00000000000E+00  0.99999998245E-14  0.12509000000E+03  0.12509000000E+03 0.  0.
        -11    1    3    3    0    0 -0.28058881794E+02 -0.42649870077E+02  0.16914811747E+02  0.53781252513E+02  0.51100000000E-03 0.  1.
         23    2    1    0    0    0 -0.81939032314E+01 -0.80936808610E+01  0.27714617355E+02  0.95077540335E+02  0.90216356283E+02 0.  0.
         11    1    3    3    0    0  0.19864978563E+02  0.34556189216E+02  0.10799805608E+02  0.41296287822E+02  0.51100000000E-03 0. -1.
         22    1    1    0    0    0  0.81939032314E+01  0.80936808610E+01 -0.27714617355E+02  0.30012459665E+02  0.00000000000E+00 0. -1.
</event>
<event>
 5    1  0.1055265E-009  0.9118800E+02  0.7815553E-02  0.1125453E+00
         25   -1    0    0    0    0  0.00000000000E+00  0.00000000000E+00  0.99999998245E-14  0.12509000000E+03  0.12509000000E+03 0.  0.
        -11    1    3    3    0    0 -0.39487757602E+02  0.16509448950E+02  0.22015096391E+02  0.48130129591E+02  0.51100000000E-03 0. -1.
         23    2    1    0    0    0  0.70724102800E+01  0.10650690627E+02  0.26895352808E+02  0.95310540625E+02  0.90538847759E+02 0.  0.
         11    1    3    3    0    0  0.46560167882E+02 -0.58587583225E+01  0.48802564172E+01  0.47180411033E+02  0.51100000000E-03 0.  1.
         22    1    1    0    0    0 -0.70724102800E+01 -0.10650690627E+02 -0.26895352808E+02  0.29779459375E+02  0.00000000000E+00 0. -1.
</event>
<event>
 5    1  0.1055265E-009  0.9118800E+02  0.7815553E-02  0.1125453E+00
         25   -1    0    0    0    0  0.00000000000E+00  0.00000000000E+00  0.99999998245E-14  0.12509000000E+03  0.12509000000E+03 0.  0.
        -11    1    3    3    0    0 -0.76118142042E+01  0.36286700468E+02 -0.49836747174E+02  0.62115744505E+02  0.51100000000E-03 0. -1.
         23    2    1    0    0    0 -0.23010508038E+01  0.10676956504E+02 -0.23206202836E+02  0.99441996471E+02  0.96077523787E+02 0.  0.
         11    1    3    3    0    0  0.53107634005E+01 -0.25609743964E+02  0.26630544338E+02  0.37326251966E+02  0.51100000000E-03 0.  1.
         22    1    1    0    0    0  0.23010508038E+01 -0.10676956504E+02  0.23206202836E+02  0.25648003529E+02  0.00000000000E+00 0. -1.
</event>
<event>
 5    1  0.1055265E-009  0.9118800E+02  0.7815553E-02  0.1125453E+00
         25   -1    0    0    0    0  0.00000000000E+00  0.00000000000E+00  0.99999998245E-14  0.12509000000E+03  0.12509000000E+03 0.  0.
        -11    1    3    3    0    0 -0.16299634251E+02  0.44792955778E+02  0.13003727729E+02  0.49408338356E+02  0.51100000000E-03 0.  1.
         23    2    1    0    0    0 -0.26845238923E+02  0.51727850560E+01 -0.94623513101E+01  0.96159727786E+02  0.91704594200E+02 0.  0.
         11    1    3    3    0    0 -0.10545604672E+02 -0.39620170722E+02 -0.22466079039E+02  0.46751389429E+02  0.51100000000E-03 0. -1.
         22    1    1    0    0    0  0.26845238923E+02 -0.51727850560E+01  0.94623513101E+01  0.28930272214E+02  0.00000000000E+00 0. -1.
</event>
<event>
 5    1  0.1055265E-009  0.9118800E+02  0.7815553E-02  0.1125453E+00
         25   -1    0    0    0    0  0.00000000000E+00  0.00000000000E+00  0.99999998245E-14  0.12509000000E+03  0.12509000000E+03 0.  0.
        -11    1    3    3    0    0 -0.40362467123E+02 -0.14463421399E+02 -0.38970193843E+01  0.43052364292E+02  0.51100000000E-03 0.  1.
         23    2    1    0    0    0  0.22461132609E+01  0.14815633869E+01 -0.29642054192E+02  0.95326071638E+02  0.90560303126E+02 0.  0.
         11    1    3    3    0    0  0.42608580384E+02  0.15944984786E+02 -0.25745034807E+02  0.52273707345E+02  0.51100000000E-03 0. -1.
         22    1    1    0    0    0 -0.22461132609E+01 -0.14815633869E+01  0.29642054192E+02  0.29763928362E+02  0.00000000000E+00 0. -1.
</event>
<event>
 5    1  0.1055265E-009  0.9118800E+02  0.7815553E-02  0.1125453E+00
         25   -1    0    0    0    0  0.00000000000E+00  0.00000000000E+00  0.99999998245E-14  0.12509000000E+03  0.12509000000E+03 0.  0.
        -11    1    3    3    0    0  0.26732413292E+02  0.80568257412E+01 -0.39194084424E+02  0.48121830966E+02  0.51100000000E-03 0.  1.
         23    2    1    0    0    0  0.25422160430E+02  0.80338786691E+01  0.94648675322E+01  0.96798425905E+02  0.92571713244E+02 0.  0.
         11    1    3    3    0    0 -0.13102528620E+01 -0.22947072063E-01  0.48658951956E+02  0.48676594939E+02  0.51100000000E-03 0. -1.
         22    1    1    0    0    0 -0.25422160430E+02 -0.80338786691E+01 -0.94648675322E+01  0.28291574095E+02  0.00000000000E+00 0. -1.
</event>
<event>
 5    1  0.1055265E-009  0.9118800E+02  0.7815553E-02  0.1125453E+00
         25   -1    0    0    0    0  0.00000000000E+00  0.00000000000E+00  0.99999998245E-14  0.12509000000E+03  0.12509000000E+03 0.  0.
        -11    1    3    3    0    0 -0.25604643431E+02  0.10393440308E+02 -0.16908622446E+02  0.32396340533E+02  0.51100000000E-03 0.  1.
         23    2    1    0    0    0  0.18438518623E+02 -0.22587650304E+02  0.10792151494E+02  0.93998981214E+02  0.88708269176E+02 0.  0.
         11    1    3    3    0    0  0.44043162054E+02 -0.32981090612E+02  0.27700773941E+02  0.61602640681E+02  0.51100000000E-03 0. -1.
         22    1    1    0    0    0 -0.18438518623E+02  0.22587650304E+02 -0.10792151494E+02  0.31091018786E+02  0.00000000000E+00 0. -1.
</event>
<event>
 5    1  0.1055265E-009  0.9118800E+02  0.7815553E-02  0.1125453E+00
         25   -1    0    0    0    0  0.00000000000E+00  0.00000000000E+00  0.99999998245E-14  0.12509000000E+03  0.12509000000E+03 0.  0.
        -11    1    3    3    0    0 -0.61745254158E+01  0.18354079730E+02 -0.34217019351E+02  0.39316681197E+02  0.51100000000E-03 0.  1.
         23    2    1    0    0    0 -0.20955338774E+02 -0.19256830604E+02  0.56408324897E+01  0.96076714436E+02  0.91591289529E+02 0.  0.
         11    1    3    3    0    0 -0.14780813358E+02 -0.37610910334E+02  0.39857851841E+02  0.56760033239E+02  0.51100000000E-03 0. -1.
         22    1    1    0    0    0  0.20955338774E+02  0.19256830604E+02 -0.56408324897E+01  0.29013285564E+02  0.00000000000E+00 0. -1.
</event>
<event>
 5    1  0.1055265E-009  0.9118800E+02  0.7815553E-02  0.1125453E+00
         25   -1    0    0    0    0  0.00000000000E+00  0.00000000000E+00  0.99999998245E-14  0.12509000000E+03  0.12509000000E+03 0.  0.
        -11    1    3    3    0    0 -0.22062550592E+02 -0.26729457465E+02  0.19254696818E+02  0.39647993452E+02  0.51100000000E-03 0. -1.
         23    2    1    0    0    0  0.19451734960E+02  0.49445099607E+01  0.25940344736E+02  0.92291834552E+02  0.86267392845E+02 0.  0.
         11    1    3    3    0    0  0.41514285552E+02  0.31673967425E+02  0.66856479186E+01  0.52643841100E+02  0.51100000000E-03 0.  1.
         22    1    1    0    0    0 -0.19451734960E+02 -0.49445099607E+01 -0.25940344736E+02  0.32798165448E+02  0.00000000000E+00 0.  1.
</event>
<event>
 5    1  0.1055265E-009  0.9118800E+02  0.7815553E-02  0.1125453E+00
         25   -1    0    0    0    0  0.00000000000E+00  0.00000000000E+00  0.99999998245E-14  0.12509000000E+03  0.12509000000E+03 0.  0.
        -11    1    3    3    0    0  0.29470430330E+02 -0.30311168741E+02  0.40274875126E+02  0.58389543421E+02  0.51100000000E-03 0.  1.
         23    2    1    0    0    0  0.10531682043E+02 -0.26131764142E+02  0.84190757636E+01  0.95684791948E+02  0.91054451564E+02 0.  0.
         11    1    3    3    0    0 -0.18938748286E+02  0.41794045984E+01 -0.31855799362E+02  0.37295248527E+02  0.51100000000E-03 0. -1.
         22    1    1    0    0    0 -0.10531682043E+02  0.26131764142E+02 -0.84190757636E+01  0.29405208052E+02  0.00000000000E+00 0.  1.
</event>
<event>
 5    1  0.1055265E-009  0.9118800E+02  0.7815553E-02  0.1125453E+00
         25   -1    0    0    0    0  0.00000000000E+00  0.00000000000E+00  0.99999998245E-14  0.12509000000E+03  0.12509000000E+03 0.  0.
        -11    1    3    3    0    0 -0.33416174417E+02  0.20200229200E+01  0.26317471192E+02  0.42583218473E+02  0.51100000000E-03 0. -1.
         23    2    1    0    0    0 -0.91542822418E+01  0.21948550639E+02 -0.16837881681E+02  0.95951468499E+02  0.91420075963E+02 0.  0.
         11    1    3    3    0    0  0.24261892176E+02  0.19928527719E+02 -0.43155352873E+02  0.53368250026E+02  0.51100000000E-03 0.  1.
         22    1    1    0    0    0  0.91542822418E+01 -0.21948550639E+02  0.16837881681E+02  0.29138531501E+02  0.00000000000E+00 0.  1.
</event>
<event>
 5    1  0.1055265E-009  0.9118800E+02  0.7815553E-02  0.1125453E+00
         25   -1    0    0    0    0  0.00000000000E+00  0.00000000000E+00  0.99999998245E-14  0.12509000000E+03  0.12509000000E+03 0.  0.
        -11    1    3    3    0    0 -0.48354380302E+02 -0.11877919844E+02 -0.87684825497E+01  0.50558059305E+02  0.51100000000E-03 0.  1.
         23    2    1    0    0    0 -0.27456441439E+02 -0.11084580440E+02  0.22309006920E+02  0.88016884542E+02  0.79828291193E+02 0.  0.
         11    1    3    3    0    0  0.20897938863E+02  0.79333940420E+00  0.31077489470E+02  0.37458825237E+02  0.51100000000E-03 0. -1.
         22    1    1    0    0    0  0.27456441439E+02  0.11084580440E+02 -0.22309006920E+02  0.37073115458E+02  0.00000000000E+00 0.  1.
</event>
<event>
 5    1  0.1055265E-009  0.9118800E+02  0.7815553E-02  0.1125453E+00
         25   -1    0    0    0    0  0.00000000000E+00  0.00000000000E+00  0.99999998245E-14  0.12509000000E+03  0.12509000000E+03 0.  0.
        -11    1    3    3    0    0 -0.16664606008E+02 -0.22188432226E+02 -0.29896252276E+02  0.40789968356E+02  0.51100000000E-03 0.  1.
         23    2    1    0    0    0  0.13008213930E+02  0.21497456532E+02 -0.15649620577E+02  0.95488228243E+02  0.90784012038E+02 0.  0.
         11    1    3    3    0    0  0.29672819938E+02  0.43685888757E+02  0.14246631699E+02  0.54698259887E+02  0.51100000000E-03 0. -1.
         22    1    1    0    0    0 -0.13008213930E+02 -0.21497456532E+02  0.15649620577E+02  0.29601771757E+02  0.00000000000E+00 0. -1.
</event>
<event>
 5    1  0.1055265E-009  0.9118800E+02  0.7815553E-02  0.1125453E+00
         25   -1    0    0    0    0  0.00000000000E+00  0.00000000000E+00  0.99999998245E-14  0.12509000000E+03  0.12509000000E+03 0.  0.
        -11    1    3    3    0    0  0.13262921576E+02  0.85171818813E+01 -0.28011651231E+02  0.32141874259E+02  0.51100000000E-03 0.  1.
         23    2    1    0    0    0 -0.95291654369E+01 -0.64714147253E+01  0.28202840088E+02  0.94625522465E+02  0.89587416026E+02 0.  0.
         11    1    3    3    0    0 -0.22792087013E+02 -0.14988596607E+02  0.56214491319E+02  0.62483648206E+02  0.51100000000E-03 0. -1.
         22    1    1    0    0    0  0.95291654369E+01  0.64714147253E+01 -0.28202840088E+02  0.30464477535E+02  0.00000000000E+00 0. -1.
</event>
<event>
 5    1  0.1055265E-009  0.9118800E+02  0.7815553E-02  0.1125453E+00
         25   -1    0    0    0    0  0.00000000000E+00  0.00000000000E+00  0.99999998245E-14  0.12509000000E+03  0.12509000000E+03 0.  0.
        -11    1    3    3    0    0 -0.39647520233E+02  0.32511665919E+01  0.40596045980E+01  0.39987202135E+02  0.51100000000E-03 0.  1.
         23    2    1    0    0    0 -0.33479519664E+01  0.80453127696E+01 -0.32328117311E+02  0.91608019640E+02  0.85270078301E+02 0.  0.
         11    1    3    3    0    0  0.36299568266E+02  0.47941461777E+01 -0.36387721909E+02  0.51620817505E+02  0.51100000000E-03 0. -1.
         22    1    1    0    0    0  0.33479519664E+01 -0.80453127696E+01  0.32328117311E+02  0.33481980360E+02  0.00000000000E+00 0. -1.
</event>
<event>
 5    1  0.1055265E-009  0.9118800E+02  0.7815553E-02  0.1125453E+00
         25   -1    0    0    0    0  0.00000000000E+00  0.00000000000E+00  0.99999998245E-14  0.12509000000E+03  0.12509000000E+03 0.  0.
        -11    1    3    3    0    0  0.24744788825E+02  0.31310232377E+02 -0.36879148545E+01  0.40077873468E+02  0.51100000000E-03 0. -1.
         23    2    1    0    0    0 -0.23999037696E+02  0.96824254251E+01  0.13232546792E+02  0.96024496959E+02  0.91519946182E+02 0.  0.
         11    1    3    3    0    0 -0.48743826521E+02 -0.21627806952E+02  0.16920461646E+02  0.55946623491E+02  0.51100000000E-03 0.  1.
         22    1    1    0    0    0  0.23999037696E+02 -0.96824254251E+01 -0.13232546792E+02  0.29065503041E+02  0.00000000000E+00 0.  1.
</event>
<event>
 5    1  0.1055265E-009  0.9118800E+02  0.7815553E-02  0.1125453E+00
         25   -1    0    0    0    0  0.00000000000E+00  0.00000000000E+00  0.99999998245E-14  0.12509000000E+03  0.12509000000E+03 0.  0.
        -11    1    3    3    0    0 -0.15139472185E+02 -0.20903357683E+02 -0.30250243697E+02  0.39764698219E+02  0.51100000000E-03 0. -1.
         23    2    1    0    0    0  0.18579665790E+02  0.18478825713E+02 -0.19944971509E+01  0.98809798336E+02  0.95250864814E+02 0.  0.
         11    1    3    3    0    0  0.33719137975E+02  0.39382183396E+02  0.28255746546E+02  0.59045100118E+02  0.51100000000E-03 0.  1.
         22    1    1    0    0    0 -0.18579665790E+02 -0.18478825713E+02  0.19944971509E+01  0.26280201664E+02  0.00000000000E+00 0.  1.
</event>
<event>
 5    1  0.1055265E-009  0.9118800E+02  0.7815553E-02  0.1125453E+00
         25   -1    0    0    0    0  0.00000000000E+00  0.00000000000E+00  0.99999998245E-14  0.12509000000E+03  0.12509000000E+03 0.  0.
        -11    1    3    3    0    0  0.15476665200E+02  0.16454700596E+02 -0.54845501289E+02  0.59315371948E+02  0.51100000000E-03 0.  1.
         23    2    1    0    0    0  0.21745552678E+02  0.48743061205E+01 -0.41012415855E+02  0.78414029998E+02  0.63008840053E+02 0.  0.
         11    1    3    3    0    0  0.62688874779E+01 -0.11580394475E+02  0.13833085434E+02  0.19098658050E+02  0.51100000000E-03 0. -1.
         22    1    1    0    0    0 -0.21745552678E+02 -0.48743061205E+01  0.41012415855E+02  0.46675970002E+02  0.00000000000E+00 0.  1.
</event>
<event>
 5    1  0.1055265E-009  0.9118800E+02  0.7815553E-02  0.1125453E+00
         25   -1    0    0    0    0  0.00000000000E+00  0.00000000000E+00  0.99999998245E-14  0.12509000000E+03  0.12509000000E+03 0.  0.
        -11    1    3    3    0    0 -0.17312795958E+02  0.35915194084E+01  0.33554920090E+02  0.37928413862E+02  0.51100000000E-03 0.  1.
         23    2    1    0    0    0 -0.17454593677E+01  0.13641904455E+02 -0.23469399858E+02  0.97887777383E+02  0.94032207492E+02 0.  0.
         11    1    3    3    0    0  0.15567336590E+02  0.10050385047E+02 -0.57024319948E+02  0.59959363522E+02  0.51100000000E-03 0. -1.
         22    1    1    0    0    0  0.17454593677E+01 -0.13641904455E+02  0.23469399858E+02  0.27202222617E+02  0.00000000000E+00 0. -1.
</event>
<event>
 5    1  0.1055265E-009  0.9118800E+02  0.7815553E-02  0.1125453E+00
         25   -1    0    0    0    0  0.00000000000E+00  0.00000000000E+00  0.99999998245E-14  0.12509000000E+03  0.12509000000E+03 0.  0.
        -11    1    3    3    0    0 -0.34632616314E+02 -0.23007445490E+02  0.10611111863E+02  0.42911028372E+02  0.51100000000E-03 0. -1.
         23    2    1    0    0    0 -0.13951292354E+02  0.19086971828E+02 -0.15721090083E+02  0.96698034142E+02  0.92435956649E+02 0.  0.
         11    1    3    3    0    0  0.20681323960E+02  0.42094417318E+02 -0.26332201946E+02  0.53787005770E+02  0.51100000000E-03 0.  1.
         22    1    1    0    0    0  0.13951292354E+02 -0.19086971828E+02  0.15721090083E+02  0.28391965858E+02  0.00000000000E+00 0.  1.
</event>
<event>
 5    1  0.1055265E-009  0.9118800E+02  0.7815553E-02  0.1125453E+00
         25   -1    0    0    0    0  0.00000000000E+00  0.00000000000E+00  0.99999998245E-14  0.12509000000E+03  0.12509000000E+03 0.  0.
        -11    1    3    3    0    0 -0.21485088240E+02  0.85989507247E+01  0.26637219080E+02  0.35285867013E+02  0.51100000000E-03 0.  1.
         23    2    1    0    0    0  0.22332855401E+02  0.12265402172E+02 -0.14731695431E+02  0.95658395030E+02  0.91018180429E+02 0.  0.
         11    1    3    3    0    0  0.43817943641E+02  0.36664514476E+01 -0.41368914511E+02  0.60372528018E+02  0.51100000000E-03 0. -1.
         22    1    1    0    0    0 -0.22332855401E+02 -0.12265402172E+02  0.14731695431E+02  0.29431604970E+02  0.00000000000E+00 0. -1.
</event>
<event>
 5    1  0.1055265E-009  0.9118800E+02  0.7815553E-02  0.1125453E+00
         25   -1    0    0    0    0  0.00000000000E+00  0.00000000000E+00  0.99999998245E-14  0.12509000000E+03  0.12509000000E+03 0.  0.
        -11    1    3    3    0    0  0.13087390646E+02  0.29005155985E+02 -0.51543262003E+02  0.60574637645E+02  0.51100000000E-03 0.  1.
         23    2    1    0    0    0  0.36401672883E+01  0.45351676414E+01 -0.30039413628E+02  0.94492860681E+02  0.89401989828E+02 0.  0.
         11    1    3    3    0    0 -0.94472233576E+01 -0.24469988343E+02  0.21503848376E+02  0.33918223036E+02  0.51100000000E-03 0. -1.
         22    1    1    0    0    0 -0.36401672883E+01 -0.45351676414E+01  0.30039413628E+02  0.30597139319E+02  0.00000000000E+00 0.  1.
</event>
<event>
 5    1  0.1055265E-009  0.9118800E+02  0.7815553E-02  0.1125453E+00
         25   -1    0    0    0    0  0.00000000000E+00  0.00000000000E+00  0.99999998245E-14  0.12509000000E+03  0.12509000000E+03 0.  0.
        -11    1    3    3    0    0 -0.24950153695E+02 -0.36191707550E+02 -0.58475947293E+01  0.44345735186E+02  0.51100000000E-03 0.  1.
         23    2    1    0    0    0 -0.30778347967E+02  0.93961307665E+00  0.18536509013E+02  0.89148495542E+02  0.81582243868E+02 0.  0.
         11    1    3    3    0    0 -0.58281942723E+01  0.37131320626E+02  0.24384103743E+02  0.44802760356E+02  0.51100000000E-03 0. -1.
         22    1    1    0    0    0  0.30778347967E+02 -0.93961307665E+00 -0.18536509013E+02  0.35941504458E+02  0.00000000000E+00 0.  1.
</event>
<event>
 5    1  0.1055265E-009  0.9118800E+02  0.7815553E-02  0.1125453E+00
         25   -1    0    0    0    0  0.00000000000E+00  0.00000000000E+00  0.99999998245E-14  0.12509000000E+03  0.12509000000E+03 0.  0.
        -11    1    3    3    0    0 -0.38089069053E+02  0.19515404421E+02 -0.10909944009E+02  0.44166220911E+02  0.51100000000E-03 0. -1.
         23    2    1    0    0    0  0.83677397268E+01  0.18316167799E+02  0.17309912197E+02  0.98535638188E+02  0.94890135746E+02 0.  0.
         11    1    3    3    0    0  0.46456808780E+02 -0.11992366222E+01  0.28219856206E+02  0.54369417277E+02  0.51100000000E-03 0.  1.
         22    1    1    0    0    0 -0.83677397268E+01 -0.18316167799E+02 -0.17309912197E+02  0.26554361812E+02  0.00000000000E+00 0.  1.
</event>
<event>
 5    1  0.1055265E-009  0.9118800E+02  0.7815553E-02  0.1125453E+00
         25   -1    0    0    0    0  0.00000000000E+00  0.00000000000E+00  0.99999998245E-14  0.12509000000E+03  0.12509000000E+03 0.  0.
        -11    1    3    3    0    0 -0.38190154880E+02  0.14714028986E+02  0.41442983589E+02  0.58245269918E+02  0.51100000000E-03 0. -1.
         23    2    1    0    0    0 -0.39188086670E+01  0.15831047055E+02  0.22130313879E+02  0.97599457906E+02  0.93647873862E+02 0.  0.
         11    1    3    3    0    0  0.34271346213E+02  0.11170180689E+01 -0.19312669710E+02  0.39354187988E+02  0.51100000000E-03 0.  1.
         22    1    1    0    0    0  0.39188086670E+01 -0.15831047055E+02 -0.22130313879E+02  0.27490542094E+02  0.00000000000E+00 0. -1.
</event>
<event>
 5    1  0.1055265E-009  0.9118800E+02  0.7815553E-02  0.1125453E+00
         25   -1    0    0    0    0  0.00000000000E+00  0.00000000000E+00  0.99999998245E-14  0.12509000000E+03  0.12509000000E+03 0.  0.
        -11    1    3    3    0    0  0.36135267560E+02  0.17911755197E+02 -0.14608134952E+02  0.42895059656E+02  0.51100000000E-03 0. -1.
         23    2    1    0    0    0  0.13988388485E+02 -0.25077927131E+02  0.64805880904E+01  0.95652346160E+02  0.91009866841E+02 0.  0.
         11    1    3    3    0    0 -0.22146879075E+02 -0.42989682328E+02  0.21088723042E+02  0.52757286504E+02  0.51100000000E-03 0.  1.
         22    1    1    0    0    0 -0.13988388485E+02  0.25077927131E+02 -0.64805880904E+01  0.29437653840E+02  0.00000000000E+00 0.  1.
</event>
<event>
 5    1  0.1055265E-009  0.9118800E+02  0.7815553E-02  0.1125453E+00
         25   -1    0    0    0    0  0.00000000000E+00  0.00000000000E+00  0.99999998245E-14  0.12509000000E+03  0.12509000000E+03 0.  0.
        -11    1    3    3    0    0 -0.12747936214E+02  0.44269281696E+02  0.24885822849E+02  0.52360131386E+02  0.51100000000E-03 0.  1.
         23    2    1    0    0    0 -0.84351964714E+00  0.28310593607E+02 -0.12042014778E+02  0.94313201016E+02  0.89150258161E+02 0.  0.
         11    1    3    3    0    0  0.11904416567E+02 -0.15958688089E+02 -0.36927837627E+02  0.41953069631E+02  0.51100000000E-03 0. -1.
         22    1    1    0    0    0  0.84351964714E+00 -0.28310593607E+02  0.12042014778E+02  0.30776798984E+02  0.00000000000E+00 0.  1.
</event>
<event>
 5    1  0.1055265E-009  0.9118800E+02  0.7815553E-02  0.1125453E+00
         25   -1    0    0    0    0  0.00000000000E+00  0.00000000000E+00  0.99999998245E-14  0.12509000000E+03  0.12509000000E+03 0.  0.
        -11    1    3    3    0    0  0.69404386106E+01 -0.23764592205E+02 -0.22588128806E+02  0.33513416627E+02  0.51100000000E-03 0.  1.
         23    2    1    0    0    0 -0.13709861410E+02  0.26848956916E+02  0.46481952264E+01  0.94587008241E+02  0.89533622857E+02 0.  0.
         11    1    3    3    0    0 -0.20650300020E+02  0.50613549122E+02  0.27236324032E+02  0.61073591614E+02  0.51100000000E-03 0. -1.
         22    1    1    0    0    0  0.13709861410E+02 -0.26848956916E+02 -0.46481952264E+01  0.30502991759E+02  0.00000000000E+00 0. -1.
</event>
<event>
 5    1  0.1055265E-009  0.9118800E+02  0.7815553E-02  0.1125453E+00
         25   -1    0    0    0    0  0.00000000000E+00  0.00000000000E+00  0.99999998245E-14  0.12509000000E+03  0.12509000000E+03 0.  0.
        -11    1    3    3    0    0 -0.39629038842E+02 -0.10802930027E+00  0.37664977941E+02  0.54672872189E+02  0.51100000000E-03 0.  1.
         23    2    1    0    0    0  0.20856211423E+00  0.64243837500E+00  0.29795018176E+02  0.95287326742E+02  0.90506769384E+02 0.  0.
         11    1    3    3    0    0  0.39837600956E+02  0.75046767527E+00 -0.78699597654E+01  0.40614454553E+02  0.51100000000E-03 0. -1.
         22    1    1    0    0    0 -0.20856211423E+00 -0.64243837500E+00 -0.29795018176E+02  0.29802673258E+02  0.00000000000E+00 0.  1.
</event>
<event>
 5    1  0.1055265E-009  0.9118800E+02  0.7815553E-02  0.1125453E+00
         25   -1    0    0    0    0  0.00000000000E+00  0.00000000000E+00  0.99999998245E-14  0.12509000000E+03  0.12509000000E+03 0.  0.
        -11    1    3    3    0    0 -0.23017265121E+02 -0.10868400093E+02 -0.23262526720E+02  0.34482774887E+02  0.51100000000E-03 0.  1.
         23    2    1    0    0    0  0.39215130306E+01  0.17461287593E+02  0.23575388335E+02  0.95491456725E+02  0.90788460409E+02 0.  0.
         11    1    3    3    0    0  0.26938778152E+02  0.28329687686E+02  0.46837915055E+02  0.61008681838E+02  0.51100000000E-03 0. -1.
         22    1    1    0    0    0 -0.39215130306E+01 -0.17461287593E+02 -0.23575388335E+02  0.29598543275E+02  0.00000000000E+00 0. -1.
</event>
<event>
 5    1  0.1055265E-009  0.9118800E+02  0.7815553E-02  0.1125453E+00
         25   -1    0    0    0    0  0.00000000000E+00  0.00000000000E+00  0.99999998245E-14  0.12509000000E+03  0.12509000000E+03 0.  0.
        -11    1    3    3    0    0  0.15511788018E+02  0.13456858657E+02 -0.51838035258E+02  0.55757371818E+02  0.51100000000E-03 0. -1.
         23    2    1    0    0    0 -0.27759415155E+00 -0.12618711862E+02 -0.27733080754E+02  0.94619806110E+02  0.89579433983E+02 0.  0.
         11    1    3    3    0    0 -0.15789382169E+02 -0.26075570519E+02  0.24104954504E+02  0.38862434292E+02  0.51100000000E-03 0.  1.
         22    1    1    0    0    0  0.27759415155E+00  0.12618711862E+02  0.27733080754E+02  0.30470193890E+02  0.00000000000E+00 0.  1.
</event>
<event>
 5    1  0.1055265E-009  0.9118800E+02  0.7815553E-02  0.1125453E+00
         25   -1    0    0    0    0  0.00000000000E+00  0.00000000000E+00  0.99999998245E-14  0.12509000000E+03  0.12509000000E+03 0.  0.
        -11    1    3    3    0    0 -0.56761549476E+02  0.32071898623E+01  0.16549538129E+02  0.59211880381E+02  0.51100000000E-03 0. -1.
         23    2    1    0    0    0 -0.20385130061E+02  0.95379047127E+01  0.18161174304E+02  0.96170224655E+02  0.91718911376E+02 0.  0.
         11    1    3    3    0    0  0.36376419415E+02  0.63307148504E+01  0.16116361753E+01  0.36958344273E+02  0.51100000000E-03 0.  1.
         22    1    1    0    0    0  0.20385130061E+02 -0.95379047127E+01 -0.18161174304E+02  0.28919775345E+02  0.00000000000E+00 0.  1.
</event>
<event>
 5    1  0.1055265E-009  0.9118800E+02  0.7815553E-02  0.1125453E+00
         25   -1    0    0    0    0  0.00000000000E+00  0.00000000000E+00  0.99999998245E-14  0.12509000000E+03  0.12509000000E+03 0.  0.
        -11    1    3    3    0    0 -0.44601210851E+02  0.12523770488E+02  0.29766367976E+02  0.55064957090E+02  0.51100000000E-03 0.  1.
         23    2    1    0    0    0 -0.17728469579E+02  0.25411745023E+02  0.52345263061E+01  0.93666192395E+02  0.88237746534E+02 0.  0.
         11    1    3    3    0    0  0.26872741272E+02  0.12887974535E+02 -0.24531841670E+02  0.38601235305E+02  0.51100000000E-03 0. -1.
         22    1    1    0    0    0  0.17728469579E+02 -0.25411745023E+02 -0.52345263061E+01  0.31423807605E+02  0.00000000000E+00 0.  1.
</event>
<event>
 5    1  0.1055265E-009  0.9118800E+02  0.7815553E-02  0.1125453E+00
         25   -1    0    0    0    0  0.00000000000E+00  0.00000000000E+00  0.99999998245E-14  0.12509000000E+03  0.12509000000E+03 0.  0.
        -11    1    3    3    0    0 -0.22205256397E+02 -0.24310848049E+02  0.31490281938E+02  0.45560164632E+02  0.51100000000E-03 0.  1.
         23    2    1    0    0    0  0.13894177687E+02 -0.25288706322E+02 -0.37197667468E+01  0.95996985276E+02  0.91482335324E+02 0.  0.
         11    1    3    3    0    0  0.36099434085E+02 -0.97785827327E+00 -0.35210048684E+02  0.50436820644E+02  0.51100000000E-03 0. -1.
         22    1    1    0    0    0 -0.13894177687E+02  0.25288706322E+02  0.37197667468E+01  0.29093014724E+02  0.00000000000E+00 0. -1.
</event>
<event>
 5    1  0.1055265E-009  0.9118800E+02  0.7815553E-02  0.1125453E+00
         25   -1    0    0    0    0  0.00000000000E+00  0.00000000000E+00  0.99999998245E-14  0.12509000000E+03  0.12509000000E+03 0.  0.
        -11    1    3    3    0    0 -0.33695031191E+02 -0.21272493010E+02 -0.21212252304E+02  0.45142371824E+02  0.51100000000E-03 0.  1.
         23    2    1    0    0    0  0.16190331460E+02 -0.17199798733E+02 -0.18175034697E+02  0.95285775543E+02  0.90504625437E+02 0.  0.
         11    1    3    3    0    0  0.49885362651E+02  0.40726942768E+01  0.30372176073E+01  0.50143403719E+02  0.51100000000E-03 0. -1.
         22    1    1    0    0    0 -0.16190331460E+02  0.17199798733E+02  0.18175034697E+02  0.29804224457E+02  0.00000000000E+00 0. -1.
</event>
<event>
 5    1  0.1055265E-009  0.9118800E+02  0.7815553E-02  0.1125453E+00
         25   -1    0    0    0    0  0.00000000000E+00  0.00000000000E+00  0.99999998245E-14  0.12509000000E+03  0.12509000000E+03 0.  0.
        -11    1    3    3    0    0 -0.15251494854E+02 -0.54006637130E+02  0.19042035671E+02  0.59261488946E+02  0.51100000000E-03 0. -1.
         23    2    1    0    0    0 -0.13966611847E+02 -0.17145769661E+02  0.18672902173E+02  0.96146590745E+02  0.91686672818E+02 0.  0.
         11    1    3    3    0    0  0.12848830072E+01  0.36860867469E+02 -0.36913349800E+00  0.36885101799E+02  0.51100000000E-03 0.  1.
         22    1    1    0    0    0  0.13966611847E+02  0.17145769661E+02 -0.18672902173E+02  0.28943409255E+02  0.00000000000E+00 0. -1.
</event>
<event>
 5    1  0.1055265E-009  0.9118800E+02  0.7815553E-02  0.1125453E+00
         25   -1    0    0    0    0  0.00000000000E+00  0.00000000000E+00  0.99999998245E-14  0.12509000000E+03  0.12509000000E+03 0.  0.
        -11    1    3    3    0    0  0.36072393843E+02  0.38978629504E+01 -0.66640927750E+00  0.36288497278E+02  0.51100000000E-03 0.  1.
         23    2    1    0    0    0 -0.21298818833E+02  0.19068820092E+02 -0.60287706887E+01  0.95873469415E+02  0.91313287524E+02 0.  0.
         11    1    3    3    0    0 -0.57371212675E+02  0.15170957142E+02 -0.53623614112E+01  0.59584972137E+02  0.51100000000E-03 0. -1.
         22    1    1    0    0    0  0.21298818833E+02 -0.19068820092E+02  0.60287706887E+01  0.29216530585E+02  0.00000000000E+00 0. -1.
</event>
<event>
 5    1  0.1055265E-009  0.9118800E+02  0.7815553E-02  0.1125453E+00
         25   -1    0    0    0    0  0.00000000000E+00  0.00000000000E+00  0.99999998245E-14  0.12509000000E+03  0.12509000000E+03 0.  0.
        -11    1    3    3    0    0 -0.28201433885E+02 -0.19847965065E+02  0.75481494483E+01  0.35302084226E+02  0.51100000000E-03 0. -1.
         23    2    1    0    0    0  0.22672316076E+02  0.41968260797E+00 -0.18387547154E+02  0.95895618005E+02  0.91343623819E+02 0.  0.
         11    1    3    3    0    0  0.50873749961E+02  0.20267647673E+02 -0.25935696603E+02  0.60593533778E+02  0.51100000000E-03 0.  1.
         22    1    1    0    0    0 -0.22672316076E+02 -0.41968260797E+00  0.18387547154E+02  0.29194381995E+02  0.00000000000E+00 0.  1.
</event>
<event>
 5    1  0.1055265E-009  0.9118800E+02  0.7815553E-02  0.1125453E+00
         25   -1    0    0    0    0  0.00000000000E+00  0.00000000000E+00  0.99999998245E-14  0.12509000000E+03  0.12509000000E+03 0.  0.
        -11    1    3    3    0    0  0.45433097828E+02  0.24985990644E+02 -0.26655617821E+00  0.51851105669E+02  0.51100000000E-03 0. -1.
         23    2    1    0    0    0  0.55145090638E+01  0.23212645880E+02 -0.17635729764E+02  0.95420896487E+02  0.90691189115E+02 0.  0.
         11    1    3    3    0    0 -0.39918588764E+02 -0.17733447635E+01 -0.17369173585E+02  0.43569790818E+02  0.51100000000E-03 0.  1.
         22    1    1    0    0    0 -0.55145090638E+01 -0.23212645880E+02  0.17635729764E+02  0.29669103513E+02  0.00000000000E+00 0. -1.
</event>
<event>
 5    1  0.1055265E-009  0.9118800E+02  0.7815553E-02  0.1125453E+00
         25   -1    0    0    0    0  0.00000000000E+00  0.00000000000E+00  0.99999998245E-14  0.12509000000E+03  0.12509000000E+03 0.  0.
        -11    1    3    3    0    0 -0.48652041574E+02  0.12108301235E+02 -0.18364798145E+02  0.53393800382E+02  0.51100000000E-03 0.  1.
         23    2    1    0    0    0 -0.10561688006E+02  0.25178112539E+02 -0.15327272691E+02  0.93778470291E+02  0.88396773682E+02 0.  0.
         11    1    3    3    0    0  0.38090353568E+02  0.13069811305E+02  0.30375254543E+01  0.40384669909E+02  0.51100000000E-03 0. -1.
         22    1    1    0    0    0  0.10561688006E+02 -0.25178112539E+02  0.15327272691E+02  0.31311529709E+02  0.00000000000E+00 0.  1.
</event>
<event>
 5    1  0.1055265E-009  0.9118800E+02  0.7815553E-02  0.1125453E+00
         25   -1    0    0    0    0  0.00000000000E+00  0.00000000000E+00  0.99999998245E-14  0.12509000000E+03  0.12509000000E+03 0.  0.
        -11    1    3    3    0    0  0.26106648394E+02  0.20657088107E+02 -0.38998771023E+02  0.51275496302E+02  0.51100000000E-03 0.  1.
         23    2    1    0    0    0  0.23883848868E+02 -0.13593108865E+02 -0.11316187918E+02  0.95370192559E+02  0.90621226400E+02 0.  0.
         11    1    3    3    0    0 -0.22227995265E+01 -0.34250196972E+02  0.27682583105E+02  0.44094696256E+02  0.51100000000E-03 0. -1.
         22    1    1    0    0    0 -0.23883848868E+02  0.13593108865E+02  0.11316187918E+02  0.29719807441E+02  0.00000000000E+00 0.  1.
</event>
<event>
 5    1  0.1055265E-009  0.9118800E+02  0.7815553E-02  0.1125453E+00
         25   -1    0    0    0    0  0.00000000000E+00  0.00000000000E+00  0.99999998245E-14  0.12509000000E+03  0.12509000000E+03 0.  0.
        -11    1    3    3    0    0 -0.11788461377E+02  0.31089059137E+02  0.16871803586E+02  0.37284784781E+02  0.51100000000E-03 0.  1.
         23    2    1    0    0    0 -0.25100462835E+02  0.45328519441E+01 -0.25493853604E+02  0.89027324657E+02  0.81396240593E+02 0.  0.
         11    1    3    3    0    0 -0.13312001458E+02 -0.26556207193E+02 -0.42365657191E+02  0.51742539876E+02  0.51100000000E-03 0. -1.
         22    1    1    0    0    0  0.25100462835E+02 -0.45328519441E+01  0.25493853604E+02  0.36062675343E+02  0.00000000000E+00 0. -1.
</event>
<event>
 5    1  0.1055265E-009  0.9118800E+02  0.7815553E-02  0.1125453E+00
         25   -1    0    0    0    0  0.00000000000E+00  0.00000000000E+00  0.99999998245E-14  0.12509000000E+03  0.12509000000E+03 0.  0.
        -11    1    3    3    0    0  0.32929380585E+02 -0.24295898105E+02 -0.12463548319E+02  0.42778204817E+02  0.51100000000E-03 0.  1.
         23    2    1    0    0    0 -0.48124444080E+01 -0.61963402772E+01 -0.34240864303E+02  0.89961791361E+02  0.82819882049E+02 0.  0.
         11    1    3    3    0    0 -0.37741824993E+02  0.18099557828E+02 -0.21777315984E+02  0.47183586543E+02  0.51100000000E-03 0. -1.
         22    1    1    0    0    0  0.48124444080E+01  0.61963402772E+01  0.34240864303E+02  0.35128208639E+02  0.00000000000E+00 0. -1.
</event>
<event>
 5    1  0.1055265E-009  0.9118800E+02  0.7815553E-02  0.1125453E+00
         25   -1    0    0    0    0  0.00000000000E+00  0.00000000000E+00  0.99999998245E-14  0.12509000000E+03  0.12509000000E+03 0.  0.
        -11    1    3    3    0    0  0.27837847041E+02 -0.17758355529E+02 -0.15552824672E+02  0.36499250328E+02  0.51100000000E-03 0.  1.
         23    2    1    0    0    0 -0.24628476819E+02 -0.11011697016E+02  0.11321339576E+02  0.95832657821E+02  0.91257362627E+02 0.  0.
         11    1    3    3    0    0 -0.52466323860E+02  0.67466585124E+01  0.26874164248E+02  0.59333407493E+02  0.51100000000E-03 0. -1.
         22    1    1    0    0    0  0.24628476819E+02  0.11011697016E+02 -0.11321339576E+02  0.29257342179E+02  0.00000000000E+00 0. -1.
</event>
<event>
 5    1  0.1055265E-009  0.9118800E+02  0.7815553E-02  0.1125453E+00
         25   -1    0    0    0    0  0.00000000000E+00  0.00000000000E+00  0.99999998245E-14  0.12509000000E+03  0.12509000000E+03 0.  0.
        -11    1    3    3    0    0 -0.21136454233E+02  0.35814007913E+02  0.19402002783E+02  0.45889329616E+02  0.51100000000E-03 0. -1.
         23    2    1    0    0    0 -0.12738799917E+01  0.24330893601E+02 -0.21375545094E+02  0.92678133628E+02  0.86825729891E+02 0.  0.
         11    1    3    3    0    0  0.19862574242E+02 -0.11483114312E+02 -0.40777547876E+02  0.46788804012E+02  0.51100000000E-03 0.  1.
         22    1    1    0    0    0  0.12738799917E+01 -0.24330893601E+02  0.21375545094E+02  0.32411866372E+02  0.00000000000E+00 0.  1.
</event>
<event>
 5    1  0.1055265E-009  0.9118800E+02  0.7815553E-02  0.1125453E+00
         25   -1    0    0    0    0  0.00000000000E+00  0.00000000000E+00  0.99999998245E-14  0.12509000000E+03  0.12509000000E+03 0.  0.
        -11    1    3    3    0    0  0.13635410241E+01 -0.28616369852E+02 -0.17118883692E+02  0.33373822777E+02  0.51100000000E-03 0.  1.
         23    2    1    0    0    0  0.36218673080E+02  0.46489362727E+01 -0.23032755066E+02  0.81916944814E+02  0.69616615500E+02 0.  0.
         11    1    3    3    0    0  0.34855132056E+02  0.33265306125E+02 -0.59138713746E+01  0.48543122037E+02  0.51100000000E-03 0. -1.
         22    1    1    0    0    0 -0.36218673080E+02 -0.46489362727E+01  0.23032755066E+02  0.43173055186E+02  0.00000000000E+00 0. -1.
</event>
<event>
 5    1  0.1055265E-009  0.9118800E+02  0.7815553E-02  0.1125453E+00
         25   -1    0    0    0    0  0.00000000000E+00  0.00000000000E+00  0.99999998245E-14  0.12509000000E+03  0.12509000000E+03 0.  0.
        -11    1    3    3    0    0 -0.33755311541E+02  0.72470480088E+01  0.51719718868E+02  0.62184162631E+02  0.51100000000E-03 0.  1.
         23    2    1    0    0    0 -0.19835767844E+02  0.27022522887E+01  0.21812958207E+02  0.95483159589E+02  0.90777027743E+02 0.  0.
         11    1    3    3    0    0  0.13919543697E+02 -0.45447957201E+01 -0.29906760661E+02  0.33298996957E+02  0.51100000000E-03 0. -1.
         22    1    1    0    0    0  0.19835767844E+02 -0.27022522887E+01 -0.21812958207E+02  0.29606840411E+02  0.00000000000E+00 0.  1.
</event>
<event>
 5    1  0.1055265E-009  0.9118800E+02  0.7815553E-02  0.1125453E+00
         25   -1    0    0    0    0  0.00000000000E+00  0.00000000000E+00  0.99999998245E-14  0.12509000000E+03  0.12509000000E+03 0.  0.
        -11    1    3    3    0    0  0.31554074124E+02  0.20139590015E+02  0.20680137790E+02  0.42766000269E+02  0.51100000000E-03 0. -1.
         23    2    1    0    0    0 -0.22675023123E+02  0.42086905879E+01  0.41216099356E+01  0.10166229378E+03  0.98926056015E+02 0.  0.
         11    1    3    3    0    0 -0.54229097247E+02 -0.15930899427E+02 -0.16558527854E+02  0.58896293514E+02  0.51100000000E-03 0.  1.
         22    1    1    0    0    0  0.22675023123E+02 -0.42086905879E+01 -0.41216099356E+01  0.23427706217E+02  0.00000000000E+00 0.  1.
</event>
<event>
 5    1  0.1055265E-009  0.9118800E+02  0.7815553E-02  0.1125453E+00
         25   -1    0    0    0    0  0.00000000000E+00  0.00000000000E+00  0.99999998245E-14  0.12509000000E+03  0.12509000000E+03 0.  0.
        -11    1    3    3    0    0 -0.42308575614E+01  0.50864292322E+02 -0.27992082001E+02  0.58211966503E+02  0.51100000000E-03 0.  1.
         23    2    1    0    0    0 -0.10888097075E+02  0.27200529270E+02  0.42749207125E+00  0.95788085388E+02  0.91196245001E+02 0.  0.
         11    1    3    3    0    0 -0.66572395138E+01 -0.23663763052E+02  0.28419574072E+02  0.37576118885E+02  0.51100000000E-03 0. -1.
         22    1    1    0    0    0  0.10888097075E+02 -0.27200529270E+02 -0.42749207125E+00  0.29301914612E+02  0.00000000000E+00 0.  1.
</event>
<event>
 5    1  0.1055265E-009  0.9118800E+02  0.7815553E-02  0.1125453E+00
         25   -1    0    0    0    0  0.00000000000E+00  0.00000000000E+00  0.99999998245E-14  0.12509000000E+03  0.12509000000E+03 0.  0.
        -11    1    3    3    0    0  0.28113642041E+02 -0.17882968916E+02  0.63232504132E+01  0.33914022795E+02  0.51100000000E-03 0.  1.
         23    2    1    0    0    0 -0.14885048664E+02  0.18739836202E+02 -0.17732254400E+02  0.95304450136E+02  0.90530432646E+02 0.  0.
         11    1    3    3    0    0 -0.42998690705E+02  0.36622805118E+02 -0.24055504813E+02  0.61390427341E+02  0.51100000000E-03 0. -1.
         22    1    1    0    0    0  0.14885048664E+02 -0.18739836202E+02  0.17732254400E+02  0.29785549864E+02  0.00000000000E+00 0. -1.
</event>
<event>
 5    1  0.1055265E-009  0.9118800E+02  0.7815553E-02  0.1125453E+00
         25   -1    0    0    0    0  0.00000000000E+00  0.00000000000E+00  0.99999998245E-14  0.12509000000E+03  0.12509000000E+03 0.  0.
        -11    1    3    3    0    0 -0.14773584440E+02 -0.20476525125E+02 -0.25518119544E+02  0.35898764655E+02  0.51100000000E-03 0. -1.
         23    2    1    0    0    0  0.18997461268E+02 -0.42660023713E+01  0.21545197109E+02  0.96050409278E+02  0.91555356441E+02 0.  0.
         11    1    3    3    0    0  0.33771045708E+02  0.16210522753E+02  0.47063316653E+02  0.60151644623E+02  0.51100000000E-03 0.  1.
         22    1    1    0    0    0 -0.18997461268E+02  0.42660023713E+01 -0.21545197109E+02  0.29039590722E+02  0.00000000000E+00 0.  1.
</event>
<event>
 5    1  0.1055265E-009  0.9118800E+02  0.7815553E-02  0.1125453E+00
         25   -1    0    0    0    0  0.00000000000E+00  0.00000000000E+00  0.99999998245E-14  0.12509000000E+03  0.12509000000E+03 0.  0.
        -11    1    3    3    0    0  0.16017586274E+02 -0.17342656952E+02  0.55852743764E+02  0.60637115750E+02  0.51100000000E-03 0. -1.
         23    2    1    0    0    0  0.11096179473E+02  0.24121805069E+01  0.25387504993E+02  0.97278685334E+02  0.93218417691E+02 0.  0.
         11    1    3    3    0    0 -0.49214068008E+01  0.19754837459E+02 -0.30465238771E+02  0.36641569584E+02  0.51100000000E-03 0.  1.
         22    1    1    0    0    0 -0.11096179473E+02 -0.24121805069E+01 -0.25387504993E+02  0.27811314666E+02  0.00000000000E+00 0. -1.
</event>
<event>
 5    1  0.1055265E-009  0.9118800E+02  0.7815553E-02  0.1125453E+00
         25   -1    0    0    0    0  0.00000000000E+00  0.00000000000E+00  0.99999998245E-14  0.12509000000E+03  0.12509000000E+03 0.  0.
        -11    1    3    3    0    0  0.37220733761E+02 -0.31113223200E+02 -0.23686762233E+02  0.53985909134E+02  0.51100000000E-03 0.  1.
         23    2    1    0    0    0  0.52800553767E+01 -0.26906124037E+02  0.51123953039E+01  0.97198153858E+02  0.93110289615E+02 0.  0.
         11    1    3    3    0    0 -0.31940678384E+02  0.42070991637E+01  0.28799157537E+02  0.43212244724E+02  0.51100000000E-03 0. -1.
         22    1    1    0    0    0 -0.52800553767E+01  0.26906124037E+02 -0.51123953039E+01  0.27891846142E+02  0.00000000000E+00 0. -1.
</event>
<event>
 5    1  0.1055265E-009  0.9118800E+02  0.7815553E-02  0.1125453E+00
         25   -1    0    0    0    0  0.00000000000E+00  0.00000000000E+00  0.99999998245E-14  0.12509000000E+03  0.12509000000E+03 0.  0.
        -11    1    3    3    0    0 -0.19127433422E+02 -0.13053245856E+02  0.33053576467E+02  0.40358206777E+02  0.51100000000E-03 0. -1.
         23    2    1    0    0    0 -0.53037901052E+01  0.29762534477E+02  0.24760915301E+01  0.94757349650E+02  0.89771296278E+02 0.  0.
         11    1    3    3    0    0  0.13823643317E+02  0.42815780333E+02 -0.30577484937E+02  0.54399142874E+02  0.51100000000E-03 0.  1.
         22    1    1    0    0    0  0.53037901052E+01 -0.29762534477E+02 -0.24760915301E+01  0.30332650350E+02  0.00000000000E+00 0.  1.
</event>
<event>
 5    1  0.1055265E-009  0.9118800E+02  0.7815553E-02  0.1125453E+00
         25   -1    0    0    0    0  0.00000000000E+00  0.00000000000E+00  0.99999998245E-14  0.12509000000E+03  0.12509000000E+03 0.  0.
        -11    1    3    3    0    0  0.22378639517E+02  0.26188929167E+02  0.25983954271E+01  0.34545841669E+02  0.51100000000E-03 0.  1.
         23    2    1    0    0    0 -0.25171349380E+02 -0.11260573526E+02  0.10494346125E+02  0.95585277559E+02  0.90917636571E+02 0.  0.
         11    1    3    3    0    0 -0.47549988897E+02 -0.37449502693E+02  0.78959506978E+01  0.61039435890E+02  0.51100000000E-03 0. -1.
         22    1    1    0    0    0  0.25171349380E+02  0.11260573526E+02 -0.10494346125E+02  0.29504722441E+02  0.00000000000E+00 0. -1.
</event>
<event>
 5    1  0.1055265E-009  0.9118800E+02  0.7815553E-02  0.1125453E+00
         25   -1    0    0    0    0  0.00000000000E+00  0.00000000000E+00  0.99999998245E-14  0.12509000000E+03  0.12509000000E+03 0.  0.
        -11    1    3    3    0    0  0.40278838341E+02  0.73976361123E+01 -0.46300694919E+02  0.61813139286E+02  0.51100000000E-03 0.  1.
         23    2    1    0    0    0  0.21599373381E+02 -0.21822161277E+01 -0.19085519401E+02  0.96184082812E+02  0.91737809751E+02 0.  0.
         11    1    3    3    0    0 -0.18679464960E+02 -0.95798522400E+01  0.27215175518E+02  0.34370943526E+02  0.51100000000E-03 0. -1.
         22    1    1    0    0    0 -0.21599373381E+02  0.21822161277E+01  0.19085519401E+02  0.28905917188E+02  0.00000000000E+00 0.  1.
</event>
<event>
 5    1  0.1055265E-009  0.9118800E+02  0.7815553E-02  0.1125453E+00
         25   -1    0    0    0    0  0.00000000000E+00  0.00000000000E+00  0.99999998245E-14  0.12509000000E+03  0.12509000000E+03 0.  0.
        -11    1    3    3    0    0  0.52181690680E+02 -0.11330510508E+02 -0.81521917681E+00  0.53403875264E+02  0.51100000000E-03 0. -1.
         23    2    1    0    0    0  0.13882371052E+02 -0.22668787624E+02  0.12778636143E+02  0.95596141316E+02  0.90932582359E+02 0.  0.
         11    1    3    3    0    0 -0.38299319628E+02 -0.11338277117E+02  0.13593855320E+02  0.42192266052E+02  0.51100000000E-03 0.  1.
         22    1    1    0    0    0 -0.13882371052E+02  0.22668787624E+02 -0.12778636143E+02  0.29493858684E+02  0.00000000000E+00 0. -1.
</event>
<event>
 5    1  0.1055265E-009  0.9118800E+02  0.7815553E-02  0.1125453E+00
         25   -1    0    0    0    0  0.00000000000E+00  0.00000000000E+00  0.99999998245E-14  0.12509000000E+03  0.12509000000E+03 0.  0.
        -11    1    3    3    0    0  0.41702297024E+02 -0.24851816410E+02  0.14220456465E+02  0.50585726626E+02  0.51100000000E-03 0.  1.
         23    2    1    0    0    0  0.23609659757E+02 -0.15072761358E+01 -0.18788539509E+02  0.94879122289E+02  0.89940817844E+02 0.  0.
         11    1    3    3    0    0 -0.18092637267E+02  0.23344540274E+02 -0.33008995974E+02  0.44293395663E+02  0.51100000000E-03 0. -1.
         22    1    1    0    0    0 -0.23609659757E+02  0.15072761358E+01  0.18788539509E+02  0.30210877711E+02  0.00000000000E+00 0.  1.
</event>
<event>
 5    1  0.1055265E-009  0.9118800E+02  0.7815553E-02  0.1125453E+00
         25   -1    0    0    0    0  0.00000000000E+00  0.00000000000E+00  0.99999998245E-14  0.12509000000E+03  0.12509000000E+03 0.  0.
        -11    1    3    3    0    0 -0.12117151026E+02  0.30615638457E+01 -0.33497556493E+02  0.35753109143E+02  0.51100000000E-03 0.  1.
         23    2    1    0    0    0  0.12246431524E+02 -0.17550471119E+02  0.18525610251E+02  0.96784658512E+02  0.92553107817E+02 0.  0.
         11    1    3    3    0    0  0.24363582550E+02 -0.20612034965E+02  0.52023166744E+02  0.61031549369E+02  0.51100000000E-03 0. -1.
         22    1    1    0    0    0 -0.12246431524E+02  0.17550471119E+02 -0.18525610251E+02  0.28305341488E+02  0.00000000000E+00 0. -1.
</event>
<event>
 5    1  0.1055265E-009  0.9118800E+02  0.7815553E-02  0.1125453E+00
         25   -1    0    0    0    0  0.00000000000E+00  0.00000000000E+00  0.99999998245E-14  0.12509000000E+03  0.12509000000E+03 0.  0.
        -11    1    3    3    0    0 -0.32934729063E+02  0.72972375381E+00 -0.23471737815E+02  0.40449367752E+02  0.51100000000E-03 0.  1.
         23    2    1    0    0    0  0.13016781767E+02  0.23915360711E+02 -0.18527783179E+02  0.92155825728E+02  0.86069950508E+02 0.  0.
         11    1    3    3    0    0  0.45951510830E+02  0.23185636957E+02  0.49439546363E+01  0.51706457975E+02  0.51100000000E-03 0. -1.
         22    1    1    0    0    0 -0.13016781767E+02 -0.23915360711E+02  0.18527783179E+02  0.32934174272E+02  0.00000000000E+00 0. -1.
</event>
<event>
 5    1  0.1055265E-009  0.9118800E+02  0.7815553E-02  0.1125453E+00
         25   -1    0    0    0    0  0.00000000000E+00  0.00000000000E+00  0.99999998245E-14  0.12509000000E+03  0.12509000000E+03 0.  0.
        -11    1    3    3    0    0  0.28140853068E+02  0.29987141707E+01  0.34537656387E+02  0.44651423349E+02  0.51100000000E-03 0. -1.
         23    2    1    0    0    0 -0.28395747161E+01  0.30739571764E+02  0.17608898795E+02  0.89550475895E+02  0.82196289207E+02 0.  0.
         11    1    3    3    0    0 -0.30980427784E+02  0.27740857594E+02 -0.16928757592E+02  0.44899052547E+02  0.51100000000E-03 0.  1.
         22    1    1    0    0    0  0.28395747161E+01 -0.30739571764E+02 -0.17608898795E+02  0.35539524105E+02  0.00000000000E+00 0.  1.
</event>
<event>
 5    1  0.1055265E-009  0.9118800E+02  0.7815553E-02  0.1125453E+00
         25   -1    0    0    0    0  0.00000000000E+00  0.00000000000E+00  0.99999998245E-14  0.12509000000E+03  0.12509000000E+03 0.  0.
        -11    1    3    3    0    0 -0.21671431359E+02 -0.32022982014E+02  0.43932808451E+02  0.58525327618E+02  0.51100000000E-03 0.  1.
         23    2    1    0    0    0  0.45164272436E+01 -0.21190659081E+02  0.18802485906E+02  0.96402448282E+02  0.92035082502E+02 0.  0.
         11    1    3    3    0    0  0.26187858602E+02  0.10832322932E+02 -0.25130322545E+02  0.37877120664E+02  0.51100000000E-03 0. -1.
         22    1    1    0    0    0 -0.45164272436E+01  0.21190659081E+02 -0.18802485906E+02  0.28687551718E+02  0.00000000000E+00 0.  1.
</event>
<event>
 5    1  0.1055265E-009  0.9118800E+02  0.7815553E-02  0.1125453E+00
         25   -1    0    0    0    0  0.00000000000E+00  0.00000000000E+00  0.99999998245E-14  0.12509000000E+03  0.12509000000E+03 0.  0.
        -11    1    3    3    0    0 -0.12289368251E+02 -0.52285420489E+02 -0.17342505831E+02  0.56440732423E+02  0.51100000000E-03 0.  1.
         23    2    1    0    0    0 -0.78190068901E+00 -0.16778917040E+02 -0.25412532072E+02  0.94627888910E+02  0.89590720209E+02 0.  0.
         11    1    3    3    0    0  0.11507467562E+02  0.35506503448E+02 -0.80700262411E+01  0.38187156488E+02  0.51100000000E-03 0. -1.
         22    1    1    0    0    0  0.78190068901E+00  0.16778917040E+02  0.25412532072E+02  0.30462111090E+02  0.00000000000E+00 0.  1.
</event>
<event>
 5    1  0.1055265E-009  0.9118800E+02  0.7815553E-02  0.1125453E+00
         25   -1    0    0    0    0  0.00000000000E+00  0.00000000000E+00  0.99999998245E-14  0.12509000000E+03  0.12509000000E+03 0.  0.
        -11    1    3    3    0    0  0.47903711518E+02  0.20278182701E+02 -0.62146277275E+01  0.52388852525E+02  0.51100000000E-03 0. -1.
         23    2    1    0    0    0  0.16376505768E+02 -0.15484924205E+02 -0.10439695623E+02  0.10025131921E+03  0.97125521565E+02 0.  0.
         11    1    3    3    0    0 -0.31527205749E+02 -0.35763106906E+02 -0.42250678952E+01  0.47862466682E+02  0.51100000000E-03 0.  1.
         22    1    1    0    0    0 -0.16376505768E+02  0.15484924205E+02  0.10439695623E+02  0.24838680793E+02  0.00000000000E+00 0.  1.
</event>
<event>
 5    1  0.1055265E-009  0.9118800E+02  0.7815553E-02  0.1125453E+00
         25   -1    0    0    0    0  0.00000000000E+00  0.00000000000E+00  0.99999998245E-14  0.12509000000E+03  0.12509000000E+03 0.  0.
        -11    1    3    3    0    0 -0.10237802357E+02 -0.44359998110E+02 -0.33399002308E+02  0.56463398630E+02  0.51100000000E-03 0. -1.
         23    2    1    0    0    0  0.69018554144E+01 -0.30523349468E+02 -0.34994872050E+01  0.93601003801E+02  0.88145283657E+02 0.  0.
         11    1    3    3    0    0  0.17139657771E+02  0.13836648643E+02  0.29899515103E+02  0.37137605171E+02  0.51100000000E-03 0.  1.
         22    1    1    0    0    0 -0.69018554144E+01  0.30523349468E+02  0.34994872050E+01  0.31488996199E+02  0.00000000000E+00 0. -1.
</event>
<event>
 5    1  0.1055265E-009  0.9118800E+02  0.7815553E-02  0.1125453E+00
         25   -1    0    0    0    0  0.00000000000E+00  0.00000000000E+00  0.99999998245E-14  0.12509000000E+03  0.12509000000E+03 0.  0.
        -11    1    3    3    0    0 -0.31273283918E+02  0.83943611186E+00  0.42827253229E+02  0.53036747255E+02  0.51100000000E-03 0.  1.
         23    2    1    0    0    0 -0.69077917077E+01  0.23107484499E+02  0.12214556315E+02  0.98055414519E+02  0.94254949495E+02 0.  0.
         11    1    3    3    0    0  0.24365492210E+02  0.22268048387E+02 -0.30612696914E+02  0.45018667264E+02  0.51100000000E-03 0. -1.
         22    1    1    0    0    0  0.69077917077E+01 -0.23107484499E+02 -0.12214556315E+02  0.27034585481E+02  0.00000000000E+00 0.  1.
</event>
<event>
 5    1  0.1055265E-009  0.9118800E+02  0.7815553E-02  0.1125453E+00
         25   -1    0    0    0    0  0.00000000000E+00  0.00000000000E+00  0.99999998245E-14  0.12509000000E+03  0.12509000000E+03 0.  0.
        -11    1    3    3    0    0 -0.13637462519E+02 -0.10106231798E+02  0.34047017897E+02  0.38043603050E+02  0.51100000000E-03 0.  1.
         23    2    1    0    0    0  0.23634189637E+02 -0.54908401210E+01 -0.12454100778E+02  0.97816773729E+02  0.93937704632E+02 0.  0.
         11    1    3    3    0    0  0.37271652155E+02  0.46153916771E+01 -0.46501118675E+02  0.59773170679E+02  0.51100000000E-03 0. -1.
         22    1    1    0    0    0 -0.23634189637E+02  0.54908401210E+01  0.12454100778E+02  0.27273226271E+02  0.00000000000E+00 0. -1.
</event>
<event>
 5    1  0.1055265E-009  0.9118800E+02  0.7815553E-02  0.1125453E+00
         25   -1    0    0    0    0  0.00000000000E+00  0.00000000000E+00  0.99999998245E-14  0.12509000000E+03  0.12509000000E+03 0.  0.
        -11    1    3    3    0    0  0.61787213941E+01  0.60504844979E+02 -0.14548722475E+01  0.60836909171E+02  0.51100000000E-03 0.  1.
         23    2    1    0    0    0  0.12850205766E+02  0.26290826208E+02 -0.25785050035E+01  0.95713410359E+02  0.91093758862E+02 0.  0.
         11    1    3    3    0    0  0.66714843718E+01 -0.34214018772E+02 -0.11236327560E+01  0.34876501187E+02  0.51100000000E-03 0. -1.
         22    1    1    0    0    0 -0.12850205766E+02 -0.26290826208E+02  0.25785050035E+01  0.29376589641E+02  0.00000000000E+00 0.  1.
</event>
<event>
 5    1  0.1055265E-009  0.9118800E+02  0.7815553E-02  0.1125453E+00
         25   -1    0    0    0    0  0.00000000000E+00  0.00000000000E+00  0.99999998245E-14  0.12509000000E+03  0.12509000000E+03 0.  0.
        -11    1    3    3    0    0  0.35441539145E+02 -0.47103947317E+01 -0.81904450654E+01  0.36679338954E+02  0.51100000000E-03 0. -1.
         23    2    1    0    0    0 -0.21336397943E+02  0.12266468727E+02 -0.14900418151E+02  0.96319692506E+02  0.91922535709E+02 0.  0.
         11    1    3    3    0    0 -0.56777937087E+02  0.16976863459E+02 -0.67099730860E+01  0.59640353552E+02  0.51100000000E-03 0.  1.
         22    1    1    0    0    0  0.21336397943E+02 -0.12266468727E+02  0.14900418151E+02  0.28770307494E+02  0.00000000000E+00 0.  1.
</event>
<event>
 5    1  0.1055265E-009  0.9118800E+02  0.7815553E-02  0.1125453E+00
         25   -1    0    0    0    0  0.00000000000E+00  0.00000000000E+00  0.99999998245E-14  0.12509000000E+03  0.12509000000E+03 0.  0.
        -11    1    3    3    0    0 -0.10554436132E+02  0.21834242735E+02 -0.53501548347E+02  0.58741347905E+02  0.51100000000E-03 0.  1.
         23    2    1    0    0    0 -0.14896205254E+02 -0.19118263733E+01 -0.22620552768E+02  0.97937810059E+02  0.94098741865E+02 0.  0.
         11    1    3    3    0    0 -0.43417691226E+01 -0.23746069109E+02  0.30880995579E+02  0.39196462154E+02  0.51100000000E-03 0. -1.
         22    1    1    0    0    0  0.14896205254E+02  0.19118263733E+01  0.22620552768E+02  0.27152189941E+02  0.00000000000E+00 0.  1.
</event>
<event>
 5    1  0.1055265E-009  0.9118800E+02  0.7815553E-02  0.1125453E+00
         25   -1    0    0    0    0  0.00000000000E+00  0.00000000000E+00  0.99999998245E-14  0.12509000000E+03  0.12509000000E+03 0.  0.
        -11    1    3    3    0    0 -0.69224780594E+01 -0.25704849917E+02  0.21851086744E+02  0.34440238151E+02  0.51100000000E-03 0.  1.
         23    2    1    0    0    0 -0.14663273970E+02  0.19560030351E+02 -0.17588831561E+02  0.94974001153E+02  0.90072679035E+02 0.  0.
         11    1    3    3    0    0 -0.77407959109E+01  0.45264880268E+02 -0.39439918305E+02  0.60533763002E+02  0.51100000000E-03 0. -1.
         22    1    1    0    0    0  0.14663273970E+02 -0.19560030351E+02  0.17588831561E+02  0.30115998847E+02  0.00000000000E+00 0. -1.
</event>
<event>
 5    1  0.1055265E-009  0.9118800E+02  0.7815553E-02  0.1125453E+00
         25   -1    0    0    0    0  0.00000000000E+00  0.00000000000E+00  0.99999998245E-14  0.12509000000E+03  0.12509000000E+03 0.  0.
        -11    1    3    3    0    0  0.61169662559E+02  0.26867373927E+01 -0.64493612148E+01  0.61567365022E+02  0.51100000000E-03 0.  1.
         23    2    1    0    0    0  0.20220681073E+02  0.26713942152E+01  0.50056160571E+01  0.10408836953E+03  0.10194763455E+03 0.  0.
         11    1    3    3    0    0 -0.40948981486E+02 -0.15343177531E-01  0.11454977272E+02  0.42521004512E+02  0.51100000000E-03 0. -1.
         22    1    1    0    0    0 -0.20220681073E+02 -0.26713942152E+01 -0.50056160571E+01  0.21001630466E+02  0.00000000000E+00 0.  1.
</event>
<event>
 5    1  0.1055265E-009  0.9118800E+02  0.7815553E-02  0.1125453E+00
         25   -1    0    0    0    0  0.00000000000E+00  0.00000000000E+00  0.99999998245E-14  0.12509000000E+03  0.12509000000E+03 0.  0.
        -11    1    3    3    0    0 -0.31092205454E+02  0.45915637305E+01  0.13656908128E+02  0.34268335783E+02  0.51100000000E-03 0. -1.
         23    2    1    0    0    0  0.27664858071E+02 -0.23843666571E+01 -0.61208555293E+01  0.96655963198E+02  0.92379006126E+02 0.  0.
         11    1    3    3    0    0  0.58757063525E+02 -0.69759303876E+01 -0.19777763657E+02  0.62387627415E+02  0.51100000000E-03 0.  1.
         22    1    1    0    0    0 -0.27664858071E+02  0.23843666571E+01  0.61208555293E+01  0.28434036802E+02  0.00000000000E+00 0.  1.
</event>
<event>
 5    1  0.1055265E-009  0.9118800E+02  0.7815553E-02  0.1125453E+00
         25   -1    0    0    0    0  0.00000000000E+00  0.00000000000E+00  0.99999998245E-14  0.12509000000E+03  0.12509000000E+03 0.  0.
        -11    1    3    3    0    0 -0.30705087748E+01 -0.22110989232E+02 -0.29106604302E+02  0.36681307000E+02  0.51100000000E-03 0.  1.
         23    2    1    0    0    0 -0.90128995190E+01  0.15335446783E+02  0.19741199185E+02  0.98517020659E+02  0.94865589802E+02 0.  0.
         11    1    3    3    0    0 -0.59423907442E+01  0.37446436015E+02  0.48847803487E+02  0.61835713659E+02  0.51100000000E-03 0. -1.
         22    1    1    0    0    0  0.90128995190E+01 -0.15335446783E+02 -0.19741199185E+02  0.26572979341E+02  0.00000000000E+00 0. -1.
</event>
<event>
 5    1  0.1055265E-009  0.9118800E+02  0.7815553E-02  0.1125453E+00
         25   -1    0    0    0    0  0.00000000000E+00  0.00000000000E+00  0.99999998245E-14  0.12509000000E+03  0.12509000000E+03 0.  0.
        -11    1    3    3    0    0 -0.19740106017E+02  0.26333853770E+02  0.14025074814E+02  0.35774940443E+02  0.51100000000E-03 0. -1.
         23    2    1    0    0    0  0.28742926470E+02  0.28904654599E+01 -0.96919651057E+01  0.94619607809E+02  0.89579157072E+02 0.  0.
         11    1    3    3    0    0  0.48483032487E+02 -0.23443388310E+02 -0.23717039919E+02  0.58844667366E+02  0.51100000000E-03 0.  1.
         22    1    1    0    0    0 -0.28742926470E+02 -0.28904654599E+01  0.96919651057E+01  0.30470392191E+02  0.00000000000E+00 0.  1.
</event>
<event>
 5    1  0.1055265E-009  0.9118800E+02  0.7815553E-02  0.1125453E+00
         25   -1    0    0    0    0  0.00000000000E+00  0.00000000000E+00  0.99999998245E-14  0.12509000000E+03  0.12509000000E+03 0.  0.
        -11    1    3    3    0    0  0.32595320224E+01 -0.37030008323E+02 -0.42411333868E+01  0.37414345886E+02  0.51100000000E-03 0. -1.
         23    2    1    0    0    0  0.22182727546E+02  0.16113858645E+02 -0.13412607982E+02  0.94567419921E+02  0.89506251267E+02 0.  0.
         11    1    3    3    0    0  0.18923195524E+02  0.53143866968E+02 -0.91714745949E+01  0.57153074035E+02  0.51100000000E-03 0.  1.
         22    1    1    0    0    0 -0.22182727546E+02 -0.16113858645E+02  0.13412607982E+02  0.30522580079E+02  0.00000000000E+00 0.  1.
</event>
<event>
 5    1  0.1055265E-009  0.9118800E+02  0.7815553E-02  0.1125453E+00
         25   -1    0    0    0    0  0.00000000000E+00  0.00000000000E+00  0.99999998245E-14  0.12509000000E+03  0.12509000000E+03 0.  0.
        -11    1    3    3    0    0 -0.15023925330E+02  0.26292918614E+02 -0.50729835098E+02  0.59080894297E+02  0.51100000000E-03 0.  1.
         23    2    1    0    0    0  0.33798320858E+01  0.21247363230E+02 -0.17685793778E+02  0.97239308613E+02  0.93165562999E+02 0.  0.
         11    1    3    3    0    0  0.18403757416E+02 -0.50455553846E+01  0.33044041320E+02  0.38158414317E+02  0.51100000000E-03 0. -1.
         22    1    1    0    0    0 -0.33798320858E+01 -0.21247363230E+02  0.17685793778E+02  0.27850691387E+02  0.00000000000E+00 0.  1.
</event>
<event>
 5    1  0.1055265E-009  0.9118800E+02  0.7815553E-02  0.1125453E+00
         25   -1    0    0    0    0  0.00000000000E+00  0.00000000000E+00  0.99999998245E-14  0.12509000000E+03  0.12509000000E+03 0.  0.
        -11    1    3    3    0    0  0.46502251192E+01 -0.20397994516E+02  0.31352080053E+02  0.37691586565E+02  0.51100000000E-03 0. -1.
         23    2    1    0    0    0  0.25424295450E+02  0.10095061692E+02 -0.12510977241E+02  0.95009614012E+02  0.90122123441E+02 0.  0.
         11    1    3    3    0    0  0.20774070331E+02  0.30493056208E+02 -0.43863057293E+02  0.57318027446E+02  0.51100000000E-03 0.  1.
         22    1    1    0    0    0 -0.25424295450E+02 -0.10095061692E+02  0.12510977241E+02  0.30080385988E+02  0.00000000000E+00 0.  1.
</event>
<event>
 5    1  0.1055265E-009  0.9118800E+02  0.7815553E-02  0.1125453E+00
         25   -1    0    0    0    0  0.00000000000E+00  0.00000000000E+00  0.99999998245E-14  0.12509000000E+03  0.12509000000E+03 0.  0.
        -11    1    3    3    0    0 -0.48445863904E+02  0.15551915209E+02  0.33931763564E+02  0.61157406542E+02  0.51100000000E-03 0.  1.
         23    2    1    0    0    0 -0.20476505538E+02  0.16194887781E+02  0.14426994689E+02  0.95262163252E+02  0.90471984075E+02 0.  0.
         11    1    3    3    0    0  0.27969358366E+02  0.64297257159E+00 -0.19504768875E+02  0.34104756710E+02  0.51100000000E-03 0. -1.
         22    1    1    0    0    0  0.20476505538E+02 -0.16194887781E+02 -0.14426994689E+02  0.29827836748E+02  0.00000000000E+00 0.  1.
</event>
<event>
 5    1  0.1055265E-009  0.9118800E+02  0.7815553E-02  0.1125453E+00
         25   -1    0    0    0    0  0.00000000000E+00  0.00000000000E+00  0.99999998245E-14  0.12509000000E+03  0.12509000000E+03 0.  0.
        -11    1    3    3    0    0 -0.22808651263E+02 -0.37845540351E+02  0.24038986026E+02  0.50303005341E+02  0.51100000000E-03 0.  1.
         23    2    1    0    0    0  0.14860054163E+02 -0.10263387574E+02  0.21432510741E+02  0.97063033506E+02  0.92928583452E+02 0.  0.
         11    1    3    3    0    0  0.37668705426E+02  0.27582152777E+02 -0.26064752849E+01  0.46760028165E+02  0.51100000000E-03 0. -1.
         22    1    1    0    0    0 -0.14860054163E+02  0.10263387574E+02 -0.21432510741E+02  0.28026966494E+02  0.00000000000E+00 0.  1.
</event>
<event>
 5    1  0.1055265E-009  0.9118800E+02  0.7815553E-02  0.1125453E+00
         25   -1    0    0    0    0  0.00000000000E+00  0.00000000000E+00  0.99999998245E-14  0.12509000000E+03  0.12509000000E+03 0.  0.
        -11    1    3    3    0    0 -0.23818359978E+02 -0.22919099543E+02  0.99001213026E+01  0.34505243050E+02  0.51100000000E-03 0.  1.
         23    2    1    0    0    0  0.17361686324E+02  0.17153503221E+02 -0.14243738232E+02  0.96831286236E+02  0.92616106000E+02 0.  0.
         11    1    3    3    0    0  0.41180046302E+02  0.40072602764E+02 -0.24143859535E+02  0.62326043186E+02  0.51100000000E-03 0. -1.
         22    1    1    0    0    0 -0.17361686324E+02 -0.17153503221E+02  0.14243738232E+02  0.28258713764E+02  0.00000000000E+00 0. -1.
</event>
<event>
 5    1  0.1055265E-009  0.9118800E+02  0.7815553E-02  0.1125453E+00
         25   -1    0    0    0    0  0.00000000000E+00  0.00000000000E+00  0.99999998245E-14  0.12509000000E+03  0.12509000000E+03 0.  0.
        -11    1    3    3    0    0  0.70177763740E+01  0.54741209790E+02 -0.23260855689E+02  0.59890872778E+02  0.51100000000E-03 0. -1.
         23    2    1    0    0    0 -0.36899733459E+01  0.28076649437E+02 -0.14094112405E+00  0.96771560578E+02  0.92535403632E+02 0.  0.
         11    1    3    3    0    0 -0.10707749720E+02 -0.26664560353E+02  0.23119914565E+02  0.36880687800E+02  0.51100000000E-03 0.  1.
         22    1    1    0    0    0  0.36899733459E+01 -0.28076649437E+02  0.14094112405E+00  0.28318439422E+02  0.00000000000E+00 0. -1.
</event>
<event>
 5    1  0.1055265E-009  0.9118800E+02  0.7815553E-02  0.1125453E+00
         25   -1    0    0    0    0  0.00000000000E+00  0.00000000000E+00  0.99999998245E-14  0.12509000000E+03  0.12509000000E+03 0.  0.
        -11    1    3    3    0    0  0.32951062078E+02 -0.27294518253E+02  0.44721818265E+02  0.61893491159E+02  0.51100000000E-03 0.  1.
         23    2    1    0    0    0  0.13854739743E+02 -0.81554859758E+01  0.25032183681E+02  0.95339773368E+02  0.90579227205E+02 0.  0.
         11    1    3    3    0    0 -0.19096322335E+02  0.19139032278E+02 -0.19689634584E+02  0.33446282208E+02  0.51100000000E-03 0. -1.
         22    1    1    0    0    0 -0.13854739743E+02  0.81554859758E+01 -0.25032183681E+02  0.29750226632E+02  0.00000000000E+00 0.  1.
</event>
<event>
 5    1  0.1055265E-009  0.9118800E+02  0.7815553E-02  0.1125453E+00
         25   -1    0    0    0    0  0.00000000000E+00  0.00000000000E+00  0.99999998245E-14  0.12509000000E+03  0.12509000000E+03 0.  0.
        -11    1    3    3    0    0  0.23300549891E+02 -0.29901379191E+02  0.27345289986E+02  0.46741555252E+02  0.51100000000E-03 0.  1.
         23    2    1    0    0    0  0.12056088027E+02 -0.18132663147E+02 -0.19205263007E+02  0.96055798470E+02  0.91562719276E+02 0.  0.
         11    1    3    3    0    0 -0.11244461864E+02  0.11768716044E+02 -0.46550552993E+02  0.49314243218E+02  0.51100000000E-03 0. -1.
         22    1    1    0    0    0 -0.12056088027E+02  0.18132663147E+02  0.19205263007E+02  0.29034201530E+02  0.00000000000E+00 0.  1.
</event>
<event>
 5    1  0.1055265E-009  0.9118800E+02  0.7815553E-02  0.1125453E+00
         25   -1    0    0    0    0  0.00000000000E+00  0.00000000000E+00  0.99999998245E-14  0.12509000000E+03  0.12509000000E+03 0.  0.
        -11    1    3    3    0    0 -0.32173676758E+02  0.36260492616E+02  0.52498272562E+01  0.48759916810E+02  0.51100000000E-03 0.  1.
         23    2    1    0    0    0 -0.91828119728E+01  0.13360531825E+01  0.27459396536E+02  0.96105046456E+02  0.91629975567E+02 0.  0.
         11    1    3    3    0    0  0.22990864785E+02 -0.34924439434E+02  0.22209569280E+02  0.47345129646E+02  0.51100000000E-03 0. -1.
         22    1    1    0    0    0  0.91828119728E+01 -0.13360531825E+01 -0.27459396536E+02  0.28984953544E+02  0.00000000000E+00 0.  1.
</event>
<event>
 5    1  0.1055265E-009  0.9118800E+02  0.7815553E-02  0.1125453E+00
         25   -1    0    0    0    0  0.00000000000E+00  0.00000000000E+00  0.99999998245E-14  0.12509000000E+03  0.12509000000E+03 0.  0.
        -11    1    3    3    0    0 -0.96865320593E+01  0.41083512727E+02 -0.12706490022E+02  0.44081048198E+02  0.51100000000E-03 0.  1.
         23    2    1    0    0    0 -0.15911401033E+02  0.52202581477E+01  0.24032702175E+02  0.95798455967E+02  0.91210468774E+02 0.  0.
         11    1    3    3    0    0 -0.62248689736E+01 -0.35863254579E+02  0.36739192197E+02  0.51717407769E+02  0.51100000000E-03 0. -1.
         22    1    1    0    0    0  0.15911401033E+02 -0.52202581477E+01 -0.24032702175E+02  0.29291544033E+02  0.00000000000E+00 0. -1.
</event>
<event>
 5    1  0.1055265E-009  0.9118800E+02  0.7815553E-02  0.1125453E+00
         25   -1    0    0    0    0  0.00000000000E+00  0.00000000000E+00  0.99999998245E-14  0.12509000000E+03  0.12509000000E+03 0.  0.
        -11    1    3    3    0    0  0.99202762757E+01 -0.14704865298E+01 -0.32212891851E+02  0.33737880990E+02  0.51100000000E-03 0. -1.
         23    2    1    0    0    0  0.76215762269E+01 -0.30403629680E+01  0.28968088927E+02  0.94982153727E+02  0.90084000351E+02 0.  0.
         11    1    3    3    0    0 -0.22987000488E+01 -0.15698764382E+01  0.61180980777E+02  0.61244272737E+02  0.51100000000E-03 0.  1.
         22    1    1    0    0    0 -0.76215762269E+01  0.30403629680E+01 -0.28968088927E+02  0.30107846273E+02  0.00000000000E+00 0.  1.
</event>
<event>
 5    1  0.1055265E-009  0.9118800E+02  0.7815553E-02  0.1125453E+00
         25   -1    0    0    0    0  0.00000000000E+00  0.00000000000E+00  0.99999998245E-14  0.12509000000E+03  0.12509000000E+03 0.  0.
        -11    1    3    3    0    0 -0.99953548133E+01 -0.37269394832E+01  0.44840832683E+02  0.46092271280E+02  0.51100000000E-03 0. -1.
         23    2    1    0    0    0 -0.27450772224E+02  0.65251880652E+01 -0.16775883032E+01  0.96824521453E+02  0.92606968837E+02 0.  0.
         11    1    3    3    0    0 -0.17455417411E+02  0.10252127548E+02 -0.46518420987E+02  0.50732250173E+02  0.51100000000E-03 0.  1.
         22    1    1    0    0    0  0.27450772224E+02 -0.65251880652E+01  0.16775883032E+01  0.28265478547E+02  0.00000000000E+00 0. -1.
</event>
<event>
 5    1  0.1055265E-009  0.9118800E+02  0.7815553E-02  0.1125453E+00
         25   -1    0    0    0    0  0.00000000000E+00  0.00000000000E+00  0.99999998245E-14  0.12509000000E+03  0.12509000000E+03 0.  0.
        -11    1    3    3    0    0 -0.24497001514E+02 -0.39593035847E+02 -0.37862097684E+02  0.60010415863E+02  0.51100000000E-03 0.  1.
         23    2    1    0    0    0 -0.13926036265E+02 -0.94444658947E+01 -0.26061993631E+02  0.94068073334E+02  0.88805644453E+02 0.  0.
         11    1    3    3    0    0  0.10570965249E+02  0.30148569952E+02  0.11800104053E+02  0.34057657471E+02  0.51100000000E-03 0. -1.
         22    1    1    0    0    0  0.13926036265E+02  0.94444658947E+01  0.26061993631E+02  0.31021926666E+02  0.00000000000E+00 0.  1.
</event>
<event>
 5    1  0.1055265E-009  0.9118800E+02  0.7815553E-02  0.1125453E+00
         25   -1    0    0    0    0  0.00000000000E+00  0.00000000000E+00  0.99999998245E-14  0.12509000000E+03  0.12509000000E+03 0.  0.
        -11    1    3    3    0    0 -0.37071844427E+02  0.18187883044E+02  0.13410870135E+02  0.43416266271E+02  0.51100000000E-03 0. -1.
         23    2    1    0    0    0  0.11486260561E+02  0.28228451615E+02  0.69446598847E+00  0.94606201922E+02  0.89560434885E+02 0.  0.
         11    1    3    3    0    0  0.48558104988E+02  0.10040568572E+02 -0.12716404146E+02  0.51189935651E+02  0.51100000000E-03 0.  1.
         22    1    1    0    0    0 -0.11486260561E+02 -0.28228451615E+02 -0.69446598847E+00  0.30483798078E+02  0.00000000000E+00 0.  1.
</event>
<event>
 5    1  0.1055265E-009  0.9118800E+02  0.7815553E-02  0.1125453E+00
         25   -1    0    0    0    0  0.00000000000E+00  0.00000000000E+00  0.99999998245E-14  0.12509000000E+03  0.12509000000E+03 0.  0.
        -11    1    3    3    0    0 -0.50789497079E+01 -0.43150491915E+02 -0.23640483234E+01  0.43512635031E+02  0.51100000000E-03 0.  1.
         23    2    1    0    0    0  0.74167097577E+01 -0.23554840697E+01 -0.29834660695E+02  0.94257178727E+02  0.89071616545E+02 0.  0.
         11    1    3    3    0    0  0.12495659466E+02  0.40795007845E+02 -0.27470612372E+02  0.50744543696E+02  0.51100000000E-03 0. -1.
         22    1    1    0    0    0 -0.74167097577E+01  0.23554840697E+01  0.29834660695E+02  0.30832821273E+02  0.00000000000E+00 0. -1.
</event>
<event>
 5    1  0.1055265E-009  0.9118800E+02  0.7815553E-02  0.1125453E+00
         25   -1    0    0    0    0  0.00000000000E+00  0.00000000000E+00  0.99999998245E-14  0.12509000000E+03  0.12509000000E+03 0.  0.
        -11    1    3    3    0    0 -0.26217062289E+02  0.23896986145E+01 -0.21590310487E+02  0.34046828366E+02  0.51100000000E-03 0. -1.
         23    2    1    0    0    0  0.91814302498E+01 -0.16404364757E+02  0.23905660770E+02  0.94678119734E+02  0.89660826981E+02 0.  0.
         11    1    3    3    0    0  0.35398492539E+02 -0.18794063371E+02  0.45495971257E+02  0.60631291368E+02  0.51100000000E-03 0.  1.
         22    1    1    0    0    0 -0.91814302498E+01  0.16404364757E+02 -0.23905660770E+02  0.30411880266E+02  0.00000000000E+00 0.  1.
</event>
<event>
 5    1  0.1055265E-009  0.9118800E+02  0.7815553E-02  0.1125453E+00
         25   -1    0    0    0    0  0.00000000000E+00  0.00000000000E+00  0.99999998245E-14  0.12509000000E+03  0.12509000000E+03 0.  0.
        -11    1    3    3    0    0 -0.11708607735E+02 -0.78254520817E+01 -0.54136183041E+02  0.55937961260E+02  0.51100000000E-03 0. -1.
         23    2    1    0    0    0 -0.24713510854E+02  0.43507094378E+01 -0.34152024306E+02  0.82710204630E+02  0.71027676961E+02 0.  0.
         11    1    3    3    0    0 -0.13004903119E+02  0.12176161520E+02  0.19984158735E+02  0.26772243371E+02  0.51100000000E-03 0.  1.
         22    1    1    0    0    0  0.24713510854E+02 -0.43507094378E+01  0.34152024306E+02  0.42379795370E+02  0.00000000000E+00 0. -1.
</event>
<event>
 5    1  0.1055265E-009  0.9118800E+02  0.7815553E-02  0.1125453E+00
         25   -1    0    0    0    0  0.00000000000E+00  0.00000000000E+00  0.99999998245E-14  0.12509000000E+03  0.12509000000E+03 0.  0.
        -11    1    3    3    0    0 -0.14052846847E+02  0.27479592777E+02  0.35602467685E+02  0.47118427703E+02  0.51100000000E-03 0. -1.
         23    2    1    0    0    0 -0.26850550695E+02  0.26536491584E+01 -0.62115891537E+01  0.97402859189E+02  0.93384898200E+02 0.  0.
         11    1    3    3    0    0 -0.12797703848E+02 -0.24825943618E+02 -0.41814056839E+02  0.50284431486E+02  0.51100000000E-03 0.  1.
         22    1    1    0    0    0  0.26850550695E+02 -0.26536491584E+01  0.62115891537E+01  0.27687140811E+02  0.00000000000E+00 0.  1.
</event>
<event>
 5    1  0.1055265E-009  0.9118800E+02  0.7815553E-02  0.1125453E+00
         25   -1    0    0    0    0  0.00000000000E+00  0.00000000000E+00  0.99999998245E-14  0.12509000000E+03  0.12509000000E+03 0.  0.
        -11    1    3    3    0    0  0.20973245924E+02  0.25454898353E+02 -0.23169826542E+02  0.40307192373E+02  0.51100000000E-03 0.  1.
         23    2    1    0    0    0 -0.25685129314E+02 -0.16365835428E+01 -0.16125526027E+02  0.94718354289E+02  0.89716942525E+02 0.  0.
         11    1    3    3    0    0 -0.46658375237E+02 -0.27091481895E+02  0.70443005154E+01  0.54411161916E+02  0.51100000000E-03 0. -1.
         22    1    1    0    0    0  0.25685129314E+02  0.16365835428E+01  0.16125526027E+02  0.30371645711E+02  0.00000000000E+00 0. -1.
</event>
<event>
 5    1  0.1055265E-009  0.9118800E+02  0.7815553E-02  0.1125453E+00
         25   -1    0    0    0    0  0.00000000000E+00  0.00000000000E+00  0.99999998245E-14  0.12509000000E+03  0.12509000000E+03 0.  0.
        -11    1    3    3    0    0 -0.59925150822E+01  0.35500336489E+02 -0.11554961057E+02  0.37811390521E+02  0.51100000000E-03 0.  1.
         23    2    1    0    0    0 -0.20078932336E+02 -0.13075181635E+02  0.16830136286E+02  0.95808992744E+02  0.91224918222E+02 0.  0.
         11    1    3    3    0    0 -0.14086417254E+02 -0.48575518124E+02  0.28385097343E+02  0.57997602222E+02  0.51100000000E-03 0. -1.
         22    1    1    0    0    0  0.20078932336E+02  0.13075181635E+02 -0.16830136286E+02  0.29281007256E+02  0.00000000000E+00 0. -1.
</event>
<event>
 5    1  0.1055265E-009  0.9118800E+02  0.7815553E-02  0.1125453E+00
         25   -1    0    0    0    0  0.00000000000E+00  0.00000000000E+00  0.99999998245E-14  0.12509000000E+03  0.12509000000E+03 0.  0.
        -11    1    3    3    0    0 -0.11182411692E+02 -0.25373743831E+01 -0.61462508975E+02  0.62522992649E+02  0.51100000000E-03 0.  1.
         23    2    1    0    0    0 -0.62393826609E+01 -0.45409061975E+00 -0.29318847747E+02  0.95111158670E+02  0.90262957940E+02 0.  0.
         11    1    3    3    0    0  0.49430290311E+01  0.20832837633E+01  0.32143661228E+02  0.32588166021E+02  0.51100000000E-03 0. -1.
         22    1    1    0    0    0  0.62393826609E+01  0.45409061975E+00  0.29318847747E+02  0.29978841330E+02  0.00000000000E+00 0.  1.
</event>
<event>
 5    1  0.1055265E-009  0.9118800E+02  0.7815553E-02  0.1125453E+00
         25   -1    0    0    0    0  0.00000000000E+00  0.00000000000E+00  0.99999998245E-14  0.12509000000E+03  0.12509000000E+03 0.  0.
        -11    1    3    3    0    0 -0.24087499941E+02  0.28521181553E+02  0.88010564453E+00  0.37342201821E+02  0.51100000000E-03 0.  1.
         23    2    1    0    0    0  0.20992956790E+02  0.31540170199E+02  0.14485235393E+02  0.84527596036E+02  0.74159327642E+02 0.  0.
         11    1    3    3    0    0  0.45080456731E+02  0.30189886460E+01  0.13605129748E+02  0.47185394215E+02  0.51100000000E-03 0. -1.
         22    1    1    0    0    0 -0.20992956790E+02 -0.31540170199E+02 -0.14485235393E+02  0.40562403964E+02  0.00000000000E+00 0. -1.
</event>
<event>
 5    1  0.1055265E-009  0.9118800E+02  0.7815553E-02  0.1125453E+00
         25   -1    0    0    0    0  0.00000000000E+00  0.00000000000E+00  0.99999998245E-14  0.12509000000E+03  0.12509000000E+03 0.  0.
        -11    1    3    3    0    0 -0.35689588134E+02 -0.68003436673E+01 -0.34880971255E+02  0.50365400139E+02  0.51100000000E-03 0. -1.
         23    2    1    0    0    0 -0.25263234822E+01  0.20140207663E+02 -0.22363875245E+02  0.94888126034E+02  0.89953339411E+02 0.  0.
         11    1    3    3    0    0  0.33163264652E+02  0.26940551331E+02  0.12517096010E+02  0.44522725895E+02  0.51100000000E-03 0.  1.
         22    1    1    0    0    0  0.25263234822E+01 -0.20140207663E+02  0.22363875245E+02  0.30201873966E+02  0.00000000000E+00 0. -1.
</event>
<event>
 5    1  0.1055265E-009  0.9118800E+02  0.7815553E-02  0.1125453E+00
         25   -1    0    0    0    0  0.00000000000E+00  0.00000000000E+00  0.99999998245E-14  0.12509000000E+03  0.12509000000E+03 0.  0.
        -11    1    3    3    0    0 -0.42028741111E+02  0.24062249451E+02  0.38404563498E+02  0.61808716422E+02  0.51100000000E-03 0. -1.
         23    2    1    0    0    0 -0.23747148758E+02  0.65235422690E+01  0.15293344037E+02  0.96100863246E+02  0.91624264619E+02 0.  0.
         11    1    3    3    0    0  0.18281592353E+02 -0.17538707182E+02 -0.23111219461E+02  0.34292146824E+02  0.51100000000E-03 0.  1.
         22    1    1    0    0    0  0.23747148758E+02 -0.65235422690E+01 -0.15293344037E+02  0.28989136754E+02  0.00000000000E+00 0. -1.
</event>
<event>
 5    1  0.1055265E-009  0.9118800E+02  0.7815553E-02  0.1125453E+00
         25   -1    0    0    0    0  0.00000000000E+00  0.00000000000E+00  0.99999998245E-14  0.12509000000E+03  0.12509000000E+03 0.  0.
        -11    1    3    3    0    0 -0.35784415436E+02  0.14401082368E+02  0.35591991978E+02  0.52485287983E+02  0.51100000000E-03 0. -1.
         23    2    1    0    0    0  0.20963280515E+01  0.23972842256E+02  0.15985331682E+02  0.96200164658E+02  0.91759735691E+02 0.  0.
         11    1    3    3    0    0  0.37880743487E+02  0.95717598876E+01 -0.19606660296E+02  0.43714876675E+02  0.51100000000E-03 0.  1.
         22    1    1    0    0    0 -0.20963280515E+01 -0.23972842256E+02 -0.15985331682E+02  0.28889835342E+02  0.00000000000E+00 0. -1.
</event>
<event>
 5    1  0.1055265E-009  0.9118800E+02  0.7815553E-02  0.1125453E+00
         25   -1    0    0    0    0  0.00000000000E+00  0.00000000000E+00  0.99999998245E-14  0.12509000000E+03  0.12509000000E+03 0.  0.
        -11    1    3    3    0    0  0.53995578121E+02  0.13677033328E+02 -0.19954334659E+01  0.55736571945E+02  0.51100000000E-03 0. -1.
         23    2    1    0    0    0  0.17099318992E+02  0.53913325642E+01 -0.20516142201E+02  0.97843619183E+02  0.93973445969E+02 0.  0.
         11    1    3    3    0    0 -0.36896259128E+02 -0.82857007634E+01 -0.18520708735E+02  0.42107047238E+02  0.51100000000E-03 0.  1.
         22    1    1    0    0    0 -0.17099318992E+02 -0.53913325642E+01  0.20516142201E+02  0.27246380817E+02  0.00000000000E+00 0. -1.
</event>
<event>
 5    1  0.1055265E-009  0.9118800E+02  0.7815553E-02  0.1125453E+00
         25   -1    0    0    0    0  0.00000000000E+00  0.00000000000E+00  0.99999998245E-14  0.12509000000E+03  0.12509000000E+03 0.  0.
        -11    1    3    3    0    0 -0.37504121956E+02  0.48395933563E+02  0.88283099806E+01  0.61860040466E+02  0.51100000000E-03 0.  1.
         23    2    1    0    0    0 -0.22398476348E+02  0.21522176644E+02 -0.34897087649E+00  0.94025267410E+02  0.88745328332E+02 0.  0.
         11    1    3    3    0    0  0.15105645608E+02 -0.26873756919E+02 -0.91772808571E+01  0.32165226944E+02  0.51100000000E-03 0. -1.
         22    1    1    0    0    0  0.22398476348E+02 -0.21522176644E+02  0.34897087649E+00  0.31064732590E+02  0.00000000000E+00 0.  1.
</event>
<event>
 5    1  0.1055265E-009  0.9118800E+02  0.7815553E-02  0.1125453E+00
         25   -1    0    0    0    0  0.00000000000E+00  0.00000000000E+00  0.99999998245E-14  0.12509000000E+03  0.12509000000E+03 0.  0.
        -11    1    3    3    0    0 -0.43553894702E+02  0.54694129503E+01 -0.31806777166E+02  0.54208184767E+02  0.51100000000E-03 0. -1.
         23    2    1    0    0    0 -0.24866339409E+01  0.11794666800E+02 -0.26346564321E+02  0.96116926901E+02  0.91646192895E+02 0.  0.
         11    1    3    3    0    0  0.41067260761E+02  0.63252538494E+01  0.54602128456E+01  0.41908742134E+02  0.51100000000E-03 0.  1.
         22    1    1    0    0    0  0.24866339409E+01 -0.11794666800E+02  0.26346564321E+02  0.28973073099E+02  0.00000000000E+00 0. -1.
</event>
<event>
 5    1  0.1055265E-009  0.9118800E+02  0.7815553E-02  0.1125453E+00
         25   -1    0    0    0    0  0.00000000000E+00  0.00000000000E+00  0.99999998245E-14  0.12509000000E+03  0.12509000000E+03 0.  0.
        -11    1    3    3    0    0 -0.55038407389E+02 -0.22720550710E+02  0.15692729852E+01  0.59564354529E+02  0.51100000000E-03 0. -1.
         23    2    1    0    0    0 -0.26095825795E+02 -0.28361849629E+01 -0.10675077359E+02  0.96752862783E+02  0.92510124370E+02 0.  0.
         11    1    3    3    0    0  0.28942581594E+02  0.19884365748E+02 -0.12244350344E+02  0.37188508254E+02  0.51100000000E-03 0.  1.
         22    1    1    0    0    0  0.26095825795E+02  0.28361849629E+01  0.10675077359E+02  0.28337137217E+02  0.00000000000E+00 0. -1.
</event>
<event>
 5    1  0.1055265E-009  0.9118800E+02  0.7815553E-02  0.1125453E+00
         25   -1    0    0    0    0  0.00000000000E+00  0.00000000000E+00  0.99999998245E-14  0.12509000000E+03  0.12509000000E+03 0.  0.
        -11    1    3    3    0    0 -0.30697581719E+02  0.17974928679E+02  0.16835806305E+02  0.39355863078E+02  0.51100000000E-03 0.  1.
         23    2    1    0    0    0  0.52509688274E+01 -0.25697606625E+02  0.12352632435E+02  0.96098153078E+02  0.91620564488E+02 0.  0.
         11    1    3    3    0    0  0.35948550546E+02 -0.43672535304E+02 -0.44831738701E+01  0.56742290000E+02  0.51100000000E-03 0. -1.
         22    1    1    0    0    0 -0.52509688274E+01  0.25697606625E+02 -0.12352632435E+02  0.28991846922E+02  0.00000000000E+00 0. -1.
</event>
<event>
 5    1  0.1055265E-009  0.9118800E+02  0.7815553E-02  0.1125453E+00
         25   -1    0    0    0    0  0.00000000000E+00  0.00000000000E+00  0.99999998245E-14  0.12509000000E+03  0.12509000000E+03 0.  0.
        -11    1    3    3    0    0 -0.27120194985E+02  0.35324361670E+02  0.19409492637E+02  0.48580283121E+02  0.51100000000E-03 0.  1.
         23    2    1    0    0    0  0.16343441230E+02  0.16983157487E+02  0.17391256994E+02  0.95798507561E+02  0.91210539532E+02 0.  0.
         11    1    3    3    0    0  0.43463636215E+02 -0.18341204183E+02 -0.20182356425E+01  0.47218224440E+02  0.51100000000E-03 0. -1.
         22    1    1    0    0    0 -0.16343441230E+02 -0.16983157487E+02 -0.17391256994E+02  0.29291492439E+02  0.00000000000E+00 0.  1.
</event>
<event>
 5    1  0.1055265E-009  0.9118800E+02  0.7815553E-02  0.1125453E+00
         25   -1    0    0    0    0  0.00000000000E+00  0.00000000000E+00  0.99999998245E-14  0.12509000000E+03  0.12509000000E+03 0.  0.
        -11    1    3    3    0    0 -0.24778825494E+00 -0.33653536167E+02  0.35515312223E+02  0.48928103357E+02  0.51100000000E-03 0.  1.
         23    2    1    0    0    0 -0.27548839664E+02 -0.59763481992E+01  0.11361196292E+02  0.94697038877E+02  0.89687218076E+02 0.  0.
         11    1    3    3    0    0 -0.27301051409E+02  0.27677187968E+02 -0.24154115931E+02  0.45768935519E+02  0.51100000000E-03 0. -1.
         22    1    1    0    0    0  0.27548839664E+02  0.59763481992E+01 -0.11361196292E+02  0.30392961123E+02  0.00000000000E+00 0. -1.
</event>
<event>
 5    1  0.1055265E-009  0.9118800E+02  0.7815553E-02  0.1125453E+00
         25   -1    0    0    0    0  0.00000000000E+00  0.00000000000E+00  0.99999998245E-14  0.12509000000E+03  0.12509000000E+03 0.  0.
        -11    1    3    3    0    0 -0.31094611746E+02  0.12516712584E+02 -0.47460922000E+02  0.58104062603E+02  0.51100000000E-03 0. -1.
         23    2    1    0    0    0 -0.23861057025E+02 -0.73020033841E+01 -0.18079857231E+02  0.94275222160E+02  0.89096952698E+02 0.  0.
         11    1    3    3    0    0  0.72335547210E+01 -0.19818715968E+02  0.29381064769E+02  0.36171159558E+02  0.51100000000E-03 0.  1.
         22    1    1    0    0    0  0.23861057025E+02  0.73020033841E+01  0.18079857231E+02  0.30814777840E+02  0.00000000000E+00 0. -1.
</event>
<event>
 5    1  0.1055265E-009  0.9118800E+02  0.7815553E-02  0.1125453E+00
         25   -1    0    0    0    0  0.00000000000E+00  0.00000000000E+00  0.99999998245E-14  0.12509000000E+03  0.12509000000E+03 0.  0.
        -11    1    3    3    0    0 -0.44376222364E+02 -0.17680116220E+02  0.19147336640E+02  0.51463153046E+02  0.51100000000E-03 0.  1.
         23    2    1    0    0    0 -0.26325446397E+02 -0.32075297865E+02  0.26690446550E+02  0.75752045054E+02  0.57481636474E+02 0.  0.
         11    1    3    3    0    0  0.18050775967E+02 -0.14395181645E+02  0.75431099103E+01  0.24288892008E+02  0.51100000000E-03 0. -1.
         22    1    1    0    0    0  0.26325446397E+02  0.32075297865E+02 -0.26690446550E+02  0.49337954946E+02  0.00000000000E+00 0.  1.
</event>
<event>
 5    1  0.1055265E-009  0.9118800E+02  0.7815553E-02  0.1125453E+00
         25   -1    0    0    0    0  0.00000000000E+00  0.00000000000E+00  0.99999998245E-14  0.12509000000E+03  0.12509000000E+03 0.  0.
        -11    1    3    3    0    0 -0.19777390795E+02  0.17029718439E+02 -0.23110536017E+02  0.34860484392E+02  0.51100000000E-03 0.  1.
         23    2    1    0    0    0  0.85086725944E+01  0.63945261582E+00  0.28159355293E+02  0.95666273188E+02  0.91029007059E+02 0.  0.
         11    1    3    3    0    0  0.28286063389E+02 -0.16390265823E+02  0.51269891311E+02  0.60805788796E+02  0.51100000000E-03 0. -1.
         22    1    1    0    0    0 -0.85086725944E+01 -0.63945261582E+00 -0.28159355293E+02  0.29423726812E+02  0.00000000000E+00 0. -1.
</event>
<event>
 5    1  0.1055265E-009  0.9118800E+02  0.7815553E-02  0.1125453E+00
         25   -1    0    0    0    0  0.00000000000E+00  0.00000000000E+00  0.99999998245E-14  0.12509000000E+03  0.12509000000E+03 0.  0.
        -11    1    3    3    0    0 -0.27457172884E+02 -0.16592605759E+02 -0.49867819272E+02  0.59295955240E+02  0.51100000000E-03 0. -1.
         23    2    1    0    0    0 -0.53825596427E+01 -0.19794761172E+02 -0.21652645056E+02  0.95263140359E+02  0.90473335049E+02 0.  0.
         11    1    3    3    0    0  0.22074613241E+02 -0.32021554128E+01  0.28215174216E+02  0.35967185119E+02  0.51100000000E-03 0.  1.
         22    1    1    0    0    0  0.53825596427E+01  0.19794761172E+02  0.21652645056E+02  0.29826859641E+02  0.00000000000E+00 0.  1.
</event>
<event>
 5    1  0.1055265E-009  0.9118800E+02  0.7815553E-02  0.1125453E+00
         25   -1    0    0    0    0  0.00000000000E+00  0.00000000000E+00  0.99999998245E-14  0.12509000000E+03  0.12509000000E+03 0.  0.
        -11    1    3    3    0    0  0.93400327556E+01  0.62859058382E+01 -0.50559400142E+02  0.51797700403E+02  0.51100000000E-03 0.  1.
         23    2    1    0    0    0  0.25752149231E+02 -0.83619855868E+01 -0.13643401521E+02  0.94771055460E+02  0.89790392331E+02 0.  0.
         11    1    3    3    0    0  0.16412116476E+02 -0.14647891425E+02  0.36915998621E+02  0.42973355057E+02  0.51100000000E-03 0. -1.
         22    1    1    0    0    0 -0.25752149231E+02  0.83619855868E+01  0.13643401521E+02  0.30318944540E+02  0.00000000000E+00 0.  1.
</event>
<event>
 5    1  0.1055265E-009  0.9118800E+02  0.7815553E-02  0.1125453E+00
         25   -1    0    0    0    0  0.00000000000E+00  0.00000000000E+00  0.99999998245E-14  0.12509000000E+03  0.12509000000E+03 0.  0.
        -11    1    3    3    0    0 -0.43290336624E+02 -0.19958281100E+02  0.25082294749E+02  0.53865645263E+02  0.51100000000E-03 0. -1.
         23    2    1    0    0    0 -0.10326113406E+02  0.75967424999E+01  0.25185161080E+02  0.96829931824E+02  0.92614276674E+02 0.  0.
         11    1    3    3    0    0  0.32964223218E+02  0.27555023600E+02  0.10286633096E+00  0.42964286561E+02  0.51100000000E-03 0.  1.
         22    1    1    0    0    0  0.10326113406E+02 -0.75967424999E+01 -0.25185161080E+02  0.28260068176E+02  0.00000000000E+00 0. -1.
</event>
<event>
 5    1  0.1055265E-009  0.9118800E+02  0.7815553E-02  0.1125453E+00
         25   -1    0    0    0    0  0.00000000000E+00  0.00000000000E+00  0.99999998245E-14  0.12509000000E+03  0.12509000000E+03 0.  0.
        -11    1    3    3    0    0  0.12263063752E+02  0.50180544243E+02 -0.30886154616E+01  0.51749485977E+02  0.51100000000E-03 0. -1.
         23    2    1    0    0    0 -0.20531764810E+02  0.21139414699E+02 -0.14504805671E+01  0.95585218796E+02  0.90917555722E+02 0.  0.
         11    1    3    3    0    0 -0.32794828562E+02 -0.29041129544E+02  0.16381348945E+01  0.43835732819E+02  0.51100000000E-03 0.  1.
         22    1    1    0    0    0  0.20531764810E+02 -0.21139414699E+02  0.14504805671E+01  0.29504781204E+02  0.00000000000E+00 0.  1.
</event>
<event>
 5    1  0.1055265E-009  0.9118800E+02  0.7815553E-02  0.1125453E+00
         25   -1    0    0    0    0  0.00000000000E+00  0.00000000000E+00  0.99999998245E-14  0.12509000000E+03  0.12509000000E+03 0.  0.
        -11    1    3    3    0    0 -0.19107849725E+02 -0.38859993215E+02  0.55496773371E+01  0.43657850526E+02  0.51100000000E-03 0.  1.
         23    2    1    0    0    0 -0.58877108909E+01  0.29606334337E+01 -0.26373449212E+02  0.97905642122E+02  0.94055969753E+02 0.  0.
         11    1    3    3    0    0  0.13220138834E+02  0.41820626649E+02 -0.31923126549E+02  0.54247791596E+02  0.51100000000E-03 0. -1.
         22    1    1    0    0    0  0.58877108909E+01 -0.29606334337E+01  0.26373449212E+02  0.27184357878E+02  0.00000000000E+00 0.  1.
</event>
<event>
 5    1  0.1055265E-009  0.9118800E+02  0.7815553E-02  0.1125453E+00
         25   -1    0    0    0    0  0.00000000000E+00  0.00000000000E+00  0.99999998245E-14  0.12509000000E+03  0.12509000000E+03 0.  0.
        -11    1    3    3    0    0  0.12095302513E+02  0.44265989197E+02  0.26721023965E+01  0.45966447263E+02  0.51100000000E-03 0. -1.
         23    2    1    0    0    0 -0.14359865307E+02  0.93192971032E+01  0.24712870748E+02  0.95027049201E+02  0.90146320330E+02 0.  0.
         11    1    3    3    0    0 -0.26455167820E+02 -0.34946692094E+02  0.22040768352E+02  0.49060601938E+02  0.51100000000E-03 0.  1.
         22    1    1    0    0    0  0.14359865307E+02 -0.93192971032E+01 -0.24712870748E+02  0.30062950799E+02  0.00000000000E+00 0. -1.
</event>
<event>
 5    1  0.1055265E-009  0.9118800E+02  0.7815553E-02  0.1125453E+00
         25   -1    0    0    0    0  0.00000000000E+00  0.00000000000E+00  0.99999998245E-14  0.12509000000E+03  0.12509000000E+03 0.  0.
        -11    1    3    3    0    0  0.31120727299E+02  0.32375224345E+02  0.24817664472E+02  0.51308588844E+02  0.51100000000E-03 0.  1.
         23    2    1    0    0    0 -0.19769477005E+01  0.30750266552E+02 -0.23887166767E+01  0.94183800256E+02  0.88968505934E+02 0.  0.
         11    1    3    3    0    0 -0.33097675000E+02 -0.16249577928E+01 -0.27206381149E+02  0.42875211413E+02  0.51100000000E-03 0. -1.
         22    1    1    0    0    0  0.19769477005E+01 -0.30750266552E+02  0.23887166767E+01  0.30906199744E+02  0.00000000000E+00 0.  1.
</event>
<event>
 5    1  0.1055265E-009  0.9118800E+02  0.7815553E-02  0.1125453E+00
         25   -1    0    0    0    0  0.00000000000E+00  0.00000000000E+00  0.99999998245E-14  0.12509000000E+03  0.12509000000E+03 0.  0.
        -11    1    3    3    0    0 -0.26654773790E+02 -0.24753550694E+02 -0.23167965123E+02  0.43127367714E+02  0.51100000000E-03 0.  1.
         23    2    1    0    0    0 -0.18575753388E+02 -0.53509451006E+01  0.23708223537E+02  0.94499624215E+02  0.89411452768E+02 0.  0.
         11    1    3    3    0    0  0.80790204021E+01  0.19402605593E+02  0.46876188660E+02  0.51372256501E+02  0.51100000000E-03 0. -1.
         22    1    1    0    0    0  0.18575753388E+02  0.53509451006E+01 -0.23708223537E+02  0.30590375785E+02  0.00000000000E+00 0. -1.
</event>
<event>
 5    1  0.1055265E-009  0.9118800E+02  0.7815553E-02  0.1125453E+00
         25   -1    0    0    0    0  0.00000000000E+00  0.00000000000E+00  0.99999998245E-14  0.12509000000E+03  0.12509000000E+03 0.  0.
        -11    1    3    3    0    0  0.92633104056E+01 -0.27018766882E+02 -0.40198122519E+02  0.49312389293E+02  0.51100000000E-03 0. -1.
         23    2    1    0    0    0  0.23185010350E+02 -0.30141907683E+02 -0.57086266271E+01  0.86636551239E+02  0.77635200063E+02 0.  0.
         11    1    3    3    0    0  0.13921699944E+02 -0.31231408003E+01  0.34489495892E+02  0.37324161945E+02  0.51100000000E-03 0.  1.
         22    1    1    0    0    0 -0.23185010350E+02  0.30141907683E+02  0.57086266271E+01  0.38453448761E+02  0.00000000000E+00 0.  1.
</event>
<event>
 5    1  0.1055265E-009  0.9118800E+02  0.7815553E-02  0.1125453E+00
         25   -1    0    0    0    0  0.00000000000E+00  0.00000000000E+00  0.99999998245E-14  0.12509000000E+03  0.12509000000E+03 0.  0.
        -11    1    3    3    0    0 -0.52944542491E+00 -0.21883177929E+02 -0.32687884589E+02  0.39340203201E+02  0.51100000000E-03 0.  1.
         23    2    1    0    0    0 -0.68487038288E+01 -0.20930333009E-01  0.23844635469E+02  0.10028129542E+03  0.97164120891E+02 0.  0.
         11    1    3    3    0    0 -0.63192584039E+01  0.21862247596E+02  0.56532520058E+02  0.60941092221E+02  0.51100000000E-03 0. -1.
         22    1    1    0    0    0  0.68487038288E+01  0.20930333009E-01 -0.23844635469E+02  0.24808704578E+02  0.00000000000E+00 0. -1.
</event>
<event>
 5    1  0.1055265E-009  0.9118800E+02  0.7815553E-02  0.1125453E+00
         25   -1    0    0    0    0  0.00000000000E+00  0.00000000000E+00  0.99999998245E-14  0.12509000000E+03  0.12509000000E+03 0.  0.
        -11    1    3    3    0    0 -0.25571965508E+02 -0.21098662641E+02 -0.45140038679E+02  0.56006268197E+02  0.51100000000E-03 0. -1.
         23    2    1    0    0    0 -0.12490910637E+02  0.10248606802E+02 -0.24466037310E+02  0.95770317676E+02  0.91171870531E+02 0.  0.
         11    1    3    3    0    0  0.13081054871E+02  0.31347269443E+02  0.20674001368E+02  0.39764049479E+02  0.51100000000E-03 0.  1.
         22    1    1    0    0    0  0.12490910637E+02 -0.10248606802E+02  0.24466037310E+02  0.29319682324E+02  0.00000000000E+00 0. -1.
</event>
<event>
 5    1  0.1055265E-009  0.9118800E+02  0.7815553E-02  0.1125453E+00
         25   -1    0    0    0    0  0.00000000000E+00  0.00000000000E+00  0.99999998245E-14  0.12509000000E+03  0.12509000000E+03 0.  0.
        -11    1    3    3    0    0 -0.52159548094E+02 -0.31710279633E+02  0.70494932705E+01  0.61447991403E+02  0.51100000000E-03 0. -1.
         23    2    1    0    0    0 -0.22636141085E+02 -0.17363783868E+02 -0.44242729806E+01  0.96220118378E+02  0.91786933252E+02 0.  0.
         11    1    3    3    0    0  0.29523407009E+02  0.14346495765E+02 -0.11473766251E+02  0.34772126975E+02  0.51100000000E-03 0.  1.
         22    1    1    0    0    0  0.22636141085E+02  0.17363783868E+02  0.44242729806E+01  0.28869881622E+02  0.00000000000E+00 0. -1.
</event>
<event>
 5    1  0.1055265E-009  0.9118800E+02  0.7815553E-02  0.1125453E+00
         25   -1    0    0    0    0  0.00000000000E+00  0.00000000000E+00  0.99999998245E-14  0.12509000000E+03  0.12509000000E+03 0.  0.
        -11    1    3    3    0    0 -0.89519851756E+01 -0.45293991732E+02  0.37758044292E+02  0.59643554846E+02  0.51100000000E-03 0.  1.
         23    2    1    0    0    0 -0.10287384586E+02 -0.29921023114E+02  0.91408705103E+01  0.92155923126E+02  0.86070092063E+02 0.  0.
         11    1    3    3    0    0 -0.13353994101E+01  0.15372968618E+02 -0.28617173782E+02  0.32512368281E+02  0.51100000000E-03 0. -1.
         22    1    1    0    0    0  0.10287384586E+02  0.29921023114E+02 -0.91408705103E+01  0.32934076874E+02  0.00000000000E+00 0.  1.
</event>
<event>
 5    1  0.1055265E-009  0.9118800E+02  0.7815553E-02  0.1125453E+00
         25   -1    0    0    0    0  0.00000000000E+00  0.00000000000E+00  0.99999998245E-14  0.12509000000E+03  0.12509000000E+03 0.  0.
        -11    1    3    3    0    0  0.39285871949E+02  0.68683659662E+01 -0.89755358044E+01  0.40879266494E+02  0.51100000000E-03 0.  1.
         23    2    1    0    0    0 -0.72729298412E+01  0.12412959371E+02  0.23232610477E+02  0.97763616075E+02  0.93866891766E+02 0.  0.
         11    1    3    3    0    0 -0.46558801790E+02  0.55445934048E+01  0.32208146281E+02  0.56884349582E+02  0.51100000000E-03 0. -1.
         22    1    1    0    0    0  0.72729298412E+01 -0.12412959371E+02 -0.23232610477E+02  0.27326383925E+02  0.00000000000E+00 0. -1.
</event>
<event>
 5    1  0.1055265E-009  0.9118800E+02  0.7815553E-02  0.1125453E+00
         25   -1    0    0    0    0  0.00000000000E+00  0.00000000000E+00  0.99999998245E-14  0.12509000000E+03  0.12509000000E+03 0.  0.
        -11    1    3    3    0    0  0.17862272099E+02 -0.35171630961E+02 -0.34146981826E+02  0.52173947111E+02  0.51100000000E-03 0. -1.
         23    2    1    0    0    0 -0.12820456811E+02 -0.26679730989E+02 -0.55376174717E+01  0.94976259519E+02  0.90075815325E+02 0.  0.
         11    1    3    3    0    0 -0.30682728910E+02  0.84918999720E+01  0.28609364354E+02  0.42802312408E+02  0.51100000000E-03 0.  1.
         22    1    1    0    0    0  0.12820456811E+02  0.26679730989E+02  0.55376174717E+01  0.30113740481E+02  0.00000000000E+00 0.  1.
</event>
<event>
 5    1  0.1055265E-009  0.9118800E+02  0.7815553E-02  0.1125453E+00
         25   -1    0    0    0    0  0.00000000000E+00  0.00000000000E+00  0.99999998245E-14  0.12509000000E+03  0.12509000000E+03 0.  0.
        -11    1    3    3    0    0  0.27661675164E+02  0.33061350341E+02 -0.21072749707E+02  0.47982100201E+02  0.51100000000E-03 0.  1.
         23    2    1    0    0    0  0.24635515076E+02  0.21175921417E+01 -0.35151913215E+02  0.82112682701E+02  0.69967441414E+02 0.  0.
         11    1    3    3    0    0 -0.30261600874E+01 -0.30943758200E+02 -0.14079163509E+02  0.34130582500E+02  0.51100000000E-03 0. -1.
         22    1    1    0    0    0 -0.24635515076E+02 -0.21175921417E+01  0.35151913215E+02  0.42977317299E+02  0.00000000000E+00 0.  1.
</event>
<event>
 5    1  0.1055265E-009  0.9118800E+02  0.7815553E-02  0.1125453E+00
         25   -1    0    0    0    0  0.00000000000E+00  0.00000000000E+00  0.99999998245E-14  0.12509000000E+03  0.12509000000E+03 0.  0.
        -11    1    3    3    0    0  0.97543980639E+01 -0.22710053789E+02  0.39988163150E+02  0.47010084206E+02  0.51100000000E-03 0.  1.
         23    2    1    0    0    0  0.20871668956E+02  0.16308674073E+02  0.16184373776E+02  0.94049166094E+02  0.88779008067E+02 0.  0.
         11    1    3    3    0    0  0.11117270892E+02  0.39018727862E+02 -0.23803789373E+02  0.47039081888E+02  0.51100000000E-03 0. -1.
         22    1    1    0    0    0 -0.20871668956E+02 -0.16308674073E+02 -0.16184373776E+02  0.31040833906E+02  0.00000000000E+00 0. -1.
</event>
<event>
 5    1  0.1055265E-009  0.9118800E+02  0.7815553E-02  0.1125453E+00
         25   -1    0    0    0    0  0.00000000000E+00  0.00000000000E+00  0.99999998245E-14  0.12509000000E+03  0.12509000000E+03 0.  0.
        -11    1    3    3    0    0 -0.14568098405E+02  0.30182517577E+02 -0.34768548570E+02  0.48291467448E+02  0.51100000000E-03 0. -1.
         23    2    1    0    0    0  0.17567654598E+02  0.23034109651E+02 -0.71772483673E-01  0.96121088271E+02  0.91651872668E+02 0.  0.
         11    1    3    3    0    0  0.32135753004E+02 -0.71484079256E+01  0.34696776086E+02  0.47829620822E+02  0.51100000000E-03 0.  1.
         22    1    1    0    0    0 -0.17567654598E+02 -0.23034109651E+02  0.71772483673E-01  0.28968911729E+02  0.00000000000E+00 0. -1.
</event>
<event>
 5    1  0.1055265E-009  0.9118800E+02  0.7815553E-02  0.1125453E+00
         25   -1    0    0    0    0  0.00000000000E+00  0.00000000000E+00  0.99999998245E-14  0.12509000000E+03  0.12509000000E+03 0.  0.
        -11    1    3    3    0    0  0.14548843494E+02  0.30080924759E+01 -0.55891392210E+02  0.57832215856E+02  0.51100000000E-03 0. -1.
         23    2    1    0    0    0  0.17184414659E+02 -0.10513150992E+02 -0.18279074842E+02  0.97887885597E+02  0.94032351446E+02 0.  0.
         11    1    3    3    0    0  0.26355711649E+01 -0.13521243467E+02  0.37612317368E+02  0.40055669740E+02  0.51100000000E-03 0.  1.
         22    1    1    0    0    0 -0.17184414659E+02  0.10513150992E+02  0.18279074842E+02  0.27202114403E+02  0.00000000000E+00 0. -1.
</event>
<event>
 5    1  0.1055265E-009  0.9118800E+02  0.7815553E-02  0.1125453E+00
         25   -1    0    0    0    0  0.00000000000E+00  0.00000000000E+00  0.99999998245E-14  0.12509000000E+03  0.12509000000E+03 0.  0.
        -11    1    3    3    0    0 -0.29193088121E+02 -0.41382187489E+01 -0.51268888320E+02  0.59142710102E+02  0.51100000000E-03 0.  1.
         23    2    1    0    0    0 -0.18902904848E+02  0.80252816582E+01 -0.12521740944E+02  0.10103757905E+03  0.98132937519E+02 0.  0.
         11    1    3    3    0    0  0.10290183273E+02  0.12163500407E+02  0.38747147375E+02  0.41894868945E+02  0.51100000000E-03 0. -1.
         22    1    1    0    0    0  0.18902904848E+02 -0.80252816582E+01  0.12521740944E+02  0.24052420953E+02  0.00000000000E+00 0.  1.
</event>
<event>
 5    1  0.1055265E-009  0.9118800E+02  0.7815553E-02  0.1125453E+00
         25   -1    0    0    0    0  0.00000000000E+00  0.00000000000E+00  0.99999998245E-14  0.12509000000E+03  0.12509000000E+03 0.  0.
        -11    1    3    3    0    0 -0.13906593783E+02 -0.46755025959E+02  0.10003569833E+02  0.49794550031E+02  0.51100000000E-03 0. -1.
         23    2    1    0    0    0  0.21378780177E+02 -0.25988240679E+02  0.33932108304E+01  0.91267599506E+02  0.84769215782E+02 0.  0.
         11    1    3    3    0    0  0.35285373960E+02  0.20766785280E+02 -0.66103590028E+01  0.41473049475E+02  0.51100000000E-03 0.  1.
         22    1    1    0    0    0 -0.21378780177E+02  0.25988240679E+02 -0.33932108304E+01  0.33822400494E+02  0.00000000000E+00 0. -1.
</event>
<event>
 5    1  0.1055265E-009  0.9118800E+02  0.7815553E-02  0.1125453E+00
         25   -1    0    0    0    0  0.00000000000E+00  0.00000000000E+00  0.99999998245E-14  0.12509000000E+03  0.12509000000E+03 0.  0.
        -11    1    3    3    0    0 -0.20526429668E+02  0.42492831963E+02  0.31515660958E+02  0.56746911537E+02  0.51100000000E-03 0. -1.
         23    2    1    0    0    0  0.87738602666E+01  0.19006068460E+02  0.20281126989E+02  0.95943209881E+02  0.91408775006E+02 0.  0.
         11    1    3    3    0    0  0.29300289935E+02 -0.23486763503E+02 -0.11234533970E+02  0.39196298344E+02  0.51100000000E-03 0.  1.
         22    1    1    0    0    0 -0.87738602666E+01 -0.19006068460E+02 -0.20281126989E+02  0.29146790119E+02  0.00000000000E+00 0. -1.
</event>
<event>
 5    1  0.1055265E-009  0.9118800E+02  0.7815553E-02  0.1125453E+00
         25   -1    0    0    0    0  0.00000000000E+00  0.00000000000E+00  0.99999998245E-14  0.12509000000E+03  0.12509000000E+03 0.  0.
        -11    1    3    3    0    0 -0.32499373867E+00 -0.21059517619E+02  0.48772408569E+02  0.53125857557E+02  0.51100000000E-03 0. -1.
         23    2    1    0    0    0 -0.88948066431E-01  0.15008938592E+02  0.23640883738E+02  0.97087008493E+02  0.92960850281E+02 0.  0.
         11    1    3    3    0    0  0.23604567224E+00  0.36068456211E+02 -0.25131524831E+02  0.43961150936E+02  0.51100000000E-03 0.  1.
         22    1    1    0    0    0  0.88948066431E-01 -0.15008938592E+02 -0.23640883738E+02  0.28002991507E+02  0.00000000000E+00 0. -1.
</event>
<event>
 5    1  0.1055265E-009  0.9118800E+02  0.7815553E-02  0.1125453E+00
         25   -1    0    0    0    0  0.00000000000E+00  0.00000000000E+00  0.99999998245E-14  0.12509000000E+03  0.12509000000E+03 0.  0.
        -11    1    3    3    0    0  0.44842682093E+02 -0.53677906679E+01 -0.30377755268E+02  0.54428736246E+02  0.51100000000E-03 0.  1.
         23    2    1    0    0    0  0.10551497411E+02  0.15189272978E+02 -0.23802667961E+02  0.94946756756E+02  0.90034834954E+02 0.  0.
         11    1    3    3    0    0 -0.34291184682E+02  0.20557063646E+02  0.65750873075E+01  0.40518020509E+02  0.51100000000E-03 0. -1.
         22    1    1    0    0    0 -0.10551497411E+02 -0.15189272978E+02  0.23802667961E+02  0.30143243244E+02  0.00000000000E+00 0.  1.
</event>
<event>
 5    1  0.1055265E-009  0.9118800E+02  0.7815553E-02  0.1125453E+00
         25   -1    0    0    0    0  0.00000000000E+00  0.00000000000E+00  0.99999998245E-14  0.12509000000E+03  0.12509000000E+03 0.  0.
        -11    1    3    3    0    0 -0.10111296372E+02  0.19332685059E+02  0.31048005876E+02  0.37946932617E+02  0.51100000000E-03 0.  1.
         23    2    1    0    0    0 -0.10078802865E+02 -0.17575464143E+01 -0.25132086961E+02  0.97955279961E+02  0.94121962583E+02 0.  0.
         11    1    3    3    0    0  0.32493506031E-01 -0.21090231473E+02 -0.56180092837E+02  0.60008347343E+02  0.51100000000E-03 0. -1.
         22    1    1    0    0    0  0.10078802865E+02  0.17575464143E+01  0.25132086961E+02  0.27134720039E+02  0.00000000000E+00 0. -1.
</event>
<event>
 5    1  0.1055265E-009  0.9118800E+02  0.7815553E-02  0.1125453E+00
         25   -1    0    0    0    0  0.00000000000E+00  0.00000000000E+00  0.99999998245E-14  0.12509000000E+03  0.12509000000E+03 0.  0.
        -11    1    3    3    0    0  0.52866546077E+01 -0.38532772572E+02  0.38870375479E+02  0.54987538308E+02  0.51100000000E-03 0.  1.
         23    2    1    0    0    0  0.23349386914E+02 -0.14836353519E+02  0.12677718368E+02  0.94659163698E+02  0.89634376631E+02 0.  0.
         11    1    3    3    0    0  0.18062732306E+02  0.23696419053E+02 -0.26192657111E+02  0.39671625390E+02  0.51100000000E-03 0. -1.
         22    1    1    0    0    0 -0.23349386914E+02  0.14836353519E+02 -0.12677718368E+02  0.30430836302E+02  0.00000000000E+00 0.  1.
</event>
<event>
 5    1  0.1055265E-009  0.9118800E+02  0.7815553E-02  0.1125453E+00
         25   -1    0    0    0    0  0.00000000000E+00  0.00000000000E+00  0.99999998245E-14  0.12509000000E+03  0.12509000000E+03 0.  0.
        -11    1    3    3    0    0 -0.13988619048E+02  0.11827779277E+01 -0.30333353273E+02  0.33424433391E+02  0.51100000000E-03 0.  1.
         23    2    1    0    0    0 -0.74601331898E+01  0.84948016939E+01  0.29209580785E+02  0.93768843370E+02  0.88383149606E+02 0.  0.
         11    1    3    3    0    0  0.65284858585E+01  0.73120237662E+01  0.59542934058E+02  0.60344409978E+02  0.51100000000E-03 0. -1.
         22    1    1    0    0    0  0.74601331898E+01 -0.84948016939E+01 -0.29209580785E+02  0.31321156630E+02  0.00000000000E+00 0. -1.
</event>
<event>
 5    1  0.1055265E-009  0.9118800E+02  0.7815553E-02  0.1125453E+00
         25   -1    0    0    0    0  0.00000000000E+00  0.00000000000E+00  0.99999998245E-14  0.12509000000E+03  0.12509000000E+03 0.  0.
        -11    1    3    3    0    0  0.82550814422E+01 -0.18506187609E+02  0.28420634691E+02  0.34904982824E+02  0.51100000000E-03 0. -1.
         23    2    1    0    0    0 -0.16478404278E+02 -0.29694599186E+01 -0.24537579668E+02  0.95383968361E+02  0.90640239985E+02 0.  0.
         11    1    3    3    0    0 -0.24733485721E+02  0.15536727691E+02 -0.52958214359E+02  0.60478985537E+02  0.51100000000E-03 0.  1.
         22    1    1    0    0    0  0.16478404278E+02  0.29694599186E+01  0.24537579668E+02  0.29706031639E+02  0.00000000000E+00 0.  1.
</event>
<event>
 5    1  0.1055265E-009  0.9118800E+02  0.7815553E-02  0.1125453E+00
         25   -1    0    0    0    0  0.00000000000E+00  0.00000000000E+00  0.99999998245E-14  0.12509000000E+03  0.12509000000E+03 0.  0.
        -11    1    3    3    0    0  0.11875963748E+02  0.10108802329E+02  0.40743021873E+02  0.43625912381E+02  0.51100000000E-03 0. -1.
         23    2    1    0    0    0  0.15209741899E+02  0.24703547756E+02 -0.83102773034E+01  0.94912819396E+02  0.89987671691E+02 0.  0.
         11    1    3    3    0    0  0.33337781511E+01  0.14594745427E+02 -0.49053299176E+02  0.51286907015E+02  0.51100000000E-03 0.  1.
         22    1    1    0    0    0 -0.15209741899E+02 -0.24703547756E+02  0.83102773034E+01  0.30177180604E+02  0.00000000000E+00 0. -1.
</event>
<event>
 5    1  0.1055265E-009  0.9118800E+02  0.7815553E-02  0.1125453E+00
         25   -1    0    0    0    0  0.00000000000E+00  0.00000000000E+00  0.99999998245E-14  0.12509000000E+03  0.12509000000E+03 0.  0.
        -11    1    3    3    0    0 -0.10455723642E+02 -0.47957311041E+01  0.41288038376E+02  0.42860509877E+02  0.51100000000E-03 0.  1.
         23    2    1    0    0    0  0.20847724987E+02 -0.19196142769E+02 -0.14657421908E+00  0.96750257264E+02  0.92506601182E+02 0.  0.
         11    1    3    3    0    0  0.31303448629E+02 -0.14400411665E+02 -0.41434612596E+02  0.53889747387E+02  0.51100000000E-03 0. -1.
         22    1    1    0    0    0 -0.20847724987E+02  0.19196142769E+02  0.14657421908E+00  0.28339742736E+02  0.00000000000E+00 0. -1.
</event>
<event>
 5    1  0.1055265E-009  0.9118800E+02  0.7815553E-02  0.1125453E+00
         25   -1    0    0    0    0  0.00000000000E+00  0.00000000000E+00  0.99999998245E-14  0.12509000000E+03  0.12509000000E+03 0.  0.
        -11    1    3    3    0    0  0.81538372544E+00 -0.44883111500E+02  0.21904855105E+02  0.49949787047E+02  0.51100000000E-03 0. -1.
         23    2    1    0    0    0  0.19274987099E+02 -0.18230034731E+02 -0.11205542848E+02  0.96290286730E+02  0.91882511034E+02 0.  0.
         11    1    3    3    0    0  0.18459603373E+02  0.26653076770E+02 -0.33110397953E+02  0.46340499683E+02  0.51100000000E-03 0.  1.
         22    1    1    0    0    0 -0.19274987099E+02  0.18230034731E+02  0.11205542848E+02  0.28799713270E+02  0.00000000000E+00 0. -1.
</event>
<event>
 5    1  0.1055265E-009  0.9118800E+02  0.7815553E-02  0.1125453E+00
         25   -1    0    0    0    0  0.00000000000E+00  0.00000000000E+00  0.99999998245E-14  0.12509000000E+03  0.12509000000E+03 0.  0.
        -11    1    3    3    0    0 -0.12907793706E+02  0.25145696784E+02 -0.32571222808E+02  0.43125418961E+02  0.51100000000E-03 0.  1.
         23    2    1    0    0    0  0.15489510239E+01  0.25367964570E+02  0.16835645079E+02  0.94604399777E+02  0.89557917775E+02 0.  0.
         11    1    3    3    0    0  0.14456744730E+02  0.22226778566E+00  0.49406867887E+02  0.51478980816E+02  0.51100000000E-03 0. -1.
         22    1    1    0    0    0 -0.15489510239E+01 -0.25367964570E+02 -0.16835645079E+02  0.30485600223E+02  0.00000000000E+00 0. -1.
</event>
<event>
 5    1  0.1055265E-009  0.9118800E+02  0.7815553E-02  0.1125453E+00
         25   -1    0    0    0    0  0.00000000000E+00  0.00000000000E+00  0.99999998245E-14  0.12509000000E+03  0.12509000000E+03 0.  0.
        -11    1    3    3    0    0  0.24879303698E+02 -0.39877086475E+02  0.33847553323E+02  0.57920796304E+02  0.51100000000E-03 0.  1.
         23    2    1    0    0    0  0.75425873221E+01 -0.81439664179E+01  0.28538750682E+02  0.94468518928E+02  0.89367924702E+02 0.  0.
         11    1    3    3    0    0 -0.17336716376E+02  0.31733120058E+02 -0.53088026410E+01  0.36547722624E+02  0.51100000000E-03 0. -1.
         22    1    1    0    0    0 -0.75425873221E+01  0.81439664179E+01 -0.28538750682E+02  0.30621481072E+02  0.00000000000E+00 0.  1.
</event>
<event>
 5    1  0.1055265E-009  0.9118800E+02  0.7815553E-02  0.1125453E+00
         25   -1    0    0    0    0  0.00000000000E+00  0.00000000000E+00  0.99999998245E-14  0.12509000000E+03  0.12509000000E+03 0.  0.
        -11    1    3    3    0    0  0.27851160343E+02 -0.40377313528E+02  0.16801192312E+02  0.51848767040E+02  0.51100000000E-03 0. -1.
         23    2    1    0    0    0 -0.85570717499E+01 -0.15095335832E+02  0.22648867157E+02  0.96558196266E+02  0.92246525365E+02 0.  0.
         11    1    3    3    0    0 -0.36408232093E+02  0.25281977696E+02  0.58476748444E+01  0.44709429226E+02  0.51100000000E-03 0.  1.
         22    1    1    0    0    0  0.85570717499E+01  0.15095335832E+02 -0.22648867157E+02  0.28531803734E+02  0.00000000000E+00 0. -1.
</event>
<event>
 5    1  0.1055265E-009  0.9118800E+02  0.7815553E-02  0.1125453E+00
         25   -1    0    0    0    0  0.00000000000E+00  0.00000000000E+00  0.99999998245E-14  0.12509000000E+03  0.12509000000E+03 0.  0.
        -11    1    3    3    0    0 -0.13220776775E+02 -0.25311693798E+02  0.23770990486E+02  0.37155494485E+02  0.51100000000E-03 0. -1.
         23    2    1    0    0    0  0.19297515211E+02 -0.11809385024E+02 -0.21073829588E+02  0.94171365465E+02  0.88951020860E+02 0.  0.
         11    1    3    3    0    0  0.32518291986E+02  0.13502308773E+02 -0.44844820074E+02  0.57015870981E+02  0.51100000000E-03 0.  1.
         22    1    1    0    0    0 -0.19297515211E+02  0.11809385024E+02  0.21073829588E+02  0.30918634535E+02  0.00000000000E+00 0.  1.
</event>
<event>
 5    1  0.1055265E-009  0.9118800E+02  0.7815553E-02  0.1125453E+00
         25   -1    0    0    0    0  0.00000000000E+00  0.00000000000E+00  0.99999998245E-14  0.12509000000E+03  0.12509000000E+03 0.  0.
        -11    1    3    3    0    0 -0.29328228545E+02  0.11770839674E+01 -0.48375139847E+02  0.56583431071E+02  0.51100000000E-03 0. -1.
         23    2    1    0    0    0  0.66941060320E+00  0.12901117073E+02 -0.26769606219E+02  0.95366293141E+02  0.90615843637E+02 0.  0.
         11    1    3    3    0    0  0.29997639148E+02  0.11724033106E+02  0.21605533628E+02  0.38782862070E+02  0.51100000000E-03 0.  1.
         22    1    1    0    0    0 -0.66941060320E+00 -0.12901117073E+02  0.26769606219E+02  0.29723706859E+02  0.00000000000E+00 0. -1.
</event>
<event>
 5    1  0.1055265E-009  0.9118800E+02  0.7815553E-02  0.1125453E+00
         25   -1    0    0    0    0  0.00000000000E+00  0.00000000000E+00  0.99999998245E-14  0.12509000000E+03  0.12509000000E+03 0.  0.
        -11    1    3    3    0    0 -0.31828996053E+01 -0.31445479652E+02  0.23150009567E+02  0.39177442280E+02  0.51100000000E-03 0. -1.
         23    2    1    0    0    0 -0.56775997309E+01  0.17872982439E+02 -0.14590487241E+02  0.10132950847E+03  0.98504356900E+02 0.  0.
         11    1    3    3    0    0 -0.24947001256E+01  0.49318462091E+02 -0.37740496808E+02  0.62152066187E+02  0.51100000000E-03 0.  1.
         22    1    1    0    0    0  0.56775997309E+01 -0.17872982439E+02  0.14590487241E+02  0.23760491533E+02  0.00000000000E+00 0.  1.
</event>
<event>
 5    1  0.1055265E-009  0.9118800E+02  0.7815553E-02  0.1125453E+00
         25   -1    0    0    0    0  0.00000000000E+00  0.00000000000E+00  0.99999998245E-14  0.12509000000E+03  0.12509000000E+03 0.  0.
        -11    1    3    3    0    0 -0.29795052608E+02 -0.17647003666E+02 -0.12073837642E+02  0.36673416176E+02  0.51100000000E-03 0.  1.
         23    2    1    0    0    0  0.10910971767E+02  0.25823543877E+02 -0.39917279173E+01  0.96773244977E+02  0.92537680587E+02 0.  0.
         11    1    3    3    0    0  0.40706024376E+02  0.43470547543E+02  0.80821097251E+01  0.60099828802E+02  0.51100000000E-03 0. -1.
         22    1    1    0    0    0 -0.10910971767E+02 -0.25823543877E+02  0.39917279173E+01  0.28316755023E+02  0.00000000000E+00 0. -1.
</event>
<event>
 5    1  0.1055265E-009  0.9118800E+02  0.7815553E-02  0.1125453E+00
         25   -1    0    0    0    0  0.00000000000E+00  0.00000000000E+00  0.99999998245E-14  0.12509000000E+03  0.12509000000E+03 0.  0.
        -11    1    3    3    0    0 -0.37741701767E+02  0.39698911876E+02  0.14585883025E+02  0.56684986022E+02  0.51100000000E-03 0.  1.
         23    2    1    0    0    0 -0.37303234695E+01  0.22690549326E+02  0.19385640981E+02  0.95013773206E+02  0.90127896241E+02 0.  0.
         11    1    3    3    0    0  0.34011378297E+02 -0.17008362550E+02  0.47997579559E+01  0.38328787184E+02  0.51100000000E-03 0. -1.
         22    1    1    0    0    0  0.37303234695E+01 -0.22690549326E+02 -0.19385640981E+02  0.30076226794E+02  0.00000000000E+00 0.  1.
</event>
<event>
 5    1  0.1055265E-009  0.9118800E+02  0.7815553E-02  0.1125453E+00
         25   -1    0    0    0    0  0.00000000000E+00  0.00000000000E+00  0.99999998245E-14  0.12509000000E+03  0.12509000000E+03 0.  0.
        -11    1    3    3    0    0 -0.64595625680E+01 -0.74102075422E+01  0.31433540814E+02  0.32934854072E+02  0.51100000000E-03 0. -1.
         23    2    1    0    0    0  0.28880204496E+02  0.20171556013E+02 -0.33894209531E+01  0.89700085362E+02  0.82423657137E+02 0.  0.
         11    1    3    3    0    0  0.35339767064E+02  0.27581763555E+02 -0.34822961767E+02  0.56765231290E+02  0.51100000000E-03 0.  1.
         22    1    1    0    0    0 -0.28880204496E+02 -0.20171556013E+02  0.33894209531E+01  0.35389914638E+02  0.00000000000E+00 0.  1.
</event>
<event>
 5    1  0.1055265E-009  0.9118800E+02  0.7815553E-02  0.1125453E+00
         25   -1    0    0    0    0  0.00000000000E+00  0.00000000000E+00  0.99999998245E-14  0.12509000000E+03  0.12509000000E+03 0.  0.
        -11    1    3    3    0    0  0.21330885147E+02  0.27202421039E+02 -0.26319667562E+02  0.43447707331E+02  0.51100000000E-03 0. -1.
         23    2    1    0    0    0  0.21032607661E+02 -0.19569019893E+02 -0.16817265741E+01  0.96312485707E+02  0.91912728031E+02 0.  0.
         11    1    3    3    0    0 -0.29827748517E+00 -0.46771440932E+02  0.24637940988E+02  0.52864778376E+02  0.51100000000E-03 0.  1.
         22    1    1    0    0    0 -0.21032607661E+02  0.19569019893E+02  0.16817265741E+01  0.28777514293E+02  0.00000000000E+00 0.  1.
</event>
<event>
 5    1  0.1055265E-009  0.9118800E+02  0.7815553E-02  0.1125453E+00
         25   -1    0    0    0    0  0.00000000000E+00  0.00000000000E+00  0.99999998245E-14  0.12509000000E+03  0.12509000000E+03 0.  0.
        -11    1    3    3    0    0 -0.15177564932E+02 -0.24192849292E+02  0.32552209299E+02  0.43304719889E+02  0.51100000000E-03 0.  1.
         23    2    1    0    0    0  0.39287688754E+01  0.22867325948E+02  0.16667391749E+02  0.96521629927E+02  0.92196926604E+02 0.  0.
         11    1    3    3    0    0  0.19106333807E+02  0.47060175240E+02 -0.15884817550E+02  0.53216910039E+02  0.51100000000E-03 0. -1.
         22    1    1    0    0    0 -0.39287688754E+01 -0.22867325948E+02 -0.16667391749E+02  0.28568370073E+02  0.00000000000E+00 0. -1.
</event>
<event>
 5    1  0.1055265E-009  0.9118800E+02  0.7815553E-02  0.1125453E+00
         25   -1    0    0    0    0  0.00000000000E+00  0.00000000000E+00  0.99999998245E-14  0.12509000000E+03  0.12509000000E+03 0.  0.
        -11    1    3    3    0    0  0.21914734652E+01 -0.35470896506E+02  0.17791333743E+02  0.39743158046E+02  0.51100000000E-03 0. -1.
         23    2    1    0    0    0 -0.13195658314E+01 -0.67434841889E+01 -0.29288038458E+02  0.95006698491E+02  0.90118076591E+02 0.  0.
         11    1    3    3    0    0 -0.35110392966E+01  0.28727412317E+02 -0.47079372201E+02  0.55263540444E+02  0.51100000000E-03 0.  1.
         22    1    1    0    0    0  0.13195658314E+01  0.67434841889E+01  0.29288038458E+02  0.30083301509E+02  0.00000000000E+00 0.  1.
</event>
<event>
 5    1  0.1055265E-009  0.9118800E+02  0.7815553E-02  0.1125453E+00
         25   -1    0    0    0    0  0.00000000000E+00  0.00000000000E+00  0.99999998245E-14  0.12509000000E+03  0.12509000000E+03 0.  0.
        -11    1    3    3    0    0  0.25611381962E+02  0.18832690918E+02 -0.15757989192E+02  0.35481366333E+02  0.51100000000E-03 0.  1.
         23    2    1    0    0    0 -0.33696153899E+01  0.22655950244E+02  0.28502868552E+02  0.88524170254E+02  0.80619283141E+02 0.  0.
         11    1    3    3    0    0 -0.28980997352E+02  0.38232593263E+01  0.44260857743E+02  0.53042803921E+02  0.51100000000E-03 0. -1.
         22    1    1    0    0    0  0.33696153899E+01 -0.22655950244E+02 -0.28502868552E+02  0.36565829746E+02  0.00000000000E+00 0. -1.
</event>
<event>
 5    1  0.1055265E-009  0.9118800E+02  0.7815553E-02  0.1125453E+00
         25   -1    0    0    0    0  0.00000000000E+00  0.00000000000E+00  0.99999998245E-14  0.12509000000E+03  0.12509000000E+03 0.  0.
        -11    1    3    3    0    0 -0.36504490893E+02  0.17730151527E+02 -0.19425027489E+01  0.40628923758E+02  0.51100000000E-03 0.  1.
         23    2    1    0    0    0  0.56374494564E+01 -0.95788544884E+01 -0.26371141727E+02  0.96472306074E+02  0.92129981187E+02 0.  0.
         11    1    3    3    0    0  0.42141940349E+02 -0.27309006015E+02 -0.24428638978E+02  0.55843382316E+02  0.51100000000E-03 0. -1.
         22    1    1    0    0    0 -0.56374494564E+01  0.95788544884E+01  0.26371141727E+02  0.28617693926E+02  0.00000000000E+00 0. -1.
</event>
<event>
 5    1  0.1055265E-009  0.9118800E+02  0.7815553E-02  0.1125453E+00
         25   -1    0    0    0    0  0.00000000000E+00  0.00000000000E+00  0.99999998245E-14  0.12509000000E+03  0.12509000000E+03 0.  0.
        -11    1    3    3    0    0 -0.25571526050E+02  0.38426725755E+01  0.30214107165E+02  0.39768848979E+02  0.51100000000E-03 0. -1.
         23    2    1    0    0    0 -0.55116543953E+01  0.37613997859E+02  0.25462296793E+02  0.79335003256E+02  0.64811442003E+02 0.  0.
         11    1    3    3    0    0  0.20059871655E+02  0.33771325283E+02 -0.47518103714E+01  0.39566154277E+02  0.51100000000E-03 0.  1.
         22    1    1    0    0    0  0.55116543953E+01 -0.37613997859E+02 -0.25462296793E+02  0.45754996744E+02  0.00000000000E+00 0.  1.
</event>
<event>
 5    1  0.1055265E-009  0.9118800E+02  0.7815553E-02  0.1125453E+00
         25   -1    0    0    0    0  0.00000000000E+00  0.00000000000E+00  0.99999998245E-14  0.12509000000E+03  0.12509000000E+03 0.  0.
        -11    1    3    3    0    0  0.10943851974E+02  0.10232184751E+02 -0.30316704305E+02  0.33816683176E+02  0.51100000000E-03 0. -1.
         23    2    1    0    0    0  0.10895203835E+02 -0.81036527104E+01  0.27472506808E+02  0.94445044719E+02  0.89335061357E+02 0.  0.
         11    1    3    3    0    0 -0.48648138894E-01 -0.18335837462E+02  0.57789211113E+02  0.60628361543E+02  0.51100000000E-03 0.  1.
         22    1    1    0    0    0 -0.10895203835E+02  0.81036527104E+01 -0.27472506808E+02  0.30644955281E+02  0.00000000000E+00 0.  1.
</event>
<event>
 5    1  0.1055265E-009  0.9118800E+02  0.7815553E-02  0.1125453E+00
         25   -1    0    0    0    0  0.00000000000E+00  0.00000000000E+00  0.99999998245E-14  0.12509000000E+03  0.12509000000E+03 0.  0.
        -11    1    3    3    0    0 -0.47333883650E+02  0.20711492769E+02 -0.57523172069E+01  0.51986071477E+02  0.51100000000E-03 0.  1.
         23    2    1    0    0    0 -0.10958801039E+02 -0.16325150634E+01 -0.24187057536E+02  0.98485974404E+02  0.94824643297E+02 0.  0.
         11    1    3    3    0    0  0.36375082611E+02 -0.22344007832E+02 -0.18434740329E+02  0.46499902927E+02  0.51100000000E-03 0. -1.
         22    1    1    0    0    0  0.10958801039E+02  0.16325150634E+01  0.24187057536E+02  0.26604025596E+02  0.00000000000E+00 0.  1.
</event>
<event>
 5    1  0.1055265E-009  0.9118800E+02  0.7815553E-02  0.1125453E+00
         25   -1    0    0    0    0  0.00000000000E+00  0.00000000000E+00  0.99999998245E-14  0.12509000000E+03  0.12509000000E+03 0.  0.
        -11    1    3    3    0    0 -0.17699027731E+02  0.21854547412E+02 -0.52104526600E+02  0.59209446186E+02  0.51100000000E-03 0. -1.
         23    2    1    0    0    0 -0.11548220456E+02 -0.37824539036E+01 -0.26384415574E+02  0.96041665479E+02  0.91543409209E+02 0.  0.
         11    1    3    3    0    0  0.61508072746E+01 -0.25637001316E+02  0.25720111026E+02  0.36832219293E+02  0.51100000000E-03 0.  1.
         22    1    1    0    0    0  0.11548220456E+02  0.37824539036E+01  0.26384415574E+02  0.29048334521E+02  0.00000000000E+00 0. -1.
</event>
<event>
 5    1  0.1055265E-009  0.9118800E+02  0.7815553E-02  0.1125453E+00
         25   -1    0    0    0    0  0.00000000000E+00  0.00000000000E+00  0.99999998245E-14  0.12509000000E+03  0.12509000000E+03 0.  0.
        -11    1    3    3    0    0 -0.11235634244E+02  0.90984696871E+01 -0.42753523182E+02  0.45131866483E+02  0.51100000000E-03 0.  1.
         23    2    1    0    0    0 -0.24681096326E+02  0.10118426919E+02  0.76758753650E+01  0.97332872235E+02  0.93291102875E+02 0.  0.
         11    1    3    3    0    0 -0.13445462082E+02  0.10199572317E+01  0.50429398547E+02  0.52201005751E+02  0.51100000000E-03 0. -1.
         22    1    1    0    0    0  0.24681096326E+02 -0.10118426919E+02 -0.76758753650E+01  0.27757127765E+02  0.00000000000E+00 0. -1.
</event>
<event>
 5    1  0.1055265E-009  0.9118800E+02  0.7815553E-02  0.1125453E+00
         25   -1    0    0    0    0  0.00000000000E+00  0.00000000000E+00  0.99999998245E-14  0.12509000000E+03  0.12509000000E+03 0.  0.
        -11    1    3    3    0    0 -0.34056378912E+02 -0.19320420967E+01 -0.11577420676E+02  0.36022304216E+02  0.51100000000E-03 0. -1.
         23    2    1    0    0    0  0.17311290493E+02  0.24788952467E+02 -0.13200015625E+01  0.94825906637E+02  0.89866774853E+02 0.  0.
         11    1    3    3    0    0  0.51367669405E+02  0.26720994563E+02  0.10257419113E+02  0.58803602421E+02  0.51100000000E-03 0.  1.
         22    1    1    0    0    0 -0.17311290493E+02 -0.24788952467E+02  0.13200015625E+01  0.30264093363E+02  0.00000000000E+00 0.  1.
</event>
<event>
 5    1  0.1055265E-009  0.9118800E+02  0.7815553E-02  0.1125453E+00
         25   -1    0    0    0    0  0.00000000000E+00  0.00000000000E+00  0.99999998245E-14  0.12509000000E+03  0.12509000000E+03 0.  0.
        -11    1    3    3    0    0 -0.49727134477E+02  0.15656567255E+02  0.30411445056E+02  0.60355380805E+02  0.51100000000E-03 0. -1.
         23    2    1    0    0    0 -0.17024680406E+02  0.16309149118E+02  0.18339158392E+02  0.95221072694E+02  0.90415152859E+02 0.  0.
         11    1    3    3    0    0  0.32702454070E+02  0.65258186264E+00 -0.12072286664E+02  0.34865691889E+02  0.51100000000E-03 0.  1.
         22    1    1    0    0    0  0.17024680406E+02 -0.16309149118E+02 -0.18339158392E+02  0.29868927306E+02  0.00000000000E+00 0. -1.
</event>
<event>
 5    1  0.1055265E-009  0.9118800E+02  0.7815553E-02  0.1125453E+00
         25   -1    0    0    0    0  0.00000000000E+00  0.00000000000E+00  0.99999998245E-14  0.12509000000E+03  0.12509000000E+03 0.  0.
        -11    1    3    3    0    0 -0.11930061436E+02  0.26583482748E+02 -0.19945963825E+02  0.35310754651E+02  0.51100000000E-03 0.  1.
         23    2    1    0    0    0  0.12652941956E+02 -0.31054744808E+01  0.26435554089E+02  0.95618328316E+02  0.90963098441E+02 0.  0.
         11    1    3    3    0    0  0.24583003391E+02 -0.29688957229E+02  0.46381517914E+02  0.60307573665E+02  0.51100000000E-03 0. -1.
         22    1    1    0    0    0 -0.12652941956E+02  0.31054744808E+01 -0.26435554089E+02  0.29471671684E+02  0.00000000000E+00 0. -1.
</event>
<event>
 5    1  0.1055265E-009  0.9118800E+02  0.7815553E-02  0.1125453E+00
         25   -1    0    0    0    0  0.00000000000E+00  0.00000000000E+00  0.99999998245E-14  0.12509000000E+03  0.12509000000E+03 0.  0.
        -11    1    3    3    0    0 -0.26666132848E+02  0.48771205487E+02 -0.27380662895E+02  0.61963003693E+02  0.51100000000E-03 0.  1.
         23    2    1    0    0    0 -0.15052389321E+02  0.17767736197E+02 -0.15401858806E+02  0.97170757021E+02  0.93073475768E+02 0.  0.
         11    1    3    3    0    0  0.11613743527E+02 -0.31003469290E+02  0.11978804089E+02  0.35207753328E+02  0.51100000000E-03 0. -1.
         22    1    1    0    0    0  0.15052389321E+02 -0.17767736197E+02  0.15401858806E+02  0.27919242979E+02  0.00000000000E+00 0.  1.
</event>
<event>
 5    1  0.1055265E-009  0.9118800E+02  0.7815553E-02  0.1125453E+00
         25   -1    0    0    0    0  0.00000000000E+00  0.00000000000E+00  0.99999998245E-14  0.12509000000E+03  0.12509000000E+03 0.  0.
        -11    1    3    3    0    0  0.24983825036E+01 -0.20708691654E+02 -0.46004630655E+02  0.50512551580E+02  0.51100000000E-03 0. -1.
         23    2    1    0    0    0 -0.18898891461E+02 -0.23515310625E+02 -0.85603996143E+01  0.93730497871E+02  0.88328861972E+02 0.  0.
         11    1    3    3    0    0 -0.21397273964E+02 -0.28066189717E+01  0.37444231040E+02  0.43217946291E+02  0.51100000000E-03 0.  1.
         22    1    1    0    0    0  0.18898891461E+02  0.23515310625E+02  0.85603996143E+01  0.31359502129E+02  0.00000000000E+00 0. -1.
</event>
<event>
 5    1  0.1055265E-009  0.9118800E+02  0.7815553E-02  0.1125453E+00
         25   -1    0    0    0    0  0.00000000000E+00  0.00000000000E+00  0.99999998245E-14  0.12509000000E+03  0.12509000000E+03 0.  0.
        -11    1    3    3    0    0 -0.41821367005E+02  0.27100462935E+02 -0.24282160621E+01  0.49893467137E+02  0.51100000000E-03 0.  1.
         23    2    1    0    0    0  0.22578663154E+01  0.24915778981E+02 -0.15173502341E+02  0.95830314837E+02  0.91254150952E+02 0.  0.
         11    1    3    3    0    0  0.44079233320E+02 -0.21846839544E+01 -0.12745286279E+02  0.45936847701E+02  0.51100000000E-03 0. -1.
         22    1    1    0    0    0 -0.22578663154E+01 -0.24915778981E+02  0.15173502341E+02  0.29259685163E+02  0.00000000000E+00 0. -1.
</event>
<event>
 5    1  0.1055265E-009  0.9118800E+02  0.7815553E-02  0.1125453E+00
         25   -1    0    0    0    0  0.00000000000E+00  0.00000000000E+00  0.99999998245E-14  0.12509000000E+03  0.12509000000E+03 0.  0.
        -11    1    3    3    0    0  0.23866732294E+02  0.14379698995E+02 -0.54458925923E+02  0.61173288832E+02  0.51100000000E-03 0.  1.
         23    2    1    0    0    0  0.23998325030E+01  0.65867278716E+01 -0.28464950182E+02  0.95774516566E+02  0.91177631328E+02 0.  0.
         11    1    3    3    0    0 -0.21466899791E+02 -0.77929711236E+01  0.25993975741E+02  0.34601227734E+02  0.51100000000E-03 0. -1.
         22    1    1    0    0    0 -0.23998325030E+01 -0.65867278716E+01  0.28464950182E+02  0.29315483434E+02  0.00000000000E+00 0.  1.
</event>
<event>
 5    1  0.1055265E-009  0.9118800E+02  0.7815553E-02  0.1125453E+00
         25   -1    0    0    0    0  0.00000000000E+00  0.00000000000E+00  0.99999998245E-14  0.12509000000E+03  0.12509000000E+03 0.  0.
        -11    1    3    3    0    0 -0.33687610053E+02  0.80968504998E+00 -0.27491038344E+02  0.43488709460E+02  0.51100000000E-03 0. -1.
         23    2    1    0    0    0 -0.45988286069E+01 -0.48522671769E+01  0.22507915069E+02  0.10161022227E+03  0.98860190716E+02 0.  0.
         11    1    3    3    0    0  0.29088781447E+02 -0.56619522269E+01  0.49998953413E+02  0.58121512814E+02  0.51100000000E-03 0.  1.
         22    1    1    0    0    0  0.45988286069E+01  0.48522671769E+01 -0.22507915069E+02  0.23479777726E+02  0.00000000000E+00 0.  1.
</event>
<event>
 5    1  0.1055265E-009  0.9118800E+02  0.7815553E-02  0.1125453E+00
         25   -1    0    0    0    0  0.00000000000E+00  0.00000000000E+00  0.99999998245E-14  0.12509000000E+03  0.12509000000E+03 0.  0.
        -11    1    3    3    0    0 -0.86023157622E+01 -0.39509847672E+01 -0.34794076518E+02  0.36058811379E+02  0.51100000000E-03 0. -1.
         23    2    1    0    0    0  0.20395127815E+02 -0.12588215848E+02  0.16765859635E+02  0.95840752725E+02  0.91268457951E+02 0.  0.
         11    1    3    3    0    0  0.28997443578E+02 -0.86372310812E+01  0.51559936153E+02  0.59781941346E+02  0.51100000000E-03 0.  1.
         22    1    1    0    0    0 -0.20395127815E+02  0.12588215848E+02 -0.16765859635E+02  0.29249247275E+02  0.00000000000E+00 0.  1.
</event>
<event>
 5    1  0.1055265E-009  0.9118800E+02  0.7815553E-02  0.1125453E+00
         25   -1    0    0    0    0  0.00000000000E+00  0.00000000000E+00  0.99999998245E-14  0.12509000000E+03  0.12509000000E+03 0.  0.
        -11    1    3    3    0    0  0.40160512203E+01 -0.38031441335E+02 -0.26282521149E+02  0.46403557144E+02  0.51100000000E-03 0. -1.
         23    2    1    0    0    0  0.13375568814E+02 -0.18390601341E+02  0.18227281846E+02  0.95946323803E+02  0.91413036209E+02 0.  0.
         11    1    3    3    0    0  0.93595175939E+01  0.19640839993E+02  0.44509802995E+02  0.49542766659E+02  0.51100000000E-03 0.  1.
         22    1    1    0    0    0 -0.13375568814E+02  0.18390601341E+02 -0.18227281846E+02  0.29143676197E+02  0.00000000000E+00 0.  1.
</event>
<event>
 5    1  0.1055265E-009  0.9118800E+02  0.7815553E-02  0.1125453E+00
         25   -1    0    0    0    0  0.00000000000E+00  0.00000000000E+00  0.99999998245E-14  0.12509000000E+03  0.12509000000E+03 0.  0.
        -11    1    3    3    0    0  0.32699654210E+02 -0.21502353744E+02  0.18138517795E+02  0.43134956011E+02  0.51100000000E-03 0.  1.
         23    2    1    0    0    0  0.14626580687E+02  0.73436164053E+01 -0.23208229504E+02  0.96691276768E+02  0.92426811704E+02 0.  0.
         11    1    3    3    0    0 -0.18073073523E+02  0.28845970150E+02 -0.41346747300E+02  0.53556320757E+02  0.51100000000E-03 0. -1.
         22    1    1    0    0    0 -0.14626580687E+02 -0.73436164053E+01  0.23208229504E+02  0.28398723232E+02  0.00000000000E+00 0.  1.
</event>
<event>
 5    1  0.1055265E-009  0.9118800E+02  0.7815553E-02  0.1125453E+00
         25   -1    0    0    0    0  0.00000000000E+00  0.00000000000E+00  0.99999998245E-14  0.12509000000E+03  0.12509000000E+03 0.  0.
        -11    1    3    3    0    0 -0.42420655869E+02  0.90051442574E+01 -0.27549683298E+02  0.51376937603E+02  0.51100000000E-03 0. -1.
         23    2    1    0    0    0  0.18697574970E+01  0.46349506356E+01 -0.28760077629E+02  0.95898891324E+02  0.91348106337E+02 0.  0.
         11    1    3    3    0    0  0.44290413366E+02 -0.43701936218E+01 -0.12103943312E+01  0.44521953720E+02  0.51100000000E-03 0.  1.
         22    1    1    0    0    0 -0.18697574970E+01 -0.46349506356E+01  0.28760077629E+02  0.29191108676E+02  0.00000000000E+00 0.  1.
</event>
<event>
 5    1  0.1055265E-009  0.9118800E+02  0.7815553E-02  0.1125453E+00
         25   -1    0    0    0    0  0.00000000000E+00  0.00000000000E+00  0.99999998245E-14  0.12509000000E+03  0.12509000000E+03 0.  0.
        -11    1    3    3    0    0  0.37516339649E+02  0.18245453517E+02  0.32865233256E+02  0.53108340889E+02  0.51100000000E-03 0.  1.
         23    2    1    0    0    0  0.73752241964E+01  0.25035981883E+02  0.31701587449E+02  0.84026817372E+02  0.73309761083E+02 0.  0.
         11    1    3    3    0    0 -0.30141115453E+02  0.67905283658E+01 -0.11636458073E+01  0.30918476483E+02  0.51100000000E-03 0. -1.
         22    1    1    0    0    0 -0.73752241964E+01 -0.25035981883E+02 -0.31701587449E+02  0.41063182628E+02  0.00000000000E+00 0.  1.
</event>
<event>
 5    1  0.1055265E-009  0.9118800E+02  0.7815553E-02  0.1125453E+00
         25   -1    0    0    0    0  0.00000000000E+00  0.00000000000E+00  0.99999998245E-14  0.12509000000E+03  0.12509000000E+03 0.  0.
        -11    1    3    3    0    0  0.52153866554E+01 -0.56878824767E+02 -0.12764528816E+02  0.58526354414E+02  0.51100000000E-03 0. -1.
         23    2    1    0    0    0  0.99446199681E+01 -0.25694229815E+02  0.81340793146E+01  0.96362797589E+02  0.91981175252E+02 0.  0.
         11    1    3    3    0    0  0.47292333126E+01  0.31184594952E+02  0.20898608131E+02  0.37836443175E+02  0.51100000000E-03 0.  1.
         22    1    1    0    0    0 -0.99446199681E+01  0.25694229815E+02 -0.81340793146E+01  0.28727202411E+02  0.00000000000E+00 0. -1.
</event>
<event>
 5    1  0.1055265E-009  0.9118800E+02  0.7815553E-02  0.1125453E+00
         25   -1    0    0    0    0  0.00000000000E+00  0.00000000000E+00  0.99999998245E-14  0.12509000000E+03  0.12509000000E+03 0.  0.
        -11    1    3    3    0    0 -0.40177004975E+02 -0.15041043071E+02  0.15563400218E+02  0.45635996012E+02  0.51100000000E-03 0. -1.
         23    2    1    0    0    0  0.18964166978E+01 -0.25757206582E+02 -0.11523041300E+02  0.96809077667E+02  0.92586105603E+02 0.  0.
         11    1    3    3    0    0  0.42073421673E+02 -0.10716163511E+02 -0.27086441518E+02  0.51173081655E+02  0.51100000000E-03 0.  1.
         22    1    1    0    0    0 -0.18964166978E+01  0.25757206582E+02  0.11523041300E+02  0.28280922333E+02  0.00000000000E+00 0.  1.
</event>
<event>
 5    1  0.1055265E-009  0.9118800E+02  0.7815553E-02  0.1125453E+00
         25   -1    0    0    0    0  0.00000000000E+00  0.00000000000E+00  0.99999998245E-14  0.12509000000E+03  0.12509000000E+03 0.  0.
        -11    1    3    3    0    0  0.42971995166E+02  0.66497947566E+01  0.38868142846E+01  0.43656837544E+02  0.51100000000E-03 0.  1.
         23    2    1    0    0    0  0.51786735276E+01 -0.27763157993E+02  0.99895140524E+01  0.95133331423E+02  0.90293680595E+02 0.  0.
         11    1    3    3    0    0 -0.37793321638E+02 -0.34412952749E+02  0.61026997678E+01  0.51476493879E+02  0.51100000000E-03 0. -1.
         22    1    1    0    0    0 -0.51786735276E+01  0.27763157993E+02 -0.99895140524E+01  0.29956668577E+02  0.00000000000E+00 0. -1.
</event>
<event>
 5    1  0.1055265E-009  0.9118800E+02  0.7815553E-02  0.1125453E+00
         25   -1    0    0    0    0  0.00000000000E+00  0.00000000000E+00  0.99999998245E-14  0.12509000000E+03  0.12509000000E+03 0.  0.
        -11    1    3    3    0    0  0.28311222750E+02  0.72798529172E+01  0.94319404377E+01  0.30716169891E+02  0.51100000000E-03 0. -1.
         23    2    1    0    0    0 -0.14090431991E+02 -0.87393777271E+01 -0.30012101559E+02  0.90802345710E+02  0.84079859358E+02 0.  0.
         11    1    3    3    0    0 -0.42401654741E+02 -0.16019230644E+02 -0.39444041997E+02  0.60086175818E+02  0.51100000000E-03 0.  1.
         22    1    1    0    0    0  0.14090431991E+02  0.87393777271E+01  0.30012101559E+02  0.34287654290E+02  0.00000000000E+00 0.  1.
</event>
<event>
 5    1  0.1055265E-009  0.9118800E+02  0.7815553E-02  0.1125453E+00
         25   -1    0    0    0    0  0.00000000000E+00  0.00000000000E+00  0.99999998245E-14  0.12509000000E+03  0.12509000000E+03 0.  0.
        -11    1    3    3    0    0  0.48018458919E+01  0.87527597730E+01  0.35363678773E+02  0.36745861049E+02  0.51100000000E-03 0.  1.
         23    2    1    0    0    0  0.15436553018E+02  0.12022095048E+02 -0.22271335417E+02  0.95444927565E+02  0.90724329031E+02 0.  0.
         11    1    3    3    0    0  0.10634707126E+02  0.32693352750E+01 -0.57635014190E+02  0.58699066516E+02  0.51100000000E-03 0. -1.
         22    1    1    0    0    0 -0.15436553018E+02 -0.12022095048E+02  0.22271335417E+02  0.29645072435E+02  0.00000000000E+00 0. -1.
</event>
<event>
 5    1  0.1055265E-009  0.9118800E+02  0.7815553E-02  0.1125453E+00
         25   -1    0    0    0    0  0.00000000000E+00  0.00000000000E+00  0.99999998245E-14  0.12509000000E+03  0.12509000000E+03 0.  0.
        -11    1    3    3    0    0 -0.41274176884E+02 -0.86313687463E+01  0.38369438349E+02  0.57011156832E+02  0.51100000000E-03 0.  1.
         23    2    1    0    0    0 -0.81093787867E+01 -0.18992851784E+02  0.20118931162E+02  0.96258388281E+02  0.91839073821E+02 0.  0.
         11    1    3    3    0    0  0.33164798097E+02 -0.10361483038E+02 -0.18250507187E+02  0.39247231449E+02  0.51100000000E-03 0. -1.
         22    1    1    0    0    0  0.81093787867E+01  0.18992851784E+02 -0.20118931162E+02  0.28831611719E+02  0.00000000000E+00 0.  1.
</event>
<event>
 5    1  0.1055265E-009  0.9118800E+02  0.7815553E-02  0.1125453E+00
         25   -1    0    0    0    0  0.00000000000E+00  0.00000000000E+00  0.99999998245E-14  0.12509000000E+03  0.12509000000E+03 0.  0.
        -11    1    3    3    0    0  0.16443506878E+00  0.26853676324E+02 -0.23011862218E+02  0.35365135006E+02  0.51100000000E-03 0.  1.
         23    2    1    0    0    0 -0.11726300292E+02 -0.14851072815E+02  0.20772464373E+02  0.96990965169E+02  0.92831522481E+02 0.  0.
         11    1    3    3    0    0 -0.11890735361E+02 -0.41704749138E+02  0.43784326591E+02  0.61625830164E+02  0.51100000000E-03 0. -1.
         22    1    1    0    0    0  0.11726300292E+02  0.14851072815E+02 -0.20772464373E+02  0.28099034831E+02  0.00000000000E+00 0. -1.
</event>
<event>
 5    1  0.1055265E-009  0.9118800E+02  0.7815553E-02  0.1125453E+00
         25   -1    0    0    0    0  0.00000000000E+00  0.00000000000E+00  0.99999998245E-14  0.12509000000E+03  0.12509000000E+03 0.  0.
        -11    1    3    3    0    0 -0.19492096646E+02  0.21502430889E+02 -0.48425167925E+02  0.56456117955E+02  0.51100000000E-03 0.  1.
         23    2    1    0    0    0 -0.24336185039E+02 -0.47268546491E+00 -0.15865836760E+02  0.96034912495E+02  0.91534181091E+02 0.  0.
         11    1    3    3    0    0 -0.48440883931E+01 -0.21975116353E+02  0.32559331165E+02  0.39578794540E+02  0.51100000000E-03 0. -1.
         22    1    1    0    0    0  0.24336185039E+02  0.47268546491E+00  0.15865836760E+02  0.29055087505E+02  0.00000000000E+00 0.  1.
</event>
<event>
 5    1  0.1055265E-009  0.9118800E+02  0.7815553E-02  0.1125453E+00
         25   -1    0    0    0    0  0.00000000000E+00  0.00000000000E+00  0.99999998245E-14  0.12509000000E+03  0.12509000000E+03 0.  0.
        -11    1    3    3    0    0 -0.29376384163E+02  0.92687673403E+01 -0.32913276537E+02  0.45079549323E+02  0.51100000000E-03 0.  1.
         23    2    1    0    0    0 -0.17504020938E+02 -0.27862524443E+02 -0.21811757398E+02  0.85612616879E+02  0.75967469292E+02 0.  0.
         11    1    3    3    0    0  0.11872363225E+02 -0.37131291783E+02  0.11101519139E+02  0.40533067556E+02  0.51100000000E-03 0. -1.
         22    1    1    0    0    0  0.17504020938E+02  0.27862524443E+02  0.21811757398E+02  0.39477383121E+02  0.00000000000E+00 0.  1.
</event>
<event>
 5    1  0.1055265E-009  0.9118800E+02  0.7815553E-02  0.1125453E+00
         25   -1    0    0    0    0  0.00000000000E+00  0.00000000000E+00  0.99999998245E-14  0.12509000000E+03  0.12509000000E+03 0.  0.
        -11    1    3    3    0    0 -0.31111936126E+02 -0.10623138533E+02  0.46726184245E+02  0.57132652101E+02  0.51100000000E-03 0.  1.
         23    2    1    0    0    0 -0.57853441886E+01  0.10684579499E+02  0.26541391148E+02  0.95899661007E+02  0.91349160318E+02 0.  0.
         11    1    3    3    0    0  0.25326591937E+02  0.21307718032E+02 -0.20184793097E+02  0.38767008906E+02  0.51100000000E-03 0. -1.
         22    1    1    0    0    0  0.57853441886E+01 -0.10684579499E+02 -0.26541391148E+02  0.29190338993E+02  0.00000000000E+00 0.  1.
</event>
<event>
 5    1  0.1055265E-009  0.9118800E+02  0.7815553E-02  0.1125453E+00
         25   -1    0    0    0    0  0.00000000000E+00  0.00000000000E+00  0.99999998245E-14  0.12509000000E+03  0.12509000000E+03 0.  0.
        -11    1    3    3    0    0  0.28889302332E+02 -0.28696483587E+02  0.40798129953E+02  0.57641715514E+02  0.51100000000E-03 0.  1.
         23    2    1    0    0    0  0.21329713168E+02 -0.18846483166E+02  0.41626131483E+01  0.96324153241E+02  0.91928605765E+02 0.  0.
         11    1    3    3    0    0 -0.75595891642E+01  0.98500004215E+01 -0.36635516805E+02  0.38682437726E+02  0.51100000000E-03 0. -1.
         22    1    1    0    0    0 -0.21329713168E+02  0.18846483166E+02 -0.41626131483E+01  0.28765846759E+02  0.00000000000E+00 0. -1.
</event>
<event>
 5    1  0.1055265E-009  0.9118800E+02  0.7815553E-02  0.1125453E+00
         25   -1    0    0    0    0  0.00000000000E+00  0.00000000000E+00  0.99999998245E-14  0.12509000000E+03  0.12509000000E+03 0.  0.
        -11    1    3    3    0    0 -0.36415721418E+02 -0.88366494775E+01 -0.44073076527E+02  0.57850040754E+02  0.51100000000E-03 0. -1.
         23    2    1    0    0    0 -0.12608239307E+02 -0.10524106686E+00 -0.39511880031E+02  0.83615098702E+02  0.72603838006E+02 0.  0.
         11    1    3    3    0    0  0.23807482111E+02  0.87314084106E+01  0.45611964959E+01  0.25765057948E+02  0.51100000000E-03 0.  1.
         22    1    1    0    0    0  0.12608239307E+02  0.10524106686E+00  0.39511880031E+02  0.41474901298E+02  0.00000000000E+00 0. -1.
</event>
<event>
 5    1  0.1055265E-009  0.9118800E+02  0.7815553E-02  0.1125453E+00
         25   -1    0    0    0    0  0.00000000000E+00  0.00000000000E+00  0.99999998245E-14  0.12509000000E+03  0.12509000000E+03 0.  0.
        -11    1    3    3    0    0  0.29695455351E+02 -0.12939740144E+02  0.24606495769E+02  0.40678453483E+02  0.51100000000E-03 0.  1.
         23    2    1    0    0    0 -0.20832115023E+02  0.99506775260E+01  0.16442062505E+02  0.96746845289E+02  0.92501987299E+02 0.  0.
         11    1    3    3    0    0 -0.50527570373E+02  0.22890417670E+02 -0.81644332636E+01  0.56068391806E+02  0.51100000000E-03 0. -1.
         22    1    1    0    0    0  0.20832115023E+02 -0.99506775260E+01 -0.16442062505E+02  0.28343154711E+02  0.00000000000E+00 0. -1.
</event>
<event>
 5    1  0.1055265E-009  0.9118800E+02  0.7815553E-02  0.1125453E+00
         25   -1    0    0    0    0  0.00000000000E+00  0.00000000000E+00  0.99999998245E-14  0.12509000000E+03  0.12509000000E+03 0.  0.
        -11    1    3    3    0    0  0.59166334108E+02 -0.95305971280E+01  0.17634261707E+02  0.62469629098E+02  0.51100000000E-03 0.  1.
         23    2    1    0    0    0  0.28595434333E+02 -0.43969838597E+01  0.62633829409E+01  0.95488272050E+02  0.90784072400E+02 0.  0.
         11    1    3    3    0    0 -0.30570899775E+02  0.51336132683E+01 -0.11370878766E+02  0.33018642952E+02  0.51100000000E-03 0. -1.
         22    1    1    0    0    0 -0.28595434333E+02  0.43969838597E+01 -0.62633829409E+01  0.29601727950E+02  0.00000000000E+00 0.  1.
</event>
<event>
 5    1  0.1055265E-009  0.9118800E+02  0.7815553E-02  0.1125453E+00
         25   -1    0    0    0    0  0.00000000000E+00  0.00000000000E+00  0.99999998245E-14  0.12509000000E+03  0.12509000000E+03 0.  0.
        -11    1    3    3    0    0  0.28903873216E+02 -0.13421786957E+02 -0.14469229097E+02  0.34999097744E+02  0.51100000000E-03 0.  1.
         23    2    1    0    0    0 -0.13558707077E+02  0.15354610434E+02  0.19730025209E+02  0.96649245897E+02  0.92369909811E+02 0.  0.
         11    1    3    3    0    0 -0.42462580293E+02  0.28776397391E+02  0.34199254306E+02  0.61650148153E+02  0.51100000000E-03 0. -1.
         22    1    1    0    0    0  0.13558707077E+02 -0.15354610434E+02 -0.19730025209E+02  0.28440754103E+02  0.00000000000E+00 0. -1.
</event>
<event>
 5    1  0.1055265E-009  0.9118800E+02  0.7815553E-02  0.1125453E+00
         25   -1    0    0    0    0  0.00000000000E+00  0.00000000000E+00  0.99999998245E-14  0.12509000000E+03  0.12509000000E+03 0.  0.
        -11    1    3    3    0    0 -0.46512056097E+02 -0.51760098943E+01 -0.16442414969E+02  0.49603583047E+02  0.51100000000E-03 0.  1.
         23    2    1    0    0    0 -0.19872199932E+01 -0.14407285629E+02 -0.25278909153E+02  0.95925943862E+02  0.91385143953E+02 0.  0.
         11    1    3    3    0    0  0.44524836104E+02 -0.92312757342E+01 -0.88364941840E+01  0.46322360815E+02  0.51100000000E-03 0. -1.
         22    1    1    0    0    0  0.19872199932E+01  0.14407285629E+02  0.25278909153E+02  0.29164056138E+02  0.00000000000E+00 0. -1.
</event>
<event>
 5    1  0.1055265E-009  0.9118800E+02  0.7815553E-02  0.1125453E+00
         25   -1    0    0    0    0  0.00000000000E+00  0.00000000000E+00  0.99999998245E-14  0.12509000000E+03  0.12509000000E+03 0.  0.
        -11    1    3    3    0    0 -0.39811277716E+02  0.42011250941E+02 -0.48233385097E+01  0.58078805374E+02  0.51100000000E-03 0. -1.
         23    2    1    0    0    0 -0.90664209464E+01  0.25435636954E+02  0.10363998947E+02  0.96166236583E+02  0.91713472120E+02 0.  0.
         11    1    3    3    0    0  0.30744856770E+02 -0.16575613987E+02  0.15187337457E+02  0.38087431209E+02  0.51100000000E-03 0.  1.
         22    1    1    0    0    0  0.90664209464E+01 -0.25435636954E+02 -0.10363998947E+02  0.28923763417E+02  0.00000000000E+00 0. -1.
</event>
<event>
 5    1  0.1055265E-009  0.9118800E+02  0.7815553E-02  0.1125453E+00
         25   -1    0    0    0    0  0.00000000000E+00  0.00000000000E+00  0.99999998245E-14  0.12509000000E+03  0.12509000000E+03 0.  0.
        -11    1    3    3    0    0  0.40426183177E+02  0.40586982150E+01 -0.15864751581E+02  0.43616965283E+02  0.51100000000E-03 0.  1.
         23    2    1    0    0    0 -0.92116736263E+01  0.24415929846E+02 -0.76778383972E+01  0.97888129408E+02  0.94032675785E+02 0.  0.
         11    1    3    3    0    0 -0.49637856803E+02  0.20357231631E+02  0.81869131841E+01  0.54271164125E+02  0.51100000000E-03 0. -1.
         22    1    1    0    0    0  0.92116736263E+01 -0.24415929846E+02  0.76778383972E+01  0.27201870592E+02  0.00000000000E+00 0. -1.
</event>
<event>
 5    1  0.1055265E-009  0.9118800E+02  0.7815553E-02  0.1125453E+00
         25   -1    0    0    0    0  0.00000000000E+00  0.00000000000E+00  0.99999998245E-14  0.12509000000E+03  0.12509000000E+03 0.  0.
        -11    1    3    3    0    0 -0.31495084020E+02 -0.46050747576E+02 -0.20018232125E+02  0.59273445044E+02  0.51100000000E-03 0.  1.
         23    2    1    0    0    0 -0.34919152496E+01 -0.21702437044E+02 -0.18411576459E+02  0.96416399015E+02  0.92054041767E+02 0.  0.
         11    1    3    3    0    0  0.28003168770E+02  0.24348310533E+02  0.16066556663E+01  0.37142953971E+02  0.51100000000E-03 0. -1.
         22    1    1    0    0    0  0.34919152496E+01  0.21702437044E+02  0.18411576459E+02  0.28673600985E+02  0.00000000000E+00 0.  1.
</event>
<event>
 5    1  0.1055265E-009  0.9118800E+02  0.7815553E-02  0.1125453E+00
         25   -1    0    0    0    0  0.00000000000E+00  0.00000000000E+00  0.99999998245E-14  0.12509000000E+03  0.12509000000E+03 0.  0.
        -11    1    3    3    0    0  0.21280527689E+02 -0.12972250783E+01 -0.38385118413E+02  0.43908552327E+02  0.51100000000E-03 0. -1.
         23    2    1    0    0    0 -0.18070246587E+02 -0.19168166436E+02 -0.23986686141E+02  0.89462573370E+02  0.82062406166E+02 0.  0.
         11    1    3    3    0    0 -0.39350774276E+02 -0.17870941357E+02  0.14398432271E+02  0.45554021043E+02  0.51100000000E-03 0.  1.
         22    1    1    0    0    0  0.18070246587E+02  0.19168166436E+02  0.23986686141E+02  0.35627426630E+02  0.00000000000E+00 0. -1.
</event>
<event>
 5    1  0.1055265E-009  0.9118800E+02  0.7815553E-02  0.1125453E+00
         25   -1    0    0    0    0  0.00000000000E+00  0.00000000000E+00  0.99999998245E-14  0.12509000000E+03  0.12509000000E+03 0.  0.
        -11    1    3    3    0    0 -0.42671548859E+02 -0.27954316272E+02  0.64194335645E+01  0.51415114585E+02  0.51100000000E-03 0. -1.
         23    2    1    0    0    0 -0.21910551493E+02  0.11638049831E+02  0.13761343642E+02  0.96719398148E+02  0.92464863211E+02 0.  0.
         11    1    3    3    0    0  0.20760997366E+02  0.39592366103E+02  0.73419100779E+01  0.45304283563E+02  0.51100000000E-03 0.  1.
         22    1    1    0    0    0  0.21910551493E+02 -0.11638049831E+02 -0.13761343642E+02  0.28370601852E+02  0.00000000000E+00 0. -1.
</event>
<event>
 5    1  0.1055265E-009  0.9118800E+02  0.7815553E-02  0.1125453E+00
         25   -1    0    0    0    0  0.00000000000E+00  0.00000000000E+00  0.99999998245E-14  0.12509000000E+03  0.12509000000E+03 0.  0.
        -11    1    3    3    0    0  0.22391858235E+02 -0.24423641458E+02  0.13127490078E+02  0.35640434527E+02  0.51100000000E-03 0.  1.
         23    2    1    0    0    0  0.18423822171E+02  0.28700757957E+02 -0.17142712022E+01  0.90941655143E+02  0.84286862462E+02 0.  0.
         11    1    3    3    0    0 -0.39680360639E+01  0.53124399415E+02 -0.14841761281E+02  0.55301220616E+02  0.51100000000E-03 0. -1.
         22    1    1    0    0    0 -0.18423822171E+02 -0.28700757957E+02  0.17142712022E+01  0.34148344857E+02  0.00000000000E+00 0. -1.
</event>
<event>
 5    1  0.1055265E-009  0.9118800E+02  0.7815553E-02  0.1125453E+00
         25   -1    0    0    0    0  0.00000000000E+00  0.00000000000E+00  0.99999998245E-14  0.12509000000E+03  0.12509000000E+03 0.  0.
        -11    1    3    3    0    0 -0.18367226611E+02 -0.12793086328E+02  0.38478752512E+02  0.44515530619E+02  0.51100000000E-03 0.  1.
         23    2    1    0    0    0 -0.20232395102E+02  0.20973409879E+02 -0.27113308129E+00  0.95947123569E+02  0.91414130606E+02 0.  0.
         11    1    3    3    0    0 -0.18651684910E+01  0.33766496207E+02 -0.38749885593E+02  0.51431592950E+02  0.51100000000E-03 0. -1.
         22    1    1    0    0    0  0.20232395102E+02 -0.20973409879E+02  0.27113308129E+00  0.29142876431E+02  0.00000000000E+00 0. -1.
</event>
<event>
 5    1  0.1055265E-009  0.9118800E+02  0.7815553E-02  0.1125453E+00
         25   -1    0    0    0    0  0.00000000000E+00  0.00000000000E+00  0.99999998245E-14  0.12509000000E+03  0.12509000000E+03 0.  0.
        -11    1    3    3    0    0  0.35126718788E+02  0.39504133270E+02  0.19626697432E+02  0.56388564183E+02  0.51100000000E-03 0. -1.
         23    2    1    0    0    0  0.25094326025E+01  0.22039564226E+02  0.22494531441E+02  0.93498172133E+02  0.87999230702E+02 0.  0.
         11    1    3    3    0    0 -0.32617286186E+02 -0.17464569044E+02  0.28678340090E+01  0.37109607950E+02  0.51100000000E-03 0.  1.
         22    1    1    0    0    0 -0.25094326025E+01 -0.22039564226E+02 -0.22494531441E+02  0.31591827867E+02  0.00000000000E+00 0. -1.
</event>
<event>
 5    1  0.1055265E-009  0.9118800E+02  0.7815553E-02  0.1125453E+00
         25   -1    0    0    0    0  0.00000000000E+00  0.00000000000E+00  0.99999998245E-14  0.12509000000E+03  0.12509000000E+03 0.  0.
        -11    1    3    3    0    0 -0.58638952657E+01 -0.29486691598E+02 -0.13680512025E+02  0.33030389925E+02  0.51100000000E-03 0. -1.
         23    2    1    0    0    0 -0.40118986486E+01  0.25276068817E+02  0.15560225863E+02  0.95138445540E+02  0.90300765253E+02 0.  0.
         11    1    3    3    0    0  0.18519966171E+01  0.54762760416E+02  0.29240737888E+02  0.62108055615E+02  0.51100000000E-03 0.  1.
         22    1    1    0    0    0  0.40118986486E+01 -0.25276068817E+02 -0.15560225863E+02  0.29951554460E+02  0.00000000000E+00 0.  1.
</event>
<event>
 5    1  0.1055265E-009  0.9118800E+02  0.7815553E-02  0.1125453E+00
         25   -1    0    0    0    0  0.00000000000E+00  0.00000000000E+00  0.99999998245E-14  0.12509000000E+03  0.12509000000E+03 0.  0.
        -11    1    3    3    0    0 -0.41911539147E+02 -0.41103289107E+02 -0.14902258993E+01  0.58722042391E+02  0.51100000000E-03 0. -1.
         23    2    1    0    0    0 -0.25333513141E+02 -0.67638304382E+01  0.73365206286E+01  0.97862058007E+02  0.93997987064E+02 0.  0.
         11    1    3    3    0    0  0.16578026006E+02  0.34339458668E+02  0.88267465279E+01  0.39140015616E+02  0.51100000000E-03 0.  1.
         22    1    1    0    0    0  0.25333513141E+02  0.67638304382E+01 -0.73365206286E+01  0.27227941993E+02  0.00000000000E+00 0. -1.
</event>
<event>
 5    1  0.1055265E-009  0.9118800E+02  0.7815553E-02  0.1125453E+00
         25   -1    0    0    0    0  0.00000000000E+00  0.00000000000E+00  0.99999998245E-14  0.12509000000E+03  0.12509000000E+03 0.  0.
        -11    1    3    3    0    0 -0.11717299188E+02 -0.45322274240E+02  0.28956733927E+02  0.55044491846E+02  0.51100000000E-03 0. -1.
         23    2    1    0    0    0 -0.16238113270E+02 -0.47259692862E+01  0.23326450354E+02  0.96277947065E+02  0.91865710124E+02 0.  0.
         11    1    3    3    0    0 -0.45208140816E+01  0.40596304954E+02 -0.56302835734E+01  0.41233455219E+02  0.51100000000E-03 0.  1.
         22    1    1    0    0    0  0.16238113270E+02  0.47259692862E+01 -0.23326450354E+02  0.28812052935E+02  0.00000000000E+00 0. -1.
</event>
<event>
 5    1  0.1055265E-009  0.9118800E+02  0.7815553E-02  0.1125453E+00
         25   -1    0    0    0    0  0.00000000000E+00  0.00000000000E+00  0.99999998245E-14  0.12509000000E+03  0.12509000000E+03 0.  0.
        -11    1    3    3    0    0  0.35367534470E+02  0.47175395948E+01  0.19330962550E+02  0.40580830298E+02  0.51100000000E-03 0.  1.
         23    2    1    0    0    0 -0.46378832145E+01 -0.29278682120E+02  0.47430487164E+01  0.95069212227E+02  0.90204808159E+02 0.  0.
         11    1    3    3    0    0 -0.40005417685E+02 -0.33996221714E+02 -0.14587913833E+02  0.54488381929E+02  0.51100000000E-03 0. -1.
         22    1    1    0    0    0  0.46378832145E+01  0.29278682120E+02 -0.47430487164E+01  0.30020787773E+02  0.00000000000E+00 0. -1.
</event>
<event>
 5    1  0.1055265E-009  0.9118800E+02  0.7815553E-02  0.1125453E+00
         25   -1    0    0    0    0  0.00000000000E+00  0.00000000000E+00  0.99999998245E-14  0.12509000000E+03  0.12509000000E+03 0.  0.
        -11    1    3    3    0    0 -0.25495655778E+02  0.22161284054E+02 -0.47601717091E+01  0.34114662675E+02  0.51100000000E-03 0.  1.
         23    2    1    0    0    0  0.21490570564E+02 -0.18272626884E+02  0.35530140223E+01  0.96658372804E+02  0.92382268905E+02 0.  0.
         11    1    3    3    0    0  0.46986226341E+02 -0.40433910937E+02  0.83131857314E+01  0.62543710129E+02  0.51100000000E-03 0. -1.
         22    1    1    0    0    0 -0.21490570564E+02  0.18272626884E+02 -0.35530140223E+01  0.28431627196E+02  0.00000000000E+00 0. -1.
</event>
<event>
 5    1  0.1055265E-009  0.9118800E+02  0.7815553E-02  0.1125453E+00
         25   -1    0    0    0    0  0.00000000000E+00  0.00000000000E+00  0.99999998245E-14  0.12509000000E+03  0.12509000000E+03 0.  0.
        -11    1    3    3    0    0  0.15158372830E+02 -0.32469951446E+00 -0.38787631454E+02  0.41645672652E+02  0.51100000000E-03 0. -1.
         23    2    1    0    0    0 -0.12442657458E+02 -0.26942926711E+02 -0.11280478506E+01  0.95391287632E+02  0.90650340538E+02 0.  0.
         11    1    3    3    0    0 -0.27601030288E+02 -0.26618227197E+02  0.37659583603E+02  0.53745614979E+02  0.51100000000E-03 0.  1.
         22    1    1    0    0    0  0.12442657458E+02  0.26942926711E+02  0.11280478506E+01  0.29698712368E+02  0.00000000000E+00 0.  1.
</event>
<event>
 5    1  0.1055265E-009  0.9118800E+02  0.7815553E-02  0.1125453E+00
         25   -1    0    0    0    0  0.00000000000E+00  0.00000000000E+00  0.99999998245E-14  0.12509000000E+03  0.12509000000E+03 0.  0.
        -11    1    3    3    0    0 -0.44427886456E+02  0.17275721694E+02  0.28103398544E+02  0.55336142484E+02  0.51100000000E-03 0. -1.
         23    2    1    0    0    0 -0.29390071097E+02 -0.43550720483E+01 -0.19665508736E+01  0.95313998691E+02  0.90543625355E+02 0.  0.
         11    1    3    3    0    0  0.15037815359E+02 -0.21630793743E+02 -0.30069949417E+02  0.39977856207E+02  0.51100000000E-03 0.  1.
         22    1    1    0    0    0  0.29390071097E+02  0.43550720483E+01  0.19665508736E+01  0.29776001309E+02  0.00000000000E+00 0. -1.
</event>
<event>
 5    1  0.1055265E-009  0.9118800E+02  0.7815553E-02  0.1125453E+00
         25   -1    0    0    0    0  0.00000000000E+00  0.00000000000E+00  0.99999998245E-14  0.12509000000E+03  0.12509000000E+03 0.  0.
        -11    1    3    3    0    0 -0.10187148038E+02 -0.47326797597E+02 -0.14949393843E+02  0.50666439903E+02  0.51100000000E-03 0.  1.
         23    2    1    0    0    0 -0.29206338498E+02 -0.10594422169E+02 -0.22322550580E+01  0.93941405293E+02  0.88627042579E+02 0.  0.
         11    1    3    3    0    0 -0.19019190460E+02  0.36732375428E+02  0.12717138785E+02  0.43274965390E+02  0.51100000000E-03 0. -1.
         22    1    1    0    0    0  0.29206338498E+02  0.10594422169E+02  0.22322550580E+01  0.31148594707E+02  0.00000000000E+00 0.  1.
</event>
<event>
 5    1  0.1055265E-009  0.9118800E+02  0.7815553E-02  0.1125453E+00
         25   -1    0    0    0    0  0.00000000000E+00  0.00000000000E+00  0.99999998245E-14  0.12509000000E+03  0.12509000000E+03 0.  0.
        -11    1    3    3    0    0 -0.11208201890E+02  0.35373577374E+02  0.30765060733E+02  0.48201688020E+02  0.51100000000E-03 0.  1.
         23    2    1    0    0    0 -0.33224804363E+01 -0.12436815170E+02  0.24961827353E+02  0.97004308401E+02  0.92849500675E+02 0.  0.
         11    1    3    3    0    0  0.78857214533E+01 -0.47810392544E+02 -0.58032333802E+01  0.48802620380E+02  0.51100000000E-03 0. -1.
         22    1    1    0    0    0  0.33224804363E+01  0.12436815170E+02 -0.24961827353E+02  0.28085691599E+02  0.00000000000E+00 0. -1.
</event>
<event>
 5    1  0.1055265E-009  0.9118800E+02  0.7815553E-02  0.1125453E+00
         25   -1    0    0    0    0  0.00000000000E+00  0.00000000000E+00  0.99999998245E-14  0.12509000000E+03  0.12509000000E+03 0.  0.
        -11    1    3    3    0    0 -0.11164882752E+02  0.38549669360E+02  0.43251009042E+00  0.40136251443E+02  0.51100000000E-03 0.  1.
         23    2    1    0    0    0 -0.16998817434E+02 -0.11067849629E+02  0.22538411088E+02  0.94767779370E+02  0.89785828184E+02 0.  0.
         11    1    3    3    0    0 -0.58339346818E+01 -0.49617518989E+02  0.22105900998E+02  0.54631527927E+02  0.51100000000E-03 0. -1.
         22    1    1    0    0    0  0.16998817434E+02  0.11067849629E+02 -0.22538411088E+02  0.30322220630E+02  0.00000000000E+00 0. -1.
</event>
<event>
 5    1  0.1055265E-009  0.9118800E+02  0.7815553E-02  0.1125453E+00
         25   -1    0    0    0    0  0.00000000000E+00  0.00000000000E+00  0.99999998245E-14  0.12509000000E+03  0.12509000000E+03 0.  0.
        -11    1    3    3    0    0  0.68419225615E+01  0.40078320731E+02 -0.13292142886E+02  0.42775749669E+02  0.51100000000E-03 0.  1.
         23    2    1    0    0    0 -0.10571451207E+02 -0.86089658506E+01 -0.25741618608E+02  0.95960962903E+02  0.91433066224E+02 0.  0.
         11    1    3    3    0    0 -0.17413373768E+02 -0.48687286582E+02 -0.12449475722E+02  0.53185213234E+02  0.51100000000E-03 0. -1.
         22    1    1    0    0    0  0.10571451207E+02  0.86089658506E+01  0.25741618608E+02  0.29129037097E+02  0.00000000000E+00 0. -1.
</event>
<event>
 5    1  0.1055265E-009  0.9118800E+02  0.7815553E-02  0.1125453E+00
         25   -1    0    0    0    0  0.00000000000E+00  0.00000000000E+00  0.99999998245E-14  0.12509000000E+03  0.12509000000E+03 0.  0.
        -11    1    3    3    0    0 -0.75884239757E+01 -0.93187047214E+01 -0.31488954021E+02  0.33704252873E+02  0.51100000000E-03 0.  1.
         23    2    1    0    0    0  0.21503345964E+02 -0.70209977600E+01  0.21298089549E+02  0.94020772207E+02  0.88738991942E+02 0.  0.
         11    1    3    3    0    0  0.29091769940E+02  0.22977069614E+01  0.52787043570E+02  0.60316519334E+02  0.51100000000E-03 0. -1.
         22    1    1    0    0    0 -0.21503345964E+02  0.70209977600E+01 -0.21298089549E+02  0.31069227793E+02  0.00000000000E+00 0. -1.
</event>
<event>
 5    1  0.1055265E-009  0.9118800E+02  0.7815553E-02  0.1125453E+00
         25   -1    0    0    0    0  0.00000000000E+00  0.00000000000E+00  0.99999998245E-14  0.12509000000E+03  0.12509000000E+03 0.  0.
        -11    1    3    3    0    0 -0.12051347403E+02 -0.15416452061E+01 -0.46091196939E+02  0.47665606885E+02  0.51100000000E-03 0.  1.
         23    2    1    0    0    0 -0.27887658971E+02 -0.51538688421E+01  0.20582607799E+00  0.96729353828E+02  0.92478330655E+02 0.  0.
         11    1    3    3    0    0 -0.15836311568E+02 -0.36122236360E+01  0.46297023017E+02  0.49063746943E+02  0.51100000000E-03 0. -1.
         22    1    1    0    0    0  0.27887658971E+02  0.51538688421E+01 -0.20582607799E+00  0.28360646172E+02  0.00000000000E+00 0. -1.
</event>
<event>
 5    1  0.1055265E-009  0.9118800E+02  0.7815553E-02  0.1125453E+00
         25   -1    0    0    0    0  0.00000000000E+00  0.00000000000E+00  0.99999998245E-14  0.12509000000E+03  0.12509000000E+03 0.  0.
        -11    1    3    3    0    0 -0.42028621348E+02 -0.27690655946E+01  0.16850034570E+02  0.45365145233E+02  0.51100000000E-03 0. -1.
         23    2    1    0    0    0  0.57811514701E+01 -0.13869095359E+02  0.25778485841E+02  0.95252040106E+02  0.90457986346E+02 0.  0.
         11    1    3    3    0    0  0.47809772819E+02 -0.11100029765E+02  0.89284512710E+01  0.49886894873E+02  0.51100000000E-03 0.  1.
         22    1    1    0    0    0 -0.57811514701E+01  0.13869095359E+02 -0.25778485841E+02  0.29837959894E+02  0.00000000000E+00 0.  1.
</event>
<event>
 5    1  0.1055265E-009  0.9118800E+02  0.7815553E-02  0.1125453E+00
         25   -1    0    0    0    0  0.00000000000E+00  0.00000000000E+00  0.99999998245E-14  0.12509000000E+03  0.12509000000E+03 0.  0.
        -11    1    3    3    0    0 -0.36133550042E+02 -0.13431753773E+02  0.46141382530E+02  0.60125474053E+02  0.51100000000E-03 0.  1.
         23    2    1    0    0    0 -0.24057818151E+02 -0.74103066989E+01  0.11284207052E+02  0.97503325892E+02  0.93519377519E+02 0.  0.
         11    1    3    3    0    0  0.12075731891E+02  0.60214470736E+01 -0.34857175478E+02  0.37377851839E+02  0.51100000000E-03 0. -1.
         22    1    1    0    0    0  0.24057818151E+02  0.74103066989E+01 -0.11284207052E+02  0.27586674108E+02  0.00000000000E+00 0.  1.
</event>
<event>
 5    1  0.1055265E-009  0.9118800E+02  0.7815553E-02  0.1125453E+00
         25   -1    0    0    0    0  0.00000000000E+00  0.00000000000E+00  0.99999998245E-14  0.12509000000E+03  0.12509000000E+03 0.  0.
        -11    1    3    3    0    0 -0.18868483568E+01  0.30172417962E+02  0.40393278172E+01  0.30500019211E+02  0.51100000000E-03 0. -1.
         23    2    1    0    0    0  0.23953122164E+02 -0.22446272047E+02 -0.99908298312E+01  0.90776680853E+02  0.84041667736E+02 0.  0.
         11    1    3    3    0    0  0.25839970520E+02 -0.52618690009E+02 -0.14030157648E+02  0.60276661642E+02  0.51100000000E-03 0.  1.
         22    1    1    0    0    0 -0.23953122164E+02  0.22446272047E+02  0.99908298312E+01  0.34313319147E+02  0.00000000000E+00 0.  1.
</event>
<event>
 5    1  0.1055265E-009  0.9118800E+02  0.7815553E-02  0.1125453E+00
         25   -1    0    0    0    0  0.00000000000E+00  0.00000000000E+00  0.99999998245E-14  0.12509000000E+03  0.12509000000E+03 0.  0.
        -11    1    3    3    0    0  0.28071372192E+02  0.21473170810E+02 -0.30229943863E+02  0.46507510227E+02  0.51100000000E-03 0.  1.
         23    2    1    0    0    0 -0.15782450734E+02  0.23686798416E+02 -0.93357158322E+01  0.95134937649E+02  0.90295905782E+02 0.  0.
         11    1    3    3    0    0 -0.43853822926E+02  0.22136276057E+01  0.20894228030E+02  0.48627427421E+02  0.51100000000E-03 0. -1.
         22    1    1    0    0    0  0.15782450734E+02 -0.23686798416E+02  0.93357158322E+01  0.29955062351E+02  0.00000000000E+00 0. -1.
</event>
<event>
 5    1  0.1055265E-009  0.9118800E+02  0.7815553E-02  0.1125453E+00
         25   -1    0    0    0    0  0.00000000000E+00  0.00000000000E+00  0.99999998245E-14  0.12509000000E+03  0.12509000000E+03 0.  0.
        -11    1    3    3    0    0  0.31766415023E+02 -0.19716447877E+00 -0.28054598568E+02  0.42381652850E+02  0.51100000000E-03 0. -1.
         23    2    1    0    0    0  0.11992261587E+02  0.19403338572E+02  0.17887955781E+02  0.96102367331E+02  0.91626318047E+02 0.  0.
         11    1    3    3    0    0 -0.19774153436E+02  0.19600503051E+02  0.45942554349E+02  0.53720714481E+02  0.51100000000E-03 0.  1.
         22    1    1    0    0    0 -0.11992261587E+02 -0.19403338572E+02 -0.17887955781E+02  0.28987632669E+02  0.00000000000E+00 0. -1.
</event>
<event>
 5    1  0.1055265E-009  0.9118800E+02  0.7815553E-02  0.1125453E+00
         25   -1    0    0    0    0  0.00000000000E+00  0.00000000000E+00  0.99999998245E-14  0.12509000000E+03  0.12509000000E+03 0.  0.
        -11    1    3    3    0    0  0.56699623083E+01 -0.51114936731E+02  0.23324824569E+02  0.56470635476E+02  0.51100000000E-03 0. -1.
         23    2    1    0    0    0 -0.15692135197E+02 -0.22476079217E+02  0.17223035546E+02  0.92716396595E+02  0.86880837934E+02 0.  0.
         11    1    3    3    0    0 -0.21362097506E+02  0.28638857514E+02 -0.61017890227E+01  0.36245761119E+02  0.51100000000E-03 0.  1.
         22    1    1    0    0    0  0.15692135197E+02  0.22476079217E+02 -0.17223035546E+02  0.32373603405E+02  0.00000000000E+00 0. -1.
</event>
<event>
 5    1  0.1055265E-009  0.9118800E+02  0.7815553E-02  0.1125453E+00
         25   -1    0    0    0    0  0.00000000000E+00  0.00000000000E+00  0.99999998245E-14  0.12509000000E+03  0.12509000000E+03 0.  0.
        -11    1    3    3    0    0 -0.29347302582E+02 -0.19216227808E+01 -0.38721268889E+02  0.48624000942E+02  0.51100000000E-03 0.  1.
         23    2    1    0    0    0 -0.39533429749E+01  0.26889555868E+02 -0.12185211181E+02  0.95304827398E+02  0.90530953924E+02 0.  0.
         11    1    3    3    0    0  0.25393959607E+02  0.28811178648E+02  0.26536057709E+02  0.46680826456E+02  0.51100000000E-03 0. -1.
         22    1    1    0    0    0  0.39533429749E+01 -0.26889555868E+02  0.12185211181E+02  0.29785172602E+02  0.00000000000E+00 0.  1.
</event>
<event>
 5    1  0.1055265E-009  0.9118800E+02  0.7815553E-02  0.1125453E+00
         25   -1    0    0    0    0  0.00000000000E+00  0.00000000000E+00  0.99999998245E-14  0.12509000000E+03  0.12509000000E+03 0.  0.
        -11    1    3    3    0    0  0.18335332066E+02 -0.35142983039E+02  0.27905918433E+02  0.48476323527E+02  0.51100000000E-03 0. -1.
         23    2    1    0    0    0  0.12783217339E+02 -0.57673882889E+01 -0.17390777340E+02  0.10274917303E+03  0.10029097671E+03 0.  0.
         11    1    3    3    0    0 -0.55521147271E+01  0.29375594750E+02 -0.45296695773E+02  0.54272849502E+02  0.51100000000E-03 0.  1.
         22    1    1    0    0    0 -0.12783217339E+02  0.57673882889E+01  0.17390777340E+02  0.22340826970E+02  0.00000000000E+00 0.  1.
</event>
<event>
 5    1  0.1055265E-009  0.9118800E+02  0.7815553E-02  0.1125453E+00
         25   -1    0    0    0    0  0.00000000000E+00  0.00000000000E+00  0.99999998245E-14  0.12509000000E+03  0.12509000000E+03 0.  0.
        -11    1    3    3    0    0 -0.29702113383E+02 -0.32407664417E+02  0.42966526249E+02  0.61470274365E+02  0.51100000000E-03 0. -1.
         23    2    1    0    0    0 -0.10276816926E+02 -0.22117466606E+02  0.17732660864E+02  0.94936350860E+02  0.90020376349E+02 0.  0.
         11    1    3    3    0    0  0.19425296457E+02  0.10290197811E+02 -0.25233865385E+02  0.33466076495E+02  0.51100000000E-03 0.  1.
         22    1    1    0    0    0  0.10276816926E+02  0.22117466606E+02 -0.17732660864E+02  0.30153649140E+02  0.00000000000E+00 0. -1.
</event>
<event>
 5    1  0.1055265E-009  0.9118800E+02  0.7815553E-02  0.1125453E+00
         25   -1    0    0    0    0  0.00000000000E+00  0.00000000000E+00  0.99999998245E-14  0.12509000000E+03  0.12509000000E+03 0.  0.
        -11    1    3    3    0    0  0.37643806010E+02 -0.20432559226E+01  0.43765787627E+02  0.57763961019E+02  0.51100000000E-03 0.  1.
         23    2    1    0    0    0  0.24079683727E+02 -0.13237460679E+02  0.99756097342E+01  0.95856896791E+02  0.91290581876E+02 0.  0.
         11    1    3    3    0    0 -0.13564122283E+02 -0.11194204757E+02 -0.33790177893E+02  0.38092935772E+02  0.51100000000E-03 0. -1.
         22    1    1    0    0    0 -0.24079683727E+02  0.13237460679E+02 -0.99756097342E+01  0.29233103209E+02  0.00000000000E+00 0.  1.
</event>
<event>
 5    1  0.1055265E-009  0.9118800E+02  0.7815553E-02  0.1125453E+00
         25   -1    0    0    0    0  0.00000000000E+00  0.00000000000E+00  0.99999998245E-14  0.12509000000E+03  0.12509000000E+03 0.  0.
        -11    1    3    3    0    0 -0.18657118487E+02  0.19885044975E+02  0.48776159028E+02  0.55880379147E+02  0.51100000000E-03 0. -1.
         23    2    1    0    0    0 -0.20165823911E+02 -0.76115190389E+01  0.20793404513E+02  0.95140687031E+02  0.90303870247E+02 0.  0.
         11    1    3    3    0    0 -0.15087054233E+01 -0.27496564014E+02 -0.27982754515E+02  0.39260307884E+02  0.51100000000E-03 0.  1.
         22    1    1    0    0    0  0.20165823911E+02  0.76115190389E+01 -0.20793404513E+02  0.29949312969E+02  0.00000000000E+00 0. -1.
</event>
<event>
 5    1  0.1055265E-009  0.9118800E+02  0.7815553E-02  0.1125453E+00
         25   -1    0    0    0    0  0.00000000000E+00  0.00000000000E+00  0.99999998245E-14  0.12509000000E+03  0.12509000000E+03 0.  0.
        -11    1    3    3    0    0 -0.77786217717E+01  0.27728649458E+02 -0.54743526804E+02  0.61856597746E+02  0.51100000000E-03 0.  1.
         23    2    1    0    0    0 -0.80726262603E+01  0.17367255813E+02 -0.23502159205E+02  0.94772672339E+02  0.89792644831E+02 0.  0.
         11    1    3    3    0    0 -0.29400448864E+00 -0.10361393645E+02  0.31241367599E+02  0.32916074593E+02  0.51100000000E-03 0. -1.
         22    1    1    0    0    0  0.80726262603E+01 -0.17367255813E+02  0.23502159205E+02  0.30317327661E+02  0.00000000000E+00 0.  1.
</event>
<event>
 5    1  0.1055265E-009  0.9118800E+02  0.7815553E-02  0.1125453E+00
         25   -1    0    0    0    0  0.00000000000E+00  0.00000000000E+00  0.99999998245E-14  0.12509000000E+03  0.12509000000E+03 0.  0.
        -11    1    3    3    0    0  0.32209101889E+02  0.24331395714E+02  0.70801129287E+01  0.40982570213E+02  0.51100000000E-03 0.  1.
         23    2    1    0    0    0 -0.15540466501E+02  0.73768827791E+00  0.23667975639E+02  0.96766452307E+02  0.92528497979E+02 0.  0.
         11    1    3    3    0    0 -0.47749568390E+02 -0.23593707436E+02  0.16587862710E+02  0.55783882095E+02  0.51100000000E-03 0. -1.
         22    1    1    0    0    0  0.15540466501E+02 -0.73768827791E+00 -0.23667975639E+02  0.28323547693E+02  0.00000000000E+00 0. -1.
</event>
<event>
 5    1  0.1055265E-009  0.9118800E+02  0.7815553E-02  0.1125453E+00
         25   -1    0    0    0    0  0.00000000000E+00  0.00000000000E+00  0.99999998245E-14  0.12509000000E+03  0.12509000000E+03 0.  0.
        -11    1    3    3    0    0 -0.38209790167E+02 -0.42794128391E+02 -0.29920977294E+01  0.57448047298E+02  0.51100000000E-03 0.  1.
         23    2    1    0    0    0 -0.45728437399E+01 -0.27227758446E+02 -0.11004835462E+02  0.95368490392E+02  0.90618876765E+02 0.  0.
         11    1    3    3    0    0  0.33636946427E+02  0.15566369945E+02 -0.80127377322E+01  0.37920443093E+02  0.51100000000E-03 0. -1.
         22    1    1    0    0    0  0.45728437399E+01  0.27227758446E+02  0.11004835462E+02  0.29721509608E+02  0.00000000000E+00 0.  1.
</event>
<event>
 5    1  0.1055265E-009  0.9118800E+02  0.7815553E-02  0.1125453E+00
         25   -1    0    0    0    0  0.00000000000E+00  0.00000000000E+00  0.99999998245E-14  0.12509000000E+03  0.12509000000E+03 0.  0.
        -11    1    3    3    0    0  0.41103743347E+02 -0.30082390576E+02 -0.34524961240E+02  0.61534062834E+02  0.51100000000E-03 0. -1.
         23    2    1    0    0    0  0.19697290184E+02 -0.71130113423E+01 -0.20010628883E+02  0.96124443916E+02  0.91656452468E+02 0.  0.
         11    1    3    3    0    0 -0.21406453163E+02  0.22969379234E+02  0.14514332357E+02  0.34590381083E+02  0.51100000000E-03 0.  1.
         22    1    1    0    0    0 -0.19697290184E+02  0.71130113423E+01  0.20010628883E+02  0.28965556084E+02  0.00000000000E+00 0. -1.
</event>
<event>
 5    1  0.1055265E-009  0.9118800E+02  0.7815553E-02  0.1125453E+00
         25   -1    0    0    0    0  0.00000000000E+00  0.00000000000E+00  0.99999998245E-14  0.12509000000E+03  0.12509000000E+03 0.  0.
        -11    1    3    3    0    0  0.34426940251E+01 -0.40378291577E+02  0.19528407530E+02  0.44984633751E+02  0.51100000000E-03 0. -1.
         23    2    1    0    0    0  0.19191274134E+02  0.11199433883E+02  0.13102257273E+02  0.99294623131E+02  0.95885456222E+02 0.  0.
         11    1    3    3    0    0  0.15748580109E+02  0.51577725460E+02 -0.64261502574E+01  0.54309989380E+02  0.51100000000E-03 0.  1.
         22    1    1    0    0    0 -0.19191274134E+02 -0.11199433883E+02 -0.13102257273E+02  0.25795376869E+02  0.00000000000E+00 0.  1.
</event>
<event>
 5    1  0.1055265E-009  0.9118800E+02  0.7815553E-02  0.1125453E+00
         25   -1    0    0    0    0  0.00000000000E+00  0.00000000000E+00  0.99999998245E-14  0.12509000000E+03  0.12509000000E+03 0.  0.
        -11    1    3    3    0    0  0.62940123979E+01 -0.27744241177E+02  0.50487316860E+02  0.57951071384E+02  0.51100000000E-03 0. -1.
         23    2    1    0    0    0  0.35847838844E+01  0.35105443795E+01  0.28232651859E+02  0.96414972043E+02  0.92052102669E+02 0.  0.
         11    1    3    3    0    0 -0.27092285135E+01  0.31254785557E+02 -0.22254665001E+02  0.38463900659E+02  0.51100000000E-03 0.  1.
         22    1    1    0    0    0 -0.35847838844E+01 -0.35105443795E+01 -0.28232651859E+02  0.28675027957E+02  0.00000000000E+00 0. -1.
</event>
<event>
 5    1  0.1055265E-009  0.9118800E+02  0.7815553E-02  0.1125453E+00
         25   -1    0    0    0    0  0.00000000000E+00  0.00000000000E+00  0.99999998245E-14  0.12509000000E+03  0.12509000000E+03 0.  0.
        -11    1    3    3    0    0  0.41773633457E+02 -0.33180821604E+02  0.12781501800E+02  0.54857726557E+02  0.51100000000E-03 0.  1.
         23    2    1    0    0    0  0.18987113497E+02 -0.15822901686E+02 -0.16145767521E+02  0.95567796398E+02  0.90893581747E+02 0.  0.
         11    1    3    3    0    0 -0.22786519960E+02  0.17357919918E+02 -0.28927269322E+02  0.40710069841E+02  0.51100000000E-03 0. -1.
         22    1    1    0    0    0 -0.18987113497E+02  0.15822901686E+02  0.16145767521E+02  0.29522203602E+02  0.00000000000E+00 0.  1.
</event>
<event>
 5    1  0.1055265E-009  0.9118800E+02  0.7815553E-02  0.1125453E+00
         25   -1    0    0    0    0  0.00000000000E+00  0.00000000000E+00  0.99999998245E-14  0.12509000000E+03  0.12509000000E+03 0.  0.
        -11    1    3    3    0    0 -0.76612662021E+01 -0.27463591159E+02 -0.26307945698E+02  0.38794997697E+02  0.51100000000E-03 0. -1.
         23    2    1    0    0    0 -0.72960631403E+01  0.26561240853E+02 -0.39560783470E+01  0.97262269067E+02  0.93196386063E+02 0.  0.
         11    1    3    3    0    0  0.36520306180E+00  0.54024832012E+02  0.22351867351E+02  0.58467271370E+02  0.51100000000E-03 0.  1.
         22    1    1    0    0    0  0.72960631403E+01 -0.26561240853E+02  0.39560783470E+01  0.27827730933E+02  0.00000000000E+00 0.  1.
</event>
<event>
 5    1  0.1055265E-009  0.9118800E+02  0.7815553E-02  0.1125453E+00
         25   -1    0    0    0    0  0.00000000000E+00  0.00000000000E+00  0.99999998245E-14  0.12509000000E+03  0.12509000000E+03 0.  0.
        -11    1    3    3    0    0  0.13313584713E+02 -0.44666958288E+02 -0.34965220815E+02  0.58266245525E+02  0.51100000000E-03 0.  1.
         23    2    1    0    0    0  0.16351852328E+02 -0.10527630006E+02 -0.23889036742E+02  0.94285777164E+02  0.89111770439E+02 0.  0.
         11    1    3    3    0    0  0.30382676148E+01  0.34139328282E+02  0.11076184074E+02  0.36019531639E+02  0.51100000000E-03 0. -1.
         22    1    1    0    0    0 -0.16351852328E+02  0.10527630006E+02  0.23889036742E+02  0.30804222836E+02  0.00000000000E+00 0.  1.
</event>
<event>
 5    1  0.1055265E-009  0.9118800E+02  0.7815553E-02  0.1125453E+00
         25   -1    0    0    0    0  0.00000000000E+00  0.00000000000E+00  0.99999998245E-14  0.12509000000E+03  0.12509000000E+03 0.  0.
        -11    1    3    3    0    0  0.32070873873E+02  0.17633911507E+02 -0.23080946035E+01  0.36671829610E+02  0.51100000000E-03 0.  1.
         23    2    1    0    0    0 -0.13802078692E+02 -0.89426108290E+01 -0.25667780163E+02  0.94605535052E+02  0.89559503456E+02 0.  0.
         11    1    3    3    0    0 -0.45872952565E+02 -0.26576522336E+02 -0.23359685560E+02  0.57933705442E+02  0.51100000000E-03 0. -1.
         22    1    1    0    0    0  0.13802078692E+02  0.89426108290E+01  0.25667780163E+02  0.30484464948E+02  0.00000000000E+00 0. -1.
</event>
<event>
 5    1  0.1055265E-009  0.9118800E+02  0.7815553E-02  0.1125453E+00
         25   -1    0    0    0    0  0.00000000000E+00  0.00000000000E+00  0.99999998245E-14  0.12509000000E+03  0.12509000000E+03 0.  0.
        -11    1    3    3    0    0  0.39567187755E+02 -0.12141931425E+02  0.31404770536E+02  0.51954292009E+02  0.51100000000E-03 0. -1.
         23    2    1    0    0    0  0.23766155324E+01 -0.24667225745E+02  0.21137562041E+02  0.92518281342E+02  0.86595124147E+02 0.  0.
         11    1    3    3    0    0 -0.37190572222E+02 -0.12525294319E+02 -0.10267208495E+02  0.40563989332E+02  0.51100000000E-03 0.  1.
         22    1    1    0    0    0 -0.23766155324E+01  0.24667225745E+02 -0.21137562041E+02  0.32571718658E+02  0.00000000000E+00 0.  1.
</event>
<event>
 5    1  0.1055265E-009  0.9118800E+02  0.7815553E-02  0.1125453E+00
         25   -1    0    0    0    0  0.00000000000E+00  0.00000000000E+00  0.99999998245E-14  0.12509000000E+03  0.12509000000E+03 0.  0.
        -11    1    3    3    0    0 -0.30604157701E+01  0.56960113016E+02 -0.21581903196E+02  0.60988516668E+02  0.51100000000E-03 0. -1.
         23    2    1    0    0    0 -0.77896561145E+01  0.25396514725E+02 -0.17767329867E+02  0.93131594014E+02  0.87476591672E+02 0.  0.
         11    1    3    3    0    0 -0.47292403444E+01 -0.31563598292E+02  0.38145733291E+01  0.32143077346E+02  0.51100000000E-03 0.  1.
         22    1    1    0    0    0  0.77896561145E+01 -0.25396514725E+02  0.17767329867E+02  0.31958405986E+02  0.00000000000E+00 0. -1.
</event>
<event>
 5    1  0.1055265E-009  0.9118800E+02  0.7815553E-02  0.1125453E+00
         25   -1    0    0    0    0  0.00000000000E+00  0.00000000000E+00  0.99999998245E-14  0.12509000000E+03  0.12509000000E+03 0.  0.
        -11    1    3    3    0    0  0.46699957544E+02  0.30403210454E+02 -0.44204491056E+01  0.55899746074E+02  0.51100000000E-03 0. -1.
         23    2    1    0    0    0  0.20448115278E+02  0.69622328043E+01 -0.21142014789E+02  0.94864466202E+02  0.89920431796E+02 0.  0.
         11    1    3    3    0    0 -0.26251842266E+02 -0.23440977650E+02 -0.16721565683E+02  0.38964720128E+02  0.51100000000E-03 0.  1.
         22    1    1    0    0    0 -0.20448115278E+02 -0.69622328043E+01  0.21142014789E+02  0.30225533798E+02  0.00000000000E+00 0. -1.
</event>
<event>
 5    1  0.1055265E-009  0.9118800E+02  0.7815553E-02  0.1125453E+00
         25   -1    0    0    0    0  0.00000000000E+00  0.00000000000E+00  0.99999998245E-14  0.12509000000E+03  0.12509000000E+03 0.  0.
        -11    1    3    3    0    0 -0.32653997955E+02  0.30081807814E+02  0.17990764641E+02  0.47904763400E+02  0.51100000000E-03 0.  1.
         23    2    1    0    0    0 -0.19303240588E+02  0.14509305036E+01 -0.19961161428E+02  0.97284096632E+02  0.93225678842E+02 0.  0.
         11    1    3    3    0    0  0.13350757368E+02 -0.28630877310E+02 -0.37951926069E+02  0.49379333232E+02  0.51100000000E-03 0. -1.
         22    1    1    0    0    0  0.19303240588E+02 -0.14509305036E+01  0.19961161428E+02  0.27805903368E+02  0.00000000000E+00 0. -1.
</event>
<event>
 5    1  0.1055265E-009  0.9118800E+02  0.7815553E-02  0.1125453E+00
         25   -1    0    0    0    0  0.00000000000E+00  0.00000000000E+00  0.99999998245E-14  0.12509000000E+03  0.12509000000E+03 0.  0.
        -11    1    3    3    0    0  0.19762603378E+02 -0.38412054927E+02 -0.13464428424E+02  0.45247511412E+02  0.51100000000E-03 0. -1.
         23    2    1    0    0    0  0.10109558523E+02 -0.82258354940E+01  0.26086101855E+02  0.95929200060E+02  0.91389601001E+02 0.  0.
         11    1    3    3    0    0 -0.96530448543E+01  0.30186219433E+02  0.39550530279E+02  0.50681688648E+02  0.51100000000E-03 0.  1.
         22    1    1    0    0    0 -0.10109558523E+02  0.82258354940E+01 -0.26086101855E+02  0.29160799940E+02  0.00000000000E+00 0.  1.
</event>
<event>
 5    1  0.1055265E-009  0.9118800E+02  0.7815553E-02  0.1125453E+00
         25   -1    0    0    0    0  0.00000000000E+00  0.00000000000E+00  0.99999998245E-14  0.12509000000E+03  0.12509000000E+03 0.  0.
        -11    1    3    3    0    0 -0.26719257352E+02  0.32789919841E+02  0.30245600323E+02  0.51998979757E+02  0.51100000000E-03 0.  1.
         23    2    1    0    0    0 -0.75284667566E+01 -0.51192663082E+01  0.29202036575E+02  0.94501707478E+02  0.89414367285E+02 0.  0.
         11    1    3    3    0    0  0.19190790596E+02 -0.37909186149E+02 -0.10435637478E+01  0.42502727721E+02  0.51100000000E-03 0. -1.
         22    1    1    0    0    0  0.75284667566E+01  0.51192663082E+01 -0.29202036575E+02  0.30588292522E+02  0.00000000000E+00 0.  1.
</event>
<event>
 5    1  0.1055265E-009  0.9118800E+02  0.7815553E-02  0.1125453E+00
         25   -1    0    0    0    0  0.00000000000E+00  0.00000000000E+00  0.99999998245E-14  0.12509000000E+03  0.12509000000E+03 0.  0.
        -11    1    3    3    0    0  0.18203917079E+02 -0.33918740033E+02  0.36245963536E+02  0.52873749587E+02  0.51100000000E-03 0. -1.
         23    2    1    0    0    0  0.28401131405E+02 -0.99826466526E+01  0.33725927070E+01  0.94797230552E+02  0.89826850326E+02 0.  0.
         11    1    3    3    0    0  0.10197214326E+02  0.23936093380E+02 -0.32873370829E+02  0.41923480965E+02  0.51100000000E-03 0.  1.
         22    1    1    0    0    0 -0.28401131405E+02  0.99826466526E+01 -0.33725927070E+01  0.30292769448E+02  0.00000000000E+00 0. -1.
</event>
<event>
 5    1  0.1055265E-009  0.9118800E+02  0.7815553E-02  0.1125453E+00
         25   -1    0    0    0    0  0.00000000000E+00  0.00000000000E+00  0.99999998245E-14  0.12509000000E+03  0.12509000000E+03 0.  0.
        -11    1    3    3    0    0  0.10101595037E+02  0.30368307868E+02 -0.16213986526E+02  0.35877147383E+02  0.51100000000E-03 0. -1.
         23    2    1    0    0    0  0.15355986246E+02 -0.19310253380E+02  0.16334755305E+02  0.95500873111E+02  0.90801433551E+02 0.  0.
         11    1    3    3    0    0  0.52543912088E+01 -0.49678561248E+02  0.32548741831E+02  0.59623725728E+02  0.51100000000E-03 0.  1.
         22    1    1    0    0    0 -0.15355986246E+02  0.19310253380E+02 -0.16334755305E+02  0.29589126889E+02  0.00000000000E+00 0.  1.
</event>
<event>
 5    1  0.1055265E-009  0.9118800E+02  0.7815553E-02  0.1125453E+00
         25   -1    0    0    0    0  0.00000000000E+00  0.00000000000E+00  0.99999998245E-14  0.12509000000E+03  0.12509000000E+03 0.  0.
        -11    1    3    3    0    0  0.53640889790E+02  0.81963581137E+01  0.14776036830E+02  0.56239279942E+02  0.51100000000E-03 0. -1.
         23    2    1    0    0    0  0.16787729877E+02  0.21986971899E+02  0.89364504437E+01  0.96019139087E+02  0.91512622718E+02 0.  0.
         11    1    3    3    0    0 -0.36853159913E+02  0.13790613785E+02 -0.58395863867E+01  0.39779859145E+02  0.51100000000E-03 0.  1.
         22    1    1    0    0    0 -0.16787729877E+02 -0.21986971899E+02 -0.89364504437E+01  0.29070860913E+02  0.00000000000E+00 0. -1.
</event>
<event>
 5    1  0.1055265E-009  0.9118800E+02  0.7815553E-02  0.1125453E+00
         25   -1    0    0    0    0  0.00000000000E+00  0.00000000000E+00  0.99999998245E-14  0.12509000000E+03  0.12509000000E+03 0.  0.
        -11    1    3    3    0    0  0.15258357384E+02 -0.11110509465E+02  0.28862826660E+02  0.34486572078E+02  0.51100000000E-03 0.  1.
         23    2    1    0    0    0 -0.22596059107E+01  0.14737723812E+00 -0.29010020476E+02  0.95991738421E+02  0.91475160662E+02 0.  0.
         11    1    3    3    0    0 -0.17517963294E+02  0.11257886703E+02 -0.57872847136E+02  0.61505166343E+02  0.51100000000E-03 0. -1.
         22    1    1    0    0    0  0.22596059107E+01 -0.14737723812E+00  0.29010020476E+02  0.29098261579E+02  0.00000000000E+00 0. -1.
</event>
<event>
 5    1  0.1055265E-009  0.9118800E+02  0.7815553E-02  0.1125453E+00
         25   -1    0    0    0    0  0.00000000000E+00  0.00000000000E+00  0.99999998245E-14  0.12509000000E+03  0.12509000000E+03 0.  0.
        -11    1    3    3    0    0 -0.15286917235E+02 -0.16094495048E+02 -0.42268473713E+02  0.47742501816E+02  0.51100000000E-03 0.  1.
         23    2    1    0    0    0  0.14570012310E+02 -0.24928184659E+02 -0.58986572380E+01  0.95619781027E+02  0.90965096149E+02 0.  0.
         11    1    3    3    0    0  0.29856929545E+02 -0.88336896108E+01  0.36369816475E+02  0.47877279211E+02  0.51100000000E-03 0. -1.
         22    1    1    0    0    0 -0.14570012310E+02  0.24928184659E+02  0.58986572380E+01  0.29470218973E+02  0.00000000000E+00 0. -1.
</event>
<event>
 5    1  0.1055265E-009  0.9118800E+02  0.7815553E-02  0.1125453E+00
         25   -1    0    0    0    0  0.00000000000E+00  0.00000000000E+00  0.99999998245E-14  0.12509000000E+03  0.12509000000E+03 0.  0.
        -11    1    3    3    0    0 -0.22130963736E+02  0.24466941934E+02 -0.23883591989E+01  0.33077410168E+02  0.51100000000E-03 0. -1.
         23    2    1    0    0    0  0.28611548666E+02 -0.62225661018E+01 -0.12532780355E+02  0.93240170653E+02  0.87631716827E+02 0.  0.
         11    1    3    3    0    0  0.50742512403E+02 -0.30689508035E+02 -0.10144421156E+02  0.60162760486E+02  0.51100000000E-03 0.  1.
         22    1    1    0    0    0 -0.28611548666E+02  0.62225661018E+01  0.12532780355E+02  0.31849829347E+02  0.00000000000E+00 0.  1.
</event>
<event>
 5    1  0.1055265E-009  0.9118800E+02  0.7815553E-02  0.1125453E+00
         25   -1    0    0    0    0  0.00000000000E+00  0.00000000000E+00  0.99999998245E-14  0.12509000000E+03  0.12509000000E+03 0.  0.
        -11    1    3    3    0    0 -0.57995149054E+02 -0.19318147868E+01 -0.10444192752E+01  0.58036712812E+02  0.51100000000E-03 0.  1.
         23    2    1    0    0    0 -0.23951699590E+02  0.13694056549E+02  0.75853017485E+01  0.96476228829E+02  0.92135307176E+02 0.  0.
         11    1    3    3    0    0  0.34043449464E+02  0.15625871336E+02  0.86297210236E+01  0.38439516017E+02  0.51100000000E-03 0. -1.
         22    1    1    0    0    0  0.23951699590E+02 -0.13694056549E+02 -0.75853017485E+01  0.28613771171E+02  0.00000000000E+00 0.  1.
</event>
<event>
 5    1  0.1055265E-009  0.9118800E+02  0.7815553E-02  0.1125453E+00
         25   -1    0    0    0    0  0.00000000000E+00  0.00000000000E+00  0.99999998245E-14  0.12509000000E+03  0.12509000000E+03 0.  0.
        -11    1    3    3    0    0 -0.49807078531E+01 -0.49326805914E+02 -0.16655547410E+02  0.52300559196E+02  0.51100000000E-03 0. -1.
         23    2    1    0    0    0 -0.50691686736E+01 -0.76744928595E+01 -0.28121756563E+02  0.95502375833E+02  0.90803503709E+02 0.  0.
         11    1    3    3    0    0 -0.88460820488E-01  0.41652313055E+02 -0.11466209153E+02  0.43201816637E+02  0.51100000000E-03 0.  1.
         22    1    1    0    0    0  0.50691686736E+01  0.76744928595E+01  0.28121756563E+02  0.29587624167E+02  0.00000000000E+00 0. -1.
</event>
<event>
 5    1  0.1055265E-009  0.9118800E+02  0.7815553E-02  0.1125453E+00
         25   -1    0    0    0    0  0.00000000000E+00  0.00000000000E+00  0.99999998245E-14  0.12509000000E+03  0.12509000000E+03 0.  0.
        -11    1    3    3    0    0  0.26383247334E+02  0.35165935877E+02  0.20579485695E+02  0.48541054972E+02  0.51100000000E-03 0. -1.
         23    2    1    0    0    0 -0.67427470052E+01  0.84250787629E+01  0.30911385476E+02  0.92349194552E+02  0.86350526305E+02 0.  0.
         11    1    3    3    0    0 -0.33125994339E+02 -0.26740857114E+02  0.10331899780E+02  0.43808139581E+02  0.51100000000E-03 0.  1.
         22    1    1    0    0    0  0.67427470052E+01 -0.84250787629E+01 -0.30911385476E+02  0.32740805448E+02  0.00000000000E+00 0.  1.
</event>
<event>
 5    1  0.1055265E-009  0.9118800E+02  0.7815553E-02  0.1125453E+00
         25   -1    0    0    0    0  0.00000000000E+00  0.00000000000E+00  0.99999998245E-14  0.12509000000E+03  0.12509000000E+03 0.  0.
        -11    1    3    3    0    0  0.29647826551E+02 -0.17799255973E+00 -0.16567496815E+02  0.33963322151E+02  0.51100000000E-03 0. -1.
         23    2    1    0    0    0 -0.21996916303E+02  0.86484607172E+01  0.16810539706E+02  0.96085613352E+02  0.91603442339E+02 0.  0.
         11    1    3    3    0    0 -0.51644742854E+02  0.88264532769E+01  0.33378036520E+02  0.62122291201E+02  0.51100000000E-03 0.  1.
         22    1    1    0    0    0  0.21996916303E+02 -0.86484607172E+01 -0.16810539706E+02  0.29004386648E+02  0.00000000000E+00 0.  1.
</event>
<event>
 5    1  0.1055265E-009  0.9118800E+02  0.7815553E-02  0.1125453E+00
         25   -1    0    0    0    0  0.00000000000E+00  0.00000000000E+00  0.99999998245E-14  0.12509000000E+03  0.12509000000E+03 0.  0.
        -11    1    3    3    0    0  0.24524625374E+02 -0.20679859397E+02  0.40066432154E+01  0.32329043050E+02  0.51100000000E-03 0. -1.
         23    2    1    0    0    0 -0.26480495177E+02  0.10885187264E+02 -0.11424274554E+02  0.94264394156E+02  0.89081749140E+02 0.  0.
         11    1    3    3    0    0 -0.51005120551E+02  0.31565046661E+02 -0.15430917769E+02  0.61935351106E+02  0.51100000000E-03 0.  1.
         22    1    1    0    0    0  0.26480495177E+02 -0.10885187264E+02  0.11424274554E+02  0.30825605844E+02  0.00000000000E+00 0.  1.
</event>
<event>
 5    1  0.1055265E-009  0.9118800E+02  0.7815553E-02  0.1125453E+00
         25   -1    0    0    0    0  0.00000000000E+00  0.00000000000E+00  0.99999998245E-14  0.12509000000E+03  0.12509000000E+03 0.  0.
        -11    1    3    3    0    0  0.46116840121E+02 -0.30711515815E+02 -0.28634077002E+02  0.62368826447E+02  0.51100000000E-03 0. -1.
         23    2    1    0    0    0  0.22709912948E+02 -0.17483283743E+02 -0.11764551755E+02  0.94109198936E+02  0.88863554339E+02 0.  0.
         11    1    3    3    0    0 -0.23406927173E+02  0.13228232072E+02  0.16869525247E+02  0.31740372489E+02  0.51100000000E-03 0.  1.
         22    1    1    0    0    0 -0.22709912948E+02  0.17483283743E+02  0.11764551755E+02  0.30980801064E+02  0.00000000000E+00 0. -1.
</event>
<event>
 5    1  0.1055265E-009  0.9118800E+02  0.7815553E-02  0.1125453E+00
         25   -1    0    0    0    0  0.00000000000E+00  0.00000000000E+00  0.99999998245E-14  0.12509000000E+03  0.12509000000E+03 0.  0.
        -11    1    3    3    0    0 -0.52192906639E+02  0.41074258119E+00  0.27257138293E+02  0.58883102849E+02  0.51100000000E-03 0. -1.
         23    2    1    0    0    0 -0.24643634946E+02 -0.13073511785E+02  0.20963825029E+02  0.90194335318E+02  0.83170371587E+02 0.  0.
         11    1    3    3    0    0  0.27549271694E+02 -0.13484254366E+02 -0.62933132633E+01  0.31311232469E+02  0.51100000000E-03 0.  1.
         22    1    1    0    0    0  0.24643634946E+02  0.13073511785E+02 -0.20963825029E+02  0.34895664682E+02  0.00000000000E+00 0. -1.
</event>
<event>
 5    1  0.1055265E-009  0.9118800E+02  0.7815553E-02  0.1125453E+00
         25   -1    0    0    0    0  0.00000000000E+00  0.00000000000E+00  0.99999998245E-14  0.12509000000E+03  0.12509000000E+03 0.  0.
        -11    1    3    3    0    0 -0.27128496676E+01 -0.23881608898E+02 -0.27974865119E+02  0.36882026457E+02  0.51100000000E-03 0. -1.
         23    2    1    0    0    0  0.10345551441E+02 -0.10048425067E+02  0.26684685643E+02  0.94757282864E+02  0.89771203217E+02 0.  0.
         11    1    3    3    0    0  0.13058401109E+02  0.13833183831E+02  0.54659550763E+02  0.57875256407E+02  0.51100000000E-03 0.  1.
         22    1    1    0    0    0 -0.10345551441E+02  0.10048425067E+02 -0.26684685643E+02  0.30332717136E+02  0.00000000000E+00 0.  1.
</event>
<event>
 5    1  0.1055265E-009  0.9118800E+02  0.7815553E-02  0.1125453E+00
         25   -1    0    0    0    0  0.00000000000E+00  0.00000000000E+00  0.99999998245E-14  0.12509000000E+03  0.12509000000E+03 0.  0.
        -11    1    3    3    0    0  0.12730489987E+02 -0.13489646898E+01 -0.32361443247E+02  0.34801552987E+02  0.51100000000E-03 0.  1.
         23    2    1    0    0    0  0.54816128205E+01  0.27464439025E+01  0.28351713275E+02  0.96082920194E+02  0.91599764597E+02 0.  0.
         11    1    3    3    0    0 -0.72488771661E+01  0.40954085923E+01  0.60713156522E+02  0.61281367207E+02  0.51100000000E-03 0. -1.
         22    1    1    0    0    0 -0.54816128205E+01 -0.27464439025E+01 -0.28351713275E+02  0.29007079806E+02  0.00000000000E+00 0. -1.
</event>
<event>
 5    1  0.1055265E-009  0.9118800E+02  0.7815553E-02  0.1125453E+00
         25   -1    0    0    0    0  0.00000000000E+00  0.00000000000E+00  0.99999998245E-14  0.12509000000E+03  0.12509000000E+03 0.  0.
        -11    1    3    3    0    0  0.32616177379E+02  0.40900257522E+02 -0.18092822497E+02  0.55353376757E+02  0.51100000000E-03 0. -1.
         23    2    1    0    0    0  0.14323864947E+01  0.28625688692E+02  0.49236584715E+01  0.96008662395E+02  0.91498300847E+02 0.  0.
         11    1    3    3    0    0 -0.31183790884E+02 -0.12274568830E+02  0.23016480969E+02  0.40655285638E+02  0.51100000000E-03 0.  1.
         22    1    1    0    0    0 -0.14323864947E+01 -0.28625688692E+02 -0.49236584715E+01  0.29081337605E+02  0.00000000000E+00 0. -1.
</event>
<event>
 5    1  0.1055265E-009  0.9118800E+02  0.7815553E-02  0.1125453E+00
         25   -1    0    0    0    0  0.00000000000E+00  0.00000000000E+00  0.99999998245E-14  0.12509000000E+03  0.12509000000E+03 0.  0.
        -11    1    3    3    0    0 -0.17922246484E+02 -0.13858389265E+02 -0.23025913369E+02  0.32302547249E+02  0.51100000000E-03 0.  1.
         23    2    1    0    0    0  0.35208797277E+02 -0.25365268336E+01 -0.12536411189E+02  0.87629954891E+02  0.79219656744E+02 0.  0.
         11    1    3    3    0    0  0.53131043761E+02  0.11321862432E+02  0.10489502180E+02  0.55327407641E+02  0.51100000000E-03 0. -1.
         22    1    1    0    0    0 -0.35208797277E+02  0.25365268336E+01  0.12536411189E+02  0.37460045109E+02  0.00000000000E+00 0. -1.
</event>
<event>
 5    1  0.1055265E-009  0.9118800E+02  0.7815553E-02  0.1125453E+00
         25   -1    0    0    0    0  0.00000000000E+00  0.00000000000E+00  0.99999998245E-14  0.12509000000E+03  0.12509000000E+03 0.  0.
        -11    1    3    3    0    0 -0.69744900449E+01 -0.12995987132E+02  0.46359289943E+02  0.48648976938E+02  0.51100000000E-03 0.  1.
         23    2    1    0    0    0  0.25190803343E+02  0.94864298879E+00  0.14569529274E+02  0.95973893120E+02  0.91450754402E+02 0.  0.
         11    1    3    3    0    0  0.32165293388E+02  0.13944630120E+02 -0.31789760669E+02  0.47324916181E+02  0.51100000000E-03 0. -1.
         22    1    1    0    0    0 -0.25190803343E+02 -0.94864298879E+00 -0.14569529274E+02  0.29116106880E+02  0.00000000000E+00 0. -1.
</event>
<event>
 5    1  0.1055265E-009  0.9118800E+02  0.7815553E-02  0.1125453E+00
         25   -1    0    0    0    0  0.00000000000E+00  0.00000000000E+00  0.99999998245E-14  0.12509000000E+03  0.12509000000E+03 0.  0.
        -11    1    3    3    0    0 -0.21452278427E+02 -0.31127024572E+02  0.15278725789E+02  0.40774150763E+02  0.51100000000E-03 0.  1.
         23    2    1    0    0    0  0.51634704310E+01  0.15838411443E+02  0.24423490967E+02  0.95526109611E+02  0.90836193241E+02 0.  0.
         11    1    3    3    0    0  0.26615748858E+02  0.46965436015E+02  0.91447651775E+01  0.54751958849E+02  0.51100000000E-03 0. -1.
         22    1    1    0    0    0 -0.51634704310E+01 -0.15838411443E+02 -0.24423490967E+02  0.29563890389E+02  0.00000000000E+00 0. -1.
</event>
<event>
 5    1  0.1055265E-009  0.9118800E+02  0.7815553E-02  0.1125453E+00
         25   -1    0    0    0    0  0.00000000000E+00  0.00000000000E+00  0.99999998245E-14  0.12509000000E+03  0.12509000000E+03 0.  0.
        -11    1    3    3    0    0  0.26658790838E+02 -0.56117118859E+02 -0.12071844215E+01  0.62139194173E+02  0.51100000000E-03 0.  1.
         23    2    1    0    0    0  0.10742032811E+02 -0.19116630772E+02  0.41502976491E+01  0.10277270152E+03  0.10032031881E+03 0.  0.
         11    1    3    3    0    0 -0.15916758027E+02  0.37000488086E+02  0.53574820706E+01  0.40633507344E+02  0.51100000000E-03 0. -1.
         22    1    1    0    0    0 -0.10742032811E+02  0.19116630772E+02 -0.41502976491E+01  0.22317298483E+02  0.00000000000E+00 0.  1.
</event>
<event>
 5    1  0.1055265E-009  0.9118800E+02  0.7815553E-02  0.1125453E+00
         25   -1    0    0    0    0  0.00000000000E+00  0.00000000000E+00  0.99999998245E-14  0.12509000000E+03  0.12509000000E+03 0.  0.
        -11    1    3    3    0    0  0.50295145862E+02  0.37315888093E+01  0.12844143897E+02  0.52043236689E+02  0.51100000000E-03 0. -1.
         23    2    1    0    0    0  0.23147542529E+02  0.94542791328E+01 -0.18562310963E+02  0.93949166560E+02  0.88637996311E+02 0.  0.
         11    1    3    3    0    0 -0.27147603333E+02  0.57226903235E+01 -0.31406454860E+02  0.41905929871E+02  0.51100000000E-03 0.  1.
         22    1    1    0    0    0 -0.23147542529E+02 -0.94542791328E+01  0.18562310963E+02  0.31140833440E+02  0.00000000000E+00 0. -1.
</event>
<event>
 5    1  0.1055265E-009  0.9118800E+02  0.7815553E-02  0.1125453E+00
         25   -1    0    0    0    0  0.00000000000E+00  0.00000000000E+00  0.99999998245E-14  0.12509000000E+03  0.12509000000E+03 0.  0.
        -11    1    3    3    0    0  0.32602727735E+02 -0.61185884318E+01 -0.96783125114E+01  0.34554952083E+02  0.51100000000E-03 0. -1.
         23    2    1    0    0    0 -0.15725467159E+02  0.24892266836E+02  0.78961254457E+01  0.94606167192E+02  0.89560386377E+02 0.  0.
         11    1    3    3    0    0 -0.48328194894E+02  0.31010855268E+02  0.17574437957E+02  0.60051215108E+02  0.51100000000E-03 0.  1.
         22    1    1    0    0    0  0.15725467159E+02 -0.24892266836E+02 -0.78961254457E+01  0.30483832808E+02  0.00000000000E+00 0.  1.
</event>
<event>
 5    1  0.1055265E-009  0.9118800E+02  0.7815553E-02  0.1125453E+00
         25   -1    0    0    0    0  0.00000000000E+00  0.00000000000E+00  0.99999998245E-14  0.12509000000E+03  0.12509000000E+03 0.  0.
        -11    1    3    3    0    0  0.86819181217E+01  0.31512084801E+02  0.19174366289E+02  0.37895164779E+02  0.51100000000E-03 0.  1.
         23    2    1    0    0    0  0.28887644731E+02 -0.16265829761E+02  0.62871992318E+01  0.91346821281E+02  0.84886039182E+02 0.  0.
         11    1    3    3    0    0  0.20205726609E+02 -0.47777914562E+02 -0.12887167057E+02  0.53451656501E+02  0.51100000000E-03 0. -1.
         22    1    1    0    0    0 -0.28887644731E+02  0.16265829761E+02 -0.62871992318E+01  0.33743178719E+02  0.00000000000E+00 0. -1.
</event>
<event>
 5    1  0.1055265E-009  0.9118800E+02  0.7815553E-02  0.1125453E+00
         25   -1    0    0    0    0  0.00000000000E+00  0.00000000000E+00  0.99999998245E-14  0.12509000000E+03  0.12509000000E+03 0.  0.
        -11    1    3    3    0    0 -0.17781008761E+00  0.29015225607E+02 -0.19677960663E+02  0.35059051179E+02  0.51100000000E-03 0. -1.
         23    2    1    0    0    0 -0.10516898225E+02 -0.25729381495E+02 -0.20125479201E+02  0.90773223732E+02  0.84036521901E+02 0.  0.
         11    1    3    3    0    0 -0.10339088137E+02 -0.54744607101E+02 -0.44751853781E+00  0.55714172553E+02  0.51100000000E-03 0.  1.
         22    1    1    0    0    0  0.10516898225E+02  0.25729381495E+02  0.20125479201E+02  0.34316776268E+02  0.00000000000E+00 0.  1.
</event>
<event>
 5    1  0.1055265E-009  0.9118800E+02  0.7815553E-02  0.1125453E+00
         25   -1    0    0    0    0  0.00000000000E+00  0.00000000000E+00  0.99999998245E-14  0.12509000000E+03  0.12509000000E+03 0.  0.
        -11    1    3    3    0    0 -0.14719126635E+02 -0.42666147088E+02 -0.14217429382E+02  0.47320060172E+02  0.51100000000E-03 0. -1.
         23    2    1    0    0    0  0.19408596274E+02 -0.18990265467E+02  0.10866431883E+02  0.95842724337E+02  0.91271160147E+02 0.  0.
         11    1    3    3    0    0  0.34127722909E+02  0.23675881621E+02  0.25083861265E+02  0.48522664165E+02  0.51100000000E-03 0.  1.
         22    1    1    0    0    0 -0.19408596274E+02  0.18990265467E+02 -0.10866431883E+02  0.29247275663E+02  0.00000000000E+00 0. -1.
</event>
<event>
 5    1  0.1055265E-009  0.9118800E+02  0.7815553E-02  0.1125453E+00
         25   -1    0    0    0    0  0.00000000000E+00  0.00000000000E+00  0.99999998245E-14  0.12509000000E+03  0.12509000000E+03 0.  0.
        -11    1    3    3    0    0 -0.31255323520E+02 -0.51786400690E+01 -0.21216915458E+02  0.38129661198E+02  0.51100000000E-03 0. -1.
         23    2    1    0    0    0  0.24532661370E+02 -0.13142424911E+02 -0.46068588990E+01  0.96880108909E+02  0.92682023861E+02 0.  0.
         11    1    3    3    0    0  0.55787984890E+02 -0.79637848422E+01  0.16610056559E+02  0.58750447711E+02  0.51100000000E-03 0.  1.
         22    1    1    0    0    0 -0.24532661370E+02  0.13142424911E+02  0.46068588990E+01  0.28209891091E+02  0.00000000000E+00 0.  1.
</event>
<event>
 5    1  0.1055265E-009  0.9118800E+02  0.7815553E-02  0.1125453E+00
         25   -1    0    0    0    0  0.00000000000E+00  0.00000000000E+00  0.99999998245E-14  0.12509000000E+03  0.12509000000E+03 0.  0.
        -11    1    3    3    0    0  0.40553899104E+02 -0.22719185008E-01 -0.22582456171E+02  0.46417524445E+02  0.51100000000E-03 0. -1.
         23    2    1    0    0    0 -0.60160165364E+00 -0.25726400771E+02 -0.14325752198E+02  0.95637720000E+02  0.90989761454E+02 0.  0.
         11    1    3    3    0    0 -0.41155500757E+02 -0.25703681586E+02  0.82567039725E+01  0.49220195554E+02  0.51100000000E-03 0.  1.
         22    1    1    0    0    0  0.60160165364E+00  0.25726400771E+02  0.14325752198E+02  0.29452280000E+02  0.00000000000E+00 0. -1.
</event>
<event>
 5    1  0.1055265E-009  0.9118800E+02  0.7815553E-02  0.1125453E+00
         25   -1    0    0    0    0  0.00000000000E+00  0.00000000000E+00  0.99999998245E-14  0.12509000000E+03  0.12509000000E+03 0.  0.
        -11    1    3    3    0    0 -0.24671821931E+02  0.24178883592E+02  0.23287743791E+02  0.41660967587E+02  0.51100000000E-03 0.  1.
         23    2    1    0    0    0 -0.58751674768E+01 -0.25595624853E+02  0.12739168236E+02  0.95901988560E+02  0.91352347522E+02 0.  0.
         11    1    3    3    0    0  0.18796654455E+02 -0.49774508445E+02 -0.10548575555E+02  0.54241020972E+02  0.51100000000E-03 0. -1.
         22    1    1    0    0    0  0.58751674768E+01  0.25595624853E+02 -0.12739168236E+02  0.29188011440E+02  0.00000000000E+00 0. -1.
</event>
<event>
 5    1  0.1055265E-009  0.9118800E+02  0.7815553E-02  0.1125453E+00
         25   -1    0    0    0    0  0.00000000000E+00  0.00000000000E+00  0.99999998245E-14  0.12509000000E+03  0.12509000000E+03 0.  0.
        -11    1    3    3    0    0 -0.34704008784E+02  0.32759075397E+02 -0.51494253280E+00  0.47726202579E+02  0.51100000000E-03 0. -1.
         23    2    1    0    0    0 -0.77294415293E+01  0.12359621619E+02  0.29011901802E+02  0.92621631407E+02  0.86744288835E+02 0.  0.
         11    1    3    3    0    0  0.26974567255E+02 -0.20399453778E+02  0.29526844335E+02  0.44895428828E+02  0.51100000000E-03 0.  1.
         22    1    1    0    0    0  0.77294415293E+01 -0.12359621619E+02 -0.29011901802E+02  0.32468368593E+02  0.00000000000E+00 0. -1.
</event>
<event>
 5    1  0.1055265E-009  0.9118800E+02  0.7815553E-02  0.1125453E+00
         25   -1    0    0    0    0  0.00000000000E+00  0.00000000000E+00  0.99999998245E-14  0.12509000000E+03  0.12509000000E+03 0.  0.
        -11    1    3    3    0    0  0.46577264829E+00 -0.16933682700E+02 -0.41422631093E+02  0.44752663841E+02  0.51100000000E-03 0. -1.
         23    2    1    0    0    0 -0.19800042768E+02  0.16973158948E+02 -0.48935426196E+01  0.98555558652E+02  0.94916392491E+02 0.  0.
         11    1    3    3    0    0 -0.20265815416E+02  0.33906841648E+02  0.36529088474E+02  0.53802894811E+02  0.51100000000E-03 0.  1.
         22    1    1    0    0    0  0.19800042768E+02 -0.16973158948E+02  0.48935426196E+01  0.26534441348E+02  0.00000000000E+00 0.  1.
</event>
<event>
 5    1  0.1055265E-009  0.9118800E+02  0.7815553E-02  0.1125453E+00
         25   -1    0    0    0    0  0.00000000000E+00  0.00000000000E+00  0.99999998245E-14  0.12509000000E+03  0.12509000000E+03 0.  0.
        -11    1    3    3    0    0 -0.36738145951E+02  0.21593274762E+01  0.47522124349E+02  0.60105793115E+02  0.51100000000E-03 0.  1.
         23    2    1    0    0    0 -0.18539585794E+02  0.12860419629E+02  0.18992163629E+02  0.95597476986E+02  0.90934419734E+02 0.  0.
         11    1    3    3    0    0  0.18198560157E+02  0.10701092153E+02 -0.28529960720E+02  0.35491683871E+02  0.51100000000E-03 0. -1.
         22    1    1    0    0    0  0.18539585794E+02 -0.12860419629E+02 -0.18992163629E+02  0.29492523014E+02  0.00000000000E+00 0.  1.
</event>
<event>
 5    1  0.1055265E-009  0.9118800E+02  0.7815553E-02  0.1125453E+00
         25   -1    0    0    0    0  0.00000000000E+00  0.00000000000E+00  0.99999998245E-14  0.12509000000E+03  0.12509000000E+03 0.  0.
        -11    1    3    3    0    0 -0.17742333410E+02 -0.33094418680E+01 -0.40084153279E+02  0.43960006195E+02  0.51100000000E-03 0. -1.
         23    2    1    0    0    0 -0.25059361199E+02  0.17874152171E+02  0.46170955000E+01  0.93964857906E+02  0.88660137892E+02 0.  0.
         11    1    3    3    0    0 -0.73170277882E+01  0.21183594039E+02  0.44701248779E+02  0.50004851711E+02  0.51100000000E-03 0.  1.
         22    1    1    0    0    0  0.25059361199E+02 -0.17874152171E+02 -0.46170955000E+01  0.31125142094E+02  0.00000000000E+00 0.  1.
</event>
<event>
 5    1  0.1055265E-009  0.9118800E+02  0.7815553E-02  0.1125453E+00
         25   -1    0    0    0    0  0.00000000000E+00  0.00000000000E+00  0.99999998245E-14  0.12509000000E+03  0.12509000000E+03 0.  0.
        -11    1    3    3    0    0 -0.30917153788E+02  0.45379334353E+02  0.10337609391E+02  0.55875044097E+02  0.51100000000E-03 0. -1.
         23    2    1    0    0    0 -0.26037555474E+02  0.14408799802E+02 -0.10514420096E+02  0.93528617952E+02  0.88042498484E+02 0.  0.
         11    1    3    3    0    0  0.48795983133E+01 -0.30970534551E+02 -0.20852029487E+02  0.37653573855E+02  0.51100000000E-03 0.  1.
         22    1    1    0    0    0  0.26037555474E+02 -0.14408799802E+02  0.10514420096E+02  0.31561382048E+02  0.00000000000E+00 0. -1.
</event>
<event>
 5    1  0.1055265E-009  0.9118800E+02  0.7815553E-02  0.1125453E+00
         25   -1    0    0    0    0  0.00000000000E+00  0.00000000000E+00  0.99999998245E-14  0.12509000000E+03  0.12509000000E+03 0.  0.
        -11    1    3    3    0    0  0.21645614362E+02  0.24416475649E+02 -0.14728206144E+02  0.35799678221E+02  0.51100000000E-03 0.  1.
         23    2    1    0    0    0  0.46246460311E+01 -0.21389472680E+02  0.19755732934E+02  0.95608041514E+02  0.90948951208E+02 0.  0.
         11    1    3    3    0    0 -0.17020968331E+02 -0.45805948328E+02  0.34483939078E+02  0.59808363293E+02  0.51100000000E-03 0. -1.
         22    1    1    0    0    0 -0.46246460311E+01  0.21389472680E+02 -0.19755732934E+02  0.29481958486E+02  0.00000000000E+00 0. -1.
</event>
<event>
 5    1  0.1055265E-009  0.9118800E+02  0.7815553E-02  0.1125453E+00
         25   -1    0    0    0    0  0.00000000000E+00  0.00000000000E+00  0.99999998245E-14  0.12509000000E+03  0.12509000000E+03 0.  0.
        -11    1    3    3    0    0  0.16768031468E+02  0.16623023578E+02 -0.41067638466E+02  0.47371328054E+02  0.51100000000E-03 0.  1.
         23    2    1    0    0    0  0.52049278193E+01  0.30196298384E+02  0.24005162176E+01  0.94354512566E+02  0.89208205080E+02 0.  0.
         11    1    3    3    0    0 -0.11563103649E+02  0.13573274806E+02  0.43468154683E+02  0.46983184511E+02  0.51100000000E-03 0. -1.
         22    1    1    0    0    0 -0.52049278193E+01 -0.30196298384E+02 -0.24005162176E+01  0.30735487434E+02  0.00000000000E+00 0. -1.
</event>
<event>
 5    1  0.1055265E-009  0.9118800E+02  0.7815553E-02  0.1125453E+00
         25   -1    0    0    0    0  0.00000000000E+00  0.00000000000E+00  0.99999998245E-14  0.12509000000E+03  0.12509000000E+03 0.  0.
        -11    1    3    3    0    0 -0.13168080391E+02 -0.22075240001E+02  0.27654619513E+02  0.37755695504E+02  0.51100000000E-03 0. -1.
         23    2    1    0    0    0  0.19970332943E+02 -0.18032732359E+02 -0.16814268087E+02  0.93361255217E+02  0.87804389014E+02 0.  0.
         11    1    3    3    0    0  0.33138413335E+02  0.40425076420E+01 -0.44468887600E+02  0.55605559713E+02  0.51100000000E-03 0.  1.
         22    1    1    0    0    0 -0.19970332943E+02  0.18032732359E+02  0.16814268087E+02  0.31728744783E+02  0.00000000000E+00 0.  1.
</event>
<event>
 5    1  0.1055265E-009  0.9118800E+02  0.7815553E-02  0.1125453E+00
         25   -1    0    0    0    0  0.00000000000E+00  0.00000000000E+00  0.99999998245E-14  0.12509000000E+03  0.12509000000E+03 0.  0.
        -11    1    3    3    0    0 -0.35123291538E+02 -0.14272226185E+01 -0.69714827140E+01  0.35836910363E+02  0.51100000000E-03 0.  1.
         23    2    1    0    0    0  0.17184437853E+02 -0.56660003858E+01 -0.27485554333E+02  0.92183098571E+02  0.86109578448E+02 0.  0.
         11    1    3    3    0    0  0.52307729390E+02 -0.42387777673E+01 -0.20514071619E+02  0.56346188208E+02  0.51100000000E-03 0. -1.
         22    1    1    0    0    0 -0.17184437853E+02  0.56660003858E+01  0.27485554333E+02  0.32906901429E+02  0.00000000000E+00 0. -1.
</event>
<event>
 5    1  0.1055265E-009  0.9118800E+02  0.7815553E-02  0.1125453E+00
         25   -1    0    0    0    0  0.00000000000E+00  0.00000000000E+00  0.99999998245E-14  0.12509000000E+03  0.12509000000E+03 0.  0.
        -11    1    3    3    0    0 -0.16015267499E+02 -0.26035730055E+02  0.13846416187E+02  0.33556985473E+02  0.51100000000E-03 0.  1.
         23    2    1    0    0    0  0.20875432020E+02  0.17781812640E+02 -0.10407167285E+02  0.95759373452E+02  0.91156853556E+02 0.  0.
         11    1    3    3    0    0  0.36890699519E+02  0.43817542695E+02 -0.24253583471E+02  0.62202387979E+02  0.51100000000E-03 0. -1.
         22    1    1    0    0    0 -0.20875432020E+02 -0.17781812640E+02  0.10407167285E+02  0.29330626548E+02  0.00000000000E+00 0. -1.
</event>
<event>
 5    1  0.1055265E-009  0.9118800E+02  0.7815553E-02  0.1125453E+00
         25   -1    0    0    0    0  0.00000000000E+00  0.00000000000E+00  0.99999998245E-14  0.12509000000E+03  0.12509000000E+03 0.  0.
        -11    1    3    3    0    0 -0.19516179170E+00 -0.14878187526E+02 -0.29406265144E+02  0.32956440678E+02  0.51100000000E-03 0. -1.
         23    2    1    0    0    0  0.11223112910E+01  0.39709999992E+01  0.29749009899E+02  0.95056152202E+02  0.90186695570E+02 0.  0.
         11    1    3    3    0    0  0.13174730827E+01  0.18849187525E+02  0.59155275043E+02  0.62099711524E+02  0.51100000000E-03 0.  1.
         22    1    1    0    0    0 -0.11223112910E+01 -0.39709999992E+01 -0.29749009899E+02  0.30033847798E+02  0.00000000000E+00 0.  1.
</event>
<event>
 5    1  0.1055265E-009  0.9118800E+02  0.7815553E-02  0.1125453E+00
         25   -1    0    0    0    0  0.00000000000E+00  0.00000000000E+00  0.99999998245E-14  0.12509000000E+03  0.12509000000E+03 0.  0.
        -11    1    3    3    0    0 -0.82940678689E+01  0.27724986525E+02  0.57550779071E+01  0.29505717439E+02  0.51100000000E-03 0. -1.
         23    2    1    0    0    0  0.30486264089E+02 -0.68300328329E+01  0.25183065958E+02  0.84962098764E+02  0.74888649131E+02 0.  0.
         11    1    3    3    0    0  0.38780331958E+02 -0.34555019358E+02  0.19427988051E+02  0.55456381324E+02  0.51100000000E-03 0.  1.
         22    1    1    0    0    0 -0.30486264089E+02  0.68300328329E+01 -0.25183065958E+02  0.40127901236E+02  0.00000000000E+00 0.  1.
</event>
<event>
 5    1  0.1055265E-009  0.9118800E+02  0.7815553E-02  0.1125453E+00
         25   -1    0    0    0    0  0.00000000000E+00  0.00000000000E+00  0.99999998245E-14  0.12509000000E+03  0.12509000000E+03 0.  0.
        -11    1    3    3    0    0  0.31431823900E+02  0.12102471964E+02 -0.51725806496E+02  0.61725103801E+02  0.51100000000E-03 0. -1.
         23    2    1    0    0    0  0.13840695433E+02 -0.16340740938E+01 -0.24213741538E+02  0.97151848173E+02  0.93048058958E+02 0.  0.
         11    1    3    3    0    0 -0.17591128467E+02 -0.13736546057E+02  0.27512064958E+02  0.35426744372E+02  0.51100000000E-03 0.  1.
         22    1    1    0    0    0 -0.13840695433E+02  0.16340740938E+01  0.24213741538E+02  0.27938151827E+02  0.00000000000E+00 0. -1.
</event>
<event>
 5    1  0.1055265E-009  0.9118800E+02  0.7815553E-02  0.1125453E+00
         25   -1    0    0    0    0  0.00000000000E+00  0.00000000000E+00  0.99999998245E-14  0.12509000000E+03  0.12509000000E+03 0.  0.
        -11    1    3    3    0    0  0.18719085639E+02 -0.43618783953E+02 -0.30045846001E+02  0.56176110072E+02  0.51100000000E-03 0. -1.
         23    2    1    0    0    0  0.78438661202E+01 -0.65128809144E+01 -0.28441767044E+02  0.94876129574E+02  0.89936655469E+02 0.  0.
         11    1    3    3    0    0 -0.10875219519E+02  0.37105903038E+02  0.16040789565E+01  0.38700019502E+02  0.51100000000E-03 0.  1.
         22    1    1    0    0    0 -0.78438661202E+01  0.65128809144E+01  0.28441767044E+02  0.30213870426E+02  0.00000000000E+00 0. -1.
</event>
<event>
 5    1  0.1055265E-009  0.9118800E+02  0.7815553E-02  0.1125453E+00
         25   -1    0    0    0    0  0.00000000000E+00  0.00000000000E+00  0.99999998245E-14  0.12509000000E+03  0.12509000000E+03 0.  0.
        -11    1    3    3    0    0  0.37877342227E+02 -0.28393047641E+01  0.48547748520E+02  0.61641208557E+02  0.51100000000E-03 0. -1.
         23    2    1    0    0    0  0.18215020242E+02 -0.87612368793E+01  0.21815659594E+02  0.95349972468E+02  0.90593311078E+02 0.  0.
         11    1    3    3    0    0 -0.19662321985E+02 -0.59219321152E+01 -0.26732088926E+02  0.33708763911E+02  0.51100000000E-03 0.  1.
         22    1    1    0    0    0 -0.18215020242E+02  0.87612368793E+01 -0.21815659594E+02  0.29740027532E+02  0.00000000000E+00 0. -1.
</event>
<event>
 5    1  0.1055265E-009  0.9118800E+02  0.7815553E-02  0.1125453E+00
         25   -1    0    0    0    0  0.00000000000E+00  0.00000000000E+00  0.99999998245E-14  0.12509000000E+03  0.12509000000E+03 0.  0.
        -11    1    3    3    0    0 -0.20972437827E+01  0.24473762276E+02 -0.30143065149E+02  0.38884030761E+02  0.51100000000E-03 0. -1.
         23    2    1    0    0    0 -0.43404211649E+01 -0.27922076510E+02 -0.89375217575E+01  0.95452845824E+02  0.90735246008E+02 0.  0.
         11    1    3    3    0    0 -0.22431773823E+01 -0.52395838785E+02  0.21205543392E+02  0.56568815062E+02  0.51100000000E-03 0.  1.
         22    1    1    0    0    0  0.43404211649E+01  0.27922076510E+02  0.89375217575E+01  0.29637154176E+02  0.00000000000E+00 0.  1.
</event>
<event>
 5    1  0.1055265E-009  0.9118800E+02  0.7815553E-02  0.1125453E+00
         25   -1    0    0    0    0  0.00000000000E+00  0.00000000000E+00  0.99999998245E-14  0.12509000000E+03  0.12509000000E+03 0.  0.
        -11    1    3    3    0    0 -0.19354534847E+02  0.31365179398E+02  0.27536878523E+02  0.46007088333E+02  0.51100000000E-03 0.  1.
         23    2    1    0    0    0  0.22633193597E+02  0.19100942909E+02  0.55719164891E+01  0.94954410977E+02  0.90045468727E+02 0.  0.
         11    1    3    3    0    0  0.41987728444E+02 -0.12264236490E+02 -0.21964962034E+02  0.48947322644E+02  0.51100000000E-03 0. -1.
         22    1    1    0    0    0 -0.22633193597E+02 -0.19100942909E+02 -0.55719164891E+01  0.30135589023E+02  0.00000000000E+00 0. -1.
</event>
<event>
 5    1  0.1055265E-009  0.9118800E+02  0.7815553E-02  0.1125453E+00
         25   -1    0    0    0    0  0.00000000000E+00  0.00000000000E+00  0.99999998245E-14  0.12509000000E+03  0.12509000000E+03 0.  0.
        -11    1    3    3    0    0 -0.10762725053E+02  0.51903675030E+02  0.11965616115E+02  0.54341546734E+02  0.51100000000E-03 0. -1.
         23    2    1    0    0    0 -0.59000750171E+01  0.15799102055E+02  0.26593969315E+02  0.93599339243E+02  0.88142921394E+02 0.  0.
         11    1    3    3    0    0  0.48626500356E+01 -0.36104572975E+02  0.14628353200E+02  0.39257792509E+02  0.51100000000E-03 0.  1.
         22    1    1    0    0    0  0.59000750171E+01 -0.15799102055E+02 -0.26593969315E+02  0.31490660757E+02  0.00000000000E+00 0. -1.
</event>
<event>
 5    1  0.1055265E-009  0.9118800E+02  0.7815553E-02  0.1125453E+00
         25   -1    0    0    0    0  0.00000000000E+00  0.00000000000E+00  0.99999998245E-14  0.12509000000E+03  0.12509000000E+03 0.  0.
        -11    1    3    3    0    0 -0.34821537623E+02 -0.10736812663E+02  0.36547048608E+02  0.51609159950E+02  0.51100000000E-03 0.  1.
         23    2    1    0    0    0  0.76076956227E+01 -0.13734601028E+02  0.24802156694E+02  0.95735898502E+02  0.91124634359E+02 0.  0.
         11    1    3    3    0    0  0.42429233245E+02 -0.29977883658E+01 -0.11744891914E+02  0.44126738552E+02  0.51100000000E-03 0. -1.
         22    1    1    0    0    0 -0.76076956227E+01  0.13734601028E+02 -0.24802156694E+02  0.29354101498E+02  0.00000000000E+00 0.  1.
</event>
<event>
 5    1  0.1055265E-009  0.9118800E+02  0.7815553E-02  0.1125453E+00
         25   -1    0    0    0    0  0.00000000000E+00  0.00000000000E+00  0.99999998245E-14  0.12509000000E+03  0.12509000000E+03 0.  0.
        -11    1    3    3    0    0  0.33214293385E+02  0.34130405861E+02 -0.22134327662E+02  0.52516686402E+02  0.51100000000E-03 0. -1.
         23    2    1    0    0    0  0.22464094161E+02  0.22160220988E+02  0.12846691404E+02  0.91020242139E+02  0.84403412717E+02 0.  0.
         11    1    3    3    0    0 -0.10750199225E+02 -0.11970184873E+02  0.34981019066E+02  0.38503555737E+02  0.51100000000E-03 0.  1.
         22    1    1    0    0    0 -0.22464094161E+02 -0.22160220988E+02 -0.12846691404E+02  0.34069757861E+02  0.00000000000E+00 0. -1.
</event>
<event>
 5    1  0.1055265E-009  0.9118800E+02  0.7815553E-02  0.1125453E+00
         25   -1    0    0    0    0  0.00000000000E+00  0.00000000000E+00  0.99999998245E-14  0.12509000000E+03  0.12509000000E+03 0.  0.
        -11    1    3    3    0    0  0.17640219119E+02 -0.83112994187E+01 -0.29391906103E+02  0.35272357069E+02  0.51100000000E-03 0.  1.
         23    2    1    0    0    0 -0.14128994483E+02  0.22000528813E+02  0.12632275341E+02  0.96051643754E+02  0.91557043063E+02 0.  0.
         11    1    3    3    0    0 -0.31769213602E+02  0.30311828232E+02  0.42024181444E+02  0.60779286685E+02  0.51100000000E-03 0. -1.
         22    1    1    0    0    0  0.14128994483E+02 -0.22000528813E+02 -0.12632275341E+02  0.29038356246E+02  0.00000000000E+00 0. -1.
</event>
<event>
 5    1  0.1055265E-009  0.9118800E+02  0.7815553E-02  0.1125453E+00
         25   -1    0    0    0    0  0.00000000000E+00  0.00000000000E+00  0.99999998245E-14  0.12509000000E+03  0.12509000000E+03 0.  0.
        -11    1    3    3    0    0  0.29423338577E+02  0.40199662846E+02  0.85390556703E+01  0.50543656555E+02  0.51100000000E-03 0. -1.
         23    2    1    0    0    0  0.15441872247E+02  0.97097227041E+01 -0.22417957365E+02  0.96188530385E+02  0.91743874083E+02 0.  0.
         11    1    3    3    0    0 -0.13981466331E+02 -0.30489940142E+02 -0.30957013035E+02  0.45644873830E+02  0.51100000000E-03 0.  1.
         22    1    1    0    0    0 -0.15441872247E+02 -0.97097227041E+01  0.22417957365E+02  0.28901469615E+02  0.00000000000E+00 0. -1.
</event>
<event>
 5    1  0.1055265E-009  0.9118800E+02  0.7815553E-02  0.1125453E+00
         25   -1    0    0    0    0  0.00000000000E+00  0.00000000000E+00  0.99999998245E-14  0.12509000000E+03  0.12509000000E+03 0.  0.
        -11    1    3    3    0    0 -0.28858595823E+02  0.23932602479E+02  0.14381008305E+02  0.40154718457E+02  0.51100000000E-03 0.  1.
         23    2    1    0    0    0  0.23640268925E+02  0.38407138567E+01  0.15822124178E+02  0.96385418288E+02  0.92011933179E+02 0.  0.
         11    1    3    3    0    0  0.52498864748E+02 -0.20091888622E+02  0.14411158735E+01  0.56230699830E+02  0.51100000000E-03 0. -1.
         22    1    1    0    0    0 -0.23640268925E+02 -0.38407138567E+01 -0.15822124178E+02  0.28704581712E+02  0.00000000000E+00 0. -1.
</event>
<event>
 5    1  0.1055265E-009  0.9118800E+02  0.7815553E-02  0.1125453E+00
         25   -1    0    0    0    0  0.00000000000E+00  0.00000000000E+00  0.99999998245E-14  0.12509000000E+03  0.12509000000E+03 0.  0.
        -11    1    3    3    0    0  0.67641736737E+01  0.35271081582E+02  0.13762858271E+02  0.38460622844E+02  0.51100000000E-03 0. -1.
         23    2    1    0    0    0  0.26361686827E+02 -0.15847839213E+02  0.39718759186E+01  0.94075997704E+02  0.88816805873E+02 0.  0.
         11    1    3    3    0    0  0.19597513154E+02 -0.51118920796E+02 -0.97909823523E+01  0.55615374860E+02  0.51100000000E-03 0.  1.
         22    1    1    0    0    0 -0.26361686827E+02  0.15847839213E+02 -0.39718759186E+01  0.31014002296E+02  0.00000000000E+00 0.  1.
</event>
<event>
 5    1  0.1055265E-009  0.9118800E+02  0.7815553E-02  0.1125453E+00
         25   -1    0    0    0    0  0.00000000000E+00  0.00000000000E+00  0.99999998245E-14  0.12509000000E+03  0.12509000000E+03 0.  0.
        -11    1    3    3    0    0  0.22862568266E+02 -0.27279664727E+02 -0.15631913982E+02  0.38874591578E+02  0.51100000000E-03 0. -1.
         23    2    1    0    0    0 -0.10652836640E+02 -0.17444457513E+02  0.25222655201E+02  0.92625028696E+02  0.86749187772E+02 0.  0.
         11    1    3    3    0    0 -0.33515404906E+02  0.98352072143E+01  0.40854569183E+02  0.53750437118E+02  0.51100000000E-03 0.  1.
         22    1    1    0    0    0  0.10652836640E+02  0.17444457513E+02 -0.25222655201E+02  0.32464971304E+02  0.00000000000E+00 0.  1.
</event>
<event>
 5    1  0.1055265E-009  0.9118800E+02  0.7815553E-02  0.1125453E+00
         25   -1    0    0    0    0  0.00000000000E+00  0.00000000000E+00  0.99999998245E-14  0.12509000000E+03  0.12509000000E+03 0.  0.
        -11    1    3    3    0    0 -0.37301292338E+01 -0.61292671419E+02 -0.38062313349E+01  0.61523920803E+02  0.51100000000E-03 0.  1.
         23    2    1    0    0    0 -0.89983719919E+00 -0.24370627624E+02  0.62874455656E+01  0.99905298900E+02  0.96678847628E+02 0.  0.
         11    1    3    3    0    0  0.28302920346E+01  0.36922043795E+02  0.10093676900E+02  0.38381378097E+02  0.51100000000E-03 0. -1.
         22    1    1    0    0    0  0.89983719919E+00  0.24370627624E+02 -0.62874455656E+01  0.25184701100E+02  0.00000000000E+00 0.  1.
</event>
<event>
 5    1  0.1055265E-009  0.9118800E+02  0.7815553E-02  0.1125453E+00
         25   -1    0    0    0    0  0.00000000000E+00  0.00000000000E+00  0.99999998245E-14  0.12509000000E+03  0.12509000000E+03 0.  0.
        -11    1    3    3    0    0 -0.19190161738E+02 -0.34343579536E+02  0.13534645170E+02  0.41604451480E+02  0.51100000000E-03 0.  1.
         23    2    1    0    0    0 -0.11619745861E+02  0.35618776373E+01 -0.25687391628E+02  0.96672618790E+02  0.92401556637E+02 0.  0.
         11    1    3    3    0    0  0.75704158767E+01  0.37905457173E+02 -0.39222036798E+02  0.55068167310E+02  0.51100000000E-03 0. -1.
         22    1    1    0    0    0  0.11619745861E+02 -0.35618776373E+01  0.25687391628E+02  0.28417381210E+02  0.00000000000E+00 0.  1.
</event>
<event>
 5    1  0.1055265E-009  0.9118800E+02  0.7815553E-02  0.1125453E+00
         25   -1    0    0    0    0  0.00000000000E+00  0.00000000000E+00  0.99999998245E-14  0.12509000000E+03  0.12509000000E+03 0.  0.
        -11    1    3    3    0    0  0.43021667625E+02  0.30430679207E+02 -0.74138738830E+01  0.53215182500E+02  0.51100000000E-03 0.  1.
         23    2    1    0    0    0  0.75766843273E+01  0.23463162783E+02  0.15475238082E+02  0.95979707201E+02  0.91458706789E+02 0.  0.
         11    1    3    3    0    0 -0.35444983298E+02 -0.69675164244E+01  0.22889111965E+02  0.42764524701E+02  0.51100000000E-03 0. -1.
         22    1    1    0    0    0 -0.75766843273E+01 -0.23463162783E+02 -0.15475238082E+02  0.29110292799E+02  0.00000000000E+00 0.  1.
</event>
<event>
 5    1  0.1055265E-009  0.9118800E+02  0.7815553E-02  0.1125453E+00
         25   -1    0    0    0    0  0.00000000000E+00  0.00000000000E+00  0.99999998245E-14  0.12509000000E+03  0.12509000000E+03 0.  0.
        -11    1    3    3    0    0  0.10228169761E+02  0.34769195136E+02 -0.48331756382E+02  0.60410852190E+02  0.51100000000E-03 0.  1.
         23    2    1    0    0    0  0.54365484720E+01  0.33903144252E+02 -0.29627906793E+02  0.79738130023E+02  0.65584885981E+02 0.  0.
         11    1    3    3    0    0 -0.47916212891E+01 -0.86605088336E+00  0.18703849590E+02  0.19327277833E+02  0.51100000000E-03 0. -1.
         22    1    1    0    0    0 -0.54365484720E+01 -0.33903144252E+02  0.29627906793E+02  0.45351869977E+02  0.00000000000E+00 0.  1.
</event>
<event>
 5    1  0.1055265E-009  0.9118800E+02  0.7815553E-02  0.1125453E+00
         25   -1    0    0    0    0  0.00000000000E+00  0.00000000000E+00  0.99999998245E-14  0.12509000000E+03  0.12509000000E+03 0.  0.
        -11    1    3    3    0    0  0.54210245861E+01 -0.63701725829E+01  0.14187141370E+02  0.16469413675E+02  0.51100000000E-03 0.  1.
         23    2    1    0    0    0  0.12251189001E+02  0.21882533980E+02 -0.39952676569E+02  0.77918469493E+02  0.62017212108E+02 0.  0.
         11    1    3    3    0    0  0.68301644153E+01  0.28252706563E+02 -0.54139817939E+02  0.61449055817E+02  0.51100000000E-03 0. -1.
         22    1    1    0    0    0 -0.12251189001E+02 -0.21882533980E+02  0.39952676569E+02  0.47171530507E+02  0.00000000000E+00 0. -1.
</event>
<event>
 5    1  0.1055265E-009  0.9118800E+02  0.7815553E-02  0.1125453E+00
         25   -1    0    0    0    0  0.00000000000E+00  0.00000000000E+00  0.99999998245E-14  0.12509000000E+03  0.12509000000E+03 0.  0.
        -11    1    3    3    0    0 -0.42027586919E+02 -0.26629836369E+02  0.32974272963E+02  0.59688934695E+02  0.51100000000E-03 0.  1.
         23    2    1    0    0    0 -0.25741054820E+02 -0.73428332813E+00  0.17347115277E+02  0.94040628288E+02  0.88766977447E+02 0.  0.
         11    1    3    3    0    0  0.16286532099E+02  0.25895553041E+02 -0.15627157686E+02  0.34351693593E+02  0.51100000000E-03 0. -1.
         22    1    1    0    0    0  0.25741054820E+02  0.73428332813E+00 -0.17347115277E+02  0.31049371712E+02  0.00000000000E+00 0.  1.
</event>
<event>
 5    1  0.1055265E-009  0.9118800E+02  0.7815553E-02  0.1125453E+00
         25   -1    0    0    0    0  0.00000000000E+00  0.00000000000E+00  0.99999998245E-14  0.12509000000E+03  0.12509000000E+03 0.  0.
        -11    1    3    3    0    0  0.24718014834E+02  0.36495068202E+02  0.44034739693E+02  0.62305124673E+02  0.51100000000E-03 0. -1.
         23    2    1    0    0    0  0.10451264894E+02  0.20888033529E+02  0.19779305794E+02  0.94483467687E+02  0.89388846317E+02 0.  0.
         11    1    3    3    0    0 -0.14266749940E+02 -0.15607034674E+02 -0.24255433900E+02  0.32178343013E+02  0.51100000000E-03 0.  1.
         22    1    1    0    0    0 -0.10451264894E+02 -0.20888033529E+02 -0.19779305794E+02  0.30606532313E+02  0.00000000000E+00 0. -1.
</event>
<event>
 5    1  0.1055265E-009  0.9118800E+02  0.7815553E-02  0.1125453E+00
         25   -1    0    0    0    0  0.00000000000E+00  0.00000000000E+00  0.99999998245E-14  0.12509000000E+03  0.12509000000E+03 0.  0.
        -11    1    3    3    0    0  0.34382575606E+02  0.16294954910E+01  0.10896226258E+02  0.36104632774E+02  0.51100000000E-03 0. -1.
         23    2    1    0    0    0 -0.11279068502E+02 -0.23232530153E+02 -0.16069429393E+02  0.94672991524E+02  0.89653672092E+02 0.  0.
         11    1    3    3    0    0 -0.45661644107E+02 -0.24862025644E+02 -0.26965655651E+02  0.58568358750E+02  0.51100000000E-03 0.  1.
         22    1    1    0    0    0  0.11279068502E+02  0.23232530153E+02  0.16069429393E+02  0.30417008476E+02  0.00000000000E+00 0.  1.
</event>
<event>
 5    1  0.1055265E-009  0.9118800E+02  0.7815553E-02  0.1125453E+00
         25   -1    0    0    0    0  0.00000000000E+00  0.00000000000E+00  0.99999998245E-14  0.12509000000E+03  0.12509000000E+03 0.  0.
        -11    1    3    3    0    0  0.36749555111E+02  0.33660407427E+02  0.21156308280E+02  0.54140024098E+02  0.51100000000E-03 0.  1.
         23    2    1    0    0    0  0.26379213505E+02 -0.54461252018E+01  0.11896172023E+02  0.95644421492E+02  0.90998973999E+02 0.  0.
         11    1    3    3    0    0 -0.10370341606E+02 -0.39106532629E+02 -0.92601362569E+01  0.41504397394E+02  0.51100000000E-03 0. -1.
         22    1    1    0    0    0 -0.26379213505E+02  0.54461252018E+01 -0.11896172023E+02  0.29445578508E+02  0.00000000000E+00 0.  1.
</event>
<event>
 5    1  0.1055265E-009  0.9118800E+02  0.7815553E-02  0.1125453E+00
         25   -1    0    0    0    0  0.00000000000E+00  0.00000000000E+00  0.99999998245E-14  0.12509000000E+03  0.12509000000E+03 0.  0.
        -11    1    3    3    0    0  0.80015777685E+01  0.45675731659E+02 -0.33459340722E+02  0.57182385323E+02  0.51100000000E-03 0. -1.
         23    2    1    0    0    0  0.18205448253E+02  0.11681572997E+02 -0.21385272438E+02  0.94672449622E+02  0.89652915994E+02 0.  0.
         11    1    3    3    0    0  0.10203870484E+02 -0.33994158661E+02  0.12074068284E+02  0.37490064299E+02  0.51100000000E-03 0.  1.
         22    1    1    0    0    0 -0.18205448253E+02 -0.11681572997E+02  0.21385272438E+02  0.30417550378E+02  0.00000000000E+00 0. -1.
</event>
<event>
 5    1  0.1055265E-009  0.9118800E+02  0.7815553E-02  0.1125453E+00
         25   -1    0    0    0    0  0.00000000000E+00  0.00000000000E+00  0.99999998245E-14  0.12509000000E+03  0.12509000000E+03 0.  0.
        -11    1    3    3    0    0  0.23921497903E+02 -0.20887181434E+02  0.19941794467E+02  0.37499167684E+02  0.51100000000E-03 0. -1.
         23    2    1    0    0    0  0.44915327080E+01  0.29688412270E+02  0.50529604084E+00  0.95059498618E+02  0.90191336969E+02 0.  0.
         11    1    3    3    0    0 -0.19429965194E+02  0.50575593704E+02 -0.19436498426E+02  0.57560330934E+02  0.51100000000E-03 0.  1.
         22    1    1    0    0    0 -0.44915327080E+01 -0.29688412270E+02 -0.50529604084E+00  0.30030501382E+02  0.00000000000E+00 0.  1.
</event>
<event>
 5    1  0.1055265E-009  0.9118800E+02  0.7815553E-02  0.1125453E+00
         25   -1    0    0    0    0  0.00000000000E+00  0.00000000000E+00  0.99999998245E-14  0.12509000000E+03  0.12509000000E+03 0.  0.
        -11    1    3    3    0    0 -0.40150082766E+02  0.20122906115E+02 -0.20396938242E+02  0.49325405082E+02  0.51100000000E-03 0. -1.
         23    2    1    0    0    0  0.31793422174E+01 -0.40769166000E+01 -0.25365638367E+02  0.99202839559E+02  0.95765642592E+02 0.  0.
         11    1    3    3    0    0  0.43329424983E+02 -0.24199822715E+02 -0.49687001248E+01  0.49877434477E+02  0.51100000000E-03 0.  1.
         22    1    1    0    0    0 -0.31793422174E+01  0.40769166000E+01  0.25365638367E+02  0.25887160441E+02  0.00000000000E+00 0. -1.
</event>
<event>
 5    1  0.1055265E-009  0.9118800E+02  0.7815553E-02  0.1125453E+00
         25   -1    0    0    0    0  0.00000000000E+00  0.00000000000E+00  0.99999998245E-14  0.12509000000E+03  0.12509000000E+03 0.  0.
        -11    1    3    3    0    0 -0.44201465464E+02  0.63360871264E+01 -0.36525897494E+02  0.57689312157E+02  0.51100000000E-03 0. -1.
         23    2    1    0    0    0 -0.11279896190E+02  0.17482483496E+02 -0.20205794419E+02  0.96087458468E+02  0.91605961921E+02 0.  0.
         11    1    3    3    0    0  0.32921569273E+02  0.11146396369E+02  0.16320103075E+02  0.38398146310E+02  0.51100000000E-03 0.  1.
         22    1    1    0    0    0  0.11279896190E+02 -0.17482483496E+02  0.20205794419E+02  0.29002541532E+02  0.00000000000E+00 0.  1.
</event>
<event>
 5    1  0.1055265E-009  0.9118800E+02  0.7815553E-02  0.1125453E+00
         25   -1    0    0    0    0  0.00000000000E+00  0.00000000000E+00  0.99999998245E-14  0.12509000000E+03  0.12509000000E+03 0.  0.
        -11    1    3    3    0    0  0.55759725657E+01  0.13056984213E+02 -0.52907717460E+02  0.54779584462E+02  0.51100000000E-03 0.  1.
         23    2    1    0    0    0 -0.18387279478E+02 -0.11903071785E+01 -0.20703031030E+02  0.97374943233E+02  0.93347497010E+02 0.  0.
         11    1    3    3    0    0 -0.23963252043E+02 -0.14247291391E+02  0.32204686430E+02  0.42595358771E+02  0.51100000000E-03 0. -1.
         22    1    1    0    0    0  0.18387279478E+02  0.11903071785E+01  0.20703031030E+02  0.27715056767E+02  0.00000000000E+00 0.  1.
</event>
<event>
 5    1  0.1055265E-009  0.9118800E+02  0.7815553E-02  0.1125453E+00
         25   -1    0    0    0    0  0.00000000000E+00  0.00000000000E+00  0.99999998245E-14  0.12509000000E+03  0.12509000000E+03 0.  0.
        -11    1    3    3    0    0 -0.20241347538E+02 -0.55060395192E+02  0.18853033467E+02  0.61618147814E+02  0.51100000000E-03 0.  1.
         23    2    1    0    0    0 -0.16084803247E+02 -0.23448680176E+02  0.58063088962E+01  0.96068030382E+02  0.91579428591E+02 0.  0.
         11    1    3    3    0    0  0.41565442904E+01  0.31611715016E+02 -0.13046724571E+02  0.34449882569E+02  0.51100000000E-03 0. -1.
         22    1    1    0    0    0  0.16084803247E+02  0.23448680176E+02 -0.58063088962E+01  0.29021969618E+02  0.00000000000E+00 0.  1.
</event>
<event>
 5    1  0.1055265E-009  0.9118800E+02  0.7815553E-02  0.1125453E+00
         25   -1    0    0    0    0  0.00000000000E+00  0.00000000000E+00  0.99999998245E-14  0.12509000000E+03  0.12509000000E+03 0.  0.
        -11    1    3    3    0    0 -0.44068357300E+02 -0.73616639603E+00 -0.37970975765E+01  0.44237766742E+02  0.51100000000E-03 0.  1.
         23    2    1    0    0    0 -0.12449827636E+02 -0.33146914252E+02  0.75408470757E-01  0.89682065593E+02  0.82396304953E+02 0.  0.
         11    1    3    3    0    0  0.31618529664E+02 -0.32410747855E+02  0.38725060473E+01  0.45444298850E+02  0.51100000000E-03 0. -1.
         22    1    1    0    0    0  0.12449827636E+02  0.33146914252E+02 -0.75408470757E-01  0.35407934407E+02  0.00000000000E+00 0. -1.
</event>
<event>
 5    1  0.1055265E-009  0.9118800E+02  0.7815553E-02  0.1125453E+00
         25   -1    0    0    0    0  0.00000000000E+00  0.00000000000E+00  0.99999998245E-14  0.12509000000E+03  0.12509000000E+03 0.  0.
        -11    1    3    3    0    0  0.28316606176E+02  0.25482709498E+02  0.13704360747E+02  0.40484665892E+02  0.51100000000E-03 0.  1.
         23    2    1    0    0    0 -0.58119558037E+01 -0.16309910789E+02  0.24080881817E+02  0.95430585149E+02  0.90704551665E+02 0.  0.
         11    1    3    3    0    0 -0.34128561980E+02 -0.41792620287E+02  0.10376521069E+02  0.54945919257E+02  0.51100000000E-03 0. -1.
         22    1    1    0    0    0  0.58119558037E+01  0.16309910789E+02 -0.24080881817E+02  0.29659414851E+02  0.00000000000E+00 0. -1.
</event>
<event>
 5    1  0.1055265E-009  0.9118800E+02  0.7815553E-02  0.1125453E+00
         25   -1    0    0    0    0  0.00000000000E+00  0.00000000000E+00  0.99999998245E-14  0.12509000000E+03  0.12509000000E+03 0.  0.
        -11    1    3    3    0    0 -0.30383837967E+02  0.15554333776E+02 -0.40661039784E+02  0.53088935433E+02  0.51100000000E-03 0.  1.
         23    2    1    0    0    0  0.83735267417E+01  0.40523985611E+01 -0.28202152634E+02  0.95393210655E+02  0.90652994113E+02 0.  0.
         11    1    3    3    0    0  0.38757364708E+02 -0.11501935214E+02  0.12458887150E+02  0.42304275222E+02  0.51100000000E-03 0. -1.
         22    1    1    0    0    0 -0.83735267417E+01 -0.40523985611E+01  0.28202152634E+02  0.29696789345E+02  0.00000000000E+00 0. -1.
</event>
<event>
 5    1  0.1055265E-009  0.9118800E+02  0.7815553E-02  0.1125453E+00
         25   -1    0    0    0    0  0.00000000000E+00  0.00000000000E+00  0.99999998245E-14  0.12509000000E+03  0.12509000000E+03 0.  0.
        -11    1    3    3    0    0  0.45300946333E+02 -0.27407148669E+01 -0.73792281953E+01  0.45979781053E+02  0.51100000000E-03 0.  1.
         23    2    1    0    0    0  0.21268510644E+01 -0.99320136699E+01 -0.28685671051E+02  0.94659158496E+02  0.89634369371E+02 0.  0.
         11    1    3    3    0    0 -0.43174095269E+02 -0.71912988030E+01 -0.21306442856E+02  0.48679377443E+02  0.51100000000E-03 0. -1.
         22    1    1    0    0    0 -0.21268510644E+01  0.99320136699E+01  0.28685671051E+02  0.30430841504E+02  0.00000000000E+00 0.  1.
</event>
<event>
 5    1  0.1055265E-009  0.9118800E+02  0.7815553E-02  0.1125453E+00
         25   -1    0    0    0    0  0.00000000000E+00  0.00000000000E+00  0.99999998245E-14  0.12509000000E+03  0.12509000000E+03 0.  0.
        -11    1    3    3    0    0  0.27739706825E+01  0.48029568647E+02  0.37465945497E+02  0.60977302745E+02  0.51100000000E-03 0. -1.
         23    2    1    0    0    0 -0.38714059549E+01  0.16754773262E+02  0.23749995530E+02  0.95768122523E+02  0.91168858679E+02 0.  0.
         11    1    3    3    0    0 -0.66453766374E+01 -0.31274795386E+02 -0.13715949967E+02  0.34790819778E+02  0.51100000000E-03 0.  1.
         22    1    1    0    0    0  0.38714059549E+01 -0.16754773262E+02 -0.23749995530E+02  0.29321877477E+02  0.00000000000E+00 0. -1.
</event>
<event>
 5    1  0.1055265E-009  0.9118800E+02  0.7815553E-02  0.1125453E+00
         25   -1    0    0    0    0  0.00000000000E+00  0.00000000000E+00  0.99999998245E-14  0.12509000000E+03  0.12509000000E+03 0.  0.
        -11    1    3    3    0    0  0.43994603971E+02  0.38575534056E+02  0.13602306081E+02  0.60071788198E+02  0.51100000000E-03 0.  1.
         23    2    1    0    0    0  0.14120506789E+02  0.23915477451E+02 -0.28080642769E+01  0.97175416022E+02  0.93079737217E+02 0.  0.
         11    1    3    3    0    0 -0.29874097183E+02 -0.14660056605E+02 -0.16410370358E+02  0.37103627824E+02  0.51100000000E-03 0. -1.
         22    1    1    0    0    0 -0.14120506789E+02 -0.23915477451E+02  0.28080642769E+01  0.27914583978E+02  0.00000000000E+00 0.  1.
</event>
<event>
 5    1  0.1055265E-009  0.9118800E+02  0.7815553E-02  0.1125453E+00
         25   -1    0    0    0    0  0.00000000000E+00  0.00000000000E+00  0.99999998245E-14  0.12509000000E+03  0.12509000000E+03 0.  0.
        -11    1    3    3    0    0  0.48377691536E+01 -0.44123391023E+02 -0.90162011091E+01  0.45294254917E+02  0.51100000000E-03 0.  1.
         23    2    1    0    0    0  0.18620925790E+02 -0.48519539124E+01  0.20998570462E+02  0.96608070720E+02  0.92314132357E+02 0.  0.
         11    1    3    3    0    0  0.13783156636E+02  0.39271437111E+02  0.30014771571E+02  0.51313815804E+02  0.51100000000E-03 0. -1.
         22    1    1    0    0    0 -0.18620925790E+02  0.48519539124E+01 -0.20998570462E+02  0.28481929280E+02  0.00000000000E+00 0. -1.
</event>
<event>
 5    1  0.1055265E-009  0.9118800E+02  0.7815553E-02  0.1125453E+00
         25   -1    0    0    0    0  0.00000000000E+00  0.00000000000E+00  0.99999998245E-14  0.12509000000E+03  0.12509000000E+03 0.  0.
        -11    1    3    3    0    0  0.15004633631E+02 -0.26342780179E+02 -0.15850205311E+02  0.34209795478E+02  0.51100000000E-03 0.  1.
         23    2    1    0    0    0 -0.60845148026E+01  0.27636365764E+02  0.60320538525E+01  0.96156011220E+02  0.91699524464E+02 0.  0.
         11    1    3    3    0    0 -0.21089148434E+02  0.53979145943E+02  0.21882259164E+02  0.61946215742E+02  0.51100000000E-03 0. -1.
         22    1    1    0    0    0  0.60845148026E+01 -0.27636365764E+02 -0.60320538525E+01  0.28933988780E+02  0.00000000000E+00 0. -1.
</event>
<event>
 5    1  0.1055265E-009  0.9118800E+02  0.7815553E-02  0.1125453E+00
         25   -1    0    0    0    0  0.00000000000E+00  0.00000000000E+00  0.99999998245E-14  0.12509000000E+03  0.12509000000E+03 0.  0.
        -11    1    3    3    0    0 -0.29204211526E+02  0.33931419550E+02  0.42335502155E+02  0.61615922833E+02  0.51100000000E-03 0.  1.
         23    2    1    0    0    0 -0.76409148157E+01  0.20414477571E+02  0.18136862396E+02  0.96733691156E+02  0.92484197317E+02 0.  0.
         11    1    3    3    0    0  0.21563296711E+02 -0.13516941979E+02 -0.24198639759E+02  0.35117768323E+02  0.51100000000E-03 0. -1.
         22    1    1    0    0    0  0.76409148157E+01 -0.20414477571E+02 -0.18136862396E+02  0.28356308844E+02  0.00000000000E+00 0.  1.
</event>
<event>
 5    1  0.1055265E-009  0.9118800E+02  0.7815553E-02  0.1125453E+00
         25   -1    0    0    0    0  0.00000000000E+00  0.00000000000E+00  0.99999998245E-14  0.12509000000E+03  0.12509000000E+03 0.  0.
        -11    1    3    3    0    0 -0.11813955513E+02  0.30148476082E+02  0.94599840778E+01  0.33734128919E+02  0.51100000000E-03 0.  1.
         23    2    1    0    0    0  0.78152646101E+01 -0.28166212146E+02  0.10020246926E+01  0.95842471539E+02  0.91270813679E+02 0.  0.
         11    1    3    3    0    0  0.19629220123E+02 -0.58314688228E+02 -0.84579593852E+01  0.62108342620E+02  0.51100000000E-03 0. -1.
         22    1    1    0    0    0 -0.78152646101E+01  0.28166212146E+02 -0.10020246926E+01  0.29247528461E+02  0.00000000000E+00 0. -1.
</event>
<event>
 5    1  0.1055265E-009  0.9118800E+02  0.7815553E-02  0.1125453E+00
         25   -1    0    0    0    0  0.00000000000E+00  0.00000000000E+00  0.99999998245E-14  0.12509000000E+03  0.12509000000E+03 0.  0.
        -11    1    3    3    0    0  0.27253421058E+02  0.47135064688E+02  0.50675432614E+01  0.54682202566E+02  0.51100000000E-03 0. -1.
         23    2    1    0    0    0 -0.59799753080E+00  0.25836185715E+02 -0.15128097952E+02  0.95144625717E+02  0.90309325996E+02 0.  0.
         11    1    3    3    0    0 -0.27851418589E+02 -0.21298878974E+02 -0.20195641213E+02  0.40462423150E+02  0.51100000000E-03 0.  1.
         22    1    1    0    0    0  0.59799753080E+00 -0.25836185715E+02  0.15128097952E+02  0.29945374283E+02  0.00000000000E+00 0. -1.
</event>
<event>
 5    1  0.1055265E-009  0.9118800E+02  0.7815553E-02  0.1125453E+00
         25   -1    0    0    0    0  0.00000000000E+00  0.00000000000E+00  0.99999998245E-14  0.12509000000E+03  0.12509000000E+03 0.  0.
        -11    1    3    3    0    0 -0.93568626515E+01 -0.42753244180E+01 -0.58074515693E+02  0.58978628763E+02  0.51100000000E-03 0.  1.
         23    2    1    0    0    0  0.10424197332E+02  0.40431929655E+00 -0.27343797162E+02  0.95823797524E+02  0.91245216667E+02 0.  0.
         11    1    3    3    0    0  0.19781059984E+02  0.46796437145E+01  0.30730718531E+02  0.36845168761E+02  0.51100000000E-03 0. -1.
         22    1    1    0    0    0 -0.10424197332E+02 -0.40431929655E+00  0.27343797162E+02  0.29266202476E+02  0.00000000000E+00 0.  1.
</event>
<event>
 5    1  0.1055265E-009  0.9118800E+02  0.7815553E-02  0.1125453E+00
         25   -1    0    0    0    0  0.00000000000E+00  0.00000000000E+00  0.99999998245E-14  0.12509000000E+03  0.12509000000E+03 0.  0.
        -11    1    3    3    0    0 -0.23233297096E+02 -0.67360563392E+01  0.54725807428E+02  0.59833724169E+02  0.51100000000E-03 0. -1.
         23    2    1    0    0    0 -0.23315004154E+02 -0.58963880456E-01  0.22695619141E+02  0.92552575031E+02  0.86644648543E+02 0.  0.
         11    1    3    3    0    0 -0.81707057395E-01  0.66770924587E+01 -0.32030188287E+02  0.32718850862E+02  0.51100000000E-03 0.  1.
         22    1    1    0    0    0  0.23315004154E+02  0.58963880456E-01 -0.22695619141E+02  0.32537424969E+02  0.00000000000E+00 0. -1.
</event>
<event>
 5    1  0.1055265E-009  0.9118800E+02  0.7815553E-02  0.1125453E+00
         25   -1    0    0    0    0  0.00000000000E+00  0.00000000000E+00  0.99999998245E-14  0.12509000000E+03  0.12509000000E+03 0.  0.
        -11    1    3    3    0    0  0.18133336372E+02  0.19895392298E+02 -0.24461440287E+02  0.36373157463E+02  0.51100000000E-03 0.  1.
         23    2    1    0    0    0 -0.14571727750E+02  0.19296570921E+02  0.21464350171E+02  0.92757180340E+02  0.86939538056E+02 0.  0.
         11    1    3    3    0    0 -0.32705064122E+02 -0.59882137737E+00  0.45925790458E+02  0.56384022876E+02  0.51100000000E-03 0. -1.
         22    1    1    0    0    0  0.14571727750E+02 -0.19296570921E+02 -0.21464350171E+02  0.32332819660E+02  0.00000000000E+00 0. -1.
</event>
<event>
 5    1  0.1055265E-009  0.9118800E+02  0.7815553E-02  0.1125453E+00
         25   -1    0    0    0    0  0.00000000000E+00  0.00000000000E+00  0.99999998245E-14  0.12509000000E+03  0.12509000000E+03 0.  0.
        -11    1    3    3    0    0  0.17790961152E+02  0.47555607377E+02  0.35856086667E+02  0.62158772857E+02  0.51100000000E-03 0. -1.
         23    2    1    0    0    0  0.43156850192E+01  0.14419164361E+02  0.16208413578E+02  0.10297100118E+03  0.10056727587E+03 0.  0.
         11    1    3    3    0    0 -0.13475276133E+02 -0.33136443017E+02 -0.19647673089E+02  0.40812228324E+02  0.51100000000E-03 0.  1.
         22    1    1    0    0    0 -0.43156850192E+01 -0.14419164361E+02 -0.16208413578E+02  0.22118998819E+02  0.00000000000E+00 0. -1.
</event>
<event>
 5    1  0.1055265E-009  0.9118800E+02  0.7815553E-02  0.1125453E+00
         25   -1    0    0    0    0  0.00000000000E+00  0.00000000000E+00  0.99999998245E-14  0.12509000000E+03  0.12509000000E+03 0.  0.
        -11    1    3    3    0    0 -0.30884092820E+02 -0.21325047621E+02  0.62166460805E+01  0.38042496423E+02  0.51100000000E-03 0. -1.
         23    2    1    0    0    0  0.46616943023E+01  0.24356074279E+01 -0.30340887623E+02  0.94296607218E+02  0.89126971752E+02 0.  0.
         11    1    3    3    0    0  0.35545787123E+02  0.23760655049E+02 -0.36557533703E+02  0.56254110794E+02  0.51100000000E-03 0.  1.
         22    1    1    0    0    0 -0.46616943023E+01 -0.24356074279E+01  0.30340887623E+02  0.30793392782E+02  0.00000000000E+00 0.  1.
</event>
<event>
 5    1  0.1055265E-009  0.9118800E+02  0.7815553E-02  0.1125453E+00
         25   -1    0    0    0    0  0.00000000000E+00  0.00000000000E+00  0.99999998245E-14  0.12509000000E+03  0.12509000000E+03 0.  0.
        -11    1    3    3    0    0 -0.31821932731E+02 -0.14566607140E+02 -0.66324044986E+01  0.35620362660E+02  0.51100000000E-03 0. -1.
         23    2    1    0    0    0  0.83710644676E+01  0.27104353096E+02  0.85277999385E+01  0.95468317927E+02  0.90756573750E+02 0.  0.
         11    1    3    3    0    0  0.40192997199E+02  0.41670960236E+02  0.15160204437E+02  0.59847955267E+02  0.51100000000E-03 0.  1.
         22    1    1    0    0    0 -0.83710644676E+01 -0.27104353096E+02 -0.85277999385E+01  0.29621682073E+02  0.00000000000E+00 0.  1.
</event>
<event>
 5    1  0.1055265E-009  0.9118800E+02  0.7815553E-02  0.1125453E+00
         25   -1    0    0    0    0  0.00000000000E+00  0.00000000000E+00  0.99999998245E-14  0.12509000000E+03  0.12509000000E+03 0.  0.
        -11    1    3    3    0    0 -0.51594271554E+02  0.28381489092E+02  0.51823721661E+00  0.58887573820E+02  0.51100000000E-03 0.  1.
         23    2    1    0    0    0 -0.35092036350E+02  0.30107413534E+02 -0.89543846286E+01  0.77993414466E+02  0.62168193886E+02 0.  0.
         11    1    3    3    0    0  0.16502235204E+02  0.17259244418E+01 -0.94726218452E+01  0.19105840646E+02  0.51100000000E-03 0. -1.
         22    1    1    0    0    0  0.35092036350E+02 -0.30107413534E+02  0.89543846286E+01  0.47096585534E+02  0.00000000000E+00 0.  1.
</event>
<event>
 5    1  0.1055265E-009  0.9118800E+02  0.7815553E-02  0.1125453E+00
         25   -1    0    0    0    0  0.00000000000E+00  0.00000000000E+00  0.99999998245E-14  0.12509000000E+03  0.12509000000E+03 0.  0.
        -11    1    3    3    0    0  0.51011525409E+02  0.10935873896E+02  0.17515520888E+02  0.55032377149E+02  0.51100000000E-03 0.  1.
         23    2    1    0    0    0  0.17202245997E+02  0.24638164793E+02  0.11412063243E+01  0.95019104044E+02  0.90135294695E+02 0.  0.
         11    1    3    3    0    0 -0.33809279411E+02  0.13702290897E+02 -0.16374314563E+02  0.39986726896E+02  0.51100000000E-03 0. -1.
         22    1    1    0    0    0 -0.17202245997E+02 -0.24638164793E+02 -0.11412063243E+01  0.30070895956E+02  0.00000000000E+00 0.  1.
</event>
<event>
 5    1  0.1055265E-009  0.9118800E+02  0.7815553E-02  0.1125453E+00
         25   -1    0    0    0    0  0.00000000000E+00  0.00000000000E+00  0.99999998245E-14  0.12509000000E+03  0.12509000000E+03 0.  0.
        -11    1    3    3    0    0 -0.14133496866E+02 -0.32072633412E+02 -0.27654430659E+02  0.44645011849E+02  0.51100000000E-03 0.  1.
         23    2    1    0    0    0  0.10618595969E+01 -0.23641614705E+02  0.19198300906E+02  0.94616597674E+02  0.89574953564E+02 0.  0.
         11    1    3    3    0    0  0.15195356463E+02  0.84310187072E+01  0.46852731565E+02  0.49971585825E+02  0.51100000000E-03 0. -1.
         22    1    1    0    0    0 -0.10618595969E+01  0.23641614705E+02 -0.19198300906E+02  0.30473402326E+02  0.00000000000E+00 0. -1.
</event>
<event>
 5    1  0.1055265E-009  0.9118800E+02  0.7815553E-02  0.1125453E+00
         25   -1    0    0    0    0  0.00000000000E+00  0.00000000000E+00  0.99999998245E-14  0.12509000000E+03  0.12509000000E+03 0.  0.
        -11    1    3    3    0    0  0.11558234832E+02 -0.67684692042E+01 -0.24370366989E+02  0.27808627352E+02  0.51100000000E-03 0.  1.
         23    2    1    0    0    0 -0.15568648280E+02  0.72319612800E+01  0.30208613847E+02  0.90344576937E+02  0.83396032029E+02 0.  0.
         11    1    3    3    0    0 -0.27126883112E+02  0.14000430484E+02  0.54578980836E+02  0.62535949585E+02  0.51100000000E-03 0. -1.
         22    1    1    0    0    0  0.15568648280E+02 -0.72319612800E+01 -0.30208613847E+02  0.34745423063E+02  0.00000000000E+00 0. -1.
</event>
<event>
 5    1  0.1055265E-009  0.9118800E+02  0.7815553E-02  0.1125453E+00
         25   -1    0    0    0    0  0.00000000000E+00  0.00000000000E+00  0.99999998245E-14  0.12509000000E+03  0.12509000000E+03 0.  0.
        -11    1    3    3    0    0 -0.40812679746E+02  0.20801386407E+01  0.29413144735E+02  0.50350123022E+02  0.51100000000E-03 0. -1.
         23    2    1    0    0    0 -0.26596199067E+02  0.11047920270E+02 -0.11110607226E+02  0.94221570496E+02  0.89021595171E+02 0.  0.
         11    1    3    3    0    0  0.14216480679E+02  0.89677816291E+01 -0.40523751961E+02  0.43871447475E+02  0.51100000000E-03 0.  1.
         22    1    1    0    0    0  0.26596199067E+02 -0.11047920270E+02  0.11110607226E+02  0.30868429504E+02  0.00000000000E+00 0. -1.
</event>
<event>
 5    1  0.1055265E-009  0.9118800E+02  0.7815553E-02  0.1125453E+00
         25   -1    0    0    0    0  0.00000000000E+00  0.00000000000E+00  0.99999998245E-14  0.12509000000E+03  0.12509000000E+03 0.  0.
        -11    1    3    3    0    0 -0.30293492345E+02 -0.14749053266E+00  0.14284733319E+02  0.33492850553E+02  0.51100000000E-03 0. -1.
         23    2    1    0    0    0  0.19040849439E+02  0.36787091340E+00 -0.22923558403E+02  0.95287671128E+02  0.90507245361E+02 0.  0.
         11    1    3    3    0    0  0.49334341784E+02  0.51536144606E+00 -0.37208291722E+02  0.61794820574E+02  0.51100000000E-03 0.  1.
         22    1    1    0    0    0 -0.19040849439E+02 -0.36787091340E+00  0.22923558403E+02  0.29802328872E+02  0.00000000000E+00 0.  1.
</event>
<event>
 5    1  0.1055265E-009  0.9118800E+02  0.7815553E-02  0.1125453E+00
         25   -1    0    0    0    0  0.00000000000E+00  0.00000000000E+00  0.99999998245E-14  0.12509000000E+03  0.12509000000E+03 0.  0.
        -11    1    3    3    0    0  0.39492943234E+01 -0.27763077998E+02  0.13343052070E+02  0.31055151979E+02  0.51100000000E-03 0.  1.
         23    2    1    0    0    0  0.20989437461E+02  0.22979060239E+02  0.24192849220E+02  0.85670618374E+02  0.76062916094E+02 0.  0.
         11    1    3    3    0    0  0.17040143138E+02  0.50742138238E+02  0.10849797150E+02  0.54615466395E+02  0.51100000000E-03 0. -1.
         22    1    1    0    0    0 -0.20989437461E+02 -0.22979060239E+02 -0.24192849220E+02  0.39419381626E+02  0.00000000000E+00 0. -1.
</event>
<event>
 5    1  0.1055265E-009  0.9118800E+02  0.7815553E-02  0.1125453E+00
         25   -1    0    0    0    0  0.00000000000E+00  0.00000000000E+00  0.99999998245E-14  0.12509000000E+03  0.12509000000E+03 0.  0.
        -11    1    3    3    0    0 -0.39793262838E+02  0.31053340015E+02  0.20838946637E+02  0.54608382054E+02  0.51100000000E-03 0.  1.
         23    2    1    0    0    0 -0.25445715167E+02  0.11322185495E+02 -0.11364804851E+02  0.95009523041E+02  0.90121997173E+02 0.  0.
         11    1    3    3    0    0  0.14347547671E+02 -0.19731154520E+02 -0.32203751488E+02  0.40401140987E+02  0.51100000000E-03 0. -1.
         22    1    1    0    0    0  0.25445715167E+02 -0.11322185495E+02  0.11364804851E+02  0.30080476959E+02  0.00000000000E+00 0. -1.
</event>
<event>
 5    1  0.1055265E-009  0.9118800E+02  0.7815553E-02  0.1125453E+00
         25   -1    0    0    0    0  0.00000000000E+00  0.00000000000E+00  0.99999998245E-14  0.12509000000E+03  0.12509000000E+03 0.  0.
        -11    1    3    3    0    0 -0.54478625592E+02  0.16440893696E+02  0.14141255873E+02  0.58636155653E+02  0.51100000000E-03 0.  1.
         23    2    1    0    0    0 -0.24047719980E+02 -0.13056628853E+01  0.19284641077E+02  0.94237204774E+02  0.89043561196E+02 0.  0.
         11    1    3    3    0    0  0.30430905612E+02 -0.17746556581E+02  0.51433852041E+01  0.35601049121E+02  0.51100000000E-03 0. -1.
         22    1    1    0    0    0  0.24047719980E+02  0.13056628853E+01 -0.19284641077E+02  0.30852795226E+02  0.00000000000E+00 0.  1.
</event>
<event>
 5    1  0.1055265E-009  0.9118800E+02  0.7815553E-02  0.1125453E+00
         25   -1    0    0    0    0  0.00000000000E+00  0.00000000000E+00  0.99999998245E-14  0.12509000000E+03  0.12509000000E+03 0.  0.
        -11    1    3    3    0    0  0.38643361177E+02  0.72837039737E+01  0.22745236734E+02  0.45428047515E+02  0.51100000000E-03 0.  1.
         23    2    1    0    0    0 -0.11247161201E+02  0.81168746994E+01  0.26200084469E+02  0.95444988343E+02  0.90724412831E+02 0.  0.
         11    1    3    3    0    0 -0.49890522378E+02  0.83317072570E+00  0.34548477358E+01  0.50016940828E+02  0.51100000000E-03 0. -1.
         22    1    1    0    0    0  0.11247161201E+02 -0.81168746994E+01 -0.26200084469E+02  0.29645011657E+02  0.00000000000E+00 0. -1.
</event>
<event>
 5    1  0.1055265E-009  0.9118800E+02  0.7815553E-02  0.1125453E+00
         25   -1    0    0    0    0  0.00000000000E+00  0.00000000000E+00  0.99999998245E-14  0.12509000000E+03  0.12509000000E+03 0.  0.
        -11    1    3    3    0    0  0.37416059456E+02  0.31789294951E+02  0.18882178581E+02  0.52602827367E+02  0.51100000000E-03 0.  1.
         23    2    1    0    0    0  0.24647248079E+02 -0.42716324487E+01 -0.73855106068E+01  0.99007832748E+02  0.95510583167E+02 0.  0.
         11    1    3    3    0    0 -0.12768811378E+02 -0.36060927400E+02 -0.26267689188E+02  0.46405005381E+02  0.51100000000E-03 0. -1.
         22    1    1    0    0    0 -0.24647248079E+02  0.42716324487E+01  0.73855106068E+01  0.26082167252E+02  0.00000000000E+00 0. -1.
</event>
<event>
 5    1  0.1055265E-009  0.9118800E+02  0.7815553E-02  0.1125453E+00
         25   -1    0    0    0    0  0.00000000000E+00  0.00000000000E+00  0.99999998245E-14  0.12509000000E+03  0.12509000000E+03 0.  0.
        -11    1    3    3    0    0  0.18512590587E+02  0.12715830478E+02  0.31309921469E+02  0.38532058570E+02  0.51100000000E-03 0. -1.
         23    2    1    0    0    0 -0.16332771492E+02 -0.23733617494E+02  0.36404172255E+01  0.96050429385E+02  0.91555383913E+02 0.  0.
         11    1    3    3    0    0 -0.34845362079E+02 -0.36449447971E+02 -0.27669504243E+02  0.57518370815E+02  0.51100000000E-03 0.  1.
         22    1    1    0    0    0  0.16332771492E+02  0.23733617494E+02 -0.36404172255E+01  0.29039570615E+02  0.00000000000E+00 0.  1.
</event>
<event>
 5    1  0.1055265E-009  0.9118800E+02  0.7815553E-02  0.1125453E+00
         25   -1    0    0    0    0  0.00000000000E+00  0.00000000000E+00  0.99999998245E-14  0.12509000000E+03  0.12509000000E+03 0.  0.
        -11    1    3    3    0    0 -0.11639292708E+02 -0.53882305993E+02  0.18742354501E+02  0.58224152088E+02  0.51100000000E-03 0.  1.
         23    2    1    0    0    0 -0.16113650136E+02 -0.22687265831E+02 -0.38466590952E+01  0.96998034284E+02  0.92841047588E+02 0.  0.
         11    1    3    3    0    0 -0.44743574275E+01  0.31195040162E+02 -0.22589013596E+02  0.38773882196E+02  0.51100000000E-03 0. -1.
         22    1    1    0    0    0  0.16113650136E+02  0.22687265831E+02  0.38466590952E+01  0.28091965716E+02  0.00000000000E+00 0.  1.
</event>
<event>
 5    1  0.1055265E-009  0.9118800E+02  0.7815553E-02  0.1125453E+00
         25   -1    0    0    0    0  0.00000000000E+00  0.00000000000E+00  0.99999998245E-14  0.12509000000E+03  0.12509000000E+03 0.  0.
        -11    1    3    3    0    0 -0.16201692390E+02  0.10858705113E+02  0.53612754009E+02  0.57050273494E+02  0.51100000000E-03 0.  1.
         23    2    1    0    0    0  0.10726407458E+02  0.92505276546E+01  0.24870385019E+02  0.96468956521E+02  0.92125433200E+02 0.  0.
         11    1    3    3    0    0  0.26928099848E+02 -0.16081774583E+01 -0.28742368990E+02  0.39418683027E+02  0.51100000000E-03 0. -1.
         22    1    1    0    0    0 -0.10726407458E+02 -0.92505276546E+01 -0.24870385019E+02  0.28621043479E+02  0.00000000000E+00 0.  1.
</event>
<event>
 5    1  0.1055265E-009  0.9118800E+02  0.7815553E-02  0.1125453E+00
         25   -1    0    0    0    0  0.00000000000E+00  0.00000000000E+00  0.99999998245E-14  0.12509000000E+03  0.12509000000E+03 0.  0.
        -11    1    3    3    0    0 -0.45623862126E+02 -0.31129838377E+02  0.37723594948E+01  0.55360945883E+02  0.51100000000E-03 0.  1.
         23    2    1    0    0    0 -0.14094460342E+02 -0.64140066797E+01 -0.18313092830E+02  0.10110745086E+03  0.98221962703E+02 0.  0.
         11    1    3    3    0    0  0.31529401783E+02  0.24715831698E+02 -0.22085452325E+02  0.45746504981E+02  0.51100000000E-03 0. -1.
         22    1    1    0    0    0  0.14094460342E+02  0.64140066797E+01  0.18313092830E+02  0.23982549136E+02  0.00000000000E+00 0. -1.
</event>
<event>
 5    1  0.1055265E-009  0.9118800E+02  0.7815553E-02  0.1125453E+00
         25   -1    0    0    0    0  0.00000000000E+00  0.00000000000E+00  0.99999998245E-14  0.12509000000E+03  0.12509000000E+03 0.  0.
        -11    1    3    3    0    0 -0.15682227203E+02 -0.36263477173E+02 -0.47817972027E+02  0.62028465044E+02  0.51100000000E-03 0. -1.
         23    2    1    0    0    0 -0.10301213237E+02 -0.12643494997E+02 -0.24540660007E+02  0.95624478565E+02  0.90971555704E+02 0.  0.
         11    1    3    3    0    0  0.53810139651E+01  0.23619982176E+02  0.23277312021E+02  0.33596013520E+02  0.51100000000E-03 0.  1.
         22    1    1    0    0    0  0.10301213237E+02  0.12643494997E+02  0.24540660007E+02  0.29465521435E+02  0.00000000000E+00 0. -1.
</event>
<event>
 5    1  0.1055265E-009  0.9118800E+02  0.7815553E-02  0.1125453E+00
         25   -1    0    0    0    0  0.00000000000E+00  0.00000000000E+00  0.99999998245E-14  0.12509000000E+03  0.12509000000E+03 0.  0.
        -11    1    3    3    0    0  0.83678344147E-01  0.37598842447E+02 -0.16154568511E+02  0.40922488188E+02  0.51100000000E-03 0. -1.
         23    2    1    0    0    0  0.29108108257E+02 -0.63470387839E+01 -0.82401194178E+01  0.94179379889E+02  0.88962290666E+02 0.  0.
         11    1    3    3    0    0  0.29024429913E+02 -0.43945881231E+02  0.79144490936E+01  0.53256891701E+02  0.51100000000E-03 0.  1.
         22    1    1    0    0    0 -0.29108108257E+02  0.63470387839E+01  0.82401194178E+01  0.30910620111E+02  0.00000000000E+00 0.  1.
</event>
<event>
 5    1  0.1055265E-009  0.9118800E+02  0.7815553E-02  0.1125453E+00
         25   -1    0    0    0    0  0.00000000000E+00  0.00000000000E+00  0.99999998245E-14  0.12509000000E+03  0.12509000000E+03 0.  0.
        -11    1    3    3    0    0  0.35395111195E+02 -0.23735815471E+02 -0.23260069843E+02  0.48551350980E+02  0.51100000000E-03 0.  1.
         23    2    1    0    0    0 -0.90817508168E+01 -0.26689784197E+02 -0.11423047848E+02  0.94671111123E+02  0.89651048409E+02 0.  0.
         11    1    3    3    0    0 -0.44476862012E+02 -0.29539687256E+01  0.11837021995E+02  0.46119760143E+02  0.51100000000E-03 0. -1.
         22    1    1    0    0    0  0.90817508168E+01  0.26689784197E+02  0.11423047848E+02  0.30418888877E+02  0.00000000000E+00 0.  1.
</event>
<event>
 5    1  0.1055265E-009  0.9118800E+02  0.7815553E-02  0.1125453E+00
         25   -1    0    0    0    0  0.00000000000E+00  0.00000000000E+00  0.99999998245E-14  0.12509000000E+03  0.12509000000E+03 0.  0.
        -11    1    3    3    0    0 -0.12598862702E+02  0.40635045641E+02 -0.16006312138E+02  0.45454816072E+02  0.51100000000E-03 0.  1.
         23    2    1    0    0    0  0.15367002663E+02 -0.68138133547E+00 -0.24596033148E+02  0.96080106895E+02  0.91595922633E+02 0.  0.
         11    1    3    3    0    0  0.27965865364E+02 -0.41316426976E+02 -0.85897210101E+01  0.50625290823E+02  0.51100000000E-03 0. -1.
         22    1    1    0    0    0 -0.15367002663E+02  0.68138133547E+00  0.24596033148E+02  0.29009893105E+02  0.00000000000E+00 0. -1.
</event>
<event>
 5    1  0.1055265E-009  0.9118800E+02  0.7815553E-02  0.1125453E+00
         25   -1    0    0    0    0  0.00000000000E+00  0.00000000000E+00  0.99999998245E-14  0.12509000000E+03  0.12509000000E+03 0.  0.
        -11    1    3    3    0    0  0.23498422919E+02 -0.15283568732E+02  0.49100027002E+02  0.56538270267E+02  0.51100000000E-03 0.  1.
         23    2    1    0    0    0  0.25344586380E+02 -0.66717187231E+01  0.93317173109E+01  0.97270207811E+02  0.93207040990E+02 0.  0.
         11    1    3    3    0    0  0.18461634608E+01  0.86118500087E+01 -0.39768309692E+02  0.40731937544E+02  0.51100000000E-03 0. -1.
         22    1    1    0    0    0 -0.25344586380E+02  0.66717187231E+01 -0.93317173109E+01  0.27819792189E+02  0.00000000000E+00 0. -1.
</event>
<event>
 5    1  0.1055265E-009  0.9118800E+02  0.7815553E-02  0.1125453E+00
         25   -1    0    0    0    0  0.00000000000E+00  0.00000000000E+00  0.99999998245E-14  0.12509000000E+03  0.12509000000E+03 0.  0.
        -11    1    3    3    0    0 -0.48431248569E+02 -0.33796671548E+02  0.42754328185E+01  0.59212162363E+02  0.51100000000E-03 0.  1.
         23    2    1    0    0    0 -0.28476037922E+02 -0.26215458490E+01  0.38993195215E+01  0.96228920132E+02  0.91798927765E+02 0.  0.
         11    1    3    3    0    0  0.19955210647E+02  0.31175125699E+02 -0.37611329705E+00  0.37016757769E+02  0.51100000000E-03 0. -1.
         22    1    1    0    0    0  0.28476037922E+02  0.26215458490E+01 -0.38993195215E+01  0.28861079868E+02  0.00000000000E+00 0.  1.
</event>
<event>
 5    1  0.1055265E-009  0.9118800E+02  0.7815553E-02  0.1125453E+00
         25   -1    0    0    0    0  0.00000000000E+00  0.00000000000E+00  0.99999998245E-14  0.12509000000E+03  0.12509000000E+03 0.  0.
        -11    1    3    3    0    0 -0.31520406749E+02 -0.30411267942E+02 -0.24194025384E+02  0.50037307322E+02  0.51100000000E-03 0. -1.
         23    2    1    0    0    0 -0.92066274523E+01  0.83392995391E+01 -0.27539909394E+02  0.94878205692E+02  0.89939543028E+02 0.  0.
         11    1    3    3    0    0  0.22313779296E+02  0.38750567481E+02 -0.33458840100E+01  0.44840898371E+02  0.51100000000E-03 0.  1.
         22    1    1    0    0    0  0.92066274523E+01 -0.83392995391E+01  0.27539909394E+02  0.30211794308E+02  0.00000000000E+00 0.  1.
</event>
<event>
 5    1  0.1055265E-009  0.9118800E+02  0.7815553E-02  0.1125453E+00
         25   -1    0    0    0    0  0.00000000000E+00  0.00000000000E+00  0.99999998245E-14  0.12509000000E+03  0.12509000000E+03 0.  0.
        -11    1    3    3    0    0 -0.16691817513E+02 -0.21436425977E+02  0.18792009622E+02  0.33034478299E+02  0.51100000000E-03 0. -1.
         23    2    1    0    0    0  0.22447896855E+02  0.12547437430E+02 -0.15385362248E+02  0.95122423676E+02  0.90278568083E+02 0.  0.
         11    1    3    3    0    0  0.39139714368E+02  0.33983863407E+02 -0.34177371870E+02  0.62087945377E+02  0.51100000000E-03 0.  1.
         22    1    1    0    0    0 -0.22447896855E+02 -0.12547437430E+02  0.15385362248E+02  0.29967576324E+02  0.00000000000E+00 0.  1.
</event>
<event>
 5    1  0.1055265E-009  0.9118800E+02  0.7815553E-02  0.1125453E+00
         25   -1    0    0    0    0  0.00000000000E+00  0.00000000000E+00  0.99999998245E-14  0.12509000000E+03  0.12509000000E+03 0.  0.
        -11    1    3    3    0    0  0.27939633679E+02  0.11178191855E+02  0.17689503789E+02  0.34906928364E+02  0.51100000000E-03 0. -1.
         23    2    1    0    0    0 -0.17258561926E+02 -0.16183525702E+01 -0.22471721158E+02  0.96709456020E+02  0.92451412143E+02 0.  0.
         11    1    3    3    0    0 -0.45198195605E+02 -0.12796544425E+02 -0.40161224947E+02  0.61802527656E+02  0.51100000000E-03 0.  1.
         22    1    1    0    0    0  0.17258561926E+02  0.16183525702E+01  0.22471721158E+02  0.28380543980E+02  0.00000000000E+00 0.  1.
</event>
<event>
 5    1  0.1055265E-009  0.9118800E+02  0.7815553E-02  0.1125453E+00
         25   -1    0    0    0    0  0.00000000000E+00  0.00000000000E+00  0.99999998245E-14  0.12509000000E+03  0.12509000000E+03 0.  0.
        -11    1    3    3    0    0 -0.30178569719E+02 -0.16806639180E+02  0.56206017505E+01  0.34997147813E+02  0.51100000000E-03 0.  1.
         23    2    1    0    0    0  0.24987245676E+02 -0.23501618863E+01 -0.15247455025E+02  0.95723852958E+02  0.91108097516E+02 0.  0.
         11    1    3    3    0    0  0.55165815394E+02  0.14456477293E+02 -0.20868056775E+02  0.60726705145E+02  0.51100000000E-03 0. -1.
         22    1    1    0    0    0 -0.24987245676E+02  0.23501618863E+01  0.15247455025E+02  0.29366147042E+02  0.00000000000E+00 0. -1.
</event>
<event>
 5    1  0.1055265E-009  0.9118800E+02  0.7815553E-02  0.1125453E+00
         25   -1    0    0    0    0  0.00000000000E+00  0.00000000000E+00  0.99999998245E-14  0.12509000000E+03  0.12509000000E+03 0.  0.
        -11    1    3    3    0    0  0.34075822640E+02 -0.34889149272E+02  0.20835290319E+02  0.53033232491E+02  0.51100000000E-03 0.  1.
         23    2    1    0    0    0  0.27002599489E+02  0.41239914887E+01  0.17112331052E+02  0.92856794156E+02  0.87082746064E+02 0.  0.
         11    1    3    3    0    0 -0.70732231513E+01  0.39013140761E+02 -0.37229592669E+01  0.39823561665E+02  0.51100000000E-03 0. -1.
         22    1    1    0    0    0 -0.27002599489E+02 -0.41239914887E+01 -0.17112331052E+02  0.32233205844E+02  0.00000000000E+00 0.  1.
</event>
<event>
 5    1  0.1055265E-009  0.9118800E+02  0.7815553E-02  0.1125453E+00
         25   -1    0    0    0    0  0.00000000000E+00  0.00000000000E+00  0.99999998245E-14  0.12509000000E+03  0.12509000000E+03 0.  0.
        -11    1    3    3    0    0  0.30959049411E+01 -0.29487024787E+01 -0.56022910441E+02  0.56185816433E+02  0.51100000000E-03 0. -1.
         23    2    1    0    0    0  0.19410159055E+02  0.68253913296E+01 -0.23550265483E+02  0.93817724009E+02  0.88452304054E+02 0.  0.
         11    1    3    3    0    0  0.16314254113E+02  0.97740938083E+01  0.32472644957E+02  0.37631907576E+02  0.51100000000E-03 0.  1.
         22    1    1    0    0    0 -0.19410159055E+02 -0.68253913296E+01  0.23550265483E+02  0.31272275991E+02  0.00000000000E+00 0. -1.
</event>
<event>
 5    1  0.1055265E-009  0.9118800E+02  0.7815553E-02  0.1125453E+00
         25   -1    0    0    0    0  0.00000000000E+00  0.00000000000E+00  0.99999998245E-14  0.12509000000E+03  0.12509000000E+03 0.  0.
        -11    1    3    3    0    0  0.32152967722E+02 -0.73270456074E+01  0.27259273908E+02  0.42785125276E+02  0.51100000000E-03 0.  1.
         23    2    1    0    0    0 -0.82524668808E+01  0.24558445350E+02  0.12459460257E+02  0.96341807057E+02  0.91952624701E+02 0.  0.
         11    1    3    3    0    0 -0.40405434603E+02  0.31885490957E+02 -0.14799813651E+02  0.53556681781E+02  0.51100000000E-03 0. -1.
         22    1    1    0    0    0  0.82524668808E+01 -0.24558445350E+02 -0.12459460257E+02  0.28748192943E+02  0.00000000000E+00 0. -1.
</event>
<event>
 5    1  0.1055265E-009  0.9118800E+02  0.7815553E-02  0.1125453E+00
         25   -1    0    0    0    0  0.00000000000E+00  0.00000000000E+00  0.99999998245E-14  0.12509000000E+03  0.12509000000E+03 0.  0.
        -11    1    3    3    0    0 -0.56317617426E+02  0.18043031339E+02  0.53171539278E+01  0.59375896949E+02  0.51100000000E-03 0.  1.
         23    2    1    0    0    0 -0.24958853645E+02  0.11314150933E+02 -0.11240973415E+02  0.95470515367E+02  0.90759602438E+02 0.  0.
         11    1    3    3    0    0  0.31358763781E+02 -0.67288804056E+01 -0.16558127342E+02  0.36094618418E+02  0.51100000000E-03 0. -1.
         22    1    1    0    0    0  0.24958853645E+02 -0.11314150933E+02  0.11240973415E+02  0.29619484633E+02  0.00000000000E+00 0.  1.
</event>
<event>
 5    1  0.1055265E-009  0.9118800E+02  0.7815553E-02  0.1125453E+00
         25   -1    0    0    0    0  0.00000000000E+00  0.00000000000E+00  0.99999998245E-14  0.12509000000E+03  0.12509000000E+03 0.  0.
        -11    1    3    3    0    0 -0.53825936311E+02  0.81173579474E+01  0.29167359525E+02  0.61756439193E+02  0.51100000000E-03 0.  1.
         23    2    1    0    0    0 -0.21110972538E+02  0.18559616543E+01  0.19118973548E+02  0.96547874909E+02  0.92232528127E+02 0.  0.
         11    1    3    3    0    0  0.32714963773E+02 -0.62613962931E+01 -0.10048385977E+02  0.34791435716E+02  0.51100000000E-03 0. -1.
         22    1    1    0    0    0  0.21110972538E+02 -0.18559616543E+01 -0.19118973548E+02  0.28542125091E+02  0.00000000000E+00 0.  1.
</event>
<event>
 5    1  0.1055265E-009  0.9118800E+02  0.7815553E-02  0.1125453E+00
         25   -1    0    0    0    0  0.00000000000E+00  0.00000000000E+00  0.99999998245E-14  0.12509000000E+03  0.12509000000E+03 0.  0.
        -11    1    3    3    0    0 -0.36716126112E+02  0.34015231945E+01 -0.22862922587E+02  0.43386144173E+02  0.51100000000E-03 0.  1.
         23    2    1    0    0    0 -0.65281728095E+01  0.26376968177E+02  0.12437456002E+02  0.95206027670E+02  0.90394335566E+02 0.  0.
         11    1    3    3    0    0  0.30187953303E+02  0.22975444982E+02  0.35300378589E+02  0.51819883496E+02  0.51100000000E-03 0. -1.
         22    1    1    0    0    0  0.65281728095E+01 -0.26376968177E+02 -0.12437456002E+02  0.29883972330E+02  0.00000000000E+00 0. -1.
</event>
<event>
 5    1  0.1055265E-009  0.9118800E+02  0.7815553E-02  0.1125453E+00
         25   -1    0    0    0    0  0.00000000000E+00  0.00000000000E+00  0.99999998245E-14  0.12509000000E+03  0.12509000000E+03 0.  0.
        -11    1    3    3    0    0  0.18588578151E+02  0.17939234874E+02 -0.24543745001E+02  0.35633506766E+02  0.51100000000E-03 0.  1.
         23    2    1    0    0    0  0.67779595686E+01 -0.21683189465E+02  0.18849706167E+02  0.95570297023E+02  0.90897023104E+02 0.  0.
         11    1    3    3    0    0 -0.11810618582E+02 -0.39622424339E+02  0.43393451168E+02  0.59936790257E+02  0.51100000000E-03 0. -1.
         22    1    1    0    0    0 -0.67779595686E+01  0.21683189465E+02 -0.18849706167E+02  0.29519702977E+02  0.00000000000E+00 0. -1.
</event>
<event>
 5    1  0.1055265E-009  0.9118800E+02  0.7815553E-02  0.1125453E+00
         25   -1    0    0    0    0  0.00000000000E+00  0.00000000000E+00  0.99999998245E-14  0.12509000000E+03  0.12509000000E+03 0.  0.
        -11    1    3    3    0    0 -0.25429563676E+02 -0.70414862370E+01 -0.20535650175E+02  0.33435881408E+02  0.51100000000E-03 0. -1.
         23    2    1    0    0    0  0.12169168300E+02  0.20528383020E+02  0.19016027385E+02  0.94575864521E+02  0.89518052290E+02 0.  0.
         11    1    3    3    0    0  0.37598731975E+02  0.27569869257E+02  0.39551677560E+02  0.61139983113E+02  0.51100000000E-03 0.  1.
         22    1    1    0    0    0 -0.12169168300E+02 -0.20528383020E+02 -0.19016027385E+02  0.30514135479E+02  0.00000000000E+00 0.  1.
</event>
<event>
 5    1  0.1055265E-009  0.9118800E+02  0.7815553E-02  0.1125453E+00
         25   -1    0    0    0    0  0.00000000000E+00  0.00000000000E+00  0.99999998245E-14  0.12509000000E+03  0.12509000000E+03 0.  0.
        -11    1    3    3    0    0 -0.34445948092E+02  0.19956276998E+02 -0.74153009226E+01  0.40493987450E+02  0.51100000000E-03 0.  1.
         23    2    1    0    0    0 -0.40737710518E+01 -0.12197947439E+02  0.26103467991E+02  0.95990574345E+02  0.91473568803E+02 0.  0.
         11    1    3    3    0    0  0.30372177040E+02 -0.32154224437E+02  0.33518768914E+02  0.55496586895E+02  0.51100000000E-03 0. -1.
         22    1    1    0    0    0  0.40737710518E+01  0.12197947439E+02 -0.26103467991E+02  0.29099425655E+02  0.00000000000E+00 0. -1.
</event>
<event>
 5    1  0.1055265E-009  0.9118800E+02  0.7815553E-02  0.1125453E+00
         25   -1    0    0    0    0  0.00000000000E+00  0.00000000000E+00  0.99999998245E-14  0.12509000000E+03  0.12509000000E+03 0.  0.
        -11    1    3    3    0    0  0.72583482571E+01 -0.51645775745E+02  0.96628192688E+01  0.53040926163E+02  0.51100000000E-03 0.  1.
         23    2    1    0    0    0 -0.19398615212E+02 -0.21741468835E+02 -0.46540837951E+01  0.95583081570E+02  0.90914615147E+02 0.  0.
         11    1    3    3    0    0 -0.26656963469E+02  0.29904306910E+02 -0.14316903064E+02  0.42542155408E+02  0.51100000000E-03 0. -1.
         22    1    1    0    0    0  0.19398615212E+02  0.21741468835E+02  0.46540837951E+01  0.29506918430E+02  0.00000000000E+00 0.  1.
</event>
<event>
 5    1  0.1055265E-009  0.9118800E+02  0.7815553E-02  0.1125453E+00
         25   -1    0    0    0    0  0.00000000000E+00  0.00000000000E+00  0.99999998245E-14  0.12509000000E+03  0.12509000000E+03 0.  0.
        -11    1    3    3    0    0  0.59000773137E+01 -0.32784004552E+02 -0.12227005606E+02  0.35483820723E+02  0.51100000000E-03 0. -1.
         23    2    1    0    0    0 -0.29061299826E+02  0.12414532279E+02 -0.33535103337E+01  0.93310670384E+02  0.87732294035E+02 0.  0.
         11    1    3    3    0    0 -0.34961377139E+02  0.45198536831E+02  0.88734952721E+01  0.57826849661E+02  0.51100000000E-03 0.  1.
         22    1    1    0    0    0  0.29061299826E+02 -0.12414532279E+02  0.33535103337E+01  0.31779329616E+02  0.00000000000E+00 0.  1.
</event>
<event>
 5    1  0.1055265E-009  0.9118800E+02  0.7815553E-02  0.1125453E+00
         25   -1    0    0    0    0  0.00000000000E+00  0.00000000000E+00  0.99999998245E-14  0.12509000000E+03  0.12509000000E+03 0.  0.
        -11    1    3    3    0    0  0.29888168571E+02 -0.14826986439E+02 -0.45582084651E+02  0.56487773799E+02  0.51100000000E-03 0.  1.
         23    2    1    0    0    0  0.90716897172E+01 -0.24445802756E+02 -0.14066937955E+02  0.95462790038E+02  0.90748954328E+02 0.  0.
         11    1    3    3    0    0 -0.20816478854E+02 -0.96188163170E+01  0.31515146696E+02  0.38975016238E+02  0.51100000000E-03 0. -1.
         22    1    1    0    0    0 -0.90716897172E+01  0.24445802756E+02  0.14066937955E+02  0.29627209962E+02  0.00000000000E+00 0.  1.
</event>
<event>
 5    1  0.1055265E-009  0.9118800E+02  0.7815553E-02  0.1125453E+00
         25   -1    0    0    0    0  0.00000000000E+00  0.00000000000E+00  0.99999998245E-14  0.12509000000E+03  0.12509000000E+03 0.  0.
        -11    1    3    3    0    0 -0.10344860190E+02  0.33426699825E+01 -0.60734197587E+02  0.61699532670E+02  0.51100000000E-03 0.  1.
         23    2    1    0    0    0  0.17947871294E+01  0.43932120196E+01 -0.29215191053E+02  0.95491875719E+02  0.90789037705E+02 0.  0.
         11    1    3    3    0    0  0.12139647319E+02  0.10505420371E+01  0.31519006533E+02  0.33792343049E+02  0.51100000000E-03 0. -1.
         22    1    1    0    0    0 -0.17947871294E+01 -0.43932120196E+01  0.29215191053E+02  0.29598124281E+02  0.00000000000E+00 0.  1.
</event>
<event>
 5    1  0.1055265E-009  0.9118800E+02  0.7815553E-02  0.1125453E+00
         25   -1    0    0    0    0  0.00000000000E+00  0.00000000000E+00  0.99999998245E-14  0.12509000000E+03  0.12509000000E+03 0.  0.
        -11    1    3    3    0    0  0.20091312144E+02 -0.20756392004E+02  0.20008199279E+02  0.35139958328E+02  0.51100000000E-03 0.  1.
         23    2    1    0    0    0 -0.19013744295E+01 -0.33500431726E+01 -0.31267943898E+02  0.93585677604E+02  0.88123531041E+02 0.  0.
         11    1    3    3    0    0 -0.21992686573E+02  0.17406348831E+02 -0.51276143177E+02  0.58445719276E+02  0.51100000000E-03 0. -1.
         22    1    1    0    0    0  0.19013744295E+01  0.33500431726E+01  0.31267943898E+02  0.31504322396E+02  0.00000000000E+00 0. -1.
</event>
<event>
 5    1  0.1055265E-009  0.9118800E+02  0.7815553E-02  0.1125453E+00
         25   -1    0    0    0    0  0.00000000000E+00  0.00000000000E+00  0.99999998245E-14  0.12509000000E+03  0.12509000000E+03 0.  0.
        -11    1    3    3    0    0  0.12310251380E+02  0.53782059694E+02 -0.15335938723E+02  0.57264677164E+02  0.51100000000E-03 0. -1.
         23    2    1    0    0    0 -0.74354434606E+01  0.26707610430E+02  0.56406716874E+01  0.96798668264E+02  0.92572040737E+02 0.  0.
         11    1    3    3    0    0 -0.19745694841E+02 -0.27074449264E+02  0.20976610410E+02  0.39533991100E+02  0.51100000000E-03 0.  1.
         22    1    1    0    0    0  0.74354434606E+01 -0.26707610430E+02 -0.56406716874E+01  0.28291331736E+02  0.00000000000E+00 0. -1.
</event>
<event>
 5    1  0.1055265E-009  0.9118800E+02  0.7815553E-02  0.1125453E+00
         25   -1    0    0    0    0  0.00000000000E+00  0.00000000000E+00  0.99999998245E-14  0.12509000000E+03  0.12509000000E+03 0.  0.
        -11    1    3    3    0    0 -0.11890732897E+02 -0.10041757783E+02  0.36364590114E+02  0.39555149382E+02  0.51100000000E-03 0.  1.
         23    2    1    0    0    0 -0.16386742513E+02  0.22014884188E+02 -0.98092945846E+01  0.95945485658E+02  0.91411889281E+02 0.  0.
         11    1    3    3    0    0 -0.44960096156E+01  0.32056641970E+02 -0.46173884699E+02  0.56390336276E+02  0.51100000000E-03 0. -1.
         22    1    1    0    0    0  0.16386742513E+02 -0.22014884188E+02  0.98092945846E+01  0.29144514342E+02  0.00000000000E+00 0. -1.
</event>
<event>
 5    1  0.1055265E-009  0.9118800E+02  0.7815553E-02  0.1125453E+00
         25   -1    0    0    0    0  0.00000000000E+00  0.00000000000E+00  0.99999998245E-14  0.12509000000E+03  0.12509000000E+03 0.  0.
        -11    1    3    3    0    0  0.40695377850E+02 -0.23508211767E+02  0.33242888742E+02  0.57565957397E+02  0.51100000000E-03 0. -1.
         23    2    1    0    0    0  0.43582417725E+01 -0.16244817566E+02  0.24044911468E+02  0.95746412343E+02  0.91139065938E+02 0.  0.
         11    1    3    3    0    0 -0.36337136078E+02  0.72633942015E+01 -0.91979772746E+01  0.38180454946E+02  0.51100000000E-03 0.  1.
         22    1    1    0    0    0 -0.43582417725E+01  0.16244817566E+02 -0.24044911468E+02  0.29343587657E+02  0.00000000000E+00 0. -1.
</event>
<event>
 5    1  0.1055265E-009  0.9118800E+02  0.7815553E-02  0.1125453E+00
         25   -1    0    0    0    0  0.00000000000E+00  0.00000000000E+00  0.99999998245E-14  0.12509000000E+03  0.12509000000E+03 0.  0.
        -11    1    3    3    0    0  0.33233354298E+02  0.14569574696E+02  0.40952567890E+02  0.54716004622E+02  0.51100000000E-03 0.  1.
         23    2    1    0    0    0  0.27971701464E+02  0.10764442514E+02  0.10955401092E+01  0.95098509314E+02  0.90245426257E+02 0.  0.
         11    1    3    3    0    0 -0.52616528340E+01 -0.38051321819E+01 -0.39857027781E+02  0.40382504693E+02  0.51100000000E-03 0. -1.
         22    1    1    0    0    0 -0.27971701464E+02 -0.10764442514E+02 -0.10955401092E+01  0.29991490686E+02  0.00000000000E+00 0.  1.
</event>
<event>
 5    1  0.1055265E-009  0.9118800E+02  0.7815553E-02  0.1125453E+00
         25   -1    0    0    0    0  0.00000000000E+00  0.00000000000E+00  0.99999998245E-14  0.12509000000E+03  0.12509000000E+03 0.  0.
        -11    1    3    3    0    0 -0.29201875619E+02  0.27155522797E+02 -0.23604954068E+02  0.46339678623E+02  0.51100000000E-03 0. -1.
         23    2    1    0    0    0  0.16146289763E+02 -0.42402304059E+01  0.38608420060E+01  0.10795558060E+03  0.10658714301E+03 0.  0.
         11    1    3    3    0    0  0.45348165383E+02 -0.31395753203E+02  0.27465796074E+02  0.61615901982E+02  0.51100000000E-03 0.  1.
         22    1    1    0    0    0 -0.16146289763E+02  0.42402304059E+01 -0.38608420060E+01  0.17134419395E+02  0.00000000000E+00 0.  1.
</event>
<event>
 5    1  0.1055265E-009  0.9118800E+02  0.7815553E-02  0.1125453E+00
         25   -1    0    0    0    0  0.00000000000E+00  0.00000000000E+00  0.99999998245E-14  0.12509000000E+03  0.12509000000E+03 0.  0.
        -11    1    3    3    0    0  0.60252409133E+01 -0.20179482207E+02  0.31023451981E+02  0.37496261191E+02  0.51100000000E-03 0. -1.
         23    2    1    0    0    0 -0.16230794435E+02 -0.25880858968E+02 -0.16563761995E+02  0.90339233673E+02  0.83388017006E+02 0.  0.
         11    1    3    3    0    0 -0.22256035348E+02 -0.57013767610E+01 -0.47587213976E+02  0.52842972482E+02  0.51100000000E-03 0.  1.
         22    1    1    0    0    0  0.16230794435E+02  0.25880858968E+02  0.16563761995E+02  0.34750766327E+02  0.00000000000E+00 0.  1.
</event>
<event>
 5    1  0.1055265E-009  0.9118800E+02  0.7815553E-02  0.1125453E+00
         25   -1    0    0    0    0  0.00000000000E+00  0.00000000000E+00  0.99999998245E-14  0.12509000000E+03  0.12509000000E+03 0.  0.
        -11    1    3    3    0    0 -0.23479994726E+02 -0.25851964083E+02 -0.50291224747E+02  0.61227783612E+02  0.51100000000E-03 0.  1.
         23    2    1    0    0    0 -0.94398531895E+01 -0.19283320158E+02 -0.17899387774E+02  0.97137444710E+02  0.93028693517E+02 0.  0.
         11    1    3    3    0    0  0.14040141536E+02  0.65686439245E+01  0.32391836974E+02  0.35909661098E+02  0.51100000000E-03 0. -1.
         22    1    1    0    0    0  0.94398531895E+01  0.19283320158E+02  0.17899387774E+02  0.27952555290E+02  0.00000000000E+00 0.  1.
</event>
<event>
 5    1  0.1055265E-009  0.9118800E+02  0.7815553E-02  0.1125453E+00
         25   -1    0    0    0    0  0.00000000000E+00  0.00000000000E+00  0.99999998245E-14  0.12509000000E+03  0.12509000000E+03 0.  0.
        -11    1    3    3    0    0 -0.25240194420E+02 -0.28941010055E+02 -0.10077734712E+02  0.39701514008E+02  0.51100000000E-03 0.  1.
         23    2    1    0    0    0  0.17647217238E+02  0.95309996617E+00 -0.25370917139E+02  0.94170489780E+02  0.88949789394E+02 0.  0.
         11    1    3    3    0    0  0.42887411658E+02  0.29894110021E+02 -0.15293182427E+02  0.54468975772E+02  0.51100000000E-03 0. -1.
         22    1    1    0    0    0 -0.17647217238E+02 -0.95309996617E+00  0.25370917139E+02  0.30919510220E+02  0.00000000000E+00 0. -1.
</event>
<event>
 5    1  0.1055265E-009  0.9118800E+02  0.7815553E-02  0.1125453E+00
         25   -1    0    0    0    0  0.00000000000E+00  0.00000000000E+00  0.99999998245E-14  0.12509000000E+03  0.12509000000E+03 0.  0.
        -11    1    3    3    0    0  0.38749600387E+02 -0.28544837758E+02  0.26706675829E+02  0.55041673547E+02  0.51100000000E-03 0.  1.
         23    2    1    0    0    0  0.81894029292E+01 -0.28386515319E+02  0.12451740715E+00  0.95545523750E+02  0.90862924407E+02 0.  0.
         11    1    3    3    0    0 -0.30560197458E+02  0.15832243912E+00 -0.26582158422E+02  0.40503850203E+02  0.51100000000E-03 0. -1.
         22    1    1    0    0    0 -0.81894029292E+01  0.28386515319E+02 -0.12451740715E+00  0.29544476250E+02  0.00000000000E+00 0.  1.
</event>
<event>
 5    1  0.1055265E-009  0.9118800E+02  0.7815553E-02  0.1125453E+00
         25   -1    0    0    0    0  0.00000000000E+00  0.00000000000E+00  0.99999998245E-14  0.12509000000E+03  0.12509000000E+03 0.  0.
        -11    1    3    3    0    0 -0.67435848913E+01  0.60897584681E+02 -0.14499926591E+01  0.61286982600E+02  0.51100000000E-03 0.  1.
         23    2    1    0    0    0  0.50890632279E+01  0.30599750996E+02 -0.34721444264E+01  0.93876235208E+02  0.88535012421E+02 0.  0.
         11    1    3    3    0    0  0.11832648119E+02 -0.30297833685E+02 -0.20221517673E+01  0.32589252608E+02  0.51100000000E-03 0. -1.
         22    1    1    0    0    0 -0.50890632279E+01 -0.30599750996E+02  0.34721444264E+01  0.31213764792E+02  0.00000000000E+00 0.  1.
</event>
<event>
 5    1  0.1055265E-009  0.9118800E+02  0.7815553E-02  0.1125453E+00
         25   -1    0    0    0    0  0.00000000000E+00  0.00000000000E+00  0.99999998245E-14  0.12509000000E+03  0.12509000000E+03 0.  0.
        -11    1    3    3    0    0 -0.20809264857E+02  0.42987466023E+02  0.12783582486E+02  0.49440547332E+02  0.51100000000E-03 0.  1.
         23    2    1    0    0    0 -0.28002096498E+02 -0.55153190681E+00 -0.42868378656E+01  0.96756299666E+02  0.92514771526E+02 0.  0.
         11    1    3    3    0    0 -0.71928316405E+01 -0.43538997930E+02 -0.17070420351E+02  0.47315752335E+02  0.51100000000E-03 0. -1.
         22    1    1    0    0    0  0.28002096498E+02  0.55153190681E+00  0.42868378656E+01  0.28333700334E+02  0.00000000000E+00 0. -1.
</event>
<event>
 5    1  0.1055265E-009  0.9118800E+02  0.7815553E-02  0.1125453E+00
         25   -1    0    0    0    0  0.00000000000E+00  0.00000000000E+00  0.99999998245E-14  0.12509000000E+03  0.12509000000E+03 0.  0.
        -11    1    3    3    0    0  0.12238284656E+02 -0.22253222318E+02 -0.33335829893E+02  0.41907744747E+02  0.51100000000E-03 0. -1.
         23    2    1    0    0    0 -0.18741883767E+02 -0.34632168448E+01  0.13943954788E+02  0.10147462465E+03  0.98688466873E+02 0.  0.
         11    1    3    3    0    0 -0.30980168422E+02  0.18790005473E+02  0.47279784681E+02  0.59566879899E+02  0.51100000000E-03 0.  1.
         22    1    1    0    0    0  0.18741883767E+02  0.34632168448E+01 -0.13943954788E+02  0.23615375355E+02  0.00000000000E+00 0.  1.
</event>
<event>
 5    1  0.1055265E-009  0.9118800E+02  0.7815553E-02  0.1125453E+00
         25   -1    0    0    0    0  0.00000000000E+00  0.00000000000E+00  0.99999998245E-14  0.12509000000E+03  0.12509000000E+03 0.  0.
        -11    1    3    3    0    0  0.44324053615E+02  0.69175026554E+01 -0.37165243663E+02  0.58255719965E+02  0.51100000000E-03 0.  1.
         23    2    1    0    0    0  0.91285678365E+01  0.37676093406E+01 -0.28905064150E+02  0.94544487000E+02  0.89474195485E+02 0.  0.
         11    1    3    3    0    0 -0.35195485779E+02 -0.31498933148E+01  0.82601795128E+01  0.36288767035E+02  0.51100000000E-03 0. -1.
         22    1    1    0    0    0 -0.91285678365E+01 -0.37676093406E+01  0.28905064150E+02  0.30545513000E+02  0.00000000000E+00 0.  1.
</event>
<event>
 5    1  0.1055265E-009  0.9118800E+02  0.7815553E-02  0.1125453E+00
         25   -1    0    0    0    0  0.00000000000E+00  0.00000000000E+00  0.99999998245E-14  0.12509000000E+03  0.12509000000E+03 0.  0.
        -11    1    3    3    0    0 -0.53854129566E+02  0.75098950771E+01 -0.23181446341E+02  0.59110449585E+02  0.51100000000E-03 0.  1.
         23    2    1    0    0    0 -0.10387837697E+02  0.13778445198E+02 -0.10780366993E+02  0.10474377095E+03  0.10274866674E+03 0.  0.
         11    1    3    3    0    0  0.43466291869E+02  0.62685501207E+01  0.12401079348E+02  0.45633321364E+02  0.51100000000E-03 0. -1.
         22    1    1    0    0    0  0.10387837697E+02 -0.13778445198E+02  0.10780366993E+02  0.20346229051E+02  0.00000000000E+00 0.  1.
</event>
<event>
 5    1  0.1055265E-009  0.9118800E+02  0.7815553E-02  0.1125453E+00
         25   -1    0    0    0    0  0.00000000000E+00  0.00000000000E+00  0.99999998245E-14  0.12509000000E+03  0.12509000000E+03 0.  0.
        -11    1    3    3    0    0 -0.28186145997E+02  0.22610497062E+02 -0.23343652051E+01  0.36209704013E+02  0.51100000000E-03 0. -1.
         23    2    1    0    0    0  0.28827153006E+02  0.85403202136E+01 -0.23391605734E+01  0.94933516585E+02  0.90016437828E+02 0.  0.
         11    1    3    3    0    0  0.57013299003E+02 -0.14070176848E+02 -0.47953682886E-02  0.58723812572E+02  0.51100000000E-03 0.  1.
         22    1    1    0    0    0 -0.28827153006E+02 -0.85403202136E+01  0.23391605734E+01  0.30156483415E+02  0.00000000000E+00 0.  1.
</event>
<event>
 5    1  0.1055265E-009  0.9118800E+02  0.7815553E-02  0.1125453E+00
         25   -1    0    0    0    0  0.00000000000E+00  0.00000000000E+00  0.99999998245E-14  0.12509000000E+03  0.12509000000E+03 0.  0.
        -11    1    3    3    0    0  0.23269397316E+02 -0.30924205963E+02 -0.16280549307E+02  0.41986041155E+02  0.51100000000E-03 0. -1.
         23    2    1    0    0    0 -0.19747720032E+02 -0.21320183671E+02  0.11220825160E+02  0.93938281019E+02  0.88622632805E+02 0.  0.
         11    1    3    3    0    0 -0.43017117347E+02  0.96040222915E+01  0.27501374467E+02  0.51952239864E+02  0.51100000000E-03 0.  1.
         22    1    1    0    0    0  0.19747720032E+02  0.21320183671E+02 -0.11220825160E+02  0.31151718981E+02  0.00000000000E+00 0.  1.
</event>
<event>
 5    1  0.1055265E-009  0.9118800E+02  0.7815553E-02  0.1125453E+00
         25   -1    0    0    0    0  0.00000000000E+00  0.00000000000E+00  0.99999998245E-14  0.12509000000E+03  0.12509000000E+03 0.  0.
        -11    1    3    3    0    0 -0.56548149890E+02 -0.45846520291E+01 -0.10508394337E+02  0.57698688390E+02  0.51100000000E-03 0.  1.
         23    2    1    0    0    0 -0.26711048154E+02  0.15060584883E+02 -0.73173127239E+01  0.93564702603E+02  0.88093752316E+02 0.  0.
         11    1    3    3    0    0  0.29837101736E+02  0.19645236912E+02  0.31910816126E+01  0.35866014212E+02  0.51100000000E-03 0. -1.
         22    1    1    0    0    0  0.26711048154E+02 -0.15060584883E+02  0.73173127239E+01  0.31525297397E+02  0.00000000000E+00 0.  1.
</event>
<event>
 5    1  0.1055265E-009  0.9118800E+02  0.7815553E-02  0.1125453E+00
         25   -1    0    0    0    0  0.00000000000E+00  0.00000000000E+00  0.99999998245E-14  0.12509000000E+03  0.12509000000E+03 0.  0.
        -11    1    3    3    0    0  0.26355028738E+02  0.22904552083E+02  0.38520982244E+01  0.35128972471E+02  0.51100000000E-03 0. -1.
         23    2    1    0    0    0 -0.82808773275E+01 -0.26694310424E+02  0.86992246438E+01  0.95818244881E+02  0.91237604114E+02 0.  0.
         11    1    3    3    0    0 -0.34635906065E+02 -0.49598862507E+02  0.48471264194E+01  0.60689272410E+02  0.51100000000E-03 0.  1.
         22    1    1    0    0    0  0.82808773275E+01  0.26694310424E+02 -0.86992246438E+01  0.29271755119E+02  0.00000000000E+00 0.  1.
</event>
<event>
 5    1  0.1055265E-009  0.9118800E+02  0.7815553E-02  0.1125453E+00
         25   -1    0    0    0    0  0.00000000000E+00  0.00000000000E+00  0.99999998245E-14  0.12509000000E+03  0.12509000000E+03 0.  0.
        -11    1    3    3    0    0  0.42113493814E+02  0.46636996012E+01 -0.92993627659E+00  0.42381142468E+02  0.51100000000E-03 0. -1.
         23    2    1    0    0    0 -0.50996704028E+01  0.12293574677E+02 -0.25631311412E+02  0.96209163079E+02  0.91772001826E+02 0.  0.
         11    1    3    3    0    0 -0.47213164216E+02  0.76298750756E+01 -0.24701375136E+02  0.53828020611E+02  0.51100000000E-03 0.  1.
         22    1    1    0    0    0  0.50996704028E+01 -0.12293574677E+02  0.25631311412E+02  0.28880836921E+02  0.00000000000E+00 0.  1.
</event>
<event>
 5    1  0.1055265E-009  0.9118800E+02  0.7815553E-02  0.1125453E+00
         25   -1    0    0    0    0  0.00000000000E+00  0.00000000000E+00  0.99999998245E-14  0.12509000000E+03  0.12509000000E+03 0.  0.
        -11    1    3    3    0    0 -0.36037544786E+02  0.18907225531E+02 -0.22696850875E+02  0.46597584180E+02  0.51100000000E-03 0.  1.
         23    2    1    0    0    0  0.79697645419E+01 -0.25726665446E+01 -0.28010157152E+02  0.95854667546E+02  0.91287527224E+02 0.  0.
         11    1    3    3    0    0  0.44007309328E+02 -0.21479892076E+02 -0.53133062773E+01  0.49257083366E+02  0.51100000000E-03 0. -1.
         22    1    1    0    0    0 -0.79697645419E+01  0.25726665446E+01  0.28010157152E+02  0.29235332454E+02  0.00000000000E+00 0. -1.
</event>
<event>
 5    1  0.1055265E-009  0.9118800E+02  0.7815553E-02  0.1125453E+00
         25   -1    0    0    0    0  0.00000000000E+00  0.00000000000E+00  0.99999998245E-14  0.12509000000E+03  0.12509000000E+03 0.  0.
        -11    1    3    3    0    0 -0.52432929810E+02 -0.16547786686E+02 -0.59038246285E+01  0.55298250589E+02  0.51100000000E-03 0. -1.
         23    2    1    0    0    0 -0.24369789877E+02  0.13502379229E+01  0.16685484937E+02  0.95524560570E+02  0.90834060041E+02 0.  0.
         11    1    3    3    0    0  0.28063139933E+02  0.17898024609E+02  0.22589309566E+02  0.40226309981E+02  0.51100000000E-03 0.  1.
         22    1    1    0    0    0  0.24369789877E+02 -0.13502379229E+01 -0.16685484937E+02  0.29565439430E+02  0.00000000000E+00 0. -1.
</event>
<event>
 5    1  0.1055265E-009  0.9118800E+02  0.7815553E-02  0.1125453E+00
         25   -1    0    0    0    0  0.00000000000E+00  0.00000000000E+00  0.99999998245E-14  0.12509000000E+03  0.12509000000E+03 0.  0.
        -11    1    3    3    0    0  0.34933548254E+02 -0.31495076628E+02  0.24517057223E+02  0.53041292788E+02  0.51100000000E-03 0. -1.
         23    2    1    0    0    0  0.27856698323E+02  0.68087037993E+01  0.12523340229E+02  0.93798017970E+02  0.88424431215E+02 0.  0.
         11    1    3    3    0    0 -0.70768499309E+01  0.38303780428E+02 -0.11993716994E+02  0.40756725182E+02  0.51100000000E-03 0.  1.
         22    1    1    0    0    0 -0.27856698323E+02 -0.68087037993E+01 -0.12523340229E+02  0.31291982030E+02  0.00000000000E+00 0. -1.
</event>
<event>
 5    1  0.1055265E-009  0.9118800E+02  0.7815553E-02  0.1125453E+00
         25   -1    0    0    0    0  0.00000000000E+00  0.00000000000E+00  0.99999998245E-14  0.12509000000E+03  0.12509000000E+03 0.  0.
        -11    1    3    3    0    0  0.42868722965E-01 -0.50258659911E+02 -0.28720835729E+02  0.57886277640E+02  0.51100000000E-03 0.  1.
         23    2    1    0    0    0 -0.14354338943E+02 -0.18883095545E+02 -0.21331477392E+02  0.93189368790E+02  0.87559169616E+02 0.  0.
         11    1    3    3    0    0 -0.14397207666E+02  0.31375564366E+02  0.73893583367E+01  0.35303091150E+02  0.51100000000E-03 0. -1.
         22    1    1    0    0    0  0.14354338943E+02  0.18883095545E+02  0.21331477392E+02  0.31900631210E+02  0.00000000000E+00 0.  1.
</event>
<event>
 5    1  0.1055265E-009  0.9118800E+02  0.7815553E-02  0.1125453E+00
         25   -1    0    0    0    0  0.00000000000E+00  0.00000000000E+00  0.99999998245E-14  0.12509000000E+03  0.12509000000E+03 0.  0.
        -11    1    3    3    0    0  0.20958207675E+02 -0.22056362274E+02  0.20360980335E+02  0.36610095686E+02  0.51100000000E-03 0. -1.
         23    2    1    0    0    0  0.58187118461E+01  0.22766024543E+02 -0.16325258473E+02  0.96477706396E+02  0.92137313213E+02 0.  0.
         11    1    3    3    0    0 -0.15139495829E+02  0.44822386817E+02 -0.36686238808E+02  0.59867610710E+02  0.51100000000E-03 0.  1.
         22    1    1    0    0    0 -0.58187118461E+01 -0.22766024543E+02  0.16325258473E+02  0.28612293604E+02  0.00000000000E+00 0.  1.
</event>
<event>
 5    1  0.1055265E-009  0.9118800E+02  0.7815553E-02  0.1125453E+00
         25   -1    0    0    0    0  0.00000000000E+00  0.00000000000E+00  0.99999998245E-14  0.12509000000E+03  0.12509000000E+03 0.  0.
        -11    1    3    3    0    0  0.23302941253E+02 -0.39214464898E+02  0.94756627410E+01  0.46589585885E+02  0.51100000000E-03 0. -1.
         23    2    1    0    0    0  0.14244855895E+02 -0.42264960803E+01 -0.24657535877E+02  0.96301577603E+02  0.91897881285E+02 0.  0.
         11    1    3    3    0    0 -0.90580853583E+01  0.34987968818E+02 -0.34133198618E+02  0.49711991718E+02  0.51100000000E-03 0.  1.
         22    1    1    0    0    0 -0.14244855895E+02  0.42264960803E+01  0.24657535877E+02  0.28788422397E+02  0.00000000000E+00 0.  1.
</event>
<event>
 5    1  0.1055265E-009  0.9118800E+02  0.7815553E-02  0.1125453E+00
         25   -1    0    0    0    0  0.00000000000E+00  0.00000000000E+00  0.99999998245E-14  0.12509000000E+03  0.12509000000E+03 0.  0.
        -11    1    3    3    0    0  0.43610118185E+02 -0.13167635846E+02 -0.34258131119E+02  0.56998671826E+02  0.51100000000E-03 0. -1.
         23    2    1    0    0    0  0.28408105593E+02 -0.66187687049E+01  0.95199079971E+00  0.95905503276E+02  0.91357160145E+02 0.  0.
         11    1    3    3    0    0 -0.15202012592E+02  0.65488671414E+01  0.35210121919E+02  0.38906831450E+02  0.51100000000E-03 0.  1.
         22    1    1    0    0    0 -0.28408105593E+02  0.66187687049E+01 -0.95199079971E+00  0.29184496724E+02  0.00000000000E+00 0. -1.
</event>
<event>
 5    1  0.1055265E-009  0.9118800E+02  0.7815553E-02  0.1125453E+00
         25   -1    0    0    0    0  0.00000000000E+00  0.00000000000E+00  0.99999998245E-14  0.12509000000E+03  0.12509000000E+03 0.  0.
        -11    1    3    3    0    0 -0.11233483396E+02  0.51319532477E+02  0.26745008995E+02  0.58950666402E+02  0.51100000000E-03 0. -1.
         23    2    1    0    0    0  0.51520226659E+01  0.17863794974E+02  0.21653797910E+02  0.96549756968E+02  0.92235080627E+02 0.  0.
         11    1    3    3    0    0  0.16385506062E+02 -0.33455737503E+02 -0.50912110856E+01  0.37599090566E+02  0.51100000000E-03 0.  1.
         22    1    1    0    0    0 -0.51520226659E+01 -0.17863794974E+02 -0.21653797910E+02  0.28540243032E+02  0.00000000000E+00 0. -1.
</event>
<event>
 5    1  0.1055265E-009  0.9118800E+02  0.7815553E-02  0.1125453E+00
         25   -1    0    0    0    0  0.00000000000E+00  0.00000000000E+00  0.99999998245E-14  0.12509000000E+03  0.12509000000E+03 0.  0.
        -11    1    3    3    0    0 -0.42357978845E+02 -0.39717394783E+01 -0.24782902462E+02  0.49235813601E+02  0.51100000000E-03 0.  1.
         23    2    1    0    0    0 -0.16434877268E+02 -0.21694243572E+02  0.99978557401E+01  0.96095129517E+02  0.91616436312E+02 0.  0.
         11    1    3    3    0    0  0.25923101577E+02 -0.17722504093E+02  0.34780758202E+02  0.46859315915E+02  0.51100000000E-03 0. -1.
         22    1    1    0    0    0  0.16434877268E+02  0.21694243572E+02 -0.99978557401E+01  0.28994870483E+02  0.00000000000E+00 0.  1.
</event>
<event>
 5    1  0.1055265E-009  0.9118800E+02  0.7815553E-02  0.1125453E+00
         25   -1    0    0    0    0  0.00000000000E+00  0.00000000000E+00  0.99999998245E-14  0.12509000000E+03  0.12509000000E+03 0.  0.
        -11    1    3    3    0    0 -0.32658398975E+02 -0.43940187741E+01  0.10842664662E+02  0.34690658712E+02  0.51100000000E-03 0.  1.
         23    2    1    0    0    0  0.19482518732E+02 -0.43297060173E+01 -0.21266533289E+02  0.95925289672E+02  0.91384248480E+02 0.  0.
         11    1    3    3    0    0  0.52140917708E+02  0.64312756820E-01 -0.32109197952E+02  0.61234630961E+02  0.51100000000E-03 0. -1.
         22    1    1    0    0    0 -0.19482518732E+02  0.43297060173E+01  0.21266533289E+02  0.29164710328E+02  0.00000000000E+00 0. -1.
</event>
<event>
 5    1  0.1055265E-009  0.9118800E+02  0.7815553E-02  0.1125453E+00
         25   -1    0    0    0    0  0.00000000000E+00  0.00000000000E+00  0.99999998245E-14  0.12509000000E+03  0.12509000000E+03 0.  0.
        -11    1    3    3    0    0  0.18935454843E+02 -0.55630490865E+02 -0.74651130965E+01  0.59237073508E+02  0.51100000000E-03 0. -1.
         23    2    1    0    0    0  0.20595881341E+02 -0.21136334236E+02  0.32615106693E+01  0.95398715000E+02  0.90660589115E+02 0.  0.
         11    1    3    3    0    0  0.16604264982E+01  0.34494156629E+02  0.10726623766E+02  0.36161641492E+02  0.51100000000E-03 0.  1.
         22    1    1    0    0    0 -0.20595881341E+02  0.21136334236E+02 -0.32615106693E+01  0.29691285000E+02  0.00000000000E+00 0. -1.
</event>
<event>
 5    1  0.1055265E-009  0.9118800E+02  0.7815553E-02  0.1125453E+00
         25   -1    0    0    0    0  0.00000000000E+00  0.00000000000E+00  0.99999998245E-14  0.12509000000E+03  0.12509000000E+03 0.  0.
        -11    1    3    3    0    0 -0.43268617636E+02 -0.36823471155E+02 -0.19980969952E+02  0.60227738298E+02  0.51100000000E-03 0. -1.
         23    2    1    0    0    0 -0.25413497796E+02 -0.14022076963E+02  0.10929335189E+01  0.96044191072E+02  0.91546860254E+02 0.  0.
         11    1    3    3    0    0  0.17855119839E+02  0.22801394192E+02  0.21073903471E+02  0.35816452774E+02  0.51100000000E-03 0.  1.
         22    1    1    0    0    0  0.25413497796E+02  0.14022076963E+02 -0.10929335189E+01  0.29045808928E+02  0.00000000000E+00 0. -1.
</event>
<event>
 5    1  0.1055265E-009  0.9118800E+02  0.7815553E-02  0.1125453E+00
         25   -1    0    0    0    0  0.00000000000E+00  0.00000000000E+00  0.99999998245E-14  0.12509000000E+03  0.12509000000E+03 0.  0.
        -11    1    3    3    0    0  0.32841396543E+02 -0.20124446707E+02  0.67067622101E+01  0.39096436433E+02  0.51100000000E-03 0.  1.
         23    2    1    0    0    0 -0.20203517203E+02 -0.35426108420E+00  0.19363363229E+02  0.97103441729E+02  0.92982960545E+02 0.  0.
         11    1    3    3    0    0 -0.53044913746E+02  0.19770185623E+02  0.12656601019E+02  0.58007005297E+02  0.51100000000E-03 0. -1.
         22    1    1    0    0    0  0.20203517203E+02  0.35426108420E+00 -0.19363363229E+02  0.27986558271E+02  0.00000000000E+00 0. -1.
</event>
<event>
 5    1  0.1055265E-009  0.9118800E+02  0.7815553E-02  0.1125453E+00
         25   -1    0    0    0    0  0.00000000000E+00  0.00000000000E+00  0.99999998245E-14  0.12509000000E+03  0.12509000000E+03 0.  0.
        -11    1    3    3    0    0  0.14257605326E+02  0.21867690297E+02 -0.42854682407E+02  0.50179667127E+02  0.51100000000E-03 0. -1.
         23    2    1    0    0    0  0.21260941328E+02 -0.13619118810E+02 -0.18585920915E+02  0.93738054613E+02  0.88339563068E+02 0.  0.
         11    1    3    3    0    0  0.70033360017E+01 -0.35486809107E+02  0.24268761492E+02  0.43558387485E+02  0.51100000000E-03 0.  1.
         22    1    1    0    0    0 -0.21260941328E+02  0.13619118810E+02  0.18585920915E+02  0.31351945387E+02  0.00000000000E+00 0. -1.
</event>
<event>
 5    1  0.1055265E-009  0.9118800E+02  0.7815553E-02  0.1125453E+00
         25   -1    0    0    0    0  0.00000000000E+00  0.00000000000E+00  0.99999998245E-14  0.12509000000E+03  0.12509000000E+03 0.  0.
        -11    1    3    3    0    0 -0.13820794540E+02  0.45120050093E+02 -0.39765588426E+02  0.61710090790E+02  0.51100000000E-03 0. -1.
         23    2    1    0    0    0 -0.74758399391E+01  0.16134540669E+02 -0.23726289380E+02  0.95439563357E+02  0.90716932601E+02 0.  0.
         11    1    3    3    0    0  0.63449546006E+01 -0.28985509425E+02  0.16039299046E+02  0.33729472567E+02  0.51100000000E-03 0.  1.
         22    1    1    0    0    0  0.74758399391E+01 -0.16134540669E+02  0.23726289380E+02  0.29650436643E+02  0.00000000000E+00 0. -1.
</event>
<event>
 5    1  0.1055265E-009  0.9118800E+02  0.7815553E-02  0.1125453E+00
         25   -1    0    0    0    0  0.00000000000E+00  0.00000000000E+00  0.99999998245E-14  0.12509000000E+03  0.12509000000E+03 0.  0.
        -11    1    3    3    0    0  0.15294730465E+02  0.84221568724E+00 -0.29998021026E+02  0.33682627169E+02  0.51100000000E-03 0. -1.
         23    2    1    0    0    0 -0.23850777344E+02 -0.18447543196E+00  0.17694549733E+02  0.95391671742E+02  0.90650870577E+02 0.  0.
         11    1    3    3    0    0 -0.39145507809E+02 -0.10266911192E+01  0.47692570758E+02  0.61709044573E+02  0.51100000000E-03 0.  1.
         22    1    1    0    0    0  0.23850777344E+02  0.18447543196E+00 -0.17694549733E+02  0.29698328258E+02  0.00000000000E+00 0.  1.
</event>
<event>
 5    1  0.1055265E-009  0.9118800E+02  0.7815553E-02  0.1125453E+00
         25   -1    0    0    0    0  0.00000000000E+00  0.00000000000E+00  0.99999998245E-14  0.12509000000E+03  0.12509000000E+03 0.  0.
        -11    1    3    3    0    0  0.34586818380E+02  0.52422812358E+01 -0.23064932718E+02  0.41901320263E+02  0.51100000000E-03 0.  1.
         23    2    1    0    0    0  0.12617621120E+02 -0.27850967472E+00  0.26135967307E+02  0.96066376563E+02  0.91577169581E+02 0.  0.
         11    1    3    3    0    0 -0.21969197259E+02 -0.55207909105E+01  0.49200900025E+02  0.54165056300E+02  0.51100000000E-03 0. -1.
         22    1    1    0    0    0 -0.12617621120E+02  0.27850967472E+00 -0.26135967307E+02  0.29023623437E+02  0.00000000000E+00 0. -1.
</event>
<event>
 5    1  0.1055265E-009  0.9118800E+02  0.7815553E-02  0.1125453E+00
         25   -1    0    0    0    0  0.00000000000E+00  0.00000000000E+00  0.99999998245E-14  0.12509000000E+03  0.12509000000E+03 0.  0.
        -11    1    3    3    0    0 -0.40371049593E+02 -0.12774263546E+02  0.44359166738E+02  0.61324865498E+02  0.51100000000E-03 0. -1.
         23    2    1    0    0    0 -0.24725933750E+02 -0.29681268346E+01  0.14968544913E+02  0.96034210327E+02  0.91533221508E+02 0.  0.
         11    1    3    3    0    0  0.15645115842E+02  0.98061367117E+01 -0.29390621825E+02  0.34709344829E+02  0.51100000000E-03 0.  1.
         22    1    1    0    0    0  0.24725933750E+02  0.29681268346E+01 -0.14968544913E+02  0.29055789673E+02  0.00000000000E+00 0. -1.
</event>
<event>
 5    1  0.1055265E-009  0.9118800E+02  0.7815553E-02  0.1125453E+00
         25   -1    0    0    0    0  0.00000000000E+00  0.00000000000E+00  0.99999998245E-14  0.12509000000E+03  0.12509000000E+03 0.  0.
        -11    1    3    3    0    0 -0.32702870965E+02 -0.98604511235E+01  0.74077234786E+01  0.34951117766E+02  0.51100000000E-03 0. -1.
         23    2    1    0    0    0  0.20013584877E+02  0.14470620742E+02 -0.13842422332E+02  0.96778251550E+02  0.92544448093E+02 0.  0.
         11    1    3    3    0    0  0.52716455842E+02  0.24331071866E+02 -0.21250145811E+02  0.61827133784E+02  0.51100000000E-03 0.  1.
         22    1    1    0    0    0 -0.20013584877E+02 -0.14470620742E+02  0.13842422332E+02  0.28311748450E+02  0.00000000000E+00 0.  1.
</event>
<event>
 5    1  0.1055265E-009  0.9118800E+02  0.7815553E-02  0.1125453E+00
         25   -1    0    0    0    0  0.00000000000E+00  0.00000000000E+00  0.99999998245E-14  0.12509000000E+03  0.12509000000E+03 0.  0.
        -11    1    3    3    0    0 -0.93355117536E+01 -0.86385548450E+01 -0.33395050309E+02  0.35735217852E+02  0.51100000000E-03 0.  1.
         23    2    1    0    0    0  0.47445451881E+01  0.35359641854E+02 -0.77167624326E+01  0.88588446560E+02  0.80718953538E+02 0.  0.
         11    1    3    3    0    0  0.14080056942E+02  0.43998196699E+02  0.25678287877E+02  0.52853228708E+02  0.51100000000E-03 0. -1.
         22    1    1    0    0    0 -0.47445451881E+01 -0.35359641854E+02  0.77167624326E+01  0.36501553440E+02  0.00000000000E+00 0. -1.
</event>
<event>
 5    1  0.1055265E-009  0.9118800E+02  0.7815553E-02  0.1125453E+00
         25   -1    0    0    0    0  0.00000000000E+00  0.00000000000E+00  0.99999998245E-14  0.12509000000E+03  0.12509000000E+03 0.  0.
        -11    1    3    3    0    0 -0.44774198884E+02  0.42536631398E+02  0.15758232087E+01  0.61778451870E+02  0.51100000000E-03 0. -1.
         23    2    1    0    0    0 -0.25567558031E+02  0.17028428641E+02  0.52700725260E+01  0.93922050596E+02  0.88599720756E+02 0.  0.
         11    1    3    3    0    0  0.19206640853E+02 -0.25508202757E+02  0.36942493173E+01  0.32143598726E+02  0.51100000000E-03 0.  1.
         22    1    1    0    0    0  0.25567558031E+02 -0.17028428641E+02 -0.52700725260E+01  0.31167949404E+02  0.00000000000E+00 0. -1.
</event>
<event>
 5    1  0.1055265E-009  0.9118800E+02  0.7815553E-02  0.1125453E+00
         25   -1    0    0    0    0  0.00000000000E+00  0.00000000000E+00  0.99999998245E-14  0.12509000000E+03  0.12509000000E+03 0.  0.
        -11    1    3    3    0    0  0.41052755158E+02 -0.14169883026E+02 -0.11465129759E+02  0.44917296131E+02  0.51100000000E-03 0.  1.
         23    2    1    0    0    0 -0.63925706181E+01 -0.27837721067E+02 -0.11519838425E+02  0.94292104769E+02  0.89120652326E+02 0.  0.
         11    1    3    3    0    0 -0.47445325776E+02 -0.13667838041E+02 -0.54708665851E-01  0.49374808638E+02  0.51100000000E-03 0. -1.
         22    1    1    0    0    0  0.63925706181E+01  0.27837721067E+02  0.11519838425E+02  0.30797895231E+02  0.00000000000E+00 0.  1.
</event>
<event>
 5    1  0.1055265E-009  0.9118800E+02  0.7815553E-02  0.1125453E+00
         25   -1    0    0    0    0  0.00000000000E+00  0.00000000000E+00  0.99999998245E-14  0.12509000000E+03  0.12509000000E+03 0.  0.
        -11    1    3    3    0    0  0.38364391043E+02 -0.36179419824E+02 -0.22994678606E+02  0.57528533471E+02  0.51100000000E-03 0.  1.
         23    2    1    0    0    0 -0.12821131118E+01 -0.47737641859E+01 -0.15700179371E+02  0.10863010113E+03  0.10737583807E+03 0.  0.
         11    1    3    3    0    0 -0.39646504155E+02  0.31405655638E+02  0.72944992344E+01  0.51101567658E+02  0.51100000000E-03 0. -1.
         22    1    1    0    0    0  0.12821131118E+01  0.47737641859E+01  0.15700179371E+02  0.16459898871E+02  0.00000000000E+00 0.  1.
</event>
<event>
 5    1  0.1055265E-009  0.9118800E+02  0.7815553E-02  0.1125453E+00
         25   -1    0    0    0    0  0.00000000000E+00  0.00000000000E+00  0.99999998245E-14  0.12509000000E+03  0.12509000000E+03 0.  0.
        -11    1    3    3    0    0 -0.76427314106E+01 -0.31189206977E+02  0.19757920367E+02  0.37703493111E+02  0.51100000000E-03 0. -1.
         23    2    1    0    0    0 -0.18238097966E+02  0.21768452610E+02 -0.34429638545E+01  0.96483222017E+02  0.92144801178E+02 0.  0.
         11    1    3    3    0    0 -0.10595366556E+02  0.52957659587E+02 -0.23200884222E+02  0.58779728906E+02  0.51100000000E-03 0.  1.
         22    1    1    0    0    0  0.18238097966E+02 -0.21768452610E+02  0.34429638545E+01  0.28606777983E+02  0.00000000000E+00 0.  1.
</event>
<event>
 5    1  0.1055265E-009  0.9118800E+02  0.7815553E-02  0.1125453E+00
         25   -1    0    0    0    0  0.00000000000E+00  0.00000000000E+00  0.99999998245E-14  0.12509000000E+03  0.12509000000E+03 0.  0.
        -11    1    3    3    0    0  0.15382465418E+02 -0.16282519225E+02 -0.93413426694E+01  0.24269350172E+02  0.51100000000E-03 0. -1.
         23    2    1    0    0    0 -0.28687379956E+02  0.24309478757E+02 -0.15329347486E+02  0.84483283554E+02  0.74084544809E+02 0.  0.
         11    1    3    3    0    0 -0.44069845374E+02  0.40591997982E+02 -0.59880048167E+01  0.60213933382E+02  0.51100000000E-03 0.  1.
         22    1    1    0    0    0  0.28687379956E+02 -0.24309478757E+02  0.15329347486E+02  0.40606716446E+02  0.00000000000E+00 0.  1.
</event>
<event>
 5    1  0.1055265E-009  0.9118800E+02  0.7815553E-02  0.1125453E+00
         25   -1    0    0    0    0  0.00000000000E+00  0.00000000000E+00  0.99999998245E-14  0.12509000000E+03  0.12509000000E+03 0.  0.
        -11    1    3    3    0    0  0.34798635962E+02  0.36175546459E+02 -0.26357329676E+02  0.56695009077E+02  0.51100000000E-03 0.  1.
         23    2    1    0    0    0  0.26491856069E+02  0.11754448028E+02  0.32068484634E+01  0.95930621346E+02  0.91391546372E+02 0.  0.
         11    1    3    3    0    0 -0.83067798922E+01 -0.24421098431E+02  0.29564178139E+02  0.39235612268E+02  0.51100000000E-03 0. -1.
         22    1    1    0    0    0 -0.26491856069E+02 -0.11754448028E+02 -0.32068484634E+01  0.29159378654E+02  0.00000000000E+00 0.  1.
</event>
<event>
 5    1  0.1055265E-009  0.9118800E+02  0.7815553E-02  0.1125453E+00
         25   -1    0    0    0    0  0.00000000000E+00  0.00000000000E+00  0.99999998245E-14  0.12509000000E+03  0.12509000000E+03 0.  0.
        -11    1    3    3    0    0  0.42544475637E+01  0.23531135036E+02 -0.47922438245E+02  0.53557209858E+02  0.51100000000E-03 0. -1.
         23    2    1    0    0    0  0.88483954306E+01  0.27474132891E+02 -0.63916620537E+01  0.95526924659E+02  0.90837315631E+02 0.  0.
         11    1    3    3    0    0  0.45939478669E+01  0.39429978548E+01  0.41530776192E+02  0.41969714800E+02  0.51100000000E-03 0.  1.
         22    1    1    0    0    0 -0.88483954306E+01 -0.27474132891E+02  0.63916620537E+01  0.29563075341E+02  0.00000000000E+00 0. -1.
</event>
<event>
 5    1  0.1055265E-009  0.9118800E+02  0.7815553E-02  0.1125453E+00
         25   -1    0    0    0    0  0.00000000000E+00  0.00000000000E+00  0.99999998245E-14  0.12509000000E+03  0.12509000000E+03 0.  0.
        -11    1    3    3    0    0 -0.32708655640E+02  0.92204348305E+01 -0.44881962204E+02  0.56296208609E+02  0.51100000000E-03 0.  1.
         23    2    1    0    0    0 -0.26518293143E+02 -0.69783275297E+01 -0.88632513517E+01  0.96272051585E+02  0.91857682125E+02 0.  0.
         11    1    3    3    0    0  0.61903624961E+01 -0.16198762360E+02  0.36018710853E+02  0.39975842975E+02  0.51100000000E-03 0. -1.
         22    1    1    0    0    0  0.26518293143E+02  0.69783275297E+01  0.88632513517E+01  0.28817948415E+02  0.00000000000E+00 0.  1.
</event>
<event>
 5    1  0.1055265E-009  0.9118800E+02  0.7815553E-02  0.1125453E+00
         25   -1    0    0    0    0  0.00000000000E+00  0.00000000000E+00  0.99999998245E-14  0.12509000000E+03  0.12509000000E+03 0.  0.
        -11    1    3    3    0    0  0.68286481644E+01 -0.40653000878E+02 -0.28532826157E+02  0.50134011259E+02  0.51100000000E-03 0. -1.
         23    2    1    0    0    0 -0.11725399915E+02 -0.87011598994E+00 -0.28747130076E+02  0.94031352370E+02  0.88753904905E+02 0.  0.
         11    1    3    3    0    0 -0.18554048080E+02  0.39782884888E+02 -0.21430391905E+00  0.43897341111E+02  0.51100000000E-03 0.  1.
         22    1    1    0    0    0  0.11725399915E+02  0.87011598994E+00  0.28747130076E+02  0.31058647630E+02  0.00000000000E+00 0. -1.
</event>
<event>
 5    1  0.1055265E-009  0.9118800E+02  0.7815553E-02  0.1125453E+00
         25   -1    0    0    0    0  0.00000000000E+00  0.00000000000E+00  0.99999998245E-14  0.12509000000E+03  0.12509000000E+03 0.  0.
        -11    1    3    3    0    0 -0.50360408490E+02  0.33060627657E+02 -0.83538758570E+01  0.60819101329E+02  0.51100000000E-03 0. -1.
         23    2    1    0    0    0 -0.28638518559E+02  0.64190924391E+01 -0.41008502082E+01  0.95455788936E+02  0.90739303369E+02 0.  0.
         11    1    3    3    0    0  0.21721889931E+02 -0.26641535218E+02  0.42530256487E+01  0.34636687607E+02  0.51100000000E-03 0.  1.
         22    1    1    0    0    0  0.28638518559E+02 -0.64190924391E+01  0.41008502082E+01  0.29634211064E+02  0.00000000000E+00 0. -1.
</event>
<event>
 5    1  0.1055265E-009  0.9118800E+02  0.7815553E-02  0.1125453E+00
         25   -1    0    0    0    0  0.00000000000E+00  0.00000000000E+00  0.99999998245E-14  0.12509000000E+03  0.12509000000E+03 0.  0.
        -11    1    3    3    0    0 -0.42269477168E+02 -0.88133894787E+01 -0.43423717703E+02  0.61237274544E+02  0.51100000000E-03 0.  1.
         23    2    1    0    0    0 -0.27257077869E+02  0.11227065266E+01 -0.17936192091E+02  0.92441634794E+02  0.86484334378E+02 0.  0.
         11    1    3    3    0    0  0.15012399299E+02  0.99360960053E+01  0.25487525612E+02  0.31204360250E+02  0.51100000000E-03 0. -1.
         22    1    1    0    0    0  0.27257077869E+02 -0.11227065266E+01  0.17936192091E+02  0.32648365206E+02  0.00000000000E+00 0.  1.
</event>
<event>
 5    1  0.1055265E-009  0.9118800E+02  0.7815553E-02  0.1125453E+00
         25   -1    0    0    0    0  0.00000000000E+00  0.00000000000E+00  0.99999998245E-14  0.12509000000E+03  0.12509000000E+03 0.  0.
        -11    1    3    3    0    0 -0.46660321578E+00 -0.37163477900E+02  0.11219447098E+02  0.38822903055E+02  0.51100000000E-03 0.  1.
         23    2    1    0    0    0 -0.27913998315E+02  0.10405645394E+02 -0.17324628543E+01  0.95249252932E+02  0.90454132015E+02 0.  0.
         11    1    3    3    0    0 -0.27447395100E+02  0.47569123294E+02 -0.12951909953E+02  0.56426349877E+02  0.51100000000E-03 0. -1.
         22    1    1    0    0    0  0.27913998315E+02 -0.10405645394E+02  0.17324628543E+01  0.29840747068E+02  0.00000000000E+00 0. -1.
</event>
<event>
 5    1  0.1055265E-009  0.9118800E+02  0.7815553E-02  0.1125453E+00
         25   -1    0    0    0    0  0.00000000000E+00  0.00000000000E+00  0.99999998245E-14  0.12509000000E+03  0.12509000000E+03 0.  0.
        -11    1    3    3    0    0  0.45629231702E+01 -0.20353774209E+02  0.31807478090E+02  0.38036982729E+02  0.51100000000E-03 0.  1.
         23    2    1    0    0    0 -0.24420841481E+02  0.17950425209E+02  0.16847152868E+01  0.94734876389E+02  0.89739975903E+02 0.  0.
         11    1    3    3    0    0 -0.28983764651E+02  0.38304199418E+02 -0.30122762803E+02  0.56697893661E+02  0.51100000000E-03 0. -1.
         22    1    1    0    0    0  0.24420841481E+02 -0.17950425209E+02 -0.16847152868E+01  0.30355123611E+02  0.00000000000E+00 0. -1.
</event>
<event>
 5    1  0.1055265E-009  0.9118800E+02  0.7815553E-02  0.1125453E+00
         25   -1    0    0    0    0  0.00000000000E+00  0.00000000000E+00  0.99999998245E-14  0.12509000000E+03  0.12509000000E+03 0.  0.
        -11    1    3    3    0    0  0.26359769623E+01  0.25125411032E+02 -0.31930101119E+02  0.40715672803E+02  0.51100000000E-03 0.  1.
         23    2    1    0    0    0  0.60253398928E+01 -0.25958708103E+02 -0.77358607752E+01  0.97341075892E+02  0.93302102156E+02 0.  0.
         11    1    3    3    0    0  0.33893629305E+01 -0.51084119135E+02  0.24194240344E+02  0.56625403089E+02  0.51100000000E-03 0. -1.
         22    1    1    0    0    0 -0.60253398928E+01  0.25958708103E+02  0.77358607752E+01  0.27748924108E+02  0.00000000000E+00 0. -1.
</event>
<event>
 5    1  0.1055265E-009  0.9118800E+02  0.7815553E-02  0.1125453E+00
         25   -1    0    0    0    0  0.00000000000E+00  0.00000000000E+00  0.99999998245E-14  0.12509000000E+03  0.12509000000E+03 0.  0.
        -11    1    3    3    0    0  0.26480986521E+02 -0.28441644696E+02 -0.43995039502E+02  0.58700368833E+02  0.51100000000E-03 0. -1.
         23    2    1    0    0    0  0.19009797320E+02  0.53728099439E+00 -0.22943919979E+02  0.95289252878E+02  0.90509431471E+02 0.  0.
         11    1    3    3    0    0 -0.74711892011E+01  0.28978925690E+02  0.21051119523E+02  0.36588884045E+02  0.51100000000E-03 0.  1.
         22    1    1    0    0    0 -0.19009797320E+02 -0.53728099439E+00  0.22943919979E+02  0.29800747122E+02  0.00000000000E+00 0. -1.
</event>
<event>
 5    1  0.1055265E-009  0.9118800E+02  0.7815553E-02  0.1125453E+00
         25   -1    0    0    0    0  0.00000000000E+00  0.00000000000E+00  0.99999998245E-14  0.12509000000E+03  0.12509000000E+03 0.  0.
        -11    1    3    3    0    0 -0.14380857814E+02 -0.30254307730E+02  0.24006822015E+02  0.41212373279E+02  0.51100000000E-03 0. -1.
         23    2    1    0    0    0 -0.19260876133E+02  0.19484872581E+02 -0.21250904410E+01  0.97609868663E+02  0.93661778983E+02 0.  0.
         11    1    3    3    0    0 -0.48800183184E+01  0.49739180311E+02 -0.26131912456E+02  0.56397495385E+02  0.51100000000E-03 0.  1.
         22    1    1    0    0    0  0.19260876133E+02 -0.19484872581E+02  0.21250904410E+01  0.27480131337E+02  0.00000000000E+00 0.  1.
</event>
<event>
 5    1  0.1055265E-009  0.9118800E+02  0.7815553E-02  0.1125453E+00
         25   -1    0    0    0    0  0.00000000000E+00  0.00000000000E+00  0.99999998245E-14  0.12509000000E+03  0.12509000000E+03 0.  0.
        -11    1    3    3    0    0  0.30790491756E+02 -0.98556548428E+01  0.37128101506E+02  0.49230927644E+02  0.51100000000E-03 0. -1.
         23    2    1    0    0    0  0.30645027467E+02  0.93899793119E+01 -0.21455618590E+01  0.92966910864E+02  0.87240779799E+02 0.  0.
         11    1    3    3    0    0 -0.14546428894E+00  0.19245634155E+02 -0.39273663365E+02  0.43735983220E+02  0.51100000000E-03 0.  1.
         22    1    1    0    0    0 -0.30645027467E+02 -0.93899793119E+01  0.21455618590E+01  0.32123089136E+02  0.00000000000E+00 0. -1.
</event>
<event>
 5    1  0.1055265E-009  0.9118800E+02  0.7815553E-02  0.1125453E+00
         25   -1    0    0    0    0  0.00000000000E+00  0.00000000000E+00  0.99999998245E-14  0.12509000000E+03  0.12509000000E+03 0.  0.
        -11    1    3    3    0    0  0.23214180140E+01 -0.27265146638E+02  0.25435882909E+02  0.37359889486E+02  0.51100000000E-03 0.  1.
         23    2    1    0    0    0  0.19382786971E+02  0.22133792279E+02 -0.41487955577E+00  0.95666041795E+02  0.91028689084E+02 0.  0.
         11    1    3    3    0    0  0.17061368957E+02  0.49398938917E+02 -0.25850762465E+02  0.58306152309E+02  0.51100000000E-03 0. -1.
         22    1    1    0    0    0 -0.19382786971E+02 -0.22133792279E+02  0.41487955577E+00  0.29423958205E+02  0.00000000000E+00 0. -1.
</event>
<event>
 5    1  0.1055265E-009  0.9118800E+02  0.7815553E-02  0.1125453E+00
         25   -1    0    0    0    0  0.00000000000E+00  0.00000000000E+00  0.99999998245E-14  0.12509000000E+03  0.12509000000E+03 0.  0.
        -11    1    3    3    0    0 -0.27195801682E+02  0.29762242472E+02 -0.17503347323E+02  0.43951904099E+02  0.51100000000E-03 0. -1.
         23    2    1    0    0    0 -0.18605629765E+02 -0.15882020521E+01  0.22728346107E+02  0.95674535335E+02  0.91040360006E+02 0.  0.
         11    1    3    3    0    0  0.85901719172E+01 -0.31350444524E+02  0.40231693431E+02  0.51722631236E+02  0.51100000000E-03 0.  1.
         22    1    1    0    0    0  0.18605629765E+02  0.15882020521E+01 -0.22728346107E+02  0.29415464665E+02  0.00000000000E+00 0.  1.
</event>
<event>
 5    1  0.1055265E-009  0.9118800E+02  0.7815553E-02  0.1125453E+00
         25   -1    0    0    0    0  0.00000000000E+00  0.00000000000E+00  0.99999998245E-14  0.12509000000E+03  0.12509000000E+03 0.  0.
        -11    1    3    3    0    0 -0.32433340228E+00 -0.30229744014E+02  0.44000587764E+02  0.53385338242E+02  0.51100000000E-03 0.  1.
         23    2    1    0    0    0  0.84488369238E+01  0.83302168823E+01  0.25334576733E+02  0.97114722756E+02  0.92998135675E+02 0.  0.
         11    1    3    3    0    0  0.87731703261E+01  0.38559960896E+02 -0.18666011031E+02  0.43729384514E+02  0.51100000000E-03 0. -1.
         22    1    1    0    0    0 -0.84488369238E+01 -0.83302168823E+01 -0.25334576733E+02  0.27975277244E+02  0.00000000000E+00 0.  1.
</event>
<event>
 5    1  0.1055265E-009  0.9118800E+02  0.7815553E-02  0.1125453E+00
         25   -1    0    0    0    0  0.00000000000E+00  0.00000000000E+00  0.99999998245E-14  0.12509000000E+03  0.12509000000E+03 0.  0.
        -11    1    3    3    0    0  0.32349563394E+02 -0.21656185585E+02 -0.35183137459E+00  0.38930815705E+02  0.51100000000E-03 0. -1.
         23    2    1    0    0    0 -0.59616126170E+01  0.17778074835E+02 -0.20334534408E+02  0.97429666318E+02  0.93420799715E+02 0.  0.
         11    1    3    3    0    0 -0.38311176011E+02  0.39434260420E+02 -0.19982703033E+02  0.58498850613E+02  0.51100000000E-03 0.  1.
         22    1    1    0    0    0  0.59616126170E+01 -0.17778074835E+02  0.20334534408E+02  0.27660333682E+02  0.00000000000E+00 0.  1.
</event>
<event>
 5    1  0.1055265E-009  0.9118800E+02  0.7815553E-02  0.1125453E+00
         25   -1    0    0    0    0  0.00000000000E+00  0.00000000000E+00  0.99999998245E-14  0.12509000000E+03  0.12509000000E+03 0.  0.
        -11    1    3    3    0    0  0.42325734331E+02 -0.28213673048E+02  0.19329302268E+02  0.54416000037E+02  0.51100000000E-03 0. -1.
         23    2    1    0    0    0  0.90292982042E+01 -0.25985262412E+02 -0.67453127478E+01  0.96765781869E+02  0.92527591603E+02 0.  0.
         11    1    3    3    0    0 -0.33296436127E+02  0.22284106365E+01 -0.26074615016E+02  0.42349781832E+02  0.51100000000E-03 0.  1.
         22    1    1    0    0    0 -0.90292982042E+01  0.25985262412E+02  0.67453127478E+01  0.28324218131E+02  0.00000000000E+00 0. -1.
</event>
<event>
 5    1  0.1055265E-009  0.9118800E+02  0.7815553E-02  0.1125453E+00
         25   -1    0    0    0    0  0.00000000000E+00  0.00000000000E+00  0.99999998245E-14  0.12509000000E+03  0.12509000000E+03 0.  0.
        -11    1    3    3    0    0  0.31058423642E+02  0.10857899974E+01  0.19734398351E+02  0.36813735175E+02  0.51100000000E-03 0. -1.
         23    2    1    0    0    0 -0.11300127724E+02  0.22933723564E+02 -0.14687144515E+02  0.95605075426E+02  0.90944871599E+02 0.  0.
         11    1    3    3    0    0 -0.42358551366E+02  0.21847933567E+02 -0.34421542866E+02  0.58791340251E+02  0.51100000000E-03 0.  1.
         22    1    1    0    0    0  0.11300127724E+02 -0.22933723564E+02  0.14687144515E+02  0.29484924574E+02  0.00000000000E+00 0.  1.
</event>
<event>
 5    1  0.1055265E-009  0.9118800E+02  0.7815553E-02  0.1125453E+00
         25   -1    0    0    0    0  0.00000000000E+00  0.00000000000E+00  0.99999998245E-14  0.12509000000E+03  0.12509000000E+03 0.  0.
        -11    1    3    3    0    0  0.39737536692E+02  0.24014318039E+02 -0.32315452110E+02  0.56568964447E+02  0.51100000000E-03 0.  1.
         23    2    1    0    0    0  0.11051940849E+02  0.18387235010E+02 -0.32907414083E+02  0.85807259395E+02  0.76287299437E+02 0.  0.
         11    1    3    3    0    0 -0.28685595842E+02 -0.56270830298E+01 -0.59196197243E+00  0.29238294948E+02  0.51100000000E-03 0. -1.
         22    1    1    0    0    0 -0.11051940849E+02 -0.18387235010E+02  0.32907414083E+02  0.39282740605E+02  0.00000000000E+00 0.  1.
</event>
<event>
 5    1  0.1055265E-009  0.9118800E+02  0.7815553E-02  0.1125453E+00
         25   -1    0    0    0    0  0.00000000000E+00  0.00000000000E+00  0.99999998245E-14  0.12509000000E+03  0.12509000000E+03 0.  0.
        -11    1    3    3    0    0 -0.32534213484E+02 -0.99522777361E+01 -0.15957029280E+02  0.37578579841E+02  0.51100000000E-03 0.  1.
         23    2    1    0    0    0 -0.23239150591E+01  0.16655079344E+02  0.24969411890E+02  0.94985784692E+02  0.90089042143E+02 0.  0.
         11    1    3    3    0    0  0.30210298424E+02  0.26607357080E+02  0.40926441170E+02  0.57407204851E+02  0.51100000000E-03 0. -1.
         22    1    1    0    0    0  0.23239150591E+01 -0.16655079344E+02 -0.24969411890E+02  0.30104215308E+02  0.00000000000E+00 0. -1.
</event>
<event>
 5    1  0.1055265E-009  0.9118800E+02  0.7815553E-02  0.1125453E+00
         25   -1    0    0    0    0  0.00000000000E+00  0.00000000000E+00  0.99999998245E-14  0.12509000000E+03  0.12509000000E+03 0.  0.
        -11    1    3    3    0    0  0.10233274224E+02  0.49838451764E+02  0.15953890351E+02  0.53320894528E+02  0.51100000000E-03 0.  1.
         23    2    1    0    0    0 -0.18981113123E+02  0.22104060554E+02  0.22610877884E+01  0.95866983962E+02  0.91304402674E+02 0.  0.
         11    1    3    3    0    0 -0.29214387347E+02 -0.27734391210E+02 -0.13692802563E+02  0.42546089435E+02  0.51100000000E-03 0. -1.
         22    1    1    0    0    0  0.18981113123E+02 -0.22104060554E+02 -0.22610877884E+01  0.29223016038E+02  0.00000000000E+00 0.  1.
</event>
<event>
 5    1  0.1055265E-009  0.9118800E+02  0.7815553E-02  0.1125453E+00
         25   -1    0    0    0    0  0.00000000000E+00  0.00000000000E+00  0.99999998245E-14  0.12509000000E+03  0.12509000000E+03 0.  0.
        -11    1    3    3    0    0  0.51715856338E+01 -0.40980426496E+02  0.99921380534E+01  0.42496864318E+02  0.51100000000E-03 0.  1.
         23    2    1    0    0    0 -0.30768636735E+02 -0.64856008027E+01 -0.14581726173E+01  0.93611462999E+02  0.88160125415E+02 0.  0.
         11    1    3    3    0    0 -0.35940222369E+02  0.34494825693E+02 -0.11450310671E+02  0.51114598681E+02  0.51100000000E-03 0. -1.
         22    1    1    0    0    0  0.30768636735E+02  0.64856008027E+01  0.14581726173E+01  0.31478537001E+02  0.00000000000E+00 0.  1.
</event>
<event>
 5    1  0.1055265E-009  0.9118800E+02  0.7815553E-02  0.1125453E+00
         25   -1    0    0    0    0  0.00000000000E+00  0.00000000000E+00  0.99999998245E-14  0.12509000000E+03  0.12509000000E+03 0.  0.
        -11    1    3    3    0    0 -0.21163632536E+02 -0.41776354619E+02  0.18249079980E+02  0.50261238224E+02  0.51100000000E-03 0.  1.
         23    2    1    0    0    0 -0.11751778034E+02  0.20109654481E+01  0.26709087233E+02  0.95840664797E+02  0.91268337439E+02 0.  0.
         11    1    3    3    0    0  0.94118545018E+01  0.43787320067E+02  0.84600072524E+01  0.45579426574E+02  0.51100000000E-03 0. -1.
         22    1    1    0    0    0  0.11751778034E+02 -0.20109654481E+01 -0.26709087233E+02  0.29249335203E+02  0.00000000000E+00 0. -1.
</event>
<event>
 5    1  0.1055265E-009  0.9118800E+02  0.7815553E-02  0.1125453E+00
         25   -1    0    0    0    0  0.00000000000E+00  0.00000000000E+00  0.99999998245E-14  0.12509000000E+03  0.12509000000E+03 0.  0.
        -11    1    3    3    0    0  0.44039565066E+02 -0.18391048187E+02  0.30982815809E+02  0.56900341127E+02  0.51100000000E-03 0. -1.
         23    2    1    0    0    0  0.66321787554E+01 -0.61064886323E+01  0.27177006942E+02  0.96456720327E+02  0.92108817121E+02 0.  0.
         11    1    3    3    0    0 -0.37407386311E+02  0.12284559554E+02 -0.38058088671E+01  0.39556379200E+02  0.51100000000E-03 0.  1.
         22    1    1    0    0    0 -0.66321787554E+01  0.61064886323E+01 -0.27177006942E+02  0.28633279673E+02  0.00000000000E+00 0. -1.
</event>
<event>
 5    1  0.1055265E-009  0.9118800E+02  0.7815553E-02  0.1125453E+00
         25   -1    0    0    0    0  0.00000000000E+00  0.00000000000E+00  0.99999998245E-14  0.12509000000E+03  0.12509000000E+03 0.  0.
        -11    1    3    3    0    0 -0.31409165522E+02  0.20539029136E+02 -0.76827086202E+00  0.37536350875E+02  0.51100000000E-03 0.  1.
         23    2    1    0    0    0  0.24767748563E+02  0.95125236130E+01  0.11644581695E+02  0.96115429128E+02  0.91644148527E+02 0.  0.
         11    1    3    3    0    0  0.56176914085E+02 -0.11026505523E+02  0.12412852557E+02  0.58579078253E+02  0.51100000000E-03 0. -1.
         22    1    1    0    0    0 -0.24767748563E+02 -0.95125236130E+01 -0.11644581695E+02  0.28974570872E+02  0.00000000000E+00 0. -1.
</event>
<event>
 5    1  0.1055265E-009  0.9118800E+02  0.7815553E-02  0.1125453E+00
         25   -1    0    0    0    0  0.00000000000E+00  0.00000000000E+00  0.99999998245E-14  0.12509000000E+03  0.12509000000E+03 0.  0.
        -11    1    3    3    0    0 -0.23152918344E+01 -0.35454461547E+02 -0.28077088323E+01  0.35640744227E+02  0.51100000000E-03 0.  1.
         23    2    1    0    0    0  0.23706986594E+02  0.15881237968E+02  0.10449086620E+02  0.94702200738E+02  0.89694417222E+02 0.  0.
         11    1    3    3    0    0  0.26022278429E+02  0.51335699515E+02  0.13256795452E+02  0.59061456512E+02  0.51100000000E-03 0. -1.
         22    1    1    0    0    0 -0.23706986594E+02 -0.15881237968E+02 -0.10449086620E+02  0.30387799262E+02  0.00000000000E+00 0. -1.
</event>
<event>
 5    1  0.1055265E-009  0.9118800E+02  0.7815553E-02  0.1125453E+00
         25   -1    0    0    0    0  0.00000000000E+00  0.00000000000E+00  0.99999998245E-14  0.12509000000E+03  0.12509000000E+03 0.  0.
        -11    1    3    3    0    0 -0.41473910610E+02  0.43547680194E+01  0.17908674027E+02  0.45384687633E+02  0.51100000000E-03 0.  1.
         23    2    1    0    0    0  0.24413336113E+01 -0.18289467318E+02  0.23613238615E+02  0.95122521587E+02  0.90278703749E+02 0.  0.
         11    1    3    3    0    0  0.43915244222E+02 -0.22644235337E+02  0.57045645877E+01  0.49737833954E+02  0.51100000000E-03 0. -1.
         22    1    1    0    0    0 -0.24413336113E+01  0.18289467318E+02 -0.23613238615E+02  0.29967478413E+02  0.00000000000E+00 0. -1.
</event>
<event>
 5    1  0.1055265E-009  0.9118800E+02  0.7815553E-02  0.1125453E+00
         25   -1    0    0    0    0  0.00000000000E+00  0.00000000000E+00  0.99999998245E-14  0.12509000000E+03  0.12509000000E+03 0.  0.
        -11    1    3    3    0    0 -0.49597176992E+01 -0.32336780973E+02 -0.58199435356E+01  0.33228571236E+02  0.51100000000E-03 0.  1.
         23    2    1    0    0    0  0.28417979296E+01  0.28941144101E+02 -0.76219668766E+01  0.95027398376E+02  0.90146804855E+02 0.  0.
         11    1    3    3    0    0  0.78015156288E+01  0.61277925074E+02 -0.18020233410E+01  0.61798827140E+02  0.51100000000E-03 0. -1.
         22    1    1    0    0    0 -0.28417979296E+01 -0.28941144101E+02  0.76219668766E+01  0.30062601624E+02  0.00000000000E+00 0. -1.
</event>
<event>
 5    1  0.1055265E-009  0.9118800E+02  0.7815553E-02  0.1125453E+00
         25   -1    0    0    0    0  0.00000000000E+00  0.00000000000E+00  0.99999998245E-14  0.12509000000E+03  0.12509000000E+03 0.  0.
        -11    1    3    3    0    0 -0.56601796295E+02  0.81295393362E+01  0.16041703068E+02  0.59390142206E+02  0.51100000000E-03 0. -1.
         23    2    1    0    0    0 -0.26439176845E+02 -0.10284183769E+02  0.74800596675E+01  0.95751530362E+02  0.91146090240E+02 0.  0.
         11    1    3    3    0    0  0.30162619450E+02 -0.18413723105E+02 -0.85616434009E+01  0.36361388156E+02  0.51100000000E-03 0.  1.
         22    1    1    0    0    0  0.26439176845E+02  0.10284183769E+02 -0.74800596675E+01  0.29338469638E+02  0.00000000000E+00 0. -1.
</event>
<event>
 5    1  0.1055265E-009  0.9118800E+02  0.7815553E-02  0.1125453E+00
         25   -1    0    0    0    0  0.00000000000E+00  0.00000000000E+00  0.99999998245E-14  0.12509000000E+03  0.12509000000E+03 0.  0.
        -11    1    3    3    0    0 -0.23521221187E+02 -0.38142410109E+02  0.29951492835E+02  0.53899751561E+02  0.51100000000E-03 0. -1.
         23    2    1    0    0    0 -0.27064788725E+02 -0.84278275570E+00  0.11371152006E+02  0.95721374403E+02  0.91104694436E+02 0.  0.
         11    1    3    3    0    0 -0.35435675374E+01  0.37299627353E+02 -0.18580340829E+02  0.41821622842E+02  0.51100000000E-03 0.  1.
         22    1    1    0    0    0  0.27064788725E+02  0.84278275570E+00 -0.11371152006E+02  0.29368625597E+02  0.00000000000E+00 0.  1.
</event>
<event>
 5    1  0.1055265E-009  0.9118800E+02  0.7815553E-02  0.1125453E+00
         25   -1    0    0    0    0  0.00000000000E+00  0.00000000000E+00  0.99999998245E-14  0.12509000000E+03  0.12509000000E+03 0.  0.
        -11    1    3    3    0    0 -0.79469605315E+01  0.27299325029E+02 -0.17759951698E+02  0.33523472572E+02  0.51100000000E-03 0.  1.
         23    2    1    0    0    0 -0.27631281069E+00 -0.20772386583E+02  0.20850852849E+02  0.95656575842E+02  0.91015680210E+02 0.  0.
         11    1    3    3    0    0  0.76706477208E+01 -0.48071711613E+02  0.38610804547E+02  0.62133103269E+02  0.51100000000E-03 0. -1.
         22    1    1    0    0    0  0.27631281069E+00  0.20772386583E+02 -0.20850852849E+02  0.29433424158E+02  0.00000000000E+00 0. -1.
</event>
<event>
 5    1  0.1055265E-009  0.9118800E+02  0.7815553E-02  0.1125453E+00
         25   -1    0    0    0    0  0.00000000000E+00  0.00000000000E+00  0.99999998245E-14  0.12509000000E+03  0.12509000000E+03 0.  0.
        -11    1    3    3    0    0  0.10612552389E+02 -0.29121957910E+02 -0.83828015992E+01  0.32108971700E+02  0.51100000000E-03 0.  1.
         23    2    1    0    0    0 -0.18115555424E+02  0.58906202319E+01 -0.35432192866E+02  0.84861738214E+02  0.74720824181E+02 0.  0.
         11    1    3    3    0    0 -0.28728107813E+02  0.35012578142E+02 -0.27049391267E+02  0.52752766514E+02  0.51100000000E-03 0. -1.
         22    1    1    0    0    0  0.18115555424E+02 -0.58906202319E+01  0.35432192866E+02  0.40228261786E+02  0.00000000000E+00 0. -1.
</event>
<event>
 5    1  0.1055265E-009  0.9118800E+02  0.7815553E-02  0.1125453E+00
         25   -1    0    0    0    0  0.00000000000E+00  0.00000000000E+00  0.99999998245E-14  0.12509000000E+03  0.12509000000E+03 0.  0.
        -11    1    3    3    0    0  0.19759262130E+02 -0.41397381238E+02 -0.17769878096E+02  0.49192887505E+02  0.51100000000E-03 0.  1.
         23    2    1    0    0    0 -0.48422539967E+01 -0.31312243620E+01 -0.28565394225E+02  0.95948384791E+02  0.91415856431E+02 0.  0.
         11    1    3    3    0    0 -0.24601516127E+02  0.38266156876E+02 -0.10795516129E+02  0.46755497286E+02  0.51100000000E-03 0. -1.
         22    1    1    0    0    0  0.48422539967E+01  0.31312243620E+01  0.28565394225E+02  0.29141615209E+02  0.00000000000E+00 0.  1.
</event>
<event>
 5    1  0.1055265E-009  0.9118800E+02  0.7815553E-02  0.1125453E+00
         25   -1    0    0    0    0  0.00000000000E+00  0.00000000000E+00  0.99999998245E-14  0.12509000000E+03  0.12509000000E+03 0.  0.
        -11    1    3    3    0    0 -0.10545840925E+02  0.32954370668E+02  0.45843756789E+01  0.34903034361E+02  0.51100000000E-03 0.  1.
         23    2    1    0    0    0  0.91300656228E+01 -0.24488098146E+02  0.12471588467E+02  0.96132003385E+02  0.91666768825E+02 0.  0.
         11    1    3    3    0    0  0.19675906548E+02 -0.57442468814E+02  0.78872127879E+01  0.61228969024E+02  0.51100000000E-03 0. -1.
         22    1    1    0    0    0 -0.91300656228E+01  0.24488098146E+02 -0.12471588467E+02  0.28957996615E+02  0.00000000000E+00 0. -1.
</event>
<event>
 5    1  0.1055265E-009  0.9118800E+02  0.7815553E-02  0.1125453E+00
         25   -1    0    0    0    0  0.00000000000E+00  0.00000000000E+00  0.99999998245E-14  0.12509000000E+03  0.12509000000E+03 0.  0.
        -11    1    3    3    0    0 -0.47316770959E+02 -0.64853986109E+01 -0.22035197857E+02  0.52597406343E+02  0.51100000000E-03 0.  1.
         23    2    1    0    0    0 -0.68495682852E+01 -0.14949051714E+02 -0.26208291779E+02  0.94150295884E+02  0.88921386203E+02 0.  0.
         11    1    3    3    0    0  0.40467202674E+02 -0.84636531028E+01 -0.41730939220E+01  0.41552889541E+02  0.51100000000E-03 0. -1.
         22    1    1    0    0    0  0.68495682852E+01  0.14949051714E+02  0.26208291779E+02  0.30939704116E+02  0.00000000000E+00 0.  1.
</event>
<event>
 5    1  0.1055265E-009  0.9118800E+02  0.7815553E-02  0.1125453E+00
         25   -1    0    0    0    0  0.00000000000E+00  0.00000000000E+00  0.99999998245E-14  0.12509000000E+03  0.12509000000E+03 0.  0.
        -11    1    3    3    0    0  0.42534889272E+02  0.18010718397E+02  0.33380836928E+02  0.56990201411E+02  0.51100000000E-03 0. -1.
         23    2    1    0    0    0  0.10241354699E+02  0.24375855346E+02  0.15191088919E+02  0.94596773663E+02  0.89547265368E+02 0.  0.
         11    1    3    3    0    0 -0.32293534574E+02  0.63651369494E+01 -0.18189748009E+02  0.37606572252E+02  0.51100000000E-03 0.  1.
         22    1    1    0    0    0 -0.10241354699E+02 -0.24375855346E+02 -0.15191088919E+02  0.30493226337E+02  0.00000000000E+00 0. -1.
</event>
<event>
 5    1  0.1055265E-009  0.9118800E+02  0.7815553E-02  0.1125453E+00
         25   -1    0    0    0    0  0.00000000000E+00  0.00000000000E+00  0.99999998245E-14  0.12509000000E+03  0.12509000000E+03 0.  0.
        -11    1    3    3    0    0 -0.44564077046E+02 -0.13821374304E+02  0.11988430296E+02  0.48173746085E+02  0.51100000000E-03 0.  1.
         23    2    1    0    0    0  0.27882605928E+01 -0.17037940434E+02  0.22444717257E+02  0.96773376894E+02  0.92537858909E+02 0.  0.
         11    1    3    3    0    0  0.47352337639E+02 -0.32165661303E+01  0.10456286961E+02  0.48599630809E+02  0.51100000000E-03 0. -1.
         22    1    1    0    0    0 -0.27882605928E+01  0.17037940434E+02 -0.22444717257E+02  0.28316623106E+02  0.00000000000E+00 0. -1.
</event>
<event>
 5    1  0.1055265E-009  0.9118800E+02  0.7815553E-02  0.1125453E+00
         25   -1    0    0    0    0  0.00000000000E+00  0.00000000000E+00  0.99999998245E-14  0.12509000000E+03  0.12509000000E+03 0.  0.
        -11    1    3    3    0    0  0.17056969294E+02  0.33935204467E+02 -0.17990127846E+02  0.42025980106E+02  0.51100000000E-03 0.  1.
         23    2    1    0    0    0  0.26022186501E+02 -0.12051764520E+02  0.76147584526E+01  0.95418738405E+02  0.90688212432E+02 0.  0.
         11    1    3    3    0    0  0.89652172074E+01 -0.45986968987E+02  0.25604886298E+02  0.53392758299E+02  0.51100000000E-03 0. -1.
         22    1    1    0    0    0 -0.26022186501E+02  0.12051764520E+02 -0.76147584526E+01  0.29671261595E+02  0.00000000000E+00 0. -1.
</event>
<event>
 5    1  0.1055265E-009  0.9118800E+02  0.7815553E-02  0.1125453E+00
         25   -1    0    0    0    0  0.00000000000E+00  0.00000000000E+00  0.99999998245E-14  0.12509000000E+03  0.12509000000E+03 0.  0.
        -11    1    3    3    0    0 -0.15320420956E+02 -0.36835093907E+02  0.35480835203E+01  0.40051570984E+02  0.51100000000E-03 0.  1.
         23    2    1    0    0    0  0.17508588274E+02  0.31232820372E+01  0.23618270761E+02  0.95524339720E+02  0.90833755902E+02 0.  0.
         11    1    3    3    0    0  0.32829009230E+02  0.39958375944E+02  0.20070187240E+02  0.55472768736E+02  0.51100000000E-03 0. -1.
         22    1    1    0    0    0 -0.17508588274E+02 -0.31232820372E+01 -0.23618270761E+02  0.29565660280E+02  0.00000000000E+00 0. -1.
</event>
<event>
 5    1  0.1055265E-009  0.9118800E+02  0.7815553E-02  0.1125453E+00
         25   -1    0    0    0    0  0.00000000000E+00  0.00000000000E+00  0.99999998245E-14  0.12509000000E+03  0.12509000000E+03 0.  0.
        -11    1    3    3    0    0  0.14857165085E+02 -0.26078037328E+02 -0.47453811537E+02  0.56148585155E+02  0.51100000000E-03 0.  1.
         23    2    1    0    0    0  0.10311807282E+02 -0.27584533763E+02 -0.98776279404E+01  0.94028650929E+02  0.88750097406E+02 0.  0.
         11    1    3    3    0    0 -0.45453578029E+01 -0.15064964347E+01  0.37576183597E+02  0.37880065774E+02  0.51100000000E-03 0. -1.
         22    1    1    0    0    0 -0.10311807282E+02  0.27584533763E+02  0.98776279404E+01  0.31061349071E+02  0.00000000000E+00 0.  1.
</event>
<event>
 5    1  0.1055265E-009  0.9118800E+02  0.7815553E-02  0.1125453E+00
         25   -1    0    0    0    0  0.00000000000E+00  0.00000000000E+00  0.99999998245E-14  0.12509000000E+03  0.12509000000E+03 0.  0.
        -11    1    3    3    0    0 -0.98669393893E+01  0.49588624744E+02 -0.10383808147E+02  0.51616002061E+02  0.51100000000E-03 0. -1.
         23    2    1    0    0    0  0.11799948709E+02  0.20752969993E+02  0.16040665607E+02  0.96328437000E+02  0.91934434619E+02 0.  0.
         11    1    3    3    0    0  0.21666888099E+02 -0.28835654751E+02  0.26424473753E+02  0.44712434939E+02  0.51100000000E-03 0.  1.
         22    1    1    0    0    0 -0.11799948709E+02 -0.20752969993E+02 -0.16040665607E+02  0.28761563000E+02  0.00000000000E+00 0. -1.
</event>
<event>
 5    1  0.1055265E-009  0.9118800E+02  0.7815553E-02  0.1125453E+00
         25   -1    0    0    0    0  0.00000000000E+00  0.00000000000E+00  0.99999998245E-14  0.12509000000E+03  0.12509000000E+03 0.  0.
        -11    1    3    3    0    0  0.14877885791E+02 -0.45673439671E+02  0.13519759309E+02  0.49901888432E+02  0.51100000000E-03 0.  1.
         23    2    1    0    0    0  0.26664314813E+02 -0.65150108399E+00  0.10110456783E+02  0.96565773903E+02  0.92256800372E+02 0.  0.
         11    1    3    3    0    0  0.11786429021E+02  0.45021938587E+02 -0.34093025265E+01  0.46663885471E+02  0.51100000000E-03 0. -1.
         22    1    1    0    0    0 -0.26664314813E+02  0.65150108399E+00 -0.10110456783E+02  0.28524226097E+02  0.00000000000E+00 0.  1.
</event>
<event>
 5    1  0.1055265E-009  0.9118800E+02  0.7815553E-02  0.1125453E+00
         25   -1    0    0    0    0  0.00000000000E+00  0.00000000000E+00  0.99999998245E-14  0.12509000000E+03  0.12509000000E+03 0.  0.
        -11    1    3    3    0    0  0.32348299738E+02 -0.64327338178E+01  0.12926868337E+02  0.35424518142E+02  0.51100000000E-03 0. -1.
         23    2    1    0    0    0 -0.18376718808E+02 -0.17973963661E+02 -0.15865890441E+02  0.94882490283E+02  0.89945501938E+02 0.  0.
         11    1    3    3    0    0 -0.50725018546E+02 -0.11541229843E+02 -0.28792758778E+02  0.59457972141E+02  0.51100000000E-03 0.  1.
         22    1    1    0    0    0  0.18376718808E+02  0.17973963661E+02  0.15865890441E+02  0.30207509717E+02  0.00000000000E+00 0.  1.
</event>
<event>
 5    1  0.1055265E-009  0.9118800E+02  0.7815553E-02  0.1125453E+00
         25   -1    0    0    0    0  0.00000000000E+00  0.00000000000E+00  0.99999998245E-14  0.12509000000E+03  0.12509000000E+03 0.  0.
        -11    1    3    3    0    0 -0.58007665475E+01 -0.49537048216E+00  0.59741352214E+02  0.60024357132E+02  0.51100000000E-03 0.  1.
         23    2    1    0    0    0  0.58672353079E+01  0.88585816424E+01  0.28861285415E+02  0.94334956273E+02  0.89180778536E+02 0.  0.
         11    1    3    3    0    0  0.11668001855E+02  0.93539521245E+01 -0.30880066799E+02  0.34310599141E+02  0.51100000000E-03 0. -1.
         22    1    1    0    0    0 -0.58672353079E+01 -0.88585816424E+01 -0.28861285415E+02  0.30755043727E+02  0.00000000000E+00 0.  1.
</event>
<event>
 5    1  0.1055265E-009  0.9118800E+02  0.7815553E-02  0.1125453E+00
         25   -1    0    0    0    0  0.00000000000E+00  0.00000000000E+00  0.99999998245E-14  0.12509000000E+03  0.12509000000E+03 0.  0.
        -11    1    3    3    0    0  0.23321148857E+02  0.25125943395E+02 -0.21563086916E+01  0.34348779934E+02  0.51100000000E-03 0.  1.
         23    2    1    0    0    0 -0.25943700476E+02 -0.12314241514E+02 -0.28604146096E+01  0.96230025811E+02  0.91800434407E+02 0.  0.
         11    1    3    3    0    0 -0.49264849334E+02 -0.37440184909E+02 -0.70410591795E+00  0.61881245877E+02  0.51100000000E-03 0. -1.
         22    1    1    0    0    0  0.25943700476E+02  0.12314241514E+02  0.28604146096E+01  0.28859974189E+02  0.00000000000E+00 0. -1.
</event>
<event>
 5    1  0.1055265E-009  0.9118800E+02  0.7815553E-02  0.1125453E+00
         25   -1    0    0    0    0  0.00000000000E+00  0.00000000000E+00  0.99999998245E-14  0.12509000000E+03  0.12509000000E+03 0.  0.
        -11    1    3    3    0    0  0.81224290885E+01  0.33476222910E+02  0.31996567158E+02  0.47015015312E+02  0.51100000000E-03 0. -1.
         23    2    1    0    0    0  0.93441672208E+01  0.22303444783E+02 -0.15858371551E+02  0.96172097958E+02  0.91721466228E+02 0.  0.
         11    1    3    3    0    0  0.12217381322E+01 -0.11172778127E+02 -0.47854938709E+02  0.49157082646E+02  0.51100000000E-03 0.  1.
         22    1    1    0    0    0 -0.93441672208E+01 -0.22303444783E+02  0.15858371551E+02  0.28917902042E+02  0.00000000000E+00 0.  1.
</event>
<event>
 5    1  0.1055265E-009  0.9118800E+02  0.7815553E-02  0.1125453E+00
         25   -1    0    0    0    0  0.00000000000E+00  0.00000000000E+00  0.99999998245E-14  0.12509000000E+03  0.12509000000E+03 0.  0.
        -11    1    3    3    0    0  0.18128553362E+02 -0.41342316591E+02  0.29421612122E+02  0.53883790218E+02  0.51100000000E-03 0.  1.
         23    2    1    0    0    0 -0.84630140035E+01 -0.27737515547E+02 -0.39361393976E+00  0.96087460341E+02  0.91605964478E+02 0.  0.
         11    1    3    3    0    0 -0.26591567366E+02  0.13604801044E+02 -0.29815226062E+02  0.42203670123E+02  0.51100000000E-03 0. -1.
         22    1    1    0    0    0  0.84630140035E+01  0.27737515547E+02  0.39361393976E+00  0.29002539659E+02  0.00000000000E+00 0.  1.
</event>
<event>
 5    1  0.1055265E-009  0.9118800E+02  0.7815553E-02  0.1125453E+00
         25   -1    0    0    0    0  0.00000000000E+00  0.00000000000E+00  0.99999998245E-14  0.12509000000E+03  0.12509000000E+03 0.  0.
        -11    1    3    3    0    0  0.23723357633E+02 -0.33346548332E+02 -0.19352210585E+02  0.45269173152E+02  0.51100000000E-03 0. -1.
         23    2    1    0    0    0  0.25562123952E+02  0.42877188572E+01  0.14037233947E+02  0.95613727325E+02  0.90956771063E+02 0.  0.
         11    1    3    3    0    0  0.18387663191E+01  0.37634267189E+02  0.33389444532E+02  0.50344554173E+02  0.51100000000E-03 0.  1.
         22    1    1    0    0    0 -0.25562123952E+02 -0.42877188572E+01 -0.14037233947E+02  0.29476272675E+02  0.00000000000E+00 0.  1.
</event>
<event>
 5    1  0.1055265E-009  0.9118800E+02  0.7815553E-02  0.1125453E+00
         25   -1    0    0    0    0  0.00000000000E+00  0.00000000000E+00  0.99999998245E-14  0.12509000000E+03  0.12509000000E+03 0.  0.
        -11    1    3    3    0    0  0.18548661419E+02 -0.40423859070E+02  0.94473521712E+01  0.45468601098E+02  0.51100000000E-03 0.  1.
         23    2    1    0    0    0  0.24097893562E+02  0.72628607791E+01  0.17886326635E+02  0.94213175336E+02  0.89009797806E+02 0.  0.
         11    1    3    3    0    0  0.55492321432E+01  0.47686719849E+02  0.84389744640E+01  0.48744574237E+02  0.51100000000E-03 0. -1.
         22    1    1    0    0    0 -0.24097893562E+02 -0.72628607791E+01 -0.17886326635E+02  0.30876824664E+02  0.00000000000E+00 0. -1.
</event>
<event>
 5    1  0.1055265E-009  0.9118800E+02  0.7815553E-02  0.1125453E+00
         25   -1    0    0    0    0  0.00000000000E+00  0.00000000000E+00  0.99999998245E-14  0.12509000000E+03  0.12509000000E+03 0.  0.
        -11    1    3    3    0    0 -0.12073436388E+02  0.54396887379E+02  0.27581841695E+02  0.62173525027E+02  0.51100000000E-03 0.  1.
         23    2    1    0    0    0 -0.14248163933E+01  0.28660540710E+02  0.13922435667E+02  0.93195001796E+02  0.87567216750E+02 0.  0.
         11    1    3    3    0    0  0.10648619995E+02 -0.25736346669E+02 -0.13659406028E+02  0.31021476769E+02  0.51100000000E-03 0. -1.
         22    1    1    0    0    0  0.14248163933E+01 -0.28660540710E+02 -0.13922435667E+02  0.31894998204E+02  0.00000000000E+00 0.  1.
</event>
<event>
 5    1  0.1055265E-009  0.9118800E+02  0.7815553E-02  0.1125453E+00
         25   -1    0    0    0    0  0.00000000000E+00  0.00000000000E+00  0.99999998245E-14  0.12509000000E+03  0.12509000000E+03 0.  0.
        -11    1    3    3    0    0 -0.99004904122E+01 -0.16990924153E+02  0.32392173380E+02  0.37894117097E+02  0.51100000000E-03 0.  1.
         23    2    1    0    0    0  0.23450075056E+02  0.18173873691E+02  0.14654339997E+01  0.95385737647E+02  0.90642681694E+02 0.  0.
         11    1    3    3    0    0  0.33350565469E+02  0.35164797845E+02 -0.30926739381E+02  0.57491620551E+02  0.51100000000E-03 0. -1.
         22    1    1    0    0    0 -0.23450075056E+02 -0.18173873691E+02 -0.14654339997E+01  0.29704262353E+02  0.00000000000E+00 0. -1.
</event>
<event>
 5    1  0.1055265E-009  0.9118800E+02  0.7815553E-02  0.1125453E+00
         25   -1    0    0    0    0  0.00000000000E+00  0.00000000000E+00  0.99999998245E-14  0.12509000000E+03  0.12509000000E+03 0.  0.
        -11    1    3    3    0    0 -0.27959219077E+02 -0.41426489774E+01  0.16896691427E+02  0.32929889970E+02  0.51100000000E-03 0.  1.
         23    2    1    0    0    0  0.14665545025E+02 -0.47045338626E+01 -0.26928776744E+02  0.94067913245E+02  0.88805418954E+02 0.  0.
         11    1    3    3    0    0  0.42624764102E+02 -0.56188488516E+00 -0.43825468171E+02  0.61138023275E+02  0.51100000000E-03 0. -1.
         22    1    1    0    0    0 -0.14665545025E+02  0.47045338626E+01  0.26928776744E+02  0.31022086755E+02  0.00000000000E+00 0. -1.
</event>
<event>
 5    1  0.1055265E-009  0.9118800E+02  0.7815553E-02  0.1125453E+00
         25   -1    0    0    0    0  0.00000000000E+00  0.00000000000E+00  0.99999998245E-14  0.12509000000E+03  0.12509000000E+03 0.  0.
        -11    1    3    3    0    0 -0.27724151602E+02  0.31416997828E+02 -0.66020340841E+01  0.42417486829E+02  0.51100000000E-03 0.  1.
         23    2    1    0    0    0  0.23438011426E+02  0.17453931169E+02  0.55097423125E-01  0.95867010273E+02  0.91304438720E+02 0.  0.
         11    1    3    3    0    0  0.51162163028E+02 -0.13963066659E+02  0.66571315072E+01  0.53449523444E+02  0.51100000000E-03 0. -1.
         22    1    1    0    0    0 -0.23438011426E+02 -0.17453931169E+02 -0.55097423125E-01  0.29222989727E+02  0.00000000000E+00 0. -1.
</event>
<event>
 5    1  0.1055265E-009  0.9118800E+02  0.7815553E-02  0.1125453E+00
         25   -1    0    0    0    0  0.00000000000E+00  0.00000000000E+00  0.99999998245E-14  0.12509000000E+03  0.12509000000E+03 0.  0.
        -11    1    3    3    0    0 -0.41012392854E+02  0.36870170695E+02  0.28162019633E+02  0.61923543218E+02  0.51100000000E-03 0.  1.
         23    2    1    0    0    0 -0.22497155809E+02  0.17412120364E+02  0.79096994547E+01  0.95562600850E+02  0.90886431224E+02 0.  0.
         11    1    3    3    0    0  0.18515237045E+02 -0.19458050330E+02 -0.20252320179E+02  0.33639057632E+02  0.51100000000E-03 0. -1.
         22    1    1    0    0    0  0.22497155809E+02 -0.17412120364E+02 -0.79096994547E+01  0.29527399150E+02  0.00000000000E+00 0.  1.
</event>
<event>
 5    1  0.1055265E-009  0.9118800E+02  0.7815553E-02  0.1125453E+00
         25   -1    0    0    0    0  0.00000000000E+00  0.00000000000E+00  0.99999998245E-14  0.12509000000E+03  0.12509000000E+03 0.  0.
        -11    1    3    3    0    0 -0.37104852426E+02  0.25870346368E+02 -0.50908008056E+00  0.45236092421E+02  0.51100000000E-03 0. -1.
         23    2    1    0    0    0 -0.70748746845E+01 -0.82140221877E+01 -0.25712452901E+02  0.97185623166E+02  0.93093453603E+02 0.  0.
         11    1    3    3    0    0  0.30029977741E+02 -0.34084368555E+02 -0.25203372820E+02  0.51949530746E+02  0.51100000000E-03 0.  1.
         22    1    1    0    0    0  0.70748746845E+01  0.82140221877E+01  0.25712452901E+02  0.27904376834E+02  0.00000000000E+00 0. -1.
</event>
<event>
 5    1  0.1055265E-009  0.9118800E+02  0.7815553E-02  0.1125453E+00
         25   -1    0    0    0    0  0.00000000000E+00  0.00000000000E+00  0.99999998245E-14  0.12509000000E+03  0.12509000000E+03 0.  0.
        -11    1    3    3    0    0 -0.16946584659E+02  0.18421377704E+02 -0.29723943603E+02  0.38859319495E+02  0.51100000000E-03 0.  1.
         23    2    1    0    0    0 -0.92684592298E+01  0.36372924659E+01  0.26120819635E+02  0.97135904568E+02  0.93026622560E+02 0.  0.
         11    1    3    3    0    0  0.76781254290E+01 -0.14784085238E+02  0.55844763238E+02  0.58276585073E+02  0.51100000000E-03 0. -1.
         22    1    1    0    0    0  0.92684592298E+01 -0.36372924659E+01 -0.26120819635E+02  0.27954095432E+02  0.00000000000E+00 0. -1.
</event>
<event>
 5    1  0.1055265E-009  0.9118800E+02  0.7815553E-02  0.1125453E+00
         25   -1    0    0    0    0  0.00000000000E+00  0.00000000000E+00  0.99999998245E-14  0.12509000000E+03  0.12509000000E+03 0.  0.
        -11    1    3    3    0    0  0.12570141629E+02 -0.10253013816E+02  0.38541080994E+02  0.41815639148E+02  0.51100000000E-03 0. -1.
         23    2    1    0    0    0 -0.17896894839E+02  0.21686996538E+02  0.68646368156E+01  0.96146124960E+02  0.91686037337E+02 0.  0.
         11    1    3    3    0    0 -0.30467036468E+02  0.31940010353E+02 -0.31676444179E+02  0.54330485812E+02  0.51100000000E-03 0.  1.
         22    1    1    0    0    0  0.17896894839E+02 -0.21686996538E+02 -0.68646368156E+01  0.28943875040E+02  0.00000000000E+00 0.  1.
</event>
<event>
 5    1  0.1055265E-009  0.9118800E+02  0.7815553E-02  0.1125453E+00
         25   -1    0    0    0    0  0.00000000000E+00  0.00000000000E+00  0.99999998245E-14  0.12509000000E+03  0.12509000000E+03 0.  0.
        -11    1    3    3    0    0  0.28745100404E+02  0.53364560289E+02  0.33813194354E+01  0.60708240079E+02  0.51100000000E-03 0. -1.
         23    2    1    0    0    0  0.80704444481E+01  0.21860764816E+02 -0.86025839726E+01  0.10024992023E+03  0.97123719777E+02 0.  0.
         11    1    3    3    0    0 -0.20674655956E+02 -0.31503795473E+02 -0.11983903408E+02  0.39541680152E+02  0.51100000000E-03 0.  1.
         22    1    1    0    0    0 -0.80704444481E+01 -0.21860764816E+02  0.86025839726E+01  0.24840079769E+02  0.00000000000E+00 0. -1.
</event>
<event>
 5    1  0.1055265E-009  0.9118800E+02  0.7815553E-02  0.1125453E+00
         25   -1    0    0    0    0  0.00000000000E+00  0.00000000000E+00  0.99999998245E-14  0.12509000000E+03  0.12509000000E+03 0.  0.
        -11    1    3    3    0    0  0.31038737762E+01  0.24585295349E+02  0.54938210732E+02  0.60268381250E+02  0.51100000000E-03 0.  1.
         23    2    1    0    0    0 -0.95321184674E+01  0.15147612126E+02  0.22477793054E+02  0.96357394546E+02  0.91973827079E+02 0.  0.
         11    1    3    3    0    0 -0.12635992244E+02 -0.94376832229E+01 -0.32460417678E+02  0.36089013296E+02  0.51100000000E-03 0. -1.
         22    1    1    0    0    0  0.95321184674E+01 -0.15147612126E+02 -0.22477793054E+02  0.28732605454E+02  0.00000000000E+00 0.  1.
</event>
<event>
 5    1  0.1055265E-009  0.9118800E+02  0.7815553E-02  0.1125453E+00
         25   -1    0    0    0    0  0.00000000000E+00  0.00000000000E+00  0.99999998245E-14  0.12509000000E+03  0.12509000000E+03 0.  0.
        -11    1    3    3    0    0 -0.16440613921E+02 -0.25720458191E+02 -0.11354060999E+02  0.32569164206E+02  0.51100000000E-03 0.  1.
         23    2    1    0    0    0  0.22555701139E+02  0.18229502678E+02  0.89569191415E+01  0.94737062378E+02  0.89743022936E+02 0.  0.
         11    1    3    3    0    0  0.38996315060E+02  0.43949960869E+02  0.20310980140E+02  0.62167898172E+02  0.51100000000E-03 0. -1.
         22    1    1    0    0    0 -0.22555701139E+02 -0.18229502678E+02 -0.89569191415E+01  0.30352937622E+02  0.00000000000E+00 0. -1.
</event>
<event>
 5    1  0.1055265E-009  0.9118800E+02  0.7815553E-02  0.1125453E+00
         25   -1    0    0    0    0  0.00000000000E+00  0.00000000000E+00  0.99999998245E-14  0.12509000000E+03  0.12509000000E+03 0.  0.
        -11    1    3    3    0    0  0.27236504376E+02 -0.51937406642E+02  0.19249718648E+02  0.61724169072E+02  0.51100000000E-03 0.  1.
         23    2    1    0    0    0  0.98567709727E+01 -0.26903163859E+02  0.15734461054E+02  0.92401937588E+02  0.86426897698E+02 0.  0.
         11    1    3    3    0    0 -0.17379733404E+02  0.25034242783E+02 -0.35152575947E+01  0.30677768516E+02  0.51100000000E-03 0. -1.
         22    1    1    0    0    0 -0.98567709727E+01  0.26903163859E+02 -0.15734461054E+02  0.32688062412E+02  0.00000000000E+00 0.  1.
</event>
<event>
 5    1  0.1055265E-009  0.9118800E+02  0.7815553E-02  0.1125453E+00
         25   -1    0    0    0    0  0.00000000000E+00  0.00000000000E+00  0.99999998245E-14  0.12509000000E+03  0.12509000000E+03 0.  0.
        -11    1    3    3    0    0  0.13879741378E+02  0.20300336434E+02  0.30166981261E+02  0.38920401317E+02  0.51100000000E-03 0.  1.
         23    2    1    0    0    0  0.63332010724E+01 -0.23273814665E+02 -0.10298819165E+02  0.98863190032E+02  0.95320956679E+02 0.  0.
         11    1    3    3    0    0 -0.75465403054E+01 -0.43574151099E+02 -0.40465800426E+02  0.59942788715E+02  0.51100000000E-03 0. -1.
         22    1    1    0    0    0 -0.63332010724E+01  0.23273814665E+02  0.10298819165E+02  0.26226809968E+02  0.00000000000E+00 0. -1.
</event>
<event>
 5    1  0.1055265E-009  0.9118800E+02  0.7815553E-02  0.1125453E+00
         25   -1    0    0    0    0  0.00000000000E+00  0.00000000000E+00  0.99999998245E-14  0.12509000000E+03  0.12509000000E+03 0.  0.
        -11    1    3    3    0    0  0.33981199462E+02  0.11685262460E+02 -0.50194736420E+01  0.36283086852E+02  0.51100000000E-03 0.  1.
         23    2    1    0    0    0 -0.36667228069E+01  0.29324997907E+02  0.24028494148E+02  0.87001039796E+02  0.78220278931E+02 0.  0.
         11    1    3    3    0    0 -0.37647922269E+02  0.17639735447E+02  0.29047967790E+02  0.50717952944E+02  0.51100000000E-03 0. -1.
         22    1    1    0    0    0  0.36667228069E+01 -0.29324997907E+02 -0.24028494148E+02  0.38088960204E+02  0.00000000000E+00 0. -1.
</event>
<event>
 5    1  0.1055265E-009  0.9118800E+02  0.7815553E-02  0.1125453E+00
         25   -1    0    0    0    0  0.00000000000E+00  0.00000000000E+00  0.99999998245E-14  0.12509000000E+03  0.12509000000E+03 0.  0.
        -11    1    3    3    0    0 -0.22984181695E+02 -0.18421574021E+01  0.16412554517E+02  0.28302616454E+02  0.51100000000E-03 0.  1.
         23    2    1    0    0    0  0.35452934430E+02  0.15629503809E+01 -0.16558761685E+01  0.89564019373E+02  0.82216897697E+02 0.  0.
         11    1    3    3    0    0  0.58437116125E+02  0.34051077831E+01 -0.18068430686E+02  0.61261402920E+02  0.51100000000E-03 0. -1.
         22    1    1    0    0    0 -0.35452934430E+02 -0.15629503809E+01  0.16558761685E+01  0.35525980627E+02  0.00000000000E+00 0. -1.
</event>
<event>
 5    1  0.1055265E-009  0.9118800E+02  0.7815553E-02  0.1125453E+00
         25   -1    0    0    0    0  0.00000000000E+00  0.00000000000E+00  0.99999998245E-14  0.12509000000E+03  0.12509000000E+03 0.  0.
        -11    1    3    3    0    0 -0.47731008252E+02 -0.59318494245E+01  0.34633359529E+02  0.59269769519E+02  0.51100000000E-03 0. -1.
         23    2    1    0    0    0 -0.20555338078E+02  0.10772395867E+02  0.20364753245E+02  0.94214611566E+02  0.89011816191E+02 0.  0.
         11    1    3    3    0    0  0.27175670173E+02  0.16704245291E+02 -0.14268606284E+02  0.34944842047E+02  0.51100000000E-03 0.  1.
         22    1    1    0    0    0  0.20555338078E+02 -0.10772395867E+02 -0.20364753245E+02  0.30875388434E+02  0.00000000000E+00 0. -1.
</event>
<event>
 5    1  0.1055265E-009  0.9118800E+02  0.7815553E-02  0.1125453E+00
         25   -1    0    0    0    0  0.00000000000E+00  0.00000000000E+00  0.99999998245E-14  0.12509000000E+03  0.12509000000E+03 0.  0.
        -11    1    3    3    0    0 -0.38092340266E+02  0.32712552382E+02  0.34937460434E+02  0.61169956777E+02  0.51100000000E-03 0. -1.
         23    2    1    0    0    0 -0.94678826335E+01  0.14278217854E+02  0.21073327607E+02  0.97931328400E+02  0.94090125088E+02 0.  0.
         11    1    3    3    0    0  0.28624457633E+02 -0.18434334528E+02 -0.13864132827E+02  0.36761371622E+02  0.51100000000E-03 0.  1.
         22    1    1    0    0    0  0.94678826335E+01 -0.14278217854E+02 -0.21073327607E+02  0.27158671600E+02  0.00000000000E+00 0. -1.
</event>
<event>
 5    1  0.1055265E-009  0.9118800E+02  0.7815553E-02  0.1125453E+00
         25   -1    0    0    0    0  0.00000000000E+00  0.00000000000E+00  0.99999998245E-14  0.12509000000E+03  0.12509000000E+03 0.  0.
        -11    1    3    3    0    0  0.28887656783E+02 -0.51140811329E+01 -0.37650342282E+02  0.47730480979E+02  0.51100000000E-03 0. -1.
         23    2    1    0    0    0  0.24733949779E+02 -0.15050092129E+02  0.83359285573E+01  0.94960923518E+02  0.90054515410E+02 0.  0.
         11    1    3    3    0    0 -0.41537070042E+01 -0.99360109961E+01  0.45986270840E+02  0.47230442539E+02  0.51100000000E-03 0.  1.
         22    1    1    0    0    0 -0.24733949779E+02  0.15050092129E+02 -0.83359285573E+01  0.30129076482E+02  0.00000000000E+00 0. -1.
</event>
<event>
 5    1  0.1055265E-009  0.9118800E+02  0.7815553E-02  0.1125453E+00
         25   -1    0    0    0    0  0.00000000000E+00  0.00000000000E+00  0.99999998245E-14  0.12509000000E+03  0.12509000000E+03 0.  0.
        -11    1    3    3    0    0  0.80406726572E+01  0.31991079239E+02 -0.27527122935E+02  0.42963054652E+02  0.51100000000E-03 0. -1.
         23    2    1    0    0    0  0.20864575936E+02  0.87737245342E+01  0.18347507127E+02  0.95953428668E+02  0.91422758021E+02 0.  0.
         11    1    3    3    0    0  0.12823903279E+02 -0.23217354705E+02  0.45874630062E+02  0.52990374016E+02  0.51100000000E-03 0.  1.
         22    1    1    0    0    0 -0.20864575936E+02 -0.87737245342E+01 -0.18347507127E+02  0.29136571332E+02  0.00000000000E+00 0.  1.
</event>
<event>
 5    1  0.1055265E-009  0.9118800E+02  0.7815553E-02  0.1125453E+00
         25   -1    0    0    0    0  0.00000000000E+00  0.00000000000E+00  0.99999998245E-14  0.12509000000E+03  0.12509000000E+03 0.  0.
        -11    1    3    3    0    0 -0.12538631984E+02 -0.25081176819E+02 -0.29863181565E+02  0.40964525337E+02  0.51100000000E-03 0. -1.
         23    2    1    0    0    0  0.28208486682E+02 -0.17638293950E+01  0.40561476113E+00  0.96823512097E+02  0.92605605427E+02 0.  0.
         11    1    3    3    0    0  0.40747118666E+02  0.23317347424E+02  0.30268796326E+02  0.55858986760E+02  0.51100000000E-03 0.  1.
         22    1    1    0    0    0 -0.28208486682E+02  0.17638293950E+01 -0.40561476113E+00  0.28266487903E+02  0.00000000000E+00 0.  1.
</event>
<event>
 5    1  0.1055265E-009  0.9118800E+02  0.7815553E-02  0.1125453E+00
         25   -1    0    0    0    0  0.00000000000E+00  0.00000000000E+00  0.99999998245E-14  0.12509000000E+03  0.12509000000E+03 0.  0.
        -11    1    3    3    0    0  0.31462234014E+02 -0.67003322248E+00  0.46216466078E+02  0.55913172425E+02  0.51100000000E-03 0. -1.
         23    2    1    0    0    0  0.26089300564E+02  0.10317531843E+02  0.81819143791E+01  0.95865921056E+02  0.91302946446E+02 0.  0.
         11    1    3    3    0    0 -0.53729334503E+01  0.10987565066E+02 -0.38034551699E+02  0.39952748630E+02  0.51100000000E-03 0.  1.
         22    1    1    0    0    0 -0.26089300564E+02 -0.10317531843E+02 -0.81819143791E+01  0.29224078944E+02  0.00000000000E+00 0. -1.
</event>
<event>
 5    1  0.1055265E-009  0.9118800E+02  0.7815553E-02  0.1125453E+00
         25   -1    0    0    0    0  0.00000000000E+00  0.00000000000E+00  0.99999998245E-14  0.12509000000E+03  0.12509000000E+03 0.  0.
        -11    1    3    3    0    0  0.15336239975E+02 -0.20595090950E+02 -0.26340645435E+02  0.36785698716E+02  0.51100000000E-03 0. -1.
         23    2    1    0    0    0 -0.30723488110E+02  0.36812009791E+01 -0.25124558445E+01  0.94044929591E+02  0.88773038616E+02 0.  0.
         11    1    3    3    0    0 -0.46059728085E+02  0.24276291929E+02  0.23828189590E+02  0.57259230876E+02  0.51100000000E-03 0.  1.
         22    1    1    0    0    0  0.30723488110E+02 -0.36812009791E+01  0.25124558445E+01  0.31045070409E+02  0.00000000000E+00 0.  1.
</event>
<event>
 5    1  0.1055265E-009  0.9118800E+02  0.7815553E-02  0.1125453E+00
         25   -1    0    0    0    0  0.00000000000E+00  0.00000000000E+00  0.99999998245E-14  0.12509000000E+03  0.12509000000E+03 0.  0.
        -11    1    3    3    0    0 -0.24666236294E+02  0.86441062335E+00 -0.54995925209E+02  0.60280363374E+02  0.51100000000E-03 0.  1.
         23    2    1    0    0    0 -0.62362492541E+01 -0.88520687717E+01 -0.31984593129E+02  0.91322202856E+02  0.84849753156E+02 0.  0.
         11    1    3    3    0    0  0.18429987040E+02 -0.97164793951E+01  0.23011332080E+02  0.31041839483E+02  0.51100000000E-03 0. -1.
         22    1    1    0    0    0  0.62362492541E+01  0.88520687717E+01  0.31984593129E+02  0.33767797144E+02  0.00000000000E+00 0.  1.
</event>
<event>
 5    1  0.1055265E-009  0.9118800E+02  0.7815553E-02  0.1125453E+00
         25   -1    0    0    0    0  0.00000000000E+00  0.00000000000E+00  0.99999998245E-14  0.12509000000E+03  0.12509000000E+03 0.  0.
        -11    1    3    3    0    0  0.80369419127E+00  0.44911339833E+02  0.21969989825E+02  0.50003548106E+02  0.51100000000E-03 0.  1.
         23    2    1    0    0    0  0.24148912959E+02  0.29213674557E+02 -0.22434817578E+01  0.87121039142E+02  0.78411947256E+02 0.  0.
         11    1    3    3    0    0  0.23345218768E+02 -0.15697665276E+02 -0.24213471583E+02  0.37117491036E+02  0.51100000000E-03 0. -1.
         22    1    1    0    0    0 -0.24148912959E+02 -0.29213674557E+02  0.22434817578E+01  0.37968960858E+02  0.00000000000E+00 0.  1.
</event>
<event>
 5    1  0.1055265E-009  0.9118800E+02  0.7815553E-02  0.1125453E+00
         25   -1    0    0    0    0  0.00000000000E+00  0.00000000000E+00  0.99999998245E-14  0.12509000000E+03  0.12509000000E+03 0.  0.
        -11    1    3    3    0    0  0.20637274494E+02 -0.55579808685E+01 -0.29883237692E+02  0.36739571923E+02  0.51100000000E-03 0. -1.
         23    2    1    0    0    0 -0.20151222655E+01  0.25447877271E+02  0.14741987873E+02  0.95611509846E+02  0.90953721382E+02 0.  0.
         11    1    3    3    0    0 -0.22652396759E+02  0.31005858139E+02  0.44625225564E+02  0.58871937923E+02  0.51100000000E-03 0.  1.
         22    1    1    0    0    0  0.20151222655E+01 -0.25447877271E+02 -0.14741987873E+02  0.29478490154E+02  0.00000000000E+00 0.  1.
</event>
<event>
 5    1  0.1055265E-009  0.9118800E+02  0.7815553E-02  0.1125453E+00
         25   -1    0    0    0    0  0.00000000000E+00  0.00000000000E+00  0.99999998245E-14  0.12509000000E+03  0.12509000000E+03 0.  0.
        -11    1    3    3    0    0 -0.32815540043E+00  0.44506506893E+02 -0.41874959454E+02  0.61110138859E+02  0.51100000000E-03 0.  1.
         23    2    1    0    0    0 -0.81316640101E+01  0.16046197889E+02 -0.21916032711E+02  0.96736571352E+02  0.92488092860E+02 0.  0.
         11    1    3    3    0    0 -0.78035086097E+01 -0.28460309005E+02  0.19958926742E+02  0.35626432494E+02  0.51100000000E-03 0. -1.
         22    1    1    0    0    0  0.81316640101E+01 -0.16046197889E+02  0.21916032711E+02  0.28353428648E+02  0.00000000000E+00 0.  1.
</event>
<event>
 5    1  0.1055265E-009  0.9118800E+02  0.7815553E-02  0.1125453E+00
         25   -1    0    0    0    0  0.00000000000E+00  0.00000000000E+00  0.99999998245E-14  0.12509000000E+03  0.12509000000E+03 0.  0.
        -11    1    3    3    0    0  0.14743649300E+02  0.27667370603E+02 -0.36224445908E+02  0.47906879176E+02  0.51100000000E-03 0. -1.
         23    2    1    0    0    0 -0.84537990882E+00 -0.81698754089E+01 -0.37193984332E+02  0.86999922527E+02  0.78218492174E+02 0.  0.
         11    1    3    3    0    0 -0.15589029209E+02 -0.35837246012E+02 -0.96953842376E+00  0.39093043351E+02  0.51100000000E-03 0.  1.
         22    1    1    0    0    0  0.84537990882E+00  0.81698754089E+01  0.37193984332E+02  0.38090077473E+02  0.00000000000E+00 0. -1.
</event>
<event>
 5    1  0.1055265E-009  0.9118800E+02  0.7815553E-02  0.1125453E+00
         25   -1    0    0    0    0  0.00000000000E+00  0.00000000000E+00  0.99999998245E-14  0.12509000000E+03  0.12509000000E+03 0.  0.
        -11    1    3    3    0    0 -0.42953813889E+02  0.37183894507E+02  0.10772530036E+02  0.57824904167E+02  0.51100000000E-03 0.  1.
         23    2    1    0    0    0 -0.23860131666E+02  0.18202346332E+02 -0.11684894027E+02  0.92884906560E+02  0.87123118763E+02 0.  0.
         11    1    3    3    0    0  0.19093682223E+02 -0.18981548175E+02 -0.22457424063E+02  0.35060002393E+02  0.51100000000E-03 0. -1.
         22    1    1    0    0    0  0.23860131666E+02 -0.18202346332E+02  0.11684894027E+02  0.32205093440E+02  0.00000000000E+00 0. -1.
</event>
<event>
 5    1  0.1055265E-009  0.9118800E+02  0.7815553E-02  0.1125453E+00
         25   -1    0    0    0    0  0.00000000000E+00  0.00000000000E+00  0.99999998245E-14  0.12509000000E+03  0.12509000000E+03 0.  0.
        -11    1    3    3    0    0  0.12231387545E+02 -0.89288685868E+01  0.30493748313E+02  0.34047029561E+02  0.51100000000E-03 0.  1.
         23    2    1    0    0    0  0.36231034838E+01  0.70894490151E+01 -0.28353476929E+02  0.95639926653E+02  0.90992795045E+02 0.  0.
         11    1    3    3    0    0 -0.86082840607E+01  0.16018317602E+02 -0.58847225242E+02  0.61592897092E+02  0.51100000000E-03 0. -1.
         22    1    1    0    0    0 -0.36231034838E+01 -0.70894490151E+01  0.28353476929E+02  0.29450073347E+02  0.00000000000E+00 0. -1.
</event>
<event>
 5    1  0.1055265E-009  0.9118800E+02  0.7815553E-02  0.1125453E+00
         25   -1    0    0    0    0  0.00000000000E+00  0.00000000000E+00  0.99999998245E-14  0.12509000000E+03  0.12509000000E+03 0.  0.
        -11    1    3    3    0    0 -0.13400094877E+02  0.18580331894E+02  0.38846404325E+02  0.45098053231E+02  0.51100000000E-03 0. -1.
         23    2    1    0    0    0  0.13568645335E+02  0.25504744521E+02 -0.37198481866E+01  0.95962051225E+02  0.91434555150E+02 0.  0.
         11    1    3    3    0    0  0.26968740212E+02  0.69244126275E+01 -0.42566252511E+02  0.50863997994E+02  0.51100000000E-03 0.  1.
         22    1    1    0    0    0 -0.13568645335E+02 -0.25504744521E+02  0.37198481866E+01  0.29127948775E+02  0.00000000000E+00 0.  1.
</event>
<event>
 5    1  0.1055265E-009  0.9118800E+02  0.7815553E-02  0.1125453E+00
         25   -1    0    0    0    0  0.00000000000E+00  0.00000000000E+00  0.99999998245E-14  0.12509000000E+03  0.12509000000E+03 0.  0.
        -11    1    3    3    0    0  0.30204616834E+02  0.68649339585E+01 -0.10681740521E+02  0.32765008427E+02  0.51100000000E-03 0. -1.
         23    2    1    0    0    0 -0.29416637515E+02 -0.75338644489E+01 -0.39234845180E+01  0.94471518539E+02  0.89372123216E+02 0.  0.
         11    1    3    3    0    0 -0.59621254349E+02 -0.14398798407E+02  0.67582560028E+01  0.61706510112E+02  0.51100000000E-03 0.  1.
         22    1    1    0    0    0  0.29416637515E+02  0.75338644489E+01  0.39234845180E+01  0.30618481461E+02  0.00000000000E+00 0.  1.
</event>
<event>
 5    1  0.1055265E-009  0.9118800E+02  0.7815553E-02  0.1125453E+00
         25   -1    0    0    0    0  0.00000000000E+00  0.00000000000E+00  0.99999998245E-14  0.12509000000E+03  0.12509000000E+03 0.  0.
        -11    1    3    3    0    0  0.48908996659E+02 -0.16923941405E+02  0.28522217475E+02  0.59093372190E+02  0.51100000000E-03 0. -1.
         23    2    1    0    0    0  0.28910890403E+02 -0.24406832966E+01  0.10133554224E+01  0.96058578952E+02  0.91566517802E+02 0.  0.
         11    1    3    3    0    0 -0.19998106256E+02  0.14483258108E+02 -0.27508862053E+02  0.36965206762E+02  0.51100000000E-03 0.  1.
         22    1    1    0    0    0 -0.28910890403E+02  0.24406832966E+01 -0.10133554224E+01  0.29031421048E+02  0.00000000000E+00 0. -1.
</event>
<event>
 5    1  0.1055265E-009  0.9118800E+02  0.7815553E-02  0.1125453E+00
         25   -1    0    0    0    0  0.00000000000E+00  0.00000000000E+00  0.99999998245E-14  0.12509000000E+03  0.12509000000E+03 0.  0.
        -11    1    3    3    0    0  0.38411276716E+02 -0.33112113835E+02  0.20693064329E+02  0.54772631608E+02  0.51100000000E-03 0.  1.
         23    2    1    0    0    0  0.46987564288E+01 -0.14266789608E+02  0.27275712486E+02  0.93951854755E+02  0.88641789933E+02 0.  0.
         11    1    3    3    0    0 -0.33712520288E+02  0.18845324227E+02  0.65826481573E+01  0.39179223147E+02  0.51100000000E-03 0. -1.
         22    1    1    0    0    0 -0.46987564288E+01  0.14266789608E+02 -0.27275712486E+02  0.31138145245E+02  0.00000000000E+00 0.  1.
</event>
<event>
 5    1  0.1055265E-009  0.9118800E+02  0.7815553E-02  0.1125453E+00
         25   -1    0    0    0    0  0.00000000000E+00  0.00000000000E+00  0.99999998245E-14  0.12509000000E+03  0.12509000000E+03 0.  0.
        -11    1    3    3    0    0  0.12402769312E+02  0.26566212410E+02 -0.18817399898E+02  0.34838008950E+02  0.51100000000E-03 0.  1.
         23    2    1    0    0    0  0.66238263292E+00 -0.12828760551E+02  0.26267364634E+02  0.95849782955E+02  0.91280833693E+02 0.  0.
         11    1    3    3    0    0 -0.11740386679E+02 -0.39394972961E+02  0.45084764532E+02  0.61011774005E+02  0.51100000000E-03 0. -1.
         22    1    1    0    0    0 -0.66238263292E+00  0.12828760551E+02 -0.26267364634E+02  0.29240217045E+02  0.00000000000E+00 0. -1.
</event>
<event>
 5    1  0.1055265E-009  0.9118800E+02  0.7815553E-02  0.1125453E+00
         25   -1    0    0    0    0  0.00000000000E+00  0.00000000000E+00  0.99999998245E-14  0.12509000000E+03  0.12509000000E+03 0.  0.
        -11    1    3    3    0    0  0.19838750499E+02  0.88659660551E+01 -0.27097040873E+02  0.34733715606E+02  0.51100000000E-03 0. -1.
         23    2    1    0    0    0 -0.23852878867E+02 -0.74529164839E+01  0.13605240668E+02  0.96636382163E+02  0.92352487728E+02 0.  0.
         11    1    3    3    0    0 -0.43691629366E+02 -0.16318882539E+02  0.40702281541E+02  0.61902666557E+02  0.51100000000E-03 0.  1.
         22    1    1    0    0    0  0.23852878867E+02  0.74529164839E+01 -0.13605240668E+02  0.28453617837E+02  0.00000000000E+00 0.  1.
</event>
<event>
 5    1  0.1055265E-009  0.9118800E+02  0.7815553E-02  0.1125453E+00
         25   -1    0    0    0    0  0.00000000000E+00  0.00000000000E+00  0.99999998245E-14  0.12509000000E+03  0.12509000000E+03 0.  0.
        -11    1    3    3    0    0  0.57273762828E+01  0.32217433160E+02  0.93602468996E+01  0.34034982897E+02  0.51100000000E-03 0.  1.
         23    2    1    0    0    0  0.11486909151E+02 -0.27049391051E+02 -0.49805445651E+01  0.95283549990E+02  0.90501549359E+02 0.  0.
         11    1    3    3    0    0  0.57595328682E+01 -0.59266824210E+02 -0.14340791465E+02  0.61248567093E+02  0.51100000000E-03 0. -1.
         22    1    1    0    0    0 -0.11486909151E+02  0.27049391051E+02  0.49805445651E+01  0.29806450010E+02  0.00000000000E+00 0. -1.
</event>
<event>
 5    1  0.1055265E-009  0.9118800E+02  0.7815553E-02  0.1125453E+00
         25   -1    0    0    0    0  0.00000000000E+00  0.00000000000E+00  0.99999998245E-14  0.12509000000E+03  0.12509000000E+03 0.  0.
        -11    1    3    3    0    0  0.34658585806E+02 -0.20525770395E+01 -0.12036199235E+02  0.36746438397E+02  0.51100000000E-03 0.  1.
         23    2    1    0    0    0 -0.23625200049E+02 -0.49653722615E+01 -0.17374258069E+02  0.95346600018E+02  0.90588654325E+02 0.  0.
         11    1    3    3    0    0 -0.58283785855E+02 -0.29127952219E+01 -0.53380588344E+01  0.58600161621E+02  0.51100000000E-03 0. -1.
         22    1    1    0    0    0  0.23625200049E+02  0.49653722615E+01  0.17374258069E+02  0.29743399982E+02  0.00000000000E+00 0. -1.
</event>
<event>
 5    1  0.1055265E-009  0.9118800E+02  0.7815553E-02  0.1125453E+00
         25   -1    0    0    0    0  0.00000000000E+00  0.00000000000E+00  0.99999998245E-14  0.12509000000E+03  0.12509000000E+03 0.  0.
        -11    1    3    3    0    0 -0.32579406124E+02  0.17979955669E+02  0.29006026660E+02  0.47180992911E+02  0.51100000000E-03 0.  1.
         23    2    1    0    0    0  0.88548435372E+01 -0.13009825934E+02  0.19902919613E+02  0.99716982165E+02  0.96434882165E+02 0.  0.
         11    1    3    3    0    0  0.41434249661E+02 -0.30989781603E+02 -0.91031070466E+01  0.52535989254E+02  0.51100000000E-03 0. -1.
         22    1    1    0    0    0 -0.88548435372E+01  0.13009825934E+02 -0.19902919613E+02  0.25373017835E+02  0.00000000000E+00 0. -1.
</event>
<event>
 5    1  0.1055265E-009  0.9118800E+02  0.7815553E-02  0.1125453E+00
         25   -1    0    0    0    0  0.00000000000E+00  0.00000000000E+00  0.99999998245E-14  0.12509000000E+03  0.12509000000E+03 0.  0.
        -11    1    3    3    0    0  0.21957115472E+02  0.25588529753E+02 -0.45431933926E+01  0.34022468770E+02  0.51100000000E-03 0.  1.
         23    2    1    0    0    0 -0.16963331757E+02 -0.18104232087E+02  0.15456252714E+02  0.95859646055E+02  0.91294348950E+02 0.  0.
         11    1    3    3    0    0 -0.38920447229E+02 -0.43692761840E+02  0.19999446107E+02  0.61837177285E+02  0.51100000000E-03 0. -1.
         22    1    1    0    0    0  0.16963331757E+02  0.18104232087E+02 -0.15456252714E+02  0.29230353945E+02  0.00000000000E+00 0. -1.
</event>
<event>
 5    1  0.1055265E-009  0.9118800E+02  0.7815553E-02  0.1125453E+00
         25   -1    0    0    0    0  0.00000000000E+00  0.00000000000E+00  0.99999998245E-14  0.12509000000E+03  0.12509000000E+03 0.  0.
        -11    1    3    3    0    0 -0.82057998905E+01 -0.39501364002E+02 -0.30604969172E+02  0.50639481120E+02  0.51100000000E-03 0. -1.
         23    2    1    0    0    0  0.12610691392E+02 -0.24656629994E+02  0.73814567456E+01  0.96428792005E+02  0.92070880759E+02 0.  0.
         11    1    3    3    0    0  0.20816491282E+02  0.14844734007E+02  0.37986425918E+02  0.45789310885E+02  0.51100000000E-03 0.  1.
         22    1    1    0    0    0 -0.12610691392E+02  0.24656629994E+02 -0.73814567456E+01  0.28661207995E+02  0.00000000000E+00 0. -1.
</event>
<event>
 5    1  0.1055265E-009  0.9118800E+02  0.7815553E-02  0.1125453E+00
         25   -1    0    0    0    0  0.00000000000E+00  0.00000000000E+00  0.99999998245E-14  0.12509000000E+03  0.12509000000E+03 0.  0.
        -11    1    3    3    0    0 -0.36028438562E+02  0.45598653945E+02  0.85122397056E+01  0.58734520104E+02  0.51100000000E-03 0. -1.
         23    2    1    0    0    0 -0.57445703268E+01  0.26554701202E+02  0.13322299166E+02  0.94830523811E+02  0.89873201496E+02 0.  0.
         11    1    3    3    0    0  0.30283868235E+02 -0.19043952743E+02  0.48100594609E+01  0.36096003707E+02  0.51100000000E-03 0.  1.
         22    1    1    0    0    0  0.57445703268E+01 -0.26554701202E+02 -0.13322299166E+02  0.30259476189E+02  0.00000000000E+00 0. -1.
</event>
<event>
 5    1  0.1055265E-009  0.9118800E+02  0.7815553E-02  0.1125453E+00
         25   -1    0    0    0    0  0.00000000000E+00  0.00000000000E+00  0.99999998245E-14  0.12509000000E+03  0.12509000000E+03 0.  0.
        -11    1    3    3    0    0  0.25333495864E+02 -0.11827571245E+02 -0.43075903123E+02  0.51353781597E+02  0.51100000000E-03 0.  1.
         23    2    1    0    0    0 -0.96025301037E+01  0.96620148745E+01 -0.25910172058E+02  0.95817143428E+02  0.91236093969E+02 0.  0.
         11    1    3    3    0    0 -0.34936025968E+02  0.21489586119E+02  0.17165731065E+02  0.44463361830E+02  0.51100000000E-03 0. -1.
         22    1    1    0    0    0  0.96025301037E+01 -0.96620148745E+01  0.25910172058E+02  0.29272856572E+02  0.00000000000E+00 0.  1.
</event>
<event>
 5    1  0.1055265E-009  0.9118800E+02  0.7815553E-02  0.1125453E+00
         25   -1    0    0    0    0  0.00000000000E+00  0.00000000000E+00  0.99999998245E-14  0.12509000000E+03  0.12509000000E+03 0.  0.
        -11    1    3    3    0    0 -0.34702052785E+02 -0.11937586860E+02 -0.40399194721E+02  0.54578689815E+02  0.51100000000E-03 0. -1.
         23    2    1    0    0    0  0.44820027495E+00 -0.19419772880E+02 -0.24360290828E+02  0.93933102988E+02  0.88615323762E+02 0.  0.
         11    1    3    3    0    0  0.35150253060E+02 -0.74821860202E+01  0.16038903893E+02  0.39354413173E+02  0.51100000000E-03 0.  1.
         22    1    1    0    0    0 -0.44820027495E+00  0.19419772880E+02  0.24360290828E+02  0.31156897012E+02  0.00000000000E+00 0. -1.
</event>
<event>
 5    1  0.1055265E-009  0.9118800E+02  0.7815553E-02  0.1125453E+00
         25   -1    0    0    0    0  0.00000000000E+00  0.00000000000E+00  0.99999998245E-14  0.12509000000E+03  0.12509000000E+03 0.  0.
        -11    1    3    3    0    0  0.12195954401E+02 -0.15681748001E+02 -0.42946481017E+02  0.47318693517E+02  0.51100000000E-03 0.  1.
         23    2    1    0    0    0  0.20965025664E+02 -0.20399231711E+02  0.42295331241E+01  0.95534122311E+02  0.90847226814E+02 0.  0.
         11    1    3    3    0    0  0.87690712624E+01 -0.47174837106E+01  0.47176014141E+02  0.48215428795E+02  0.51100000000E-03 0. -1.
         22    1    1    0    0    0 -0.20965025664E+02  0.20399231711E+02 -0.42295331241E+01  0.29555877689E+02  0.00000000000E+00 0.  1.
</event>
<event>
 5    1  0.1055265E-009  0.9118800E+02  0.7815553E-02  0.1125453E+00
         25   -1    0    0    0    0  0.00000000000E+00  0.00000000000E+00  0.99999998245E-14  0.12509000000E+03  0.12509000000E+03 0.  0.
        -11    1    3    3    0    0  0.44664978989E+02 -0.58220923618E+01 -0.46628101803E+01  0.45283539025E+02  0.51100000000E-03 0. -1.
         23    2    1    0    0    0  0.10417444485E+00 -0.13365636325E+02 -0.26449166438E+02  0.95455400426E+02  0.90738767781E+02 0.  0.
         11    1    3    3    0    0 -0.44560804544E+02 -0.75435439627E+01 -0.21786356258E+02  0.50171861401E+02  0.51100000000E-03 0.  1.
         22    1    1    0    0    0 -0.10417444485E+00  0.13365636325E+02  0.26449166438E+02  0.29634599574E+02  0.00000000000E+00 0.  1.
</event>
<event>
 5    1  0.1055265E-009  0.9118800E+02  0.7815553E-02  0.1125453E+00
         25   -1    0    0    0    0  0.00000000000E+00  0.00000000000E+00  0.99999998245E-14  0.12509000000E+03  0.12509000000E+03 0.  0.
        -11    1    3    3    0    0  0.12588658976E+02  0.11403649215E+02  0.48789521356E+02  0.51661735788E+02  0.51100000000E-03 0. -1.
         23    2    1    0    0    0 -0.12909636366E+02 -0.12741924980E+02  0.25490430122E+02  0.93804581814E+02  0.88433716298E+02 0.  0.
         11    1    3    3    0    0 -0.25498295342E+02 -0.24145574195E+02 -0.23299091234E+02  0.42142846026E+02  0.51100000000E-03 0.  1.
         22    1    1    0    0    0  0.12909636366E+02  0.12741924980E+02 -0.25490430122E+02  0.31285418186E+02  0.00000000000E+00 0. -1.
</event>
<event>
 5    1  0.1055265E-009  0.9118800E+02  0.7815553E-02  0.1125453E+00
         25   -1    0    0    0    0  0.00000000000E+00  0.00000000000E+00  0.99999998245E-14  0.12509000000E+03  0.12509000000E+03 0.  0.
        -11    1    3    3    0    0  0.51312160330E+02  0.59779610235E+01  0.27284985041E+02  0.58422121022E+02  0.51100000000E-03 0.  1.
         23    2    1    0    0    0  0.18709444175E+02 -0.11478356097E+02  0.18379886942E+02  0.96461060026E+02  0.92114710537E+02 0.  0.
         11    1    3    3    0    0 -0.32602716155E+02 -0.17456317121E+02 -0.89050980995E+01  0.38038939004E+02  0.51100000000E-03 0. -1.
         22    1    1    0    0    0 -0.18709444175E+02  0.11478356097E+02 -0.18379886942E+02  0.28628939974E+02  0.00000000000E+00 0.  1.
</event>
<event>
 5    1  0.1055265E-009  0.9118800E+02  0.7815553E-02  0.1125453E+00
         25   -1    0    0    0    0  0.00000000000E+00  0.00000000000E+00  0.99999998245E-14  0.12509000000E+03  0.12509000000E+03 0.  0.
        -11    1    3    3    0    0 -0.12981875712E+02 -0.53982507907E+02 -0.21569509428E+01  0.55563411474E+02  0.51100000000E-03 0. -1.
         23    2    1    0    0    0  0.13862033014E+02 -0.25524569361E+02  0.57629171457E+01  0.95477995435E+02  0.90769911302E+02 0.  0.
         11    1    3    3    0    0  0.26843908726E+02  0.28457938546E+02  0.79198680885E+01  0.39914583961E+02  0.51100000000E-03 0.  1.
         22    1    1    0    0    0 -0.13862033014E+02  0.25524569361E+02 -0.57629171457E+01  0.29612004565E+02  0.00000000000E+00 0. -1.
</event>
<event>
 5    1  0.1055265E-009  0.9118800E+02  0.7815553E-02  0.1125453E+00
         25   -1    0    0    0    0  0.00000000000E+00  0.00000000000E+00  0.99999998245E-14  0.12509000000E+03  0.12509000000E+03 0.  0.
        -11    1    3    3    0    0 -0.17276054728E+02 -0.24871003137E+02 -0.24652778815E+02  0.39048538610E+02  0.51100000000E-03 0.  1.
         23    2    1    0    0    0  0.23719694765E+01 -0.18207662214E+02  0.25697988979E+02  0.93506272543E+02  0.88010744599E+02 0.  0.
         11    1    3    3    0    0  0.19648024204E+02  0.66633409230E+01  0.50350767794E+02  0.54457733933E+02  0.51100000000E-03 0. -1.
         22    1    1    0    0    0 -0.23719694765E+01  0.18207662214E+02 -0.25697988979E+02  0.31583727457E+02  0.00000000000E+00 0. -1.
</event>
<event>
 5    1  0.1055265E-009  0.9118800E+02  0.7815553E-02  0.1125453E+00
         25   -1    0    0    0    0  0.00000000000E+00  0.00000000000E+00  0.99999998245E-14  0.12509000000E+03  0.12509000000E+03 0.  0.
        -11    1    3    3    0    0  0.68599885420E+01 -0.14885138030E+01 -0.37183864843E+02  0.37840651700E+02  0.51100000000E-03 0.  1.
         23    2    1    0    0    0 -0.11988485426E+02  0.26479046210E+02  0.86664086838E+01  0.94758987645E+02  0.89773578680E+02 0.  0.
         11    1    3    3    0    0 -0.18848473968E+02  0.27967560013E+02  0.45850273527E+02  0.56918335945E+02  0.51100000000E-03 0. -1.
         22    1    1    0    0    0  0.11988485426E+02 -0.26479046210E+02 -0.86664086838E+01  0.30331012355E+02  0.00000000000E+00 0. -1.
</event>
<event>
 5    1  0.1055265E-009  0.9118800E+02  0.7815553E-02  0.1125453E+00
         25   -1    0    0    0    0  0.00000000000E+00  0.00000000000E+00  0.99999998245E-14  0.12509000000E+03  0.12509000000E+03 0.  0.
        -11    1    3    3    0    0 -0.32437845741E+02  0.85935783068E+01  0.48579583706E+02  0.59042691146E+02  0.51100000000E-03 0.  1.
         23    2    1    0    0    0 -0.24658836776E+02  0.78182306992E+01  0.11776385140E+02  0.96667012659E+02  0.92393966941E+02 0.  0.
         11    1    3    3    0    0  0.77790089651E+01 -0.77534760763E+00 -0.36803198566E+02  0.37624321513E+02  0.51100000000E-03 0. -1.
         22    1    1    0    0    0  0.24658836776E+02 -0.78182306992E+01 -0.11776385140E+02  0.28422987341E+02  0.00000000000E+00 0.  1.
</event>
<event>
 5    1  0.1055265E-009  0.9118800E+02  0.7815553E-02  0.1125453E+00
         25   -1    0    0    0    0  0.00000000000E+00  0.00000000000E+00  0.99999998245E-14  0.12509000000E+03  0.12509000000E+03 0.  0.
        -11    1    3    3    0    0  0.19319657716E+01  0.10996474918E+01 -0.36211247844E+02  0.36279418229E+02  0.51100000000E-03 0.  1.
         23    2    1    0    0    0 -0.76425935070E+01  0.22842254531E+02  0.17703881086E+02  0.95196769444E+02  0.90381522887E+02 0.  0.
         11    1    3    3    0    0 -0.95745592786E+01  0.21742607039E+02  0.53915128931E+02  0.58917351214E+02  0.51100000000E-03 0. -1.
         22    1    1    0    0    0  0.76425935070E+01 -0.22842254531E+02 -0.17703881086E+02  0.29893230556E+02  0.00000000000E+00 0. -1.
</event>
<event>
 5    1  0.1055265E-009  0.9118800E+02  0.7815553E-02  0.1125453E+00
         25   -1    0    0    0    0  0.00000000000E+00  0.00000000000E+00  0.99999998245E-14  0.12509000000E+03  0.12509000000E+03 0.  0.
        -11    1    3    3    0    0  0.19028406456E+02  0.45727263862E+02  0.21801448341E+02  0.54114379444E+02  0.51100000000E-03 0. -1.
         23    2    1    0    0    0 -0.12225559166E+02  0.15309886082E+02  0.18970596745E+02  0.97818394810E+02  0.93939863283E+02 0.  0.
         11    1    3    3    0    0 -0.31253965622E+02 -0.30417377780E+02 -0.28308515963E+01  0.43704015366E+02  0.51100000000E-03 0.  1.
         22    1    1    0    0    0  0.12225559166E+02 -0.15309886082E+02 -0.18970596745E+02  0.27271605190E+02  0.00000000000E+00 0. -1.
</event>
<event>
 5    1  0.1055265E-009  0.9118800E+02  0.7815553E-02  0.1125453E+00
         25   -1    0    0    0    0  0.00000000000E+00  0.00000000000E+00  0.99999998245E-14  0.12509000000E+03  0.12509000000E+03 0.  0.
        -11    1    3    3    0    0 -0.26974395699E+01  0.34999057758E+02 -0.15109106420E+02  0.38216427375E+02  0.51100000000E-03 0.  1.
         23    2    1    0    0    0 -0.23768862893E+02 -0.16559387281E+02  0.69464783628E+00  0.96113204353E+02  0.91641111763E+02 0.  0.
         11    1    3    3    0    0 -0.21071423323E+02 -0.51558445039E+02  0.15803754256E+02  0.57896776979E+02  0.51100000000E-03 0. -1.
         22    1    1    0    0    0  0.23768862893E+02  0.16559387281E+02 -0.69464783628E+00  0.28976795647E+02  0.00000000000E+00 0. -1.
</event>
<event>
 5    1  0.1055265E-009  0.9118800E+02  0.7815553E-02  0.1125453E+00
         25   -1    0    0    0    0  0.00000000000E+00  0.00000000000E+00  0.99999998245E-14  0.12509000000E+03  0.12509000000E+03 0.  0.
        -11    1    3    3    0    0  0.18196134766E+02  0.43389398459E+02 -0.27182763404E+02  0.54338217174E+02  0.51100000000E-03 0. -1.
         23    2    1    0    0    0 -0.76024197748E+01  0.11093776631E+02 -0.26148111389E+02  0.95686047960E+02  0.91056177048E+02 0.  0.
         11    1    3    3    0    0 -0.25798554540E+02 -0.32295621828E+02  0.10346520147E+01  0.41347830786E+02  0.51100000000E-03 0.  1.
         22    1    1    0    0    0  0.76024197748E+01 -0.11093776631E+02  0.26148111389E+02  0.29403952040E+02  0.00000000000E+00 0. -1.
</event>
<event>
 5    1  0.1055265E-009  0.9118800E+02  0.7815553E-02  0.1125453E+00
         25   -1    0    0    0    0  0.00000000000E+00  0.00000000000E+00  0.99999998245E-14  0.12509000000E+03  0.12509000000E+03 0.  0.
        -11    1    3    3    0    0  0.25042336154E+02  0.21485489924E+02  0.10648382698E+02  0.34671788700E+02  0.51100000000E-03 0.  1.
         23    2    1    0    0    0 -0.13710689966E+02 -0.24624670838E+02  0.10807961491E+02  0.94904416275E+02  0.89975989929E+02 0.  0.
         11    1    3    3    0    0 -0.38753026120E+02 -0.46110160762E+02  0.15957879298E+00  0.60232627575E+02  0.51100000000E-03 0. -1.
         22    1    1    0    0    0  0.13710689966E+02  0.24624670838E+02 -0.10807961491E+02  0.30185583725E+02  0.00000000000E+00 0. -1.
</event>
<event>
 5    1  0.1055265E-009  0.9118800E+02  0.7815553E-02  0.1125453E+00
         25   -1    0    0    0    0  0.00000000000E+00  0.00000000000E+00  0.99999998245E-14  0.12509000000E+03  0.12509000000E+03 0.  0.
        -11    1    3    3    0    0 -0.36701924567E+02 -0.26889477210E+02 -0.27594335881E+02  0.53212053376E+02  0.51100000000E-03 0.  1.
         23    2    1    0    0    0  0.50103300124E+01 -0.21325713047E+02 -0.18844034884E+02  0.96193856754E+02  0.91751136138E+02 0.  0.
         11    1    3    3    0    0  0.41712254580E+02  0.55637641625E+01  0.87503009968E+01  0.42981803378E+02  0.51100000000E-03 0. -1.
         22    1    1    0    0    0 -0.50103300124E+01  0.21325713047E+02  0.18844034884E+02  0.28896143246E+02  0.00000000000E+00 0.  1.
</event>
<event>
 5    1  0.1055265E-009  0.9118800E+02  0.7815553E-02  0.1125453E+00
         25   -1    0    0    0    0  0.00000000000E+00  0.00000000000E+00  0.99999998245E-14  0.12509000000E+03  0.12509000000E+03 0.  0.
        -11    1    3    3    0    0  0.21019253857E+02  0.15498011395E+02  0.22707742966E+02  0.34606920996E+02  0.51100000000E-03 0. -1.
         23    2    1    0    0    0 -0.28733042093E+02 -0.42573429145E+01 -0.61184104729E+01  0.95405869166E+02  0.90670459622E+02 0.  0.
         11    1    3    3    0    0 -0.49752295951E+02 -0.19755354310E+02 -0.28826153439E+02  0.60798948170E+02  0.51100000000E-03 0.  1.
         22    1    1    0    0    0  0.28733042093E+02  0.42573429145E+01  0.61184104729E+01  0.29684130834E+02  0.00000000000E+00 0.  1.
</event>
<event>
 5    1  0.1055265E-009  0.9118800E+02  0.7815553E-02  0.1125453E+00
         25   -1    0    0    0    0  0.00000000000E+00  0.00000000000E+00  0.99999998245E-14  0.12509000000E+03  0.12509000000E+03 0.  0.
        -11    1    3    3    0    0 -0.35946569469E+02  0.48802614826E+01  0.18124669880E+02  0.40552145039E+02  0.51100000000E-03 0.  1.
         23    2    1    0    0    0  0.61218488450E+00  0.63365793571E+01 -0.26257848673E+02  0.98071457752E+02  0.94276238790E+02 0.  0.
         11    1    3    3    0    0  0.36558754353E+02  0.14563178745E+01 -0.44382518553E+02  0.57519312713E+02  0.51100000000E-03 0. -1.
         22    1    1    0    0    0 -0.61218488450E+00 -0.63365793571E+01  0.26257848673E+02  0.27018542248E+02  0.00000000000E+00 0. -1.
</event>
<event>
 5    1  0.1055265E-009  0.9118800E+02  0.7815553E-02  0.1125453E+00
         25   -1    0    0    0    0  0.00000000000E+00  0.00000000000E+00  0.99999998245E-14  0.12509000000E+03  0.12509000000E+03 0.  0.
        -11    1    3    3    0    0  0.18415063448E+02 -0.85585157148E+01  0.17439422292E+02  0.26767446706E+02  0.51100000000E-03 0. -1.
         23    2    1    0    0    0 -0.17409224755E+02  0.15343121539E+02 -0.27565098583E+02  0.89057693038E+02  0.81442897445E+02 0.  0.
         11    1    3    3    0    0 -0.35824288203E+02  0.23901637254E+02 -0.45004520874E+02  0.62290246332E+02  0.51100000000E-03 0.  1.
         22    1    1    0    0    0  0.17409224755E+02 -0.15343121539E+02  0.27565098583E+02  0.36032306962E+02  0.00000000000E+00 0.  1.
</event>
<event>
 5    1  0.1055265E-009  0.9118800E+02  0.7815553E-02  0.1125453E+00
         25   -1    0    0    0    0  0.00000000000E+00  0.00000000000E+00  0.99999998245E-14  0.12509000000E+03  0.12509000000E+03 0.  0.
        -11    1    3    3    0    0  0.91045346337E+01 -0.30048444010E+01  0.60478122208E+02  0.61233364327E+02  0.51100000000E-03 0. -1.
         23    2    1    0    0    0  0.10180210916E+02 -0.79188140998E+01  0.26103774739E+02  0.95973829807E+02  0.91450667801E+02 0.  0.
         11    1    3    3    0    0  0.10756762828E+01 -0.49139696989E+01 -0.34374347468E+02  0.34740465481E+02  0.51100000000E-03 0.  1.
         22    1    1    0    0    0 -0.10180210916E+02  0.79188140998E+01 -0.26103774739E+02  0.29116170193E+02  0.00000000000E+00 0. -1.
</event>
<event>
 5    1  0.1055265E-009  0.9118800E+02  0.7815553E-02  0.1125453E+00
         25   -1    0    0    0    0  0.00000000000E+00  0.00000000000E+00  0.99999998245E-14  0.12509000000E+03  0.12509000000E+03 0.  0.
        -11    1    3    3    0    0 -0.16442111903E+02  0.22277479877E+01 -0.57004936793E+02  0.59370604881E+02  0.51100000000E-03 0.  1.
         23    2    1    0    0    0 -0.20550686403E+02 -0.22007647015E+01 -0.21955715505E+02  0.94936600188E+02  0.90020722808E+02 0.  0.
         11    1    3    3    0    0 -0.41085744998E+01 -0.44285126892E+01  0.35049221287E+02  0.35565995307E+02  0.51100000000E-03 0. -1.
         22    1    1    0    0    0  0.20550686403E+02  0.22007647015E+01  0.21955715505E+02  0.30153399812E+02  0.00000000000E+00 0.  1.
</event>
<event>
 5    1  0.1055265E-009  0.9118800E+02  0.7815553E-02  0.1125453E+00
         25   -1    0    0    0    0  0.00000000000E+00  0.00000000000E+00  0.99999998245E-14  0.12509000000E+03  0.12509000000E+03 0.  0.
        -11    1    3    3    0    0  0.28926762166E+02  0.22644824171E+02  0.45978408209E+02  0.58852014858E+02  0.51100000000E-03 0.  1.
         23    2    1    0    0    0 -0.75971663578E+00  0.12589822571E+02  0.26465285152E+02  0.95772903965E+02  0.91175418913E+02 0.  0.
         11    1    3    3    0    0 -0.29686478801E+02 -0.10055001601E+02 -0.19513123056E+02  0.36920889107E+02  0.51100000000E-03 0. -1.
         22    1    1    0    0    0  0.75971663578E+00 -0.12589822571E+02 -0.26465285152E+02  0.29317096035E+02  0.00000000000E+00 0.  1.
</event>
<event>
 5    1  0.1055265E-009  0.9118800E+02  0.7815553E-02  0.1125453E+00
         25   -1    0    0    0    0  0.00000000000E+00  0.00000000000E+00  0.99999998245E-14  0.12509000000E+03  0.12509000000E+03 0.  0.
        -11    1    3    3    0    0  0.22319921818E+02 -0.16751172931E+02  0.40049958934E+02  0.48813726711E+02  0.51100000000E-03 0. -1.
         23    2    1    0    0    0  0.28329613314E+02  0.11749389894E+02  0.56229855160E+01  0.93909347032E+02  0.88581783344E+02 0.  0.
         11    1    3    3    0    0  0.60096914957E+01  0.28500562824E+02 -0.34426973418E+02  0.45095620321E+02  0.51100000000E-03 0.  1.
         22    1    1    0    0    0 -0.28329613314E+02 -0.11749389894E+02 -0.56229855160E+01  0.31180652968E+02  0.00000000000E+00 0.  1.
</event>
<event>
 5    1  0.1055265E-009  0.9118800E+02  0.7815553E-02  0.1125453E+00
         25   -1    0    0    0    0  0.00000000000E+00  0.00000000000E+00  0.99999998245E-14  0.12509000000E+03  0.12509000000E+03 0.  0.
        -11    1    3    3    0    0 -0.22431081268E+02  0.35120080489E+02 -0.16469084779E+02  0.44808528364E+02  0.51100000000E-03 0. -1.
         23    2    1    0    0    0 -0.13177088074E+02 -0.17617636800E+02 -0.15167681220E+02  0.98367812026E+02  0.94668638485E+02 0.  0.
         11    1    3    3    0    0  0.92539931941E+01 -0.52737717289E+02  0.13014035590E+01  0.53559283662E+02  0.51100000000E-03 0.  1.
         22    1    1    0    0    0  0.13177088074E+02  0.17617636800E+02  0.15167681220E+02  0.26722187974E+02  0.00000000000E+00 0.  1.
</event>
<event>
 5    1  0.1055265E-009  0.9118800E+02  0.7815553E-02  0.1125453E+00
         25   -1    0    0    0    0  0.00000000000E+00  0.00000000000E+00  0.99999998245E-14  0.12509000000E+03  0.12509000000E+03 0.  0.
        -11    1    3    3    0    0  0.93080608875E+01  0.24624565494E+02  0.22578568667E+02  0.34681421346E+02  0.51100000000E-03 0. -1.
         23    2    1    0    0    0 -0.11378917791E+02 -0.13143929533E+02 -0.22257167689E+02  0.96847759168E+02  0.92638352148E+02 0.  0.
         11    1    3    3    0    0 -0.20686978678E+02 -0.37768495027E+02 -0.44835736356E+02  0.62166337823E+02  0.51100000000E-03 0.  1.
         22    1    1    0    0    0  0.11378917791E+02  0.13143929533E+02  0.22257167689E+02  0.28242240832E+02  0.00000000000E+00 0.  1.
</event>
<event>
 5    1  0.1055265E-009  0.9118800E+02  0.7815553E-02  0.1125453E+00
         25   -1    0    0    0    0  0.00000000000E+00  0.00000000000E+00  0.99999998245E-14  0.12509000000E+03  0.12509000000E+03 0.  0.
        -11    1    3    3    0    0 -0.37298272128E+02 -0.15537264231E+02 -0.32047976564E+02  0.51571702373E+02  0.51100000000E-03 0. -1.
         23    2    1    0    0    0 -0.22478741253E+02  0.17337332323E+02 -0.59503537572E+01  0.96085110581E+02  0.91602755772E+02 0.  0.
         11    1    3    3    0    0  0.14819530875E+02  0.32874596553E+02  0.26097622806E+02  0.44513408208E+02  0.51100000000E-03 0.  1.
         22    1    1    0    0    0  0.22478741253E+02 -0.17337332323E+02  0.59503537572E+01  0.29004889419E+02  0.00000000000E+00 0.  1.
</event>
<event>
 5    1  0.1055265E-009  0.9118800E+02  0.7815553E-02  0.1125453E+00
         25   -1    0    0    0    0  0.00000000000E+00  0.00000000000E+00  0.99999998245E-14  0.12509000000E+03  0.12509000000E+03 0.  0.
        -11    1    3    3    0    0 -0.33626090030E+02 -0.25149500184E+02 -0.25645051652E+02  0.49202438605E+02  0.51100000000E-03 0.  1.
         23    2    1    0    0    0 -0.27471297682E+02  0.96211666660E+01  0.45073573480E+01  0.95635708044E+02  0.90986995436E+02 0.  0.
         11    1    3    3    0    0  0.61547923480E+01  0.34770666850E+02  0.30152409000E+02  0.46433269439E+02  0.51100000000E-03 0. -1.
         22    1    1    0    0    0  0.27471297682E+02 -0.96211666660E+01 -0.45073573480E+01  0.29454291956E+02  0.00000000000E+00 0.  1.
</event>
<event>
 5    1  0.1055265E-009  0.9118800E+02  0.7815553E-02  0.1125453E+00
         25   -1    0    0    0    0  0.00000000000E+00  0.00000000000E+00  0.99999998245E-14  0.12509000000E+03  0.12509000000E+03 0.  0.
        -11    1    3    3    0    0  0.25347883069E+02 -0.16082018316E+02  0.24172051738E+02  0.38541335922E+02  0.51100000000E-03 0.  1.
         23    2    1    0    0    0 -0.13509823567E+01  0.26851278038E+02 -0.61708818344E+01  0.97505655378E+02  0.93522493351E+02 0.  0.
         11    1    3    3    0    0 -0.26698865425E+02  0.42933296354E+02 -0.30342933573E+02  0.58964319456E+02  0.51100000000E-03 0. -1.
         22    1    1    0    0    0  0.13509823567E+01 -0.26851278038E+02  0.61708818344E+01  0.27584344622E+02  0.00000000000E+00 0. -1.
</event>
<event>
 5    1  0.1055265E-009  0.9118800E+02  0.7815553E-02  0.1125453E+00
         25   -1    0    0    0    0  0.00000000000E+00  0.00000000000E+00  0.99999998245E-14  0.12509000000E+03  0.12509000000E+03 0.  0.
        -11    1    3    3    0    0  0.29045121805E+02  0.38275704554E+00 -0.16324013782E+02  0.33320249546E+02  0.51100000000E-03 0.  1.
         23    2    1    0    0    0 -0.62925937883E+01 -0.85808776167E+01  0.30571446779E+02  0.92719619165E+02  0.86885477629E+02 0.  0.
         11    1    3    3    0    0 -0.35337715593E+02 -0.89636346622E+01  0.46895460561E+02  0.59399369619E+02  0.51100000000E-03 0. -1.
         22    1    1    0    0    0  0.62925937883E+01  0.85808776167E+01 -0.30571446779E+02  0.32370380835E+02  0.00000000000E+00 0. -1.
</event>
<event>
 5    1  0.1055265E-009  0.9118800E+02  0.7815553E-02  0.1125453E+00
         25   -1    0    0    0    0  0.00000000000E+00  0.00000000000E+00  0.99999998245E-14  0.12509000000E+03  0.12509000000E+03 0.  0.
        -11    1    3    3    0    0 -0.17147249219E+02  0.37502776693E+02  0.29109355986E+02  0.50476143094E+02  0.51100000000E-03 0.  1.
         23    2    1    0    0    0  0.17717648176E+02  0.12015641074E+02  0.22265357240E+02  0.94202513531E+02  0.88994812968E+02 0.  0.
         11    1    3    3    0    0  0.34864897396E+02 -0.25487135619E+02 -0.68439987461E+01  0.43726370437E+02  0.51100000000E-03 0. -1.
         22    1    1    0    0    0 -0.17717648176E+02 -0.12015641074E+02 -0.22265357240E+02  0.30887486469E+02  0.00000000000E+00 0.  1.
</event>
<event>
 5    1  0.1055265E-009  0.9118800E+02  0.7815553E-02  0.1125453E+00
         25   -1    0    0    0    0  0.00000000000E+00  0.00000000000E+00  0.99999998245E-14  0.12509000000E+03  0.12509000000E+03 0.  0.
        -11    1    3    3    0    0 -0.19412402025E+01 -0.33181123720E+02  0.18938497621E+02  0.38254700068E+02  0.51100000000E-03 0.  1.
         23    2    1    0    0    0  0.22475098040E+02  0.17489943117E+02  0.72462939946E+01  0.95704001313E+02  0.91080837438E+02 0.  0.
         11    1    3    3    0    0  0.24416338243E+02  0.50671066838E+02 -0.11692203626E+02  0.57449301245E+02  0.51100000000E-03 0. -1.
         22    1    1    0    0    0 -0.22475098040E+02 -0.17489943117E+02 -0.72462939946E+01  0.29385998687E+02  0.00000000000E+00 0. -1.
</event>
<event>
 5    1  0.1055265E-009  0.9118800E+02  0.7815553E-02  0.1125453E+00
         25   -1    0    0    0    0  0.00000000000E+00  0.00000000000E+00  0.99999998245E-14  0.12509000000E+03  0.12509000000E+03 0.  0.
        -11    1    3    3    0    0  0.23735173859E+02  0.31506807736E+02  0.26237871925E+02  0.47375767384E+02  0.51100000000E-03 0.  1.
         23    2    1    0    0    0 -0.18917040078E+02  0.17810555049E+02  0.37011949288E+00  0.99105249378E+02  0.95638084409E+02 0.  0.
         11    1    3    3    0    0 -0.42652213936E+02 -0.13696252687E+02 -0.25867752432E+02  0.51729481995E+02  0.51100000000E-03 0. -1.
         22    1    1    0    0    0  0.18917040078E+02 -0.17810555049E+02 -0.37011949288E+00  0.25984750622E+02  0.00000000000E+00 0. -1.
</event>
<event>
 5    1  0.1055265E-009  0.9118800E+02  0.7815553E-02  0.1125453E+00
         25   -1    0    0    0    0  0.00000000000E+00  0.00000000000E+00  0.99999998245E-14  0.12509000000E+03  0.12509000000E+03 0.  0.
        -11    1    3    3    0    0 -0.13953983939E+02 -0.12530971233E+02 -0.49800037526E+02  0.53214496574E+02  0.51100000000E-03 0.  1.
         23    2    1    0    0    0 -0.78532010308E+01 -0.30474580669E+02 -0.22687481834E+02  0.86294450444E+02  0.77082018085E+02 0.  0.
         11    1    3    3    0    0  0.61007829077E+01 -0.17943609436E+02  0.27112555691E+02  0.33079953870E+02  0.51100000000E-03 0. -1.
         22    1    1    0    0    0  0.78532010308E+01  0.30474580669E+02  0.22687481834E+02  0.38795549556E+02  0.00000000000E+00 0.  1.
</event>
<event>
 5    1  0.1055265E-009  0.9118800E+02  0.7815553E-02  0.1125453E+00
         25   -1    0    0    0    0  0.00000000000E+00  0.00000000000E+00  0.99999998245E-14  0.12509000000E+03  0.12509000000E+03 0.  0.
        -11    1    3    3    0    0 -0.14324991025E+02 -0.55651013783E+02  0.58812048715E+01  0.57765294718E+02  0.51100000000E-03 0.  1.
         23    2    1    0    0    0 -0.17366713447E+02 -0.18993083650E+02  0.14506846788E+02  0.95547004786E+02  0.90864963310E+02 0.  0.
         11    1    3    3    0    0 -0.30417224218E+01  0.36657930133E+02  0.86256419167E+01  0.37781710068E+02  0.51100000000E-03 0. -1.
         22    1    1    0    0    0  0.17366713447E+02  0.18993083650E+02 -0.14506846788E+02  0.29542995214E+02  0.00000000000E+00 0.  1.
</event>
<event>
 5    1  0.1055265E-009  0.9118800E+02  0.7815553E-02  0.1125453E+00
         25   -1    0    0    0    0  0.00000000000E+00  0.00000000000E+00  0.99999998245E-14  0.12509000000E+03  0.12509000000E+03 0.  0.
        -11    1    3    3    0    0  0.44966544838E+02  0.24632439742E+02  0.32563671001E+02  0.60738290325E+02  0.51100000000E-03 0.  1.
         23    2    1    0    0    0  0.24915094181E+02  0.19601561980E+02  0.88944943903E+01  0.92164399314E+02  0.86082410051E+02 0.  0.
         11    1    3    3    0    0 -0.20051450657E+02 -0.50308777619E+01 -0.23669176610E+02  0.31426108989E+02  0.51100000000E-03 0. -1.
         22    1    1    0    0    0 -0.24915094181E+02 -0.19601561980E+02 -0.88944943903E+01  0.32925600686E+02  0.00000000000E+00 0.  1.
</event>
<event>
 5    1  0.1055265E-009  0.9118800E+02  0.7815553E-02  0.1125453E+00
         25   -1    0    0    0    0  0.00000000000E+00  0.00000000000E+00  0.99999998245E-14  0.12509000000E+03  0.12509000000E+03 0.  0.
        -11    1    3    3    0    0  0.27154599156E+02 -0.19135190063E+02  0.34378831769E+02  0.47806190270E+02  0.51100000000E-03 0. -1.
         23    2    1    0    0    0  0.20485443216E+02  0.20110991242E+02  0.90488711026E+01  0.94990375073E+02  0.90095415731E+02 0.  0.
         11    1    3    3    0    0 -0.66691559397E+01  0.39246181305E+02 -0.25329960666E+02  0.47184184804E+02  0.51100000000E-03 0.  1.
         22    1    1    0    0    0 -0.20485443216E+02 -0.20110991242E+02 -0.90488711026E+01  0.30099624927E+02  0.00000000000E+00 0.  1.
</event>
<event>
 5    1  0.1055265E-009  0.9118800E+02  0.7815553E-02  0.1125453E+00
         25   -1    0    0    0    0  0.00000000000E+00  0.00000000000E+00  0.99999998245E-14  0.12509000000E+03  0.12509000000E+03 0.  0.
        -11    1    3    3    0    0 -0.17212895240E+02  0.44852141957E+02 -0.14446580175E+02  0.50166742766E+02  0.51100000000E-03 0. -1.
         23    2    1    0    0    0  0.17552693716E+02  0.15977966577E+02 -0.17707396127E+02  0.95476753804E+02  0.90768200196E+02 0.  0.
         11    1    3    3    0    0  0.34765588956E+02 -0.28874175380E+02 -0.32608159528E+01  0.45310011039E+02  0.51100000000E-03 0.  1.
         22    1    1    0    0    0 -0.17552693716E+02 -0.15977966577E+02  0.17707396127E+02  0.29613246196E+02  0.00000000000E+00 0.  1.
</event>
<event>
 5    1  0.1055265E-009  0.9118800E+02  0.7815553E-02  0.1125453E+00
         25   -1    0    0    0    0  0.00000000000E+00  0.00000000000E+00  0.99999998245E-14  0.12509000000E+03  0.12509000000E+03 0.  0.
        -11    1    3    3    0    0 -0.14663475862E+02  0.58569049582E+02 -0.11658402712E+02  0.61492027510E+02  0.51100000000E-03 0.  1.
         23    2    1    0    0    0 -0.77980767791E+01  0.27559055952E+02  0.26489315421E+01  0.96326683002E+02  0.91932048021E+02 0.  0.
         11    1    3    3    0    0  0.68653990834E+01 -0.31009993630E+02  0.14307334254E+02  0.34834655491E+02  0.51100000000E-03 0. -1.
         22    1    1    0    0    0  0.77980767791E+01 -0.27559055952E+02 -0.26489315421E+01  0.28763316998E+02  0.00000000000E+00 0.  1.
</event>
<event>
 5    1  0.1055265E-009  0.9118800E+02  0.7815553E-02  0.1125453E+00
         25   -1    0    0    0    0  0.00000000000E+00  0.00000000000E+00  0.99999998245E-14  0.12509000000E+03  0.12509000000E+03 0.  0.
        -11    1    3    3    0    0  0.39641454578E+02 -0.81564620615E+01 -0.12406305873E+01  0.40490887357E+02  0.51100000000E-03 0.  1.
         23    2    1    0    0    0 -0.12967872021E+02 -0.25475834722E+02 -0.52611675392E+01  0.96023460071E+02  0.91518528947E+02 0.  0.
         11    1    3    3    0    0 -0.52609326599E+02 -0.17319372661E+02 -0.40205369519E+01  0.55532572714E+02  0.51100000000E-03 0. -1.
         22    1    1    0    0    0  0.12967872021E+02  0.25475834722E+02  0.52611675392E+01  0.29066539929E+02  0.00000000000E+00 0.  1.
</event>
<event>
 5    1  0.1055265E-009  0.9118800E+02  0.7815553E-02  0.1125453E+00
         25   -1    0    0    0    0  0.00000000000E+00  0.00000000000E+00  0.99999998245E-14  0.12509000000E+03  0.12509000000E+03 0.  0.
        -11    1    3    3    0    0 -0.43021194199E+02  0.19227832047E+02  0.36104841080E+02  0.59364065100E+02  0.51100000000E-03 0.  1.
         23    2    1    0    0    0 -0.84480880903E+01  0.13863757329E+02  0.23448643910E+02  0.96569606228E+02  0.92261996435E+02 0.  0.
         11    1    3    3    0    0  0.34573106109E+02 -0.53640747184E+01 -0.12656197170E+02  0.37205541128E+02  0.51100000000E-03 0. -1.
         22    1    1    0    0    0  0.84480880903E+01 -0.13863757329E+02 -0.23448643910E+02  0.28520393772E+02  0.00000000000E+00 0.  1.
</event>
<event>
 5    1  0.1055265E-009  0.9118800E+02  0.7815553E-02  0.1125453E+00
         25   -1    0    0    0    0  0.00000000000E+00  0.00000000000E+00  0.99999998245E-14  0.12509000000E+03  0.12509000000E+03 0.  0.
        -11    1    3    3    0    0  0.23175631195E+02  0.29969153033E+02  0.44945805645E-01  0.37884852319E+02  0.51100000000E-03 0.  1.
         23    2    1    0    0    0  0.88400625380E+01 -0.26182861088E+02 -0.78219325812E+01  0.96369422886E+02  0.91990184898E+02 0.  0.
         11    1    3    3    0    0 -0.14335568657E+02 -0.56152014122E+02 -0.78668783868E+01  0.58484570567E+02  0.51100000000E-03 0. -1.
         22    1    1    0    0    0 -0.88400625380E+01  0.26182861088E+02  0.78219325812E+01  0.28720577114E+02  0.00000000000E+00 0. -1.
</event>
<event>
 5    1  0.1055265E-009  0.9118800E+02  0.7815553E-02  0.1125453E+00
         25   -1    0    0    0    0  0.00000000000E+00  0.00000000000E+00  0.99999998245E-14  0.12509000000E+03  0.12509000000E+03 0.  0.
        -11    1    3    3    0    0 -0.29307793108E+02 -0.18659074068E+02  0.23857556187E+01  0.34825272606E+02  0.51100000000E-03 0. -1.
         23    2    1    0    0    0 -0.27878704593E+02  0.11310854524E+01 -0.36894856690E+02  0.78832763007E+02  0.63834728393E+02 0.  0.
         11    1    3    3    0    0  0.14290885143E+01  0.19790159521E+02 -0.39280612308E+02  0.44007490401E+02  0.51100000000E-03 0.  1.
         22    1    1    0    0    0  0.27878704593E+02 -0.11310854524E+01  0.36894856690E+02  0.46257236993E+02  0.00000000000E+00 0.  1.
</event>
<event>
 5    1  0.1055265E-009  0.9118800E+02  0.7815553E-02  0.1125453E+00
         25   -1    0    0    0    0  0.00000000000E+00  0.00000000000E+00  0.99999998245E-14  0.12509000000E+03  0.12509000000E+03 0.  0.
        -11    1    3    3    0    0 -0.59494849368E+02 -0.75747310248E+01 -0.17818928919E+01  0.60001573262E+02  0.51100000000E-03 0.  1.
         23    2    1    0    0    0 -0.27152241914E+02  0.91395577390E+01 -0.13113890779E+01  0.96410817690E+02  0.92046457128E+02 0.  0.
         11    1    3    3    0    0  0.32342607453E+02  0.16714288764E+02  0.47050381398E+00  0.36409244428E+02  0.51100000000E-03 0. -1.
         22    1    1    0    0    0  0.27152241914E+02 -0.91395577390E+01  0.13113890779E+01  0.28679182310E+02  0.00000000000E+00 0.  1.
</event>
<event>
 5    1  0.1055265E-009  0.9118800E+02  0.7815553E-02  0.1125453E+00
         25   -1    0    0    0    0  0.00000000000E+00  0.00000000000E+00  0.99999998245E-14  0.12509000000E+03  0.12509000000E+03 0.  0.
        -11    1    3    3    0    0 -0.53129124418E+02  0.21518581560E+02  0.67578717857E+01  0.57718472304E+02  0.51100000000E-03 0.  1.
         23    2    1    0    0    0 -0.19009930404E+02  0.24360950862E+02  0.11156563469E+02  0.92237263595E+02  0.86188227191E+02 0.  0.
         11    1    3    3    0    0  0.34119194014E+02  0.28423693020E+01  0.43986916828E+01  0.34518791291E+02  0.51100000000E-03 0. -1.
         22    1    1    0    0    0  0.19009930404E+02 -0.24360950862E+02 -0.11156563469E+02  0.32852736405E+02  0.00000000000E+00 0.  1.
</event>
<event>
 5    1  0.1055265E-009  0.9118800E+02  0.7815553E-02  0.1125453E+00
         25   -1    0    0    0    0  0.00000000000E+00  0.00000000000E+00  0.99999998245E-14  0.12509000000E+03  0.12509000000E+03 0.  0.
        -11    1    3    3    0    0  0.25033124481E+02  0.33958150613E+02 -0.35774246311E+02  0.55313741635E+02  0.51100000000E-03 0.  1.
         23    2    1    0    0    0 -0.41012548426E+01  0.10520332723E+02 -0.29854927553E+02  0.93171127979E+02  0.87533106296E+02 0.  0.
         11    1    3    3    0    0 -0.29134379323E+02 -0.23437817890E+02  0.59193187576E+01  0.37857386344E+02  0.51100000000E-03 0. -1.
         22    1    1    0    0    0  0.41012548426E+01 -0.10520332723E+02  0.29854927553E+02  0.31918872021E+02  0.00000000000E+00 0.  1.
</event>
<event>
 5    1  0.1055265E-009  0.9118800E+02  0.7815553E-02  0.1125453E+00
         25   -1    0    0    0    0  0.00000000000E+00  0.00000000000E+00  0.99999998245E-14  0.12509000000E+03  0.12509000000E+03 0.  0.
        -11    1    3    3    0    0  0.49534225501E+02  0.22836474673E+02 -0.26715380147E+02  0.60735949882E+02  0.51100000000E-03 0.  1.
         23    2    1    0    0    0  0.25953921304E+02  0.17700721481E+01 -0.64654089683E+01  0.98284390520E+02  0.94558345588E+02 0.  0.
         11    1    3    3    0    0 -0.23580304197E+02 -0.21066402525E+02  0.20249971179E+02  0.37548440638E+02  0.51100000000E-03 0. -1.
         22    1    1    0    0    0 -0.25953921304E+02 -0.17700721481E+01  0.64654089683E+01  0.26805609480E+02  0.00000000000E+00 0.  1.
</event>
<event>
 5    1  0.1055265E-009  0.9118800E+02  0.7815553E-02  0.1125453E+00
         25   -1    0    0    0    0  0.00000000000E+00  0.00000000000E+00  0.99999998245E-14  0.12509000000E+03  0.12509000000E+03 0.  0.
        -11    1    3    3    0    0 -0.23058943300E+02 -0.17804433356E+02 -0.28077447728E+02  0.40460546023E+02  0.51100000000E-03 0. -1.
         23    2    1    0    0    0 -0.81573016197E+01 -0.16027003005E+02  0.24251119378E+02  0.94898557734E+02  0.89967844666E+02 0.  0.
         11    1    3    3    0    0  0.14901641681E+02  0.17774303501E+01  0.52328567106E+02  0.54438011711E+02  0.51100000000E-03 0.  1.
         22    1    1    0    0    0  0.81573016197E+01  0.16027003005E+02 -0.24251119378E+02  0.30191442266E+02  0.00000000000E+00 0.  1.
</event>
<event>
 5    1  0.1055265E-009  0.9118800E+02  0.7815553E-02  0.1125453E+00
         25   -1    0    0    0    0  0.00000000000E+00  0.00000000000E+00  0.99999998245E-14  0.12509000000E+03  0.12509000000E+03 0.  0.
        -11    1    3    3    0    0  0.47539288764E+02 -0.21162262673E+02 -0.16257653945E+02  0.54517305965E+02  0.51100000000E-03 0.  1.
         23    2    1    0    0    0  0.14962157850E+02 -0.22429235388E+02  0.99540402288E+01  0.96349441820E+02  0.91963010252E+02 0.  0.
         11    1    3    3    0    0 -0.32577130914E+02 -0.12669727144E+01  0.26211694174E+02  0.41832135855E+02  0.51100000000E-03 0. -1.
         22    1    1    0    0    0 -0.14962157850E+02  0.22429235388E+02 -0.99540402288E+01  0.28740558180E+02  0.00000000000E+00 0.  1.
</event>
<event>
 5    1  0.1055265E-009  0.9118800E+02  0.7815553E-02  0.1125453E+00
         25   -1    0    0    0    0  0.00000000000E+00  0.00000000000E+00  0.99999998245E-14  0.12509000000E+03  0.12509000000E+03 0.  0.
        -11    1    3    3    0    0 -0.27278651900E+02 -0.32282013214E+02  0.11534573732E+02  0.43809811893E+02  0.51100000000E-03 0. -1.
         23    2    1    0    0    0 -0.13918330032E+02  0.19548118254E+02  0.13847888600E+02  0.97384172872E+02  0.93359864338E+02 0.  0.
         11    1    3    3    0    0  0.13360321868E+02  0.51830131468E+02  0.23133148686E+01  0.53574360980E+02  0.51100000000E-03 0.  1.
         22    1    1    0    0    0  0.13918330032E+02 -0.19548118254E+02 -0.13847888600E+02  0.27705827128E+02  0.00000000000E+00 0.  1.
</event>
<event>
 5    1  0.1055265E-009  0.9118800E+02  0.7815553E-02  0.1125453E+00
         25   -1    0    0    0    0  0.00000000000E+00  0.00000000000E+00  0.99999998245E-14  0.12509000000E+03  0.12509000000E+03 0.  0.
        -11    1    3    3    0    0  0.40311402592E+02 -0.11705296200E+02  0.30491046212E+02  0.51881856534E+02  0.51100000000E-03 0. -1.
         23    2    1    0    0    0 -0.81245580864E+00  0.27334312694E+01  0.29473685592E+02  0.95478686735E+02  0.90770863978E+02 0.  0.
         11    1    3    3    0    0 -0.41123858400E+02  0.14438727469E+02 -0.10173606201E+01  0.43596830201E+02  0.51100000000E-03 0.  1.
         22    1    1    0    0    0  0.81245580864E+00 -0.27334312694E+01 -0.29473685592E+02  0.29611313265E+02  0.00000000000E+00 0.  1.
</event>
<event>
 5    1  0.1055265E-009  0.9118800E+02  0.7815553E-02  0.1125453E+00
         25   -1    0    0    0    0  0.00000000000E+00  0.00000000000E+00  0.99999998245E-14  0.12509000000E+03  0.12509000000E+03 0.  0.
        -11    1    3    3    0    0 -0.40062808469E+02 -0.14405858542E+02  0.28590739604E+02  0.51283406421E+02  0.51100000000E-03 0. -1.
         23    2    1    0    0    0  0.11027666026E+01 -0.92520635955E-01  0.30174558072E+02  0.94895155919E+02  0.89963114707E+02 0.  0.
         11    1    3    3    0    0  0.41165575072E+02  0.14313337906E+02  0.15838184682E+01  0.43611749497E+02  0.51100000000E-03 0.  1.
         22    1    1    0    0    0 -0.11027666026E+01  0.92520635955E-01 -0.30174558072E+02  0.30194844081E+02  0.00000000000E+00 0. -1.
</event>
<event>
 5    1  0.1055265E-009  0.9118800E+02  0.7815553E-02  0.1125453E+00
         25   -1    0    0    0    0  0.00000000000E+00  0.00000000000E+00  0.99999998245E-14  0.12509000000E+03  0.12509000000E+03 0.  0.
        -11    1    3    3    0    0  0.34124954149E+02  0.16838313116E+02 -0.24448331571E+02  0.45230102820E+02  0.51100000000E-03 0. -1.
         23    2    1    0    0    0  0.97579527116E+01  0.28239928806E+02  0.13950571743E+02  0.92115317711E+02  0.86011057923E+02 0.  0.
         11    1    3    3    0    0 -0.24367001437E+02  0.11401615690E+02  0.38398903314E+02  0.46885214891E+02  0.51100000000E-03 0.  1.
         22    1    1    0    0    0 -0.97579527116E+01 -0.28239928806E+02 -0.13950571743E+02  0.32974682289E+02  0.00000000000E+00 0.  1.
</event>
<event>
 5    1  0.1055265E-009  0.9118800E+02  0.7815553E-02  0.1125453E+00
         25   -1    0    0    0    0  0.00000000000E+00  0.00000000000E+00  0.99999998245E-14  0.12509000000E+03  0.12509000000E+03 0.  0.
        -11    1    3    3    0    0  0.18705616094E+02  0.17751300460E+02 -0.35016869074E+02  0.43487812793E+02  0.51100000000E-03 0. -1.
         23    2    1    0    0    0 -0.21707898500E+02 -0.10502500314E+02 -0.81983704578E+01  0.99619455280E+02  0.96308292592E+02 0.  0.
         11    1    3    3    0    0 -0.40413514595E+02 -0.28253800774E+02  0.26818498616E+02  0.56131642488E+02  0.51100000000E-03 0.  1.
         22    1    1    0    0    0  0.21707898500E+02  0.10502500314E+02  0.81983704578E+01  0.25470544720E+02  0.00000000000E+00 0.  1.
</event>
<event>
 5    1  0.1055265E-009  0.9118800E+02  0.7815553E-02  0.1125453E+00
         25   -1    0    0    0    0  0.00000000000E+00  0.00000000000E+00  0.99999998245E-14  0.12509000000E+03  0.12509000000E+03 0.  0.
        -11    1    3    3    0    0 -0.12662268024E+02 -0.31782903977E+02  0.33188982162E+02  0.47665444023E+02  0.51100000000E-03 0. -1.
         23    2    1    0    0    0 -0.22641169364E+02 -0.13038365323E+02 -0.11038596279E+02  0.96726782124E+02  0.92474851997E+02 0.  0.
         11    1    3    3    0    0 -0.99789013408E+01  0.18744538654E+02 -0.44227578440E+02  0.49061338101E+02  0.51100000000E-03 0.  1.
         22    1    1    0    0    0  0.22641169364E+02  0.13038365323E+02  0.11038596279E+02  0.28363217876E+02  0.00000000000E+00 0. -1.
</event>
<event>
 5    1  0.1055265E-009  0.9118800E+02  0.7815553E-02  0.1125453E+00
         25   -1    0    0    0    0  0.00000000000E+00  0.00000000000E+00  0.99999998245E-14  0.12509000000E+03  0.12509000000E+03 0.  0.
        -11    1    3    3    0    0 -0.25855397426E+02  0.41715188154E+02  0.25795290667E+02  0.55444165786E+02  0.51100000000E-03 0. -1.
         23    2    1    0    0    0  0.66182555633E+01  0.17967054599E+02  0.22107392167E+02  0.95843578918E+02  0.91272331370E+02 0.  0.
         11    1    3    3    0    0  0.32473652989E+02 -0.23748133555E+02 -0.36878984994E+01  0.40399413132E+02  0.51100000000E-03 0.  1.
         22    1    1    0    0    0 -0.66182555633E+01 -0.17967054599E+02 -0.22107392167E+02  0.29246421082E+02  0.00000000000E+00 0. -1.
</event>
<event>
 5    1  0.1055265E-009  0.9118800E+02  0.7815553E-02  0.1125453E+00
         25   -1    0    0    0    0  0.00000000000E+00  0.00000000000E+00  0.99999998245E-14  0.12509000000E+03  0.12509000000E+03 0.  0.
        -11    1    3    3    0    0 -0.16641597530E+02 -0.20365739653E+02  0.18029386295E+02  0.31886751016E+02  0.51100000000E-03 0.  1.
         23    2    1    0    0    0  0.13880093379E+01  0.19982064765E+02 -0.24652605132E+02  0.93325862644E+02  0.87753952710E+02 0.  0.
         11    1    3    3    0    0  0.18029606868E+02  0.40347804418E+02 -0.42681991427E+02  0.61439111627E+02  0.51100000000E-03 0. -1.
         22    1    1    0    0    0 -0.13880093379E+01 -0.19982064765E+02  0.24652605132E+02  0.31764137356E+02  0.00000000000E+00 0. -1.
</event>
<event>
 5    1  0.1055265E-009  0.9118800E+02  0.7815553E-02  0.1125453E+00
         25   -1    0    0    0    0  0.00000000000E+00  0.00000000000E+00  0.99999998245E-14  0.12509000000E+03  0.12509000000E+03 0.  0.
        -11    1    3    3    0    0  0.15322910835E+02 -0.30757707083E+02  0.24797446863E+02  0.42376190398E+02  0.51100000000E-03 0. -1.
         23    2    1    0    0    0 -0.28202277640E+02 -0.12908097934E+02  0.39791497314E+01  0.93819869061E+02  0.88455337553E+02 0.  0.
         11    1    3    3    0    0 -0.43525188475E+02  0.17849609149E+02 -0.20818297132E+02  0.51443678662E+02  0.51100000000E-03 0.  1.
         22    1    1    0    0    0  0.28202277640E+02  0.12908097934E+02 -0.39791497314E+01  0.31270130939E+02  0.00000000000E+00 0.  1.
</event>
<event>
 5    1  0.1055265E-009  0.9118800E+02  0.7815553E-02  0.1125453E+00
         25   -1    0    0    0    0  0.00000000000E+00  0.00000000000E+00  0.99999998245E-14  0.12509000000E+03  0.12509000000E+03 0.  0.
        -11    1    3    3    0    0 -0.48838392446E+02  0.31971079407E+02  0.18056568699E+01  0.58400332980E+02  0.51100000000E-03 0.  1.
         23    2    1    0    0    0 -0.27454666555E+02  0.20146668704E+01 -0.78741303284E+01  0.96457509248E+02  0.92109888523E+02 0.  0.
         11    1    3    3    0    0  0.21383725891E+02 -0.29956412536E+02 -0.96797871983E+01  0.38057176268E+02  0.51100000000E-03 0. -1.
         22    1    1    0    0    0  0.27454666555E+02 -0.20146668704E+01  0.78741303284E+01  0.28632490752E+02  0.00000000000E+00 0.  1.
</event>
<event>
 5    1  0.1055265E-009  0.9118800E+02  0.7815553E-02  0.1125453E+00
         25   -1    0    0    0    0  0.00000000000E+00  0.00000000000E+00  0.99999998245E-14  0.12509000000E+03  0.12509000000E+03 0.  0.
        -11    1    3    3    0    0  0.99849726794E+01  0.29185816277E+02  0.43784959334E+02  0.53559632330E+02  0.51100000000E-03 0.  1.
         23    2    1    0    0    0  0.26102838808E+02  0.12323282995E+02  0.10149774567E+02  0.94491970302E+02  0.89400744014E+02 0.  0.
         11    1    3    3    0    0  0.16117866129E+02 -0.16862533282E+02 -0.33635184767E+02  0.40932337972E+02  0.51100000000E-03 0. -1.
         22    1    1    0    0    0 -0.26102838808E+02 -0.12323282995E+02 -0.10149774567E+02  0.30598029698E+02  0.00000000000E+00 0.  1.
</event>
<event>
 5    1  0.1055265E-009  0.9118800E+02  0.7815553E-02  0.1125453E+00
         25   -1    0    0    0    0  0.00000000000E+00  0.00000000000E+00  0.99999998245E-14  0.12509000000E+03  0.12509000000E+03 0.  0.
        -11    1    3    3    0    0 -0.31919469738E+02  0.35424766318E+01 -0.29329601751E+02  0.43492841115E+02  0.51100000000E-03 0. -1.
         23    2    1    0    0    0 -0.31455183839E+02 -0.48446974741E+01  0.15912118797E+02  0.89507768359E+02  0.82131269247E+02 0.  0.
         11    1    3    3    0    0  0.46428589938E+00 -0.83871741059E+01  0.45241720548E+02  0.46014927244E+02  0.51100000000E-03 0.  1.
         22    1    1    0    0    0  0.31455183839E+02  0.48446974741E+01 -0.15912118797E+02  0.35582231641E+02  0.00000000000E+00 0. -1.
</event>
<event>
 5    1  0.1055265E-009  0.9118800E+02  0.7815553E-02  0.1125453E+00
         25   -1    0    0    0    0  0.00000000000E+00  0.00000000000E+00  0.99999998245E-14  0.12509000000E+03  0.12509000000E+03 0.  0.
        -11    1    3    3    0    0 -0.13629456531E+02  0.28341135433E+02 -0.40757957323E+02  0.51480026499E+02  0.51100000000E-03 0.  1.
         23    2    1    0    0    0  0.19827474125E+02  0.16415098077E+02 -0.15876764303E+02  0.94846722734E+02  0.89895745136E+02 0.  0.
         11    1    3    3    0    0  0.33456930657E+02 -0.11926037355E+02  0.24881193020E+02  0.43366696235E+02  0.51100000000E-03 0. -1.
         22    1    1    0    0    0 -0.19827474125E+02 -0.16415098077E+02  0.15876764303E+02  0.30243277266E+02  0.00000000000E+00 0.  1.
</event>
<event>
 5    1  0.1055265E-009  0.9118800E+02  0.7815553E-02  0.1125453E+00
         25   -1    0    0    0    0  0.00000000000E+00  0.00000000000E+00  0.99999998245E-14  0.12509000000E+03  0.12509000000E+03 0.  0.
        -11    1    3    3    0    0  0.14425691807E+02 -0.25507548879E+02 -0.25097497567E+02  0.38582638821E+02  0.51100000000E-03 0. -1.
         23    2    1    0    0    0  0.37699939484E+01  0.27420155768E+02 -0.15334236750E+02  0.93447992899E+02  0.87927872506E+02 0.  0.
         11    1    3    3    0    0 -0.10655697859E+02  0.52927704647E+02  0.97632608172E+01  0.54865354078E+02  0.51100000000E-03 0.  1.
         22    1    1    0    0    0 -0.37699939484E+01 -0.27420155768E+02  0.15334236750E+02  0.31642007101E+02  0.00000000000E+00 0.  1.
</event>
<event>
 5    1  0.1055265E-009  0.9118800E+02  0.7815553E-02  0.1125453E+00
         25   -1    0    0    0    0  0.00000000000E+00  0.00000000000E+00  0.99999998245E-14  0.12509000000E+03  0.12509000000E+03 0.  0.
        -11    1    3    3    0    0 -0.34768854993E+02  0.12114385943E+02  0.27177822196E+02  0.45763147224E+02  0.51100000000E-03 0.  1.
         23    2    1    0    0    0 -0.88957825290E+01  0.24540838734E+02 -0.13620788317E+02  0.95646603678E+02  0.91001973650E+02 0.  0.
         11    1    3    3    0    0  0.25873072464E+02  0.12426452791E+02 -0.40798610514E+02  0.49883456454E+02  0.51100000000E-03 0. -1.
         22    1    1    0    0    0  0.88957825290E+01 -0.24540838734E+02  0.13620788317E+02  0.29443396322E+02  0.00000000000E+00 0.  1.
</event>
<event>
 5    1  0.1055265E-009  0.9118800E+02  0.7815553E-02  0.1125453E+00
         25   -1    0    0    0    0  0.00000000000E+00  0.00000000000E+00  0.99999998245E-14  0.12509000000E+03  0.12509000000E+03 0.  0.
        -11    1    3    3    0    0  0.18242449849E+02  0.54631099030E+01 -0.27271397959E+02  0.33262015772E+02  0.51100000000E-03 0. -1.
         23    2    1    0    0    0 -0.25478124013E+02  0.50125608667E+01  0.15847195302E+02  0.94669707947E+02  0.89649090537E+02 0.  0.
         11    1    3    3    0    0 -0.43720573862E+02 -0.45054903628E+00  0.43118593261E+02  0.61407692175E+02  0.51100000000E-03 0.  1.
         22    1    1    0    0    0  0.25478124013E+02 -0.50125608667E+01 -0.15847195302E+02  0.30420292053E+02  0.00000000000E+00 0.  1.
</event>
<event>
 5    1  0.1055265E-009  0.9118800E+02  0.7815553E-02  0.1125453E+00
         25   -1    0    0    0    0  0.00000000000E+00  0.00000000000E+00  0.99999998245E-14  0.12509000000E+03  0.12509000000E+03 0.  0.
        -11    1    3    3    0    0  0.84833091306E+01 -0.31622547692E+02 -0.70460520339E+01  0.33490280767E+02  0.51100000000E-03 0. -1.
         23    2    1    0    0    0 -0.58654337956E+01  0.28714999811E+02 -0.21749913782E+01  0.95701479873E+02  0.91077374439E+02 0.  0.
         11    1    3    3    0    0 -0.14348742926E+02  0.60337547502E+02  0.48710606556E+01  0.62211199107E+02  0.51100000000E-03 0.  1.
         22    1    1    0    0    0  0.58654337956E+01 -0.28714999811E+02  0.21749913782E+01  0.29388520127E+02  0.00000000000E+00 0.  1.
</event>
<event>
 5    1  0.1055265E-009  0.9118800E+02  0.7815553E-02  0.1125453E+00
         25   -1    0    0    0    0  0.00000000000E+00  0.00000000000E+00  0.99999998245E-14  0.12509000000E+03  0.12509000000E+03 0.  0.
        -11    1    3    3    0    0 -0.77361173952E+01  0.12156375233E+02 -0.49641166208E+02  0.51690137879E+02  0.51100000000E-03 0.  1.
         23    2    1    0    0    0 -0.24652300201E+02  0.13958400496E+02 -0.96290339465E+01  0.95168583851E+02  0.90342504991E+02 0.  0.
         11    1    3    3    0    0 -0.16916182805E+02  0.18020252630E+01  0.40012132262E+02  0.43478445972E+02  0.51100000000E-03 0. -1.
         22    1    1    0    0    0  0.24652300201E+02 -0.13958400496E+02  0.96290339465E+01  0.29921416149E+02  0.00000000000E+00 0.  1.
</event>
<event>
 5    1  0.1055265E-009  0.9118800E+02  0.7815553E-02  0.1125453E+00
         25   -1    0    0    0    0  0.00000000000E+00  0.00000000000E+00  0.99999998245E-14  0.12509000000E+03  0.12509000000E+03 0.  0.
        -11    1    3    3    0    0 -0.16795172960E+02  0.16050326271E+02 -0.27539938222E+02  0.36029696164E+02  0.51100000000E-03 0. -1.
         23    2    1    0    0    0  0.14119009513E+02  0.24999684842E+01  0.23701277236E+02  0.97388974484E+02  0.93366297647E+02 0.  0.
         11    1    3    3    0    0  0.30914182473E+02 -0.13550357786E+02  0.51241215458E+02  0.61359278320E+02  0.51100000000E-03 0.  1.
         22    1    1    0    0    0 -0.14119009513E+02 -0.24999684842E+01 -0.23701277236E+02  0.27701025516E+02  0.00000000000E+00 0.  1.
</event>
<event>
 5    1  0.1055265E-009  0.9118800E+02  0.7815553E-02  0.1125453E+00
         25   -1    0    0    0    0  0.00000000000E+00  0.00000000000E+00  0.99999998245E-14  0.12509000000E+03  0.12509000000E+03 0.  0.
        -11    1    3    3    0    0  0.59643582361E+01 -0.19314321802E+02  0.29688145079E+02  0.35916605552E+02  0.51100000000E-03 0.  1.
         23    2    1    0    0    0  0.12897279930E+02  0.20210731514E+01 -0.26023652414E+02  0.95975483840E+02  0.91452930227E+02 0.  0.
         11    1    3    3    0    0  0.69329216935E+01  0.21335394954E+02 -0.55711797493E+02  0.60058878288E+02  0.51100000000E-03 0. -1.
         22    1    1    0    0    0 -0.12897279930E+02 -0.20210731514E+01  0.26023652414E+02  0.29114516160E+02  0.00000000000E+00 0. -1.
</event>
<event>
 5    1  0.1055265E-009  0.9118800E+02  0.7815553E-02  0.1125453E+00
         25   -1    0    0    0    0  0.00000000000E+00  0.00000000000E+00  0.99999998245E-14  0.12509000000E+03  0.12509000000E+03 0.  0.
        -11    1    3    3    0    0  0.87672186609E+01  0.38399870736E+02 -0.17958498694E+02  0.43288819240E+02  0.51100000000E-03 0.  1.
         23    2    1    0    0    0  0.98165887317E+01  0.20671141268E+02  0.25853592719E+02  0.90563636853E+02  0.83723966509E+02 0.  0.
         11    1    3    3    0    0  0.10493700708E+01 -0.17728729468E+02  0.43812091413E+02  0.47274817613E+02  0.51100000000E-03 0. -1.
         22    1    1    0    0    0 -0.98165887317E+01 -0.20671141268E+02 -0.25853592719E+02  0.34526363147E+02  0.00000000000E+00 0. -1.
</event>
<event>
 5    1  0.1055265E-009  0.9118800E+02  0.7815553E-02  0.1125453E+00
         25   -1    0    0    0    0  0.00000000000E+00  0.00000000000E+00  0.99999998245E-14  0.12509000000E+03  0.12509000000E+03 0.  0.
        -11    1    3    3    0    0 -0.52249645526E+02 -0.24642814587E+02 -0.66075739079E+01  0.58145969780E+02  0.51100000000E-03 0.  1.
         23    2    1    0    0    0 -0.13557427855E+02 -0.24301584070E+02 -0.45369750513E+01  0.96895053982E+02  0.92702192558E+02 0.  0.
         11    1    3    3    0    0  0.38692217672E+02  0.34123051645E+00  0.20705988566E+01  0.38749084202E+02  0.51100000000E-03 0. -1.
         22    1    1    0    0    0  0.13557427855E+02  0.24301584070E+02  0.45369750513E+01  0.28194946018E+02  0.00000000000E+00 0.  1.
</event>
<event>
 5    1  0.1055265E-009  0.9118800E+02  0.7815553E-02  0.1125453E+00
         25   -1    0    0    0    0  0.00000000000E+00  0.00000000000E+00  0.99999998245E-14  0.12509000000E+03  0.12509000000E+03 0.  0.
        -11    1    3    3    0    0  0.27981688151E+02  0.49213062448E+01  0.21692708149E+02  0.35745876881E+02  0.51100000000E-03 0. -1.
         23    2    1    0    0    0 -0.96485401868E+01  0.97147997716E+00 -0.26415514218E+02  0.96950748189E+02  0.92777314479E+02 0.  0.
         11    1    3    3    0    0 -0.37630228337E+02 -0.39498262677E+01 -0.48108222367E+02  0.61204871308E+02  0.51100000000E-03 0.  1.
         22    1    1    0    0    0  0.96485401868E+01 -0.97147997716E+00  0.26415514218E+02  0.28139251811E+02  0.00000000000E+00 0.  1.
</event>
<event>
 5    1  0.1055265E-009  0.9118800E+02  0.7815553E-02  0.1125453E+00
         25   -1    0    0    0    0  0.00000000000E+00  0.00000000000E+00  0.99999998245E-14  0.12509000000E+03  0.12509000000E+03 0.  0.
        -11    1    3    3    0    0  0.96163314701E+01 -0.38412078646E+02  0.24166131081E+01  0.39671168826E+02  0.51100000000E-03 0. -1.
         23    2    1    0    0    0 -0.23795137015E+02  0.10543678646E+02  0.25204485559E+01  0.98941761706E+02  0.95424010834E+02 0.  0.
         11    1    3    3    0    0 -0.33411468485E+02  0.48955757292E+02  0.10383544786E+00  0.59270592881E+02  0.51100000000E-03 0.  1.
         22    1    1    0    0    0  0.23795137015E+02 -0.10543678646E+02 -0.25204485559E+01  0.26148238294E+02  0.00000000000E+00 0.  1.
</event>
<event>
 5    1  0.1055265E-009  0.9118800E+02  0.7815553E-02  0.1125453E+00
         25   -1    0    0    0    0  0.00000000000E+00  0.00000000000E+00  0.99999998245E-14  0.12509000000E+03  0.12509000000E+03 0.  0.
        -11    1    3    3    0    0 -0.38823088494E+02  0.13101800733E+02 -0.21229964686E+02  0.46147597808E+02  0.51100000000E-03 0.  1.
         23    2    1    0    0    0 -0.14617593069E+02 -0.24630912254E+02  0.14976912151E+01  0.96409014233E+02  0.92044006219E+02 0.  0.
         11    1    3    3    0    0  0.24205495425E+02 -0.37732712986E+02  0.22727655901E+02  0.50261416425E+02  0.51100000000E-03 0. -1.
         22    1    1    0    0    0  0.14617593069E+02  0.24630912254E+02 -0.14976912151E+01  0.28680985767E+02  0.00000000000E+00 0. -1.
</event>
<event>
 5    1  0.1055265E-009  0.9118800E+02  0.7815553E-02  0.1125453E+00
         25   -1    0    0    0    0  0.00000000000E+00  0.00000000000E+00  0.99999998245E-14  0.12509000000E+03  0.12509000000E+03 0.  0.
        -11    1    3    3    0    0  0.35829466877E+02  0.22678899064E+02  0.11825827160E+02  0.44021964378E+02  0.51100000000E-03 0. -1.
         23    2    1    0    0    0  0.97072917561E+00 -0.20681599439E+02  0.14646930207E+02  0.99728544305E+02  0.96449878768E+02 0.  0.
         11    1    3    3    0    0 -0.34858737701E+02 -0.43360498503E+02  0.28211030466E+01  0.55706579927E+02  0.51100000000E-03 0.  1.
         22    1    1    0    0    0 -0.97072917561E+00  0.20681599439E+02 -0.14646930207E+02  0.25361455695E+02  0.00000000000E+00 0. -1.
</event>
<event>
 5    1  0.1055265E-009  0.9118800E+02  0.7815553E-02  0.1125453E+00
         25   -1    0    0    0    0  0.00000000000E+00  0.00000000000E+00  0.99999998245E-14  0.12509000000E+03  0.12509000000E+03 0.  0.
        -11    1    3    3    0    0  0.19513148167E+02 -0.27487206559E+02 -0.52339636025E+02  0.62255497551E+02  0.51100000000E-03 0. -1.
         23    2    1    0    0    0  0.83247567489E+01 -0.85769293035E+01 -0.25391537983E+02  0.97025868224E+02  0.92878542260E+02 0.  0.
         11    1    3    3    0    0 -0.11188391418E+02  0.18910277255E+02  0.26948098043E+02  0.34770370673E+02  0.51100000000E-03 0.  1.
         22    1    1    0    0    0 -0.83247567489E+01  0.85769293035E+01  0.25391537983E+02  0.28064131776E+02  0.00000000000E+00 0. -1.
</event>
<event>
 5    1  0.1055265E-009  0.9118800E+02  0.7815553E-02  0.1125453E+00
         25   -1    0    0    0    0  0.00000000000E+00  0.00000000000E+00  0.99999998245E-14  0.12509000000E+03  0.12509000000E+03 0.  0.
        -11    1    3    3    0    0 -0.36544697300E+02  0.26667190859E+02 -0.96069378903E+01  0.46248753767E+02  0.51100000000E-03 0.  1.
         23    2    1    0    0    0 -0.31967561146E+01  0.11486783452E+02  0.25466600752E+02  0.96970377001E+02  0.92803775883E+02 0.  0.
         11    1    3    3    0    0  0.33347941186E+02 -0.15180407407E+02  0.35073538643E+02  0.50721623235E+02  0.51100000000E-03 0. -1.
         22    1    1    0    0    0  0.31967561146E+01 -0.11486783452E+02 -0.25466600752E+02  0.28119622999E+02  0.00000000000E+00 0. -1.
</event>
<event>
 5    1  0.1055265E-009  0.9118800E+02  0.7815553E-02  0.1125453E+00
         25   -1    0    0    0    0  0.00000000000E+00  0.00000000000E+00  0.99999998245E-14  0.12509000000E+03  0.12509000000E+03 0.  0.
        -11    1    3    3    0    0 -0.58398206869E+01  0.15333304802E+02 -0.31107934418E+02  0.35169835453E+02  0.51100000000E-03 0.  1.
         23    2    1    0    0    0 -0.15102212470E+02 -0.19053824087E+02  0.17288302068E+02  0.95256957543E+02  0.90464786177E+02 0.  0.
         11    1    3    3    0    0 -0.92623917832E+01 -0.34387128889E+02  0.48396236486E+02  0.60087122090E+02  0.51100000000E-03 0. -1.
         22    1    1    0    0    0  0.15102212470E+02  0.19053824087E+02 -0.17288302068E+02  0.29833042457E+02  0.00000000000E+00 0. -1.
</event>
<event>
 5    1  0.1055265E-009  0.9118800E+02  0.7815553E-02  0.1125453E+00
         25   -1    0    0    0    0  0.00000000000E+00  0.00000000000E+00  0.99999998245E-14  0.12509000000E+03  0.12509000000E+03 0.  0.
        -11    1    3    3    0    0  0.25430802931E+02  0.79025799975E+01  0.48272981284E+02  0.55131272710E+02  0.51100000000E-03 0.  1.
         23    2    1    0    0    0 -0.84858436221E+01  0.53634605798E+01  0.29389371347E+02  0.94033416165E+02  0.88756813575E+02 0.  0.
         11    1    3    3    0    0 -0.33916646554E+02 -0.25391194177E+01 -0.18883609937E+02  0.38902143455E+02  0.51100000000E-03 0. -1.
         22    1    1    0    0    0  0.84858436221E+01 -0.53634605798E+01 -0.29389371347E+02  0.31056583835E+02  0.00000000000E+00 0. -1.
</event>
<event>
 5    1  0.1055265E-009  0.9118800E+02  0.7815553E-02  0.1125453E+00
         25   -1    0    0    0    0  0.00000000000E+00  0.00000000000E+00  0.99999998245E-14  0.12509000000E+03  0.12509000000E+03 0.  0.
        -11    1    3    3    0    0 -0.43305581838E+01  0.34077350855E+02  0.36763812375E+02  0.50314982620E+02  0.51100000000E-03 0. -1.
         23    2    1    0    0    0 -0.11474624137E+02 -0.98898689063E+01  0.24100795098E+02  0.96623794942E+02  0.92335436959E+02 0.  0.
         11    1    3    3    0    0 -0.71440659532E+01 -0.43967219761E+02 -0.12663017277E+02  0.46308812322E+02  0.51100000000E-03 0.  1.
         22    1    1    0    0    0  0.11474624137E+02  0.98898689063E+01 -0.24100795098E+02  0.28466205058E+02  0.00000000000E+00 0. -1.
</event>
<event>
 5    1  0.1055265E-009  0.9118800E+02  0.7815553E-02  0.1125453E+00
         25   -1    0    0    0    0  0.00000000000E+00  0.00000000000E+00  0.99999998245E-14  0.12509000000E+03  0.12509000000E+03 0.  0.
        -11    1    3    3    0    0 -0.30838342901E+02  0.27759227234E+01  0.38868722640E+02  0.49693930613E+02  0.51100000000E-03 0.  1.
         23    2    1    0    0    0 -0.16660726902E+02  0.25480033339E+02  0.29296011210E+01  0.94505780497E+02  0.89420065225E+02 0.  0.
         11    1    3    3    0    0  0.14177616000E+02  0.22704110616E+02 -0.35939121519E+02  0.44811849884E+02  0.51100000000E-03 0. -1.
         22    1    1    0    0    0  0.16660726902E+02 -0.25480033339E+02 -0.29296011210E+01  0.30584219503E+02  0.00000000000E+00 0. -1.
</event>
<event>
 5    1  0.1055265E-009  0.9118800E+02  0.7815553E-02  0.1125453E+00
         25   -1    0    0    0    0  0.00000000000E+00  0.00000000000E+00  0.99999998245E-14  0.12509000000E+03  0.12509000000E+03 0.  0.
        -11    1    3    3    0    0 -0.25113562235E+02 -0.27728036275E+02 -0.13592967930E+02  0.39803313696E+02  0.51100000000E-03 0. -1.
         23    2    1    0    0    0 -0.22792690701E+01  0.51095406227E+00  0.29124844057E+02  0.95871637916E+02  0.91310778519E+02 0.  0.
         11    1    3    3    0    0  0.22834293165E+02  0.28238990337E+02  0.42717811987E+02  0.56068324220E+02  0.51100000000E-03 0.  1.
         22    1    1    0    0    0  0.22792690701E+01 -0.51095406227E+00 -0.29124844057E+02  0.29218362084E+02  0.00000000000E+00 0.  1.
</event>
<event>
 5    1  0.1055265E-009  0.9118800E+02  0.7815553E-02  0.1125453E+00
         25   -1    0    0    0    0  0.00000000000E+00  0.00000000000E+00  0.99999998245E-14  0.12509000000E+03  0.12509000000E+03 0.  0.
        -11    1    3    3    0    0 -0.74469355356E+01  0.25292819016E+02  0.21100244701E+02  0.33769866291E+02  0.51100000000E-03 0.  1.
         23    2    1    0    0    0  0.15506340701E+02 -0.14959779798E+02 -0.19987968756E+02  0.95700197201E+02  0.91075612739E+02 0.  0.
         11    1    3    3    0    0  0.22953276237E+02 -0.40252598813E+02 -0.41088213458E+02  0.61930330910E+02  0.51100000000E-03 0. -1.
         22    1    1    0    0    0 -0.15506340701E+02  0.14959779798E+02  0.19987968756E+02  0.29389802799E+02  0.00000000000E+00 0. -1.
</event>
<event>
 5    1  0.1055265E-009  0.9118800E+02  0.7815553E-02  0.1125453E+00
         25   -1    0    0    0    0  0.00000000000E+00  0.00000000000E+00  0.99999998245E-14  0.12509000000E+03  0.12509000000E+03 0.  0.
        -11    1    3    3    0    0 -0.42565644296E+02  0.36227093258E+02  0.13368098130E+02  0.57471231135E+02  0.51100000000E-03 0.  1.
         23    2    1    0    0    0 -0.58158138585E+01  0.25987036233E+02  0.12602229673E+02  0.95628738388E+02  0.90977412966E+02 0.  0.
         11    1    3    3    0    0  0.36749830438E+02 -0.10240057025E+02 -0.76586845654E+00  0.38157507254E+02  0.51100000000E-03 0. -1.
         22    1    1    0    0    0  0.58158138585E+01 -0.25987036233E+02 -0.12602229673E+02  0.29461261612E+02  0.00000000000E+00 0.  1.
</event>
<event>
 5    1  0.1055265E-009  0.9118800E+02  0.7815553E-02  0.1125453E+00
         25   -1    0    0    0    0  0.00000000000E+00  0.00000000000E+00  0.99999998245E-14  0.12509000000E+03  0.12509000000E+03 0.  0.
        -11    1    3    3    0    0 -0.49960559552E+02  0.34209281831E+01  0.27777544982E+02  0.57265629010E+02  0.51100000000E-03 0.  1.
         23    2    1    0    0    0 -0.11585468800E+02  0.11750564073E+02  0.22940484053E+02  0.96831113753E+02  0.92615873039E+02 0.  0.
         11    1    3    3    0    0  0.38375090752E+02  0.83296358899E+01 -0.48370609293E+01  0.39565484744E+02  0.51100000000E-03 0. -1.
         22    1    1    0    0    0  0.11585468800E+02 -0.11750564073E+02 -0.22940484053E+02  0.28258886247E+02  0.00000000000E+00 0.  1.
</event>
<event>
 5    1  0.1055265E-009  0.9118800E+02  0.7815553E-02  0.1125453E+00
         25   -1    0    0    0    0  0.00000000000E+00  0.00000000000E+00  0.99999998245E-14  0.12509000000E+03  0.12509000000E+03 0.  0.
        -11    1    3    3    0    0  0.36041333492E+02 -0.24831784687E+01 -0.11369260433E+02  0.37873526087E+02  0.51100000000E-03 0. -1.
         23    2    1    0    0    0 -0.18238461230E+02 -0.17195468502E+02 -0.17608578422E+02  0.94456886559E+02  0.89351641168E+02 0.  0.
         11    1    3    3    0    0 -0.54279794722E+02 -0.14712290033E+02 -0.62393179892E+01  0.56583360472E+02  0.51100000000E-03 0.  1.
         22    1    1    0    0    0  0.18238461230E+02  0.17195468502E+02  0.17608578422E+02  0.30633113441E+02  0.00000000000E+00 0.  1.
</event>
<event>
 5    1  0.1055265E-009  0.9118800E+02  0.7815553E-02  0.1125453E+00
         25   -1    0    0    0    0  0.00000000000E+00  0.00000000000E+00  0.99999998245E-14  0.12509000000E+03  0.12509000000E+03 0.  0.
        -11    1    3    3    0    0  0.13103621876E+02 -0.11251847596E+02 -0.35302274875E+02  0.39300885387E+02  0.51100000000E-03 0. -1.
         23    2    1    0    0    0 -0.20063877404E+02 -0.18864354017E+02  0.98510624169E+01  0.95841641761E+02  0.91269676430E+02 0.  0.
         11    1    3    3    0    0 -0.33167499279E+02 -0.76125064207E+01  0.45153337292E+02  0.56540756374E+02  0.51100000000E-03 0.  1.
         22    1    1    0    0    0  0.20063877404E+02  0.18864354017E+02 -0.98510624169E+01  0.29248358239E+02  0.00000000000E+00 0.  1.
</event>
<event>
 5    1  0.1055265E-009  0.9118800E+02  0.7815553E-02  0.1125453E+00
         25   -1    0    0    0    0  0.00000000000E+00  0.00000000000E+00  0.99999998245E-14  0.12509000000E+03  0.12509000000E+03 0.  0.
        -11    1    3    3    0    0  0.43391830408E+02 -0.65884927270E+01 -0.16198449684E+02  0.46782998568E+02  0.51100000000E-03 0. -1.
         23    2    1    0    0    0 -0.47961081326E+01  0.33885992007E+01 -0.27246454784E+02  0.97217889279E+02  0.93136799601E+02 0.  0.
         11    1    3    3    0    0 -0.48187938540E+02  0.99770919277E+01 -0.11048005099E+02  0.50434890711E+02  0.51100000000E-03 0.  1.
         22    1    1    0    0    0  0.47961081326E+01 -0.33885992007E+01  0.27246454784E+02  0.27872110721E+02  0.00000000000E+00 0.  1.
</event>
<event>
 5    1  0.1055265E-009  0.9118800E+02  0.7815553E-02  0.1125453E+00
         25   -1    0    0    0    0  0.00000000000E+00  0.00000000000E+00  0.99999998245E-14  0.12509000000E+03  0.12509000000E+03 0.  0.
        -11    1    3    3    0    0  0.12492947532E+02  0.27094400501E+02  0.30504225764E+02  0.42669521514E+02  0.51100000000E-03 0.  1.
         23    2    1    0    0    0  0.19876115548E+02 -0.17785172223E+02 -0.16454686235E+01  0.98367726757E+02  0.94668525816E+02 0.  0.
         11    1    3    3    0    0  0.73831680158E+01 -0.44879572724E+02 -0.32149694387E+02  0.55698205243E+02  0.51100000000E-03 0. -1.
         22    1    1    0    0    0 -0.19876115548E+02  0.17785172223E+02  0.16454686235E+01  0.26722273243E+02  0.00000000000E+00 0. -1.
</event>
<event>
 5    1  0.1055265E-009  0.9118800E+02  0.7815553E-02  0.1125453E+00
         25   -1    0    0    0    0  0.00000000000E+00  0.00000000000E+00  0.99999998245E-14  0.12509000000E+03  0.12509000000E+03 0.  0.
        -11    1    3    3    0    0  0.10424310823E+02  0.65546595889E+01 -0.60334685840E+02  0.61578438874E+02  0.51100000000E-03 0.  1.
         23    2    1    0    0    0  0.81286153652E+01  0.98208222557E+01 -0.26123204430E+02  0.96022066684E+02  0.91516624408E+02 0.  0.
         11    1    3    3    0    0 -0.22956954576E+01  0.32661626668E+01  0.34211481410E+02  0.34443627810E+02  0.51100000000E-03 0. -1.
         22    1    1    0    0    0 -0.81286153652E+01 -0.98208222557E+01  0.26123204430E+02  0.29067933316E+02  0.00000000000E+00 0.  1.
</event>
<event>
 5    1  0.1055265E-009  0.9118800E+02  0.7815553E-02  0.1125453E+00
         25   -1    0    0    0    0  0.00000000000E+00  0.00000000000E+00  0.99999998245E-14  0.12509000000E+03  0.12509000000E+03 0.  0.
        -11    1    3    3    0    0  0.14060243053E+02 -0.35342608407E+01 -0.36780116021E+02  0.39534268290E+02  0.51100000000E-03 0.  1.
         23    2    1    0    0    0 -0.33361257179E+01  0.31014746141E+02  0.13733040032E+01  0.93866128093E+02  0.88520731053E+02 0.  0.
         11    1    3    3    0    0 -0.17396368771E+02  0.34549006982E+02  0.38153420025E+02  0.54331859803E+02  0.51100000000E-03 0. -1.
         22    1    1    0    0    0  0.33361257179E+01 -0.31014746141E+02 -0.13733040032E+01  0.31223871907E+02  0.00000000000E+00 0. -1.
</event>
<event>
 5    1  0.1055265E-009  0.9118800E+02  0.7815553E-02  0.1125453E+00
         25   -1    0    0    0    0  0.00000000000E+00  0.00000000000E+00  0.99999998245E-14  0.12509000000E+03  0.12509000000E+03 0.  0.
        -11    1    3    3    0    0  0.82665124312E+01 -0.36974296118E+02 -0.18500209614E+02  0.42162679673E+02  0.51100000000E-03 0. -1.
         23    2    1    0    0    0 -0.29176995193E+02 -0.53295363031E+01  0.21359152243E+01  0.95353437664E+02  0.90598095646E+02 0.  0.
         11    1    3    3    0    0 -0.37443507625E+02  0.31644759815E+02  0.20636124838E+02  0.53190757990E+02  0.51100000000E-03 0.  1.
         22    1    1    0    0    0  0.29176995193E+02  0.53295363031E+01 -0.21359152243E+01  0.29736562336E+02  0.00000000000E+00 0.  1.
</event>
<event>
 5    1  0.1055265E-009  0.9118800E+02  0.7815553E-02  0.1125453E+00
         25   -1    0    0    0    0  0.00000000000E+00  0.00000000000E+00  0.99999998245E-14  0.12509000000E+03  0.12509000000E+03 0.  0.
        -11    1    3    3    0    0  0.56719795618E+02  0.41911828551E+00 -0.20116330405E+02  0.60182868197E+02  0.51100000000E-03 0.  1.
         23    2    1    0    0    0  0.23571593694E+02 -0.98696677719E+01 -0.15514050494E+02  0.95194914552E+02  0.90378955641E+02 0.  0.
         11    1    3    3    0    0 -0.33148201925E+02 -0.10288786057E+02  0.46022799113E+01  0.35012046356E+02  0.51100000000E-03 0. -1.
         22    1    1    0    0    0 -0.23571593694E+02  0.98696677719E+01  0.15514050494E+02  0.29895085448E+02  0.00000000000E+00 0.  1.
</event>
<event>
 5    1  0.1055265E-009  0.9118800E+02  0.7815553E-02  0.1125453E+00
         25   -1    0    0    0    0  0.00000000000E+00  0.00000000000E+00  0.99999998245E-14  0.12509000000E+03  0.12509000000E+03 0.  0.
        -11    1    3    3    0    0  0.22824714402E+02 -0.28123275151E+02  0.16671553679E+02  0.39872633410E+02  0.51100000000E-03 0.  1.
         23    2    1    0    0    0 -0.12775983427E+02  0.18794913203E+02  0.13058706360E+02  0.98879232620E+02  0.95342007095E+02 0.  0.
         11    1    3    3    0    0 -0.35600697829E+02  0.46918188354E+02 -0.36128473182E+01  0.59006599210E+02  0.51100000000E-03 0. -1.
         22    1    1    0    0    0  0.12775983427E+02 -0.18794913203E+02 -0.13058706360E+02  0.26210767380E+02  0.00000000000E+00 0. -1.
</event>
<event>
 5    1  0.1055265E-009  0.9118800E+02  0.7815553E-02  0.1125453E+00
         25   -1    0    0    0    0  0.00000000000E+00  0.00000000000E+00  0.99999998245E-14  0.12509000000E+03  0.12509000000E+03 0.  0.
        -11    1    3    3    0    0 -0.16358296418E+02 -0.14136949727E+02  0.35359804052E+02  0.41445903925E+02  0.51100000000E-03 0. -1.
         23    2    1    0    0    0  0.16644143760E+01  0.28386005182E+02  0.64490149917E+01  0.95933090703E+02  0.91394926183E+02 0.  0.
         11    1    3    3    0    0  0.18022710793E+02  0.42522954909E+02 -0.28910789061E+02  0.54487186778E+02  0.51100000000E-03 0.  1.
         22    1    1    0    0    0 -0.16644143760E+01 -0.28386005182E+02 -0.64490149917E+01  0.29156909297E+02  0.00000000000E+00 0.  1.
</event>
<event>
 5    1  0.1055265E-009  0.9118800E+02  0.7815553E-02  0.1125453E+00
         25   -1    0    0    0    0  0.00000000000E+00  0.00000000000E+00  0.99999998245E-14  0.12509000000E+03  0.12509000000E+03 0.  0.
        -11    1    3    3    0    0 -0.17948697516E+00 -0.21949076755E+02 -0.28748192504E+02  0.36169776866E+02  0.51100000000E-03 0.  1.
         23    2    1    0    0    0  0.11373035641E+02  0.25495516724E+02  0.65402587407E+01  0.96416976143E+02  0.92054826008E+02 0.  0.
         11    1    3    3    0    0  0.11552522616E+02  0.47444593479E+02  0.35288451245E+02  0.60247199277E+02  0.51100000000E-03 0. -1.
         22    1    1    0    0    0 -0.11373035641E+02 -0.25495516724E+02 -0.65402587407E+01  0.28673023857E+02  0.00000000000E+00 0. -1.
</event>
<event>
 5    1  0.1055265E-009  0.9118800E+02  0.7815553E-02  0.1125453E+00
         25   -1    0    0    0    0  0.00000000000E+00  0.00000000000E+00  0.99999998245E-14  0.12509000000E+03  0.12509000000E+03 0.  0.
        -11    1    3    3    0    0 -0.67532894827E+01  0.52288661073E+02  0.32558005589E+02  0.61965593064E+02  0.51100000000E-03 0.  1.
         23    2    1    0    0    0  0.18401413250E+01  0.22148445027E+02  0.17840319989E+02  0.96590583260E+02  0.92290432982E+02 0.  0.
         11    1    3    3    0    0  0.85934308078E+01 -0.30140216047E+02 -0.14717685599E+02  0.34624990196E+02  0.51100000000E-03 0. -1.
         22    1    1    0    0    0 -0.18401413250E+01 -0.22148445027E+02 -0.17840319989E+02  0.28499416740E+02  0.00000000000E+00 0.  1.
</event>
<event>
 5    1  0.1055265E-009  0.9118800E+02  0.7815553E-02  0.1125453E+00
         25   -1    0    0    0    0  0.00000000000E+00  0.00000000000E+00  0.99999998245E-14  0.12509000000E+03  0.12509000000E+03 0.  0.
        -11    1    3    3    0    0 -0.86166935839E+01  0.42387454253E+01  0.57914890998E+02  0.58705612770E+02  0.51100000000E-03 0. -1.
         23    2    1    0    0    0  0.50498264161E+01 -0.10641195670E+02  0.26946744893E+02  0.95681449331E+02  0.91049859383E+02 0.  0.
         11    1    3    3    0    0  0.13666520000E+02 -0.14879941096E+02 -0.30968146105E+02  0.36975836561E+02  0.51100000000E-03 0.  1.
         22    1    1    0    0    0 -0.50498264161E+01  0.10641195670E+02 -0.26946744893E+02  0.29408550669E+02  0.00000000000E+00 0. -1.
</event>
<event>
 5    1  0.1055265E-009  0.9118800E+02  0.7815553E-02  0.1125453E+00
         25   -1    0    0    0    0  0.00000000000E+00  0.00000000000E+00  0.99999998245E-14  0.12509000000E+03  0.12509000000E+03 0.  0.
        -11    1    3    3    0    0 -0.26486942550E+02  0.26200722119E+02 -0.35962095944E+02  0.51781350988E+02  0.51100000000E-03 0.  1.
         23    2    1    0    0    0 -0.19733815859E+02  0.19278485775E+02  0.76567975385E+01  0.96459421056E+02  0.92112484821E+02 0.  0.
         11    1    3    3    0    0  0.67531266916E+01 -0.69222363437E+01  0.43618893482E+02  0.44678070068E+02  0.51100000000E-03 0. -1.
         22    1    1    0    0    0  0.19733815859E+02 -0.19278485775E+02 -0.76567975385E+01  0.28630578944E+02  0.00000000000E+00 0. -1.
</event>
<event>
 5    1  0.1055265E-009  0.9118800E+02  0.7815553E-02  0.1125453E+00
         25   -1    0    0    0    0  0.00000000000E+00  0.00000000000E+00  0.99999998245E-14  0.12509000000E+03  0.12509000000E+03 0.  0.
        -11    1    3    3    0    0 -0.24056344793E+02  0.11638255310E+02 -0.15066888021E+02  0.30678458670E+02  0.51100000000E-03 0.  1.
         23    2    1    0    0    0  0.21144141266E+02 -0.14635658716E+02  0.19032353964E+02  0.93097692904E+02  0.87428100235E+02 0.  0.
         11    1    3    3    0    0  0.45200486059E+02 -0.26273914026E+02  0.34099241985E+02  0.62419234234E+02  0.51100000000E-03 0. -1.
         22    1    1    0    0    0 -0.21144141266E+02  0.14635658716E+02 -0.19032353964E+02  0.31992307096E+02  0.00000000000E+00 0. -1.
</event>
<event>
 5    1  0.1055265E-009  0.9118800E+02  0.7815553E-02  0.1125453E+00
         25   -1    0    0    0    0  0.00000000000E+00  0.00000000000E+00  0.99999998245E-14  0.12509000000E+03  0.12509000000E+03 0.  0.
        -11    1    3    3    0    0  0.41533760315E+02 -0.29023150118E+01 -0.21952457515E+02  0.47067898504E+02  0.51100000000E-03 0.  1.
         23    2    1    0    0    0 -0.94984266588E+01 -0.39676043883E+01 -0.24848933710E+02  0.98193318047E+02  0.94437790153E+02 0.  0.
         11    1    3    3    0    0 -0.51032186974E+02 -0.10652893765E+01 -0.28964761949E+01  0.51125419543E+02  0.51100000000E-03 0. -1.
         22    1    1    0    0    0  0.94984266588E+01  0.39676043883E+01  0.24848933710E+02  0.26896681953E+02  0.00000000000E+00 0. -1.
</event>
<event>
 5    1  0.1055265E-009  0.9118800E+02  0.7815553E-02  0.1125453E+00
         25   -1    0    0    0    0  0.00000000000E+00  0.00000000000E+00  0.99999998245E-14  0.12509000000E+03  0.12509000000E+03 0.  0.
        -11    1    3    3    0    0  0.78676875621E+01 -0.46861136349E+02  0.13801306971E+01  0.47537052585E+02  0.51100000000E-03 0.  1.
         23    2    1    0    0    0  0.19141184367E+02 -0.42536988501E+01  0.21504725733E+02  0.95987901764E+02  0.91469913979E+02 0.  0.
         11    1    3    3    0    0  0.11273496805E+02  0.42607437499E+02  0.20124595036E+02  0.48450849178E+02  0.51100000000E-03 0. -1.
         22    1    1    0    0    0 -0.19141184367E+02  0.42536988501E+01 -0.21504725733E+02  0.29102098236E+02  0.00000000000E+00 0.  1.
</event>
<event>
 5    1  0.1055265E-009  0.9118800E+02  0.7815553E-02  0.1125453E+00
         25   -1    0    0    0    0  0.00000000000E+00  0.00000000000E+00  0.99999998245E-14  0.12509000000E+03  0.12509000000E+03 0.  0.
        -11    1    3    3    0    0  0.11401995599E+02  0.11293260006E+02  0.24687188733E+02  0.29444872440E+02  0.51100000000E-03 0.  1.
         23    2    1    0    0    0 -0.28800889650E+02 -0.25077263416E+02  0.98669750236E+01  0.85647414117E+02  0.76024745733E+02 0.  0.
         11    1    3    3    0    0 -0.40202885248E+02 -0.36370523422E+02 -0.14820213710E+02  0.56202541677E+02  0.51100000000E-03 0. -1.
         22    1    1    0    0    0  0.28800889650E+02  0.25077263416E+02 -0.98669750236E+01  0.39442585883E+02  0.00000000000E+00 0. -1.
</event>
<event>
 5    1  0.1055265E-009  0.9118800E+02  0.7815553E-02  0.1125453E+00
         25   -1    0    0    0    0  0.00000000000E+00  0.00000000000E+00  0.99999998245E-14  0.12509000000E+03  0.12509000000E+03 0.  0.
        -11    1    3    3    0    0  0.25794200859E+02 -0.13604216504E+02  0.15991005139E+02  0.33258498918E+02  0.51100000000E-03 0.  1.
         23    2    1    0    0    0 -0.29960148032E+02  0.68792165175E+01  0.19803754320E+01  0.94286494082E+02  0.89112776802E+02 0.  0.
         11    1    3    3    0    0 -0.55754348891E+02  0.20483433021E+02 -0.14010629707E+02  0.61027995164E+02  0.51100000000E-03 0. -1.
         22    1    1    0    0    0  0.29960148032E+02 -0.68792165175E+01 -0.19803754320E+01  0.30803505918E+02  0.00000000000E+00 0. -1.
</event>
<event>
 5    1  0.1055265E-009  0.9118800E+02  0.7815553E-02  0.1125453E+00
         25   -1    0    0    0    0  0.00000000000E+00  0.00000000000E+00  0.99999998245E-14  0.12509000000E+03  0.12509000000E+03 0.  0.
        -11    1    3    3    0    0 -0.30052904942E+02 -0.99838951092E+01 -0.26638117376E+02  0.41381693472E+02  0.51100000000E-03 0.  1.
         23    2    1    0    0    0  0.82864208236E+01 -0.30857644687E+02  0.11313122638E+01  0.93119093333E+02  0.87458714088E+02 0.  0.
         11    1    3    3    0    0  0.38339325765E+02 -0.20873749578E+02  0.27769429640E+02  0.51737399861E+02  0.51100000000E-03 0. -1.
         22    1    1    0    0    0 -0.82864208236E+01  0.30857644687E+02 -0.11313122638E+01  0.31970906667E+02  0.00000000000E+00 0. -1.
</event>
<event>
 5    1  0.1055265E-009  0.9118800E+02  0.7815553E-02  0.1125453E+00
         25   -1    0    0    0    0  0.00000000000E+00  0.00000000000E+00  0.99999998245E-14  0.12509000000E+03  0.12509000000E+03 0.  0.
        -11    1    3    3    0    0 -0.14367644373E+02 -0.18562610852E+02 -0.36458619197E+02  0.43361626359E+02  0.51100000000E-03 0. -1.
         23    2    1    0    0    0  0.25510140690E+02 -0.14835008981E+02 -0.32281623096E+01  0.95403878640E+02  0.90667713428E+02 0.  0.
         11    1    3    3    0    0  0.39877785063E+02  0.37276018710E+01  0.33230456888E+02  0.52042252281E+02  0.51100000000E-03 0.  1.
         22    1    1    0    0    0 -0.25510140690E+02  0.14835008981E+02  0.32281623096E+01  0.29686121360E+02  0.00000000000E+00 0.  1.
</event>
<event>
 5    1  0.1055265E-009  0.9118800E+02  0.7815553E-02  0.1125453E+00
         25   -1    0    0    0    0  0.00000000000E+00  0.00000000000E+00  0.99999998245E-14  0.12509000000E+03  0.12509000000E+03 0.  0.
        -11    1    3    3    0    0  0.66530787060E+01  0.47499765231E+01  0.41573511335E+02  0.42369594973E+02  0.51100000000E-03 0. -1.
         23    2    1    0    0    0 -0.17566256284E+02 -0.23268389508E+02  0.31015472085E+01  0.95770878164E+02  0.91172639531E+02 0.  0.
         11    1    3    3    0    0 -0.24219334990E+02 -0.28018366032E+02 -0.38471964126E+02  0.53401283191E+02  0.51100000000E-03 0.  1.
         22    1    1    0    0    0  0.17566256284E+02  0.23268389508E+02 -0.31015472085E+01  0.29319121836E+02  0.00000000000E+00 0.  1.
</event>
<event>
 5    1  0.1055265E-009  0.9118800E+02  0.7815553E-02  0.1125453E+00
         25   -1    0    0    0    0  0.00000000000E+00  0.00000000000E+00  0.99999998245E-14  0.12509000000E+03  0.12509000000E+03 0.  0.
        -11    1    3    3    0    0 -0.15640506000E+02  0.41425882452E+02  0.35270018886E+02  0.56610099782E+02  0.51100000000E-03 0. -1.
         23    2    1    0    0    0  0.51102074770E+01  0.29887793798E+02  0.62048652005E+01  0.94140124544E+02  0.88907076538E+02 0.  0.
         11    1    3    3    0    0  0.20750713477E+02 -0.11538088654E+02 -0.29065153686E+02  0.37530024762E+02  0.51100000000E-03 0.  1.
         22    1    1    0    0    0 -0.51102074770E+01 -0.29887793798E+02 -0.62048652005E+01  0.30949875456E+02  0.00000000000E+00 0. -1.
</event>
<event>
 5    1  0.1055265E-009  0.9118800E+02  0.7815553E-02  0.1125453E+00
         25   -1    0    0    0    0  0.00000000000E+00  0.00000000000E+00  0.99999998245E-14  0.12509000000E+03  0.12509000000E+03 0.  0.
        -11    1    3    3    0    0  0.36624981476E+02  0.19107415733E+02  0.23404383465E+01  0.41375841454E+02  0.51100000000E-03 0.  1.
         23    2    1    0    0    0  0.85505869938E+01 -0.25662028354E+02  0.12671255372E+02  0.95220066121E+02  0.90413760248E+02 0.  0.
         11    1    3    3    0    0 -0.28074394482E+02 -0.44769444087E+02  0.10330817026E+02  0.53844224668E+02  0.51100000000E-03 0. -1.
         22    1    1    0    0    0 -0.85505869938E+01  0.25662028354E+02 -0.12671255372E+02  0.29869933879E+02  0.00000000000E+00 0.  1.
</event>
<event>
 5    1  0.1055265E-009  0.9118800E+02  0.7815553E-02  0.1125453E+00
         25   -1    0    0    0    0  0.00000000000E+00  0.00000000000E+00  0.99999998245E-14  0.12509000000E+03  0.12509000000E+03 0.  0.
        -11    1    3    3    0    0  0.27418261214E+02 -0.44384532900E+02  0.31114647335E+02  0.60744292636E+02  0.51100000000E-03 0.  1.
         23    2    1    0    0    0  0.47493911902E+01 -0.26352179105E+02  0.10358045391E+02  0.96379667982E+02  0.92004115319E+02 0.  0.
         11    1    3    3    0    0 -0.22668870023E+02  0.18032353795E+02 -0.20756601944E+02  0.35635375346E+02  0.51100000000E-03 0. -1.
         22    1    1    0    0    0 -0.47493911902E+01  0.26352179105E+02 -0.10358045391E+02  0.28710332018E+02  0.00000000000E+00 0.  1.
</event>
<event>
 5    1  0.1055265E-009  0.9118800E+02  0.7815553E-02  0.1125453E+00
         25   -1    0    0    0    0  0.00000000000E+00  0.00000000000E+00  0.99999998245E-14  0.12509000000E+03  0.12509000000E+03 0.  0.
        -11    1    3    3    0    0 -0.92396704042E+01  0.34758588912E+02 -0.12560676366E+02  0.38095952585E+02  0.51100000000E-03 0.  1.
         23    2    1    0    0    0  0.11609973422E+02 -0.20718112540E+02 -0.14265169905E+02  0.97385727000E+02  0.93361946642E+02 0.  0.
         11    1    3    3    0    0  0.20849643826E+02 -0.55476701452E+02 -0.17044935393E+01  0.59289774415E+02  0.51100000000E-03 0. -1.
         22    1    1    0    0    0 -0.11609973422E+02  0.20718112540E+02  0.14265169905E+02  0.27704273000E+02  0.00000000000E+00 0. -1.
</event>
<event>
 5    1  0.1055265E-009  0.9118800E+02  0.7815553E-02  0.1125453E+00
         25   -1    0    0    0    0  0.00000000000E+00  0.00000000000E+00  0.99999998245E-14  0.12509000000E+03  0.12509000000E+03 0.  0.
        -11    1    3    3    0    0 -0.24689082265E+02  0.27705494221E+00 -0.49878054096E+02  0.55654719685E+02  0.51100000000E-03 0.  1.
         23    2    1    0    0    0  0.72195367525E+01  0.85373432414E+01 -0.27251313869E+02  0.95634235740E+02  0.90984971273E+02 0.  0.
         11    1    3    3    0    0  0.31908619018E+02  0.82602882992E+01  0.22626740227E+02  0.39979516055E+02  0.51100000000E-03 0. -1.
         22    1    1    0    0    0 -0.72195367525E+01 -0.85373432414E+01  0.27251313869E+02  0.29455764260E+02  0.00000000000E+00 0. -1.
</event>
<event>
 5    1  0.1055265E-009  0.9118800E+02  0.7815553E-02  0.1125453E+00
         25   -1    0    0    0    0  0.00000000000E+00  0.00000000000E+00  0.99999998245E-14  0.12509000000E+03  0.12509000000E+03 0.  0.
        -11    1    3    3    0    0  0.25984367257E+02 -0.36689121801E+02 -0.25626041364E+02  0.51749135225E+02  0.51100000000E-03 0. -1.
         23    2    1    0    0    0  0.17611116643E+02  0.63510317756E+01 -0.22660486209E+02  0.95696383869E+02  0.91070375076E+02 0.  0.
         11    1    3    3    0    0 -0.83732506141E+01  0.43040153577E+02  0.29655551557E+01  0.43947248644E+02  0.51100000000E-03 0.  1.
         22    1    1    0    0    0 -0.17611116643E+02 -0.63510317756E+01  0.22660486209E+02  0.29393616131E+02  0.00000000000E+00 0. -1.
</event>
<event>
 5    1  0.1055265E-009  0.9118800E+02  0.7815553E-02  0.1125453E+00
         25   -1    0    0    0    0  0.00000000000E+00  0.00000000000E+00  0.99999998245E-14  0.12509000000E+03  0.12509000000E+03 0.  0.
        -11    1    3    3    0    0  0.85821765530E+01 -0.45778774547E+02  0.12574276945E+02  0.48243780888E+02  0.51100000000E-03 0.  1.
         23    2    1    0    0    0  0.29295026352E+02 -0.47939037999E+01  0.21905015794E+01  0.95324611042E+02  0.90558285599E+02 0.  0.
         11    1    3    3    0    0  0.20712849799E+02  0.40984870747E+02 -0.10383775365E+02  0.47080830155E+02  0.51100000000E-03 0. -1.
         22    1    1    0    0    0 -0.29295026352E+02  0.47939037999E+01 -0.21905015794E+01  0.29765388958E+02  0.00000000000E+00 0. -1.
</event>
<event>
 5    1  0.1055265E-009  0.9118800E+02  0.7815553E-02  0.1125453E+00
         25   -1    0    0    0    0  0.00000000000E+00  0.00000000000E+00  0.99999998245E-14  0.12509000000E+03  0.12509000000E+03 0.  0.
        -11    1    3    3    0    0 -0.54128320961E+02 -0.21979287725E+02 -0.16304116961E+02  0.60653016817E+02  0.51100000000E-03 0.  1.
         23    2    1    0    0    0 -0.24248986107E+02 -0.35817679982E+01 -0.16137969849E+02  0.95742488008E+02  0.91133679559E+02 0.  0.
         11    1    3    3    0    0  0.29879334853E+02  0.18397519726E+02  0.16614711106E+00  0.35089471191E+02  0.51100000000E-03 0. -1.
         22    1    1    0    0    0  0.24248986107E+02  0.35817679982E+01  0.16137969849E+02  0.29347511992E+02  0.00000000000E+00 0.  1.
</event>
<event>
 5    1  0.1055265E-009  0.9118800E+02  0.7815553E-02  0.1125453E+00
         25   -1    0    0    0    0  0.00000000000E+00  0.00000000000E+00  0.99999998245E-14  0.12509000000E+03  0.12509000000E+03 0.  0.
        -11    1    3    3    0    0 -0.33968691232E+02  0.50266395586E+01  0.15813614117E+02  0.37804886998E+02  0.51100000000E-03 0.  1.
         23    2    1    0    0    0  0.22376170877E+02 -0.79897360717E+01  0.17375385425E+02  0.95654767297E+02  0.91013194550E+02 0.  0.
         11    1    3    3    0    0  0.56344862109E+02 -0.13016375630E+02  0.15617713083E+01  0.57849880298E+02  0.51100000000E-03 0. -1.
         22    1    1    0    0    0 -0.22376170877E+02  0.79897360717E+01 -0.17375385425E+02  0.29435232703E+02  0.00000000000E+00 0. -1.
</event>
<event>
 5    1  0.1055265E-009  0.9118800E+02  0.7815553E-02  0.1125453E+00
         25   -1    0    0    0    0  0.00000000000E+00  0.00000000000E+00  0.99999998245E-14  0.12509000000E+03  0.12509000000E+03 0.  0.
        -11    1    3    3    0    0 -0.35582176746E+02  0.19603286391E+02  0.33052491546E+02  0.52372200040E+02  0.51100000000E-03 0.  1.
         23    2    1    0    0    0  0.31234130761E+01 -0.14876141456E-02  0.28970917290E+02  0.95951198376E+02  0.91419706353E+02 0.  0.
         11    1    3    3    0    0  0.38705589822E+02 -0.19604774005E+02 -0.40815742559E+01  0.43578998336E+02  0.51100000000E-03 0. -1.
         22    1    1    0    0    0 -0.31234130761E+01  0.14876141456E-02 -0.28970917290E+02  0.29138801624E+02  0.00000000000E+00 0.  1.
</event>
<event>
 5    1  0.1055265E-009  0.9118800E+02  0.7815553E-02  0.1125453E+00
         25   -1    0    0    0    0  0.00000000000E+00  0.00000000000E+00  0.99999998245E-14  0.12509000000E+03  0.12509000000E+03 0.  0.
        -11    1    3    3    0    0 -0.54114158637E+02  0.17363499450E+02 -0.21984830122E+02  0.60935753330E+02  0.51100000000E-03 0. -1.
         23    2    1    0    0    0 -0.25063032457E+02 -0.28766702476E+00 -0.15726374471E+02  0.95500184146E+02  0.90800484413E+02 0.  0.
         11    1    3    3    0    0  0.29051126180E+02 -0.17651166474E+02  0.62584556507E+01  0.34564430816E+02  0.51100000000E-03 0.  1.
         22    1    1    0    0    0  0.25063032457E+02  0.28766702476E+00  0.15726374471E+02  0.29589815854E+02  0.00000000000E+00 0. -1.
</event>
<event>
 5    1  0.1055265E-009  0.9118800E+02  0.7815553E-02  0.1125453E+00
         25   -1    0    0    0    0  0.00000000000E+00  0.00000000000E+00  0.99999998245E-14  0.12509000000E+03  0.12509000000E+03 0.  0.
        -11    1    3    3    0    0  0.21817594675E+02 -0.24125488947E+02  0.19341106174E+02  0.37843427998E+02  0.51100000000E-03 0. -1.
         23    2    1    0    0    0 -0.29165806860E+02 -0.12556538176E+02  0.13972591802E+02  0.90397864545E+02  0.83475922588E+02 0.  0.
         11    1    3    3    0    0 -0.50983401535E+02  0.11568950771E+02 -0.53685143723E+01  0.52554436547E+02  0.51100000000E-03 0.  1.
         22    1    1    0    0    0  0.29165806860E+02  0.12556538176E+02 -0.13972591802E+02  0.34692135455E+02  0.00000000000E+00 0. -1.
</event>
<event>
 5    1  0.1055265E-009  0.9118800E+02  0.7815553E-02  0.1125453E+00
         25   -1    0    0    0    0  0.00000000000E+00  0.00000000000E+00  0.99999998245E-14  0.12509000000E+03  0.12509000000E+03 0.  0.
        -11    1    3    3    0    0 -0.41001054083E+02  0.13086372984E+02  0.42240317404E+02  0.60304096117E+02  0.51100000000E-03 0. -1.
         23    2    1    0    0    0 -0.11789603292E+02  0.14651617771E+02  0.23273459864E+02  0.95168125341E+02  0.90341870125E+02 0.  0.
         11    1    3    3    0    0  0.29211450791E+02  0.15652447866E+01 -0.18966857540E+02  0.34864029224E+02  0.51100000000E-03 0.  1.
         22    1    1    0    0    0  0.11789603292E+02 -0.14651617771E+02 -0.23273459864E+02  0.29921874659E+02  0.00000000000E+00 0. -1.
</event>
<event>
 5    1  0.1055265E-009  0.9118800E+02  0.7815553E-02  0.1125453E+00
         25   -1    0    0    0    0  0.00000000000E+00  0.00000000000E+00  0.99999998245E-14  0.12509000000E+03  0.12509000000E+03 0.  0.
        -11    1    3    3    0    0  0.86290743184E+00  0.34870778100E+02 -0.21566976665E+01  0.34948063175E+02  0.51100000000E-03 0.  1.
         23    2    1    0    0    0  0.11617818328E+02 -0.25799983763E+02  0.21383566913E+01  0.96714210421E+02  0.92457844790E+02 0.  0.
         11    1    3    3    0    0  0.10754910896E+02 -0.60670761864E+02  0.42950543578E+01  0.61766147247E+02  0.51100000000E-03 0. -1.
         22    1    1    0    0    0 -0.11617818328E+02  0.25799983763E+02 -0.21383566913E+01  0.28375789579E+02  0.00000000000E+00 0. -1.
</event>
<event>
 5    1  0.1055265E-009  0.9118800E+02  0.7815553E-02  0.1125453E+00
         25   -1    0    0    0    0  0.00000000000E+00  0.00000000000E+00  0.99999998245E-14  0.12509000000E+03  0.12509000000E+03 0.  0.
        -11    1    3    3    0    0 -0.19761815583E+02 -0.12416472418E+02  0.22985540691E+02  0.32757185831E+02  0.51100000000E-03 0.  1.
         23    2    1    0    0    0  0.23215188674E+02  0.16093129958E+02 -0.11277069006E+02  0.94674443086E+02  0.89655697372E+02 0.  0.
         11    1    3    3    0    0  0.42977004256E+02  0.28509602377E+02 -0.34262609697E+02  0.61917257255E+02  0.51100000000E-03 0. -1.
         22    1    1    0    0    0 -0.23215188674E+02 -0.16093129958E+02  0.11277069006E+02  0.30415556914E+02  0.00000000000E+00 0. -1.
</event>
<event>
 5    1  0.1055265E-009  0.9118800E+02  0.7815553E-02  0.1125453E+00
         25   -1    0    0    0    0  0.00000000000E+00  0.00000000000E+00  0.99999998245E-14  0.12509000000E+03  0.12509000000E+03 0.  0.
        -11    1    3    3    0    0  0.48618038609E+02 -0.23744303693E+02  0.30819439102E+02  0.62268318291E+02  0.51100000000E-03 0. -1.
         23    2    1    0    0    0  0.25296740192E+02 -0.10533959610E+02  0.11187856919E+02  0.95491731269E+02  0.90788838681E+02 0.  0.
         11    1    3    3    0    0 -0.23321298417E+02  0.13210344082E+02 -0.19631582183E+02  0.33223412978E+02  0.51100000000E-03 0.  1.
         22    1    1    0    0    0 -0.25296740192E+02  0.10533959610E+02 -0.11187856919E+02  0.29598268731E+02  0.00000000000E+00 0. -1.
</event>
<event>
 5    1  0.1055265E-009  0.9118800E+02  0.7815553E-02  0.1125453E+00
         25   -1    0    0    0    0  0.00000000000E+00  0.00000000000E+00  0.99999998245E-14  0.12509000000E+03  0.12509000000E+03 0.  0.
        -11    1    3    3    0    0  0.44704876320E+02  0.35271409246E+01  0.20075657625E+02  0.49132460953E+02  0.51100000000E-03 0.  1.
         23    2    1    0    0    0  0.96614463316E+01  0.27808023582E+02  0.15681027146E+01  0.95609690184E+02  0.90951218740E+02 0.  0.
         11    1    3    3    0    0 -0.35043429989E+02  0.24280882657E+02 -0.18507554911E+02  0.46477229231E+02  0.51100000000E-03 0. -1.
         22    1    1    0    0    0 -0.96614463316E+01 -0.27808023582E+02 -0.15681027146E+01  0.29480309816E+02  0.00000000000E+00 0.  1.
</event>
<event>
 5    1  0.1055265E-009  0.9118800E+02  0.7815553E-02  0.1125453E+00
         25   -1    0    0    0    0  0.00000000000E+00  0.00000000000E+00  0.99999998245E-14  0.12509000000E+03  0.12509000000E+03 0.  0.
        -11    1    3    3    0    0  0.15591570747E+02  0.33792972437E+02  0.11194426017E+02  0.38863572129E+02  0.51100000000E-03 0.  1.
         23    2    1    0    0    0 -0.86096758937E+01 -0.81220577192E+01  0.31567308106E+02  0.91376660182E+02  0.84929999084E+02 0.  0.
         11    1    3    3    0    0 -0.24201246641E+02 -0.41915030157E+02  0.20372882089E+02  0.52513088053E+02  0.51100000000E-03 0. -1.
         22    1    1    0    0    0  0.86096758937E+01  0.81220577192E+01 -0.31567308106E+02  0.33713339818E+02  0.00000000000E+00 0. -1.
</event>
<event>
 5    1  0.1055265E-009  0.9118800E+02  0.7815553E-02  0.1125453E+00
         25   -1    0    0    0    0  0.00000000000E+00  0.00000000000E+00  0.99999998245E-14  0.12509000000E+03  0.12509000000E+03 0.  0.
        -11    1    3    3    0    0  0.72552081293E+00  0.12598610924E+02  0.61080775303E+02  0.62370766305E+02  0.51100000000E-03 0. -1.
         23    2    1    0    0    0  0.33985992914E+01  0.47626933858E+01  0.29241078303E+02  0.95269296022E+02  0.90481845575E+02 0.  0.
         11    1    3    3    0    0  0.26730784784E+01 -0.78359175385E+01 -0.31839696999E+02  0.32898529716E+02  0.51100000000E-03 0.  1.
         22    1    1    0    0    0 -0.33985992914E+01 -0.47626933858E+01 -0.29241078303E+02  0.29820703978E+02  0.00000000000E+00 0. -1.
</event>
<event>
 5    1  0.1055265E-009  0.9118800E+02  0.7815553E-02  0.1125453E+00
         25   -1    0    0    0    0  0.00000000000E+00  0.00000000000E+00  0.99999998245E-14  0.12509000000E+03  0.12509000000E+03 0.  0.
        -11    1    3    3    0    0 -0.28913444131E+02 -0.31798979266E+02  0.12718234348E+02  0.44820930591E+02  0.51100000000E-03 0. -1.
         23    2    1    0    0    0 -0.16473337920E+02  0.17497502345E+02 -0.80566213337E+01  0.99743548615E+02  0.96469336540E+02 0.  0.
         11    1    3    3    0    0  0.12440106211E+02  0.49296481610E+02 -0.20774855682E+02  0.54922618024E+02  0.51100000000E-03 0.  1.
         22    1    1    0    0    0  0.16473337920E+02 -0.17497502345E+02  0.80566213337E+01  0.25346451385E+02  0.00000000000E+00 0.  1.
</event>
<event>
 5    1  0.1055265E-009  0.9118800E+02  0.7815553E-02  0.1125453E+00
         25   -1    0    0    0    0  0.00000000000E+00  0.00000000000E+00  0.99999998245E-14  0.12509000000E+03  0.12509000000E+03 0.  0.
        -11    1    3    3    0    0  0.30315615237E+02 -0.30026281425E+02  0.65362054259E+01  0.43166376789E+02  0.51100000000E-03 0. -1.
         23    2    1    0    0    0  0.36897230407E+01  0.15761499610E+01 -0.27866436823E+02  0.96936197308E+02  0.92757693711E+02 0.  0.
         11    1    3    3    0    0 -0.26625892197E+02  0.31602431386E+02 -0.34402642249E+02  0.53769820520E+02  0.51100000000E-03 0.  1.
         22    1    1    0    0    0 -0.36897230407E+01 -0.15761499610E+01  0.27866436823E+02  0.28153802692E+02  0.00000000000E+00 0. -1.
</event>
<event>
 5    1  0.1055265E-009  0.9118800E+02  0.7815553E-02  0.1125453E+00
         25   -1    0    0    0    0  0.00000000000E+00  0.00000000000E+00  0.99999998245E-14  0.12509000000E+03  0.12509000000E+03 0.  0.
        -11    1    3    3    0    0 -0.12640162981E+02  0.46725127011E+02  0.35788594449E+02  0.60198294887E+02  0.51100000000E-03 0.  1.
         23    2    1    0    0    0 -0.14811714296E+01  0.28965660944E+02  0.80197749494E+01  0.94998137762E+02  0.90106192935E+02 0.  0.
         11    1    3    3    0    0  0.11158991551E+02 -0.17759466068E+02 -0.27768819500E+02  0.34799842875E+02  0.51100000000E-03 0. -1.
         22    1    1    0    0    0  0.14811714296E+01 -0.28965660944E+02 -0.80197749494E+01  0.30091862238E+02  0.00000000000E+00 0.  1.
</event>
<event>
 5    1  0.1055265E-009  0.9118800E+02  0.7815553E-02  0.1125453E+00
         25   -1    0    0    0    0  0.00000000000E+00  0.00000000000E+00  0.99999998245E-14  0.12509000000E+03  0.12509000000E+03 0.  0.
        -11    1    3    3    0    0 -0.18739228153E+02  0.30855353762E+02  0.10772171017E+02  0.37672950458E+02  0.51100000000E-03 0. -1.
         23    2    1    0    0    0  0.29791230630E+02  0.15642148914E+02 -0.53347852073E+01  0.91021624954E+02  0.84405462092E+02 0.  0.
         11    1    3    3    0    0  0.48530458782E+02 -0.15213204848E+02 -0.16106956225E+02  0.53348674496E+02  0.51100000000E-03 0.  1.
         22    1    1    0    0    0 -0.29791230630E+02 -0.15642148914E+02  0.53347852073E+01  0.34068375046E+02  0.00000000000E+00 0.  1.
</event>
<event>
 5    1  0.1055265E-009  0.9118800E+02  0.7815553E-02  0.1125453E+00
         25   -1    0    0    0    0  0.00000000000E+00  0.00000000000E+00  0.99999998245E-14  0.12509000000E+03  0.12509000000E+03 0.  0.
        -11    1    3    3    0    0  0.46235577061E+02  0.50872015929E+00  0.35497334668E+02  0.58292779580E+02  0.51100000000E-03 0. -1.
         23    2    1    0    0    0  0.23355164312E+02  0.13949517411E+02  0.74923211828E+01  0.96873203358E+02  0.92672703187E+02 0.  0.
         11    1    3    3    0    0 -0.22880412749E+02  0.13440797252E+02 -0.28005013485E+02  0.38580423778E+02  0.51100000000E-03 0.  1.
         22    1    1    0    0    0 -0.23355164312E+02 -0.13949517411E+02 -0.74923211828E+01  0.28216796642E+02  0.00000000000E+00 0. -1.
</event>
<event>
 5    1  0.1055265E-009  0.9118800E+02  0.7815553E-02  0.1125453E+00
         25   -1    0    0    0    0  0.00000000000E+00  0.00000000000E+00  0.99999998245E-14  0.12509000000E+03  0.12509000000E+03 0.  0.
        -11    1    3    3    0    0  0.48418587686E+02 -0.10924747093E+02 -0.37558790916E+02  0.62244457648E+02  0.51100000000E-03 0.  1.
         23    2    1    0    0    0  0.23790580229E+02 -0.11228246158E+01 -0.16203122960E+02  0.96283861133E+02  0.91873762731E+02 0.  0.
         11    1    3    3    0    0 -0.24628007457E+02  0.98019224774E+01  0.21355667956E+02  0.34039403486E+02  0.51100000000E-03 0. -1.
         22    1    1    0    0    0 -0.23790580229E+02  0.11228246158E+01  0.16203122960E+02  0.28806138867E+02  0.00000000000E+00 0.  1.
</event>
<event>
 5    1  0.1055265E-009  0.9118800E+02  0.7815553E-02  0.1125453E+00
         25   -1    0    0    0    0  0.00000000000E+00  0.00000000000E+00  0.99999998245E-14  0.12509000000E+03  0.12509000000E+03 0.  0.
        -11    1    3    3    0    0 -0.15034108901E+02 -0.30552719677E+02  0.58922165734E+01  0.34557362841E+02  0.51100000000E-03 0.  1.
         23    2    1    0    0    0 -0.46456328500E+01  0.28861099604E+02 -0.36774267732E+01  0.95626998751E+02  0.90975021009E+02 0.  0.
         11    1    3    3    0    0  0.10388476051E+02  0.59413819281E+02 -0.95696433466E+01  0.61069635910E+02  0.51100000000E-03 0. -1.
         22    1    1    0    0    0  0.46456328500E+01 -0.28861099604E+02  0.36774267732E+01  0.29463001249E+02  0.00000000000E+00 0. -1.
</event>
<event>
 5    1  0.1055265E-009  0.9118800E+02  0.7815553E-02  0.1125453E+00
         25   -1    0    0    0    0  0.00000000000E+00  0.00000000000E+00  0.99999998245E-14  0.12509000000E+03  0.12509000000E+03 0.  0.
        -11    1    3    3    0    0 -0.31713082875E+02 -0.39528018661E+02 -0.25396793748E+02  0.56684927605E+02  0.51100000000E-03 0. -1.
         23    2    1    0    0    0 -0.33285247728E+02 -0.19721108250E+02 -0.35147768360E+01  0.86241789191E+02  0.76996511088E+02 0.  0.
         11    1    3    3    0    0 -0.15721648525E+01  0.19806910411E+02  0.21882016912E+02  0.29556861585E+02  0.51100000000E-03 0.  1.
         22    1    1    0    0    0  0.33285247728E+02  0.19721108250E+02  0.35147768360E+01  0.38848210809E+02  0.00000000000E+00 0. -1.
</event>
<event>
 5    1  0.1055265E-009  0.9118800E+02  0.7815553E-02  0.1125453E+00
         25   -1    0    0    0    0  0.00000000000E+00  0.00000000000E+00  0.99999998245E-14  0.12509000000E+03  0.12509000000E+03 0.  0.
        -11    1    3    3    0    0  0.32545697128E+02 -0.10689707168E+02 -0.40117291602E+02  0.52753097792E+02  0.51100000000E-03 0.  1.
         23    2    1    0    0    0 -0.10697129066E+01 -0.22989549499E+02 -0.23432683960E+02  0.92245603987E+02  0.86200331238E+02 0.  0.
         11    1    3    3    0    0 -0.33615410035E+02 -0.12299842331E+02  0.16684607642E+02  0.39492506195E+02  0.51100000000E-03 0. -1.
         22    1    1    0    0    0  0.10697129066E+01  0.22989549499E+02  0.23432683960E+02  0.32844396013E+02  0.00000000000E+00 0.  1.
</event>
<event>
 5    1  0.1055265E-009  0.9118800E+02  0.7815553E-02  0.1125453E+00
         25   -1    0    0    0    0  0.00000000000E+00  0.00000000000E+00  0.99999998245E-14  0.12509000000E+03  0.12509000000E+03 0.  0.
        -11    1    3    3    0    0 -0.58175856171E+02 -0.11084594376E+02 -0.74148684970E+01  0.59684828464E+02  0.51100000000E-03 0.  1.
         23    2    1    0    0    0 -0.22190672002E+02 -0.10011271638E+02 -0.15025969628E+02  0.96481762603E+02  0.92142819948E+02 0.  0.
         11    1    3    3    0    0  0.35985184169E+02  0.10733227381E+01 -0.76111011314E+01  0.36796934139E+02  0.51100000000E-03 0. -1.
         22    1    1    0    0    0  0.22190672002E+02  0.10011271638E+02  0.15025969628E+02  0.28608237397E+02  0.00000000000E+00 0.  1.
</event>
<event>
 5    1  0.1055265E-009  0.9118800E+02  0.7815553E-02  0.1125453E+00
         25   -1    0    0    0    0  0.00000000000E+00  0.00000000000E+00  0.99999998245E-14  0.12509000000E+03  0.12509000000E+03 0.  0.
        -11    1    3    3    0    0  0.34716341183E+02 -0.67331225333E+01 -0.45640988310E+01  0.35656560161E+02  0.51100000000E-03 0.  1.
         23    2    1    0    0    0 -0.14305228567E+02  0.17837780925E+02  0.19020121594E+02  0.95347925121E+02  0.90590484085E+02 0.  0.
         11    1    3    3    0    0 -0.49021569749E+02  0.24570903458E+02  0.23584220425E+02  0.59691364959E+02  0.51100000000E-03 0. -1.
         22    1    1    0    0    0  0.14305228567E+02 -0.17837780925E+02 -0.19020121594E+02  0.29742074879E+02  0.00000000000E+00 0. -1.
</event>
<event>
 5    1  0.1055265E-009  0.9118800E+02  0.7815553E-02  0.1125453E+00
         25   -1    0    0    0    0  0.00000000000E+00  0.00000000000E+00  0.99999998245E-14  0.12509000000E+03  0.12509000000E+03 0.  0.
        -11    1    3    3    0    0  0.26863770854E+02 -0.46989696655E+02  0.19423155839E+02  0.57506110625E+02  0.51100000000E-03 0.  1.
         23    2    1    0    0    0  0.26742285051E+02 -0.13475146853E+02  0.25294640626E+01  0.95037918859E+02  0.90161402164E+02 0.  0.
         11    1    3    3    0    0 -0.12148580316E+00  0.33514549802E+02 -0.16893691776E+02  0.37531808234E+02  0.51100000000E-03 0. -1.
         22    1    1    0    0    0 -0.26742285051E+02  0.13475146853E+02 -0.25294640626E+01  0.30052081141E+02  0.00000000000E+00 0.  1.
</event>
<event>
 5    1  0.1055265E-009  0.9118800E+02  0.7815553E-02  0.1125453E+00
         25   -1    0    0    0    0  0.00000000000E+00  0.00000000000E+00  0.99999998245E-14  0.12509000000E+03  0.12509000000E+03 0.  0.
        -11    1    3    3    0    0 -0.21461785480E+01 -0.17188402640E+02  0.48051262561E+02  0.51078088273E+02  0.51100000000E-03 0. -1.
         23    2    1    0    0    0 -0.13508454296E+02  0.16155678821E+02  0.18526027785E+02  0.97041862787E+02  0.92900081443E+02 0.  0.
         11    1    3    3    0    0 -0.11362275748E+02  0.33344081461E+02 -0.29525234777E+02  0.45963774514E+02  0.51100000000E-03 0.  1.
         22    1    1    0    0    0  0.13508454296E+02 -0.16155678821E+02 -0.18526027785E+02  0.28048137213E+02  0.00000000000E+00 0. -1.
</event>
<event>
 5    1  0.1055265E-009  0.9118800E+02  0.7815553E-02  0.1125453E+00
         25   -1    0    0    0    0  0.00000000000E+00  0.00000000000E+00  0.99999998245E-14  0.12509000000E+03  0.12509000000E+03 0.  0.
        -11    1    3    3    0    0  0.26145497903E+02 -0.49007638199E+02  0.19903632587E+02  0.59004154539E+02  0.51100000000E-03 0. -1.
         23    2    1    0    0    0  0.23179718484E+02 -0.17210900206E+02  0.81747906410E+00  0.96207778705E+02  0.91770114833E+02 0.  0.
         11    1    3    3    0    0 -0.29657794187E+01  0.31796737993E+02 -0.19086153523E+02  0.37203624166E+02  0.51100000000E-03 0.  1.
         22    1    1    0    0    0 -0.23179718484E+02  0.17210900206E+02 -0.81747906410E+00  0.28882221295E+02  0.00000000000E+00 0. -1.
</event>
<event>
 5    1  0.1055265E-009  0.9118800E+02  0.7815553E-02  0.1125453E+00
         25   -1    0    0    0    0  0.00000000000E+00  0.00000000000E+00  0.99999998245E-14  0.12509000000E+03  0.12509000000E+03 0.  0.
        -11    1    3    3    0    0  0.61505368908E+01  0.26843180269E+02 -0.50474148904E+02  0.57498044653E+02  0.51100000000E-03 0.  1.
         23    2    1    0    0    0 -0.10058200426E+02  0.22247008649E+02 -0.15913243322E+02  0.95946765748E+02  0.91413640967E+02 0.  0.
         11    1    3    3    0    0 -0.16208737317E+02 -0.45961716208E+01  0.34560905582E+02  0.38448721096E+02  0.51100000000E-03 0. -1.
         22    1    1    0    0    0  0.10058200426E+02 -0.22247008649E+02  0.15913243322E+02  0.29143234252E+02  0.00000000000E+00 0.  1.
</event>
<event>
 5    1  0.1055265E-009  0.9118800E+02  0.7815553E-02  0.1125453E+00
         25   -1    0    0    0    0  0.00000000000E+00  0.00000000000E+00  0.99999998245E-14  0.12509000000E+03  0.12509000000E+03 0.  0.
        -11    1    3    3    0    0 -0.15910202141E+01  0.47231036565E+02  0.17698818756E+02  0.50463356467E+02  0.51100000000E-03 0. -1.
         23    2    1    0    0    0 -0.23354298670E+02  0.17135095940E+02 -0.72811859706E+01  0.95222786397E+02  0.90417523749E+02 0.  0.
         11    1    3    3    0    0 -0.21763278456E+02 -0.30095940625E+02 -0.24980004727E+02  0.44759429930E+02  0.51100000000E-03 0.  1.
         22    1    1    0    0    0  0.23354298670E+02 -0.17135095940E+02  0.72811859706E+01  0.29867213603E+02  0.00000000000E+00 0. -1.
</event>
<event>
 5    1  0.1055265E-009  0.9118800E+02  0.7815553E-02  0.1125453E+00
         25   -1    0    0    0    0  0.00000000000E+00  0.00000000000E+00  0.99999998245E-14  0.12509000000E+03  0.12509000000E+03 0.  0.
        -11    1    3    3    0    0  0.17585174711E+02  0.31973102676E+01  0.50023229629E+02  0.53120473128E+02  0.51100000000E-03 0. -1.
         23    2    1    0    0    0  0.18315991685E+02  0.20195005373E+02  0.11000793686E+02  0.95690488862E+02  0.91062277610E+02 0.  0.
         11    1    3    3    0    0  0.73081697386E+00  0.16997695105E+02 -0.39022435944E+02  0.42570015734E+02  0.51100000000E-03 0.  1.
         22    1    1    0    0    0 -0.18315991685E+02 -0.20195005373E+02 -0.11000793686E+02  0.29399511138E+02  0.00000000000E+00 0. -1.
</event>
<event>
 5    1  0.1055265E-009  0.9118800E+02  0.7815553E-02  0.1125453E+00
         25   -1    0    0    0    0  0.00000000000E+00  0.00000000000E+00  0.99999998245E-14  0.12509000000E+03  0.12509000000E+03 0.  0.
        -11    1    3    3    0    0 -0.98266184032E+01 -0.84021489128E+01 -0.36912506118E+02  0.39111272592E+02  0.51100000000E-03 0.  1.
         23    2    1    0    0    0 -0.24731379161E+02  0.23350305950E+01  0.16281988109E+02  0.95388205107E+02  0.90646086808E+02 0.  0.
         11    1    3    3    0    0 -0.14904760758E+02  0.10737179508E+02  0.53194494226E+02  0.56276932515E+02  0.51100000000E-03 0. -1.
         22    1    1    0    0    0  0.24731379161E+02 -0.23350305950E+01 -0.16281988109E+02  0.29701794893E+02  0.00000000000E+00 0. -1.
</event>
<event>
 5    1  0.1055265E-009  0.9118800E+02  0.7815553E-02  0.1125453E+00
         25   -1    0    0    0    0  0.00000000000E+00  0.00000000000E+00  0.99999998245E-14  0.12509000000E+03  0.12509000000E+03 0.  0.
        -11    1    3    3    0    0 -0.17099500951E+02 -0.43538143551E+02  0.26470765536E+01  0.46850505773E+02  0.51100000000E-03 0.  1.
         23    2    1    0    0    0  0.68859431440E+01 -0.20231868971E+02  0.28744087613E+02  0.89271466980E+02  0.81770578505E+02 0.  0.
         11    1    3    3    0    0  0.23985444095E+02  0.23306274580E+02  0.26097011059E+02  0.42420961207E+02  0.51100000000E-03 0. -1.
         22    1    1    0    0    0 -0.68859431440E+01  0.20231868971E+02 -0.28744087613E+02  0.35818533020E+02  0.00000000000E+00 0.  1.
</event>
<event>
 5    1  0.1055265E-009  0.9118800E+02  0.7815553E-02  0.1125453E+00
         25   -1    0    0    0    0  0.00000000000E+00  0.00000000000E+00  0.99999998245E-14  0.12509000000E+03  0.12509000000E+03 0.  0.
        -11    1    3    3    0    0  0.84001616139E+01  0.24247257425E+02  0.28545252692E+02  0.38383898438E+02  0.51100000000E-03 0.  1.
         23    2    1    0    0    0 -0.48463263615E+01  0.15325982666E+02 -0.25614746594E+02  0.94849499559E+02  0.89899609007E+02 0.  0.
         11    1    3    3    0    0 -0.13246487975E+02 -0.89212747594E+01 -0.54159999286E+02  0.56465601121E+02  0.51100000000E-03 0. -1.
         22    1    1    0    0    0  0.48463263615E+01 -0.15325982666E+02  0.25614746594E+02  0.30240500441E+02  0.00000000000E+00 0. -1.
</event>
<event>
 5    1  0.1055265E-009  0.9118800E+02  0.7815553E-02  0.1125453E+00
         25   -1    0    0    0    0  0.00000000000E+00  0.00000000000E+00  0.99999998245E-14  0.12509000000E+03  0.12509000000E+03 0.  0.
        -11    1    3    3    0    0 -0.12824935936E+02  0.54543694976E+02  0.49023670466E+01  0.56245238432E+02  0.51100000000E-03 0. -1.
         23    2    1    0    0    0 -0.21900372236E+02  0.25114416115E+02  0.14849881188E+02  0.88608783297E+02  0.80750463188E+02 0.  0.
         11    1    3    3    0    0 -0.90754362997E+01 -0.29429278861E+02  0.99475141415E+01  0.32363544864E+02  0.51100000000E-03 0.  1.
         22    1    1    0    0    0  0.21900372236E+02 -0.25114416115E+02 -0.14849881188E+02  0.36481216703E+02  0.00000000000E+00 0. -1.
</event>
<event>
 5    1  0.1055265E-009  0.9118800E+02  0.7815553E-02  0.1125453E+00
         25   -1    0    0    0    0  0.00000000000E+00  0.00000000000E+00  0.99999998245E-14  0.12509000000E+03  0.12509000000E+03 0.  0.
        -11    1    3    3    0    0  0.36719546991E+02 -0.18594056882E+02 -0.16872380622E+02  0.44483045205E+02  0.51100000000E-03 0.  1.
         23    2    1    0    0    0  0.14241732251E+02 -0.70311535858E+00  0.25616195043E+02  0.95772586110E+02  0.91174982825E+02 0.  0.
         11    1    3    3    0    0 -0.22477814740E+02  0.17890941523E+02  0.42488575664E+02  0.51289540906E+02  0.51100000000E-03 0. -1.
         22    1    1    0    0    0 -0.14241732251E+02  0.70311535858E+00 -0.25616195043E+02  0.29317413890E+02  0.00000000000E+00 0.  1.
</event>
<event>
 5    1  0.1055265E-009  0.9118800E+02  0.7815553E-02  0.1125453E+00
         25   -1    0    0    0    0  0.00000000000E+00  0.00000000000E+00  0.99999998245E-14  0.12509000000E+03  0.12509000000E+03 0.  0.
        -11    1    3    3    0    0  0.24936135573E+02  0.41973496622E+02 -0.23029159937E+02  0.53980806623E+02  0.51100000000E-03 0.  1.
         23    2    1    0    0    0  0.24253798391E+02  0.28113118943E+02  0.72235140193E+01  0.87264435260E+02  0.78640373303E+02 0.  0.
         11    1    3    3    0    0 -0.68233718173E+00 -0.13860377679E+02  0.30252673956E+02  0.33283628636E+02  0.51100000000E-03 0. -1.
         22    1    1    0    0    0 -0.24253798391E+02 -0.28113118943E+02 -0.72235140193E+01  0.37825564740E+02  0.00000000000E+00 0.  1.
</event>
<event>
 5    1  0.1055265E-009  0.9118800E+02  0.7815553E-02  0.1125453E+00
         25   -1    0    0    0    0  0.00000000000E+00  0.00000000000E+00  0.99999998245E-14  0.12509000000E+03  0.12509000000E+03 0.  0.
        -11    1    3    3    0    0 -0.22668256614E+02  0.26424847476E+02 -0.10861144610E+02  0.36470356244E+02  0.51100000000E-03 0.  1.
         23    2    1    0    0    0 -0.19076794311E+01 -0.21143927034E+02  0.19214156456E+02  0.96456301330E+02  0.92108248092E+02 0.  0.
         11    1    3    3    0    0  0.20760577183E+02 -0.47568774510E+02  0.30075301066E+02  0.59985945086E+02  0.51100000000E-03 0. -1.
         22    1    1    0    0    0  0.19076794311E+01  0.21143927034E+02 -0.19214156456E+02  0.28633698670E+02  0.00000000000E+00 0. -1.
</event>
<event>
 5    1  0.1055265E-009  0.9118800E+02  0.7815553E-02  0.1125453E+00
         25   -1    0    0    0    0  0.00000000000E+00  0.00000000000E+00  0.99999998245E-14  0.12509000000E+03  0.12509000000E+03 0.  0.
        -11    1    3    3    0    0  0.49266848871E+02  0.24841250734E+02 -0.50372859527E+01  0.55404732521E+02  0.51100000000E-03 0. -1.
         23    2    1    0    0    0  0.24671288330E+02 -0.35060178024E+01 -0.17148275821E+02  0.94840570380E+02  0.89887183724E+02 0.  0.
         11    1    3    3    0    0 -0.24595560542E+02 -0.28347268536E+02 -0.12110989868E+02  0.39435837859E+02  0.51100000000E-03 0.  1.
         22    1    1    0    0    0 -0.24671288330E+02  0.35060178024E+01  0.17148275821E+02  0.30249429620E+02  0.00000000000E+00 0. -1.
</event>
<event>
 5    1  0.1055265E-009  0.9118800E+02  0.7815553E-02  0.1125453E+00
         25   -1    0    0    0    0  0.00000000000E+00  0.00000000000E+00  0.99999998245E-14  0.12509000000E+03  0.12509000000E+03 0.  0.
        -11    1    3    3    0    0 -0.30772884587E+02 -0.16010176220E+02 -0.73241331907E+00  0.34696290838E+02  0.51100000000E-03 0.  1.
         23    2    1    0    0    0  0.20418670598E+02  0.82107211772E+01  0.20340384345E+02  0.95122195834E+02  0.90278252385E+02 0.  0.
         11    1    3    3    0    0  0.51191555185E+02  0.24220897397E+02  0.21072797664E+02  0.60425904996E+02  0.51100000000E-03 0. -1.
         22    1    1    0    0    0 -0.20418670598E+02 -0.82107211772E+01 -0.20340384345E+02  0.29967804166E+02  0.00000000000E+00 0. -1.
</event>
<event>
 5    1  0.1055265E-009  0.9118800E+02  0.7815553E-02  0.1125453E+00
         25   -1    0    0    0    0  0.00000000000E+00  0.00000000000E+00  0.99999998245E-14  0.12509000000E+03  0.12509000000E+03 0.  0.
        -11    1    3    3    0    0  0.25539918040E+02 -0.71928775692E+01 -0.23836690886E+02  0.35668091256E+02  0.51100000000E-03 0.  1.
         23    2    1    0    0    0 -0.19554080300E+02 -0.18590621583E+02  0.13132514430E+02  0.95082730840E+02  0.90223552920E+02 0.  0.
         11    1    3    3    0    0 -0.45093998340E+02 -0.11397744014E+02  0.36969205316E+02  0.59414639583E+02  0.51100000000E-03 0. -1.
         22    1    1    0    0    0  0.19554080300E+02  0.18590621583E+02 -0.13132514430E+02  0.30007269160E+02  0.00000000000E+00 0. -1.
</event>
<event>
 5    1  0.1055265E-009  0.9118800E+02  0.7815553E-02  0.1125453E+00
         25   -1    0    0    0    0  0.00000000000E+00  0.00000000000E+00  0.99999998245E-14  0.12509000000E+03  0.12509000000E+03 0.  0.
        -11    1    3    3    0    0  0.27090054776E+02  0.27496703112E+02  0.29406588116E+02  0.48525119007E+02  0.51100000000E-03 0.  1.
         23    2    1    0    0    0 -0.16718873699E+02  0.13598912952E+02  0.20510775784E+02  0.95338645501E+02  0.90577669607E+02 0.  0.
         11    1    3    3    0    0 -0.43808928475E+02 -0.13897790160E+02 -0.88958123319E+01  0.46813526494E+02  0.51100000000E-03 0. -1.
         22    1    1    0    0    0  0.16718873699E+02 -0.13598912952E+02 -0.20510775784E+02  0.29751354499E+02  0.00000000000E+00 0.  1.
</event>
<event>
 5    1  0.1055265E-009  0.9118800E+02  0.7815553E-02  0.1125453E+00
         25   -1    0    0    0    0  0.00000000000E+00  0.00000000000E+00  0.99999998245E-14  0.12509000000E+03  0.12509000000E+03 0.  0.
        -11    1    3    3    0    0  0.25889062705E+02 -0.28933736677E+02 -0.35556015598E+01  0.38987779990E+02  0.51100000000E-03 0.  1.
         23    2    1    0    0    0 -0.12684014569E+02 -0.23858766548E+00  0.26517016091E+02  0.95694536200E+02  0.91067837168E+02 0.  0.
         11    1    3    3    0    0 -0.38573077273E+02  0.28695149012E+02  0.30072617651E+02  0.56706756210E+02  0.51100000000E-03 0. -1.
         22    1    1    0    0    0  0.12684014569E+02  0.23858766548E+00 -0.26517016091E+02  0.29395463800E+02  0.00000000000E+00 0. -1.
</event>
<event>
 5    1  0.1055265E-009  0.9118800E+02  0.7815553E-02  0.1125453E+00
         25   -1    0    0    0    0  0.00000000000E+00  0.00000000000E+00  0.99999998245E-14  0.12509000000E+03  0.12509000000E+03 0.  0.
        -11    1    3    3    0    0 -0.11837901953E+02  0.98068491168E+01  0.96654715510E+01  0.18158511856E+02  0.51100000000E-03 0. -1.
         23    2    1    0    0    0  0.32499175538E+02 -0.23988356803E+02  0.26957483938E+02  0.76527219879E+02  0.59144499063E+02 0.  0.
         11    1    3    3    0    0  0.44337077492E+02 -0.33795205920E+02  0.17292012387E+02  0.58368708023E+02  0.51100000000E-03 0.  1.
         22    1    1    0    0    0 -0.32499175538E+02  0.23988356803E+02 -0.26957483938E+02  0.48562780121E+02  0.00000000000E+00 0.  1.
</event>
<event>
 5    1  0.1055265E-009  0.9118800E+02  0.7815553E-02  0.1125453E+00
         25   -1    0    0    0    0  0.00000000000E+00  0.00000000000E+00  0.99999998245E-14  0.12509000000E+03  0.12509000000E+03 0.  0.
        -11    1    3    3    0    0 -0.29979221290E+00  0.16848068301E+02  0.30125722823E+02  0.34518204714E+02  0.51100000000E-03 0.  1.
         23    2    1    0    0    0  0.12947163467E+02 -0.30482590998E+02  0.37690471087E+00  0.91969621787E+02  0.85798903715E+02 0.  0.
         11    1    3    3    0    0  0.13246955680E+02 -0.47330659299E+02 -0.29748818112E+02  0.57451417073E+02  0.51100000000E-03 0. -1.
         22    1    1    0    0    0 -0.12947163467E+02  0.30482590998E+02 -0.37690471087E+00  0.33120378213E+02  0.00000000000E+00 0. -1.
</event>
<event>
 5    1  0.1055265E-009  0.9118800E+02  0.7815553E-02  0.1125453E+00
         25   -1    0    0    0    0  0.00000000000E+00  0.00000000000E+00  0.99999998245E-14  0.12509000000E+03  0.12509000000E+03 0.  0.
        -11    1    3    3    0    0 -0.28311284940E+01  0.45052042225E+02  0.33753186854E+02  0.56364700126E+02  0.51100000000E-03 0. -1.
         23    2    1    0    0    0  0.15710876493E+02  0.25411761497E+02  0.69514538367E+01  0.94415711532E+02  0.89293978583E+02 0.  0.
         11    1    3    3    0    0  0.18542004987E+02 -0.19640280729E+02 -0.26801733017E+02  0.38051011406E+02  0.51100000000E-03 0.  1.
         22    1    1    0    0    0 -0.15710876493E+02 -0.25411761497E+02 -0.69514538367E+01  0.30674288468E+02  0.00000000000E+00 0. -1.
</event>
<event>
 5    1  0.1055265E-009  0.9118800E+02  0.7815553E-02  0.1125453E+00
         25   -1    0    0    0    0  0.00000000000E+00  0.00000000000E+00  0.99999998245E-14  0.12509000000E+03  0.12509000000E+03 0.  0.
        -11    1    3    3    0    0 -0.15194817854E+02  0.31038060602E+02  0.73235104458E+01  0.35325309638E+02  0.51100000000E-03 0.  1.
         23    2    1    0    0    0  0.56345940518E+01 -0.25922683827E+02  0.11623451677E+02  0.96127285766E+02  0.91660330858E+02 0.  0.
         11    1    3    3    0    0  0.20829411906E+02 -0.56960744429E+02  0.42999412310E+01  0.60801976128E+02  0.51100000000E-03 0. -1.
         22    1    1    0    0    0 -0.56345940518E+01  0.25922683827E+02 -0.11623451677E+02  0.28962714234E+02  0.00000000000E+00 0. -1.
</event>
<event>
 5    1  0.1055265E-009  0.9118800E+02  0.7815553E-02  0.1125453E+00
         25   -1    0    0    0    0  0.00000000000E+00  0.00000000000E+00  0.99999998245E-14  0.12509000000E+03  0.12509000000E+03 0.  0.
        -11    1    3    3    0    0  0.31038960406E+02  0.45482971917E+02 -0.17675461617E+02  0.57831995825E+02  0.51100000000E-03 0.  1.
         23    2    1    0    0    0  0.39971094885E+01  0.31602253053E+02  0.47005353518E+00  0.93232501155E+02  0.87620768309E+02 0.  0.
         11    1    3    3    0    0 -0.27041850917E+02 -0.13880718864E+02  0.18145515152E+02  0.35400505330E+02  0.51100000000E-03 0. -1.
         22    1    1    0    0    0 -0.39971094885E+01 -0.31602253053E+02 -0.47005353518E+00  0.31857498845E+02  0.00000000000E+00 0.  1.
</event>
<event>
 5    1  0.1055265E-009  0.9118800E+02  0.7815553E-02  0.1125453E+00
         25   -1    0    0    0    0  0.00000000000E+00  0.00000000000E+00  0.99999998245E-14  0.12509000000E+03  0.12509000000E+03 0.  0.
        -11    1    3    3    0    0  0.12011112128E+02  0.36678016585E+02  0.15124680337E+02  0.41452378348E+02  0.51100000000E-03 0. -1.
         23    2    1    0    0    0  0.26099122493E+02 -0.13837024512E+02  0.21781802889E+01  0.95469535593E+02  0.90758252048E+02 0.  0.
         11    1    3    3    0    0  0.14088010365E+02 -0.50515041097E+02 -0.12946500049E+02  0.54017157245E+02  0.51100000000E-03 0.  1.
         22    1    1    0    0    0 -0.26099122493E+02  0.13837024512E+02 -0.21781802889E+01  0.29620464407E+02  0.00000000000E+00 0.  1.
</event>
<event>
 5    1  0.1055265E-009  0.9118800E+02  0.7815553E-02  0.1125453E+00
         25   -1    0    0    0    0  0.00000000000E+00  0.00000000000E+00  0.99999998245E-14  0.12509000000E+03  0.12509000000E+03 0.  0.
        -11    1    3    3    0    0  0.24059119326E+01 -0.34928210035E+02  0.96435885966E+01  0.36314832641E+02  0.51100000000E-03 0. -1.
         23    2    1    0    0    0  0.20981761399E+02  0.85082989214E+01 -0.22274685311E+02  0.93328591535E+02  0.87757842557E+02 0.  0.
         11    1    3    3    0    0  0.18575849467E+02  0.43436508957E+02 -0.31918273907E+02  0.57013758894E+02  0.51100000000E-03 0.  1.
         22    1    1    0    0    0 -0.20981761399E+02 -0.85082989214E+01  0.22274685311E+02  0.31761408465E+02  0.00000000000E+00 0.  1.
</event>
<event>
 5    1  0.1055265E-009  0.9118800E+02  0.7815553E-02  0.1125453E+00
         25   -1    0    0    0    0  0.00000000000E+00  0.00000000000E+00  0.99999998245E-14  0.12509000000E+03  0.12509000000E+03 0.  0.
        -11    1    3    3    0    0 -0.16567949248E+01 -0.63687772970E+01 -0.56127662136E+02  0.56512129236E+02  0.51100000000E-03 0.  1.
         23    2    1    0    0    0 -0.68220999956E+01 -0.20614262018E+02 -0.20501415470E+02  0.95227031575E+02  0.90423396637E+02 0.  0.
         11    1    3    3    0    0 -0.51653050708E+01 -0.14245484721E+02  0.35626246665E+02  0.38714902339E+02  0.51100000000E-03 0. -1.
         22    1    1    0    0    0  0.68220999956E+01  0.20614262018E+02  0.20501415470E+02  0.29862968425E+02  0.00000000000E+00 0.  1.
</event>
<event>
 5    1  0.1055265E-009  0.9118800E+02  0.7815553E-02  0.1125453E+00
         25   -1    0    0    0    0  0.00000000000E+00  0.00000000000E+00  0.99999998245E-14  0.12509000000E+03  0.12509000000E+03 0.  0.
        -11    1    3    3    0    0 -0.15697528849E+02 -0.52056654317E+02 -0.26210831838E+02  0.60359882178E+02  0.51100000000E-03 0.  1.
         23    2    1    0    0    0 -0.18134951601E+02 -0.20798442033E+02 -0.93799352304E+01  0.95944934458E+02  0.91411135003E+02 0.  0.
         11    1    3    3    0    0 -0.24374227519E+01  0.31258212284E+02  0.16830896608E+02  0.35585052280E+02  0.51100000000E-03 0. -1.
         22    1    1    0    0    0  0.18134951601E+02  0.20798442033E+02  0.93799352304E+01  0.29145065542E+02  0.00000000000E+00 0.  1.
</event>
<event>
 5    1  0.1055265E-009  0.9118800E+02  0.7815553E-02  0.1125453E+00
         25   -1    0    0    0    0  0.00000000000E+00  0.00000000000E+00  0.99999998245E-14  0.12509000000E+03  0.12509000000E+03 0.  0.
        -11    1    3    3    0    0  0.45876606395E+02  0.17304536169E+02 -0.69088179450E+01  0.49516075692E+02  0.51100000000E-03 0.  1.
         23    2    1    0    0    0  0.86107944348E+01  0.52786893661E+01 -0.28934265746E+02  0.94443596027E+02  0.89333032827E+02 0.  0.
         11    1    3    3    0    0 -0.37265811960E+02 -0.12025846803E+02 -0.22025447801E+02  0.44927520335E+02  0.51100000000E-03 0. -1.
         22    1    1    0    0    0 -0.86107944348E+01 -0.52786893661E+01  0.28934265746E+02  0.30646403973E+02  0.00000000000E+00 0.  1.
</event>
<event>
 5    1  0.1055265E-009  0.9118800E+02  0.7815553E-02  0.1125453E+00
         25   -1    0    0    0    0  0.00000000000E+00  0.00000000000E+00  0.99999998245E-14  0.12509000000E+03  0.12509000000E+03 0.  0.
        -11    1    3    3    0    0 -0.16468077732E+02 -0.29780704320E+02  0.50679427573E+02  0.61045002362E+02  0.51100000000E-03 0.  1.
         23    2    1    0    0    0 -0.16763597389E+02 -0.12769884016E+02  0.20495979430E+02  0.95693175206E+02  0.91065967699E+02 0.  0.
         11    1    3    3    0    0 -0.29551965782E+00  0.17010820304E+02 -0.30183448144E+02  0.34648172844E+02  0.51100000000E-03 0. -1.
         22    1    1    0    0    0  0.16763597389E+02  0.12769884016E+02 -0.20495979430E+02  0.29396824794E+02  0.00000000000E+00 0.  1.
</event>
<event>
 5    1  0.1055265E-009  0.9118800E+02  0.7815553E-02  0.1125453E+00
         25   -1    0    0    0    0  0.00000000000E+00  0.00000000000E+00  0.99999998245E-14  0.12509000000E+03  0.12509000000E+03 0.  0.
        -11    1    3    3    0    0 -0.12826603399E+02  0.46128700137E+02  0.20937279180E+02  0.52256563136E+02  0.51100000000E-03 0.  1.
         23    2    1    0    0    0  0.15473315297E+02  0.13803271933E+02  0.21495877178E+02  0.95223186679E+02  0.90418077525E+02 0.  0.
         11    1    3    3    0    0  0.28299918695E+02 -0.32325428203E+02  0.55859799777E+00  0.42966623543E+02  0.51100000000E-03 0. -1.
         22    1    1    0    0    0 -0.15473315297E+02 -0.13803271933E+02 -0.21495877178E+02  0.29866813321E+02  0.00000000000E+00 0.  1.
</event>
<event>
 5    1  0.1055265E-009  0.9118800E+02  0.7815553E-02  0.1125453E+00
         25   -1    0    0    0    0  0.00000000000E+00  0.00000000000E+00  0.99999998245E-14  0.12509000000E+03  0.12509000000E+03 0.  0.
        -11    1    3    3    0    0  0.27066183123E+02 -0.31576485666E+02  0.21905756961E+02  0.47005477384E+02  0.51100000000E-03 0.  1.
         23    2    1    0    0    0  0.23038598104E+02  0.11779348194E+00 -0.16343577221E+02  0.96842816171E+02  0.92631677356E+02 0.  0.
         11    1    3    3    0    0 -0.40275850196E+01  0.31694279148E+02 -0.38249334182E+02  0.49837338787E+02  0.51100000000E-03 0. -1.
         22    1    1    0    0    0 -0.23038598104E+02 -0.11779348194E+00  0.16343577221E+02  0.28247183829E+02  0.00000000000E+00 0.  1.
</event>
<event>
 5    1  0.1055265E-009  0.9118800E+02  0.7815553E-02  0.1125453E+00
         25   -1    0    0    0    0  0.00000000000E+00  0.00000000000E+00  0.99999998245E-14  0.12509000000E+03  0.12509000000E+03 0.  0.
        -11    1    3    3    0    0  0.42910646267E+02 -0.53847377315E+01 -0.13792745320E+02  0.45393378231E+02  0.51100000000E-03 0. -1.
         23    2    1    0    0    0  0.90873777685E+01  0.28534319840E+02 -0.36338827442E+00  0.95141379089E+02  0.90304828888E+02 0.  0.
         11    1    3    3    0    0 -0.33823268499E+02  0.33919057571E+02  0.13429357046E+02  0.49748000858E+02  0.51100000000E-03 0.  1.
         22    1    1    0    0    0 -0.90873777685E+01 -0.28534319840E+02  0.36338827442E+00  0.29948620911E+02  0.00000000000E+00 0. -1.
</event>
<event>
 5    1  0.1055265E-009  0.9118800E+02  0.7815553E-02  0.1125453E+00
         25   -1    0    0    0    0  0.00000000000E+00  0.00000000000E+00  0.99999998245E-14  0.12509000000E+03  0.12509000000E+03 0.  0.
        -11    1    3    3    0    0 -0.39467671355E+02 -0.39973473847E+00  0.18952834514E+02  0.43784321468E+02  0.51100000000E-03 0.  1.
         23    2    1    0    0    0 -0.11837626651E+02  0.24432735274E+02 -0.14965921554E+02  0.94088923154E+02  0.88835008271E+02 0.  0.
         11    1    3    3    0    0  0.27630044704E+02  0.24832470012E+02 -0.33918756068E+02  0.50304601685E+02  0.51100000000E-03 0. -1.
         22    1    1    0    0    0  0.11837626651E+02 -0.24432735274E+02  0.14965921554E+02  0.31001076846E+02  0.00000000000E+00 0. -1.
</event>
<event>
 5    1  0.1055265E-009  0.9118800E+02  0.7815553E-02  0.1125453E+00
         25   -1    0    0    0    0  0.00000000000E+00  0.00000000000E+00  0.99999998245E-14  0.12509000000E+03  0.12509000000E+03 0.  0.
        -11    1    3    3    0    0  0.53918906080E+00  0.22079950029E+01 -0.57903157112E+02  0.57947748624E+02  0.51100000000E-03 0. -1.
         23    2    1    0    0    0 -0.13302949446E+02  0.10788768936E+02 -0.23505070471E+02  0.96006424963E+02  0.91495241937E+02 0.  0.
         11    1    3    3    0    0 -0.13842138507E+02  0.85807739331E+01  0.34398086642E+02  0.38058676338E+02  0.51100000000E-03 0.  1.
         22    1    1    0    0    0  0.13302949446E+02 -0.10788768936E+02  0.23505070471E+02  0.29083575037E+02  0.00000000000E+00 0. -1.
</event>
<event>
 5    1  0.1055265E-009  0.9118800E+02  0.7815553E-02  0.1125453E+00
         25   -1    0    0    0    0  0.00000000000E+00  0.00000000000E+00  0.99999998245E-14  0.12509000000E+03  0.12509000000E+03 0.  0.
        -11    1    3    3    0    0  0.21213994614E+02 -0.33230657423E+02 -0.41754688015E+02  0.57426162433E+02  0.51100000000E-03 0. -1.
         23    2    1    0    0    0  0.14360716398E+02 -0.24686810369E+02 -0.45995150240E+01  0.96162084069E+02  0.91707808242E+02 0.  0.
         11    1    3    3    0    0 -0.68532782157E+01  0.85438470547E+01  0.37155172991E+02  0.38735921637E+02  0.51100000000E-03 0.  1.
         22    1    1    0    0    0 -0.14360716398E+02  0.24686810369E+02  0.45995150240E+01  0.28927915931E+02  0.00000000000E+00 0. -1.
</event>
<event>
 5    1  0.1055265E-009  0.9118800E+02  0.7815553E-02  0.1125453E+00
         25   -1    0    0    0    0  0.00000000000E+00  0.00000000000E+00  0.99999998245E-14  0.12509000000E+03  0.12509000000E+03 0.  0.
        -11    1    3    3    0    0  0.59277378758E+02  0.35970856028E+01 -0.15726566627E+02  0.61433472598E+02  0.51100000000E-03 0.  1.
         23    2    1    0    0    0  0.28691958719E+02 -0.44389817323E+01 -0.17613400393E+01  0.96003312793E+02  0.91490986958E+02 0.  0.
         11    1    3    3    0    0 -0.30585420039E+02 -0.80360673351E+01  0.13965226588E+02  0.34569840195E+02  0.51100000000E-03 0. -1.
         22    1    1    0    0    0 -0.28691958719E+02  0.44389817323E+01  0.17613400393E+01  0.29086687207E+02  0.00000000000E+00 0.  1.
</event>
<event>
 5    1  0.1055265E-009  0.9118800E+02  0.7815553E-02  0.1125453E+00
         25   -1    0    0    0    0  0.00000000000E+00  0.00000000000E+00  0.99999998245E-14  0.12509000000E+03  0.12509000000E+03 0.  0.
        -11    1    3    3    0    0 -0.17796812922E+02 -0.54738500370E+02 -0.18412452488E+02  0.60432180002E+02  0.51100000000E-03 0. -1.
         23    2    1    0    0    0 -0.31808444405E+01 -0.22307865092E+02 -0.18390798365E+02  0.96004263275E+02  0.91492286485E+02 0.  0.
         11    1    3    3    0    0  0.14615968481E+02  0.32430635278E+02  0.21654122952E-01  0.35572083273E+02  0.51100000000E-03 0.  1.
         22    1    1    0    0    0  0.31808444405E+01  0.22307865092E+02  0.18390798365E+02  0.29085736725E+02  0.00000000000E+00 0. -1.
</event>
<event>
 5    1  0.1055265E-009  0.9118800E+02  0.7815553E-02  0.1125453E+00
         25   -1    0    0    0    0  0.00000000000E+00  0.00000000000E+00  0.99999998245E-14  0.12509000000E+03  0.12509000000E+03 0.  0.
        -11    1    3    3    0    0 -0.39266024023E+02  0.25589631106E+01 -0.13308260506E+02  0.41538882179E+02  0.51100000000E-03 0.  1.
         23    2    1    0    0    0 -0.40434256694E+01  0.30249505025E+02  0.11167498518E+02  0.92592386725E+02  0.86702106150E+02 0.  0.
         11    1    3    3    0    0  0.35222598353E+02  0.27690541915E+02  0.24475759025E+02  0.51053504546E+02  0.51100000000E-03 0. -1.
         22    1    1    0    0    0  0.40434256694E+01 -0.30249505025E+02 -0.11167498518E+02  0.32497613275E+02  0.00000000000E+00 0.  1.
</event>
<event>
 5    1  0.1055265E-009  0.9118800E+02  0.7815553E-02  0.1125453E+00
         25   -1    0    0    0    0  0.00000000000E+00  0.00000000000E+00  0.99999998245E-14  0.12509000000E+03  0.12509000000E+03 0.  0.
        -11    1    3    3    0    0 -0.36076717303E+01  0.15439128459E+02  0.44200970856E+02  0.46958575444E+02  0.51100000000E-03 0.  1.
         23    2    1    0    0    0 -0.65413415091E+01  0.29429756959E+02 -0.15613765926E+01  0.94901630712E+02  0.89972117190E+02 0.  0.
         11    1    3    3    0    0 -0.29336697788E+01  0.13990628500E+02 -0.45762347449E+02  0.47943055268E+02  0.51100000000E-03 0. -1.
         22    1    1    0    0    0  0.65413415091E+01 -0.29429756959E+02  0.15613765926E+01  0.30188369288E+02  0.00000000000E+00 0.  1.
</event>
<event>
 5    1  0.1055265E-009  0.9118800E+02  0.7815553E-02  0.1125453E+00
         25   -1    0    0    0    0  0.00000000000E+00  0.00000000000E+00  0.99999998245E-14  0.12509000000E+03  0.12509000000E+03 0.  0.
        -11    1    3    3    0    0 -0.32567346530E+02  0.18559227392E+01  0.66407266017E+01  0.33289273938E+02  0.51100000000E-03 0.  1.
         23    2    1    0    0    0  0.27935328185E+02  0.10248059811E+02 -0.32144186543E+01  0.95161121337E+02  0.90332171657E+02 0.  0.
         11    1    3    3    0    0  0.60502674716E+02  0.83921370717E+01 -0.98551452561E+01  0.61871847400E+02  0.51100000000E-03 0. -1.
         22    1    1    0    0    0 -0.27935328185E+02 -0.10248059811E+02  0.32144186543E+01  0.29928878663E+02  0.00000000000E+00 0. -1.
</event>
<event>
 5    1  0.1055265E-009  0.9118800E+02  0.7815553E-02  0.1125453E+00
         25   -1    0    0    0    0  0.00000000000E+00  0.00000000000E+00  0.99999998245E-14  0.12509000000E+03  0.12509000000E+03 0.  0.
        -11    1    3    3    0    0  0.37104223532E+02 -0.32264552649E+02  0.13916604425E+02  0.51101826195E+02  0.51100000000E-03 0. -1.
         23    2    1    0    0    0  0.12991469641E+02  0.47181744905E+01  0.24912892395E+02  0.96599797098E+02  0.92302920527E+02 0.  0.
         11    1    3    3    0    0 -0.24112753891E+02  0.36982727139E+02  0.10996287970E+02  0.45497970902E+02  0.51100000000E-03 0.  1.
         22    1    1    0    0    0 -0.12991469641E+02 -0.47181744905E+01 -0.24912892395E+02  0.28490202902E+02  0.00000000000E+00 0.  1.
</event>
<event>
 5    1  0.1055265E-009  0.9118800E+02  0.7815553E-02  0.1125453E+00
         25   -1    0    0    0    0  0.00000000000E+00  0.00000000000E+00  0.99999998245E-14  0.12509000000E+03  0.12509000000E+03 0.  0.
        -11    1    3    3    0    0 -0.33920659808E+02  0.26139296900E+02 -0.11714611651E+02  0.44397141019E+02  0.51100000000E-03 0.  1.
         23    2    1    0    0    0  0.91404801932E+00  0.11926796167E+02  0.25256050254E+02  0.97144481127E+02  0.93038154477E+02 0.  0.
         11    1    3    3    0    0  0.34834707828E+02 -0.14212500733E+02  0.36970661906E+02  0.52747340109E+02  0.51100000000E-03 0. -1.
         22    1    1    0    0    0 -0.91404801932E+00 -0.11926796167E+02 -0.25256050254E+02  0.27945518873E+02  0.00000000000E+00 0. -1.
</event>
<event>
 5    1  0.1055265E-009  0.9118800E+02  0.7815553E-02  0.1125453E+00
         25   -1    0    0    0    0  0.00000000000E+00  0.00000000000E+00  0.99999998245E-14  0.12509000000E+03  0.12509000000E+03 0.  0.
        -11    1    3    3    0    0  0.12518634980E+02  0.39268952850E+02  0.37305924654E+02  0.55592255704E+02  0.51100000000E-03 0.  1.
         23    2    1    0    0    0  0.70565601345E+01  0.25530343260E+02 -0.29131593842E+01  0.98442674327E+02  0.94767505840E+02 0.  0.
         11    1    3    3    0    0 -0.54620748456E+01 -0.13738609589E+02 -0.40219084038E+02  0.42850418623E+02  0.51100000000E-03 0. -1.
         22    1    1    0    0    0 -0.70565601345E+01 -0.25530343260E+02  0.29131593842E+01  0.26647325673E+02  0.00000000000E+00 0.  1.
</event>
<event>
 5    1  0.1055265E-009  0.9118800E+02  0.7815553E-02  0.1125453E+00
         25   -1    0    0    0    0  0.00000000000E+00  0.00000000000E+00  0.99999998245E-14  0.12509000000E+03  0.12509000000E+03 0.  0.
        -11    1    3    3    0    0  0.42281901901E+02  0.23355162124E+01 -0.43683958029E+02  0.60839970855E+02  0.51100000000E-03 0. -1.
         23    2    1    0    0    0  0.13817949485E+02 -0.50846968499E+01 -0.26136573707E+02  0.95091494117E+02  0.90235701905E+02 0.  0.
         11    1    3    3    0    0 -0.28463952415E+02 -0.74202130622E+01  0.17547384321E+02  0.34251523262E+02  0.51100000000E-03 0.  1.
         22    1    1    0    0    0 -0.13817949485E+02  0.50846968499E+01  0.26136573707E+02  0.29998505883E+02  0.00000000000E+00 0. -1.
</event>
<event>
 5    1  0.1055265E-009  0.9118800E+02  0.7815553E-02  0.1125453E+00
         25   -1    0    0    0    0  0.00000000000E+00  0.00000000000E+00  0.99999998245E-14  0.12509000000E+03  0.12509000000E+03 0.  0.
        -11    1    3    3    0    0  0.34869972711E+02 -0.41088536592E+02  0.27584666429E+02  0.60540041777E+02  0.51100000000E-03 0. -1.
         23    2    1    0    0    0  0.19047343005E+02 -0.10732679781E+02  0.19682753842E+02  0.95672275927E+02  0.91037255513E+02 0.  0.
         11    1    3    3    0    0 -0.15822629705E+02  0.30355856811E+02 -0.79019125864E+01  0.35132234149E+02  0.51100000000E-03 0.  1.
         22    1    1    0    0    0 -0.19047343005E+02  0.10732679781E+02 -0.19682753842E+02  0.29417724073E+02  0.00000000000E+00 0. -1.
</event>
<event>
 5    1  0.1055265E-009  0.9118800E+02  0.7815553E-02  0.1125453E+00
         25   -1    0    0    0    0  0.00000000000E+00  0.00000000000E+00  0.99999998245E-14  0.12509000000E+03  0.12509000000E+03 0.  0.
        -11    1    3    3    0    0  0.40447837260E+02  0.37236672074E+01 -0.35271824327E+02  0.53795862556E+02  0.51100000000E-03 0.  1.
         23    2    1    0    0    0  0.14107296065E+02 -0.20819086422E+02 -0.20231729606E+02  0.92813490824E+02  0.87020520765E+02 0.  0.
         11    1    3    3    0    0 -0.26340541195E+02 -0.24542753630E+02  0.15040094721E+02  0.39017628268E+02  0.51100000000E-03 0. -1.
         22    1    1    0    0    0 -0.14107296065E+02  0.20819086422E+02  0.20231729606E+02  0.32276509176E+02  0.00000000000E+00 0.  1.
</event>
<event>
 5    1  0.1055265E-009  0.9118800E+02  0.7815553E-02  0.1125453E+00
         25   -1    0    0    0    0  0.00000000000E+00  0.00000000000E+00  0.99999998245E-14  0.12509000000E+03  0.12509000000E+03 0.  0.
        -11    1    3    3    0    0 -0.46994491387E+00 -0.77230366481E+01 -0.48034567859E+02  0.48653734214E+02  0.51100000000E-03 0. -1.
         23    2    1    0    0    0  0.54697233184E+01 -0.28776823129E+02 -0.72821043376E+01  0.94906354326E+02  0.89978684283E+02 0.  0.
         11    1    3    3    0    0  0.59396682322E+01 -0.21053786481E+02  0.40752463521E+02  0.46252620112E+02  0.51100000000E-03 0.  1.
         22    1    1    0    0    0 -0.54697233184E+01  0.28776823129E+02  0.72821043376E+01  0.30183645674E+02  0.00000000000E+00 0.  1.
</event>
<event>
 5    1  0.1055265E-009  0.9118800E+02  0.7815553E-02  0.1125453E+00
         25   -1    0    0    0    0  0.00000000000E+00  0.00000000000E+00  0.99999998245E-14  0.12509000000E+03  0.12509000000E+03 0.  0.
        -11    1    3    3    0    0  0.48129996898E+01 -0.72599407766E+00  0.40502285542E+02  0.40793714807E+02  0.51100000000E-03 0.  1.
         23    2    1    0    0    0  0.20732397048E+02 -0.18986760065E+02 -0.87210720058E+01  0.95655556876E+02  0.91014279754E+02 0.  0.
         11    1    3    3    0    0  0.15919397358E+02 -0.18260765987E+02 -0.49223357547E+02  0.54861842069E+02  0.51100000000E-03 0. -1.
         22    1    1    0    0    0 -0.20732397048E+02  0.18986760065E+02  0.87210720058E+01  0.29434443124E+02  0.00000000000E+00 0.  1.
</event>
<event>
 5    1  0.1055265E-009  0.9118800E+02  0.7815553E-02  0.1125453E+00
         25   -1    0    0    0    0  0.00000000000E+00  0.00000000000E+00  0.99999998245E-14  0.12509000000E+03  0.12509000000E+03 0.  0.
        -11    1    3    3    0    0 -0.28260503190E+02 -0.20779998628E+02 -0.16401088424E+02  0.38722862565E+02  0.51100000000E-03 0. -1.
         23    2    1    0    0    0  0.21086005533E+02 -0.19464960596E+02  0.99966888491E+01  0.94701875538E+02  0.89693963689E+02 0.  0.
         11    1    3    3    0    0  0.49346508723E+02  0.13150380316E+01  0.26397777273E+02  0.55979012973E+02  0.51100000000E-03 0.  1.
         22    1    1    0    0    0 -0.21086005533E+02  0.19464960596E+02 -0.99966888491E+01  0.30388124462E+02  0.00000000000E+00 0.  1.
</event>
<event>
 5    1  0.1055265E-009  0.9118800E+02  0.7815553E-02  0.1125453E+00
         25   -1    0    0    0    0  0.00000000000E+00  0.00000000000E+00  0.99999998245E-14  0.12509000000E+03  0.12509000000E+03 0.  0.
        -11    1    3    3    0    0 -0.31280663837E+02 -0.40415419682E+02  0.24376901559E+02  0.56622605098E+02  0.51100000000E-03 0.  1.
         23    2    1    0    0    0  0.31135806094E+01 -0.26795789539E+02  0.10938349185E+02  0.95980616562E+02  0.91459950533E+02 0.  0.
         11    1    3    3    0    0  0.34394244447E+02  0.13619630143E+02 -0.13438552374E+02  0.39358011464E+02  0.51100000000E-03 0. -1.
         22    1    1    0    0    0 -0.31135806094E+01  0.26795789539E+02 -0.10938349185E+02  0.29109383438E+02  0.00000000000E+00 0.  1.
</event>
<event>
 5    1  0.1055265E-009  0.9118800E+02  0.7815553E-02  0.1125453E+00
         25   -1    0    0    0    0  0.00000000000E+00  0.00000000000E+00  0.99999998245E-14  0.12509000000E+03  0.12509000000E+03 0.  0.
        -11    1    3    3    0    0  0.58775087873E+01  0.12929417423E+02 -0.36139728919E+02  0.38830335449E+02  0.51100000000E-03 0. -1.
         23    2    1    0    0    0  0.15790312773E+02 -0.25997352597E+02  0.25042630346E+01  0.94570045005E+02  0.89509919894E+02 0.  0.
         11    1    3    3    0    0  0.99128039859E+01 -0.38926770020E+02  0.38643991954E+02  0.55739709556E+02  0.51100000000E-03 0.  1.
         22    1    1    0    0    0 -0.15790312773E+02  0.25997352597E+02 -0.25042630346E+01  0.30519954995E+02  0.00000000000E+00 0.  1.
</event>
<event>
 5    1  0.1055265E-009  0.9118800E+02  0.7815553E-02  0.1125453E+00
         25   -1    0    0    0    0  0.00000000000E+00  0.00000000000E+00  0.99999998245E-14  0.12509000000E+03  0.12509000000E+03 0.  0.
        -11    1    3    3    0    0  0.37744238445E+01  0.27709819406E+01 -0.49921729346E+02  0.50140838419E+02  0.51100000000E-03 0.  1.
         23    2    1    0    0    0  0.10110020080E+02  0.26030901307E+02 -0.12877470839E+02  0.94338584031E+02  0.89185866890E+02 0.  0.
         11    1    3    3    0    0  0.63355962354E+01  0.23259919367E+02  0.37044258506E+02  0.44197745612E+02  0.51100000000E-03 0. -1.
         22    1    1    0    0    0 -0.10110020080E+02 -0.26030901307E+02  0.12877470839E+02  0.30751415969E+02  0.00000000000E+00 0.  1.
</event>
<event>
 5    1  0.1055265E-009  0.9118800E+02  0.7815553E-02  0.1125453E+00
         25   -1    0    0    0    0  0.00000000000E+00  0.00000000000E+00  0.99999998245E-14  0.12509000000E+03  0.12509000000E+03 0.  0.
        -11    1    3    3    0    0  0.28695045330E+02 -0.13559685398E+02 -0.12213371982E+02  0.34006428069E+02  0.51100000000E-03 0. -1.
         23    2    1    0    0    0 -0.17936696171E+02  0.23656924844E+02  0.19876396576E+01  0.95335573875E+02  0.90573427516E+02 0.  0.
         11    1    3    3    0    0 -0.46631741501E+02  0.37216610242E+02  0.14201011640E+02  0.61329145806E+02  0.51100000000E-03 0.  1.
         22    1    1    0    0    0  0.17936696171E+02 -0.23656924844E+02 -0.19876396576E+01  0.29754426125E+02  0.00000000000E+00 0.  1.
</event>
<event>
 5    1  0.1055265E-009  0.9118800E+02  0.7815553E-02  0.1125453E+00
         25   -1    0    0    0    0  0.00000000000E+00  0.00000000000E+00  0.99999998245E-14  0.12509000000E+03  0.12509000000E+03 0.  0.
        -11    1    3    3    0    0 -0.26258315688E+02  0.19046264056E+02  0.12424393460E+02  0.34736506306E+02  0.51100000000E-03 0. -1.
         23    2    1    0    0    0  0.29825930466E+02 -0.11382924554E+01  0.54476736698E+01  0.94749285007E+02  0.89760058061E+02 0.  0.
         11    1    3    3    0    0  0.56084246153E+02 -0.20184556511E+02 -0.69767197905E+01  0.60012778701E+02  0.51100000000E-03 0.  1.
         22    1    1    0    0    0 -0.29825930466E+02  0.11382924554E+01 -0.54476736698E+01  0.30340714993E+02  0.00000000000E+00 0.  1.
</event>
<event>
 5    1  0.1055265E-009  0.9118800E+02  0.7815553E-02  0.1125453E+00
         25   -1    0    0    0    0  0.00000000000E+00  0.00000000000E+00  0.99999998245E-14  0.12509000000E+03  0.12509000000E+03 0.  0.
        -11    1    3    3    0    0 -0.57815364749E+02  0.41923467339E+01 -0.13806626030E+02  0.59588716170E+02  0.51100000000E-03 0. -1.
         23    2    1    0    0    0 -0.22862893993E+02  0.15006381227E+02 -0.76704457777E+01  0.96686846342E+02  0.92420815393E+02 0.  0.
         11    1    3    3    0    0  0.34952470756E+02  0.10814034493E+02  0.61361802525E+01  0.37098130173E+02  0.51100000000E-03 0.  1.
         22    1    1    0    0    0  0.22862893993E+02 -0.15006381227E+02  0.76704457777E+01  0.28403153658E+02  0.00000000000E+00 0. -1.
</event>
<event>
 5    1  0.1055265E-009  0.9118800E+02  0.7815553E-02  0.1125453E+00
         25   -1    0    0    0    0  0.00000000000E+00  0.00000000000E+00  0.99999998245E-14  0.12509000000E+03  0.12509000000E+03 0.  0.
        -11    1    3    3    0    0  0.83635933961E+01 -0.16154938341E+02  0.52196924690E+02  0.55276131148E+02  0.51100000000E-03 0. -1.
         23    2    1    0    0    0  0.24374647928E+02 -0.13578318614E+02  0.21976224112E+02  0.89573121981E+02  0.82230745814E+02 0.  0.
         11    1    3    3    0    0  0.16011054532E+02  0.25766197272E+01 -0.30220700579E+02  0.34296990833E+02  0.51100000000E-03 0.  1.
         22    1    1    0    0    0 -0.24374647928E+02  0.13578318614E+02 -0.21976224112E+02  0.35516878019E+02  0.00000000000E+00 0. -1.
</event>
<event>
 5    1  0.1055265E-009  0.9118800E+02  0.7815553E-02  0.1125453E+00
         25   -1    0    0    0    0  0.00000000000E+00  0.00000000000E+00  0.99999998245E-14  0.12509000000E+03  0.12509000000E+03 0.  0.
        -11    1    3    3    0    0 -0.10702500545E+02  0.19628511899E+02 -0.25599619870E+02  0.33987682107E+02  0.51100000000E-03 0. -1.
         23    2    1    0    0    0 -0.93503435073E+00 -0.14712072974E+02  0.25090640685E+02  0.95989147256E+02  0.91471617241E+02 0.  0.
         11    1    3    3    0    0  0.97674661942E+01 -0.34340584873E+02  0.50690260555E+02  0.62001465149E+02  0.51100000000E-03 0.  1.
         22    1    1    0    0    0  0.93503435073E+00  0.14712072974E+02 -0.25090640685E+02  0.29100852744E+02  0.00000000000E+00 0.  1.
</event>
<event>
 5    1  0.1055265E-009  0.9118800E+02  0.7815553E-02  0.1125453E+00
         25   -1    0    0    0    0  0.00000000000E+00  0.00000000000E+00  0.99999998245E-14  0.12509000000E+03  0.12509000000E+03 0.  0.
        -11    1    3    3    0    0  0.65308452534E+01 -0.30605412133E+02  0.18736505300E+02  0.36474646299E+02  0.51100000000E-03 0.  1.
         23    2    1    0    0    0 -0.26917383402E+02  0.71307315163E+01 -0.11153020061E+02  0.95093621591E+02  0.90238651085E+02 0.  0.
         11    1    3    3    0    0 -0.33448228655E+02  0.37736143649E+02 -0.29889525361E+02  0.58618975292E+02  0.51100000000E-03 0. -1.
         22    1    1    0    0    0  0.26917383402E+02 -0.71307315163E+01  0.11153020061E+02  0.29996378409E+02  0.00000000000E+00 0. -1.
</event>
<event>
 5    1  0.1055265E-009  0.9118800E+02  0.7815553E-02  0.1125453E+00
         25   -1    0    0    0    0  0.00000000000E+00  0.00000000000E+00  0.99999998245E-14  0.12509000000E+03  0.12509000000E+03 0.  0.
        -11    1    3    3    0    0 -0.12807725290E+02  0.16550572055E+02  0.47295161838E+02  0.51718387408E+02  0.51100000000E-03 0.  1.
         23    2    1    0    0    0  0.17438316408E+02  0.18535013205E+02  0.17625607409E+02  0.94133520384E+02  0.88897784166E+02 0.  0.
         11    1    3    3    0    0  0.30246041699E+02  0.19844411498E+01 -0.29669554429E+02  0.42415132976E+02  0.51100000000E-03 0. -1.
         22    1    1    0    0    0 -0.17438316408E+02 -0.18535013205E+02 -0.17625607409E+02  0.30956479616E+02  0.00000000000E+00 0.  1.
</event>
<event>
 5    1  0.1055265E-009  0.9118800E+02  0.7815553E-02  0.1125453E+00
         25   -1    0    0    0    0  0.00000000000E+00  0.00000000000E+00  0.99999998245E-14  0.12509000000E+03  0.12509000000E+03 0.  0.
        -11    1    3    3    0    0 -0.17712444375E+02  0.21477720559E+02 -0.35013280512E+02  0.44732012906E+02  0.51100000000E-03 0.  1.
         23    2    1    0    0    0  0.11677747094E+02 -0.18960481943E+02 -0.12441360439E+02  0.99582018851E+02  0.96259656016E+02 0.  0.
         11    1    3    3    0    0  0.29390191469E+02 -0.40438202502E+02  0.22571920073E+02  0.54850005945E+02  0.51100000000E-03 0. -1.
         22    1    1    0    0    0 -0.11677747094E+02  0.18960481943E+02  0.12441360439E+02  0.25507981149E+02  0.00000000000E+00 0. -1.
</event>
<event>
 5    1  0.1055265E-009  0.9118800E+02  0.7815553E-02  0.1125453E+00
         25   -1    0    0    0    0  0.00000000000E+00  0.00000000000E+00  0.99999998245E-14  0.12509000000E+03  0.12509000000E+03 0.  0.
        -11    1    3    3    0    0  0.77228056648E+01 -0.32522121421E+02  0.49860807891E+02  0.60028578801E+02  0.51100000000E-03 0.  1.
         23    2    1    0    0    0 -0.78376683725E+01 -0.19800680421E+02  0.21140894821E+02  0.95082777128E+02  0.90223617095E+02 0.  0.
         11    1    3    3    0    0 -0.15560474037E+02  0.12721441000E+02 -0.28719913069E+02  0.35054198327E+02  0.51100000000E-03 0. -1.
         22    1    1    0    0    0  0.78376683725E+01  0.19800680421E+02 -0.21140894821E+02  0.30007222872E+02  0.00000000000E+00 0.  1.
</event>
<event>
 5    1  0.1055265E-009  0.9118800E+02  0.7815553E-02  0.1125453E+00
         25   -1    0    0    0    0  0.00000000000E+00  0.00000000000E+00  0.99999998245E-14  0.12509000000E+03  0.12509000000E+03 0.  0.
        -11    1    3    3    0    0  0.21440889756E+01  0.11376893173E+02  0.46059969659E+02  0.47492648074E+02  0.51100000000E-03 0.  1.
         23    2    1    0    0    0  0.12248238155E+02  0.27290070627E+02  0.23604618882E+01  0.95084349314E+02  0.90225796818E+02 0.  0.
         11    1    3    3    0    0  0.10104149179E+02  0.15913177454E+02 -0.43699507771E+02  0.47591701241E+02  0.51100000000E-03 0. -1.
         22    1    1    0    0    0 -0.12248238155E+02 -0.27290070627E+02 -0.23604618882E+01  0.30005650686E+02  0.00000000000E+00 0.  1.
</event>
<event>
 5    1  0.1055265E-009  0.9118800E+02  0.7815553E-02  0.1125453E+00
         25   -1    0    0    0    0  0.00000000000E+00  0.00000000000E+00  0.99999998245E-14  0.12509000000E+03  0.12509000000E+03 0.  0.
        -11    1    3    3    0    0  0.14089164578E+02 -0.49921147873E+02  0.29268584089E+02  0.59559009212E+02  0.51100000000E-03 0.  1.
         23    2    1    0    0    0  0.16471110286E+02 -0.15762032721E+02  0.19292353733E+02  0.95224734856E+02  0.90420219344E+02 0.  0.
         11    1    3    3    0    0  0.23819457084E+01  0.34159115152E+02 -0.99762303560E+01  0.35665725644E+02  0.51100000000E-03 0. -1.
         22    1    1    0    0    0 -0.16471110286E+02  0.15762032721E+02 -0.19292353733E+02  0.29865265144E+02  0.00000000000E+00 0.  1.
</event>
<event>
 5    1  0.1055265E-009  0.9118800E+02  0.7815553E-02  0.1125453E+00
         25   -1    0    0    0    0  0.00000000000E+00  0.00000000000E+00  0.99999998245E-14  0.12509000000E+03  0.12509000000E+03 0.  0.
        -11    1    3    3    0    0  0.18229103653E+02 -0.21867672417E+02  0.29422432379E+02  0.40941114351E+02  0.51100000000E-03 0.  1.
         23    2    1    0    0    0  0.19129691700E+02 -0.41261575955E+01 -0.22177184117E+02  0.95513019485E+02  0.90818165114E+02 0.  0.
         11    1    3    3    0    0  0.90058804663E+00  0.17741514822E+02 -0.51599616497E+02  0.54571905133E+02  0.51100000000E-03 0. -1.
         22    1    1    0    0    0 -0.19129691700E+02  0.41261575955E+01  0.22177184117E+02  0.29576980515E+02  0.00000000000E+00 0. -1.
</event>
<event>
 5    1  0.1055265E-009  0.9118800E+02  0.7815553E-02  0.1125453E+00
         25   -1    0    0    0    0  0.00000000000E+00  0.00000000000E+00  0.99999998245E-14  0.12509000000E+03  0.12509000000E+03 0.  0.
        -11    1    3    3    0    0  0.34701014969E+02  0.33236796148E+02  0.31952722260E+02  0.57704605693E+02  0.51100000000E-03 0. -1.
         23    2    1    0    0    0  0.10749321505E+02  0.53498716309E+01  0.27934317029E+02  0.94684488869E+02  0.89669712418E+02 0.  0.
         11    1    3    3    0    0 -0.23951693464E+02 -0.27886924517E+02 -0.40184052314E+01  0.36979883176E+02  0.51100000000E-03 0.  1.
         22    1    1    0    0    0 -0.10749321505E+02 -0.53498716309E+01 -0.27934317029E+02  0.30405511131E+02  0.00000000000E+00 0. -1.
</event>
<event>
 5    1  0.1055265E-009  0.9118800E+02  0.7815553E-02  0.1125453E+00
         25   -1    0    0    0    0  0.00000000000E+00  0.00000000000E+00  0.99999998245E-14  0.12509000000E+03  0.12509000000E+03 0.  0.
        -11    1    3    3    0    0  0.26109844555E+02 -0.29364304880E+02  0.84624263040E+01  0.40194515085E+02  0.51100000000E-03 0. -1.
         23    2    1    0    0    0  0.63791234304E+01  0.21021533939E+02  0.19839879803E+02  0.95489004485E+02  0.90785081605E+02 0.  0.
         11    1    3    3    0    0 -0.19730721125E+02  0.50385838819E+02  0.11377453499E+02  0.55294489399E+02  0.51100000000E-03 0.  1.
         22    1    1    0    0    0 -0.63791234304E+01 -0.21021533939E+02 -0.19839879803E+02  0.29600995515E+02  0.00000000000E+00 0.  1.
</event>
<event>
 5    1  0.1055265E-009  0.9118800E+02  0.7815553E-02  0.1125453E+00
         25   -1    0    0    0    0  0.00000000000E+00  0.00000000000E+00  0.99999998245E-14  0.12509000000E+03  0.12509000000E+03 0.  0.
        -11    1    3    3    0    0  0.26679424882E+02 -0.36037868107E+02 -0.42995603871E+02  0.62121989683E+02  0.51100000000E-03 0.  1.
         23    2    1    0    0    0  0.10468177922E+02 -0.13746624319E+02 -0.23668169891E+02  0.95785824612E+02  0.91193143939E+02 0.  0.
         11    1    3    3    0    0 -0.16211246960E+02  0.22291243788E+02  0.19327433980E+02  0.33663834929E+02  0.51100000000E-03 0. -1.
         22    1    1    0    0    0 -0.10468177922E+02  0.13746624319E+02  0.23668169891E+02  0.29304175388E+02  0.00000000000E+00 0.  1.
</event>
<event>
 5    1  0.1055265E-009  0.9118800E+02  0.7815553E-02  0.1125453E+00
         25   -1    0    0    0    0  0.00000000000E+00  0.00000000000E+00  0.99999998245E-14  0.12509000000E+03  0.12509000000E+03 0.  0.
        -11    1    3    3    0    0 -0.19147262977E+02 -0.28732995070E+01 -0.54583042609E+02  0.57915300831E+02  0.51100000000E-03 0.  1.
         23    2    1    0    0    0 -0.13423775529E+02 -0.16585613302E+02 -0.18833527900E+02  0.96629815685E+02  0.92343593108E+02 0.  0.
         11    1    3    3    0    0  0.57234874489E+01 -0.13712313795E+02  0.35749514709E+02  0.38714514854E+02  0.51100000000E-03 0. -1.
         22    1    1    0    0    0  0.13423775529E+02  0.16585613302E+02  0.18833527900E+02  0.28460184315E+02  0.00000000000E+00 0.  1.
</event>
<event>
 5    1  0.1055265E-009  0.9118800E+02  0.7815553E-02  0.1125453E+00
         25   -1    0    0    0    0  0.00000000000E+00  0.00000000000E+00  0.99999998245E-14  0.12509000000E+03  0.12509000000E+03 0.  0.
        -11    1    3    3    0    0  0.84862101164E+00 -0.24558070130E+02 -0.28373263312E+02  0.37534797686E+02  0.51100000000E-03 0.  1.
         23    2    1    0    0    0 -0.23555779345E+02  0.17847086558E+02  0.25706312232E+01  0.95425182723E+02  0.90697100911E+02 0.  0.
         11    1    3    3    0    0 -0.24404400357E+02  0.42405156688E+02  0.30943894535E+02  0.57890385037E+02  0.51100000000E-03 0. -1.
         22    1    1    0    0    0  0.23555779345E+02 -0.17847086558E+02 -0.25706312232E+01  0.29664817277E+02  0.00000000000E+00 0. -1.
</event>
<event>
 5    1  0.1055265E-009  0.9118800E+02  0.7815553E-02  0.1125453E+00
         25   -1    0    0    0    0  0.00000000000E+00  0.00000000000E+00  0.99999998245E-14  0.12509000000E+03  0.12509000000E+03 0.  0.
        -11    1    3    3    0    0 -0.38799729692E+01 -0.31093119603E+02  0.10129812167E+02  0.32930978906E+02  0.51100000000E-03 0.  1.
         23    2    1    0    0    0 -0.16408830808E+02  0.26299687243E+02 -0.52368790215E+01  0.93651994665E+02  0.88217616864E+02 0.  0.
         11    1    3    3    0    0 -0.12528857839E+02  0.57392806846E+02 -0.15366691189E+02  0.60721015759E+02  0.51100000000E-03 0. -1.
         22    1    1    0    0    0  0.16408830808E+02 -0.26299687243E+02  0.52368790215E+01  0.31438005335E+02  0.00000000000E+00 0. -1.
</event>
<event>
 5    1  0.1055265E-009  0.9118800E+02  0.7815553E-02  0.1125453E+00
         25   -1    0    0    0    0  0.00000000000E+00  0.00000000000E+00  0.99999998245E-14  0.12509000000E+03  0.12509000000E+03 0.  0.
        -11    1    3    3    0    0  0.25191166620E+02  0.39224613395E+02 -0.23765404580E+02  0.52325516020E+02  0.51100000000E-03 0. -1.
         23    2    1    0    0    0  0.13512085198E+02  0.22627712557E+02  0.14036171872E+02  0.95230262178E+02  0.90427865682E+02 0.  0.
         11    1    3    3    0    0 -0.11679081422E+02 -0.16596900838E+02  0.37801576452E+02  0.42904746158E+02  0.51100000000E-03 0.  1.
         22    1    1    0    0    0 -0.13512085198E+02 -0.22627712557E+02 -0.14036171872E+02  0.29859737822E+02  0.00000000000E+00 0. -1.
</event>
<event>
 5    1  0.1055265E-009  0.9118800E+02  0.7815553E-02  0.1125453E+00
         25   -1    0    0    0    0  0.00000000000E+00  0.00000000000E+00  0.99999998245E-14  0.12509000000E+03  0.12509000000E+03 0.  0.
        -11    1    3    3    0    0  0.32601177412E+02 -0.33925706150E+02  0.21019234942E+02  0.51532499884E+02  0.51100000000E-03 0. -1.
         23    2    1    0    0    0 -0.93409178835E+01 -0.36937786971E+01 -0.92427521149E+01  0.11143990056E+03  0.11060075146E+03 0.  0.
         11    1    3    3    0    0 -0.41942095296E+02  0.30231927453E+02 -0.30261987057E+02  0.59907400680E+02  0.51100000000E-03 0.  1.
         22    1    1    0    0    0  0.93409178835E+01  0.36937786971E+01  0.92427521149E+01  0.13650099437E+02  0.00000000000E+00 0.  1.
</event>
<event>
 5    1  0.1055265E-009  0.9118800E+02  0.7815553E-02  0.1125453E+00
         25   -1    0    0    0    0  0.00000000000E+00  0.00000000000E+00  0.99999998245E-14  0.12509000000E+03  0.12509000000E+03 0.  0.
        -11    1    3    3    0    0  0.31333618979E+02 -0.10688050636E+02 -0.19999586276E+02  0.38678334455E+02  0.51100000000E-03 0.  1.
         23    2    1    0    0    0  0.11223421773E+02 -0.49281849058E+01  0.29894394536E+02  0.92780140399E+02  0.86972567083E+02 0.  0.
         11    1    3    3    0    0 -0.20110197206E+02  0.57598657305E+01  0.49893980812E+02  0.54101805944E+02  0.51100000000E-03 0. -1.
         22    1    1    0    0    0 -0.11223421773E+02  0.49281849058E+01 -0.29894394536E+02  0.32309859601E+02  0.00000000000E+00 0. -1.
</event>
<event>
 5    1  0.1055265E-009  0.9118800E+02  0.7815553E-02  0.1125453E+00
         25   -1    0    0    0    0  0.00000000000E+00  0.00000000000E+00  0.99999998245E-14  0.12509000000E+03  0.12509000000E+03 0.  0.
        -11    1    3    3    0    0 -0.76592089702E+01 -0.37655716965E+02  0.28465754616E+01  0.38532058008E+02  0.51100000000E-03 0.  1.
         23    2    1    0    0    0 -0.36442280078E+02 -0.66487430245E+01  0.18551969765E+02  0.83660286711E+02  0.72681651256E+02 0.  0.
         11    1    3    3    0    0 -0.28783071108E+02  0.31006973941E+02  0.15705394304E+02  0.45128228703E+02  0.51100000000E-03 0. -1.
         22    1    1    0    0    0  0.36442280078E+02  0.66487430245E+01 -0.18551969765E+02  0.41429713289E+02  0.00000000000E+00 0. -1.
</event>
<event>
 5    1  0.1055265E-009  0.9118800E+02  0.7815553E-02  0.1125453E+00
         25   -1    0    0    0    0  0.00000000000E+00  0.00000000000E+00  0.99999998245E-14  0.12509000000E+03  0.12509000000E+03 0.  0.
        -11    1    3    3    0    0  0.17049475223E+02 -0.12118842334E+02 -0.31452679304E+02  0.37773297189E+02  0.51100000000E-03 0.  1.
         23    2    1    0    0    0 -0.23995255330E+02  0.16995034240E+02 -0.31257328581E+01  0.95520189837E+02  0.90828040788E+02 0.  0.
         11    1    3    3    0    0 -0.41044730553E+02  0.29113876574E+02  0.28326946446E+02  0.57746892648E+02  0.51100000000E-03 0. -1.
         22    1    1    0    0    0  0.23995255330E+02 -0.16995034240E+02  0.31257328581E+01  0.29569810163E+02  0.00000000000E+00 0. -1.
</event>
<event>
 5    1  0.1055265E-009  0.9118800E+02  0.7815553E-02  0.1125453E+00
         25   -1    0    0    0    0  0.00000000000E+00  0.00000000000E+00  0.99999998245E-14  0.12509000000E+03  0.12509000000E+03 0.  0.
        -11    1    3    3    0    0 -0.26278986490E+02  0.19418654881E+02  0.44005191713E+02  0.54809909563E+02  0.51100000000E-03 0.  1.
         23    2    1    0    0    0 -0.16534427845E+02  0.25661872711E+02  0.67445015106E+01  0.93826485869E+02  0.88464694284E+02 0.  0.
         11    1    3    3    0    0  0.97445586451E+01  0.62432178301E+01 -0.37260690202E+02  0.39016576307E+02  0.51100000000E-03 0. -1.
         22    1    1    0    0    0  0.16534427845E+02 -0.25661872711E+02 -0.67445015106E+01  0.31263514131E+02  0.00000000000E+00 0.  1.
</event>
<event>
 5    1  0.1055265E-009  0.9118800E+02  0.7815553E-02  0.1125453E+00
         25   -1    0    0    0    0  0.00000000000E+00  0.00000000000E+00  0.99999998245E-14  0.12509000000E+03  0.12509000000E+03 0.  0.
        -11    1    3    3    0    0 -0.40133000427E+02  0.17046865103E+02  0.26207622933E+02  0.50873301771E+02  0.51100000000E-03 0. -1.
         23    2    1    0    0    0 -0.31739025376E+02 -0.37961288977E+01 -0.83119356070E+01  0.92061760569E+02  0.85933131905E+02 0.  0.
         11    1    3    3    0    0  0.83939750508E+01 -0.20842994000E+02 -0.34519558540E+02  0.41188458797E+02  0.51100000000E-03 0.  1.
         22    1    1    0    0    0  0.31739025376E+02  0.37961288977E+01  0.83119356070E+01  0.33028239431E+02  0.00000000000E+00 0.  1.
</event>
<event>
 5    1  0.1055265E-009  0.9118800E+02  0.7815553E-02  0.1125453E+00
         25   -1    0    0    0    0  0.00000000000E+00  0.00000000000E+00  0.99999998245E-14  0.12509000000E+03  0.12509000000E+03 0.  0.
        -11    1    3    3    0    0  0.20676289891E+02 -0.26801409358E+01 -0.52002082863E+02  0.56025964886E+02  0.51100000000E-03 0.  1.
         23    2    1    0    0    0 -0.29911759276E+01 -0.17185426277E+02 -0.23629984004E+02  0.95718889129E+02  0.91101282002E+02 0.  0.
         11    1    3    3    0    0 -0.23667465818E+02 -0.14505285341E+02  0.28372098859E+02  0.39692924243E+02  0.51100000000E-03 0. -1.
         22    1    1    0    0    0  0.29911759276E+01  0.17185426277E+02  0.23629984004E+02  0.29371110871E+02  0.00000000000E+00 0.  1.
</event>
<event>
 5    1  0.1055265E-009  0.9118800E+02  0.7815553E-02  0.1125453E+00
         25   -1    0    0    0    0  0.00000000000E+00  0.00000000000E+00  0.99999998245E-14  0.12509000000E+03  0.12509000000E+03 0.  0.
        -11    1    3    3    0    0  0.45371468122E+02  0.22461623075E+02  0.22356032669E+02  0.55343353961E+02  0.51100000000E-03 0.  1.
         23    2    1    0    0    0  0.76591764529E+01  0.13663747025E+02  0.26517922709E+02  0.94291279386E+02  0.89119493809E+02 0.  0.
         11    1    3    3    0    0 -0.37712291669E+02 -0.87978760500E+01  0.41618900400E+01  0.38947925425E+02  0.51100000000E-03 0. -1.
         22    1    1    0    0    0 -0.76591764529E+01 -0.13663747025E+02 -0.26517922709E+02  0.30798720614E+02  0.00000000000E+00 0.  1.
</event>
<event>
 5    1  0.1055265E-009  0.9118800E+02  0.7815553E-02  0.1125453E+00
         25   -1    0    0    0    0  0.00000000000E+00  0.00000000000E+00  0.99999998245E-14  0.12509000000E+03  0.12509000000E+03 0.  0.
        -11    1    3    3    0    0 -0.27625194242E+02 -0.43417301084E+02 -0.32950565471E+02  0.61106081166E+02  0.51100000000E-03 0. -1.
         23    2    1    0    0    0 -0.45142077022E+01 -0.24638615853E+02 -0.14197045596E+02  0.96297716902E+02  0.91892626008E+02 0.  0.
         11    1    3    3    0    0  0.23110986539E+02  0.18778685231E+02  0.18753519876E+02  0.35191635737E+02  0.51100000000E-03 0.  1.
         22    1    1    0    0    0  0.45142077022E+01  0.24638615853E+02  0.14197045596E+02  0.28792283098E+02  0.00000000000E+00 0. -1.
</event>
<event>
 5    1  0.1055265E-009  0.9118800E+02  0.7815553E-02  0.1125453E+00
         25   -1    0    0    0    0  0.00000000000E+00  0.00000000000E+00  0.99999998245E-14  0.12509000000E+03  0.12509000000E+03 0.  0.
        -11    1    3    3    0    0 -0.43866259190E+02  0.29690739612E+02  0.27351063335E+02  0.59614338710E+02  0.51100000000E-03 0. -1.
         23    2    1    0    0    0 -0.24581130173E+02  0.12531246366E+01  0.15699633206E+02  0.95896151936E+02  0.91344355006E+02 0.  0.
         11    1    3    3    0    0  0.19285129016E+02 -0.28437614975E+02 -0.11651430129E+02  0.36281813226E+02  0.51100000000E-03 0.  1.
         22    1    1    0    0    0  0.24581130173E+02 -0.12531246366E+01 -0.15699633206E+02  0.29193848064E+02  0.00000000000E+00 0. -1.
</event>
<event>
 5    1  0.1055265E-009  0.9118800E+02  0.7815553E-02  0.1125453E+00
         25   -1    0    0    0    0  0.00000000000E+00  0.00000000000E+00  0.99999998245E-14  0.12509000000E+03  0.12509000000E+03 0.  0.
        -11    1    3    3    0    0  0.15455188718E+02  0.12513111346E+02 -0.35388371287E+02  0.40592827402E+02  0.51100000000E-03 0. -1.
         23    2    1    0    0    0  0.14858302275E+02 -0.29496848820E+02 -0.69158502361E+01  0.91345930576E+02  0.84884726609E+02 0.  0.
         11    1    3    3    0    0 -0.59688644310E+00 -0.42009960165E+02  0.28472521051E+02  0.50753103174E+02  0.51100000000E-03 0.  1.
         22    1    1    0    0    0 -0.14858302275E+02  0.29496848820E+02  0.69158502361E+01  0.33744069424E+02  0.00000000000E+00 0. -1.
</event>
<event>
 5    1  0.1055265E-009  0.9118800E+02  0.7815553E-02  0.1125453E+00
         25   -1    0    0    0    0  0.00000000000E+00  0.00000000000E+00  0.99999998245E-14  0.12509000000E+03  0.12509000000E+03 0.  0.
        -11    1    3    3    0    0 -0.29800384749E+02 -0.17999684158E+02 -0.54661951668E+01  0.35241039298E+02  0.51100000000E-03 0. -1.
         23    2    1    0    0    0  0.28262588802E+02 -0.14766838382E+01 -0.80555349311E+01  0.95664735957E+02  0.91026894607E+02 0.  0.
         11    1    3    3    0    0  0.58062973552E+02  0.16523000319E+02 -0.25893397643E+01  0.60423696659E+02  0.51100000000E-03 0.  1.
         22    1    1    0    0    0 -0.28262588802E+02  0.14766838382E+01  0.80555349311E+01  0.29425264043E+02  0.00000000000E+00 0.  1.
</event>
<event>
 5    1  0.1055265E-009  0.9118800E+02  0.7815553E-02  0.1125453E+00
         25   -1    0    0    0    0  0.00000000000E+00  0.00000000000E+00  0.99999998245E-14  0.12509000000E+03  0.12509000000E+03 0.  0.
        -11    1    3    3    0    0  0.53338238408E+02  0.28060047172E+02  0.12203856468E+02  0.61492016041E+02  0.51100000000E-03 0.  1.
         23    2    1    0    0    0  0.24348776578E+02  0.56410173236E+01  0.98858426472E+01  0.98212241869E+02  0.94462852862E+02 0.  0.
         11    1    3    3    0    0 -0.28989461830E+02 -0.22419029849E+02 -0.23180138205E+01  0.36720225829E+02  0.51100000000E-03 0. -1.
         22    1    1    0    0    0 -0.24348776578E+02 -0.56410173236E+01 -0.98858426472E+01  0.26877758131E+02  0.00000000000E+00 0.  1.
</event>
<event>
 5    1  0.1055265E-009  0.9118800E+02  0.7815553E-02  0.1125453E+00
         25   -1    0    0    0    0  0.00000000000E+00  0.00000000000E+00  0.99999998245E-14  0.12509000000E+03  0.12509000000E+03 0.  0.
        -11    1    3    3    0    0  0.85089521927E+00 -0.36396688087E+02  0.14556604997E+02  0.39208897914E+02  0.51100000000E-03 0.  1.
         23    2    1    0    0    0 -0.27951194833E+02  0.69674534990E+01 -0.68240227301E+01  0.95486250456E+02  0.90781286833E+02 0.  0.
         11    1    3    3    0    0 -0.28802090052E+02  0.43364141586E+02 -0.21380627727E+02  0.56277352542E+02  0.51100000000E-03 0. -1.
         22    1    1    0    0    0  0.27951194833E+02 -0.69674534990E+01  0.68240227301E+01  0.29603749544E+02  0.00000000000E+00 0. -1.
</event>
<event>
 5    1  0.1055265E-009  0.9118800E+02  0.7815553E-02  0.1125453E+00
         25   -1    0    0    0    0  0.00000000000E+00  0.00000000000E+00  0.99999998245E-14  0.12509000000E+03  0.12509000000E+03 0.  0.
        -11    1    3    3    0    0 -0.30354773472E+02  0.63789973527E+01 -0.49026000200E+02  0.58014244593E+02  0.51100000000E-03 0. -1.
         23    2    1    0    0    0 -0.26726050822E+02 -0.48282387890E+01 -0.14907981818E+02  0.94108689436E+02  0.88862837132E+02 0.  0.
         11    1    3    3    0    0  0.36287226501E+01 -0.11207236142E+02  0.34118018382E+02  0.36094444844E+02  0.51100000000E-03 0.  1.
         22    1    1    0    0    0  0.26726050822E+02  0.48282387890E+01  0.14907981818E+02  0.30981310564E+02  0.00000000000E+00 0. -1.
</event>
<event>
 5    1  0.1055265E-009  0.9118800E+02  0.7815553E-02  0.1125453E+00
         25   -1    0    0    0    0  0.00000000000E+00  0.00000000000E+00  0.99999998245E-14  0.12509000000E+03  0.12509000000E+03 0.  0.
        -11    1    3    3    0    0  0.10426675674E+02  0.41817289277E+02  0.32593871040E+02  0.54034819123E+02  0.51100000000E-03 0.  1.
         23    2    1    0    0    0  0.98438973654E+01  0.23831662460E+02 -0.77131380397E+01  0.98176379854E+02  0.94415351568E+02 0.  0.
         11    1    3    3    0    0 -0.58277830824E+00 -0.17985626816E+02 -0.40307009079E+02  0.44141560730E+02  0.51100000000E-03 0. -1.
         22    1    1    0    0    0 -0.98438973654E+01 -0.23831662460E+02  0.77131380397E+01  0.26913620146E+02  0.00000000000E+00 0. -1.
</event>
<event>
 5    1  0.1055265E-009  0.9118800E+02  0.7815553E-02  0.1125453E+00
         25   -1    0    0    0    0  0.00000000000E+00  0.00000000000E+00  0.99999998245E-14  0.12509000000E+03  0.12509000000E+03 0.  0.
        -11    1    3    3    0    0  0.12849555020E+02 -0.75978281198E+01  0.30942298898E+02  0.34354969331E+02  0.51100000000E-03 0.  1.
         23    2    1    0    0    0 -0.78919347114E+01  0.16795527227E+02 -0.22050397367E+02  0.96270000132E+02  0.91854888455E+02 0.  0.
         11    1    3    3    0    0 -0.20741489732E+02  0.24393355347E+02 -0.52992696265E+02  0.61915030801E+02  0.51100000000E-03 0. -1.
         22    1    1    0    0    0  0.78919347114E+01 -0.16795527227E+02  0.22050397367E+02  0.28819999868E+02  0.00000000000E+00 0. -1.
</event>
<event>
 5    1  0.1055265E-009  0.9118800E+02  0.7815553E-02  0.1125453E+00
         25   -1    0    0    0    0  0.00000000000E+00  0.00000000000E+00  0.99999998245E-14  0.12509000000E+03  0.12509000000E+03 0.  0.
        -11    1    3    3    0    0  0.28519931686E+02  0.15347112330E+02  0.28453994167E+02  0.43110905169E+02  0.51100000000E-03 0. -1.
         23    2    1    0    0    0  0.29502222310E+01 -0.27134838328E+02  0.10521329301E+02  0.95837621763E+02  0.91264166640E+02 0.  0.
         11    1    3    3    0    0 -0.25569709455E+02 -0.42481950658E+02 -0.17932664865E+02  0.52726716593E+02  0.51100000000E-03 0.  1.
         22    1    1    0    0    0 -0.29502222310E+01  0.27134838328E+02 -0.10521329301E+02  0.29252378237E+02  0.00000000000E+00 0. -1.
</event>
<event>
 5    1  0.1055265E-009  0.9118800E+02  0.7815553E-02  0.1125453E+00
         25   -1    0    0    0    0  0.00000000000E+00  0.00000000000E+00  0.99999998245E-14  0.12509000000E+03  0.12509000000E+03 0.  0.
        -11    1    3    3    0    0  0.20078977990E+02  0.27394675089E+02 -0.59999459214E+01  0.34491055822E+02  0.51100000000E-03 0. -1.
         23    2    1    0    0    0  0.75456957247E+01 -0.25100927355E+02  0.17727319968E+02  0.93447434502E+02  0.87927078103E+02 0.  0.
         11    1    3    3    0    0 -0.12533282266E+02 -0.52495602444E+02  0.23727265889E+02  0.58956378681E+02  0.51100000000E-03 0.  1.
         22    1    1    0    0    0 -0.75456957247E+01  0.25100927355E+02 -0.17727319968E+02  0.31642565498E+02  0.00000000000E+00 0.  1.
</event>
<event>
 5    1  0.1055265E-009  0.9118800E+02  0.7815553E-02  0.1125453E+00
         25   -1    0    0    0    0  0.00000000000E+00  0.00000000000E+00  0.99999998245E-14  0.12509000000E+03  0.12509000000E+03 0.  0.
        -11    1    3    3    0    0  0.22426061205E+02  0.33841389412E+02 -0.16484707443E+01  0.40631088031E+02  0.51100000000E-03 0. -1.
         23    2    1    0    0    0 -0.75771517836E+01 -0.14533191240E+01  0.28276326125E+02  0.95780001966E+02  0.91185156642E+02 0.  0.
         11    1    3    3    0    0 -0.30003212989E+02 -0.35294708536E+02  0.29924796869E+02  0.55148913935E+02  0.51100000000E-03 0.  1.
         22    1    1    0    0    0  0.75771517836E+01  0.14533191240E+01 -0.28276326125E+02  0.29309998034E+02  0.00000000000E+00 0.  1.
</event>
<event>
 5    1  0.1055265E-009  0.9118800E+02  0.7815553E-02  0.1125453E+00
         25   -1    0    0    0    0  0.00000000000E+00  0.00000000000E+00  0.99999998245E-14  0.12509000000E+03  0.12509000000E+03 0.  0.
        -11    1    3    3    0    0  0.12134801382E+02 -0.22587832165E+02 -0.26186420071E+02  0.36649586121E+02  0.51100000000E-03 0.  1.
         23    2    1    0    0    0  0.18442732353E+02  0.20611515667E+01  0.25084883191E+02  0.93886889784E+02  0.88550064857E+02 0.  0.
         11    1    3    3    0    0  0.63079309715E+01  0.24648983732E+02  0.51271303262E+02  0.57237303663E+02  0.51100000000E-03 0. -1.
         22    1    1    0    0    0 -0.18442732353E+02 -0.20611515667E+01 -0.25084883191E+02  0.31203110216E+02  0.00000000000E+00 0. -1.
</event>
<event>
 5    1  0.1055265E-009  0.9118800E+02  0.7815553E-02  0.1125453E+00
         25   -1    0    0    0    0  0.00000000000E+00  0.00000000000E+00  0.99999998245E-14  0.12509000000E+03  0.12509000000E+03 0.  0.
        -11    1    3    3    0    0  0.40689744431E+02  0.28884073596E+02 -0.13710597720E+02  0.51748676306E+02  0.51100000000E-03 0. -1.
         23    2    1    0    0    0  0.15782679506E+02  0.32250004082E+01  0.18977657282E+02  0.10019732887E+03  0.97055961368E+02 0.  0.
         11    1    3    3    0    0 -0.24907064925E+02 -0.25659073187E+02  0.32688255002E+02  0.48448652565E+02  0.51100000000E-03 0.  1.
         22    1    1    0    0    0 -0.15782679506E+02 -0.32250004082E+01 -0.18977657282E+02  0.24892671129E+02  0.00000000000E+00 0. -1.
</event>
<event>
 5    1  0.1055265E-009  0.9118800E+02  0.7815553E-02  0.1125453E+00
         25   -1    0    0    0    0  0.00000000000E+00  0.00000000000E+00  0.99999998245E-14  0.12509000000E+03  0.12509000000E+03 0.  0.
        -11    1    3    3    0    0  0.25058468913E+02 -0.33542467031E+02 -0.38821450902E+01  0.42048721854E+02  0.51100000000E-03 0. -1.
         23    2    1    0    0    0  0.24937717223E+02  0.14408364747E+02 -0.16849837708E+02  0.91722234930E+02  0.85437466223E+02 0.  0.
         11    1    3    3    0    0 -0.12075168976E+00  0.47950831778E+02 -0.12967692618E+02  0.49673513076E+02  0.51100000000E-03 0.  1.
         22    1    1    0    0    0 -0.24937717223E+02 -0.14408364747E+02  0.16849837708E+02  0.33367765070E+02  0.00000000000E+00 0.  1.
</event>
<event>
 5    1  0.1055265E-009  0.9118800E+02  0.7815553E-02  0.1125453E+00
         25   -1    0    0    0    0  0.00000000000E+00  0.00000000000E+00  0.99999998245E-14  0.12509000000E+03  0.12509000000E+03 0.  0.
        -11    1    3    3    0    0 -0.17661754045E+02 -0.15024183794E+02 -0.38708458937E+02  0.45122150305E+02  0.51100000000E-03 0. -1.
         23    2    1    0    0    0 -0.16972346163E+02  0.23537650259E+02 -0.65427025806E+01  0.95342925000E+02  0.90583579508E+02 0.  0.
         11    1    3    3    0    0  0.68940788182E+00  0.38561834053E+02  0.32165756356E+02  0.50220774695E+02  0.51100000000E-03 0.  1.
         22    1    1    0    0    0  0.16972346163E+02 -0.23537650259E+02  0.65427025806E+01  0.29747075000E+02  0.00000000000E+00 0. -1.
</event>
<event>
 5    1  0.1055265E-009  0.9118800E+02  0.7815553E-02  0.1125453E+00
         25   -1    0    0    0    0  0.00000000000E+00  0.00000000000E+00  0.99999998245E-14  0.12509000000E+03  0.12509000000E+03 0.  0.
        -11    1    3    3    0    0  0.46039769306E+02 -0.10963614352E+02  0.10553131956E+02  0.48489481248E+02  0.51100000000E-03 0. -1.
         23    2    1    0    0    0  0.17171969785E+02  0.12989331873E+02 -0.19101624456E+02  0.96306821828E+02  0.91905019368E+02 0.  0.
         11    1    3    3    0    0 -0.28867799521E+02  0.23952946224E+02 -0.29654756412E+02  0.47817340580E+02  0.51100000000E-03 0.  1.
         22    1    1    0    0    0 -0.17171969785E+02 -0.12989331873E+02  0.19101624456E+02  0.28783178172E+02  0.00000000000E+00 0. -1.
</event>
<event>
 5    1  0.1055265E-009  0.9118800E+02  0.7815553E-02  0.1125453E+00
         25   -1    0    0    0    0  0.00000000000E+00  0.00000000000E+00  0.99999998245E-14  0.12509000000E+03  0.12509000000E+03 0.  0.
        -11    1    3    3    0    0  0.34074922494E+02 -0.10717233480E+02  0.46492695097E+01  0.36021870352E+02  0.51100000000E-03 0. -1.
         23    2    1    0    0    0 -0.14418630061E+02  0.23231886239E+02  0.11124529606E+02  0.95570979183E+02  0.90897961869E+02 0.  0.
         11    1    3    3    0    0 -0.48493552554E+02  0.33949119718E+02  0.64752600965E+01  0.59549108831E+02  0.51100000000E-03 0.  1.
         22    1    1    0    0    0  0.14418630061E+02 -0.23231886239E+02 -0.11124529606E+02  0.29519020817E+02  0.00000000000E+00 0.  1.
</event>
<event>
 5    1  0.1055265E-009  0.9118800E+02  0.7815553E-02  0.1125453E+00
         25   -1    0    0    0    0  0.00000000000E+00  0.00000000000E+00  0.99999998245E-14  0.12509000000E+03  0.12509000000E+03 0.  0.
        -11    1    3    3    0    0 -0.53998510567E+01 -0.38584553601E+02  0.43387230848E+02  0.58312759915E+02  0.51100000000E-03 0. -1.
         23    2    1    0    0    0 -0.56788123663E+00 -0.41408625760E+01  0.28732650556E+02  0.96054944636E+02  0.91561552789E+02 0.  0.
         11    1    3    3    0    0  0.48319698201E+01  0.34443691025E+02 -0.14654580292E+02  0.37742184721E+02  0.51100000000E-03 0.  1.
         22    1    1    0    0    0  0.56788123663E+00  0.41408625760E+01 -0.28732650556E+02  0.29035055364E+02  0.00000000000E+00 0. -1.
</event>
<event>
 5    1  0.1055265E-009  0.9118800E+02  0.7815553E-02  0.1125453E+00
         25   -1    0    0    0    0  0.00000000000E+00  0.00000000000E+00  0.99999998245E-14  0.12509000000E+03  0.12509000000E+03 0.  0.
        -11    1    3    3    0    0  0.21532097810E+02 -0.37939977479E+02  0.42065873790E+02  0.60602069810E+02  0.51100000000E-03 0.  1.
         23    2    1    0    0    0 -0.55021267344E+00 -0.17155266677E+02  0.22881947914E+02  0.96485988934E+02  0.92148557294E+02 0.  0.
         11    1    3    3    0    0 -0.22082310484E+02  0.20784710802E+02 -0.19183925876E+02  0.35883919124E+02  0.51100000000E-03 0. -1.
         22    1    1    0    0    0  0.55021267344E+00  0.17155266677E+02 -0.22881947914E+02  0.28604011066E+02  0.00000000000E+00 0.  1.
</event>
<event>
 5    1  0.1055265E-009  0.9118800E+02  0.7815553E-02  0.1125453E+00
         25   -1    0    0    0    0  0.00000000000E+00  0.00000000000E+00  0.99999998245E-14  0.12509000000E+03  0.12509000000E+03 0.  0.
        -11    1    3    3    0    0 -0.11901847182E+02 -0.26479068040E+02  0.36119998973E+02  0.46340579805E+02  0.51100000000E-03 0.  1.
         23    2    1    0    0    0 -0.92667274296E+01 -0.28798687729E+02 -0.10480530707E+02  0.93073157931E+02  0.87392989143E+02 0.  0.
         11    1    3    3    0    0  0.26351197527E+01 -0.23196196889E+01 -0.46600529680E+02  0.46732578126E+02  0.51100000000E-03 0. -1.
         22    1    1    0    0    0  0.92667274296E+01  0.28798687729E+02  0.10480530707E+02  0.32016842069E+02  0.00000000000E+00 0. -1.
</event>
<event>
 5    1  0.1055265E-009  0.9118800E+02  0.7815553E-02  0.1125453E+00
         25   -1    0    0    0    0  0.00000000000E+00  0.00000000000E+00  0.99999998245E-14  0.12509000000E+03  0.12509000000E+03 0.  0.
        -11    1    3    3    0    0  0.24469979591E+02 -0.54402697482E+01  0.44259811061E+02  0.50865580814E+02  0.51100000000E-03 0.  1.
         23    2    1    0    0    0  0.58169653177E+00 -0.26651098598E+02  0.13517250269E+02  0.95201281691E+02  0.90387767720E+02 0.  0.
         11    1    3    3    0    0 -0.23888283059E+02 -0.21210828850E+02 -0.30742560791E+02  0.44335700877E+02  0.51100000000E-03 0. -1.
         22    1    1    0    0    0 -0.58169653177E+00  0.26651098598E+02 -0.13517250269E+02  0.29888718309E+02  0.00000000000E+00 0.  1.
</event>
<event>
 5    1  0.1055265E-009  0.9118800E+02  0.7815553E-02  0.1125453E+00
         25   -1    0    0    0    0  0.00000000000E+00  0.00000000000E+00  0.99999998245E-14  0.12509000000E+03  0.12509000000E+03 0.  0.
        -11    1    3    3    0    0 -0.81343756292E+01 -0.15870454028E+02  0.45628815222E+02  0.48990082228E+02  0.51100000000E-03 0.  1.
         23    2    1    0    0    0 -0.28447978874E+02  0.12063337480E+01  0.71505285180E+01  0.95732329772E+02  0.91119735307E+02 0.  0.
         11    1    3    3    0    0 -0.20313603245E+02  0.17076787776E+02 -0.38478286704E+02  0.46742247544E+02  0.51100000000E-03 0. -1.
         22    1    1    0    0    0  0.28447978874E+02 -0.12063337480E+01 -0.71505285180E+01  0.29357670228E+02  0.00000000000E+00 0.  1.
</event>
<event>
 5    1  0.1055265E-009  0.9118800E+02  0.7815553E-02  0.1125453E+00
         25   -1    0    0    0    0  0.00000000000E+00  0.00000000000E+00  0.99999998245E-14  0.12509000000E+03  0.12509000000E+03 0.  0.
        -11    1    3    3    0    0  0.31322668001E+02  0.16308404198E+02 -0.41062998219E+02  0.54159425783E+02  0.51100000000E-03 0.  1.
         23    2    1    0    0    0  0.28739114963E+02 -0.55886862686E+01 -0.65909612596E+01  0.95079819838E+02  0.90219516885E+02 0.  0.
         11    1    3    3    0    0 -0.25835530381E+01 -0.21897090467E+02  0.34472036959E+02  0.40920394055E+02  0.51100000000E-03 0. -1.
         22    1    1    0    0    0 -0.28739114963E+02  0.55886862686E+01  0.65909612596E+01  0.30010180162E+02  0.00000000000E+00 0.  1.
</event>
<event>
 5    1  0.1055265E-009  0.9118800E+02  0.7815553E-02  0.1125453E+00
         25   -1    0    0    0    0  0.00000000000E+00  0.00000000000E+00  0.99999998245E-14  0.12509000000E+03  0.12509000000E+03 0.  0.
        -11    1    3    3    0    0 -0.11942226494E+02  0.49897838647E+02 -0.27408136032E+02  0.58168866211E+02  0.51100000000E-03 0.  1.
         23    2    1    0    0    0 -0.15683106543E+02  0.26215467487E+02 -0.56424004014E-01  0.94541452571E+02  0.89469953080E+02 0.  0.
         11    1    3    3    0    0 -0.37408800486E+01 -0.23682371160E+02  0.27351712028E+02  0.36372586359E+02  0.51100000000E-03 0. -1.
         22    1    1    0    0    0  0.15683106543E+02 -0.26215467487E+02  0.56424004014E-01  0.30548547429E+02  0.00000000000E+00 0.  1.
</event>
<event>
 5    1  0.1055265E-009  0.9118800E+02  0.7815553E-02  0.1125453E+00
         25   -1    0    0    0    0  0.00000000000E+00  0.00000000000E+00  0.99999998245E-14  0.12509000000E+03  0.12509000000E+03 0.  0.
        -11    1    3    3    0    0 -0.18053400426E+02 -0.30909187718E+02 -0.40073716019E+02  0.53732726231E+02  0.51100000000E-03 0.  1.
         23    2    1    0    0    0  0.87326416853E+01 -0.77069799396E+01 -0.33299757562E+02  0.89812097224E+02  0.82593476640E+02 0.  0.
         11    1    3    3    0    0  0.26786042112E+02  0.23202207779E+02  0.67739584568E+01  0.36079370993E+02  0.51100000000E-03 0. -1.
         22    1    1    0    0    0 -0.87326416853E+01  0.77069799396E+01  0.33299757562E+02  0.35277902776E+02  0.00000000000E+00 0.  1.
</event>
<event>
 5    1  0.1055265E-009  0.9118800E+02  0.7815553E-02  0.1125453E+00
         25   -1    0    0    0    0  0.00000000000E+00  0.00000000000E+00  0.99999998245E-14  0.12509000000E+03  0.12509000000E+03 0.  0.
        -11    1    3    3    0    0  0.17345239882E+01 -0.58969765915E+01 -0.47351256712E+02  0.47748554102E+02  0.51100000000E-03 0.  1.
         23    2    1    0    0    0 -0.24238013238E+02  0.11928276882E+02 -0.10810688440E+02  0.95992988820E+02  0.91476870535E+02 0.  0.
         11    1    3    3    0    0 -0.25972537226E+02  0.17825253473E+02  0.36540568272E+02  0.48244434717E+02  0.51100000000E-03 0. -1.
         22    1    1    0    0    0  0.24238013238E+02 -0.11928276882E+02  0.10810688440E+02  0.29097011180E+02  0.00000000000E+00 0.  1.
</event>
<event>
 5    1  0.1055265E-009  0.9118800E+02  0.7815553E-02  0.1125453E+00
         25   -1    0    0    0    0  0.00000000000E+00  0.00000000000E+00  0.99999998245E-14  0.12509000000E+03  0.12509000000E+03 0.  0.
        -11    1    3    3    0    0  0.60856901207E+02 -0.43134889347E+01 -0.15764869939E+01  0.61029942838E+02  0.51100000000E-03 0.  1.
         23    2    1    0    0    0  0.26769324181E+02 -0.21083049302E+01 -0.10374072739E+02  0.96303491841E+02  0.91900486880E+02 0.  0.
         11    1    3    3    0    0 -0.34087577027E+02  0.22051840045E+01 -0.87975857453E+01  0.35273549003E+02  0.51100000000E-03 0. -1.
         22    1    1    0    0    0 -0.26769324181E+02  0.21083049302E+01  0.10374072739E+02  0.28786508159E+02  0.00000000000E+00 0.  1.
</event>
<event>
 5    1  0.1055265E-009  0.9118800E+02  0.7815553E-02  0.1125453E+00
         25   -1    0    0    0    0  0.00000000000E+00  0.00000000000E+00  0.99999998245E-14  0.12509000000E+03  0.12509000000E+03 0.  0.
        -11    1    3    3    0    0  0.49748146402E+02 -0.93168317934E+01  0.31366718654E+02  0.59544541853E+02  0.51100000000E-03 0. -1.
         23    2    1    0    0    0  0.25181806166E+02 -0.10492419950E+02  0.21642613543E+01  0.97723994347E+02  0.93814075733E+02 0.  0.
         11    1    3    3    0    0 -0.24566340236E+02 -0.11755881570E+01 -0.29202457300E+02  0.38179452494E+02  0.51100000000E-03 0.  1.
         22    1    1    0    0    0 -0.25181806166E+02  0.10492419950E+02 -0.21642613543E+01  0.27366005653E+02  0.00000000000E+00 0. -1.
</event>
<event>
 5    1  0.1055265E-009  0.9118800E+02  0.7815553E-02  0.1125453E+00
         25   -1    0    0    0    0  0.00000000000E+00  0.00000000000E+00  0.99999998245E-14  0.12509000000E+03  0.12509000000E+03 0.  0.
        -11    1    3    3    0    0 -0.21956135930E+02 -0.29389499286E+02  0.18861610550E+02  0.41250150618E+02  0.51100000000E-03 0.  1.
         23    2    1    0    0    0 -0.21085839041E+02  0.20847965277E+02 -0.13479923415E+01  0.95407221363E+02  0.90672325109E+02 0.  0.
         11    1    3    3    0    0  0.87029688927E+00  0.50237464563E+02 -0.20209602891E+02  0.54157070745E+02  0.51100000000E-03 0. -1.
         22    1    1    0    0    0  0.21085839041E+02 -0.20847965277E+02  0.13479923415E+01  0.29682778637E+02  0.00000000000E+00 0.  1.
</event>
<event>
 5    1  0.1055265E-009  0.9118800E+02  0.7815553E-02  0.1125453E+00
         25   -1    0    0    0    0  0.00000000000E+00  0.00000000000E+00  0.99999998245E-14  0.12509000000E+03  0.12509000000E+03 0.  0.
        -11    1    3    3    0    0 -0.26010543482E+02 -0.45771598369E+02 -0.15111674625E+02  0.54771802049E+02  0.51100000000E-03 0. -1.
         23    2    1    0    0    0 -0.11541865852E+02 -0.11422329256E+02 -0.26731184252E+02  0.93813163771E+02  0.88445854693E+02 0.  0.
         11    1    3    3    0    0  0.14468677630E+02  0.34349269113E+02 -0.11619509626E+02  0.39041361722E+02  0.51100000000E-03 0.  1.
         22    1    1    0    0    0  0.11541865852E+02  0.11422329256E+02  0.26731184252E+02  0.31276836229E+02  0.00000000000E+00 0.  1.
</event>
<event>
 5    1  0.1055265E-009  0.9118800E+02  0.7815553E-02  0.1125453E+00
         25   -1    0    0    0    0  0.00000000000E+00  0.00000000000E+00  0.99999998245E-14  0.12509000000E+03  0.12509000000E+03 0.  0.
        -11    1    3    3    0    0  0.76298269925E+00 -0.54483736732E+02 -0.25189963576E+02  0.60029942330E+02  0.51100000000E-03 0.  1.
         23    2    1    0    0    0  0.80799820047E+01 -0.29086246880E+02 -0.26147170408E+01  0.94789296841E+02  0.89815801414E+02 0.  0.
         11    1    3    3    0    0  0.73169993055E+01  0.25397489852E+02  0.22575246535E+02  0.34759354511E+02  0.51100000000E-03 0. -1.
         22    1    1    0    0    0 -0.80799820047E+01  0.29086246880E+02  0.26147170408E+01  0.30300703159E+02  0.00000000000E+00 0.  1.
</event>
<event>
 5    1  0.1055265E-009  0.9118800E+02  0.7815553E-02  0.1125453E+00
         25   -1    0    0    0    0  0.00000000000E+00  0.00000000000E+00  0.99999998245E-14  0.12509000000E+03  0.12509000000E+03 0.  0.
        -11    1    3    3    0    0 -0.29032678548E+01 -0.55982598476E+02  0.24113894565E+02  0.61024259173E+02  0.51100000000E-03 0. -1.
         23    2    1    0    0    0  0.51062815883E+01 -0.28307383194E+02  0.42635665102E+01  0.96011484661E+02  0.91502159168E+02 0.  0.
         11    1    3    3    0    0  0.80095494430E+01  0.27675215282E+02 -0.19850328055E+02  0.34987225488E+02  0.51100000000E-03 0.  1.
         22    1    1    0    0    0 -0.51062815883E+01  0.28307383194E+02 -0.42635665102E+01  0.29078515339E+02  0.00000000000E+00 0. -1.
</event>
<event>
 5    1  0.1055265E-009  0.9118800E+02  0.7815553E-02  0.1125453E+00
         25   -1    0    0    0    0  0.00000000000E+00  0.00000000000E+00  0.99999998245E-14  0.12509000000E+03  0.12509000000E+03 0.  0.
        -11    1    3    3    0    0  0.84008797579E+01  0.38584959998E+02  0.34446340765E+02  0.52401567830E+02  0.51100000000E-03 0.  1.
         23    2    1    0    0    0  0.71637074449E+01 -0.51014757378E+01  0.26946904128E+02  0.96744287782E+02  0.92498528731E+02 0.  0.
         11    1    3    3    0    0 -0.12371723131E+01 -0.43686435735E+02 -0.74994366374E+01  0.44342719952E+02  0.51100000000E-03 0. -1.
         22    1    1    0    0    0 -0.71637074449E+01  0.51014757378E+01 -0.26946904128E+02  0.28345712218E+02  0.00000000000E+00 0. -1.
</event>
<event>
 5    1  0.1055265E-009  0.9118800E+02  0.7815553E-02  0.1125453E+00
         25   -1    0    0    0    0  0.00000000000E+00  0.00000000000E+00  0.99999998245E-14  0.12509000000E+03  0.12509000000E+03 0.  0.
        -11    1    3    3    0    0 -0.37529484179E+02 -0.11569722996E+02  0.67306131555E+01  0.39844972413E+02  0.51100000000E-03 0.  1.
         23    2    1    0    0    0 -0.32091383505E+01  0.29679316597E+02 -0.51305630888E+01  0.94800016834E+02  0.89830730329E+02 0.  0.
         11    1    3    3    0    0  0.34320345828E+02  0.41249039593E+02 -0.11861176244E+02  0.54955044420E+02  0.51100000000E-03 0. -1.
         22    1    1    0    0    0  0.32091383505E+01 -0.29679316597E+02  0.51305630888E+01  0.30289983166E+02  0.00000000000E+00 0. -1.
</event>
<event>
 5    1  0.1055265E-009  0.9118800E+02  0.7815553E-02  0.1125453E+00
         25   -1    0    0    0    0  0.00000000000E+00  0.00000000000E+00  0.99999998245E-14  0.12509000000E+03  0.12509000000E+03 0.  0.
        -11    1    3    3    0    0 -0.42834812619E+02  0.16915216862E+02  0.21469391859E+02  0.50812208381E+02  0.51100000000E-03 0. -1.
         23    2    1    0    0    0 -0.11724808517E+01  0.20818745176E+01  0.29273039054E+02  0.95719611369E+02  0.91102273695E+02 0.  0.
         11    1    3    3    0    0  0.41662331767E+02 -0.14833342344E+02  0.78036471953E+01  0.44907402988E+02  0.51100000000E-03 0.  1.
         22    1    1    0    0    0  0.11724808517E+01 -0.20818745176E+01 -0.29273039054E+02  0.29370388631E+02  0.00000000000E+00 0. -1.
</event>
<event>
 5    1  0.1055265E-009  0.9118800E+02  0.7815553E-02  0.1125453E+00
         25   -1    0    0    0    0  0.00000000000E+00  0.00000000000E+00  0.99999998245E-14  0.12509000000E+03  0.12509000000E+03 0.  0.
        -11    1    3    3    0    0  0.90450706333E+01  0.55897089939E+02 -0.58313773142E+01  0.56923658773E+02  0.51100000000E-03 0.  1.
         23    2    1    0    0    0 -0.74479384564E+01  0.26060282863E+02  0.12059159587E+02  0.95424642087E+02  0.90696355260E+02 0.  0.
         11    1    3    3    0    0 -0.16493009090E+02 -0.29836807076E+02  0.17890536901E+02  0.38500983315E+02  0.51100000000E-03 0. -1.
         22    1    1    0    0    0  0.74479384564E+01 -0.26060282863E+02 -0.12059159587E+02  0.29665357913E+02  0.00000000000E+00 0.  1.
</event>
<event>
 5    1  0.1055265E-009  0.9118800E+02  0.7815553E-02  0.1125453E+00
         25   -1    0    0    0    0  0.00000000000E+00  0.00000000000E+00  0.99999998245E-14  0.12509000000E+03  0.12509000000E+03 0.  0.
        -11    1    3    3    0    0 -0.60407627858E+01  0.45169592095E+02  0.67483659612E+01  0.46068680342E+02  0.51100000000E-03 0.  1.
         23    2    1    0    0    0  0.21301290904E+02  0.62466851643E+01  0.19747197251E+02  0.95379431695E+02  0.90633978846E+02 0.  0.
         11    1    3    3    0    0  0.27342053690E+02 -0.38922906930E+02  0.12998831290E+02  0.49310751353E+02  0.51100000000E-03 0. -1.
         22    1    1    0    0    0 -0.21301290904E+02 -0.62466851643E+01 -0.19747197251E+02  0.29710568305E+02  0.00000000000E+00 0. -1.
</event>
<event>
 5    1  0.1055265E-009  0.9118800E+02  0.7815553E-02  0.1125453E+00
         25   -1    0    0    0    0  0.00000000000E+00  0.00000000000E+00  0.99999998245E-14  0.12509000000E+03  0.12509000000E+03 0.  0.
        -11    1    3    3    0    0  0.55616311597E+01 -0.75131804412E+01  0.50373947009E+02  0.51233916101E+02  0.51100000000E-03 0. -1.
         23    2    1    0    0    0  0.14830381928E+02 -0.20811317784E+02  0.54942530883E+01  0.98951178431E+02  0.95436354288E+02 0.  0.
         11    1    3    3    0    0  0.92687507684E+01 -0.13298137343E+02 -0.44879693921E+02  0.47717262330E+02  0.51100000000E-03 0.  1.
         22    1    1    0    0    0 -0.14830381928E+02  0.20811317784E+02 -0.54942530883E+01  0.26138821569E+02  0.00000000000E+00 0. -1.
</event>
<event>
 5    1  0.1055265E-009  0.9118800E+02  0.7815553E-02  0.1125453E+00
         25   -1    0    0    0    0  0.00000000000E+00  0.00000000000E+00  0.99999998245E-14  0.12509000000E+03  0.12509000000E+03 0.  0.
        -11    1    3    3    0    0 -0.24571647199E+02  0.42978560063E+01 -0.28539758165E+02  0.37904553931E+02  0.51100000000E-03 0.  1.
         23    2    1    0    0    0 -0.27725189204E+01  0.83922599649E+00  0.27138123185E+02  0.97797713701E+02  0.93912320350E+02 0.  0.
         11    1    3    3    0    0  0.21799128278E+02 -0.34586300098E+01  0.55677881350E+02  0.59893159770E+02  0.51100000000E-03 0. -1.
         22    1    1    0    0    0  0.27725189204E+01 -0.83922599649E+00 -0.27138123185E+02  0.27292286299E+02  0.00000000000E+00 0. -1.
</event>
<event>
 5    1  0.1055265E-009  0.9118800E+02  0.7815553E-02  0.1125453E+00
         25   -1    0    0    0    0  0.00000000000E+00  0.00000000000E+00  0.99999998245E-14  0.12509000000E+03  0.12509000000E+03 0.  0.
        -11    1    3    3    0    0 -0.54652767312E+01  0.59213527858E+02  0.42165461742E+01  0.59614514953E+02  0.51100000000E-03 0.  1.
         23    2    1    0    0    0 -0.65253349083E+01  0.24594581017E+02  0.14575501242E+02  0.95765630484E+02  0.91165439364E+02 0.  0.
         11    1    3    3    0    0 -0.10600581771E+01 -0.34618946842E+02  0.10358955068E+02  0.36151115531E+02  0.51100000000E-03 0. -1.
         22    1    1    0    0    0  0.65253349083E+01 -0.24594581017E+02 -0.14575501242E+02  0.29324369516E+02  0.00000000000E+00 0.  1.
</event>
<event>
 5    1  0.1055265E-009  0.9118800E+02  0.7815553E-02  0.1125453E+00
         25   -1    0    0    0    0  0.00000000000E+00  0.00000000000E+00  0.99999998245E-14  0.12509000000E+03  0.12509000000E+03 0.  0.
        -11    1    3    3    0    0 -0.38511834366E+02  0.28950604266E+02  0.46556223355E+01  0.48404273501E+02  0.51100000000E-03 0.  1.
         23    2    1    0    0    0 -0.23504741225E+02 -0.16423081650E+02  0.34372890237E+01  0.96210847887E+02  0.91774298277E+02 0.  0.
         11    1    3    3    0    0  0.15007093140E+02 -0.45373685916E+02 -0.12183333118E+01  0.47806574385E+02  0.51100000000E-03 0. -1.
         22    1    1    0    0    0  0.23504741225E+02  0.16423081650E+02 -0.34372890237E+01  0.28879152113E+02  0.00000000000E+00 0.  1.
</event>
<event>
 5    1  0.1055265E-009  0.9118800E+02  0.7815553E-02  0.1125453E+00
         25   -1    0    0    0    0  0.00000000000E+00  0.00000000000E+00  0.99999998245E-14  0.12509000000E+03  0.12509000000E+03 0.  0.
        -11    1    3    3    0    0  0.23352561178E+02 -0.17639575054E+02 -0.31198109698E+02  0.42776380991E+02  0.51100000000E-03 0.  1.
         23    2    1    0    0    0  0.20003918979E+02  0.20217926869E+02  0.60729242670E+01  0.96007329033E+02  0.91496477952E+02 0.  0.
         11    1    3    3    0    0 -0.33486421988E+01  0.37857501923E+02  0.37271033965E+02  0.53230948043E+02  0.51100000000E-03 0. -1.
         22    1    1    0    0    0 -0.20003918979E+02 -0.20217926869E+02 -0.60729242670E+01  0.29082670967E+02  0.00000000000E+00 0. -1.
</event>
<event>
 5    1  0.1055265E-009  0.9118800E+02  0.7815553E-02  0.1125453E+00
         25   -1    0    0    0    0  0.00000000000E+00  0.00000000000E+00  0.99999998245E-14  0.12509000000E+03  0.12509000000E+03 0.  0.
        -11    1    3    3    0    0 -0.35350346644E+02  0.91682308279E+01 -0.46002934210E+02  0.58736474362E+02  0.51100000000E-03 0. -1.
         23    2    1    0    0    0 -0.13803373256E+02  0.45586651415E+01 -0.41353140539E+02  0.81256259873E+02  0.68419171253E+02 0.  0.
         11    1    3    3    0    0  0.21546973388E+02 -0.46095656865E+01  0.46497936706E+01  0.22519785511E+02  0.51100000000E-03 0.  1.
         22    1    1    0    0    0  0.13803373256E+02 -0.45586651415E+01  0.41353140539E+02  0.43833740127E+02  0.00000000000E+00 0. -1.
</event>
<event>
 5    1  0.1055265E-009  0.9118800E+02  0.7815553E-02  0.1125453E+00
         25   -1    0    0    0    0  0.00000000000E+00  0.00000000000E+00  0.99999998245E-14  0.12509000000E+03  0.12509000000E+03 0.  0.
        -11    1    3    3    0    0 -0.76898797107E+01  0.21723947896E+02 -0.24527007519E+02  0.33654691504E+02  0.51100000000E-03 0. -1.
         23    2    1    0    0    0  0.18194686925E+02 -0.53984829016E+01  0.23691704179E+02  0.94733994057E+02  0.89738745997E+02 0.  0.
         11    1    3    3    0    0  0.25884566635E+02 -0.27122430798E+02  0.48218711698E+02  0.61079302553E+02  0.51100000000E-03 0.  1.
         22    1    1    0    0    0 -0.18194686925E+02  0.53984829016E+01 -0.23691704179E+02  0.30356005943E+02  0.00000000000E+00 0.  1.
</event>
<event>
 5    1  0.1055265E-009  0.9118800E+02  0.7815553E-02  0.1125453E+00
         25   -1    0    0    0    0  0.00000000000E+00  0.00000000000E+00  0.99999998245E-14  0.12509000000E+03  0.12509000000E+03 0.  0.
        -11    1    3    3    0    0  0.38019134501E+02  0.20769878083E+02 -0.16605624599E+02  0.46396004056E+02  0.51100000000E-03 0. -1.
         23    2    1    0    0    0 -0.10891594644E+02  0.22918774524E+02 -0.15477901576E+02  0.95366902975E+02  0.90616685474E+02 0.  0.
         11    1    3    3    0    0 -0.48910729145E+02  0.21488964411E+01  0.11277230231E+01  0.48970898919E+02  0.51100000000E-03 0.  1.
         22    1    1    0    0    0  0.10891594644E+02 -0.22918774524E+02  0.15477901576E+02  0.29723097025E+02  0.00000000000E+00 0. -1.
</event>
<event>
 5    1  0.1055265E-009  0.9118800E+02  0.7815553E-02  0.1125453E+00
         25   -1    0    0    0    0  0.00000000000E+00  0.00000000000E+00  0.99999998245E-14  0.12509000000E+03  0.12509000000E+03 0.  0.
        -11    1    3    3    0    0  0.90260681680E+01 -0.32753761579E+02 -0.43548112069E+02  0.55233294933E+02  0.51100000000E-03 0.  1.
         23    2    1    0    0    0 -0.17279086963E+02 -0.14992207350E+02 -0.17772751003E+02  0.96120985421E+02  0.91651732295E+02 0.  0.
         11    1    3    3    0    0 -0.26305155131E+02  0.17761554229E+02  0.25775361066E+02  0.40887690488E+02  0.51100000000E-03 0. -1.
         22    1    1    0    0    0  0.17279086963E+02  0.14992207350E+02  0.17772751003E+02  0.28969014579E+02  0.00000000000E+00 0.  1.
</event>
<event>
 5    1  0.1055265E-009  0.9118800E+02  0.7815553E-02  0.1125453E+00
         25   -1    0    0    0    0  0.00000000000E+00  0.00000000000E+00  0.99999998245E-14  0.12509000000E+03  0.12509000000E+03 0.  0.
        -11    1    3    3    0    0  0.38320810382E+02 -0.39673033752E+01 -0.48234990340E+02  0.61731987638E+02  0.51100000000E-03 0.  1.
         23    2    1    0    0    0  0.21243375618E+02  0.39260411912E+01 -0.20068422067E+02  0.95603793541E+02  0.90943108415E+02 0.  0.
         11    1    3    3    0    0 -0.17077434764E+02  0.78933445664E+01  0.28166568273E+02  0.33871805903E+02  0.51100000000E-03 0. -1.
         22    1    1    0    0    0 -0.21243375618E+02 -0.39260411912E+01  0.20068422067E+02  0.29486206459E+02  0.00000000000E+00 0.  1.
</event>
<event>
 5    1  0.1055265E-009  0.9118800E+02  0.7815553E-02  0.1125453E+00
         25   -1    0    0    0    0  0.00000000000E+00  0.00000000000E+00  0.99999998245E-14  0.12509000000E+03  0.12509000000E+03 0.  0.
        -11    1    3    3    0    0 -0.16542339420E+02  0.11694614206E+02 -0.26957176080E+02  0.33720948050E+02  0.51100000000E-03 0. -1.
         23    2    1    0    0    0  0.22355150562E+02  0.43697825212E+01  0.19748687149E+02  0.94942721516E+02  0.90029228414E+02 0.  0.
         11    1    3    3    0    0  0.38897489982E+02 -0.73248316849E+01  0.46705863228E+02  0.61221773466E+02  0.51100000000E-03 0.  1.
         22    1    1    0    0    0 -0.22355150562E+02 -0.43697825212E+01 -0.19748687149E+02  0.30147278484E+02  0.00000000000E+00 0.  1.
</event>
<event>
 5    1  0.1055265E-009  0.9118800E+02  0.7815553E-02  0.1125453E+00
         25   -1    0    0    0    0  0.00000000000E+00  0.00000000000E+00  0.99999998245E-14  0.12509000000E+03  0.12509000000E+03 0.  0.
        -11    1    3    3    0    0  0.47117261097E+02  0.34956732958E+02  0.46935464607E+01  0.58856085930E+02  0.51100000000E-03 0.  1.
         23    2    1    0    0    0  0.10711968752E+02  0.26397344401E+02 -0.39906583226E+00  0.96599206408E+02  0.92302120015E+02 0.  0.
         11    1    3    3    0    0 -0.36405292345E+02 -0.85593885571E+01 -0.50926122930E+01  0.37743120478E+02  0.51100000000E-03 0. -1.
         22    1    1    0    0    0 -0.10711968752E+02 -0.26397344401E+02  0.39906583226E+00  0.28490793592E+02  0.00000000000E+00 0.  1.
</event>
<event>
 5    1  0.1055265E-009  0.9118800E+02  0.7815553E-02  0.1125453E+00
         25   -1    0    0    0    0  0.00000000000E+00  0.00000000000E+00  0.99999998245E-14  0.12509000000E+03  0.12509000000E+03 0.  0.
        -11    1    3    3    0    0  0.33654412845E+02  0.12966007441E+02 -0.32332066530E+02  0.48436550035E+02  0.51100000000E-03 0.  1.
         23    2    1    0    0    0  0.16218458967E+02  0.21291605141E+02  0.11209288396E+02  0.96072436231E+02  0.91585446422E+02 0.  0.
         11    1    3    3    0    0 -0.17435953877E+02  0.83255976995E+01  0.43541354926E+02  0.47635886196E+02  0.51100000000E-03 0. -1.
         22    1    1    0    0    0 -0.16218458967E+02 -0.21291605141E+02 -0.11209288396E+02  0.29017563769E+02  0.00000000000E+00 0.  1.
</event>
<event>
 5    1  0.1055265E-009  0.9118800E+02  0.7815553E-02  0.1125453E+00
         25   -1    0    0    0    0  0.00000000000E+00  0.00000000000E+00  0.99999998245E-14  0.12509000000E+03  0.12509000000E+03 0.  0.
        -11    1    3    3    0    0 -0.88279114907E+01  0.53621510462E+00 -0.32813830559E+02  0.33984805784E+02  0.51100000000E-03 0.  1.
         23    2    1    0    0    0 -0.16202524066E+02  0.34930996149E+02  0.57219853126E+01  0.86161380785E+02  0.76865767054E+02 0.  0.
         11    1    3    3    0    0 -0.73746125757E+01  0.34394781044E+02  0.38535815872E+02  0.52176575001E+02  0.51100000000E-03 0. -1.
         22    1    1    0    0    0  0.16202524066E+02 -0.34930996149E+02 -0.57219853126E+01  0.38928619215E+02  0.00000000000E+00 0. -1.
</event>
<event>
 5    1  0.1055265E-009  0.9118800E+02  0.7815553E-02  0.1125453E+00
         25   -1    0    0    0    0  0.00000000000E+00  0.00000000000E+00  0.99999998245E-14  0.12509000000E+03  0.12509000000E+03 0.  0.
        -11    1    3    3    0    0 -0.73939687529E+01  0.41410727764E+02 -0.40220033040E+01  0.42257492338E+02  0.51100000000E-03 0.  1.
         23    2    1    0    0    0 -0.19342733713E+02 -0.83814391835E+01 -0.20134929188E+02  0.95938580760E+02  0.91402439981E+02 0.  0.
         11    1    3    3    0    0 -0.11948764960E+02 -0.49792166947E+02 -0.16112925884E+02  0.53681088422E+02  0.51100000000E-03 0. -1.
         22    1    1    0    0    0  0.19342733713E+02  0.83814391835E+01  0.20134929188E+02  0.29151419240E+02  0.00000000000E+00 0.  1.
</event>
<event>
 5    1  0.1055265E-009  0.9118800E+02  0.7815553E-02  0.1125453E+00
         25   -1    0    0    0    0  0.00000000000E+00  0.00000000000E+00  0.99999998245E-14  0.12509000000E+03  0.12509000000E+03 0.  0.
        -11    1    3    3    0    0  0.42088591811E+02  0.38486291730E+02 -0.19906363050E+02  0.60406187612E+02  0.51100000000E-03 0. -1.
         23    2    1    0    0    0  0.17809126319E+02  0.21253105957E+02  0.18776706305E+01  0.97298182138E+02  0.93244576825E+02 0.  0.
         11    1    3    3    0    0 -0.24279465491E+02 -0.17233185773E+02  0.21784033680E+02  0.36891994525E+02  0.51100000000E-03 0.  1.
         22    1    1    0    0    0 -0.17809126319E+02 -0.21253105957E+02 -0.18776706305E+01  0.27791817862E+02  0.00000000000E+00 0. -1.
</event>
<event>
 5    1  0.1055265E-009  0.9118800E+02  0.7815553E-02  0.1125453E+00
         25   -1    0    0    0    0  0.00000000000E+00  0.00000000000E+00  0.99999998245E-14  0.12509000000E+03  0.12509000000E+03 0.  0.
        -11    1    3    3    0    0  0.56360571889E+01 -0.14445507644E+02  0.46056466821E+02  0.48596666223E+02  0.51100000000E-03 0.  1.
         23    2    1    0    0    0 -0.23883011698E+02 -0.16392552809E+02  0.11926104018E+02  0.93763557616E+02  0.88375668283E+02 0.  0.
         11    1    3    3    0    0 -0.29519068887E+02 -0.19470451649E+01 -0.34130362803E+02  0.45166891393E+02  0.51100000000E-03 0. -1.
         22    1    1    0    0    0  0.23883011698E+02  0.16392552809E+02 -0.11926104018E+02  0.31326442384E+02  0.00000000000E+00 0.  1.
</event>
<event>
 5    1  0.1055265E-009  0.9118800E+02  0.7815553E-02  0.1125453E+00
         25   -1    0    0    0    0  0.00000000000E+00  0.00000000000E+00  0.99999998245E-14  0.12509000000E+03  0.12509000000E+03 0.  0.
        -11    1    3    3    0    0  0.34085783637E+02  0.16762793356E+02 -0.28160601013E+00  0.37985670843E+02  0.51100000000E-03 0.  1.
         23    2    1    0    0    0 -0.19690832460E+02  0.11241993638E+02 -0.19321811462E+02  0.95300006678E+02  0.90524292711E+02 0.  0.
         11    1    3    3    0    0 -0.53776616096E+02 -0.55207997176E+01 -0.19040205452E+02  0.57314335835E+02  0.51100000000E-03 0. -1.
         22    1    1    0    0    0  0.19690832460E+02 -0.11241993638E+02  0.19321811462E+02  0.29789993322E+02  0.00000000000E+00 0. -1.
</event>
<event>
 5    1  0.1055265E-009  0.9118800E+02  0.7815553E-02  0.1125453E+00
         25   -1    0    0    0    0  0.00000000000E+00  0.00000000000E+00  0.99999998245E-14  0.12509000000E+03  0.12509000000E+03 0.  0.
        -11    1    3    3    0    0  0.19808229672E+01 -0.41721532513E+02  0.18614176782E+01  0.41809984584E+02  0.51100000000E-03 0.  1.
         23    2    1    0    0    0 -0.11576133860E+02  0.74878958435E+01 -0.22759421810E+02  0.98480476509E+02  0.94817390351E+02 0.  0.
         11    1    3    3    0    0 -0.13556956827E+02  0.49209428357E+02 -0.24620839488E+02  0.56670491925E+02  0.51100000000E-03 0. -1.
         22    1    1    0    0    0  0.11576133860E+02 -0.74878958435E+01  0.22759421810E+02  0.26609523491E+02  0.00000000000E+00 0. -1.
</event>
<event>
 5    1  0.1055265E-009  0.9118800E+02  0.7815553E-02  0.1125453E+00
         25   -1    0    0    0    0  0.00000000000E+00  0.00000000000E+00  0.99999998245E-14  0.12509000000E+03  0.12509000000E+03 0.  0.
        -11    1    3    3    0    0 -0.37677389890E+02 -0.55249470127E+01 -0.20449495439E+02  0.43223750559E+02  0.51100000000E-03 0. -1.
         23    2    1    0    0    0 -0.77880678018E+01 -0.18770911070E+02  0.20901483478E+02  0.95937416683E+02  0.91400846855E+02 0.  0.
         11    1    3    3    0    0  0.29889322088E+02 -0.13245964057E+02  0.41350978916E+02  0.52713666125E+02  0.51100000000E-03 0.  1.
         22    1    1    0    0    0  0.77880678018E+01  0.18770911070E+02 -0.20901483478E+02  0.29152583317E+02  0.00000000000E+00 0.  1.
</event>
<event>
 5    1  0.1055265E-009  0.9118800E+02  0.7815553E-02  0.1125453E+00
         25   -1    0    0    0    0  0.00000000000E+00  0.00000000000E+00  0.99999998245E-14  0.12509000000E+03  0.12509000000E+03 0.  0.
        -11    1    3    3    0    0  0.35938970047E+02  0.27452012770E+02  0.40103634088E+02  0.60444387998E+02  0.51100000000E-03 0. -1.
         23    2    1    0    0    0  0.14395889680E+02  0.55769162156E+01  0.27336455407E+02  0.93695328026E+02  0.88279040918E+02 0.  0.
         11    1    3    3    0    0 -0.21543080367E+02 -0.21875096554E+02 -0.12767178681E+02  0.33250940027E+02  0.51100000000E-03 0.  1.
         22    1    1    0    0    0 -0.14395889680E+02 -0.55769162156E+01 -0.27336455407E+02  0.31394671974E+02  0.00000000000E+00 0. -1.
</event>
<event>
 5    1  0.1055265E-009  0.9118800E+02  0.7815553E-02  0.1125453E+00
         25   -1    0    0    0    0  0.00000000000E+00  0.00000000000E+00  0.99999998245E-14  0.12509000000E+03  0.12509000000E+03 0.  0.
        -11    1    3    3    0    0 -0.75802515489E+01 -0.27075631979E+02  0.17338701838E+02  0.33033023512E+02  0.51100000000E-03 0.  1.
         23    2    1    0    0    0 -0.70040039948E+01  0.28793955911E+02 -0.80189745939E+01  0.94390620161E+02  0.89258821703E+02 0.  0.
         11    1    3    3    0    0  0.57624755406E+00  0.55869587890E+02 -0.25357676432E+02  0.61357596649E+02  0.51100000000E-03 0. -1.
         22    1    1    0    0    0  0.70040039948E+01 -0.28793955911E+02  0.80189745939E+01  0.30699379839E+02  0.00000000000E+00 0. -1.
</event>
<event>
 5    1  0.1055265E-009  0.9118800E+02  0.7815553E-02  0.1125453E+00
         25   -1    0    0    0    0  0.00000000000E+00  0.00000000000E+00  0.99999998245E-14  0.12509000000E+03  0.12509000000E+03 0.  0.
        -11    1    3    3    0    0  0.41774561094E+02 -0.22686014338E+02 -0.35917062998E+02  0.59580236789E+02  0.51100000000E-03 0.  1.
         23    2    1    0    0    0  0.26130177914E+02 -0.11563597656E+02 -0.48385243318E+01  0.96108724902E+02  0.91634997114E+02 0.  0.
         11    1    3    3    0    0 -0.15644383180E+02  0.11122416682E+02  0.31078538667E+02  0.36528488113E+02  0.51100000000E-03 0. -1.
         22    1    1    0    0    0 -0.26130177914E+02  0.11563597656E+02  0.48385243318E+01  0.28981275098E+02  0.00000000000E+00 0.  1.
</event>
<event>
 5    1  0.1055265E-009  0.9118800E+02  0.7815553E-02  0.1125453E+00
         25   -1    0    0    0    0  0.00000000000E+00  0.00000000000E+00  0.99999998245E-14  0.12509000000E+03  0.12509000000E+03 0.  0.
        -11    1    3    3    0    0  0.55112070834E+01 -0.42337463409E+02  0.17787281619E+02  0.46251719958E+02  0.51100000000E-03 0.  1.
         23    2    1    0    0    0 -0.25218106632E+02 -0.34426364608E+01  0.14186219590E+02  0.95951477832E+02  0.91420088733E+02 0.  0.
         11    1    3    3    0    0 -0.30729313715E+02  0.38894826948E+02 -0.36010620288E+01  0.49699757874E+02  0.51100000000E-03 0. -1.
         22    1    1    0    0    0  0.25218106632E+02  0.34426364608E+01 -0.14186219590E+02  0.29138522168E+02  0.00000000000E+00 0.  1.
</event>
<event>
 5    1  0.1055265E-009  0.9118800E+02  0.7815553E-02  0.1125453E+00
         25   -1    0    0    0    0  0.00000000000E+00  0.00000000000E+00  0.99999998245E-14  0.12509000000E+03  0.12509000000E+03 0.  0.
        -11    1    3    3    0    0  0.45274579381E+02 -0.38807776895E+01  0.70515987125E+01  0.45984486713E+02  0.51100000000E-03 0. -1.
         23    2    1    0    0    0  0.24529408112E+01  0.19468574277E+02  0.20635196220E+02  0.96614508327E+02  0.92322855205E+02 0.  0.
         11    1    3    3    0    0 -0.42821638570E+02  0.23349351966E+02  0.13583597508E+02  0.50630021613E+02  0.51100000000E-03 0.  1.
         22    1    1    0    0    0 -0.24529408112E+01 -0.19468574277E+02 -0.20635196220E+02  0.28475491673E+02  0.00000000000E+00 0. -1.
</event>
<event>
 5    1  0.1055265E-009  0.9118800E+02  0.7815553E-02  0.1125453E+00
         25   -1    0    0    0    0  0.00000000000E+00  0.00000000000E+00  0.99999998245E-14  0.12509000000E+03  0.12509000000E+03 0.  0.
        -11    1    3    3    0    0  0.14660332547E+02  0.16026248825E+02  0.24612415383E+02  0.32825858603E+02  0.51100000000E-03 0.  1.
         23    2    1    0    0    0 -0.54311956395E+01 -0.14405483188E+02 -0.25800701897E+02  0.95045165995E+02  0.90171456286E+02 0.  0.
         11    1    3    3    0    0 -0.20091528187E+02 -0.30431732013E+02 -0.50413117280E+02  0.62219307392E+02  0.51100000000E-03 0. -1.
         22    1    1    0    0    0  0.54311956395E+01  0.14405483188E+02  0.25800701897E+02  0.30044834005E+02  0.00000000000E+00 0. -1.
</event>
<event>
 5    1  0.1055265E-009  0.9118800E+02  0.7815553E-02  0.1125453E+00
         25   -1    0    0    0    0  0.00000000000E+00  0.00000000000E+00  0.99999998245E-14  0.12509000000E+03  0.12509000000E+03 0.  0.
        -11    1    3    3    0    0 -0.73320764446E+01  0.66593101157E+01  0.37650175517E+02  0.38931240321E+02  0.51100000000E-03 0.  1.
         23    2    1    0    0    0  0.21522662694E+02 -0.80172417876E+01 -0.12741196021E+02  0.98825208902E+02  0.95271100882E+02 0.  0.
         11    1    3    3    0    0  0.28854739139E+02 -0.14676551903E+02 -0.50391371539E+02  0.59893968581E+02  0.51100000000E-03 0. -1.
         22    1    1    0    0    0 -0.21522662694E+02  0.80172417876E+01  0.12741196021E+02  0.26264791098E+02  0.00000000000E+00 0. -1.
</event>
<event>
 5    1  0.1055265E-009  0.9118800E+02  0.7815553E-02  0.1125453E+00
         25   -1    0    0    0    0  0.00000000000E+00  0.00000000000E+00  0.99999998245E-14  0.12509000000E+03  0.12509000000E+03 0.  0.
        -11    1    3    3    0    0  0.39779019373E+02  0.36430135552E+02 -0.11624796993E+02  0.55178447460E+02  0.51100000000E-03 0.  1.
         23    2    1    0    0    0  0.23287101899E+02  0.51715146145E+00 -0.18567414990E+02  0.95302327048E+02  0.90527499031E+02 0.  0.
         11    1    3    3    0    0 -0.16491917474E+02 -0.35912984091E+02 -0.69426179970E+01  0.40123879588E+02  0.51100000000E-03 0. -1.
         22    1    1    0    0    0 -0.23287101899E+02 -0.51715146145E+00  0.18567414990E+02  0.29787672952E+02  0.00000000000E+00 0.  1.
</event>
<event>
 5    1  0.1055265E-009  0.9118800E+02  0.7815553E-02  0.1125453E+00
         25   -1    0    0    0    0  0.00000000000E+00  0.00000000000E+00  0.99999998245E-14  0.12509000000E+03  0.12509000000E+03 0.  0.
        -11    1    3    3    0    0  0.33232107091E+02 -0.48457212340E+02 -0.98195892823E+01  0.59572633847E+02  0.51100000000E-03 0.  1.
         23    2    1    0    0    0  0.16188314386E+02 -0.16135633614E+02 -0.16735768191E+02  0.96761460826E+02  0.92521749711E+02 0.  0.
         11    1    3    3    0    0 -0.17043792705E+02  0.32321578727E+02 -0.69161789087E+01  0.37188826980E+02  0.51100000000E-03 0. -1.
         22    1    1    0    0    0 -0.16188314386E+02  0.16135633614E+02  0.16735768191E+02  0.28328539174E+02  0.00000000000E+00 0.  1.
</event>
<event>
 5    1  0.1055265E-009  0.9118800E+02  0.7815553E-02  0.1125453E+00
         25   -1    0    0    0    0  0.00000000000E+00  0.00000000000E+00  0.99999998245E-14  0.12509000000E+03  0.12509000000E+03 0.  0.
        -11    1    3    3    0    0  0.17406083619E+01  0.41149794746E+02 -0.11111731902E+02  0.42659183199E+02  0.51100000000E-03 0. -1.
         23    2    1    0    0    0  0.32165145627E+02  0.10259631288E+02 -0.18423322365E+02  0.86628650123E+02  0.77622468318E+02 0.  0.
         11    1    3    3    0    0  0.30424537265E+02 -0.30890163458E+02 -0.73115904626E+01  0.43969466924E+02  0.51100000000E-03 0.  1.
         22    1    1    0    0    0 -0.32165145627E+02 -0.10259631288E+02  0.18423322365E+02  0.38461349877E+02  0.00000000000E+00 0.  1.
</event>
<event>
 5    1  0.1055265E-009  0.9118800E+02  0.7815553E-02  0.1125453E+00
         25   -1    0    0    0    0  0.00000000000E+00  0.00000000000E+00  0.99999998245E-14  0.12509000000E+03  0.12509000000E+03 0.  0.
        -11    1    3    3    0    0 -0.16224985881E+02  0.43531022402E+02  0.29493751518E+02  0.55028006115E+02  0.51100000000E-03 0.  1.
         23    2    1    0    0    0  0.65377962932E+01  0.12870986711E+02  0.28401931628E+02  0.93229761465E+02  0.87616856959E+02 0.  0.
         11    1    3    3    0    0  0.22762782174E+02 -0.30660035691E+02 -0.10918198892E+01  0.38201755350E+02  0.51100000000E-03 0. -1.
         22    1    1    0    0    0 -0.65377962932E+01 -0.12870986711E+02 -0.28401931628E+02  0.31860238535E+02  0.00000000000E+00 0. -1.
</event>
<event>
 5    1  0.1055265E-009  0.9118800E+02  0.7815553E-02  0.1125453E+00
         25   -1    0    0    0    0  0.00000000000E+00  0.00000000000E+00  0.99999998245E-14  0.12509000000E+03  0.12509000000E+03 0.  0.
        -11    1    3    3    0    0  0.21788969480E+02  0.12881917035E+02  0.33187211499E+02  0.41738399404E+02  0.51100000000E-03 0.  1.
         23    2    1    0    0    0  0.69359911333E+01 -0.18362886308E+02 -0.14523597144E+02  0.10067200580E+03  0.97665829808E+02 0.  0.
         11    1    3    3    0    0 -0.14852978346E+02 -0.31244803343E+02 -0.47710808643E+02  0.58933606400E+02  0.51100000000E-03 0. -1.
         22    1    1    0    0    0 -0.69359911333E+01  0.18362886308E+02  0.14523597144E+02  0.24417994196E+02  0.00000000000E+00 0. -1.
</event>
<event>
 5    1  0.1055265E-009  0.9118800E+02  0.7815553E-02  0.1125453E+00
         25   -1    0    0    0    0  0.00000000000E+00  0.00000000000E+00  0.99999998245E-14  0.12509000000E+03  0.12509000000E+03 0.  0.
        -11    1    3    3    0    0 -0.31586517772E+02  0.21455509107E+02 -0.27438855075E+02  0.47020609780E+02  0.51100000000E-03 0.  1.
         23    2    1    0    0    0 -0.31475803702E+01 -0.19839104380E+02 -0.18157679309E+02  0.98012358990E+02  0.94197791227E+02 0.  0.
         11    1    3    3    0    0  0.28438937402E+02 -0.41294613487E+02  0.92811757658E+01  0.50991749210E+02  0.51100000000E-03 0. -1.
         22    1    1    0    0    0  0.31475803702E+01  0.19839104380E+02  0.18157679309E+02  0.27077641010E+02  0.00000000000E+00 0.  1.
</event>
<event>
 5    1  0.1055265E-009  0.9118800E+02  0.7815553E-02  0.1125453E+00
         25   -1    0    0    0    0  0.00000000000E+00  0.00000000000E+00  0.99999998245E-14  0.12509000000E+03  0.12509000000E+03 0.  0.
        -11    1    3    3    0    0  0.44898381199E+02  0.12431122552E+02 -0.97055022375E+01  0.47587752796E+02  0.51100000000E-03 0.  1.
         23    2    1    0    0    0 -0.81789185159E-01  0.10872720664E+02 -0.27139419500E+02  0.95853535869E+02  0.91285976489E+02 0.  0.
         11    1    3    3    0    0 -0.44980170384E+02 -0.15584018879E+01 -0.17433917263E+02  0.48265783073E+02  0.51100000000E-03 0. -1.
         22    1    1    0    0    0  0.81789185159E-01 -0.10872720664E+02  0.27139419500E+02  0.29236464131E+02  0.00000000000E+00 0.  1.
</event>
<event>
 5    1  0.1055265E-009  0.9118800E+02  0.7815553E-02  0.1125453E+00
         25   -1    0    0    0    0  0.00000000000E+00  0.00000000000E+00  0.99999998245E-14  0.12509000000E+03  0.12509000000E+03 0.  0.
        -11    1    3    3    0    0  0.15755256351E+00  0.22786143113E+02  0.46133614192E+02  0.51454285530E+02  0.51100000000E-03 0. -1.
         23    2    1    0    0    0 -0.21659234890E+02  0.19224599357E+02  0.88342480839E+01  0.94812093605E+02  0.89847545754E+02 0.  0.
         11    1    3    3    0    0 -0.21816787454E+02 -0.35615437555E+01 -0.37299366108E+02  0.43357808074E+02  0.51100000000E-03 0.  1.
         22    1    1    0    0    0  0.21659234890E+02 -0.19224599357E+02 -0.88342480839E+01  0.30277906395E+02  0.00000000000E+00 0. -1.
</event>
<event>
 5    1  0.1055265E-009  0.9118800E+02  0.7815553E-02  0.1125453E+00
         25   -1    0    0    0    0  0.00000000000E+00  0.00000000000E+00  0.99999998245E-14  0.12509000000E+03  0.12509000000E+03 0.  0.
        -11    1    3    3    0    0  0.27538850815E+02  0.29893778826E+02 -0.19376834941E+02  0.45027636506E+02  0.51100000000E-03 0.  1.
         23    2    1    0    0    0 -0.88656260775E+01 -0.11123202759E+02 -0.20803619791E+02  0.99888500803E+02  0.96657110607E+02 0.  0.
         11    1    3    3    0    0 -0.36404476893E+02 -0.41016981585E+02 -0.14267848498E+01  0.54860864297E+02  0.51100000000E-03 0. -1.
         22    1    1    0    0    0  0.88656260775E+01  0.11123202759E+02  0.20803619791E+02  0.25201499197E+02  0.00000000000E+00 0. -1.
</event>
<event>
 5    1  0.1055265E-009  0.9118800E+02  0.7815553E-02  0.1125453E+00
         25   -1    0    0    0    0  0.00000000000E+00  0.00000000000E+00  0.99999998245E-14  0.12509000000E+03  0.12509000000E+03 0.  0.
        -11    1    3    3    0    0 -0.35541702607E+02 -0.99251714557E+01  0.37116161921E+02  0.52338619858E+02  0.51100000000E-03 0. -1.
         23    2    1    0    0    0 -0.14774519374E+02  0.20675089102E+02  0.17829876271E+02  0.94047283947E+02  0.88776356074E+02 0.  0.
         11    1    3    3    0    0  0.20767183234E+02  0.30600260558E+02 -0.19286285649E+02  0.41708664089E+02  0.51100000000E-03 0.  1.
         22    1    1    0    0    0  0.14774519374E+02 -0.20675089102E+02 -0.17829876271E+02  0.31042716053E+02  0.00000000000E+00 0. -1.
</event>
<event>
 5    1  0.1055265E-009  0.9118800E+02  0.7815553E-02  0.1125453E+00
         25   -1    0    0    0    0  0.00000000000E+00  0.00000000000E+00  0.99999998245E-14  0.12509000000E+03  0.12509000000E+03 0.  0.
        -11    1    3    3    0    0 -0.22093539531E+02  0.37149668013E+02  0.18540763616E+02  0.47031715237E+02  0.51100000000E-03 0.  1.
         23    2    1    0    0    0 -0.31276522911E+02  0.92805866669E+01  0.32069070809E+02  0.79343136973E+02  0.64827138668E+02 0.  0.
         11    1    3    3    0    0 -0.91829833800E+01 -0.27869081346E+02  0.13528307193E+02  0.32311421736E+02  0.51100000000E-03 0. -1.
         22    1    1    0    0    0  0.31276522911E+02 -0.92805866669E+01 -0.32069070809E+02  0.45746863027E+02  0.00000000000E+00 0.  1.
</event>
<event>
 5    1  0.1055265E-009  0.9118800E+02  0.7815553E-02  0.1125453E+00
         25   -1    0    0    0    0  0.00000000000E+00  0.00000000000E+00  0.99999998245E-14  0.12509000000E+03  0.12509000000E+03 0.  0.
        -11    1    3    3    0    0  0.37418731077E+02  0.36900315480E+02  0.46812998009E+01  0.52760868890E+02  0.51100000000E-03 0. -1.
         23    2    1    0    0    0  0.21296050996E+02  0.56626746593E+01 -0.19692318036E+02  0.95537080314E+02  0.90851299677E+02 0.  0.
         11    1    3    3    0    0 -0.16122680081E+02 -0.31237640821E+02 -0.24373617837E+02  0.42776211424E+02  0.51100000000E-03 0.  1.
         22    1    1    0    0    0 -0.21296050996E+02 -0.56626746593E+01  0.19692318036E+02  0.29552919686E+02  0.00000000000E+00 0. -1.
</event>
<event>
 5    1  0.1055265E-009  0.9118800E+02  0.7815553E-02  0.1125453E+00
         25   -1    0    0    0    0  0.00000000000E+00  0.00000000000E+00  0.99999998245E-14  0.12509000000E+03  0.12509000000E+03 0.  0.
        -11    1    3    3    0    0  0.23689994779E+02  0.30025129853E+01  0.28672575676E+02  0.37314173353E+02  0.51100000000E-03 0.  1.
         23    2    1    0    0    0  0.77429570731E+01 -0.10227336417E+02 -0.26172556435E+02  0.95942881707E+02  0.91408325909E+02 0.  0.
         11    1    3    3    0    0 -0.15947037705E+02 -0.13229849402E+02 -0.54845132111E+02  0.58628708355E+02  0.51100000000E-03 0. -1.
         22    1    1    0    0    0 -0.77429570731E+01  0.10227336417E+02  0.26172556435E+02  0.29147118293E+02  0.00000000000E+00 0. -1.
</event>
<event>
 5    1  0.1055265E-009  0.9118800E+02  0.7815553E-02  0.1125453E+00
         25   -1    0    0    0    0  0.00000000000E+00  0.00000000000E+00  0.99999998245E-14  0.12509000000E+03  0.12509000000E+03 0.  0.
        -11    1    3    3    0    0 -0.11938955508E+02 -0.48634458453E+02  0.10459842423E+02  0.51159139080E+02  0.51100000000E-03 0.  1.
         23    2    1    0    0    0  0.79862141317E+01 -0.11656476124E+02  0.25633264500E+02  0.95820266474E+02  0.91240375746E+02 0.  0.
         11    1    3    3    0    0  0.19925169640E+02  0.36977982329E+02  0.15173422077E+02  0.44661127394E+02  0.51100000000E-03 0. -1.
         22    1    1    0    0    0 -0.79862141317E+01  0.11656476124E+02 -0.25633264500E+02  0.29269733526E+02  0.00000000000E+00 0. -1.
</event>
<event>
 5    1  0.1055265E-009  0.9118800E+02  0.7815553E-02  0.1125453E+00
         25   -1    0    0    0    0  0.00000000000E+00  0.00000000000E+00  0.99999998245E-14  0.12509000000E+03  0.12509000000E+03 0.  0.
        -11    1    3    3    0    0 -0.29782285349E+01  0.32661249475E+02  0.24361803057E+02  0.40854920278E+02  0.51100000000E-03 0. -1.
         23    2    1    0    0    0  0.17248479689E+02  0.10468103644E+02 -0.21457177368E+02  0.95636618087E+02  0.90988246566E+02 0.  0.
         11    1    3    3    0    0  0.20226708224E+02 -0.22193145831E+02 -0.45818980425E+02  0.54781697810E+02  0.51100000000E-03 0.  1.
         22    1    1    0    0    0 -0.17248479689E+02 -0.10468103644E+02  0.21457177368E+02  0.29453381913E+02  0.00000000000E+00 0. -1.
</event>
<event>
 5    1  0.1055265E-009  0.9118800E+02  0.7815553E-02  0.1125453E+00
         25   -1    0    0    0    0  0.00000000000E+00  0.00000000000E+00  0.99999998245E-14  0.12509000000E+03  0.12509000000E+03 0.  0.
        -11    1    3    3    0    0 -0.65058015578E+01  0.52030155287E+01 -0.61124018427E+02  0.61689078883E+02  0.51100000000E-03 0.  1.
         23    2    1    0    0    0  0.27113891701E+01 -0.18219337478E+01 -0.30208756513E+02  0.94705134625E+02  0.89698508797E+02 0.  0.
         11    1    3    3    0    0  0.92171907279E+01 -0.70249492764E+01  0.30915261914E+02  0.33016055742E+02  0.51100000000E-03 0. -1.
         22    1    1    0    0    0 -0.27113891701E+01  0.18219337478E+01  0.30208756513E+02  0.30384865375E+02  0.00000000000E+00 0.  1.
</event>
<event>
 5    1  0.1055265E-009  0.9118800E+02  0.7815553E-02  0.1125453E+00
         25   -1    0    0    0    0  0.00000000000E+00  0.00000000000E+00  0.99999998245E-14  0.12509000000E+03  0.12509000000E+03 0.  0.
        -11    1    3    3    0    0  0.55114738178E+02 -0.25823582545E+02 -0.10444289511E+02  0.61754149363E+02  0.51100000000E-03 0.  1.
         23    2    1    0    0    0  0.19965872416E+02 -0.17005485898E+02 -0.40197564056E+01  0.98557358716E+02  0.94918764760E+02 0.  0.
         11    1    3    3    0    0 -0.35148865762E+02  0.88180966464E+01  0.64245331054E+01  0.36803209353E+02  0.51100000000E-03 0. -1.
         22    1    1    0    0    0 -0.19965872416E+02  0.17005485898E+02  0.40197564056E+01  0.26532641284E+02  0.00000000000E+00 0.  1.
</event>
<event>
 5    1  0.1055265E-009  0.9118800E+02  0.7815553E-02  0.1125453E+00
         25   -1    0    0    0    0  0.00000000000E+00  0.00000000000E+00  0.99999998245E-14  0.12509000000E+03  0.12509000000E+03 0.  0.
        -11    1    3    3    0    0  0.27197227707E+02 -0.12958374024E+02  0.21379312088E+02  0.36941624733E+02  0.51100000000E-03 0.  1.
         23    2    1    0    0    0  0.41979752392E+01  0.20477995759E+02 -0.20888801153E+02  0.95538124932E+02  0.90852737964E+02 0.  0.
         11    1    3    3    0    0 -0.22999252467E+02  0.33436369784E+02 -0.42268113241E+02  0.58596500199E+02  0.51100000000E-03 0. -1.
         22    1    1    0    0    0 -0.41979752392E+01 -0.20477995759E+02  0.20888801153E+02  0.29551875068E+02  0.00000000000E+00 0. -1.
</event>
<event>
 5    1  0.1055265E-009  0.9118800E+02  0.7815553E-02  0.1125453E+00
         25   -1    0    0    0    0  0.00000000000E+00  0.00000000000E+00  0.99999998245E-14  0.12509000000E+03  0.12509000000E+03 0.  0.
        -11    1    3    3    0    0  0.10712390192E+02  0.34111158237E+02 -0.49191448947E+02  0.60812211518E+02  0.51100000000E-03 0. -1.
         23    2    1    0    0    0  0.80415654298E+01  0.86652225327E+01 -0.30147976768E+02  0.92707082291E+02  0.86867426275E+02 0.  0.
         11    1    3    3    0    0 -0.26708247623E+01 -0.25445935704E+02  0.19043472179E+02  0.31894870774E+02  0.51100000000E-03 0.  1.
         22    1    1    0    0    0 -0.80415654298E+01 -0.86652225327E+01  0.30147976768E+02  0.32382917709E+02  0.00000000000E+00 0. -1.
</event>
<event>
 5    1  0.1055265E-009  0.9118800E+02  0.7815553E-02  0.1125453E+00
         25   -1    0    0    0    0  0.00000000000E+00  0.00000000000E+00  0.99999998245E-14  0.12509000000E+03  0.12509000000E+03 0.  0.
        -11    1    3    3    0    0 -0.21244265438E+02 -0.18492398858E+02  0.52620851038E+02  0.59684517203E+02  0.51100000000E-03 0. -1.
         23    2    1    0    0    0 -0.18284932400E+02 -0.15038899651E+02  0.16165629320E+02  0.96422338308E+02  0.92062112174E+02 0.  0.
         11    1    3    3    0    0  0.29593330380E+01  0.34534992073E+01 -0.36455221718E+02  0.36737821105E+02  0.51100000000E-03 0.  1.
         22    1    1    0    0    0  0.18284932400E+02  0.15038899651E+02 -0.16165629320E+02  0.28667661692E+02  0.00000000000E+00 0. -1.
</event>
