<event>
 5    1  0.1254496E-009  0.9118800E+02  0.7815553E-02  0.1125453E+00
         25   -1    0    0    0    0  0.00000000000E+00  0.00000000000E+00  0.99999998245E-14  0.12509000000E+03  0.12509000000E+03 0.  0.
        -13    1    3    3    0    0 -0.26660189568E+02  0.23906043351E+02  0.40184758808E+02  0.53824628387E+02  0.10566000000E+00 0. -1.
         23    2    1    0    0    0 -0.27617996414E+02 -0.37209978601E+01  0.83248980686E+01  0.96005580136E+02  0.91494086903E+02 0.  0.
         13    1    3    3    0    0 -0.95780684600E+00 -0.27627041211E+02 -0.31859860739E+02  0.42180951749E+02  0.10566000000E+00 0.  1.
         22    1    1    0    0    0  0.27617996414E+02  0.37209978601E+01 -0.83248980686E+01  0.29084419864E+02  0.00000000000E+00 0. -1.
</event>
<event>
 5    1  0.1254496E-009  0.9118800E+02  0.7815553E-02  0.1125453E+00
         25   -1    0    0    0    0  0.00000000000E+00  0.00000000000E+00  0.99999998245E-14  0.12509000000E+03  0.12509000000E+03 0.  0.
        -13    1    3    3    0    0  0.17884489412E+02  0.36328311851E+02 -0.74121587601E+01  0.41164942184E+02  0.10566000000E+00 0.  1.
         23    2    1    0    0    0 -0.24085413790E+02  0.95702747671E+01  0.14323628072E+02  0.95478116613E+02  0.90770078298E+02 0.  0.
         13    1    3    3    0    0 -0.41969903202E+02 -0.26758037084E+02  0.21735786833E+02  0.54313174429E+02  0.10566000000E+00 0. -1.
         22    1    1    0    0    0  0.24085413790E+02 -0.95702747671E+01 -0.14323628072E+02  0.29611883387E+02  0.00000000000E+00 0. -1.
</event>
<event>
 5    1  0.1254496E-009  0.9118800E+02  0.7815553E-02  0.1125453E+00
         25   -1    0    0    0    0  0.00000000000E+00  0.00000000000E+00  0.99999998245E-14  0.12509000000E+03  0.12509000000E+03 0.  0.
        -13    1    3    3    0    0  0.15110289070E+02 -0.11282508599E+02  0.59214440192E+02  0.62144806117E+02  0.10566000000E+00 0.  1.
         23    2    1    0    0    0  0.84627626567E+01 -0.46665598566E+00  0.27765410824E+02  0.96059771654E+02  0.91568147150E+02 0.  0.
         13    1    3    3    0    0 -0.66475264131E+01  0.10815852613E+02 -0.31449029368E+02  0.33914965537E+02  0.10566000000E+00 0. -1.
         22    1    1    0    0    0 -0.84627626567E+01  0.46665598566E+00 -0.27765410824E+02  0.29030228346E+02  0.00000000000E+00 0.  1.
</event>
<event>
 5    1  0.1254496E-009  0.9118800E+02  0.7815553E-02  0.1125453E+00
         25   -1    0    0    0    0  0.00000000000E+00  0.00000000000E+00  0.99999998245E-14  0.12509000000E+03  0.12509000000E+03 0.  0.
        -13    1    3    3    0    0  0.38351969501E+02  0.67515720494E+01  0.24702890058E+02  0.46116171036E+02  0.10566000000E+00 0. -1.
         23    2    1    0    0    0  0.18606577400E+02  0.20228534915E+02 -0.15975857171E+02  0.93299649897E+02  0.87716579455E+02 0.  0.
         13    1    3    3    0    0 -0.19745392102E+02  0.13476962865E+02 -0.40678747229E+02  0.47183478861E+02  0.10566000000E+00 0.  1.
         22    1    1    0    0    0 -0.18606577400E+02 -0.20228534915E+02  0.15975857171E+02  0.31790350103E+02  0.00000000000E+00 0. -1.
</event>
<event>
 5    1  0.1254496E-009  0.9118800E+02  0.7815553E-02  0.1125453E+00
         25   -1    0    0    0    0  0.00000000000E+00  0.00000000000E+00  0.99999998245E-14  0.12509000000E+03  0.12509000000E+03 0.  0.
        -13    1    3    3    0    0 -0.14742904340E+01 -0.56959587192E+02  0.49561335697E+00  0.56980916999E+02  0.10566000000E+00 0.  1.
         23    2    1    0    0    0 -0.11008132177E+00 -0.23491148272E+02 -0.18228835625E+02  0.95355565193E+02  0.90601033106E+02 0.  0.
         13    1    3    3    0    0  0.13642091122E+01  0.33468438920E+02 -0.18724448982E+02  0.38374648194E+02  0.10566000000E+00 0. -1.
         22    1    1    0    0    0  0.11008132177E+00  0.23491148272E+02  0.18228835625E+02  0.29734434807E+02  0.00000000000E+00 0.  1.
</event>
<event>
 5    1  0.1254496E-009  0.9118800E+02  0.7815553E-02  0.1125453E+00
         25   -1    0    0    0    0  0.00000000000E+00  0.00000000000E+00  0.99999998245E-14  0.12509000000E+03  0.12509000000E+03 0.  0.
        -13    1    3    3    0    0  0.47082482736E+02 -0.28766692496E+02  0.28596287589E+02  0.62145326498E+02  0.10566000000E+00 0. -1.
         23    2    1    0    0    0  0.18936725705E+02 -0.14694992685E+02  0.17094925571E+02  0.95648891483E+02  0.91005118379E+02 0.  0.
         13    1    3    3    0    0 -0.28145757030E+02  0.14071699811E+02 -0.11501362018E+02  0.33503564985E+02  0.10566000000E+00 0.  1.
         22    1    1    0    0    0 -0.18936725705E+02  0.14694992685E+02 -0.17094925571E+02  0.29441108517E+02  0.00000000000E+00 0. -1.
</event>
<event>
 5    1  0.1254496E-009  0.9118800E+02  0.7815553E-02  0.1125453E+00
         25   -1    0    0    0    0  0.00000000000E+00  0.00000000000E+00  0.99999998245E-14  0.12509000000E+03  0.12509000000E+03 0.  0.
        -13    1    3    3    0    0  0.51589197245E+02  0.28544865630E+02 -0.84971886398E+01  0.59569018835E+02  0.10566000000E+00 0.  1.
         23    2    1    0    0    0  0.28359111448E+02  0.11124042231E+02  0.88180502857E+01  0.93376571795E+02  0.87826206975E+02 0.  0.
         13    1    3    3    0    0 -0.23230085797E+02 -0.17420823399E+02  0.17315238926E+02  0.33807552959E+02  0.10566000000E+00 0. -1.
         22    1    1    0    0    0 -0.28359111448E+02 -0.11124042231E+02 -0.88180502857E+01  0.31713428205E+02  0.00000000000E+00 0.  1.
</event>
<event>
 5    1  0.1254496E-009  0.9118800E+02  0.7815553E-02  0.1125453E+00
         25   -1    0    0    0    0  0.00000000000E+00  0.00000000000E+00  0.99999998245E-14  0.12509000000E+03  0.12509000000E+03 0.  0.
        -13    1    3    3    0    0  0.57407307525E+02 -0.13167779791E+02  0.13684034523E+02  0.60466960787E+02  0.10566000000E+00 0.  1.
         23    2    1    0    0    0  0.28811405760E+02  0.50143305883E+01  0.54119058368E+01  0.95348962058E+02  0.90591915907E+02 0.  0.
         13    1    3    3    0    0 -0.28595901766E+02  0.18182110379E+02 -0.82721286863E+01  0.34882001271E+02  0.10566000000E+00 0. -1.
         22    1    1    0    0    0 -0.28811405760E+02 -0.50143305883E+01 -0.54119058368E+01  0.29741037942E+02  0.00000000000E+00 0.  1.
</event>
<event>
 5    1  0.1254496E-009  0.9118800E+02  0.7815553E-02  0.1125453E+00
         25   -1    0    0    0    0  0.00000000000E+00  0.00000000000E+00  0.99999998245E-14  0.12509000000E+03  0.12509000000E+03 0.  0.
        -13    1    3    3    0    0 -0.16061365260E+02 -0.28277417352E+02 -0.48360214515E+02  0.58277794211E+02  0.10566000000E+00 0.  1.
         23    2    1    0    0    0  0.78827426887E+01 -0.17807938113E+02 -0.25539938892E+02  0.92972267036E+02  0.87248459396E+02 0.  0.
         13    1    3    3    0    0  0.23944107949E+02  0.10469479239E+02  0.22820275623E+02  0.34694472824E+02  0.10566000000E+00 0. -1.
         22    1    1    0    0    0 -0.78827426887E+01  0.17807938113E+02  0.25539938892E+02  0.32117732964E+02  0.00000000000E+00 0.  1.
</event>
<event>
 5    1  0.1254496E-009  0.9118800E+02  0.7815553E-02  0.1125453E+00
         25   -1    0    0    0    0  0.00000000000E+00  0.00000000000E+00  0.99999998245E-14  0.12509000000E+03  0.12509000000E+03 0.  0.
        -13    1    3    3    0    0 -0.33983867048E+02  0.20194184194E+02  0.45469914416E+02  0.60251411401E+02  0.10566000000E+00 0. -1.
         23    2    1    0    0    0 -0.18005607582E+02 -0.25151459347E+01  0.21500378602E+02  0.96933399646E+02  0.92753920798E+02 0.  0.
         13    1    3    3    0    0  0.15978259465E+02 -0.22709330129E+02 -0.23969535814E+02  0.36681988245E+02  0.10566000000E+00 0.  1.
         22    1    1    0    0    0  0.18005607582E+02  0.25151459347E+01 -0.21500378602E+02  0.28156600354E+02  0.00000000000E+00 0. -1.
</event>
<event>
 5    1  0.1254496E-009  0.9118800E+02  0.7815553E-02  0.1125453E+00
         25   -1    0    0    0    0  0.00000000000E+00  0.00000000000E+00  0.99999998245E-14  0.12509000000E+03  0.12509000000E+03 0.  0.
        -13    1    3    3    0    0  0.11994636466E+02  0.20293488542E+02  0.10087057693E+02  0.25640921943E+02  0.10566000000E+00 0.  1.
         23    2    1    0    0    0  0.23204795210E+01 -0.38407978433E+02  0.10751895223E+02  0.85138020281E+02  0.75181924782E+02 0.  0.
         13    1    3    3    0    0 -0.96741569446E+01 -0.58701466976E+02  0.66483753009E+00  0.59497098338E+02  0.10566000000E+00 0. -1.
         22    1    1    0    0    0 -0.23204795210E+01  0.38407978433E+02 -0.10751895223E+02  0.39951979719E+02  0.00000000000E+00 0. -1.
</event>
<event>
 5    1  0.1254496E-009  0.9118800E+02  0.7815553E-02  0.1125453E+00
         25   -1    0    0    0    0  0.00000000000E+00  0.00000000000E+00  0.99999998245E-14  0.12509000000E+03  0.12509000000E+03 0.  0.
        -13    1    3    3    0    0 -0.29994870016E+02  0.89376716698E+01 -0.16393734219E+02  0.35331853727E+02  0.10566000000E+00 0.  1.
         23    2    1    0    0    0  0.22177693950E+02 -0.12528256767E+02  0.10137514583E+02  0.97675103894E+02  0.93748863419E+02 0.  0.
         13    1    3    3    0    0  0.52172563966E+02 -0.21465928437E+02  0.26531248801E+02  0.62343250167E+02  0.10566000000E+00 0. -1.
         22    1    1    0    0    0 -0.22177693950E+02  0.12528256767E+02 -0.10137514583E+02  0.27414896106E+02  0.00000000000E+00 0. -1.
</event>
<event>
 5    1  0.1254496E-009  0.9118800E+02  0.7815553E-02  0.1125453E+00
         25   -1    0    0    0    0  0.00000000000E+00  0.00000000000E+00  0.99999998245E-14  0.12509000000E+03  0.12509000000E+03 0.  0.
        -13    1    3    3    0    0  0.12328400702E+02 -0.25474629478E+02 -0.17121794729E+02  0.33077382449E+02  0.10566000000E+00 0.  1.
         23    2    1    0    0    0  0.28959084484E+02 -0.96216985540E+01  0.27976247573E+02  0.83691013473E+02  0.72734514851E+02 0.  0.
         13    1    3    3    0    0  0.16630683783E+02  0.15852930924E+02  0.45098042302E+02  0.50613631024E+02  0.10566000000E+00 0. -1.
         22    1    1    0    0    0 -0.28959084484E+02  0.96216985540E+01 -0.27976247573E+02  0.41398986527E+02  0.00000000000E+00 0. -1.
</event>
<event>
 5    1  0.1254496E-009  0.9118800E+02  0.7815553E-02  0.1125453E+00
         25   -1    0    0    0    0  0.00000000000E+00  0.00000000000E+00  0.99999998245E-14  0.12509000000E+03  0.12509000000E+03 0.  0.
        -13    1    3    3    0    0  0.55433771547E+00 -0.45593667102E+02  0.38096595761E+02  0.59417602971E+02  0.10566000000E+00 0.  1.
         23    2    1    0    0    0 -0.12135636125E+02 -0.29887557874E+02  0.16973154208E+02  0.88639653725E+02  0.80798270209E+02 0.  0.
         13    1    3    3    0    0 -0.12689973841E+02  0.15706109229E+02 -0.21123441553E+02  0.29222050754E+02  0.10566000000E+00 0. -1.
         22    1    1    0    0    0  0.12135636125E+02  0.29887557874E+02 -0.16973154208E+02  0.36450346275E+02  0.00000000000E+00 0.  1.
</event>
<event>
 5    1  0.1254496E-009  0.9118800E+02  0.7815553E-02  0.1125453E+00
         25   -1    0    0    0    0  0.00000000000E+00  0.00000000000E+00  0.99999998245E-14  0.12509000000E+03  0.12509000000E+03 0.  0.
        -13    1    3    3    0    0 -0.25983532881E+02 -0.33854467706E+02  0.23292910599E+02  0.48619335792E+02  0.10566000000E+00 0.  1.
         23    2    1    0    0    0  0.13720041154E+02 -0.10037082824E+02  0.24892654497E+02  0.94946562757E+02  0.90034565422E+02 0.  0.
         13    1    3    3    0    0  0.39703574035E+02  0.23817384882E+02  0.15997438980E+01  0.46327226966E+02  0.10566000000E+00 0. -1.
         22    1    1    0    0    0 -0.13720041154E+02  0.10037082824E+02 -0.24892654497E+02  0.30143437243E+02  0.00000000000E+00 0. -1.
</event>
<event>
 5    1  0.1254496E-009  0.9118800E+02  0.7815553E-02  0.1125453E+00
         25   -1    0    0    0    0  0.00000000000E+00  0.00000000000E+00  0.99999998245E-14  0.12509000000E+03  0.12509000000E+03 0.  0.
        -13    1    3    3    0    0  0.31994047137E+02  0.38362982340E+02  0.33688773710E+02  0.60251822415E+02  0.10566000000E+00 0.  1.
         23    2    1    0    0    0  0.18481782837E+02  0.84789159568E+01  0.22155857417E+02  0.95017581898E+02  0.90133182232E+02 0.  0.
         13    1    3    3    0    0 -0.13512264300E+02 -0.29884066383E+02 -0.11532916293E+02  0.34765759482E+02  0.10566000000E+00 0. -1.
         22    1    1    0    0    0 -0.18481782837E+02 -0.84789159568E+01 -0.22155857417E+02  0.30072418102E+02  0.00000000000E+00 0.  1.
</event>
<event>
 5    1  0.1254496E-009  0.9118800E+02  0.7815553E-02  0.1125453E+00
         25   -1    0    0    0    0  0.00000000000E+00  0.00000000000E+00  0.99999998245E-14  0.12509000000E+03  0.12509000000E+03 0.  0.
        -13    1    3    3    0    0  0.36442362918E+01 -0.32599731657E+02 -0.21968442283E+02  0.39479698360E+02  0.10566000000E+00 0. -1.
         23    2    1    0    0    0  0.14626296514E+02  0.22329832235E+02 -0.59578554398E+01  0.97739570410E+02  0.93834842276E+02 0.  0.
         13    1    3    3    0    0  0.10982060222E+02  0.54929563892E+02  0.16010586843E+02  0.58259872049E+02  0.10566000000E+00 0.  1.
         22    1    1    0    0    0 -0.14626296514E+02 -0.22329832235E+02  0.59578554398E+01  0.27350429590E+02  0.00000000000E+00 0.  1.
</event>
<event>
 5    1  0.1254496E-009  0.9118800E+02  0.7815553E-02  0.1125453E+00
         25   -1    0    0    0    0  0.00000000000E+00  0.00000000000E+00  0.99999998245E-14  0.12509000000E+03  0.12509000000E+03 0.  0.
        -13    1    3    3    0    0  0.31971732080E+02  0.24204334684E+02 -0.89005512875E+00  0.40110408024E+02  0.10566000000E+00 0.  1.
         23    2    1    0    0    0 -0.15322261285E+02  0.87875930964E+00  0.22545170019E+02  0.97816778701E+02  0.93937711253E+02 0.  0.
         13    1    3    3    0    0 -0.47293993365E+02 -0.23325575374E+02  0.23435225148E+02  0.57706370677E+02  0.10566000000E+00 0. -1.
         22    1    1    0    0    0  0.15322261285E+02 -0.87875930964E+00 -0.22545170019E+02  0.27273221299E+02  0.00000000000E+00 0. -1.
</event>
<event>
 5    1  0.1254496E-009  0.9118800E+02  0.7815553E-02  0.1125453E+00
         25   -1    0    0    0    0  0.00000000000E+00  0.00000000000E+00  0.99999998245E-14  0.12509000000E+03  0.12509000000E+03 0.  0.
        -13    1    3    3    0    0  0.23296418491E+02 -0.55182182375E+02 -0.15711695192E+02  0.61924671142E+02  0.10566000000E+00 0.  1.
         23    2    1    0    0    0  0.14205051102E+02 -0.32344945599E+02 -0.28980295576E+01  0.89644583400E+02  0.82339381678E+02 0.  0.
         13    1    3    3    0    0 -0.90913673885E+01  0.22837236777E+02  0.12813665635E+02  0.27719912258E+02  0.10566000000E+00 0. -1.
         22    1    1    0    0    0 -0.14205051102E+02  0.32344945599E+02  0.28980295576E+01  0.35445416600E+02  0.00000000000E+00 0.  1.
</event>
<event>
 5    1  0.1254496E-009  0.9118800E+02  0.7815553E-02  0.1125453E+00
         25   -1    0    0    0    0  0.00000000000E+00  0.00000000000E+00  0.99999998245E-14  0.12509000000E+03  0.12509000000E+03 0.  0.
        -13    1    3    3    0    0  0.69323704482E+01 -0.58532022654E+02 -0.11390742751E+02  0.60031788416E+02  0.10566000000E+00 0. -1.
         23    2    1    0    0    0 -0.92125292465E+01 -0.22878618732E+02 -0.72149870189E+01  0.99392569625E+02  0.96013149978E+02 0.  0.
         13    1    3    3    0    0 -0.16144899695E+02  0.35653403922E+02  0.41757557317E+01  0.39360781208E+02  0.10566000000E+00 0.  1.
         22    1    1    0    0    0  0.92125292465E+01  0.22878618732E+02  0.72149870189E+01  0.25697430375E+02  0.00000000000E+00 0. -1.
</event>
<event>
 5    1  0.1254496E-009  0.9118800E+02  0.7815553E-02  0.1125453E+00
         25   -1    0    0    0    0  0.00000000000E+00  0.00000000000E+00  0.99999998245E-14  0.12509000000E+03  0.12509000000E+03 0.  0.
        -13    1    3    3    0    0 -0.12039882600E+01  0.21296704132E+02 -0.41677448936E+02  0.46819014390E+02  0.10566000000E+00 0.  1.
         23    2    1    0    0    0  0.12916448858E+02  0.26172710173E+02  0.46860021509E+01  0.95529823663E+02  0.90841307696E+02 0.  0.
         13    1    3    3    0    0  0.14120437118E+02  0.48760060417E+01  0.46363451087E+02  0.48710809273E+02  0.10566000000E+00 0. -1.
         22    1    1    0    0    0 -0.12916448858E+02 -0.26172710173E+02 -0.46860021509E+01  0.29560176337E+02  0.00000000000E+00 0. -1.
</event>
<event>
 5    1  0.1254496E-009  0.9118800E+02  0.7815553E-02  0.1125453E+00
         25   -1    0    0    0    0  0.00000000000E+00  0.00000000000E+00  0.99999998245E-14  0.12509000000E+03  0.12509000000E+03 0.  0.
        -13    1    3    3    0    0  0.11878128339E+01  0.19338219761E+02  0.53501284091E+02  0.56901460493E+02  0.10566000000E+00 0.  1.
         23    2    1    0    0    0  0.16176263541E+02  0.17814840634E+02  0.19407465493E+02  0.94175767585E+02  0.88957211255E+02 0.  0.
         13    1    3    3    0    0  0.14988450708E+02 -0.15233791267E+01 -0.34093818598E+02  0.37274307092E+02  0.10566000000E+00 0. -1.
         22    1    1    0    0    0 -0.16176263541E+02 -0.17814840634E+02 -0.19407465493E+02  0.30914232415E+02  0.00000000000E+00 0.  1.
</event>
<event>
 5    1  0.1254496E-009  0.9118800E+02  0.7815553E-02  0.1125453E+00
         25   -1    0    0    0    0  0.00000000000E+00  0.00000000000E+00  0.99999998245E-14  0.12509000000E+03  0.12509000000E+03 0.  0.
        -13    1    3    3    0    0  0.42598207530E+01 -0.40059570870E+01  0.32584999077E+02  0.33105695793E+02  0.10566000000E+00 0.  1.
         23    2    1    0    0    0 -0.27505592012E+01 -0.84192723331E+01 -0.28754578200E+02  0.95002203636E+02  0.90111837212E+02 0.  0.
         13    1    3    3    0    0 -0.70103799542E+01 -0.44133152461E+01 -0.61339577278E+02  0.61896507843E+02  0.10566000000E+00 0. -1.
         22    1    1    0    0    0  0.27505592012E+01  0.84192723331E+01  0.28754578200E+02  0.30087796364E+02  0.00000000000E+00 0. -1.
</event>
<event>
 5    1  0.1254496E-009  0.9118800E+02  0.7815553E-02  0.1125453E+00
         25   -1    0    0    0    0  0.00000000000E+00  0.00000000000E+00  0.99999998245E-14  0.12509000000E+03  0.12509000000E+03 0.  0.
        -13    1    3    3    0    0 -0.65223269266E+00 -0.24833578587E+02 -0.26167222376E+02  0.36081390270E+02  0.10566000000E+00 0.  1.
         23    2    1    0    0    0 -0.17248176110E+02  0.23746698646E+01  0.23953848490E+02  0.95477072189E+02  0.90768638968E+02 0.  0.
         13    1    3    3    0    0 -0.16595943417E+02  0.27208248452E+02  0.50121070866E+02  0.59395681918E+02  0.10566000000E+00 0. -1.
         22    1    1    0    0    0  0.17248176110E+02 -0.23746698646E+01 -0.23953848490E+02  0.29612927811E+02  0.00000000000E+00 0. -1.
</event>
<event>
 5    1  0.1254496E-009  0.9118800E+02  0.7815553E-02  0.1125453E+00
         25   -1    0    0    0    0  0.00000000000E+00  0.00000000000E+00  0.99999998245E-14  0.12509000000E+03  0.12509000000E+03 0.  0.
        -13    1    3    3    0    0  0.42805727547E+02 -0.24344444875E+02  0.23964699809E+02  0.54765868093E+02  0.10566000000E+00 0. -1.
         23    2    1    0    0    0  0.39741034141E+01 -0.22106741045E+02 -0.34679324966E+01  0.10236274646E+03  0.99807834411E+02 0.  0.
         13    1    3    3    0    0 -0.38831624133E+02  0.22377038302E+01 -0.27432632305E+02  0.47596878369E+02  0.10566000000E+00 0.  1.
         22    1    1    0    0    0 -0.39741034141E+01  0.22106741045E+02  0.34679324966E+01  0.22727253538E+02  0.00000000000E+00 0. -1.
</event>
<event>
 5    1  0.1254496E-009  0.9118800E+02  0.7815553E-02  0.1125453E+00
         25   -1    0    0    0    0  0.00000000000E+00  0.00000000000E+00  0.99999998245E-14  0.12509000000E+03  0.12509000000E+03 0.  0.
        -13    1    3    3    0    0  0.46153553035E+02  0.19107444382E+02 -0.32643315284E+02  0.59672791834E+02  0.10566000000E+00 0.  1.
         23    2    1    0    0    0  0.23656792623E+02  0.22812915059E+02 -0.25263172007E+02  0.83637608144E+02  0.72642609435E+02 0.  0.
         13    1    3    3    0    0 -0.22496760412E+02  0.37054706767E+01  0.73801432763E+01  0.23964816310E+02  0.10566000000E+00 0. -1.
         22    1    1    0    0    0 -0.23656792623E+02 -0.22812915059E+02  0.25263172007E+02  0.41452391856E+02  0.00000000000E+00 0.  1.
</event>
<event>
 5    1  0.1254496E-009  0.9118800E+02  0.7815553E-02  0.1125453E+00
         25   -1    0    0    0    0  0.00000000000E+00  0.00000000000E+00  0.99999998245E-14  0.12509000000E+03  0.12509000000E+03 0.  0.
        -13    1    3    3    0    0 -0.43818493564E+02 -0.28739960803E+02  0.16401958484E+02  0.54909754428E+02  0.10566000000E+00 0. -1.
         23    2    1    0    0    0 -0.18153173804E+02  0.21664294722E+01  0.23092487238E+02  0.95636747164E+02  0.90988424019E+02 0.  0.
         13    1    3    3    0    0  0.25665319760E+02  0.30906390275E+02  0.66905287533E+01  0.40726992736E+02  0.10566000000E+00 0.  1.
         22    1    1    0    0    0  0.18153173804E+02 -0.21664294722E+01 -0.23092487238E+02  0.29453252836E+02  0.00000000000E+00 0. -1.
</event>
<event>
 5    1  0.1254496E-009  0.9118800E+02  0.7815553E-02  0.1125453E+00
         25   -1    0    0    0    0  0.00000000000E+00  0.00000000000E+00  0.99999998245E-14  0.12509000000E+03  0.12509000000E+03 0.  0.
        -13    1    3    3    0    0 -0.50354602043E+02 -0.27093459767E+02  0.10547531781E+02  0.58145533791E+02  0.10566000000E+00 0.  1.
         23    2    1    0    0    0 -0.20681770959E+02 -0.61283729778E+01  0.19986047833E+02  0.95683628014E+02  0.91052852545E+02 0.  0.
         13    1    3    3    0    0  0.29672831084E+02  0.20965086790E+02  0.94385160528E+01  0.37538094224E+02  0.10566000000E+00 0. -1.
         22    1    1    0    0    0  0.20681770959E+02  0.61283729778E+01 -0.19986047833E+02  0.29406371986E+02  0.00000000000E+00 0.  1.
</event>
<event>
 5    1  0.1254496E-009  0.9118800E+02  0.7815553E-02  0.1125453E+00
         25   -1    0    0    0    0  0.00000000000E+00  0.00000000000E+00  0.99999998245E-14  0.12509000000E+03  0.12509000000E+03 0.  0.
        -13    1    3    3    0    0  0.24975242211E+02 -0.54542134331E+02 -0.10274620305E+02  0.60862025330E+02  0.10566000000E+00 0. -1.
         23    2    1    0    0    0  0.91132735345E+01 -0.23360026557E+02 -0.14537894373E+02  0.96105642701E+02  0.91630789535E+02 0.  0.
         13    1    3    3    0    0 -0.15861968677E+02  0.31182107774E+02 -0.42632740683E+01  0.35243617370E+02  0.10566000000E+00 0.  1.
         22    1    1    0    0    0 -0.91132735345E+01  0.23360026557E+02  0.14537894373E+02  0.28984357299E+02  0.00000000000E+00 0. -1.
</event>
<event>
 5    1  0.1254496E-009  0.9118800E+02  0.7815553E-02  0.1125453E+00
         25   -1    0    0    0    0  0.00000000000E+00  0.00000000000E+00  0.99999998245E-14  0.12509000000E+03  0.12509000000E+03 0.  0.
        -13    1    3    3    0    0 -0.36778329712E+02  0.10732994535E+02  0.18119184105E+02  0.42381112595E+02  0.10566000000E+00 0. -1.
         23    2    1    0    0    0  0.10116581400E+02  0.26450284620E+02 -0.38700291717E+01  0.96507839453E+02  0.92178214207E+02 0.  0.
         13    1    3    3    0    0  0.46894911112E+02  0.15717290085E+02 -0.21989213277E+02  0.54126726859E+02  0.10566000000E+00 0.  1.
         22    1    1    0    0    0 -0.10116581400E+02 -0.26450284620E+02  0.38700291717E+01  0.28582160547E+02  0.00000000000E+00 0.  1.
</event>
<event>
 5    1  0.1254496E-009  0.9118800E+02  0.7815553E-02  0.1125453E+00
         25   -1    0    0    0    0  0.00000000000E+00  0.00000000000E+00  0.99999998245E-14  0.12509000000E+03  0.12509000000E+03 0.  0.
        -13    1    3    3    0    0 -0.27555349201E+02  0.14109347064E+02 -0.46907644169E+02  0.56202394875E+02  0.10566000000E+00 0. -1.
         23    2    1    0    0    0  0.67215525375E+01  0.10680421753E+02 -0.25164409873E+02  0.96938655421E+02  0.92761008583E+02 0.  0.
         13    1    3    3    0    0  0.34276901739E+02 -0.34289253108E+01  0.21743234296E+02  0.40736260546E+02  0.10566000000E+00 0.  1.
         22    1    1    0    0    0 -0.67215525375E+01 -0.10680421753E+02  0.25164409873E+02  0.28151344579E+02  0.00000000000E+00 0.  1.
</event>
<event>
 5    1  0.1254496E-009  0.9118800E+02  0.7815553E-02  0.1125453E+00
         25   -1    0    0    0    0  0.00000000000E+00  0.00000000000E+00  0.99999998245E-14  0.12509000000E+03  0.12509000000E+03 0.  0.
        -13    1    3    3    0    0  0.77179702297E+01  0.17426171750E+02 -0.50089145750E+02  0.53592650730E+02  0.10566000000E+00 0.  1.
         23    2    1    0    0    0  0.12634501213E+02 -0.13768399325E+02 -0.24727249808E+02  0.94095866298E+02  0.88844784486E+02 0.  0.
         13    1    3    3    0    0  0.49165309836E+01 -0.31194571076E+02  0.25361895942E+02  0.40503215568E+02  0.10566000000E+00 0. -1.
         22    1    1    0    0    0 -0.12634501213E+02  0.13768399325E+02  0.24727249808E+02  0.30994133702E+02  0.00000000000E+00 0. -1.
</event>
<event>
 5    1  0.1254496E-009  0.9118800E+02  0.7815553E-02  0.1125453E+00
         25   -1    0    0    0    0  0.00000000000E+00  0.00000000000E+00  0.99999998245E-14  0.12509000000E+03  0.12509000000E+03 0.  0.
        -13    1    3    3    0    0 -0.54274913965E+01 -0.31552410452E+02  0.12073702128E+02  0.34216921476E+02  0.10566000000E+00 0.  1.
         23    2    1    0    0    0  0.18198335182E+02  0.23601129452E+02  0.72938374375E+01  0.94407875247E+02  0.89283000226E+02 0.  0.
         13    1    3    3    0    0  0.23625826578E+02  0.55153539904E+02 -0.47798646900E+01  0.60190953771E+02  0.10566000000E+00 0. -1.
         22    1    1    0    0    0 -0.18198335182E+02 -0.23601129452E+02 -0.72938374375E+01  0.30682124753E+02  0.00000000000E+00 0. -1.
</event>
<event>
 5    1  0.1254496E-009  0.9118800E+02  0.7815553E-02  0.1125453E+00
         25   -1    0    0    0    0  0.00000000000E+00  0.00000000000E+00  0.99999998245E-14  0.12509000000E+03  0.12509000000E+03 0.  0.
        -13    1    3    3    0    0  0.49060066989E+02  0.21988898416E+02  0.28014826478E+02  0.60623786529E+02  0.10566000000E+00 0. -1.
         23    2    1    0    0    0  0.16956915115E+02  0.18696758394E+02  0.16713688507E+02  0.94817023137E+02  0.89854408619E+02 0.  0.
         13    1    3    3    0    0 -0.32103151875E+02 -0.32921400216E+01 -0.11301137971E+02  0.34193236607E+02  0.10566000000E+00 0.  1.
         22    1    1    0    0    0 -0.16956915115E+02 -0.18696758394E+02 -0.16713688507E+02  0.30272976863E+02  0.00000000000E+00 0. -1.
</event>
<event>
 5    1  0.1254496E-009  0.9118800E+02  0.7815553E-02  0.1125453E+00
         25   -1    0    0    0    0  0.00000000000E+00  0.00000000000E+00  0.99999998245E-14  0.12509000000E+03  0.12509000000E+03 0.  0.
        -13    1    3    3    0    0  0.43475257570E+02  0.23404253102E+02 -0.37918730712E+02  0.62255107316E+02  0.10566000000E+00 0. -1.
         23    2    1    0    0    0  0.22846635888E+02  0.16361707929E+02 -0.18519721533E+02  0.91435069553E+02  0.85015984384E+02 0.  0.
         13    1    3    3    0    0 -0.20628621682E+02 -0.70425451732E+01  0.19399009179E+02  0.29179962238E+02  0.10566000000E+00 0.  1.
         22    1    1    0    0    0 -0.22846635888E+02 -0.16361707929E+02  0.18519721533E+02  0.33654930447E+02  0.00000000000E+00 0. -1.
</event>
<event>
 5    1  0.1254496E-009  0.9118800E+02  0.7815553E-02  0.1125453E+00
         25   -1    0    0    0    0  0.00000000000E+00  0.00000000000E+00  0.99999998245E-14  0.12509000000E+03  0.12509000000E+03 0.  0.
        -13    1    3    3    0    0  0.45483119449E+02  0.29236457462E+02  0.26943383865E+02  0.60410609150E+02  0.10566000000E+00 0. -1.
         23    2    1    0    0    0  0.28775038352E+02  0.10735553622E+02  0.43190768264E+01  0.94075336237E+02  0.88815874255E+02 0.  0.
         13    1    3    3    0    0 -0.16708081098E+02 -0.18500903839E+02 -0.22624307038E+02  0.33664727087E+02  0.10566000000E+00 0.  1.
         22    1    1    0    0    0 -0.28775038352E+02 -0.10735553622E+02 -0.43190768264E+01  0.31014663763E+02  0.00000000000E+00 0. -1.
</event>
<event>
 5    1  0.1254496E-009  0.9118800E+02  0.7815553E-02  0.1125453E+00
         25   -1    0    0    0    0  0.00000000000E+00  0.00000000000E+00  0.99999998245E-14  0.12509000000E+03  0.12509000000E+03 0.  0.
        -13    1    3    3    0    0  0.14962836042E+02  0.13862260803E+02 -0.13131396070E+02  0.24258884224E+02  0.10566000000E+00 0. -1.
         23    2    1    0    0    0 -0.68254318765E+01 -0.94921664489E+01  0.38435198575E+02  0.84915975635E+02  0.74811567851E+02 0.  0.
         13    1    3    3    0    0 -0.21788267919E+02 -0.23354427252E+02  0.51566594645E+02  0.60657091411E+02  0.10566000000E+00 0.  1.
         22    1    1    0    0    0  0.68254318765E+01  0.94921664489E+01 -0.38435198575E+02  0.40174024365E+02  0.00000000000E+00 0.  1.
</event>
<event>
 5    1  0.1254496E-009  0.9118800E+02  0.7815553E-02  0.1125453E+00
         25   -1    0    0    0    0  0.00000000000E+00  0.00000000000E+00  0.99999998245E-14  0.12509000000E+03  0.12509000000E+03 0.  0.
        -13    1    3    3    0    0  0.34125945912E+02  0.10060182489E+02 -0.15337646055E+02  0.38743283375E+02  0.10566000000E+00 0. -1.
         23    2    1    0    0    0 -0.56400226863E+01  0.68076934460E+01  0.26857310651E+02  0.96815105105E+02  0.92594248715E+02 0.  0.
         13    1    3    3    0    0 -0.39765968599E+02 -0.32524890430E+01  0.42194956706E+02  0.58071821730E+02  0.10566000000E+00 0.  1.
         22    1    1    0    0    0  0.56400226863E+01 -0.68076934460E+01 -0.26857310651E+02  0.28274894895E+02  0.00000000000E+00 0.  1.
</event>
<event>
 5    1  0.1254496E-009  0.9118800E+02  0.7815553E-02  0.1125453E+00
         25   -1    0    0    0    0  0.00000000000E+00  0.00000000000E+00  0.99999998245E-14  0.12509000000E+03  0.12509000000E+03 0.  0.
        -13    1    3    3    0    0  0.13981108771E+01  0.39747673190E+02 -0.36773624201E+02  0.54167728759E+02  0.10566000000E+00 0. -1.
         23    2    1    0    0    0 -0.13015703597E+02  0.72574449960E+00 -0.24160694962E+02  0.97636868553E+02  0.93697831750E+02 0.  0.
         13    1    3    3    0    0 -0.14413814474E+02 -0.39021928690E+02  0.12612929239E+02  0.43469139794E+02  0.10566000000E+00 0.  1.
         22    1    1    0    0    0  0.13015703597E+02 -0.72574449960E+00  0.24160694962E+02  0.27453131447E+02  0.00000000000E+00 0. -1.
</event>
<event>
 5    1  0.1254496E-009  0.9118800E+02  0.7815553E-02  0.1125453E+00
         25   -1    0    0    0    0  0.00000000000E+00  0.00000000000E+00  0.99999998245E-14  0.12509000000E+03  0.12509000000E+03 0.  0.
        -13    1    3    3    0    0  0.44400283560E+02 -0.67492836127E+01  0.27069586590E+02  0.52437693425E+02  0.10566000000E+00 0. -1.
         23    2    1    0    0    0  0.20012061333E+02 -0.28429778655E+02  0.14896403845E+02  0.87266227572E+02  0.78643224209E+02 0.  0.
         13    1    3    3    0    0 -0.24388222227E+02 -0.21680495042E+02 -0.12173182744E+02  0.34828534147E+02  0.10566000000E+00 0.  1.
         22    1    1    0    0    0 -0.20012061333E+02  0.28429778655E+02 -0.14896403845E+02  0.37823772428E+02  0.00000000000E+00 0. -1.
</event>
<event>
 5    1  0.1254496E-009  0.9118800E+02  0.7815553E-02  0.1125453E+00
         25   -1    0    0    0    0  0.00000000000E+00  0.00000000000E+00  0.99999998245E-14  0.12509000000E+03  0.12509000000E+03 0.  0.
        -13    1    3    3    0    0  0.25172017829E+02 -0.13372133767E+02  0.19588511059E+02  0.34585623786E+02  0.10566000000E+00 0.  1.
         23    2    1    0    0    0 -0.15002668725E+02  0.22288652450E+02 -0.10601393729E+02  0.96206550657E+02  0.91768440890E+02 0.  0.
         13    1    3    3    0    0 -0.40174686555E+02  0.35660786217E+02 -0.30189904789E+02  0.61620926872E+02  0.10566000000E+00 0. -1.
         22    1    1    0    0    0  0.15002668725E+02 -0.22288652450E+02  0.10601393729E+02  0.28883449343E+02  0.00000000000E+00 0. -1.
</event>
<event>
 5    1  0.1254496E-009  0.9118800E+02  0.7815553E-02  0.1125453E+00
         25   -1    0    0    0    0  0.00000000000E+00  0.00000000000E+00  0.99999998245E-14  0.12509000000E+03  0.12509000000E+03 0.  0.
        -13    1    3    3    0    0  0.52388524471E+02 -0.24151101291E+02 -0.16084274017E+02  0.59887796958E+02  0.10566000000E+00 0.  1.
         23    2    1    0    0    0  0.26441219258E+02  0.10510196716E+01 -0.11069748291E+02  0.96405822385E+02  0.92039668320E+02 0.  0.
         13    1    3    3    0    0 -0.25947305213E+02  0.25202120963E+02  0.50145257262E+01  0.36518025427E+02  0.10566000000E+00 0. -1.
         22    1    1    0    0    0 -0.26441219258E+02 -0.10510196716E+01  0.11069748291E+02  0.28684177615E+02  0.00000000000E+00 0.  1.
</event>
<event>
 5    1  0.1254496E-009  0.9118800E+02  0.7815553E-02  0.1125453E+00
         25   -1    0    0    0    0  0.00000000000E+00  0.00000000000E+00  0.99999998245E-14  0.12509000000E+03  0.12509000000E+03 0.  0.
        -13    1    3    3    0    0  0.64543969478E+01  0.24410263313E+00 -0.51194039530E+02  0.51599996836E+02  0.10566000000E+00 0. -1.
         23    2    1    0    0    0  0.21325252063E+02 -0.15731228761E+02 -0.13039960856E+02  0.95555638436E+02  0.90876848118E+02 0.  0.
         13    1    3    3    0    0  0.14870855115E+02 -0.15975331394E+02  0.38154078674E+02  0.43955641600E+02  0.10566000000E+00 0.  1.
         22    1    1    0    0    0 -0.21325252063E+02  0.15731228761E+02  0.13039960856E+02  0.29534361564E+02  0.00000000000E+00 0. -1.
</event>
<event>
 5    1  0.1254496E-009  0.9118800E+02  0.7815553E-02  0.1125453E+00
         25   -1    0    0    0    0  0.00000000000E+00  0.00000000000E+00  0.99999998245E-14  0.12509000000E+03  0.12509000000E+03 0.  0.
        -13    1    3    3    0    0  0.18668980299E+02  0.25227951796E+02  0.16163986352E+02  0.35302492774E+02  0.10566000000E+00 0.  1.
         23    2    1    0    0    0 -0.16129783895E+02 -0.21553615715E+02 -0.57003927182E+01  0.97572319211E+02  0.93611616374E+02 0.  0.
         13    1    3    3    0    0 -0.34798764195E+02 -0.46781567511E+02 -0.21864379070E+02  0.62269826436E+02  0.10566000000E+00 0. -1.
         22    1    1    0    0    0  0.16129783895E+02  0.21553615715E+02  0.57003927182E+01  0.27517680789E+02  0.00000000000E+00 0. -1.
</event>
<event>
 5    1  0.1254496E-009  0.9118800E+02  0.7815553E-02  0.1125453E+00
         25   -1    0    0    0    0  0.00000000000E+00  0.00000000000E+00  0.99999998245E-14  0.12509000000E+03  0.12509000000E+03 0.  0.
        -13    1    3    3    0    0 -0.28248960094E+02  0.38504168574E+02  0.21006599556E+02  0.52171478155E+02  0.10566000000E+00 0.  1.
         23    2    1    0    0    0  0.61475195917E+01  0.12855842104E+02  0.26073904994E+02  0.95376144731E+02  0.90629442174E+02 0.  0.
         13    1    3    3    0    0  0.34396479685E+02 -0.25648326471E+02  0.50673054378E+01  0.43204666576E+02  0.10566000000E+00 0. -1.
         22    1    1    0    0    0 -0.61475195917E+01 -0.12855842104E+02 -0.26073904994E+02  0.29713855269E+02  0.00000000000E+00 0.  1.
</event>
<event>
 5    1  0.1254496E-009  0.9118800E+02  0.7815553E-02  0.1125453E+00
         25   -1    0    0    0    0  0.00000000000E+00  0.00000000000E+00  0.99999998245E-14  0.12509000000E+03  0.12509000000E+03 0.  0.
        -13    1    3    3    0    0  0.28136648919E+02  0.18526593090E+02 -0.39896483346E+02  0.52217298009E+02  0.10566000000E+00 0.  1.
         23    2    1    0    0    0 -0.86942009101E+01  0.86697191159E+01 -0.31532915476E+02  0.91251000053E+02  0.84744717199E+02 0.  0.
         13    1    3    3    0    0 -0.36830849829E+02 -0.98568739741E+01  0.83635678696E+01  0.39033702044E+02  0.10566000000E+00 0. -1.
         22    1    1    0    0    0  0.86942009101E+01 -0.86697191159E+01  0.31532915476E+02  0.33838999947E+02  0.00000000000E+00 0.  1.
</event>
<event>
 5    1  0.1254496E-009  0.9118800E+02  0.7815553E-02  0.1125453E+00
         25   -1    0    0    0    0  0.00000000000E+00  0.00000000000E+00  0.99999998245E-14  0.12509000000E+03  0.12509000000E+03 0.  0.
        -13    1    3    3    0    0  0.11185169510E+02  0.18836521879E+02  0.32291812357E+02  0.39021723217E+02  0.10566000000E+00 0.  1.
         23    2    1    0    0    0 -0.27026962839E+02  0.11817805692E+02 -0.75195224519E+01  0.94648901637E+02  0.89620054181E+02 0.  0.
         13    1    3    3    0    0 -0.38212132349E+02 -0.70187161873E+01 -0.39811334809E+02  0.55627178420E+02  0.10566000000E+00 0. -1.
         22    1    1    0    0    0  0.27026962839E+02 -0.11817805692E+02  0.75195224519E+01  0.30441098363E+02  0.00000000000E+00 0. -1.
</event>
<event>
 5    1  0.1254496E-009  0.9118800E+02  0.7815553E-02  0.1125453E+00
         25   -1    0    0    0    0  0.00000000000E+00  0.00000000000E+00  0.99999998245E-14  0.12509000000E+03  0.12509000000E+03 0.  0.
        -13    1    3    3    0    0 -0.51974790563E+02  0.78653310378E+01 -0.13463290057E+02  0.54263372818E+02  0.10566000000E+00 0. -1.
         23    2    1    0    0    0 -0.23150696579E+02 -0.18651182453E+02 -0.10762564404E+01  0.95341391849E+02  0.90581462302E+02 0.  0.
         13    1    3    3    0    0  0.28824093984E+02 -0.26516513491E+02  0.12387033616E+02  0.41078019031E+02  0.10566000000E+00 0.  1.
         22    1    1    0    0    0  0.23150696579E+02  0.18651182453E+02  0.10762564404E+01  0.29748608151E+02  0.00000000000E+00 0. -1.
</event>
<event>
 5    1  0.1254496E-009  0.9118800E+02  0.7815553E-02  0.1125453E+00
         25   -1    0    0    0    0  0.00000000000E+00  0.00000000000E+00  0.99999998245E-14  0.12509000000E+03  0.12509000000E+03 0.  0.
        -13    1    3    3    0    0 -0.38231848712E+02 -0.11141653807E+02  0.37544073201E+02  0.54730058488E+02  0.10566000000E+00 0. -1.
         23    2    1    0    0    0 -0.17811858437E+02  0.17006281253E+02  0.13524058230E+02  0.96994163047E+02  0.92835831505E+02 0.  0.
         13    1    3    3    0    0  0.20419990275E+02  0.28147935060E+02 -0.24020014971E+02  0.42264104560E+02  0.10566000000E+00 0.  1.
         22    1    1    0    0    0  0.17811858437E+02 -0.17006281253E+02 -0.13524058230E+02  0.28095836953E+02  0.00000000000E+00 0. -1.
</event>
<event>
 5    1  0.1254496E-009  0.9118800E+02  0.7815553E-02  0.1125453E+00
         25   -1    0    0    0    0  0.00000000000E+00  0.00000000000E+00  0.99999998245E-14  0.12509000000E+03  0.12509000000E+03 0.  0.
        -13    1    3    3    0    0 -0.98698446431E+01  0.10765565460E+02 -0.54707822623E+02  0.56623919444E+02  0.10566000000E+00 0.  1.
         23    2    1    0    0    0  0.12618866230E+02  0.13521873356E+02 -0.23711758212E+02  0.95018014341E+02  0.90133782390E+02 0.  0.
         13    1    3    3    0    0  0.22488710873E+02  0.27563078960E+01  0.30996064412E+02  0.38394094897E+02  0.10566000000E+00 0. -1.
         22    1    1    0    0    0 -0.12618866230E+02 -0.13521873356E+02  0.23711758212E+02  0.30071985659E+02  0.00000000000E+00 0.  1.
</event>
<event>
 5    1  0.1254496E-009  0.9118800E+02  0.7815553E-02  0.1125453E+00
         25   -1    0    0    0    0  0.00000000000E+00  0.00000000000E+00  0.99999998245E-14  0.12509000000E+03  0.12509000000E+03 0.  0.
        -13    1    3    3    0    0  0.25484497874E+02 -0.25333319534E+02 -0.95154833929E+01  0.37172466945E+02  0.10566000000E+00 0.  1.
         23    2    1    0    0    0  0.24043584948E+01  0.22983573592E+02  0.16490933990E+02  0.96700274769E+02  0.92438988753E+02 0.  0.
         13    1    3    3    0    0 -0.23080139379E+02  0.48316893126E+02  0.26006417383E+02  0.59527807824E+02  0.10566000000E+00 0. -1.
         22    1    1    0    0    0 -0.24043584948E+01 -0.22983573592E+02 -0.16490933990E+02  0.28389725231E+02  0.00000000000E+00 0. -1.
</event>
<event>
 5    1  0.1254496E-009  0.9118800E+02  0.7815553E-02  0.1125453E+00
         25   -1    0    0    0    0  0.00000000000E+00  0.00000000000E+00  0.99999998245E-14  0.12509000000E+03  0.12509000000E+03 0.  0.
        -13    1    3    3    0    0  0.41764870065E+02  0.30184107472E+02  0.21352665321E+02  0.55779316918E+02  0.10566000000E+00 0. -1.
         23    2    1    0    0    0  0.29478953763E+02 -0.36800269040E+01  0.69205372294E+01  0.94586801012E+02  0.89533333330E+02 0.  0.
         13    1    3    3    0    0 -0.12285916302E+02 -0.33864134376E+02 -0.14432128091E+02  0.38807484094E+02  0.10566000000E+00 0.  1.
         22    1    1    0    0    0 -0.29478953763E+02  0.36800269040E+01 -0.69205372294E+01  0.30503198988E+02  0.00000000000E+00 0. -1.
</event>
<event>
 5    1  0.1254496E-009  0.9118800E+02  0.7815553E-02  0.1125453E+00
         25   -1    0    0    0    0  0.00000000000E+00  0.00000000000E+00  0.99999998245E-14  0.12509000000E+03  0.12509000000E+03 0.  0.
        -13    1    3    3    0    0 -0.16804991072E+02 -0.40575670854E+02 -0.35111413748E+01  0.44058280357E+02  0.10566000000E+00 0. -1.
         23    2    1    0    0    0 -0.12804134854E+02  0.11369184224E+01  0.26524346952E+02  0.95614935385E+02  0.90958432454E+02 0.  0.
         13    1    3    3    0    0  0.40008562181E+01  0.41712589277E+02  0.30035488326E+02  0.51556655028E+02  0.10566000000E+00 0.  1.
         22    1    1    0    0    0  0.12804134854E+02 -0.11369184224E+01 -0.26524346952E+02  0.29475064615E+02  0.00000000000E+00 0. -1.
</event>
<event>
 5    1  0.1254496E-009  0.9118800E+02  0.7815553E-02  0.1125453E+00
         25   -1    0    0    0    0  0.00000000000E+00  0.00000000000E+00  0.99999998245E-14  0.12509000000E+03  0.12509000000E+03 0.  0.
        -13    1    3    3    0    0  0.19997533436E+01 -0.30756172383E+02 -0.29902095345E+02  0.42942841349E+02  0.10566000000E+00 0.  1.
         23    2    1    0    0    0 -0.28709829758E+02 -0.24162146343E+01  0.29912591798E+01  0.96123811963E+02  0.91655589993E+02 0.  0.
         13    1    3    3    0    0 -0.30709583102E+02  0.28339957749E+02  0.32893354525E+02  0.53180970614E+02  0.10566000000E+00 0. -1.
         22    1    1    0    0    0  0.28709829758E+02  0.24162146343E+01 -0.29912591798E+01  0.28966188037E+02  0.00000000000E+00 0. -1.
</event>
<event>
 5    1  0.1254496E-009  0.9118800E+02  0.7815553E-02  0.1125453E+00
         25   -1    0    0    0    0  0.00000000000E+00  0.00000000000E+00  0.99999998245E-14  0.12509000000E+03  0.12509000000E+03 0.  0.
        -13    1    3    3    0    0 -0.77529250079E+01  0.18637765253E+02 -0.30753705530E+02  0.36786895869E+02  0.10566000000E+00 0.  1.
         23    2    1    0    0    0  0.10479368325E+02 -0.24778182618E+02  0.71695263155E+01  0.97247988544E+02  0.93177216496E+02 0.  0.
         13    1    3    3    0    0  0.18232293333E+02 -0.43415947871E+02  0.37923231846E+02  0.60461092674E+02  0.10566000000E+00 0. -1.
         22    1    1    0    0    0 -0.10479368325E+02  0.24778182618E+02 -0.71695263155E+01  0.27842011456E+02  0.00000000000E+00 0. -1.
</event>
<event>
 5    1  0.1254496E-009  0.9118800E+02  0.7815553E-02  0.1125453E+00
         25   -1    0    0    0    0  0.00000000000E+00  0.00000000000E+00  0.99999998245E-14  0.12509000000E+03  0.12509000000E+03 0.  0.
        -13    1    3    3    0    0 -0.34102238895E+02 -0.17561428054E+02  0.41327125400E+02  0.56385360784E+02  0.10566000000E+00 0. -1.
         23    2    1    0    0    0 -0.79702653890E+01 -0.25666855057E+02  0.15216069608E+02  0.94205677874E+02  0.88999260618E+02 0.  0.
         13    1    3    3    0    0  0.26131973506E+02 -0.81054270022E+01 -0.26111055792E+02  0.37820317090E+02  0.10566000000E+00 0.  1.
         22    1    1    0    0    0  0.79702653890E+01  0.25666855057E+02 -0.15216069608E+02  0.30884322126E+02  0.00000000000E+00 0. -1.
</event>
<event>
 5    1  0.1254496E-009  0.9118800E+02  0.7815553E-02  0.1125453E+00
         25   -1    0    0    0    0  0.00000000000E+00  0.00000000000E+00  0.99999998245E-14  0.12509000000E+03  0.12509000000E+03 0.  0.
        -13    1    3    3    0    0  0.36596015899E+02  0.44476940544E+02 -0.88697758053E+01  0.58276502183E+02  0.10566000000E+00 0.  1.
         23    2    1    0    0    0  0.47282252864E+01  0.28848276976E+02 -0.11051727731E+02  0.93837481946E+02  0.88480241486E+02 0.  0.
         13    1    3    3    0    0 -0.31867790613E+02 -0.15628663568E+02 -0.21819519255E+01  0.35560979763E+02  0.10566000000E+00 0. -1.
         22    1    1    0    0    0 -0.47282252864E+01 -0.28848276976E+02  0.11051727731E+02  0.31252518054E+02  0.00000000000E+00 0.  1.
</event>
<event>
 5    1  0.1254496E-009  0.9118800E+02  0.7815553E-02  0.1125453E+00
         25   -1    0    0    0    0  0.00000000000E+00  0.00000000000E+00  0.99999998245E-14  0.12509000000E+03  0.12509000000E+03 0.  0.
        -13    1    3    3    0    0  0.50579337155E+01 -0.16299472319E+02  0.44300749610E+02  0.47474446509E+02  0.10566000000E+00 0.  1.
         23    2    1    0    0    0  0.30724264020E+02 -0.74643604667E+01  0.85990671599E+01  0.92323537988E+02  0.86313351423E+02 0.  0.
         13    1    3    3    0    0  0.25666330305E+02  0.88351118519E+01 -0.35701682450E+02  0.44849091479E+02  0.10566000000E+00 0. -1.
         22    1    1    0    0    0 -0.30724264020E+02  0.74643604667E+01 -0.85990671599E+01  0.32766462012E+02  0.00000000000E+00 0. -1.
</event>
<event>
 5    1  0.1254496E-009  0.9118800E+02  0.7815553E-02  0.1125453E+00
         25   -1    0    0    0    0  0.00000000000E+00  0.00000000000E+00  0.99999998245E-14  0.12509000000E+03  0.12509000000E+03 0.  0.
        -13    1    3    3    0    0  0.13892471790E+02 -0.18750020863E+02 -0.37808098299E+02  0.44430029438E+02  0.10566000000E+00 0. -1.
         23    2    1    0    0    0 -0.22643032024E+02  0.99594193180E+01 -0.14546304985E+02  0.96393451060E+02  0.92022853064E+02 0.  0.
         13    1    3    3    0    0 -0.36535503814E+02  0.28709440181E+02  0.23261793314E+02  0.51963421622E+02  0.10566000000E+00 0.  1.
         22    1    1    0    0    0  0.22643032024E+02 -0.99594193180E+01  0.14546304985E+02  0.28696548940E+02  0.00000000000E+00 0.  1.
</event>
<event>
 5    1  0.1254496E-009  0.9118800E+02  0.7815553E-02  0.1125453E+00
         25   -1    0    0    0    0  0.00000000000E+00  0.00000000000E+00  0.99999998245E-14  0.12509000000E+03  0.12509000000E+03 0.  0.
        -13    1    3    3    0    0 -0.66907786767E+01 -0.46203065263E+02 -0.91020211590E+01  0.47564143136E+02  0.10566000000E+00 0. -1.
         23    2    1    0    0    0 -0.19755172736E+01  0.89519953618E+01  0.14655697476E+02  0.10780328956E+03  0.10640826510E+03 0.  0.
         13    1    3    3    0    0  0.47152614030E+01  0.55155060625E+02  0.23757718635E+02  0.60239146420E+02  0.10566000000E+00 0.  1.
         22    1    1    0    0    0  0.19755172736E+01 -0.89519953618E+01 -0.14655697476E+02  0.17286710444E+02  0.00000000000E+00 0.  1.
</event>
<event>
 5    1  0.1254496E-009  0.9118800E+02  0.7815553E-02  0.1125453E+00
         25   -1    0    0    0    0  0.00000000000E+00  0.00000000000E+00  0.99999998245E-14  0.12509000000E+03  0.12509000000E+03 0.  0.
        -13    1    3    3    0    0  0.33893971433E+02 -0.14100931118E+02 -0.38845840834E+02  0.53447619891E+02  0.10566000000E+00 0. -1.
         23    2    1    0    0    0 -0.96551841828E-03 -0.24571275112E+02 -0.18397972061E+02  0.94394186971E+02  0.89263820198E+02 0.  0.
         13    1    3    3    0    0 -0.33894936951E+02 -0.10470343994E+02  0.20447868773E+02  0.40946567080E+02  0.10566000000E+00 0.  1.
         22    1    1    0    0    0  0.96551841828E-03  0.24571275112E+02  0.18397972061E+02  0.30695813029E+02  0.00000000000E+00 0.  1.
</event>
<event>
 5    1  0.1254496E-009  0.9118800E+02  0.7815553E-02  0.1125453E+00
         25   -1    0    0    0    0  0.00000000000E+00  0.00000000000E+00  0.99999998245E-14  0.12509000000E+03  0.12509000000E+03 0.  0.
        -13    1    3    3    0    0  0.44521462830E+02  0.90166160777E+01 -0.30898329433E+02  0.54937946301E+02  0.10566000000E+00 0.  1.
         23    2    1    0    0    0  0.25416464768E+01  0.15160273867E+02 -0.21940580567E+02  0.98300394811E+02  0.94579515086E+02 0.  0.
         13    1    3    3    0    0 -0.41979816353E+02  0.61436577893E+01  0.89577488658E+01  0.43362448510E+02  0.10566000000E+00 0. -1.
         22    1    1    0    0    0 -0.25416464768E+01 -0.15160273867E+02  0.21940580567E+02  0.26789605189E+02  0.00000000000E+00 0.  1.
</event>
<event>
 5    1  0.1254496E-009  0.9118800E+02  0.7815553E-02  0.1125453E+00
         25   -1    0    0    0    0  0.00000000000E+00  0.00000000000E+00  0.99999998245E-14  0.12509000000E+03  0.12509000000E+03 0.  0.
        -13    1    3    3    0    0 -0.39782376646E+02  0.46440797310E+02 -0.41956913035E+01  0.61294372792E+02  0.10566000000E+00 0. -1.
         23    2    1    0    0    0 -0.15299930474E+02  0.23327286098E+02 -0.99885454652E+01  0.95458577663E+02  0.90743147728E+02 0.  0.
         13    1    3    3    0    0  0.24482446172E+02 -0.23113511211E+02 -0.57928541617E+01  0.34164204871E+02  0.10566000000E+00 0.  1.
         22    1    1    0    0    0  0.15299930474E+02 -0.23327286098E+02  0.99885454652E+01  0.29631422337E+02  0.00000000000E+00 0. -1.
</event>
<event>
 5    1  0.1254496E-009  0.9118800E+02  0.7815553E-02  0.1125453E+00
         25   -1    0    0    0    0  0.00000000000E+00  0.00000000000E+00  0.99999998245E-14  0.12509000000E+03  0.12509000000E+03 0.  0.
        -13    1    3    3    0    0 -0.32439135807E+02 -0.18998774791E+02 -0.42556529357E+01  0.37833486773E+02  0.10566000000E+00 0. -1.
         23    2    1    0    0    0  0.28236949676E+01  0.26877635769E+02 -0.10635321242E+02  0.96047090096E+02  0.91550821406E+02 0.  0.
         13    1    3    3    0    0  0.35262830775E+02  0.45876410560E+02 -0.63796683067E+01  0.58213603323E+02  0.10566000000E+00 0.  1.
         22    1    1    0    0    0 -0.28236949676E+01 -0.26877635769E+02  0.10635321242E+02  0.29042909904E+02  0.00000000000E+00 0.  1.
</event>
<event>
 5    1  0.1254496E-009  0.9118800E+02  0.7815553E-02  0.1125453E+00
         25   -1    0    0    0    0  0.00000000000E+00  0.00000000000E+00  0.99999998245E-14  0.12509000000E+03  0.12509000000E+03 0.  0.
        -13    1    3    3    0    0  0.17522822140E+02  0.14064385846E+01  0.26924903239E+02  0.32155698464E+02  0.10566000000E+00 0.  1.
         23    2    1    0    0    0 -0.21779867361E+02  0.68693509843E+01 -0.20784780425E+02  0.94210270361E+02  0.89005715204E+02 0.  0.
         13    1    3    3    0    0 -0.39302689501E+02  0.54629123997E+01 -0.47709683665E+02  0.62054571897E+02  0.10566000000E+00 0. -1.
         22    1    1    0    0    0  0.21779867361E+02 -0.68693509843E+01  0.20784780425E+02  0.30879729639E+02  0.00000000000E+00 0. -1.
</event>
<event>
 5    1  0.1254496E-009  0.9118800E+02  0.7815553E-02  0.1125453E+00
         25   -1    0    0    0    0  0.00000000000E+00  0.00000000000E+00  0.99999998245E-14  0.12509000000E+03  0.12509000000E+03 0.  0.
        -13    1    3    3    0    0  0.24929700106E+02  0.22371099604E+02  0.22283041544E+02  0.40230599664E+02  0.10566000000E+00 0. -1.
         23    2    1    0    0    0 -0.19514261409E-01 -0.25620951993E+02  0.16470021980E+02  0.94631910995E+02  0.89596335821E+02 0.  0.
         13    1    3    3    0    0 -0.24949214367E+02 -0.47992051597E+02 -0.58130195639E+01  0.54401311331E+02  0.10566000000E+00 0.  1.
         22    1    1    0    0    0  0.19514261409E-01  0.25620951993E+02 -0.16470021980E+02  0.30458089005E+02  0.00000000000E+00 0.  1.
</event>
<event>
 5    1  0.1254496E-009  0.9118800E+02  0.7815553E-02  0.1125453E+00
         25   -1    0    0    0    0  0.00000000000E+00  0.00000000000E+00  0.99999998245E-14  0.12509000000E+03  0.12509000000E+03 0.  0.
        -13    1    3    3    0    0  0.29106698081E+02  0.35913716431E+02  0.31682827501E+02  0.56042908772E+02  0.10566000000E+00 0. -1.
         23    2    1    0    0    0  0.26385343014E+02  0.11979722761E+02 -0.33525200008E+00  0.96110481762E+02  0.91637395354E+02 0.  0.
         13    1    3    3    0    0 -0.27213550676E+01 -0.23933993670E+02 -0.32018079501E+02  0.40067572991E+02  0.10566000000E+00 0.  1.
         22    1    1    0    0    0 -0.26385343014E+02 -0.11979722761E+02  0.33525200008E+00  0.28979518238E+02  0.00000000000E+00 0. -1.
</event>
<event>
 5    1  0.1254496E-009  0.9118800E+02  0.7815553E-02  0.1125453E+00
         25   -1    0    0    0    0  0.00000000000E+00  0.00000000000E+00  0.99999998245E-14  0.12509000000E+03  0.12509000000E+03 0.  0.
        -13    1    3    3    0    0 -0.33438925257E+02  0.37508952317E+02 -0.26682691519E+02  0.56895170419E+02  0.10566000000E+00 0.  1.
         23    2    1    0    0    0 -0.36424340411E+01  0.25987332445E+02  0.50367687837E+00  0.98843810491E+02  0.95295521451E+02 0.  0.
         13    1    3    3    0    0  0.29796491216E+02 -0.11521619872E+02  0.27186368398E+02  0.41948640072E+02  0.10566000000E+00 0. -1.
         22    1    1    0    0    0  0.36424340411E+01 -0.25987332445E+02 -0.50367687837E+00  0.26246189509E+02  0.00000000000E+00 0.  1.
</event>
<event>
 5    1  0.1254496E-009  0.9118800E+02  0.7815553E-02  0.1125453E+00
         25   -1    0    0    0    0  0.00000000000E+00  0.00000000000E+00  0.99999998245E-14  0.12509000000E+03  0.12509000000E+03 0.  0.
        -13    1    3    3    0    0  0.42170243326E+02  0.36258678531E+01 -0.40200020148E+02  0.58374044950E+02  0.10566000000E+00 0.  1.
         23    2    1    0    0    0  0.29058496570E+02 -0.97424840950E+00 -0.58441887135E+01  0.95433636019E+02  0.90708758999E+02 0.  0.
         13    1    3    3    0    0 -0.13111746756E+02 -0.46001162626E+01  0.34355831434E+02  0.37059591069E+02  0.10566000000E+00 0. -1.
         22    1    1    0    0    0 -0.29058496570E+02  0.97424840950E+00  0.58441887135E+01  0.29656363981E+02  0.00000000000E+00 0.  1.
</event>
<event>
 5    1  0.1254496E-009  0.9118800E+02  0.7815553E-02  0.1125453E+00
         25   -1    0    0    0    0  0.00000000000E+00  0.00000000000E+00  0.99999998245E-14  0.12509000000E+03  0.12509000000E+03 0.  0.
        -13    1    3    3    0    0 -0.39499657529E+02 -0.10430187058E+02 -0.15648417511E+02  0.43748095749E+02  0.10566000000E+00 0. -1.
         23    2    1    0    0    0 -0.75924208421E+01 -0.89982898156E+01  0.26184674854E+02  0.96380223424E+02  0.92004870502E+02 0.  0.
         13    1    3    3    0    0  0.31907236687E+02  0.14318972422E+01  0.41833092365E+02  0.52632127675E+02  0.10566000000E+00 0.  1.
         22    1    1    0    0    0  0.75924208421E+01  0.89982898156E+01 -0.26184674854E+02  0.28709776576E+02  0.00000000000E+00 0.  1.
</event>
<event>
 5    1  0.1254496E-009  0.9118800E+02  0.7815553E-02  0.1125453E+00
         25   -1    0    0    0    0  0.00000000000E+00  0.00000000000E+00  0.99999998245E-14  0.12509000000E+03  0.12509000000E+03 0.  0.
        -13    1    3    3    0    0  0.30773887962E+02  0.15376070785E+02  0.42418208982E+01  0.34662082188E+02  0.10566000000E+00 0. -1.
         23    2    1    0    0    0 -0.28784245703E+02  0.58382225583E+01  0.64506133734E+01  0.95019614964E+02  0.90136003748E+02 0.  0.
         13    1    3    3    0    0 -0.59558133665E+02 -0.95378482267E+01  0.22087924752E+01  0.60357532775E+02  0.10566000000E+00 0.  1.
         22    1    1    0    0    0  0.28784245703E+02 -0.58382225583E+01 -0.64506133734E+01  0.30070385036E+02  0.00000000000E+00 0.  1.
</event>
<event>
 5    1  0.1254496E-009  0.9118800E+02  0.7815553E-02  0.1125453E+00
         25   -1    0    0    0    0  0.00000000000E+00  0.00000000000E+00  0.99999998245E-14  0.12509000000E+03  0.12509000000E+03 0.  0.
        -13    1    3    3    0    0 -0.37911608148E+02 -0.27560031945E+02  0.22437549829E+01  0.46924311328E+02  0.10566000000E+00 0. -1.
         23    2    1    0    0    0 -0.20765193885E+02  0.18730462598E+02  0.61983484782E+01  0.96446623277E+02  0.92095103624E+02 0.  0.
         13    1    3    3    0    0  0.17146414262E+02  0.46290494543E+02  0.39545934953E+01  0.49522311949E+02  0.10566000000E+00 0.  1.
         22    1    1    0    0    0  0.20765193885E+02 -0.18730462598E+02 -0.61983484782E+01  0.28643376723E+02  0.00000000000E+00 0.  1.
</event>
<event>
 5    1  0.1254496E-009  0.9118800E+02  0.7815553E-02  0.1125453E+00
         25   -1    0    0    0    0  0.00000000000E+00  0.00000000000E+00  0.99999998245E-14  0.12509000000E+03  0.12509000000E+03 0.  0.
        -13    1    3    3    0    0  0.40566823006E+02 -0.29004565833E+02 -0.18139175540E+02  0.53065740560E+02  0.10566000000E+00 0.  1.
         23    2    1    0    0    0  0.36926991320E+02  0.11076224965E+01 -0.19278693698E+02  0.83418696369E+02  0.72264661888E+02 0.  0.
         13    1    3    3    0    0 -0.36398316853E+01  0.30112188329E+02 -0.11395181578E+01  0.30352955809E+02  0.10566000000E+00 0. -1.
         22    1    1    0    0    0 -0.36926991320E+02 -0.11076224965E+01  0.19278693698E+02  0.41671303631E+02  0.00000000000E+00 0.  1.
</event>
<event>
 5    1  0.1254496E-009  0.9118800E+02  0.7815553E-02  0.1125453E+00
         25   -1    0    0    0    0  0.00000000000E+00  0.00000000000E+00  0.99999998245E-14  0.12509000000E+03  0.12509000000E+03 0.  0.
        -13    1    3    3    0    0 -0.34441384906E+02  0.29406023353E+02 -0.24919616933E+02  0.51690634314E+02  0.10566000000E+00 0. -1.
         23    2    1    0    0    0 -0.22993418544E+02 -0.11747120453E+02 -0.13722147015E+02  0.95849797300E+02  0.91280853351E+02 0.  0.
         13    1    3    3    0    0  0.11447966362E+02 -0.41153143806E+02  0.11197469918E+02  0.44159162985E+02  0.10566000000E+00 0.  1.
         22    1    1    0    0    0  0.22993418544E+02  0.11747120453E+02  0.13722147015E+02  0.29240202700E+02  0.00000000000E+00 0. -1.
</event>
<event>
 5    1  0.1254496E-009  0.9118800E+02  0.7815553E-02  0.1125453E+00
         25   -1    0    0    0    0  0.00000000000E+00  0.00000000000E+00  0.99999998245E-14  0.12509000000E+03  0.12509000000E+03 0.  0.
        -13    1    3    3    0    0 -0.23538793221E+02  0.47656971843E+02  0.11464567187E+02  0.54375630722E+02  0.10566000000E+00 0. -1.
         23    2    1    0    0    0 -0.37599242961E+01  0.14099900535E+02  0.25442187207E+02  0.95759996323E+02  0.91157708286E+02 0.  0.
         13    1    3    3    0    0  0.19778868925E+02 -0.33557071308E+02  0.13977620020E+02  0.41384365601E+02  0.10566000000E+00 0.  1.
         22    1    1    0    0    0  0.37599242961E+01 -0.14099900535E+02 -0.25442187207E+02  0.29330003677E+02  0.00000000000E+00 0. -1.
</event>
<event>
 5    1  0.1254496E-009  0.9118800E+02  0.7815553E-02  0.1125453E+00
         25   -1    0    0    0    0  0.00000000000E+00  0.00000000000E+00  0.99999998245E-14  0.12509000000E+03  0.12509000000E+03 0.  0.
        -13    1    3    3    0    0 -0.38469270211E+02  0.34090643074E+02  0.53720761164E+01  0.51681012583E+02  0.10566000000E+00 0.  1.
         23    2    1    0    0    0 -0.33920101858E+01  0.20192230975E+02 -0.19454039351E+02  0.96846565862E+02  0.92636740807E+02 0.  0.
         13    1    3    3    0    0  0.35077260025E+02 -0.13898412100E+02 -0.24826115467E+02  0.45165553279E+02  0.10566000000E+00 0. -1.
         22    1    1    0    0    0  0.33920101858E+01 -0.20192230975E+02  0.19454039351E+02  0.28243434138E+02  0.00000000000E+00 0.  1.
</event>
<event>
 5    1  0.1254496E-009  0.9118800E+02  0.7815553E-02  0.1125453E+00
         25   -1    0    0    0    0  0.00000000000E+00  0.00000000000E+00  0.99999998245E-14  0.12509000000E+03  0.12509000000E+03 0.  0.
        -13    1    3    3    0    0 -0.14552292475E+02 -0.24593082783E+02 -0.24851960541E+02  0.37871097737E+02  0.10566000000E+00 0. -1.
         23    2    1    0    0    0  0.10651821069E+02 -0.13700343779E+02  0.24924963343E+02  0.94718722295E+02  0.89717455625E+02 0.  0.
         13    1    3    3    0    0  0.25204113543E+02  0.10892739004E+02  0.49776923885E+02  0.56847624558E+02  0.10566000000E+00 0.  1.
         22    1    1    0    0    0 -0.10651821069E+02  0.13700343779E+02 -0.24924963343E+02  0.30371277705E+02  0.00000000000E+00 0.  1.
</event>
<event>
 5    1  0.1254496E-009  0.9118800E+02  0.7815553E-02  0.1125453E+00
         25   -1    0    0    0    0  0.00000000000E+00  0.00000000000E+00  0.99999998245E-14  0.12509000000E+03  0.12509000000E+03 0.  0.
        -13    1    3    3    0    0 -0.12560356890E+02 -0.16796377822E+02  0.32508442400E+02  0.38687089119E+02  0.10566000000E+00 0.  1.
         23    2    1    0    0    0  0.11289705588E+01  0.31138413708E+01 -0.24375722462E+02  0.10049027585E+03  0.97432792799E+02 0.  0.
         13    1    3    3    0    0  0.13689327449E+02  0.19910219192E+02 -0.56884164862E+02  0.61803186734E+02  0.10566000000E+00 0. -1.
         22    1    1    0    0    0 -0.11289705588E+01 -0.31138413708E+01  0.24375722462E+02  0.24599724148E+02  0.00000000000E+00 0. -1.
</event>
<event>
 5    1  0.1254496E-009  0.9118800E+02  0.7815553E-02  0.1125453E+00
         25   -1    0    0    0    0  0.00000000000E+00  0.00000000000E+00  0.99999998245E-14  0.12509000000E+03  0.12509000000E+03 0.  0.
        -13    1    3    3    0    0  0.31704477471E+00 -0.40065709505E+02 -0.41165757689E+01  0.40278020751E+02  0.10566000000E+00 0.  1.
         23    2    1    0    0    0  0.27321772289E+02  0.75995712698E+01  0.62913099180E+01  0.96041535239E+02  0.91543231241E+02 0.  0.
         13    1    3    3    0    0  0.27004727515E+02  0.47665280775E+02  0.10407885687E+02  0.55763514487E+02  0.10566000000E+00 0. -1.
         22    1    1    0    0    0 -0.27321772289E+02 -0.75995712698E+01 -0.62913099180E+01  0.29048464761E+02  0.00000000000E+00 0. -1.
</event>
<event>
 5    1  0.1254496E-009  0.9118800E+02  0.7815553E-02  0.1125453E+00
         25   -1    0    0    0    0  0.00000000000E+00  0.00000000000E+00  0.99999998245E-14  0.12509000000E+03  0.12509000000E+03 0.  0.
        -13    1    3    3    0    0 -0.22240489456E+02 -0.37958577361E+02  0.70654784879E+01  0.44558109440E+02  0.10566000000E+00 0.  1.
         23    2    1    0    0    0 -0.46933565402E+01  0.56359946748E+01  0.28102973195E+02  0.96045738363E+02  0.91548974455E+02 0.  0.
         13    1    3    3    0    0  0.17547132916E+02  0.43594572036E+02  0.21037494708E+02  0.51487628924E+02  0.10566000000E+00 0. -1.
         22    1    1    0    0    0  0.46933565402E+01 -0.56359946748E+01 -0.28102973195E+02  0.29044261637E+02  0.00000000000E+00 0.  1.
</event>
<event>
 5    1  0.1254496E-009  0.9118800E+02  0.7815553E-02  0.1125453E+00
         25   -1    0    0    0    0  0.00000000000E+00  0.00000000000E+00  0.99999998245E-14  0.12509000000E+03  0.12509000000E+03 0.  0.
        -13    1    3    3    0    0 -0.23824758477E+02  0.41437036989E+02 -0.10116329215E+02  0.48856917952E+02  0.10566000000E+00 0.  1.
         23    2    1    0    0    0 -0.22031420584E+02  0.35199141908E+01  0.18267260589E+02  0.96254846137E+02  0.91834249093E+02 0.  0.
         13    1    3    3    0    0  0.17933378929E+01 -0.37917122798E+02  0.28383589803E+02  0.47397928185E+02  0.10566000000E+00 0. -1.
         22    1    1    0    0    0  0.22031420584E+02 -0.35199141908E+01 -0.18267260589E+02  0.28835153863E+02  0.00000000000E+00 0. -1.
</event>
<event>
 5    1  0.1254496E-009  0.9118800E+02  0.7815553E-02  0.1125453E+00
         25   -1    0    0    0    0  0.00000000000E+00  0.00000000000E+00  0.99999998245E-14  0.12509000000E+03  0.12509000000E+03 0.  0.
        -13    1    3    3    0    0  0.55992164099E+02 -0.76854246692E+01  0.67012130859E+01  0.56913140958E+02  0.10566000000E+00 0.  1.
         23    2    1    0    0    0  0.18737541267E+02 -0.20226933309E+02  0.84230031960E+01  0.96259958955E+02  0.91841213141E+02 0.  0.
         13    1    3    3    0    0 -0.37254622831E+02 -0.12541508640E+02  0.17217901102E+01  0.39346817997E+02  0.10566000000E+00 0. -1.
         22    1    1    0    0    0 -0.18737541267E+02  0.20226933309E+02 -0.84230031960E+01  0.28830041045E+02  0.00000000000E+00 0.  1.
</event>
<event>
 5    1  0.1254496E-009  0.9118800E+02  0.7815553E-02  0.1125453E+00
         25   -1    0    0    0    0  0.00000000000E+00  0.00000000000E+00  0.99999998245E-14  0.12509000000E+03  0.12509000000E+03 0.  0.
        -13    1    3    3    0    0 -0.55813329350E+01 -0.10534910699E+02  0.31408824569E+02  0.33595550980E+02  0.10566000000E+00 0. -1.
         23    2    1    0    0    0  0.94023647709E+01  0.18272033728E+02 -0.21293598750E+02  0.95497956684E+02  0.90797415730E+02 0.  0.
         13    1    3    3    0    0  0.14983697706E+02  0.28806944428E+02 -0.52702423320E+02  0.61902405704E+02  0.10566000000E+00 0.  1.
         22    1    1    0    0    0 -0.94023647709E+01 -0.18272033728E+02  0.21293598750E+02  0.29592043316E+02  0.00000000000E+00 0.  1.
</event>
<event>
 5    1  0.1254496E-009  0.9118800E+02  0.7815553E-02  0.1125453E+00
         25   -1    0    0    0    0  0.00000000000E+00  0.00000000000E+00  0.99999998245E-14  0.12509000000E+03  0.12509000000E+03 0.  0.
        -13    1    3    3    0    0 -0.12655640068E+02 -0.27506101035E+02  0.14324534654E+02  0.33495585930E+02  0.10566000000E+00 0.  1.
         23    2    1    0    0    0  0.81756505063E+01  0.23181662734E+02 -0.15640934944E+02  0.95954633274E+02  0.91424406219E+02 0.  0.
         13    1    3    3    0    0  0.20831290574E+02  0.50687763770E+02 -0.29965469597E+02  0.62459047345E+02  0.10566000000E+00 0. -1.
         22    1    1    0    0    0 -0.81756505063E+01 -0.23181662734E+02  0.15640934944E+02  0.29135366726E+02  0.00000000000E+00 0. -1.
</event>
<event>
 5    1  0.1254496E-009  0.9118800E+02  0.7815553E-02  0.1125453E+00
         25   -1    0    0    0    0  0.00000000000E+00  0.00000000000E+00  0.99999998245E-14  0.12509000000E+03  0.12509000000E+03 0.  0.
        -13    1    3    3    0    0  0.17505438280E+02  0.81062811678E+00  0.38242786548E+02  0.42066844121E+02  0.10566000000E+00 0. -1.
         23    2    1    0    0    0  0.24615665712E+02 -0.53980441255E+01 -0.14747484492E+02  0.95891401101E+02  0.91337848823E+02 0.  0.
         13    1    3    3    0    0  0.71102274318E+01 -0.62086722422E+01 -0.52990271040E+02  0.53824556980E+02  0.10566000000E+00 0.  1.
         22    1    1    0    0    0 -0.24615665712E+02  0.53980441255E+01  0.14747484492E+02  0.29198598899E+02  0.00000000000E+00 0.  1.
</event>
<event>
 5    1  0.1254496E-009  0.9118800E+02  0.7815553E-02  0.1125453E+00
         25   -1    0    0    0    0  0.00000000000E+00  0.00000000000E+00  0.99999998245E-14  0.12509000000E+03  0.12509000000E+03 0.  0.
        -13    1    3    3    0    0 -0.22236480370E+02  0.65219180447E+01  0.26049379529E+02  0.34865137489E+02  0.10566000000E+00 0. -1.
         23    2    1    0    0    0  0.17974061447E+02 -0.60746833030E+01 -0.20162731167E+02  0.97404184313E+02  0.93386673201E+02 0.  0.
         13    1    3    3    0    0  0.40210541817E+02 -0.12596601348E+02 -0.46212110696E+02  0.62539046825E+02  0.10566000000E+00 0.  1.
         22    1    1    0    0    0 -0.17974061447E+02  0.60746833030E+01  0.20162731167E+02  0.27685815687E+02  0.00000000000E+00 0.  1.
</event>
<event>
 5    1  0.1254496E-009  0.9118800E+02  0.7815553E-02  0.1125453E+00
         25   -1    0    0    0    0  0.00000000000E+00  0.00000000000E+00  0.99999998245E-14  0.12509000000E+03  0.12509000000E+03 0.  0.
        -13    1    3    3    0    0  0.48146094016E+02 -0.34541766301E+02 -0.65238719300E+01  0.59613354689E+02  0.10566000000E+00 0. -1.
         23    2    1    0    0    0  0.19619043979E+02 -0.13273237155E+02 -0.16083859095E+02  0.96458265253E+02  0.92110915211E+02 0.  0.
         13    1    3    3    0    0 -0.28527050037E+02  0.21268529146E+02 -0.95599871654E+01  0.36844910564E+02  0.10566000000E+00 0.  1.
         22    1    1    0    0    0 -0.19619043979E+02  0.13273237155E+02  0.16083859095E+02  0.28631734747E+02  0.00000000000E+00 0. -1.
</event>
<event>
 5    1  0.1254496E-009  0.9118800E+02  0.7815553E-02  0.1125453E+00
         25   -1    0    0    0    0  0.00000000000E+00  0.00000000000E+00  0.99999998245E-14  0.12509000000E+03  0.12509000000E+03 0.  0.
        -13    1    3    3    0    0 -0.53670676485E+01 -0.82938583771E+01 -0.39560653362E+02  0.40775604966E+02  0.10566000000E+00 0. -1.
         23    2    1    0    0    0  0.21874387242E+02  0.18145895875E+02  0.14143939966E+01  0.96633667406E+02  0.92348810559E+02 0.  0.
         13    1    3    3    0    0  0.27241454890E+02  0.26439754252E+02  0.40975047359E+02  0.55858062440E+02  0.10566000000E+00 0.  1.
         22    1    1    0    0    0 -0.21874387242E+02 -0.18145895875E+02 -0.14143939966E+01  0.28456332594E+02  0.00000000000E+00 0.  1.
</event>
<event>
 5    1  0.1254496E-009  0.9118800E+02  0.7815553E-02  0.1125453E+00
         25   -1    0    0    0    0  0.00000000000E+00  0.00000000000E+00  0.99999998245E-14  0.12509000000E+03  0.12509000000E+03 0.  0.
        -13    1    3    3    0    0 -0.27147976302E+02 -0.25283934902E+02  0.61848498727E+01  0.37610550560E+02  0.10566000000E+00 0.  1.
         23    2    1    0    0    0 -0.94393039105E+01  0.27047606177E+02 -0.92732282727E+01  0.94979101295E+02  0.90079761668E+02 0.  0.
         13    1    3    3    0    0  0.17708672391E+02  0.52331541079E+02 -0.15458078145E+02  0.57368550736E+02  0.10566000000E+00 0. -1.
         22    1    1    0    0    0  0.94393039105E+01 -0.27047606177E+02  0.92732282727E+01  0.30110898705E+02  0.00000000000E+00 0.  1.
</event>
<event>
 5    1  0.1254496E-009  0.9118800E+02  0.7815553E-02  0.1125453E+00
         25   -1    0    0    0    0  0.00000000000E+00  0.00000000000E+00  0.99999998245E-14  0.12509000000E+03  0.12509000000E+03 0.  0.
        -13    1    3    3    0    0  0.33147282609E+02 -0.39625768734E+01  0.41694364245E+02  0.53412316311E+02  0.10566000000E+00 0. -1.
         23    2    1    0    0    0 -0.72408748860E+01 -0.25118327557E+01  0.27963045800E+02  0.96095664289E+02  0.91617166469E+02 0.  0.
         13    1    3    3    0    0 -0.40388157495E+02  0.14507441176E+01 -0.13731318445E+02  0.42683347978E+02  0.10566000000E+00 0.  1.
         22    1    1    0    0    0  0.72408748860E+01  0.25118327557E+01 -0.27963045800E+02  0.28994335711E+02  0.00000000000E+00 0. -1.
</event>
<event>
 5    1  0.1254496E-009  0.9118800E+02  0.7815553E-02  0.1125453E+00
         25   -1    0    0    0    0  0.00000000000E+00  0.00000000000E+00  0.99999998245E-14  0.12509000000E+03  0.12509000000E+03 0.  0.
        -13    1    3    3    0    0  0.33590743859E+02  0.19497334950E+01  0.19955488521E+02  0.39119972135E+02  0.10566000000E+00 0.  1.
         23    2    1    0    0    0 -0.21483820609E+02 -0.42797221371E+00  0.22070737799E+02  0.94286507094E+02  0.89112795068E+02 0.  0.
         13    1    3    3    0    0 -0.55074564469E+02 -0.23777057087E+01  0.21152492784E+01  0.55166534959E+02  0.10566000000E+00 0. -1.
         22    1    1    0    0    0  0.21483820609E+02  0.42797221371E+00 -0.22070737799E+02  0.30803492906E+02  0.00000000000E+00 0. -1.
</event>
<event>
 5    1  0.1254496E-009  0.9118800E+02  0.7815553E-02  0.1125453E+00
         25   -1    0    0    0    0  0.00000000000E+00  0.00000000000E+00  0.99999998245E-14  0.12509000000E+03  0.12509000000E+03 0.  0.
        -13    1    3    3    0    0  0.41052750441E+02 -0.31324082710E+02 -0.27087105268E+02  0.58311653314E+02  0.10566000000E+00 0. -1.
         23    2    1    0    0    0  0.70996169659E+01 -0.13228136170E+02 -0.23831802583E+02  0.96923655510E+02  0.92740778709E+02 0.  0.
         13    1    3    3    0    0 -0.33953133475E+02  0.18095946540E+02  0.32553026860E+01  0.38612002196E+02  0.10566000000E+00 0.  1.
         22    1    1    0    0    0 -0.70996169659E+01  0.13228136170E+02  0.23831802583E+02  0.28166344490E+02  0.00000000000E+00 0. -1.
</event>
<event>
 5    1  0.1254496E-009  0.9118800E+02  0.7815553E-02  0.1125453E+00
         25   -1    0    0    0    0  0.00000000000E+00  0.00000000000E+00  0.99999998245E-14  0.12509000000E+03  0.12509000000E+03 0.  0.
        -13    1    3    3    0    0 -0.28778596783E+02  0.28324744420E+02  0.14579252724E+02  0.42930927701E+02  0.10566000000E+00 0.  1.
         23    2    1    0    0    0 -0.19277229084E+02 -0.60823216869E+01 -0.22802467836E+02  0.94617738225E+02  0.89576546312E+02 0.  0.
         13    1    3    3    0    0  0.95013676987E+01 -0.34407066106E+02 -0.37381720559E+02  0.51686810525E+02  0.10566000000E+00 0. -1.
         22    1    1    0    0    0  0.19277229084E+02  0.60823216869E+01  0.22802467836E+02  0.30472261775E+02  0.00000000000E+00 0.  1.
</event>
<event>
 5    1  0.1254496E-009  0.9118800E+02  0.7815553E-02  0.1125453E+00
         25   -1    0    0    0    0  0.00000000000E+00  0.00000000000E+00  0.99999998245E-14  0.12509000000E+03  0.12509000000E+03 0.  0.
        -13    1    3    3    0    0 -0.27888641957E+02  0.15466680220E+00 -0.30504433560E+02  0.41331971921E+02  0.10566000000E+00 0. -1.
         23    2    1    0    0    0 -0.40503037378E+01 -0.27737679089E+02  0.93838912179E+01  0.95529194598E+02  0.90840441460E+02 0.  0.
         13    1    3    3    0    0  0.23838338219E+02 -0.27892345891E+02  0.39888324778E+02  0.54197222678E+02  0.10566000000E+00 0.  1.
         22    1    1    0    0    0  0.40503037378E+01  0.27737679089E+02 -0.93838912179E+01  0.29560805402E+02  0.00000000000E+00 0. -1.
</event>
<event>
 4    1  0.1254496E-009  0.9118800E+02  0.7815553E-02  0.1125453E+00
         25   -1    0    0    0    0  0.00000000000E+00  0.00000000000E+00  0.99999998245E-14  0.12509000000E+03  0.12509000000E+03 0.  0.
        -13    1    1    0    0    0 -0.95499662415E+01  0.15684422440E+02 -0.79792104753E+01  0.20022036019E+02  0.10566000000E+00 0. -1.
         13    1    1    0    0    0 -0.40175782781E+01  0.77328414830E+01  0.52363219272E+02  0.53083478307E+02  0.10566000000E+00 0.  1.
         22    1    1    0    0    0  0.13567544520E+02 -0.23417263923E+02 -0.44384008797E+02  0.51984485674E+02  0.00000000000E+00 0.  1.
</event>
<event>
 5    1  0.1254496E-009  0.9118800E+02  0.7815553E-02  0.1125453E+00
         25   -1    0    0    0    0  0.00000000000E+00  0.00000000000E+00  0.99999998245E-14  0.12509000000E+03  0.12509000000E+03 0.  0.
        -13    1    3    3    0    0 -0.28611416440E+02 -0.17359993791E+02  0.18029560766E+02  0.38013928507E+02  0.10566000000E+00 0. -1.
         23    2    1    0    0    0 -0.28535911747E+01  0.66048796309E+01 -0.28130990791E+02  0.96053470241E+02  0.91559538470E+02 0.  0.
         13    1    3    3    0    0  0.25757825265E+02  0.23964873422E+02 -0.46160551558E+02  0.58039541734E+02  0.10566000000E+00 0.  1.
         22    1    1    0    0    0  0.28535911747E+01 -0.66048796309E+01  0.28130990791E+02  0.29036529759E+02  0.00000000000E+00 0.  1.
</event>
<event>
 5    1  0.1254496E-009  0.9118800E+02  0.7815553E-02  0.1125453E+00
         25   -1    0    0    0    0  0.00000000000E+00  0.00000000000E+00  0.99999998245E-14  0.12509000000E+03  0.12509000000E+03 0.  0.
        -13    1    3    3    0    0  0.48033808938E+02  0.17229672671E+02 -0.18630899023E+02  0.54325224196E+02  0.10566000000E+00 0. -1.
         23    2    1    0    0    0  0.24181769249E+02 -0.13773241551E+02 -0.14640128867E+02  0.93644912624E+02  0.88207574165E+02 0.  0.
         13    1    3    3    0    0 -0.23852039689E+02 -0.31002914222E+02  0.39907701554E+01  0.39319688428E+02  0.10566000000E+00 0.  1.
         22    1    1    0    0    0 -0.24181769249E+02  0.13773241551E+02  0.14640128867E+02  0.31445087376E+02  0.00000000000E+00 0. -1.
</event>
<event>
 5    1  0.1254496E-009  0.9118800E+02  0.7815553E-02  0.1125453E+00
         25   -1    0    0    0    0  0.00000000000E+00  0.00000000000E+00  0.99999998245E-14  0.12509000000E+03  0.12509000000E+03 0.  0.
        -13    1    3    3    0    0  0.34069606036E+02  0.96517583798E+01  0.21343826671E+02  0.41345672038E+02  0.10566000000E+00 0.  1.
         23    2    1    0    0    0 -0.83499469572E+01 -0.23121459797E+02  0.17152576508E+02  0.95114436649E+02  0.90267500580E+02 0.  0.
         13    1    3    3    0    0 -0.42419552994E+02 -0.32773218177E+02 -0.41912501635E+01  0.53768764611E+02  0.10566000000E+00 0. -1.
         22    1    1    0    0    0  0.83499469572E+01  0.23121459797E+02 -0.17152576508E+02  0.29975563351E+02  0.00000000000E+00 0. -1.
</event>
<event>
 5    1  0.1254496E-009  0.9118800E+02  0.7815553E-02  0.1125453E+00
         25   -1    0    0    0    0  0.00000000000E+00  0.00000000000E+00  0.99999998245E-14  0.12509000000E+03  0.12509000000E+03 0.  0.
        -13    1    3    3    0    0  0.11936119103E+02  0.47451258263E+02  0.82725138188E+01  0.49623971011E+02  0.10566000000E+00 0.  1.
         23    2    1    0    0    0 -0.19053186426E+01  0.16829957623E+02 -0.23667757075E+02  0.95986040859E+02  0.91467369056E+02 0.  0.
         13    1    3    3    0    0 -0.13841437745E+02 -0.30621300640E+02 -0.31940270894E+02  0.46362069848E+02  0.10566000000E+00 0. -1.
         22    1    1    0    0    0  0.19053186426E+01 -0.16829957623E+02  0.23667757075E+02  0.29103959141E+02  0.00000000000E+00 0.  1.
</event>
<event>
 5    1  0.1254496E-009  0.9118800E+02  0.7815553E-02  0.1125453E+00
         25   -1    0    0    0    0  0.00000000000E+00  0.00000000000E+00  0.99999998245E-14  0.12509000000E+03  0.12509000000E+03 0.  0.
        -13    1    3    3    0    0  0.11990270111E+02  0.46223998338E+02  0.22285760494E+02  0.52698110825E+02  0.10566000000E+00 0.  1.
         23    2    1    0    0    0  0.24320140280E+02  0.56159740636E+01  0.15588197227E+02  0.95662117291E+02  0.91023295941E+02 0.  0.
         13    1    3    3    0    0  0.12329870169E+02 -0.40608024275E+02 -0.66975632673E+01  0.42964006466E+02  0.10566000000E+00 0. -1.
         22    1    1    0    0    0 -0.24320140280E+02 -0.56159740636E+01 -0.15588197227E+02  0.29427882709E+02  0.00000000000E+00 0.  1.
</event>
<event>
 5    1  0.1254496E-009  0.9118800E+02  0.7815553E-02  0.1125453E+00
         25   -1    0    0    0    0  0.00000000000E+00  0.00000000000E+00  0.99999998245E-14  0.12509000000E+03  0.12509000000E+03 0.  0.
        -13    1    3    3    0    0  0.46077811699E+02 -0.32926886839E+02  0.12936821977E+02  0.58092315626E+02  0.10566000000E+00 0.  1.
         23    2    1    0    0    0  0.21155956431E+02 -0.37161753758E+01  0.18311443821E+02  0.96864241787E+02  0.92660606032E+02 0.  0.
         13    1    3    3    0    0 -0.24921855268E+02  0.29210711463E+02  0.53746218439E+01  0.38771926161E+02  0.10566000000E+00 0. -1.
         22    1    1    0    0    0 -0.21155956431E+02  0.37161753758E+01 -0.18311443821E+02  0.28225758213E+02  0.00000000000E+00 0.  1.
</event>
<event>
 5    1  0.1254496E-009  0.9118800E+02  0.7815553E-02  0.1125453E+00
         25   -1    0    0    0    0  0.00000000000E+00  0.00000000000E+00  0.99999998245E-14  0.12509000000E+03  0.12509000000E+03 0.  0.
        -13    1    3    3    0    0 -0.48042076615E+02 -0.17908953729E+02  0.26620664986E+02  0.57770604268E+02  0.10566000000E+00 0.  1.
         23    2    1    0    0    0 -0.10826346218E+02 -0.16132097083E+02  0.22664205774E+02  0.95238357631E+02  0.90439063530E+02 0.  0.
         13    1    3    3    0    0  0.37215730397E+02  0.17768566453E+01 -0.39564592119E+01  0.37467753363E+02  0.10566000000E+00 0. -1.
         22    1    1    0    0    0  0.10826346218E+02  0.16132097083E+02 -0.22664205774E+02  0.29851642369E+02  0.00000000000E+00 0.  1.
</event>
<event>
 5    1  0.1254496E-009  0.9118800E+02  0.7815553E-02  0.1125453E+00
         25   -1    0    0    0    0  0.00000000000E+00  0.00000000000E+00  0.99999998245E-14  0.12509000000E+03  0.12509000000E+03 0.  0.
        -13    1    3    3    0    0 -0.28743202912E+02 -0.38746482026E+01  0.73910660307E+01  0.29930312953E+02  0.10566000000E+00 0.  1.
         23    2    1    0    0    0  0.31053842032E+02  0.89388706046E+01  0.10354965514E+02  0.91156685641E+02  0.84605387024E+02 0.  0.
         13    1    3    3    0    0  0.59797044944E+02  0.12813518807E+02  0.29638994837E+01  0.61226372687E+02  0.10566000000E+00 0. -1.
         22    1    1    0    0    0 -0.31053842032E+02 -0.89388706046E+01 -0.10354965514E+02  0.33933314359E+02  0.00000000000E+00 0. -1.
</event>
<event>
 5    1  0.1254496E-009  0.9118800E+02  0.7815553E-02  0.1125453E+00
         25   -1    0    0    0    0  0.00000000000E+00  0.00000000000E+00  0.99999998245E-14  0.12509000000E+03  0.12509000000E+03 0.  0.
        -13    1    3    3    0    0 -0.51716090025E+02 -0.21602306870E+01 -0.14865095025E+02  0.53853530787E+02  0.10566000000E+00 0. -1.
         23    2    1    0    0    0 -0.24452885959E+02 -0.31849197153E+01  0.16496502027E+02  0.95421465752E+02  0.90691974297E+02 0.  0.
         13    1    3    3    0    0  0.27263204066E+02 -0.10246890283E+01  0.31361597052E+02  0.41567934965E+02  0.10566000000E+00 0.  1.
         22    1    1    0    0    0  0.24452885959E+02  0.31849197153E+01 -0.16496502027E+02  0.29668534248E+02  0.00000000000E+00 0. -1.
</event>
<event>
 5    1  0.1254496E-009  0.9118800E+02  0.7815553E-02  0.1125453E+00
         25   -1    0    0    0    0  0.00000000000E+00  0.00000000000E+00  0.99999998245E-14  0.12509000000E+03  0.12509000000E+03 0.  0.
        -13    1    3    3    0    0 -0.45613860268E+02  0.34712828127E+02 -0.14359837939E+02  0.59091630497E+02  0.10566000000E+00 0. -1.
         23    2    1    0    0    0 -0.12227047501E+02  0.26462446686E+02 -0.12002882026E+01  0.95914625676E+02  0.91369650057E+02 0.  0.
         13    1    3    3    0    0  0.33386812767E+02 -0.82503814408E+01  0.13159549737E+02  0.36822995179E+02  0.10566000000E+00 0.  1.
         22    1    1    0    0    0  0.12227047501E+02 -0.26462446686E+02  0.12002882026E+01  0.29175374324E+02  0.00000000000E+00 0.  1.
</event>
<event>
 5    1  0.1254496E-009  0.9118800E+02  0.7815553E-02  0.1125453E+00
         25   -1    0    0    0    0  0.00000000000E+00  0.00000000000E+00  0.99999998245E-14  0.12509000000E+03  0.12509000000E+03 0.  0.
        -13    1    3    3    0    0 -0.46604293241E+00  0.46351418932E+02 -0.13563083746E+02  0.48297408189E+02  0.10566000000E+00 0. -1.
         23    2    1    0    0    0  0.23857445167E+02  0.14325900162E+02  0.10711852645E+02  0.95271333155E+02  0.90484661842E+02 0.  0.
         13    1    3    3    0    0  0.24323488100E+02 -0.32025518770E+02  0.24274936391E+02  0.46973924966E+02  0.10566000000E+00 0.  1.
         22    1    1    0    0    0 -0.23857445167E+02 -0.14325900162E+02 -0.10711852645E+02  0.29818666845E+02  0.00000000000E+00 0. -1.
</event>
<event>
 5    1  0.1254496E-009  0.9118800E+02  0.7815553E-02  0.1125453E+00
         25   -1    0    0    0    0  0.00000000000E+00  0.00000000000E+00  0.99999998245E-14  0.12509000000E+03  0.12509000000E+03 0.  0.
        -13    1    3    3    0    0  0.10922569000E+02 -0.40419573470E+02 -0.17691364240E+02  0.45453712343E+02  0.10566000000E+00 0. -1.
         23    2    1    0    0    0  0.20078798341E+02 -0.41255441104E+01  0.18469000264E+02  0.97498656651E+02  0.93513131810E+02 0.  0.
         13    1    3    3    0    0  0.91562293411E+01  0.36294029359E+02  0.36160364505E+02  0.52044944308E+02  0.10566000000E+00 0.  1.
         22    1    1    0    0    0 -0.20078798341E+02  0.41255441104E+01 -0.18469000264E+02  0.27591343349E+02  0.00000000000E+00 0.  1.
</event>
<event>
 5    1  0.1254496E-009  0.9118800E+02  0.7815553E-02  0.1125453E+00
         25   -1    0    0    0    0  0.00000000000E+00  0.00000000000E+00  0.99999998245E-14  0.12509000000E+03  0.12509000000E+03 0.  0.
        -13    1    3    3    0    0  0.46957227716E+02 -0.32161601057E+02  0.76562949977E+01  0.57428040489E+02  0.10566000000E+00 0.  1.
         23    2    1    0    0    0  0.24703870227E+02  0.22348022274E+01  0.97231573672E+01  0.98447640226E+02  0.94774060437E+02 0.  0.
         13    1    3    3    0    0 -0.22253357489E+02  0.34396403284E+02  0.20668623695E+01  0.41019599736E+02  0.10566000000E+00 0. -1.
         22    1    1    0    0    0 -0.24703870227E+02 -0.22348022274E+01 -0.97231573672E+01  0.26642359774E+02  0.00000000000E+00 0.  1.
</event>
<event>
 5    1  0.1254496E-009  0.9118800E+02  0.7815553E-02  0.1125453E+00
         25   -1    0    0    0    0  0.00000000000E+00  0.00000000000E+00  0.99999998245E-14  0.12509000000E+03  0.12509000000E+03 0.  0.
        -13    1    3    3    0    0 -0.50470928769E+02  0.17256325887E+01  0.17531435255E+02  0.53457037374E+02  0.10566000000E+00 0.  1.
         23    2    1    0    0    0 -0.81700999310E+01  0.12026108881E+02  0.23555637607E+02  0.97408853153E+02  0.93392926829E+02 0.  0.
         13    1    3    3    0    0  0.42300828838E+02  0.10300476292E+02  0.60242023520E+01  0.43951815779E+02  0.10566000000E+00 0. -1.
         22    1    1    0    0    0  0.81700999310E+01 -0.12026108881E+02 -0.23555637607E+02  0.27681146847E+02  0.00000000000E+00 0. -1.
</event>
<event>
 5    1  0.1254496E-009  0.9118800E+02  0.7815553E-02  0.1125453E+00
         25   -1    0    0    0    0  0.00000000000E+00  0.00000000000E+00  0.99999998245E-14  0.12509000000E+03  0.12509000000E+03 0.  0.
        -13    1    3    3    0    0  0.20603606343E+02 -0.11698417120E+02 -0.33742342333E+02  0.41230066549E+02  0.10566000000E+00 0.  1.
         23    2    1    0    0    0 -0.24441062921E+02 -0.18884266493E+02 -0.10191005071E+02  0.92565583602E+02  0.86663427151E+02 0.  0.
         13    1    3    3    0    0 -0.45044669263E+02 -0.71858493724E+01  0.23551337263E+02  0.51335517053E+02  0.10566000000E+00 0. -1.
         22    1    1    0    0    0  0.24441062921E+02  0.18884266493E+02  0.10191005071E+02  0.32524416398E+02  0.00000000000E+00 0. -1.
</event>
<event>
 5    1  0.1254496E-009  0.9118800E+02  0.7815553E-02  0.1125453E+00
         25   -1    0    0    0    0  0.00000000000E+00  0.00000000000E+00  0.99999998245E-14  0.12509000000E+03  0.12509000000E+03 0.  0.
        -13    1    3    3    0    0 -0.15160287654E+02 -0.34048599011E+02 -0.42922510751E+02  0.56846235667E+02  0.10566000000E+00 0. -1.
         23    2    1    0    0    0  0.10400750037E+02 -0.11489370678E+02 -0.25790658808E+02  0.95001142899E+02  0.90110364723E+02 0.  0.
         13    1    3    3    0    0  0.25561037691E+02  0.22559228333E+02  0.17131851943E+02  0.38154907231E+02  0.10566000000E+00 0.  1.
         22    1    1    0    0    0 -0.10400750037E+02  0.11489370678E+02  0.25790658808E+02  0.30088857101E+02  0.00000000000E+00 0. -1.
</event>
<event>
 5    1  0.1254496E-009  0.9118800E+02  0.7815553E-02  0.1125453E+00
         25   -1    0    0    0    0  0.00000000000E+00  0.00000000000E+00  0.99999998245E-14  0.12509000000E+03  0.12509000000E+03 0.  0.
        -13    1    3    3    0    0 -0.22724920753E+02 -0.14910624973E+02 -0.55183449542E+02  0.61514006760E+02  0.10566000000E+00 0.  1.
         23    2    1    0    0    0 -0.15591147260E+02 -0.64893510584E+00 -0.26187507595E+02  0.94605732850E+02  0.89559779725E+02 0.  0.
         13    1    3    3    0    0  0.71337734926E+01  0.14261689867E+02  0.28995941948E+02  0.33091726090E+02  0.10566000000E+00 0. -1.
         22    1    1    0    0    0  0.15591147260E+02  0.64893510584E+00  0.26187507595E+02  0.30484267150E+02  0.00000000000E+00 0.  1.
</event>
<event>
 5    1  0.1254496E-009  0.9118800E+02  0.7815553E-02  0.1125453E+00
         25   -1    0    0    0    0  0.00000000000E+00  0.00000000000E+00  0.99999998245E-14  0.12509000000E+03  0.12509000000E+03 0.  0.
        -13    1    3    3    0    0 -0.28354961364E+02  0.35391732935E+02 -0.13519000285E+02  0.47321803927E+02  0.10566000000E+00 0. -1.
         23    2    1    0    0    0  0.58439029044E+01  0.53935674487E+01 -0.28722843654E+02  0.95286585455E+02  0.90505744840E+02 0.  0.
         13    1    3    3    0    0  0.34198864269E+02 -0.29998165486E+02 -0.15203843369E+02  0.47964781528E+02  0.10566000000E+00 0.  1.
         22    1    1    0    0    0 -0.58439029044E+01 -0.53935674487E+01  0.28722843654E+02  0.29803414545E+02  0.00000000000E+00 0. -1.
</event>
<event>
 5    1  0.1254496E-009  0.9118800E+02  0.7815553E-02  0.1125453E+00
         25   -1    0    0    0    0  0.00000000000E+00  0.00000000000E+00  0.99999998245E-14  0.12509000000E+03  0.12509000000E+03 0.  0.
        -13    1    3    3    0    0  0.46163967204E+02  0.12058732143E+01  0.55030935758E+01  0.46506571592E+02  0.10566000000E+00 0.  1.
         23    2    1    0    0    0  0.10681338651E+02 -0.10801249484E+02 -0.25684598315E+02  0.95249480963E+02  0.90454447361E+02 0.  0.
         13    1    3    3    0    0 -0.35482628553E+02 -0.12007122699E+02 -0.31187691890E+02  0.48742909372E+02  0.10566000000E+00 0. -1.
         22    1    1    0    0    0 -0.10681338651E+02  0.10801249484E+02  0.25684598315E+02  0.29840519037E+02  0.00000000000E+00 0. -1.
</event>
<event>
 5    1  0.1254496E-009  0.9118800E+02  0.7815553E-02  0.1125453E+00
         25   -1    0    0    0    0  0.00000000000E+00  0.00000000000E+00  0.99999998245E-14  0.12509000000E+03  0.12509000000E+03 0.  0.
        -13    1    3    3    0    0 -0.36458203198E+01 -0.25118639649E+02  0.17235915242E+02  0.30681036519E+02  0.10566000000E+00 0.  1.
         23    2    1    0    0    0  0.22061853348E+02  0.46382162562E+01 -0.27030935559E+02  0.89891848055E+02  0.82714173189E+02 0.  0.
         13    1    3    3    0    0  0.25707673667E+02  0.29756855905E+02 -0.44266850801E+02  0.59210811535E+02  0.10566000000E+00 0. -1.
         22    1    1    0    0    0 -0.22061853348E+02 -0.46382162562E+01  0.27030935559E+02  0.35198151945E+02  0.00000000000E+00 0. -1.
</event>
<event>
 5    1  0.1254496E-009  0.9118800E+02  0.7815553E-02  0.1125453E+00
         25   -1    0    0    0    0  0.00000000000E+00  0.00000000000E+00  0.99999998245E-14  0.12509000000E+03  0.12509000000E+03 0.  0.
        -13    1    3    3    0    0  0.15021761072E+02  0.14059087511E+02 -0.34708043483E+02  0.40348118838E+02  0.10566000000E+00 0. -1.
         23    2    1    0    0    0 -0.18134990611E+02  0.10849998897E+02  0.14276763166E+02  0.99586542841E+02  0.96265534788E+02 0.  0.
         13    1    3    3    0    0 -0.33156751683E+02 -0.32090886132E+01  0.48984806649E+02  0.59238424003E+02  0.10566000000E+00 0.  1.
         22    1    1    0    0    0  0.18134990611E+02 -0.10849998897E+02 -0.14276763166E+02  0.25503457159E+02  0.00000000000E+00 0.  1.
</event>
<event>
 5    1  0.1254496E-009  0.9118800E+02  0.7815553E-02  0.1125453E+00
         25   -1    0    0    0    0  0.00000000000E+00  0.00000000000E+00  0.99999998245E-14  0.12509000000E+03  0.12509000000E+03 0.  0.
        -13    1    3    3    0    0  0.59892058650E+01  0.38359368669E+02  0.83892081460E+01  0.39720293666E+02  0.10566000000E+00 0.  1.
         23    2    1    0    0    0 -0.90758355759E+01 -0.18432808196E+02  0.16109121083E+02  0.98981706462E+02  0.95476359496E+02 0.  0.
         13    1    3    3    0    0 -0.15065041441E+02 -0.56792176865E+02  0.77199129370E+01  0.59261412796E+02  0.10566000000E+00 0. -1.
         22    1    1    0    0    0  0.90758355759E+01  0.18432808196E+02 -0.16109121083E+02  0.26108293538E+02  0.00000000000E+00 0. -1.
</event>
<event>
 5    1  0.1254496E-009  0.9118800E+02  0.7815553E-02  0.1125453E+00
         25   -1    0    0    0    0  0.00000000000E+00  0.00000000000E+00  0.99999998245E-14  0.12509000000E+03  0.12509000000E+03 0.  0.
        -13    1    3    3    0    0 -0.25415396168E+02  0.50641063694E+01 -0.30355691634E+02  0.39913239838E+02  0.10566000000E+00 0. -1.
         23    2    1    0    0    0  0.14383258033E+02  0.25679288469E+02  0.25945810099E+01  0.95542820464E+02  0.90859202746E+02 0.  0.
         13    1    3    3    0    0  0.39798654201E+02  0.20615182100E+02  0.32950272644E+02  0.55629580626E+02  0.10566000000E+00 0.  1.
         22    1    1    0    0    0 -0.14383258033E+02 -0.25679288469E+02 -0.25945810099E+01  0.29547179536E+02  0.00000000000E+00 0.  1.
</event>
<event>
 5    1  0.1254496E-009  0.9118800E+02  0.7815553E-02  0.1125453E+00
         25   -1    0    0    0    0  0.00000000000E+00  0.00000000000E+00  0.99999998245E-14  0.12509000000E+03  0.12509000000E+03 0.  0.
        -13    1    3    3    0    0 -0.43434705990E+01  0.32817188533E+02 -0.18969493095E+02  0.38153458983E+02  0.10566000000E+00 0.  1.
         23    2    1    0    0    0 -0.15417528775E+02 -0.23003655389E+02 -0.92986554685E+01  0.95878130010E+02  0.91319671845E+02 0.  0.
         13    1    3    3    0    0 -0.11074058176E+02 -0.55820843923E+02  0.96708376269E+01  0.57724671027E+02  0.10566000000E+00 0. -1.
         22    1    1    0    0    0  0.15417528775E+02  0.23003655389E+02  0.92986554685E+01  0.29211869990E+02  0.00000000000E+00 0. -1.
</event>
<event>
 5    1  0.1254496E-009  0.9118800E+02  0.7815553E-02  0.1125453E+00
         25   -1    0    0    0    0  0.00000000000E+00  0.00000000000E+00  0.99999998245E-14  0.12509000000E+03  0.12509000000E+03 0.  0.
        -13    1    3    3    0    0 -0.56317559951E+02 -0.78768807413E+01 -0.93372490721E+01  0.57627321587E+02  0.10566000000E+00 0.  1.
         23    2    1    0    0    0 -0.24193573776E+02 -0.20642859901E+02 -0.83478149249E+01  0.92209265656E+02  0.86147582566E+02 0.  0.
         13    1    3    3    0    0  0.32123986175E+02 -0.12765979160E+02  0.98943414728E+00  0.34581944069E+02  0.10566000000E+00 0. -1.
         22    1    1    0    0    0  0.24193573776E+02  0.20642859901E+02  0.83478149249E+01  0.32880734344E+02  0.00000000000E+00 0.  1.
</event>
<event>
 5    1  0.1254496E-009  0.9118800E+02  0.7815553E-02  0.1125453E+00
         25   -1    0    0    0    0  0.00000000000E+00  0.00000000000E+00  0.99999998245E-14  0.12509000000E+03  0.12509000000E+03 0.  0.
        -13    1    3    3    0    0  0.85971088551E+01  0.29288298258E+02 -0.42618958284E+02  0.52422337460E+02  0.10566000000E+00 0. -1.
         23    2    1    0    0    0  0.85358143951E+01  0.25472022807E+02  0.28715320652E+01  0.98072787530E+02  0.94278003183E+02 0.  0.
         13    1    3    3    0    0 -0.61294460049E-01 -0.38162754510E+01  0.45490490349E+02  0.45650450070E+02  0.10566000000E+00 0.  1.
         22    1    1    0    0    0 -0.85358143951E+01 -0.25472022807E+02 -0.28715320652E+01  0.27017212470E+02  0.00000000000E+00 0. -1.
</event>
<event>
 5    1  0.1254496E-009  0.9118800E+02  0.7815553E-02  0.1125453E+00
         25   -1    0    0    0    0  0.00000000000E+00  0.00000000000E+00  0.99999998245E-14  0.12509000000E+03  0.12509000000E+03 0.  0.
        -13    1    3    3    0    0 -0.53279299029E+02 -0.20974102305E+02 -0.42622291672E+01  0.57417544653E+02  0.10566000000E+00 0.  1.
         23    2    1    0    0    0 -0.20028501095E+02 -0.39432122003E+01 -0.18639436372E+02  0.97447308980E+02  0.93444420168E+02 0.  0.
         13    1    3    3    0    0  0.33250797934E+02  0.17030890104E+02 -0.14377207205E+02  0.40029764327E+02  0.10566000000E+00 0. -1.
         22    1    1    0    0    0  0.20028501095E+02  0.39432122003E+01  0.18639436372E+02  0.27642691020E+02  0.00000000000E+00 0.  1.
</event>
<event>
 5    1  0.1254496E-009  0.9118800E+02  0.7815553E-02  0.1125453E+00
         25   -1    0    0    0    0  0.00000000000E+00  0.00000000000E+00  0.99999998245E-14  0.12509000000E+03  0.12509000000E+03 0.  0.
        -13    1    3    3    0    0  0.31776143653E+02 -0.27911442929E+02  0.98129282801E+01  0.43417469725E+02  0.10566000000E+00 0.  1.
         23    2    1    0    0    0 -0.17796360768E+02 -0.12316073963E+02  0.19119131152E+02  0.96212027245E+02  0.91775905749E+02 0.  0.
         13    1    3    3    0    0 -0.49572504421E+02  0.15595368966E+02  0.93062028719E+01  0.52794557520E+02  0.10566000000E+00 0. -1.
         22    1    1    0    0    0  0.17796360768E+02  0.12316073963E+02 -0.19119131152E+02  0.28877972755E+02  0.00000000000E+00 0.  1.
</event>
<event>
 5    1  0.1254496E-009  0.9118800E+02  0.7815553E-02  0.1125453E+00
         25   -1    0    0    0    0  0.00000000000E+00  0.00000000000E+00  0.99999998245E-14  0.12509000000E+03  0.12509000000E+03 0.  0.
        -13    1    3    3    0    0  0.46373804287E+02 -0.72196432228E+01  0.12019286745E+02  0.48447160806E+02  0.10566000000E+00 0. -1.
         23    2    1    0    0    0  0.11925244233E+02  0.18338996827E+02  0.23633460393E+02  0.92886417827E+02  0.87125288590E+02 0.  0.
         13    1    3    3    0    0 -0.34448560054E+02  0.25558640050E+02  0.11614173648E+02  0.44439257021E+02  0.10566000000E+00 0.  1.
         22    1    1    0    0    0 -0.11925244233E+02 -0.18338996827E+02 -0.23633460393E+02  0.32203582173E+02  0.00000000000E+00 0.  1.
</event>
<event>
 5    1  0.1254496E-009  0.9118800E+02  0.7815553E-02  0.1125453E+00
         25   -1    0    0    0    0  0.00000000000E+00  0.00000000000E+00  0.99999998245E-14  0.12509000000E+03  0.12509000000E+03 0.  0.
        -13    1    3    3    0    0 -0.71124594801E+01 -0.11920693194E+02 -0.43293114566E+02  0.45464216027E+02  0.10566000000E+00 0. -1.
         23    2    1    0    0    0 -0.72620306275E+01 -0.19002334646E+02  0.12174607447E+02  0.10138247214E+03  0.98571592153E+02 0.  0.
         13    1    3    3    0    0 -0.14957114739E+00 -0.70816414517E+01  0.55467722013E+02  0.55918256111E+02  0.10566000000E+00 0.  1.
         22    1    1    0    0    0  0.72620306275E+01  0.19002334646E+02 -0.12174607447E+02  0.23707527862E+02  0.00000000000E+00 0. -1.
</event>
<event>
 5    1  0.1254496E-009  0.9118800E+02  0.7815553E-02  0.1125453E+00
         25   -1    0    0    0    0  0.00000000000E+00  0.00000000000E+00  0.99999998245E-14  0.12509000000E+03  0.12509000000E+03 0.  0.
        -13    1    3    3    0    0  0.19160299533E+02 -0.11217973751E+02  0.37523657000E+02  0.43600412979E+02  0.10566000000E+00 0.  1.
         23    2    1    0    0    0 -0.18619234491E+02  0.16198497607E+02  0.19492271354E+02  0.93641377450E+02  0.88202560679E+02 0.  0.
         13    1    3    3    0    0 -0.37779534024E+02  0.27416471358E+02 -0.18031385646E+02  0.50040964470E+02  0.10566000000E+00 0. -1.
         22    1    1    0    0    0  0.18619234491E+02 -0.16198497607E+02 -0.19492271354E+02  0.31448622550E+02  0.00000000000E+00 0. -1.
</event>
<event>
 5    1  0.1254496E-009  0.9118800E+02  0.7815553E-02  0.1125453E+00
         25   -1    0    0    0    0  0.00000000000E+00  0.00000000000E+00  0.99999998245E-14  0.12509000000E+03  0.12509000000E+03 0.  0.
        -13    1    3    3    0    0  0.48325223699E+02 -0.19291933315E+02  0.74729762089E+00  0.52039173267E+02  0.10566000000E+00 0. -1.
         23    2    1    0    0    0  0.35263313365E+02 -0.63098804344E+01 -0.23320586959E+02  0.82344641928E+02  0.70380923676E+02 0.  0.
         13    1    3    3    0    0 -0.13061910333E+02  0.12982052880E+02 -0.24067884580E+02  0.30305468661E+02  0.10566000000E+00 0.  1.
         22    1    1    0    0    0 -0.35263313365E+02  0.63098804344E+01  0.23320586959E+02  0.42745358072E+02  0.00000000000E+00 0. -1.
</event>
<event>
 5    1  0.1254496E-009  0.9118800E+02  0.7815553E-02  0.1125453E+00
         25   -1    0    0    0    0  0.00000000000E+00  0.00000000000E+00  0.99999998245E-14  0.12509000000E+03  0.12509000000E+03 0.  0.
        -13    1    3    3    0    0 -0.33125904641E+02  0.26723923380E+02  0.34438236467E+02  0.54749401221E+02  0.10566000000E+00 0.  1.
         23    2    1    0    0    0 -0.13509932534E+02 -0.34055882900E+01  0.31288502491E+02  0.90839646764E+02  0.84135335784E+02 0.  0.
         13    1    3    3    0    0  0.19615972107E+02 -0.30129511670E+02 -0.31497339758E+01  0.36090245543E+02  0.10566000000E+00 0. -1.
         22    1    1    0    0    0  0.13509932534E+02  0.34055882900E+01 -0.31288502491E+02  0.34250353236E+02  0.00000000000E+00 0.  1.
</event>
<event>
 5    1  0.1254496E-009  0.9118800E+02  0.7815553E-02  0.1125453E+00
         25   -1    0    0    0    0  0.00000000000E+00  0.00000000000E+00  0.99999998245E-14  0.12509000000E+03  0.12509000000E+03 0.  0.
        -13    1    3    3    0    0 -0.40053947763E+02 -0.14820731481E+02  0.36748126723E+02  0.56341892005E+02  0.10566000000E+00 0. -1.
         23    2    1    0    0    0 -0.18620991957E+02 -0.22417367714E+02  0.48021749475E+01  0.95554587341E+02  0.90875401298E+02 0.  0.
         13    1    3    3    0    0  0.21432955806E+02 -0.75966362332E+01 -0.31945951776E+02  0.39212695336E+02  0.10566000000E+00 0.  1.
         22    1    1    0    0    0  0.18620991957E+02  0.22417367714E+02 -0.48021749475E+01  0.29535412659E+02  0.00000000000E+00 0.  1.
</event>
<event>
 5    1  0.1254496E-009  0.9118800E+02  0.7815553E-02  0.1125453E+00
         25   -1    0    0    0    0  0.00000000000E+00  0.00000000000E+00  0.99999998245E-14  0.12509000000E+03  0.12509000000E+03 0.  0.
        -13    1    3    3    0    0 -0.63769445284E+01  0.21371353901E+02  0.23425203312E+02  0.32344265385E+02  0.10566000000E+00 0.  1.
         23    2    1    0    0    0  0.19787974422E+02 -0.13572364624E+02 -0.19950784706E+02  0.93884121971E+02  0.88546154827E+02 0.  0.
         13    1    3    3    0    0  0.26164918950E+02 -0.34943718526E+02 -0.43375988017E+02  0.61539856585E+02  0.10566000000E+00 0. -1.
         22    1    1    0    0    0 -0.19787974422E+02  0.13572364624E+02  0.19950784706E+02  0.31205878029E+02  0.00000000000E+00 0. -1.
</event>
<event>
 5    1  0.1254496E-009  0.9118800E+02  0.7815553E-02  0.1125453E+00
         25   -1    0    0    0    0  0.00000000000E+00  0.00000000000E+00  0.99999998245E-14  0.12509000000E+03  0.12509000000E+03 0.  0.
        -13    1    3    3    0    0  0.25645419210E+02 -0.33592209454E+02 -0.29358489589E+02  0.51459266779E+02  0.10566000000E+00 0. -1.
         23    2    1    0    0    0 -0.23378308797E+01  0.11894991144E+01 -0.28867867940E+02  0.96103207132E+02  0.91627464552E+02 0.  0.
         13    1    3    3    0    0 -0.27983250090E+02  0.34781708569E+02  0.49062164897E+00  0.44643940352E+02  0.10566000000E+00 0.  1.
         22    1    1    0    0    0  0.23378308797E+01 -0.11894991144E+01  0.28867867940E+02  0.28986792868E+02  0.00000000000E+00 0.  1.
</event>
<event>
 5    1  0.1254496E-009  0.9118800E+02  0.7815553E-02  0.1125453E+00
         25   -1    0    0    0    0  0.00000000000E+00  0.00000000000E+00  0.99999998245E-14  0.12509000000E+03  0.12509000000E+03 0.  0.
        -13    1    3    3    0    0 -0.49629424141E+02  0.26524481690E+02 -0.13061389550E+02  0.57768840481E+02  0.10566000000E+00 0.  1.
         23    2    1    0    0    0 -0.11686046228E+02  0.21748123576E+02 -0.15244050808E+02  0.96074045069E+02  0.91587643792E+02 0.  0.
         13    1    3    3    0    0  0.37943377913E+02 -0.47763581139E+01 -0.21826612579E+01  0.38305204588E+02  0.10566000000E+00 0. -1.
         22    1    1    0    0    0  0.11686046228E+02 -0.21748123576E+02  0.15244050808E+02  0.29015954931E+02  0.00000000000E+00 0.  1.
</event>
<event>
 5    1  0.1254496E-009  0.9118800E+02  0.7815553E-02  0.1125453E+00
         25   -1    0    0    0    0  0.00000000000E+00  0.00000000000E+00  0.99999998245E-14  0.12509000000E+03  0.12509000000E+03 0.  0.
        -13    1    3    3    0    0 -0.53094977843E+02  0.13398373233E+02  0.12865028343E+02  0.56250450626E+02  0.10566000000E+00 0. -1.
         23    2    1    0    0    0 -0.36529313097E+02 -0.57211254506E+01 -0.57658060471E+01  0.87668528742E+02  0.79280542509E+02 0.  0.
         13    1    3    3    0    0  0.16565664745E+02 -0.19119498683E+02 -0.18630834390E+02  0.31418078115E+02  0.10566000000E+00 0.  1.
         22    1    1    0    0    0  0.36529313097E+02  0.57211254506E+01  0.57658060471E+01  0.37421471258E+02  0.00000000000E+00 0. -1.
</event>
<event>
 5    1  0.1254496E-009  0.9118800E+02  0.7815553E-02  0.1125453E+00
         25   -1    0    0    0    0  0.00000000000E+00  0.00000000000E+00  0.99999998245E-14  0.12509000000E+03  0.12509000000E+03 0.  0.
        -13    1    3    3    0    0  0.88812296108E+00  0.27122419749E+02 -0.35136864027E+02  0.44396224987E+02  0.10566000000E+00 0. -1.
         23    2    1    0    0    0 -0.23357610940E+02  0.19328474286E+02  0.73156584511E+01  0.93902073400E+02  0.88571511352E+02 0.  0.
         13    1    3    3    0    0 -0.24245733901E+02 -0.77939454628E+01  0.42452522478E+02  0.49505848413E+02  0.10566000000E+00 0.  1.
         22    1    1    0    0    0  0.23357610940E+02 -0.19328474286E+02 -0.73156584511E+01  0.31187926600E+02  0.00000000000E+00 0.  1.
</event>
<event>
 5    1  0.1254496E-009  0.9118800E+02  0.7815553E-02  0.1125453E+00
         25   -1    0    0    0    0  0.00000000000E+00  0.00000000000E+00  0.99999998245E-14  0.12509000000E+03  0.12509000000E+03 0.  0.
        -13    1    3    3    0    0  0.25446033489E+02 -0.35353622727E+02  0.31177386079E+02  0.53566965819E+02  0.10566000000E+00 0. -1.
         23    2    1    0    0    0  0.10788222382E+02  0.53119402891E+01  0.25151495069E+02  0.97211690223E+02  0.93128473412E+02 0.  0.
         13    1    3    3    0    0 -0.14657811107E+02  0.40665563016E+02 -0.60258910101E+01  0.43644724405E+02  0.10566000000E+00 0.  1.
         22    1    1    0    0    0 -0.10788222382E+02 -0.53119402891E+01 -0.25151495069E+02  0.27878309777E+02  0.00000000000E+00 0. -1.
</event>
<event>
 5    1  0.1254496E-009  0.9118800E+02  0.7815553E-02  0.1125453E+00
         25   -1    0    0    0    0  0.00000000000E+00  0.00000000000E+00  0.99999998245E-14  0.12509000000E+03  0.12509000000E+03 0.  0.
        -13    1    3    3    0    0 -0.31303103740E+02  0.19727564934E+01  0.47466824726E+02  0.56893643631E+02  0.10566000000E+00 0.  1.
         23    2    1    0    0    0  0.21214306562E+01  0.92410910637E+01  0.26334148880E+02  0.97100973055E+02  0.92979639379E+02 0.  0.
         13    1    3    3    0    0  0.33424534396E+02  0.72683345702E+01 -0.21132675846E+02  0.40207329425E+02  0.10566000000E+00 0. -1.
         22    1    1    0    0    0 -0.21214306562E+01 -0.92410910637E+01 -0.26334148880E+02  0.27989026945E+02  0.00000000000E+00 0.  1.
</event>
<event>
 5    1  0.1254496E-009  0.9118800E+02  0.7815553E-02  0.1125453E+00
         25   -1    0    0    0    0  0.00000000000E+00  0.00000000000E+00  0.99999998245E-14  0.12509000000E+03  0.12509000000E+03 0.  0.
        -13    1    3    3    0    0 -0.11092144318E+02  0.48101293879E+02 -0.24785120870E+02  0.55236613935E+02  0.10566000000E+00 0.  1.
         23    2    1    0    0    0 -0.25424229106E+02  0.15910724279E+02 -0.13110200684E+02  0.92357448393E+02  0.86362482242E+02 0.  0.
         13    1    3    3    0    0 -0.14332084788E+02 -0.32190569600E+02  0.11674920185E+02  0.37120834459E+02  0.10566000000E+00 0. -1.
         22    1    1    0    0    0  0.25424229106E+02 -0.15910724279E+02  0.13110200684E+02  0.32732551607E+02  0.00000000000E+00 0.  1.
</event>
<event>
 5    1  0.1254496E-009  0.9118800E+02  0.7815553E-02  0.1125453E+00
         25   -1    0    0    0    0  0.00000000000E+00  0.00000000000E+00  0.99999998245E-14  0.12509000000E+03  0.12509000000E+03 0.  0.
        -13    1    3    3    0    0  0.25479966152E+02 -0.27191485636E+02 -0.28749725386E+02  0.47065522838E+02  0.10566000000E+00 0.  1.
         23    2    1    0    0    0 -0.18312723803E+02  0.26670362162E+01 -0.13385071465E+02  0.10225079963E+03  0.99667431753E+02 0.  0.
         13    1    3    3    0    0 -0.43792689955E+02  0.29858521853E+02  0.15364653921E+02  0.55185276795E+02  0.10566000000E+00 0. -1.
         22    1    1    0    0    0  0.18312723803E+02 -0.26670362162E+01  0.13385071465E+02  0.22839200367E+02  0.00000000000E+00 0. -1.
</event>
<event>
 5    1  0.1254496E-009  0.9118800E+02  0.7815553E-02  0.1125453E+00
         25   -1    0    0    0    0  0.00000000000E+00  0.00000000000E+00  0.99999998245E-14  0.12509000000E+03  0.12509000000E+03 0.  0.
        -13    1    3    3    0    0 -0.51711107113E+01 -0.37607230384E+02 -0.34774282080E+02  0.51481122961E+02  0.10566000000E+00 0. -1.
         23    2    1    0    0    0  0.12879634101E+02 -0.26241780921E+02  0.38512086586E+01  0.95605294666E+02  0.90945173152E+02 0.  0.
         13    1    3    3    0    0  0.18050744812E+02  0.11365449462E+02  0.38625490739E+02  0.44124171705E+02  0.10566000000E+00 0.  1.
         22    1    1    0    0    0 -0.12879634101E+02  0.26241780921E+02 -0.38512086586E+01  0.29484705334E+02  0.00000000000E+00 0. -1.
</event>
<event>
 5    1  0.1254496E-009  0.9118800E+02  0.7815553E-02  0.1125453E+00
         25   -1    0    0    0    0  0.00000000000E+00  0.00000000000E+00  0.99999998245E-14  0.12509000000E+03  0.12509000000E+03 0.  0.
        -13    1    3    3    0    0 -0.46486280489E+02 -0.32920875164E+02  0.21614451008E+02  0.60925806943E+02  0.10566000000E+00 0.  1.
         23    2    1    0    0    0 -0.24823410380E+02 -0.18687398119E+02  0.10708013448E+01  0.94000336656E+02  0.88710180501E+02 0.  0.
         13    1    3    3    0    0  0.21662870109E+02  0.14233477045E+02 -0.20543649663E+02  0.33074529712E+02  0.10566000000E+00 0. -1.
         22    1    1    0    0    0  0.24823410380E+02  0.18687398119E+02 -0.10708013448E+01  0.31089663344E+02  0.00000000000E+00 0.  1.
</event>
<event>
 5    1  0.1254496E-009  0.9118800E+02  0.7815553E-02  0.1125453E+00
         25   -1    0    0    0    0  0.00000000000E+00  0.00000000000E+00  0.99999998245E-14  0.12509000000E+03  0.12509000000E+03 0.  0.
        -13    1    3    3    0    0 -0.11616656447E+02  0.29470624075E+02 -0.25455927941E+02  0.40638403287E+02  0.10566000000E+00 0. -1.
         23    2    1    0    0    0  0.28779803133E+01  0.14029873874E+02  0.25512868385E+02  0.95832068001E+02  0.91256554134E+02 0.  0.
         13    1    3    3    0    0  0.14494636760E+02 -0.15440750200E+02  0.50968796326E+02  0.55193664714E+02  0.10566000000E+00 0.  1.
         22    1    1    0    0    0 -0.28779803133E+01 -0.14029873874E+02 -0.25512868385E+02  0.29257931999E+02  0.00000000000E+00 0.  1.
</event>
<event>
 5    1  0.1254496E-009  0.9118800E+02  0.7815553E-02  0.1125453E+00
         25   -1    0    0    0    0  0.00000000000E+00  0.00000000000E+00  0.99999998245E-14  0.12509000000E+03  0.12509000000E+03 0.  0.
        -13    1    3    3    0    0  0.33701667439E+02  0.24240034663E+02 -0.26412025108E+01  0.41597701659E+02  0.10566000000E+00 0.  1.
         23    2    1    0    0    0  0.11985042007E+02 -0.24664790067E+02  0.87475610133E+01  0.96306099558E+02  0.91904036296E+02 0.  0.
         13    1    3    3    0    0 -0.21716625432E+02 -0.48904824730E+02  0.11388763524E+02  0.54708397899E+02  0.10566000000E+00 0. -1.
         22    1    1    0    0    0 -0.11985042007E+02  0.24664790067E+02 -0.87475610133E+01  0.28783900442E+02  0.00000000000E+00 0. -1.
</event>
<event>
 5    1  0.1254496E-009  0.9118800E+02  0.7815553E-02  0.1125453E+00
         25   -1    0    0    0    0  0.00000000000E+00  0.00000000000E+00  0.99999998245E-14  0.12509000000E+03  0.12509000000E+03 0.  0.
        -13    1    3    3    0    0  0.16873318283E+02 -0.15909671302E+02  0.26200768816E+02  0.34990255235E+02  0.10566000000E+00 0. -1.
         23    2    1    0    0    0 -0.25054644086E+02  0.13016155668E+02 -0.72629368897E+01  0.95936856929E+02  0.91400080779E+02 0.  0.
         13    1    3    3    0    0 -0.41927962369E+02  0.28925826970E+02 -0.33463705706E+02  0.60946601693E+02  0.10566000000E+00 0.  1.
         22    1    1    0    0    0  0.25054644086E+02 -0.13016155668E+02  0.72629368897E+01  0.29153143071E+02  0.00000000000E+00 0.  1.
</event>
<event>
 5    1  0.1254496E-009  0.9118800E+02  0.7815553E-02  0.1125453E+00
         25   -1    0    0    0    0  0.00000000000E+00  0.00000000000E+00  0.99999998245E-14  0.12509000000E+03  0.12509000000E+03 0.  0.
        -13    1    3    3    0    0  0.14753904804E+02 -0.52668577745E+02  0.69201997707E+01  0.55132178603E+02  0.10566000000E+00 0.  1.
         23    2    1    0    0    0  0.70524727025E+01 -0.21977592779E+02 -0.18330735878E+02  0.95615132173E+02  0.90958703086E+02 0.  0.
         13    1    3    3    0    0 -0.77014321015E+01  0.30690984966E+02 -0.25250935649E+02  0.40482953570E+02  0.10566000000E+00 0. -1.
         22    1    1    0    0    0 -0.70524727025E+01  0.21977592779E+02  0.18330735878E+02  0.29474867827E+02  0.00000000000E+00 0.  1.
</event>
<event>
 5    1  0.1254496E-009  0.9118800E+02  0.7815553E-02  0.1125453E+00
         25   -1    0    0    0    0  0.00000000000E+00  0.00000000000E+00  0.99999998245E-14  0.12509000000E+03  0.12509000000E+03 0.  0.
        -13    1    3    3    0    0  0.20472217413E+02  0.30267812490E+02  0.62444217788E+01  0.37070960685E+02  0.10566000000E+00 0.  1.
         23    2    1    0    0    0 -0.16007605049E+02 -0.34058964456E+01  0.29083237372E+02  0.91718181859E+02  0.85431531869E+02 0.  0.
         13    1    3    3    0    0 -0.36479822461E+02 -0.33673708935E+02  0.22838815594E+02  0.54647221174E+02  0.10566000000E+00 0. -1.
         22    1    1    0    0    0  0.16007605049E+02  0.34058964456E+01 -0.29083237372E+02  0.33371818141E+02  0.00000000000E+00 0. -1.
</event>
<event>
 5    1  0.1254496E-009  0.9118800E+02  0.7815553E-02  0.1125453E+00
         25   -1    0    0    0    0  0.00000000000E+00  0.00000000000E+00  0.99999998245E-14  0.12509000000E+03  0.12509000000E+03 0.  0.
        -13    1    3    3    0    0  0.10617429272E+02 -0.17029736990E+02  0.33246853379E+02  0.38834342661E+02  0.10566000000E+00 0.  1.
         23    2    1    0    0    0 -0.52784812919E+01  0.12033304567E+02 -0.19771230158E+02  0.10135049020E+03  0.98530997856E+02 0.  0.
         13    1    3    3    0    0 -0.15895910564E+02  0.29063041557E+02 -0.53018083537E+02  0.62516147539E+02  0.10566000000E+00 0. -1.
         22    1    1    0    0    0  0.52784812919E+01 -0.12033304567E+02  0.19771230158E+02  0.23739509799E+02  0.00000000000E+00 0. -1.
</event>
<event>
 5    1  0.1254496E-009  0.9118800E+02  0.7815553E-02  0.1125453E+00
         25   -1    0    0    0    0  0.00000000000E+00  0.00000000000E+00  0.99999998245E-14  0.12509000000E+03  0.12509000000E+03 0.  0.
        -13    1    3    3    0    0  0.22655867328E+02 -0.14576373714E+02 -0.41781480193E+02  0.49713803377E+02  0.10566000000E+00 0.  1.
         23    2    1    0    0    0 -0.13551216147E+02 -0.21757245722E+02 -0.14248761426E+02  0.95763554551E+02  0.91162590889E+02 0.  0.
         13    1    3    3    0    0 -0.36207083474E+02 -0.71808720080E+01  0.27532718767E+02  0.46049751175E+02  0.10566000000E+00 0. -1.
         22    1    1    0    0    0  0.13551216147E+02  0.21757245722E+02  0.14248761426E+02  0.29326445449E+02  0.00000000000E+00 0.  1.
</event>
<event>
 5    1  0.1254496E-009  0.9118800E+02  0.7815553E-02  0.1125453E+00
         25   -1    0    0    0    0  0.00000000000E+00  0.00000000000E+00  0.99999998245E-14  0.12509000000E+03  0.12509000000E+03 0.  0.
        -13    1    3    3    0    0 -0.55216801776E+01 -0.34175958197E+02 -0.16309586084E+02  0.38268770988E+02  0.10566000000E+00 0.  1.
         23    2    1    0    0    0 -0.25061845413E+02  0.12446648804E+02  0.10146175661E+02  0.95324919075E+02  0.90558711089E+02 0.  0.
         13    1    3    3    0    0 -0.19540165235E+02  0.46622607000E+02  0.26455761745E+02  0.57056148087E+02  0.10566000000E+00 0. -1.
         22    1    1    0    0    0  0.25061845413E+02 -0.12446648804E+02 -0.10146175661E+02  0.29765080925E+02  0.00000000000E+00 0. -1.
</event>
<event>
 5    1  0.1254496E-009  0.9118800E+02  0.7815553E-02  0.1125453E+00
         25   -1    0    0    0    0  0.00000000000E+00  0.00000000000E+00  0.99999998245E-14  0.12509000000E+03  0.12509000000E+03 0.  0.
        -13    1    3    3    0    0  0.13039572889E+02 -0.23845433893E+02  0.27139379979E+02  0.38408232039E+02  0.10566000000E+00 0. -1.
         23    2    1    0    0    0 -0.19029310647E+02  0.20010372409E+02  0.52537737281E+01  0.96980716728E+02  0.92817711731E+02 0.  0.
         13    1    3    3    0    0 -0.32068883536E+02  0.43855806303E+02 -0.21885606251E+02  0.58572484689E+02  0.10566000000E+00 0.  1.
         22    1    1    0    0    0  0.19029310647E+02 -0.20010372409E+02 -0.52537737281E+01  0.28109283272E+02  0.00000000000E+00 0.  1.
</event>
<event>
 5    1  0.1254496E-009  0.9118800E+02  0.7815553E-02  0.1125453E+00
         25   -1    0    0    0    0  0.00000000000E+00  0.00000000000E+00  0.99999998245E-14  0.12509000000E+03  0.12509000000E+03 0.  0.
        -13    1    3    3    0    0  0.27981209026E+02  0.17069475761E+02  0.15455642907E+02  0.36238144586E+02  0.10566000000E+00 0. -1.
         23    2    1    0    0    0 -0.27071038195E+02 -0.29690253591E+01  0.13095840985E+02  0.94871507787E+02  0.89930226944E+02 0.  0.
         13    1    3    3    0    0 -0.55052247221E+02 -0.20038501120E+02 -0.23598019221E+01  0.58633363202E+02  0.10566000000E+00 0.  1.
         22    1    1    0    0    0  0.27071038195E+02  0.29690253591E+01 -0.13095840985E+02  0.30218492213E+02  0.00000000000E+00 0.  1.
</event>
<event>
 5    1  0.1254496E-009  0.9118800E+02  0.7815553E-02  0.1125453E+00
         25   -1    0    0    0    0  0.00000000000E+00  0.00000000000E+00  0.99999998245E-14  0.12509000000E+03  0.12509000000E+03 0.  0.
        -13    1    3    3    0    0  0.48137307310E+02  0.54189930204E+00 -0.59143052268E+01  0.48502414169E+02  0.10566000000E+00 0. -1.
         23    2    1    0    0    0  0.23426203491E+02 -0.79790998162E+01  0.25625019787E+02  0.89465644807E+02  0.82067087908E+02 0.  0.
         13    1    3    3    0    0 -0.24711103819E+02 -0.85209991183E+01  0.31539325014E+02  0.40963230638E+02  0.10566000000E+00 0.  1.
         22    1    1    0    0    0 -0.23426203491E+02  0.79790998162E+01 -0.25625019787E+02  0.35624355193E+02  0.00000000000E+00 0. -1.
</event>
<event>
 5    1  0.1254496E-009  0.9118800E+02  0.7815553E-02  0.1125453E+00
         25   -1    0    0    0    0  0.00000000000E+00  0.00000000000E+00  0.99999998245E-14  0.12509000000E+03  0.12509000000E+03 0.  0.
        -13    1    3    3    0    0 -0.57229548382E+02 -0.10134351380E+02  0.13095916892E+02  0.59577180944E+02  0.10566000000E+00 0. -1.
         23    2    1    0    0    0 -0.19969059976E+02 -0.19335263088E+01  0.18116278470E+02  0.98058510475E+02  0.94259058189E+02 0.  0.
         13    1    3    3    0    0  0.37260488406E+02  0.82008250712E+01  0.50203615779E+01  0.38481329531E+02  0.10566000000E+00 0.  1.
         22    1    1    0    0    0  0.19969059976E+02  0.19335263088E+01 -0.18116278470E+02  0.27031489525E+02  0.00000000000E+00 0. -1.
</event>
<event>
 5    1  0.1254496E-009  0.9118800E+02  0.7815553E-02  0.1125453E+00
         25   -1    0    0    0    0  0.00000000000E+00  0.00000000000E+00  0.99999998245E-14  0.12509000000E+03  0.12509000000E+03 0.  0.
        -13    1    3    3    0    0  0.36839291423E+01 -0.59642881267E+02 -0.78239390287E+01  0.60266655837E+02  0.10566000000E+00 0.  1.
         23    2    1    0    0    0 -0.64539619595E+01 -0.28195234814E+02  0.50506782274E+01  0.95727877431E+02  0.91113622888E+02 0.  0.
         13    1    3    3    0    0 -0.10137891102E+02  0.31447646453E+02  0.12874617256E+02  0.35461221594E+02  0.10566000000E+00 0. -1.
         22    1    1    0    0    0  0.64539619595E+01  0.28195234814E+02 -0.50506782274E+01  0.29362122569E+02  0.00000000000E+00 0.  1.
</event>
<event>
 5    1  0.1254496E-009  0.9118800E+02  0.7815553E-02  0.1125453E+00
         25   -1    0    0    0    0  0.00000000000E+00  0.00000000000E+00  0.99999998245E-14  0.12509000000E+03  0.12509000000E+03 0.  0.
        -13    1    3    3    0    0 -0.95587737513E+01  0.39149429390E+02 -0.88908103897E+01  0.41268700617E+02  0.10566000000E+00 0. -1.
         23    2    1    0    0    0 -0.21002161479E+02 -0.14967983506E+02 -0.11946695834E+02  0.96667212340E+02  0.92394237283E+02 0.  0.
         13    1    3    3    0    0 -0.11443387728E+02 -0.54117412896E+02 -0.30558854440E+01  0.55398511723E+02  0.10566000000E+00 0.  1.
         22    1    1    0    0    0  0.21002161479E+02  0.14967983506E+02  0.11946695834E+02  0.28422787660E+02  0.00000000000E+00 0.  1.
</event>
<event>
 5    1  0.1254496E-009  0.9118800E+02  0.7815553E-02  0.1125453E+00
         25   -1    0    0    0    0  0.00000000000E+00  0.00000000000E+00  0.99999998245E-14  0.12509000000E+03  0.12509000000E+03 0.  0.
        -13    1    3    3    0    0 -0.22804977792E+02  0.25697102845E+02  0.38487180482E+02  0.51591494766E+02  0.10566000000E+00 0. -1.
         23    2    1    0    0    0  0.15296947893E+02  0.17997804657E+02  0.16803551438E+02  0.96102469435E+02  0.91626457442E+02 0.  0.
         13    1    3    3    0    0  0.38101925685E+02 -0.76992981881E+01 -0.21683629044E+02  0.44510974669E+02  0.10566000000E+00 0.  1.
         22    1    1    0    0    0 -0.15296947893E+02 -0.17997804657E+02 -0.16803551438E+02  0.28987530565E+02  0.00000000000E+00 0. -1.
</event>
<event>
 5    1  0.1254496E-009  0.9118800E+02  0.7815553E-02  0.1125453E+00
         25   -1    0    0    0    0  0.00000000000E+00  0.00000000000E+00  0.99999998245E-14  0.12509000000E+03  0.12509000000E+03 0.  0.
        -13    1    3    3    0    0  0.12808938053E+02 -0.38943601012E+02 -0.10626792473E+02  0.42351066529E+02  0.10566000000E+00 0. -1.
         23    2    1    0    0    0 -0.23858026482E+02  0.52398372241E+01 -0.47106201011E+00  0.10065880639E+03  0.97648922590E+02 0.  0.
         13    1    3    3    0    0 -0.36666964535E+02  0.44183438236E+02  0.10155730463E+02  0.58307739862E+02  0.10566000000E+00 0.  1.
         22    1    1    0    0    0  0.23858026482E+02 -0.52398372241E+01  0.47106201011E+00  0.24431193609E+02  0.00000000000E+00 0.  1.
</event>
<event>
 5    1  0.1254496E-009  0.9118800E+02  0.7815553E-02  0.1125453E+00
         25   -1    0    0    0    0  0.00000000000E+00  0.00000000000E+00  0.99999998245E-14  0.12509000000E+03  0.12509000000E+03 0.  0.
        -13    1    3    3    0    0 -0.45627852753E+02  0.23857140328E+02  0.10538401243E+02  0.52556000193E+02  0.10566000000E+00 0.  1.
         23    2    1    0    0    0 -0.10190800540E+02  0.22958110679E+02 -0.14621680958E+02  0.96025918806E+02  0.91521889550E+02 0.  0.
         13    1    3    3    0    0  0.35437052213E+02 -0.89902964849E+00 -0.25160082201E+02  0.43469918613E+02  0.10566000000E+00 0. -1.
         22    1    1    0    0    0  0.10190800540E+02 -0.22958110679E+02  0.14621680958E+02  0.29064081194E+02  0.00000000000E+00 0. -1.
</event>
<event>
 5    1  0.1254496E-009  0.9118800E+02  0.7815553E-02  0.1125453E+00
         25   -1    0    0    0    0  0.00000000000E+00  0.00000000000E+00  0.99999998245E-14  0.12509000000E+03  0.12509000000E+03 0.  0.
        -13    1    3    3    0    0  0.22272705219E+02  0.51221757840E+02 -0.24400266709E+02  0.60951833881E+02  0.10566000000E+00 0. -1.
         23    2    1    0    0    0  0.12736015803E+02  0.26897490860E+02 -0.21803733857E+01  0.95249840128E+02  0.90454944050E+02 0.  0.
         13    1    3    3    0    0 -0.95366894160E+01 -0.24324266980E+02  0.22219893323E+02  0.34298006246E+02  0.10566000000E+00 0.  1.
         22    1    1    0    0    0 -0.12736015803E+02 -0.26897490860E+02  0.21803733857E+01  0.29840159872E+02  0.00000000000E+00 0. -1.
</event>
<event>
 5    1  0.1254496E-009  0.9118800E+02  0.7815553E-02  0.1125453E+00
         25   -1    0    0    0    0  0.00000000000E+00  0.00000000000E+00  0.99999998245E-14  0.12509000000E+03  0.12509000000E+03 0.  0.
        -13    1    3    3    0    0  0.49585515550E+02  0.36698500748E+02 -0.16707787187E+00  0.61689078357E+02  0.10566000000E+00 0.  1.
         23    2    1    0    0    0  0.20170002772E+02  0.21041052324E+02 -0.54770397278E+01  0.95432743571E+02  0.90707528280E+02 0.  0.
         13    1    3    3    0    0 -0.29415512777E+02 -0.15657448425E+02 -0.53099618559E+01  0.33743665214E+02  0.10566000000E+00 0. -1.
         22    1    1    0    0    0 -0.20170002772E+02 -0.21041052324E+02  0.54770397278E+01  0.29657256429E+02  0.00000000000E+00 0.  1.
</event>
<event>
 5    1  0.1254496E-009  0.9118800E+02  0.7815553E-02  0.1125453E+00
         25   -1    0    0    0    0  0.00000000000E+00  0.00000000000E+00  0.99999998245E-14  0.12509000000E+03  0.12509000000E+03 0.  0.
        -13    1    3    3    0    0  0.79920221387E+01 -0.29347575787E+02 -0.37286603495E+02  0.48119170677E+02  0.10566000000E+00 0.  1.
         23    2    1    0    0    0 -0.15534133049E+02 -0.22418615689E+02  0.53398647098E+01  0.97297595028E+02  0.93243789199E+02 0.  0.
         13    1    3    3    0    0 -0.23526155188E+02  0.69289600983E+01  0.42626468205E+02  0.49178424351E+02  0.10566000000E+00 0. -1.
         22    1    1    0    0    0  0.15534133049E+02  0.22418615689E+02 -0.53398647098E+01  0.27792404972E+02  0.00000000000E+00 0.  1.
</event>
<event>
 5    1  0.1254496E-009  0.9118800E+02  0.7815553E-02  0.1125453E+00
         25   -1    0    0    0    0  0.00000000000E+00  0.00000000000E+00  0.99999998245E-14  0.12509000000E+03  0.12509000000E+03 0.  0.
        -13    1    3    3    0    0 -0.37033398947E+02 -0.35191070415E+02  0.35126801913E+02  0.61998285873E+02  0.10566000000E+00 0. -1.
         23    2    1    0    0    0 -0.13166076548E+02 -0.15606963584E+02  0.20479751640E+02  0.96170402645E+02  0.91719154126E+02 0.  0.
         13    1    3    3    0    0  0.23867322399E+02  0.19584106831E+02 -0.14647050273E+02  0.34172116771E+02  0.10566000000E+00 0.  1.
         22    1    1    0    0    0  0.13166076548E+02  0.15606963584E+02 -0.20479751640E+02  0.28919597355E+02  0.00000000000E+00 0. -1.
</event>
<event>
 5    1  0.1254496E-009  0.9118800E+02  0.7815553E-02  0.1125453E+00
         25   -1    0    0    0    0  0.00000000000E+00  0.00000000000E+00  0.99999998245E-14  0.12509000000E+03  0.12509000000E+03 0.  0.
        -13    1    3    3    0    0 -0.30236413501E+02  0.49826468771E+01 -0.50168924832E+02  0.58787750886E+02  0.10566000000E+00 0.  1.
         23    2    1    0    0    0 -0.19891611340E+02  0.14353676915E+02 -0.15724644624E+02  0.95952932694E+02  0.91422079397E+02 0.  0.
         13    1    3    3    0    0  0.10344802162E+02  0.93710300378E+01  0.34444280208E+02  0.37165181808E+02  0.10566000000E+00 0. -1.
         22    1    1    0    0    0  0.19891611340E+02 -0.14353676915E+02  0.15724644624E+02  0.29137067306E+02  0.00000000000E+00 0.  1.
</event>
<event>
 5    1  0.1254496E-009  0.9118800E+02  0.7815553E-02  0.1125453E+00
         25   -1    0    0    0    0  0.00000000000E+00  0.00000000000E+00  0.99999998245E-14  0.12509000000E+03  0.12509000000E+03 0.  0.
        -13    1    3    3    0    0 -0.19020259563E+01 -0.24595771531E+02 -0.20888695426E+02  0.32325198230E+02  0.10566000000E+00 0. -1.
         23    2    1    0    0    0 -0.85256665468E+01  0.26491092291E+02  0.13394763680E+02  0.94204976851E+02  0.88998275313E+02 0.  0.
         13    1    3    3    0    0 -0.66236405905E+01  0.51086863823E+02  0.34283459106E+02  0.61879778621E+02  0.10566000000E+00 0.  1.
         22    1    1    0    0    0  0.85256665468E+01 -0.26491092291E+02 -0.13394763680E+02  0.30885023149E+02  0.00000000000E+00 0.  1.
</event>
<event>
 5    1  0.1254496E-009  0.9118800E+02  0.7815553E-02  0.1125453E+00
         25   -1    0    0    0    0  0.00000000000E+00  0.00000000000E+00  0.99999998245E-14  0.12509000000E+03  0.12509000000E+03 0.  0.
        -13    1    3    3    0    0  0.22470066216E+02  0.32986949072E+02 -0.39996494043E+02  0.56504631532E+02  0.10566000000E+00 0.  1.
         23    2    1    0    0    0 -0.66296620904E+01  0.10101082761E+02 -0.26598971186E+02  0.95875456352E+02  0.91316009386E+02 0.  0.
         13    1    3    3    0    0 -0.29099728306E+02 -0.22885866311E+02  0.13397522857E+02  0.39370824820E+02  0.10566000000E+00 0. -1.
         22    1    1    0    0    0  0.66296620904E+01 -0.10101082761E+02  0.26598971186E+02  0.29214543648E+02  0.00000000000E+00 0.  1.
</event>
<event>
 5    1  0.1254496E-009  0.9118800E+02  0.7815553E-02  0.1125453E+00
         25   -1    0    0    0    0  0.00000000000E+00  0.00000000000E+00  0.99999998245E-14  0.12509000000E+03  0.12509000000E+03 0.  0.
        -13    1    3    3    0    0 -0.21384022310E+02 -0.26181100540E+02 -0.18287744296E+02  0.38434088920E+02  0.10566000000E+00 0.  1.
         23    2    1    0    0    0  0.15077058610E+02  0.19089907178E+02 -0.14688410405E+02  0.96673602399E+02  0.92402888202E+02 0.  0.
         13    1    3    3    0    0  0.36461080920E+02  0.45271007718E+02  0.35993338911E+01  0.58239513478E+02  0.10566000000E+00 0. -1.
         22    1    1    0    0    0 -0.15077058610E+02 -0.19089907178E+02  0.14688410405E+02  0.28416397601E+02  0.00000000000E+00 0. -1.
</event>
<event>
 5    1  0.1254496E-009  0.9118800E+02  0.7815553E-02  0.1125453E+00
         25   -1    0    0    0    0  0.00000000000E+00  0.00000000000E+00  0.99999998245E-14  0.12509000000E+03  0.12509000000E+03 0.  0.
        -13    1    3    3    0    0 -0.46520789707E+02  0.84261113183E+01  0.29066504549E+02  0.55498252924E+02  0.10566000000E+00 0.  1.
         23    2    1    0    0    0 -0.29532500423E+02 -0.60813277500E+01 -0.32267410765E+01  0.94765703035E+02  0.89782935379E+02 0.  0.
         13    1    3    3    0    0  0.16988289284E+02 -0.14507439068E+02 -0.32293245625E+02  0.39267450110E+02  0.10566000000E+00 0. -1.
         22    1    1    0    0    0  0.29532500423E+02  0.60813277500E+01  0.32267410765E+01  0.30324296965E+02  0.00000000000E+00 0.  1.
</event>
<event>
 5    1  0.1254496E-009  0.9118800E+02  0.7815553E-02  0.1125453E+00
         25   -1    0    0    0    0  0.00000000000E+00  0.00000000000E+00  0.99999998245E-14  0.12509000000E+03  0.12509000000E+03 0.  0.
        -13    1    3    3    0    0  0.34966924593E+02  0.17860333982E+02  0.33758473862E+02  0.51781493479E+02  0.10566000000E+00 0. -1.
         23    2    1    0    0    0  0.28624965589E+02 -0.12096662520E+02  0.53386411145E+01  0.93558761711E+02  0.88085316057E+02 0.  0.
         13    1    3    3    0    0 -0.63419590040E+01 -0.29956996502E+02 -0.28419832748E+02  0.41777268232E+02  0.10566000000E+00 0.  1.
         22    1    1    0    0    0 -0.28624965589E+02  0.12096662520E+02 -0.53386411145E+01  0.31531238289E+02  0.00000000000E+00 0. -1.
</event>
<event>
 5    1  0.1254496E-009  0.9118800E+02  0.7815553E-02  0.1125453E+00
         25   -1    0    0    0    0  0.00000000000E+00  0.00000000000E+00  0.99999998245E-14  0.12509000000E+03  0.12509000000E+03 0.  0.
        -13    1    3    3    0    0 -0.45785691466E+02 -0.32829579984E+02 -0.24696817373E+02  0.61514671562E+02  0.10566000000E+00 0. -1.
         23    2    1    0    0    0 -0.16123396269E+02 -0.21379276355E+02 -0.11845509710E+02  0.95809401219E+02  0.91225478332E+02 0.  0.
         13    1    3    3    0    0  0.29662295197E+02  0.11450303629E+02  0.12851307663E+02  0.34294729657E+02  0.10566000000E+00 0.  1.
         22    1    1    0    0    0  0.16123396269E+02  0.21379276355E+02  0.11845509710E+02  0.29280598781E+02  0.00000000000E+00 0. -1.
</event>
<event>
 5    1  0.1254496E-009  0.9118800E+02  0.7815553E-02  0.1125453E+00
         25   -1    0    0    0    0  0.00000000000E+00  0.00000000000E+00  0.99999998245E-14  0.12509000000E+03  0.12509000000E+03 0.  0.
        -13    1    3    3    0    0  0.30945061536E+02  0.84637566625E+01  0.23675321026E+02  0.39871844703E+02  0.10566000000E+00 0.  1.
         23    2    1    0    0    0 -0.21724325547E+02  0.16942952263E+02  0.14343872601E+02  0.94029468243E+02  0.88751249372E+02 0.  0.
         13    1    3    3    0    0 -0.52669387083E+02  0.84791956001E+01 -0.93314484249E+01  0.54157623540E+02  0.10566000000E+00 0. -1.
         22    1    1    0    0    0  0.21724325547E+02 -0.16942952263E+02 -0.14343872601E+02  0.31060531757E+02  0.00000000000E+00 0. -1.
</event>
<event>
 5    1  0.1254496E-009  0.9118800E+02  0.7815553E-02  0.1125453E+00
         25   -1    0    0    0    0  0.00000000000E+00  0.00000000000E+00  0.99999998245E-14  0.12509000000E+03  0.12509000000E+03 0.  0.
        -13    1    3    3    0    0 -0.20785168879E+02  0.69245062365E+01  0.37557972639E+02  0.43480852162E+02  0.10566000000E+00 0. -1.
         23    2    1    0    0    0 -0.75054423434E+01 -0.28080974537E+02  0.70607564187E+00  0.96014729777E+02  0.91506595367E+02 0.  0.
         13    1    3    3    0    0  0.13279726535E+02 -0.35005480773E+02 -0.36851896997E+02  0.52533877616E+02  0.10566000000E+00 0.  1.
         22    1    1    0    0    0  0.75054423434E+01  0.28080974537E+02 -0.70607564187E+00  0.29075270223E+02  0.00000000000E+00 0.  1.
</event>
<event>
 5    1  0.1254496E-009  0.9118800E+02  0.7815553E-02  0.1125453E+00
         25   -1    0    0    0    0  0.00000000000E+00  0.00000000000E+00  0.99999998245E-14  0.12509000000E+03  0.12509000000E+03 0.  0.
        -13    1    3    3    0    0 -0.62263364040E+02  0.17606876483E+00 -0.29241560390E+01  0.62332329929E+02  0.10566000000E+00 0.  1.
         23    2    1    0    0    0 -0.24062310008E+02  0.32096265151E+01 -0.27967167592E+01  0.10065400012E+03  0.97642765483E+02 0.  0.
         13    1    3    3    0    0  0.38201054032E+02  0.30335577503E+01  0.12743927984E+00  0.38321670196E+02  0.10566000000E+00 0. -1.
         22    1    1    0    0    0  0.24062310008E+02 -0.32096265151E+01  0.27967167592E+01  0.24435999875E+02  0.00000000000E+00 0.  1.
</event>
<event>
 5    1  0.1254496E-009  0.9118800E+02  0.7815553E-02  0.1125453E+00
         25   -1    0    0    0    0  0.00000000000E+00  0.00000000000E+00  0.99999998245E-14  0.12509000000E+03  0.12509000000E+03 0.  0.
        -13    1    3    3    0    0  0.20986937706E+02 -0.50357198575E+02  0.68991076336E+01  0.54990070493E+02  0.10566000000E+00 0. -1.
         23    2    1    0    0    0  0.24252547615E+02 -0.10279547141E+02  0.13091990344E+02  0.95674776622E+02  0.91040691535E+02 0.  0.
         13    1    3    3    0    0  0.32656099086E+01  0.40077651434E+02  0.61928827103E+01  0.40684706129E+02  0.10566000000E+00 0.  1.
         22    1    1    0    0    0 -0.24252547615E+02  0.10279547141E+02 -0.13091990344E+02  0.29415223378E+02  0.00000000000E+00 0. -1.
</event>
<event>
 5    1  0.1254496E-009  0.9118800E+02  0.7815553E-02  0.1125453E+00
         25   -1    0    0    0    0  0.00000000000E+00  0.00000000000E+00  0.99999998245E-14  0.12509000000E+03  0.12509000000E+03 0.  0.
        -13    1    3    3    0    0  0.14424716770E+02 -0.10859909624E+02 -0.29424069593E+02  0.34522414840E+02  0.10566000000E+00 0.  1.
         23    2    1    0    0    0 -0.26143462356E+02  0.21683477321E+01  0.13995871302E+02  0.95356739679E+02  0.90602654668E+02 0.  0.
         13    1    3    3    0    0 -0.40568179126E+02  0.13028257356E+02  0.43419940894E+02  0.60834324839E+02  0.10566000000E+00 0. -1.
         22    1    1    0    0    0  0.26143462356E+02 -0.21683477321E+01 -0.13995871302E+02  0.29733260321E+02  0.00000000000E+00 0. -1.
</event>
<event>
 5    1  0.1254496E-009  0.9118800E+02  0.7815553E-02  0.1125453E+00
         25   -1    0    0    0    0  0.00000000000E+00  0.00000000000E+00  0.99999998245E-14  0.12509000000E+03  0.12509000000E+03 0.  0.
        -13    1    3    3    0    0  0.19207959958E+02  0.37680793204E+02  0.44697211633E+01  0.42529724588E+02  0.10566000000E+00 0.  1.
         23    2    1    0    0    0  0.10024277922E+02 -0.12656844632E+02  0.23033128767E+02  0.96961600033E+02  0.92791944673E+02 0.  0.
         13    1    3    3    0    0 -0.91836820360E+01 -0.50337637835E+02  0.18563407604E+02  0.54431875445E+02  0.10566000000E+00 0. -1.
         22    1    1    0    0    0 -0.10024277922E+02  0.12656844632E+02 -0.23033128767E+02  0.28128399967E+02  0.00000000000E+00 0. -1.
</event>
<event>
 5    1  0.1254496E-009  0.9118800E+02  0.7815553E-02  0.1125453E+00
         25   -1    0    0    0    0  0.00000000000E+00  0.00000000000E+00  0.99999998245E-14  0.12509000000E+03  0.12509000000E+03 0.  0.
        -13    1    3    3    0    0  0.19517570780E+02 -0.40479022107E+02 -0.21959454962E+02  0.50017153319E+02  0.10566000000E+00 0. -1.
         23    2    1    0    0    0  0.12132086717E+02  0.10362853873E+02 -0.17225415183E+02  0.10161040893E+03  0.98860426899E+02 0.  0.
         13    1    3    3    0    0 -0.73854840633E+01  0.50841875980E+02  0.47340397790E+01  0.51593255613E+02  0.10566000000E+00 0.  1.
         22    1    1    0    0    0 -0.12132086717E+02 -0.10362853873E+02  0.17225415183E+02  0.23479591068E+02  0.00000000000E+00 0.  1.
</event>
<event>
 5    1  0.1254496E-009  0.9118800E+02  0.7815553E-02  0.1125453E+00
         25   -1    0    0    0    0  0.00000000000E+00  0.00000000000E+00  0.99999998245E-14  0.12509000000E+03  0.12509000000E+03 0.  0.
        -13    1    3    3    0    0 -0.56699053938E+02  0.16668518448E+02  0.17796300468E+02  0.61719864704E+02  0.10566000000E+00 0. -1.
         23    2    1    0    0    0 -0.27705355228E+02  0.15483474440E+02  0.78500325498E+01  0.92395234363E+02  0.86417195238E+02 0.  0.
         13    1    3    3    0    0  0.28993698710E+02 -0.11850440074E+01 -0.99462679184E+01  0.30675369659E+02  0.10566000000E+00 0.  1.
         22    1    1    0    0    0  0.27705355228E+02 -0.15483474440E+02 -0.78500325498E+01  0.32694765637E+02  0.00000000000E+00 0. -1.
</event>
<event>
 5    1  0.1254496E-009  0.9118800E+02  0.7815553E-02  0.1125453E+00
         25   -1    0    0    0    0  0.00000000000E+00  0.00000000000E+00  0.99999998245E-14  0.12509000000E+03  0.12509000000E+03 0.  0.
        -13    1    3    3    0    0  0.12366217405E+02 -0.13895253996E+02  0.47039935079E+02  0.50584267048E+02  0.10566000000E+00 0. -1.
         23    2    1    0    0    0  0.15820197770E+02  0.17239269661E+02  0.86241309544E+01  0.10015314553E+03  0.96998999220E+02 0.  0.
         13    1    3    3    0    0  0.34539803645E+01  0.31134523657E+02 -0.38415804125E+02  0.49568878486E+02  0.10566000000E+00 0.  1.
         22    1    1    0    0    0 -0.15820197770E+02 -0.17239269661E+02 -0.86241309544E+01  0.24936854466E+02  0.00000000000E+00 0. -1.
</event>
<event>
 5    1  0.1254496E-009  0.9118800E+02  0.7815553E-02  0.1125453E+00
         25   -1    0    0    0    0  0.00000000000E+00  0.00000000000E+00  0.99999998245E-14  0.12509000000E+03  0.12509000000E+03 0.  0.
        -13    1    3    3    0    0  0.28392058232E+02 -0.17066486058E+02 -0.33706502198E+02  0.47260061061E+02  0.10566000000E+00 0.  1.
         23    2    1    0    0    0  0.10241728020E+02 -0.22584419021E+02  0.12580027910E+02  0.97283416651E+02  0.93224766440E+02 0.  0.
         13    1    3    3    0    0 -0.18150330212E+02 -0.55179329628E+01  0.46286530109E+02  0.50023355590E+02  0.10566000000E+00 0. -1.
         22    1    1    0    0    0 -0.10241728020E+02  0.22584419021E+02 -0.12580027910E+02  0.27806583349E+02  0.00000000000E+00 0. -1.
</event>
<event>
 5    1  0.1254496E-009  0.9118800E+02  0.7815553E-02  0.1125453E+00
         25   -1    0    0    0    0  0.00000000000E+00  0.00000000000E+00  0.99999998245E-14  0.12509000000E+03  0.12509000000E+03 0.  0.
        -13    1    3    3    0    0  0.17427230371E+02 -0.67380685287E+01 -0.57598374729E+02  0.60553231634E+02  0.10566000000E+00 0. -1.
         23    2    1    0    0    0  0.26156653429E+01 -0.12830373550E+02 -0.26055580977E+02  0.95929178841E+02  0.91389571957E+02 0.  0.
         13    1    3    3    0    0 -0.14811565028E+02 -0.60923050212E+01  0.31542793752E+02  0.35375947207E+02  0.10566000000E+00 0.  1.
         22    1    1    0    0    0 -0.26156653429E+01  0.12830373550E+02  0.26055580977E+02  0.29160821159E+02  0.00000000000E+00 0. -1.
</event>
<event>
 5    1  0.1254496E-009  0.9118800E+02  0.7815553E-02  0.1125453E+00
         25   -1    0    0    0    0  0.00000000000E+00  0.00000000000E+00  0.99999998245E-14  0.12509000000E+03  0.12509000000E+03 0.  0.
        -13    1    3    3    0    0  0.15907977951E+01  0.11002828889E+02  0.32572820495E+02  0.34417912200E+02  0.10566000000E+00 0. -1.
         23    2    1    0    0    0  0.18247440902E+02 -0.71385218798E+01 -0.22803857009E+02  0.95024347029E+02  0.90142570630E+02 0.  0.
         13    1    3    3    0    0  0.16656643107E+02 -0.18141350769E+02 -0.55376677504E+02  0.60606434829E+02  0.10566000000E+00 0.  1.
         22    1    1    0    0    0 -0.18247440902E+02  0.71385218798E+01  0.22803857009E+02  0.30065652971E+02  0.00000000000E+00 0.  1.
</event>
<event>
 5    1  0.1254496E-009  0.9118800E+02  0.7815553E-02  0.1125453E+00
         25   -1    0    0    0    0  0.00000000000E+00  0.00000000000E+00  0.99999998245E-14  0.12509000000E+03  0.12509000000E+03 0.  0.
        -13    1    3    3    0    0  0.46171462534E+02 -0.80042000618E+01  0.35966912389E+02  0.59071999475E+02  0.10566000000E+00 0.  1.
         23    2    1    0    0    0  0.24754073586E+02 -0.14438883648E+02  0.71397469478E+01  0.95556603538E+02  0.90878176550E+02 0.  0.
         13    1    3    3    0    0 -0.21417388948E+02 -0.64346835860E+01 -0.28827165441E+02  0.36484604062E+02  0.10566000000E+00 0. -1.
         22    1    1    0    0    0 -0.24754073586E+02  0.14438883648E+02 -0.71397469478E+01  0.29533396462E+02  0.00000000000E+00 0.  1.
</event>
<event>
 5    1  0.1254496E-009  0.9118800E+02  0.7815553E-02  0.1125453E+00
         25   -1    0    0    0    0  0.00000000000E+00  0.00000000000E+00  0.99999998245E-14  0.12509000000E+03  0.12509000000E+03 0.  0.
        -13    1    3    3    0    0 -0.47111287087E+02 -0.28896903406E+02 -0.10385847194E+01  0.55277429569E+02  0.10566000000E+00 0.  1.
         23    2    1    0    0    0 -0.10939043419E+02 -0.17869744625E+02 -0.18692879827E+02  0.97011285640E+02  0.92858900173E+02 0.  0.
         13    1    3    3    0    0  0.36172243668E+02  0.11027158781E+02 -0.17654295107E+02  0.41733856071E+02  0.10566000000E+00 0. -1.
         22    1    1    0    0    0  0.10939043419E+02  0.17869744625E+02  0.18692879827E+02  0.28078714360E+02  0.00000000000E+00 0.  1.
</event>
<event>
 5    1  0.1254496E-009  0.9118800E+02  0.7815553E-02  0.1125453E+00
         25   -1    0    0    0    0  0.00000000000E+00  0.00000000000E+00  0.99999998245E-14  0.12509000000E+03  0.12509000000E+03 0.  0.
        -13    1    3    3    0    0 -0.39777254181E+02  0.10917173696E+02 -0.14245928486E+02  0.43639114039E+02  0.10566000000E+00 0. -1.
         23    2    1    0    0    0 -0.38516475274E+01  0.15905380092E+02  0.23801814717E+02  0.96205009289E+02  0.91766339819E+02 0.  0.
         13    1    3    3    0    0  0.35925606653E+02  0.49882063960E+01  0.38047743203E+02  0.52565895249E+02  0.10566000000E+00 0.  1.
         22    1    1    0    0    0  0.38516475274E+01 -0.15905380092E+02 -0.23801814717E+02  0.28884990711E+02  0.00000000000E+00 0. -1.
</event>
<event>
 5    1  0.1254496E-009  0.9118800E+02  0.7815553E-02  0.1125453E+00
         25   -1    0    0    0    0  0.00000000000E+00  0.00000000000E+00  0.99999998245E-14  0.12509000000E+03  0.12509000000E+03 0.  0.
        -13    1    3    3    0    0  0.35052564941E+02  0.35683538417E+02 -0.23525482429E+02  0.55276185745E+02  0.10566000000E+00 0. -1.
         23    2    1    0    0    0  0.16072759709E+02  0.24735178371E+02  0.87809582346E+01  0.94312282716E+02  0.89148969651E+02 0.  0.
         13    1    3    3    0    0 -0.18979805232E+02 -0.10948360046E+02  0.32306440664E+02  0.39036096971E+02  0.10566000000E+00 0.  1.
         22    1    1    0    0    0 -0.16072759709E+02 -0.24735178371E+02 -0.87809582346E+01  0.30777717284E+02  0.00000000000E+00 0. -1.
</event>
<event>
 5    1  0.1254496E-009  0.9118800E+02  0.7815553E-02  0.1125453E+00
         25   -1    0    0    0    0  0.00000000000E+00  0.00000000000E+00  0.99999998245E-14  0.12509000000E+03  0.12509000000E+03 0.  0.
        -13    1    3    3    0    0  0.18234462528E+02  0.29753509201E+02  0.50855866996E+02  0.61677364611E+02  0.10566000000E+00 0. -1.
         23    2    1    0    0    0  0.17080353624E+02  0.15326402321E+02  0.26261784372E+02  0.90214243285E+02  0.83200308202E+02 0.  0.
         13    1    3    3    0    0 -0.11541089038E+01 -0.14427106880E+02 -0.24594082623E+02  0.28536878673E+02  0.10566000000E+00 0.  1.
         22    1    1    0    0    0 -0.17080353624E+02 -0.15326402321E+02 -0.26261784372E+02  0.34875756715E+02  0.00000000000E+00 0. -1.
</event>
<event>
 5    1  0.1254496E-009  0.9118800E+02  0.7815553E-02  0.1125453E+00
         25   -1    0    0    0    0  0.00000000000E+00  0.00000000000E+00  0.99999998245E-14  0.12509000000E+03  0.12509000000E+03 0.  0.
        -13    1    3    3    0    0  0.10088001780E+01 -0.15497308760E+02  0.47040911079E+02  0.49538295649E+02  0.10566000000E+00 0. -1.
         23    2    1    0    0    0 -0.22709491595E+02 -0.16630706978E+02  0.70095549511E+01  0.96082496079E+02  0.91599185417E+02 0.  0.
         13    1    3    3    0    0 -0.23718291773E+02 -0.11333982179E+01 -0.40031356128E+02  0.46544200430E+02  0.10566000000E+00 0.  1.
         22    1    1    0    0    0  0.22709491595E+02  0.16630706978E+02 -0.70095549511E+01  0.29007503921E+02  0.00000000000E+00 0. -1.
</event>
<event>
 5    1  0.1254496E-009  0.9118800E+02  0.7815553E-02  0.1125453E+00
         25   -1    0    0    0    0  0.00000000000E+00  0.00000000000E+00  0.99999998245E-14  0.12509000000E+03  0.12509000000E+03 0.  0.
        -13    1    3    3    0    0 -0.28841169213E+02 -0.42667998711E+02  0.13710216905E+01  0.51519530472E+02  0.10566000000E+00 0. -1.
         23    2    1    0    0    0 -0.13863893822E+02 -0.13427039362E+02 -0.24900473803E+02  0.93585610885E+02  0.88123436333E+02 0.  0.
         13    1    3    3    0    0  0.14977275391E+02  0.29240959349E+02 -0.26271495493E+02  0.42066080413E+02  0.10566000000E+00 0.  1.
         22    1    1    0    0    0  0.13863893822E+02  0.13427039362E+02  0.24900473803E+02  0.31504389115E+02  0.00000000000E+00 0. -1.
</event>
<event>
 5    1  0.1254496E-009  0.9118800E+02  0.7815553E-02  0.1125453E+00
         25   -1    0    0    0    0  0.00000000000E+00  0.00000000000E+00  0.99999998245E-14  0.12509000000E+03  0.12509000000E+03 0.  0.
        -13    1    3    3    0    0 -0.35733127919E+02  0.62753358867E+01  0.28047259352E+01  0.36388376206E+02  0.10566000000E+00 0. -1.
         23    2    1    0    0    0  0.21842106009E+02 -0.77296597161E-01  0.18570567071E+02  0.96420337794E+02  0.92059393922E+02 0.  0.
         13    1    3    3    0    0  0.57575233927E+02 -0.63526324839E+01  0.15765841136E+02  0.60031961587E+02  0.10566000000E+00 0.  1.
         22    1    1    0    0    0 -0.21842106009E+02  0.77296597161E-01 -0.18570567071E+02  0.28669662206E+02  0.00000000000E+00 0.  1.
</event>
<event>
 5    1  0.1254496E-009  0.9118800E+02  0.7815553E-02  0.1125453E+00
         25   -1    0    0    0    0  0.00000000000E+00  0.00000000000E+00  0.99999998245E-14  0.12509000000E+03  0.12509000000E+03 0.  0.
        -13    1    3    3    0    0  0.49140363912E+02 -0.28357823606E+02 -0.99751573725E+01  0.57606045288E+02  0.10566000000E+00 0. -1.
         23    2    1    0    0    0  0.24931122403E+02 -0.95641700890E+01  0.12494716532E+02  0.95608613415E+02  0.90949737790E+02 0.  0.
         13    1    3    3    0    0 -0.24209241508E+02  0.18793653517E+02  0.22469873904E+02  0.38002568127E+02  0.10566000000E+00 0.  1.
         22    1    1    0    0    0 -0.24931122403E+02  0.95641700890E+01 -0.12494716532E+02  0.29481386585E+02  0.00000000000E+00 0. -1.
</event>
<event>
 5    1  0.1254496E-009  0.9118800E+02  0.7815553E-02  0.1125453E+00
         25   -1    0    0    0    0  0.00000000000E+00  0.00000000000E+00  0.99999998245E-14  0.12509000000E+03  0.12509000000E+03 0.  0.
        -13    1    3    3    0    0 -0.23951591116E+01  0.56551206940E+02 -0.10088412202E+02  0.57494025936E+02  0.10566000000E+00 0. -1.
         23    2    1    0    0    0 -0.18826345282E+02  0.25439393302E+02 -0.52504402181E+01  0.93009458691E+02  0.87301765591E+02 0.  0.
         13    1    3    3    0    0 -0.16431186170E+02 -0.31111813638E+02  0.48379719841E+01  0.35515432755E+02  0.10566000000E+00 0.  1.
         22    1    1    0    0    0  0.18826345282E+02 -0.25439393302E+02  0.52504402181E+01  0.32080541309E+02  0.00000000000E+00 0. -1.
</event>
<event>
 5    1  0.1254496E-009  0.9118800E+02  0.7815553E-02  0.1125453E+00
         25   -1    0    0    0    0  0.00000000000E+00  0.00000000000E+00  0.99999998245E-14  0.12509000000E+03  0.12509000000E+03 0.  0.
        -13    1    3    3    0    0  0.36393108825E+02 -0.13755039005E+02 -0.10409853538E+02  0.40274504127E+02  0.10566000000E+00 0.  1.
         23    2    1    0    0    0 -0.17114415591E+02  0.15371185827E+02 -0.57779706784E+01  0.10137162063E+03  0.98557820336E+02 0.  0.
         13    1    3    3    0    0 -0.53507524417E+02  0.29126224831E+02  0.46318828591E+01  0.61097116503E+02  0.10566000000E+00 0. -1.
         22    1    1    0    0    0  0.17114415591E+02 -0.15371185827E+02  0.57779706784E+01  0.23718379369E+02  0.00000000000E+00 0. -1.
</event>
<event>
 5    1  0.1254496E-009  0.9118800E+02  0.7815553E-02  0.1125453E+00
         25   -1    0    0    0    0  0.00000000000E+00  0.00000000000E+00  0.99999998245E-14  0.12509000000E+03  0.12509000000E+03 0.  0.
        -13    1    3    3    0    0 -0.48644601747E+02 -0.81632805005E+01  0.13350919427E+02  0.51099849719E+02  0.10566000000E+00 0.  1.
         23    2    1    0    0    0 -0.21869827497E+02  0.31979561349E+01 -0.19950780056E+02  0.95315012124E+02  0.90545025447E+02 0.  0.
         13    1    3    3    0    0  0.26774774251E+02  0.11361236635E+02 -0.33301699483E+02  0.44215162405E+02  0.10566000000E+00 0. -1.
         22    1    1    0    0    0  0.21869827497E+02 -0.31979561349E+01  0.19950780056E+02  0.29774987876E+02  0.00000000000E+00 0.  1.
</event>
<event>
 5    1  0.1254496E-009  0.9118800E+02  0.7815553E-02  0.1125453E+00
         25   -1    0    0    0    0  0.00000000000E+00  0.00000000000E+00  0.99999998245E-14  0.12509000000E+03  0.12509000000E+03 0.  0.
        -13    1    3    3    0    0  0.51362669588E+01 -0.40685861928E+02  0.41727892361E+01  0.41220673613E+02  0.10566000000E+00 0.  1.
         23    2    1    0    0    0 -0.25112251339E+02 -0.82268743191E+01 -0.20186569440E+02  0.91836365399E+02  0.85604402899E+02 0.  0.
         13    1    3    3    0    0 -0.30248518298E+02  0.32458987609E+02 -0.24359358677E+02  0.50615691786E+02  0.10566000000E+00 0. -1.
         22    1    1    0    0    0  0.25112251339E+02  0.82268743191E+01  0.20186569440E+02  0.33253634601E+02  0.00000000000E+00 0. -1.
</event>
<event>
 5    1  0.1254496E-009  0.9118800E+02  0.7815553E-02  0.1125453E+00
         25   -1    0    0    0    0  0.00000000000E+00  0.00000000000E+00  0.99999998245E-14  0.12509000000E+03  0.12509000000E+03 0.  0.
        -13    1    3    3    0    0  0.25599199145E+02  0.35680501675E+02 -0.32553439403E+02  0.54664017211E+02  0.10566000000E+00 0.  1.
         23    2    1    0    0    0  0.87713558031E+01  0.24097836769E+02  0.64084115858E+01  0.98656873839E+02  0.95049821658E+02 0.  0.
         13    1    3    3    0    0 -0.16827843342E+02 -0.11582664906E+02  0.38961850989E+02  0.43992856629E+02  0.10566000000E+00 0. -1.
         22    1    1    0    0    0 -0.87713558031E+01 -0.24097836769E+02 -0.64084115858E+01  0.26433126161E+02  0.00000000000E+00 0.  1.
</event>
<event>
 5    1  0.1254496E-009  0.9118800E+02  0.7815553E-02  0.1125453E+00
         25   -1    0    0    0    0  0.00000000000E+00  0.00000000000E+00  0.99999998245E-14  0.12509000000E+03  0.12509000000E+03 0.  0.
        -13    1    3    3    0    0  0.32886612730E+01 -0.24213127759E+02  0.24592877485E+02  0.34668597258E+02  0.10566000000E+00 0. -1.
         23    2    1    0    0    0 -0.14161217183E+02  0.25938089938E+01 -0.26490621254E+02  0.94940026009E+02  0.90025483098E+02 0.  0.
         13    1    3    3    0    0 -0.17449878456E+02  0.26806936752E+02 -0.51083498740E+02  0.60271428751E+02  0.10566000000E+00 0.  1.
         22    1    1    0    0    0  0.14161217183E+02 -0.25938089938E+01  0.26490621254E+02  0.30149973991E+02  0.00000000000E+00 0.  1.
</event>
<event>
 5    1  0.1254496E-009  0.9118800E+02  0.7815553E-02  0.1125453E+00
         25   -1    0    0    0    0  0.00000000000E+00  0.00000000000E+00  0.99999998245E-14  0.12509000000E+03  0.12509000000E+03 0.  0.
        -13    1    3    3    0    0  0.64806213760E+01 -0.18415438856E+02  0.23866850207E+02  0.30834470071E+02  0.10566000000E+00 0.  1.
         23    2    1    0    0    0  0.26902331814E+01  0.28594740284E+02 -0.15665735687E+02  0.92374379861E+02  0.86387002805E+02 0.  0.
         13    1    3    3    0    0 -0.37903881945E+01  0.47010179140E+02 -0.39532585895E+02  0.61539909790E+02  0.10566000000E+00 0. -1.
         22    1    1    0    0    0 -0.26902331814E+01 -0.28594740284E+02  0.15665735687E+02  0.32715620139E+02  0.00000000000E+00 0. -1.
</event>
<event>
 5    1  0.1254496E-009  0.9118800E+02  0.7815553E-02  0.1125453E+00
         25   -1    0    0    0    0  0.00000000000E+00  0.00000000000E+00  0.99999998245E-14  0.12509000000E+03  0.12509000000E+03 0.  0.
        -13    1    3    3    0    0  0.13779549134E+02 -0.25105870260E+02  0.29268353553E+02  0.40949094979E+02  0.10566000000E+00 0. -1.
         23    2    1    0    0    0  0.16860816910E+01  0.23792240010E+02 -0.34150481497E+01  0.10099485298E+03  0.98078459500E+02 0.  0.
         13    1    3    3    0    0 -0.12093467443E+02  0.48898110270E+02 -0.32683401703E+02  0.60045757999E+02  0.10566000000E+00 0.  1.
         22    1    1    0    0    0 -0.16860816910E+01 -0.23792240010E+02  0.34150481497E+01  0.24095147023E+02  0.00000000000E+00 0.  1.
</event>
<event>
 5    1  0.1254496E-009  0.9118800E+02  0.7815553E-02  0.1125453E+00
         25   -1    0    0    0    0  0.00000000000E+00  0.00000000000E+00  0.99999998245E-14  0.12509000000E+03  0.12509000000E+03 0.  0.
        -13    1    3    3    0    0 -0.15429983320E+02 -0.32614901718E+02 -0.40385538183E+02  0.54155508101E+02  0.10566000000E+00 0.  1.
         23    2    1    0    0    0  0.16376789460E+02 -0.11521830435E+02 -0.16142699655E+02  0.99369608056E+02  0.95983230012E+02 0.  0.
         13    1    3    3    0    0  0.31806772780E+02  0.21093071283E+02  0.24242838528E+02  0.45214099955E+02  0.10566000000E+00 0. -1.
         22    1    1    0    0    0 -0.16376789460E+02  0.11521830435E+02  0.16142699655E+02  0.25720391944E+02  0.00000000000E+00 0.  1.
</event>
<event>
 5    1  0.1254496E-009  0.9118800E+02  0.7815553E-02  0.1125453E+00
         25   -1    0    0    0    0  0.00000000000E+00  0.00000000000E+00  0.99999998245E-14  0.12509000000E+03  0.12509000000E+03 0.  0.
        -13    1    3    3    0    0 -0.30208779325E+02 -0.13816436890E+02  0.43846282471E+02  0.55008834992E+02  0.10566000000E+00 0.  1.
         23    2    1    0    0    0 -0.21088823641E+02 -0.22008643483E+02  0.70358915369E+01  0.93807055122E+02  0.88437214737E+02 0.  0.
         13    1    3    3    0    0  0.91199556838E+01 -0.81922065933E+01 -0.36810390934E+02  0.38798220130E+02  0.10566000000E+00 0. -1.
         22    1    1    0    0    0  0.21088823641E+02  0.22008643483E+02 -0.70358915369E+01  0.31282944878E+02  0.00000000000E+00 0.  1.
</event>
<event>
 5    1  0.1254496E-009  0.9118800E+02  0.7815553E-02  0.1125453E+00
         25   -1    0    0    0    0  0.00000000000E+00  0.00000000000E+00  0.99999998245E-14  0.12509000000E+03  0.12509000000E+03 0.  0.
        -13    1    3    3    0    0  0.23987946946E+02  0.11181872461E+02  0.30101405112E+02  0.40081936382E+02  0.10566000000E+00 0. -1.
         23    2    1    0    0    0  0.63168861140E+01 -0.27548491420E+02 -0.63445138153E+01  0.96123203746E+02  0.91654759904E+02 0.  0.
         13    1    3    3    0    0 -0.17671060832E+02 -0.38730363881E+02 -0.36445918927E+02  0.56041267364E+02  0.10566000000E+00 0.  1.
         22    1    1    0    0    0 -0.63168861140E+01  0.27548491420E+02  0.63445138153E+01  0.28966796254E+02  0.00000000000E+00 0. -1.
</event>
<event>
 5    1  0.1254496E-009  0.9118800E+02  0.7815553E-02  0.1125453E+00
         25   -1    0    0    0    0  0.00000000000E+00  0.00000000000E+00  0.99999998245E-14  0.12509000000E+03  0.12509000000E+03 0.  0.
        -13    1    3    3    0    0 -0.13713024940E+02  0.32761112546E+02  0.12427368046E+02  0.37626960930E+02  0.10566000000E+00 0.  1.
         23    2    1    0    0    0  0.64894403177E+01 -0.24238874230E+02  0.97789028807E+01  0.98159296312E+02  0.94392715033E+02 0.  0.
         13    1    3    3    0    0  0.20202465258E+02 -0.56999986776E+02 -0.26484651655E+01  0.60532335382E+02  0.10566000000E+00 0. -1.
         22    1    1    0    0    0 -0.64894403177E+01  0.24238874230E+02 -0.97789028807E+01  0.26930703688E+02  0.00000000000E+00 0. -1.
</event>
<event>
 5    1  0.1254496E-009  0.9118800E+02  0.7815553E-02  0.1125453E+00
         25   -1    0    0    0    0  0.00000000000E+00  0.00000000000E+00  0.99999998245E-14  0.12509000000E+03  0.12509000000E+03 0.  0.
        -13    1    3    3    0    0  0.40534740288E+02 -0.23419250213E+02 -0.96604381811E+01  0.47800226784E+02  0.10566000000E+00 0.  1.
         23    2    1    0    0    0  0.22823580690E+02  0.16294788243E+02  0.97224124228E+01  0.95409008394E+02  0.90674790433E+02 0.  0.
         13    1    3    3    0    0 -0.17711159598E+02  0.39714038456E+02  0.19382850604E+02  0.47608781610E+02  0.10566000000E+00 0. -1.
         22    1    1    0    0    0 -0.22823580690E+02 -0.16294788243E+02 -0.97224124228E+01  0.29680991606E+02  0.00000000000E+00 0.  1.
</event>
<event>
 5    1  0.1254496E-009  0.9118800E+02  0.7815553E-02  0.1125453E+00
         25   -1    0    0    0    0  0.00000000000E+00  0.00000000000E+00  0.99999998245E-14  0.12509000000E+03  0.12509000000E+03 0.  0.
        -13    1    3    3    0    0 -0.27744267072E+02  0.25286595294E+02  0.86084771127E+01  0.38513287307E+02  0.10566000000E+00 0.  1.
         23    2    1    0    0    0  0.64442859615E+01 -0.21858493875E+02  0.16040029369E+02  0.97222364324E+02  0.93142809742E+02 0.  0.
         13    1    3    3    0    0  0.34188553033E+02 -0.47145089169E+02  0.74315522563E+01  0.58709077017E+02  0.10566000000E+00 0. -1.
         22    1    1    0    0    0 -0.64442859615E+01  0.21858493875E+02 -0.16040029369E+02  0.27867635676E+02  0.00000000000E+00 0. -1.
</event>
<event>
 5    1  0.1254496E-009  0.9118800E+02  0.7815553E-02  0.1125453E+00
         25   -1    0    0    0    0  0.00000000000E+00  0.00000000000E+00  0.99999998245E-14  0.12509000000E+03  0.12509000000E+03 0.  0.
        -13    1    3    3    0    0  0.74695852794E+01 -0.45994450273E+02  0.36897813686E+02  0.59436890724E+02  0.10566000000E+00 0. -1.
         23    2    1    0    0    0  0.90985660862E+01 -0.10773818457E+02  0.24518599399E+02  0.96805361317E+02  0.92581084430E+02 0.  0.
         13    1    3    3    0    0  0.16289808068E+01  0.35220631816E+02 -0.12379214287E+02  0.37368470592E+02  0.10566000000E+00 0.  1.
         22    1    1    0    0    0 -0.90985660862E+01  0.10773818457E+02 -0.24518599399E+02  0.28284638683E+02  0.00000000000E+00 0. -1.
</event>
<event>
 5    1  0.1254496E-009  0.9118800E+02  0.7815553E-02  0.1125453E+00
         25   -1    0    0    0    0  0.00000000000E+00  0.00000000000E+00  0.99999998245E-14  0.12509000000E+03  0.12509000000E+03 0.  0.
        -13    1    3    3    0    0 -0.13008569113E+02 -0.17745475517E+02  0.11114428780E+02  0.24650891725E+02  0.10566000000E+00 0.  1.
         23    2    1    0    0    0  0.21445668647E+02  0.23172982174E+02 -0.21119031489E+02  0.87104248756E+02  0.78385157101E+02 0.  0.
         13    1    3    3    0    0  0.34454237760E+02  0.40918457691E+02 -0.32233460269E+02  0.62453357031E+02  0.10566000000E+00 0. -1.
         22    1    1    0    0    0 -0.21445668647E+02 -0.23172982174E+02  0.21119031489E+02  0.37985751244E+02  0.00000000000E+00 0. -1.
</event>
<event>
 5    1  0.1254496E-009  0.9118800E+02  0.7815553E-02  0.1125453E+00
         25   -1    0    0    0    0  0.00000000000E+00  0.00000000000E+00  0.99999998245E-14  0.12509000000E+03  0.12509000000E+03 0.  0.
        -13    1    3    3    0    0  0.15492677232E+02 -0.52504026604E+02 -0.77893674875E+01  0.55293591557E+02  0.10566000000E+00 0.  1.
         23    2    1    0    0    0  0.17372979646E+02 -0.13619119391E+02  0.13045298946E+02  0.99448614324E+02  0.96086139644E+02 0.  0.
         13    1    3    3    0    0  0.18803024143E+01  0.38884907213E+02  0.20834666434E+02  0.44155022767E+02  0.10566000000E+00 0. -1.
         22    1    1    0    0    0 -0.17372979646E+02  0.13619119391E+02 -0.13045298946E+02  0.25641385676E+02  0.00000000000E+00 0.  1.
</event>
<event>
 5    1  0.1254496E-009  0.9118800E+02  0.7815553E-02  0.1125453E+00
         25   -1    0    0    0    0  0.00000000000E+00  0.00000000000E+00  0.99999998245E-14  0.12509000000E+03  0.12509000000E+03 0.  0.
        -13    1    3    3    0    0  0.11314743957E+02  0.55242864705E+02  0.67450193036E+01  0.56791759799E+02  0.10566000000E+00 0. -1.
         23    2    1    0    0    0  0.19896959986E+02  0.19868246467E+02 -0.76721925526E+01  0.95943837767E+02  0.91409634243E+02 0.  0.
         13    1    3    3    0    0  0.85822160288E+01 -0.35374618238E+02 -0.14417211856E+02  0.39152077968E+02  0.10566000000E+00 0.  1.
         22    1    1    0    0    0 -0.19896959986E+02 -0.19868246467E+02  0.76721925526E+01  0.29146162233E+02  0.00000000000E+00 0. -1.
</event>
<event>
 5    1  0.1254496E-009  0.9118800E+02  0.7815553E-02  0.1125453E+00
         25   -1    0    0    0    0  0.00000000000E+00  0.00000000000E+00  0.99999998245E-14  0.12509000000E+03  0.12509000000E+03 0.  0.
        -13    1    3    3    0    0  0.35267336508E+02 -0.46246106017E+02 -0.11668798038E+02  0.59318288561E+02  0.10566000000E+00 0.  1.
         23    2    1    0    0    0  0.18293038374E+02 -0.15583124934E+02 -0.18169017493E+02  0.94963894504E+02  0.90058642157E+02 0.  0.
         13    1    3    3    0    0 -0.16974298134E+02  0.30662981083E+02 -0.65002194551E+01  0.35645605943E+02  0.10566000000E+00 0. -1.
         22    1    1    0    0    0 -0.18293038374E+02  0.15583124934E+02  0.18169017493E+02  0.30126105496E+02  0.00000000000E+00 0.  1.
</event>
<event>
 5    1  0.1254496E-009  0.9118800E+02  0.7815553E-02  0.1125453E+00
         25   -1    0    0    0    0  0.00000000000E+00  0.00000000000E+00  0.99999998245E-14  0.12509000000E+03  0.12509000000E+03 0.  0.
        -13    1    3    3    0    0  0.29033179349E+02 -0.41911684063E+02 -0.15649676059E+02  0.53333275625E+02  0.10566000000E+00 0. -1.
         23    2    1    0    0    0  0.21594548681E+02 -0.13867358495E+02  0.14858502793E+02  0.95435265645E+02  0.90711006274E+02 0.  0.
         13    1    3    3    0    0 -0.74386306676E+01  0.28044325568E+02  0.30508178852E+02  0.42101990020E+02  0.10566000000E+00 0.  1.
         22    1    1    0    0    0 -0.21594548681E+02  0.13867358495E+02 -0.14858502793E+02  0.29654734355E+02  0.00000000000E+00 0.  1.
</event>
<event>
 4    1  0.1254496E-009  0.9118800E+02  0.7815553E-02  0.1125453E+00
         25   -1    0    0    0    0  0.00000000000E+00  0.00000000000E+00  0.99999998245E-14  0.12509000000E+03  0.12509000000E+03 0.  0.
        -13    1    1    0    0    0  0.18166732229E+01  0.29502693502E+01 -0.14110350373E+02  0.14529884463E+02  0.10566000000E+00 0.  1.
         13    1    1    0    0    0  0.51505372166E+02  0.14232745855E+02  0.10207808793E+02  0.54402067433E+02  0.10566000000E+00 0. -1.
         22    1    1    0    0    0 -0.53322045389E+02 -0.17183015206E+02  0.39025415795E+01  0.56158048104E+02  0.00000000000E+00 0. -1.
</event>
<event>
 5    1  0.1254496E-009  0.9118800E+02  0.7815553E-02  0.1125453E+00
         25   -1    0    0    0    0  0.00000000000E+00  0.00000000000E+00  0.99999998245E-14  0.12509000000E+03  0.12509000000E+03 0.  0.
        -13    1    3    3    0    0 -0.18120639827E+02  0.42556746239E+00  0.25679329945E+02  0.31432114881E+02  0.10566000000E+00 0.  1.
         23    2    1    0    0    0 -0.16541115790E+02  0.28952524840E+02 -0.20654561620E+02  0.85866689050E+02  0.76384685419E+02 0.  0.
         13    1    3    3    0    0  0.15795240371E+01  0.28526957378E+02 -0.46333891565E+02  0.54434574169E+02  0.10566000000E+00 0. -1.
         22    1    1    0    0    0  0.16541115790E+02 -0.28952524840E+02  0.20654561620E+02  0.39223310950E+02  0.00000000000E+00 0. -1.
</event>
<event>
 5    1  0.1254496E-009  0.9118800E+02  0.7815553E-02  0.1125453E+00
         25   -1    0    0    0    0  0.00000000000E+00  0.00000000000E+00  0.99999998245E-14  0.12509000000E+03  0.12509000000E+03 0.  0.
        -13    1    3    3    0    0 -0.83871275963E+01 -0.37170978495E+02 -0.31552701361E+02  0.49473322901E+02  0.10566000000E+00 0.  1.
         23    2    1    0    0    0 -0.28162850165E+02 -0.18817703267E+01 -0.11690051708E+02  0.94539312644E+02  0.89466961149E+02 0.  0.
         13    1    3    3    0    0 -0.19775722569E+02  0.35289208169E+02  0.19862649653E+02  0.45065989743E+02  0.10566000000E+00 0. -1.
         22    1    1    0    0    0  0.28162850165E+02  0.18817703267E+01  0.11690051708E+02  0.30550687356E+02  0.00000000000E+00 0.  1.
</event>
<event>
 5    1  0.1254496E-009  0.9118800E+02  0.7815553E-02  0.1125453E+00
         25   -1    0    0    0    0  0.00000000000E+00  0.00000000000E+00  0.99999998245E-14  0.12509000000E+03  0.12509000000E+03 0.  0.
        -13    1    3    3    0    0 -0.44072827876E+02  0.16314455065E+02  0.31904010776E+02  0.56801872053E+02  0.10566000000E+00 0. -1.
         23    2    1    0    0    0 -0.59601774353E+01  0.16516970885E+02  0.23368914015E+02  0.95859191176E+02  0.91293725679E+02 0.  0.
         13    1    3    3    0    0  0.38112650441E+02  0.20251581965E+00 -0.85350967605E+01  0.39057319123E+02  0.10566000000E+00 0.  1.
         22    1    1    0    0    0  0.59601774353E+01 -0.16516970885E+02 -0.23368914015E+02  0.29230808824E+02  0.00000000000E+00 0. -1.
</event>
<event>
 5    1  0.1254496E-009  0.9118800E+02  0.7815553E-02  0.1125453E+00
         25   -1    0    0    0    0  0.00000000000E+00  0.00000000000E+00  0.99999998245E-14  0.12509000000E+03  0.12509000000E+03 0.  0.
        -13    1    3    3    0    0 -0.61530713647E+01  0.13853350396E+02 -0.41348810776E+02  0.44039878759E+02  0.10566000000E+00 0. -1.
         23    2    1    0    0    0 -0.94370626257E+01 -0.17360405617E+02  0.90055444042E+01  0.10337498989E+03  0.10106852562E+03 0.  0.
         13    1    3    3    0    0 -0.32839912610E+01 -0.31213756012E+02  0.50354355181E+02  0.59335111129E+02  0.10566000000E+00 0.  1.
         22    1    1    0    0    0  0.94370626257E+01  0.17360405617E+02 -0.90055444042E+01  0.21715010113E+02  0.00000000000E+00 0.  1.
</event>
<event>
 5    1  0.1254496E-009  0.9118800E+02  0.7815553E-02  0.1125453E+00
         25   -1    0    0    0    0  0.00000000000E+00  0.00000000000E+00  0.99999998245E-14  0.12509000000E+03  0.12509000000E+03 0.  0.
        -13    1    3    3    0    0  0.31418842282E+01  0.49724698870E+02  0.30410800609E+02  0.58371611867E+02  0.10566000000E+00 0.  1.
         23    2    1    0    0    0  0.12423575777E+02  0.23988330232E+02  0.17129055396E+01  0.98021212295E+02  0.94209547244E+02 0.  0.
         13    1    3    3    0    0  0.92816915490E+01 -0.25736368637E+02 -0.28697895069E+02  0.39649600428E+02  0.10566000000E+00 0. -1.
         22    1    1    0    0    0 -0.12423575777E+02 -0.23988330232E+02 -0.17129055396E+01  0.27068787705E+02  0.00000000000E+00 0.  1.
</event>
<event>
 5    1  0.1254496E-009  0.9118800E+02  0.7815553E-02  0.1125453E+00
         25   -1    0    0    0    0  0.00000000000E+00  0.00000000000E+00  0.99999998245E-14  0.12509000000E+03  0.12509000000E+03 0.  0.
        -13    1    3    3    0    0 -0.25110484923E+02  0.42133453301E+02  0.11182967921E+02  0.50307397823E+02  0.10566000000E+00 0.  1.
         23    2    1    0    0    0  0.15932363999E+02  0.22753487209E+02  0.95221342552E+01  0.95726205225E+02  0.91111327086E+02 0.  0.
         13    1    3    3    0    0  0.41042848922E+02 -0.19379966091E+02 -0.16608336661E+01  0.45418807403E+02  0.10566000000E+00 0. -1.
         22    1    1    0    0    0 -0.15932363999E+02 -0.22753487209E+02 -0.95221342552E+01  0.29363794775E+02  0.00000000000E+00 0.  1.
</event>
<event>
 5    1  0.1254496E-009  0.9118800E+02  0.7815553E-02  0.1125453E+00
         25   -1    0    0    0    0  0.00000000000E+00  0.00000000000E+00  0.99999998245E-14  0.12509000000E+03  0.12509000000E+03 0.  0.
        -13    1    3    3    0    0  0.25615240940E+02 -0.13230174638E+01 -0.23303468388E+02  0.34654779563E+02  0.10566000000E+00 0.  1.
         23    2    1    0    0    0 -0.13924123415E+02  0.15663106989E+02  0.20296473644E+02  0.95915336749E+02  0.91370623550E+02 0.  0.
         13    1    3    3    0    0 -0.39539364356E+02  0.16986124452E+02  0.43599942032E+02  0.61260557186E+02  0.10566000000E+00 0. -1.
         22    1    1    0    0    0  0.13924123415E+02 -0.15663106989E+02 -0.20296473644E+02  0.29174663251E+02  0.00000000000E+00 0. -1.
</event>
<event>
 5    1  0.1254496E-009  0.9118800E+02  0.7815553E-02  0.1125453E+00
         25   -1    0    0    0    0  0.00000000000E+00  0.00000000000E+00  0.99999998245E-14  0.12509000000E+03  0.12509000000E+03 0.  0.
        -13    1    3    3    0    0  0.24680801852E+02  0.55338676790E+02  0.91754905914E+01  0.61283863459E+02  0.10566000000E+00 0. -1.
         23    2    1    0    0    0  0.10160890958E+02  0.25716115662E+02 -0.46451819405E+01  0.97051811309E+02  0.92913476166E+02 0.  0.
         13    1    3    3    0    0 -0.14519910894E+02 -0.29622561127E+02 -0.13820672532E+02  0.35767947850E+02  0.10566000000E+00 0.  1.
         22    1    1    0    0    0 -0.10160890958E+02 -0.25716115662E+02  0.46451819405E+01  0.28038188691E+02  0.00000000000E+00 0. -1.
</event>
<event>
 5    1  0.1254496E-009  0.9118800E+02  0.7815553E-02  0.1125453E+00
         25   -1    0    0    0    0  0.00000000000E+00  0.00000000000E+00  0.99999998245E-14  0.12509000000E+03  0.12509000000E+03 0.  0.
        -13    1    3    3    0    0  0.81974269316E+01  0.92630338620E+01 -0.57287894446E+02  0.58608153176E+02  0.10566000000E+00 0.  1.
         23    2    1    0    0    0  0.56654339919E+01 -0.80082621480E+01 -0.42458629179E+02  0.81512889073E+02  0.68886765698E+02 0.  0.
         13    1    3    3    0    0 -0.25319929397E+01 -0.17271296010E+02  0.14829265267E+02  0.22904735897E+02  0.10566000000E+00 0. -1.
         22    1    1    0    0    0 -0.56654339919E+01  0.80082621480E+01  0.42458629179E+02  0.43577110927E+02  0.00000000000E+00 0.  1.
</event>
<event>
 5    1  0.1254496E-009  0.9118800E+02  0.7815553E-02  0.1125453E+00
         25   -1    0    0    0    0  0.00000000000E+00  0.00000000000E+00  0.99999998245E-14  0.12509000000E+03  0.12509000000E+03 0.  0.
        -13    1    3    3    0    0  0.76784926426E+01  0.26610896323E+02 -0.21222207523E+02  0.34892582429E+02  0.10566000000E+00 0. -1.
         23    2    1    0    0    0 -0.12737621959E+02 -0.23299470050E+02  0.94192409168E+01  0.96914932702E+02  0.92729012522E+02 0.  0.
         13    1    3    3    0    0 -0.20416114602E+02 -0.49910366373E+02  0.30641448439E+02  0.62022350273E+02  0.10566000000E+00 0.  1.
         22    1    1    0    0    0  0.12737621959E+02  0.23299470050E+02 -0.94192409168E+01  0.28175067298E+02  0.00000000000E+00 0.  1.
</event>
<event>
 5    1  0.1254496E-009  0.9118800E+02  0.7815553E-02  0.1125453E+00
         25   -1    0    0    0    0  0.00000000000E+00  0.00000000000E+00  0.99999998245E-14  0.12509000000E+03  0.12509000000E+03 0.  0.
        -13    1    3    3    0    0 -0.71663142859E+01 -0.26059743543E+00 -0.33747936777E+02  0.34501570576E+02  0.10566000000E+00 0.  1.
         23    2    1    0    0    0  0.21324942895E+02  0.16620563023E+02  0.15557496873E+02  0.93896538928E+02  0.88563694644E+02 0.  0.
         13    1    3    3    0    0  0.28491257180E+02  0.16881160459E+02  0.49305433650E+02  0.59394968353E+02  0.10566000000E+00 0. -1.
         22    1    1    0    0    0 -0.21324942895E+02 -0.16620563023E+02 -0.15557496873E+02  0.31193461072E+02  0.00000000000E+00 0. -1.
</event>
<event>
 5    1  0.1254496E-009  0.9118800E+02  0.7815553E-02  0.1125453E+00
         25   -1    0    0    0    0  0.00000000000E+00  0.00000000000E+00  0.99999998245E-14  0.12509000000E+03  0.12509000000E+03 0.  0.
        -13    1    3    3    0    0  0.26606780792E+02  0.28441095289E+01  0.25136563324E+02  0.36713318059E+02  0.10566000000E+00 0. -1.
         23    2    1    0    0    0 -0.23525753217E+01  0.48562933120E+01 -0.27629990052E+02  0.96938009917E+02  0.92760138104E+02 0.  0.
         13    1    3    3    0    0 -0.28959356114E+02  0.20121837831E+01 -0.52766553376E+02  0.60224691858E+02  0.10566000000E+00 0.  1.
         22    1    1    0    0    0  0.23525753217E+01 -0.48562933120E+01  0.27629990052E+02  0.28151990083E+02  0.00000000000E+00 0.  1.
</event>
<event>
 5    1  0.1254496E-009  0.9118800E+02  0.7815553E-02  0.1125453E+00
         25   -1    0    0    0    0  0.00000000000E+00  0.00000000000E+00  0.99999998245E-14  0.12509000000E+03  0.12509000000E+03 0.  0.
        -13    1    3    3    0    0 -0.34762194711E+02 -0.25058043786E+02  0.17241902884E+02  0.46191017727E+02  0.10566000000E+00 0.  1.
         23    2    1    0    0    0  0.14476934989E+00  0.10497388466E+02  0.26243737766E+02  0.96824298262E+02  0.92606667359E+02 0.  0.
         13    1    3    3    0    0  0.34906964061E+02  0.35555432251E+02  0.90018348824E+01  0.50633280536E+02  0.10566000000E+00 0. -1.
         22    1    1    0    0    0 -0.14476934989E+00 -0.10497388466E+02 -0.26243737766E+02  0.28265701738E+02  0.00000000000E+00 0. -1.
</event>
<event>
 5    1  0.1254496E-009  0.9118800E+02  0.7815553E-02  0.1125453E+00
         25   -1    0    0    0    0  0.00000000000E+00  0.00000000000E+00  0.99999998245E-14  0.12509000000E+03  0.12509000000E+03 0.  0.
        -13    1    3    3    0    0 -0.47743499065E+02  0.19461685651E+02  0.12416787536E+02  0.53031940263E+02  0.10566000000E+00 0. -1.
         23    2    1    0    0    0 -0.26330870325E+02 -0.10229568440E+02 -0.89987823351E+01  0.95443130249E+02  0.90721850872E+02 0.  0.
         13    1    3    3    0    0  0.21412628740E+02 -0.29691254091E+02 -0.21415569871E+02  0.42411189985E+02  0.10566000000E+00 0.  1.
         22    1    1    0    0    0  0.26330870325E+02  0.10229568440E+02  0.89987823351E+01  0.29646869751E+02  0.00000000000E+00 0. -1.
</event>
<event>
 5    1  0.1254496E-009  0.9118800E+02  0.7815553E-02  0.1125453E+00
         25   -1    0    0    0    0  0.00000000000E+00  0.00000000000E+00  0.99999998245E-14  0.12509000000E+03  0.12509000000E+03 0.  0.
        -13    1    3    3    0    0 -0.10948677173E+02  0.33752752978E+02 -0.19559465770E+02  0.40517967998E+02  0.10566000000E+00 0.  1.
         23    2    1    0    0    0 -0.25669640017E+01  0.10503311343E+02  0.28526394361E+02  0.94583213402E+02  0.89528320820E+02 0.  0.
         13    1    3    3    0    0  0.83817131713E+01 -0.23249441635E+02  0.48085860131E+02  0.54065245404E+02  0.10566000000E+00 0. -1.
         22    1    1    0    0    0  0.25669640017E+01 -0.10503311343E+02 -0.28526394361E+02  0.30506786598E+02  0.00000000000E+00 0. -1.
</event>
<event>
 5    1  0.1254496E-009  0.9118800E+02  0.7815553E-02  0.1125453E+00
         25   -1    0    0    0    0  0.00000000000E+00  0.00000000000E+00  0.99999998245E-14  0.12509000000E+03  0.12509000000E+03 0.  0.
        -13    1    3    3    0    0  0.18638287090E+02 -0.20528995933E+01  0.57921293952E+02  0.60880929687E+02  0.10566000000E+00 0.  1.
         23    2    1    0    0    0  0.16296120140E+01  0.59306756958E+01  0.29527698333E+02  0.94928542503E+02  0.90009525403E+02 0.  0.
         13    1    3    3    0    0 -0.17008675077E+02  0.79835752891E+01 -0.28393595619E+02  0.34047612816E+02  0.10566000000E+00 0. -1.
         22    1    1    0    0    0 -0.16296120140E+01 -0.59306756958E+01 -0.29527698333E+02  0.30161457497E+02  0.00000000000E+00 0.  1.
</event>
<event>
 5    1  0.1254496E-009  0.9118800E+02  0.7815553E-02  0.1125453E+00
         25   -1    0    0    0    0  0.00000000000E+00  0.00000000000E+00  0.99999998245E-14  0.12509000000E+03  0.12509000000E+03 0.  0.
        -13    1    3    3    0    0 -0.17531131975E+02 -0.36896677524E+02 -0.39754358196E+02  0.57001101395E+02  0.10566000000E+00 0. -1.
         23    2    1    0    0    0 -0.59217985061E+00 -0.68827468221E+01 -0.32034300725E+02  0.92319291986E+02  0.86307197667E+02 0.  0.
         13    1    3    3    0    0  0.16938952124E+02  0.30013930702E+02  0.77200574713E+01  0.35318190591E+02  0.10566000000E+00 0.  1.
         22    1    1    0    0    0  0.59217985061E+00  0.68827468221E+01  0.32034300725E+02  0.32770708014E+02  0.00000000000E+00 0. -1.
</event>
<event>
 5    1  0.1254496E-009  0.9118800E+02  0.7815553E-02  0.1125453E+00
         25   -1    0    0    0    0  0.00000000000E+00  0.00000000000E+00  0.99999998245E-14  0.12509000000E+03  0.12509000000E+03 0.  0.
        -13    1    3    3    0    0 -0.19978530169E+02  0.11168980632E+02  0.40779394113E+02  0.46763852967E+02  0.10566000000E+00 0.  1.
         23    2    1    0    0    0  0.11404883032E+02  0.10734535549E+02 -0.10034120339E+02  0.10648932309E+03  0.10485223293E+03 0.  0.
         13    1    3    3    0    0  0.31383413201E+02 -0.43444508267E+00 -0.50813514452E+02  0.59725470125E+02  0.10566000000E+00 0. -1.
         22    1    1    0    0    0 -0.11404883032E+02 -0.10734535549E+02  0.10034120339E+02  0.18600676907E+02  0.00000000000E+00 0. -1.
</event>
<event>
 5    1  0.1254496E-009  0.9118800E+02  0.7815553E-02  0.1125453E+00
         25   -1    0    0    0    0  0.00000000000E+00  0.00000000000E+00  0.99999998245E-14  0.12509000000E+03  0.12509000000E+03 0.  0.
        -13    1    3    3    0    0  0.23844941181E+02  0.44920179173E+02  0.18439859377E+02  0.54096610751E+02  0.10566000000E+00 0. -1.
         23    2    1    0    0    0  0.22633622615E+02  0.21700157977E+02 -0.11222799072E+02  0.91786412387E+02  0.85531377581E+02 0.  0.
         13    1    3    3    0    0 -0.12113185663E+01 -0.23220021196E+02 -0.29662658449E+02  0.37689801636E+02  0.10566000000E+00 0.  1.
         22    1    1    0    0    0 -0.22633622615E+02 -0.21700157977E+02  0.11222799072E+02  0.33303587613E+02  0.00000000000E+00 0. -1.
</event>
<event>
 5    1  0.1254496E-009  0.9118800E+02  0.7815553E-02  0.1125453E+00
         25   -1    0    0    0    0  0.00000000000E+00  0.00000000000E+00  0.99999998245E-14  0.12509000000E+03  0.12509000000E+03 0.  0.
        -13    1    3    3    0    0 -0.35865701989E+02  0.19772024474E+02  0.14895837307E+01  0.40981844207E+02  0.10566000000E+00 0. -1.
         23    2    1    0    0    0 -0.16678792518E+02 -0.25524283745E+02 -0.12518027990E+02  0.92129839119E+02  0.86032174509E+02 0.  0.
         13    1    3    3    0    0  0.19186909470E+02 -0.45296308219E+02 -0.14007611721E+02  0.51147994911E+02  0.10566000000E+00 0.  1.
         22    1    1    0    0    0  0.16678792518E+02  0.25524283745E+02  0.12518027990E+02  0.32960160881E+02  0.00000000000E+00 0. -1.
</event>
<event>
 5    1  0.1254496E-009  0.9118800E+02  0.7815553E-02  0.1125453E+00
         25   -1    0    0    0    0  0.00000000000E+00  0.00000000000E+00  0.99999998245E-14  0.12509000000E+03  0.12509000000E+03 0.  0.
        -13    1    3    3    0    0  0.40529225585E+02 -0.33017028255E+02  0.28589680415E+01  0.52353864648E+02  0.10566000000E+00 0. -1.
         23    2    1    0    0    0 -0.31866322744E+01 -0.28242119905E+02 -0.20050884438E+01  0.96598030226E+02  0.92300526011E+02 0.  0.
         13    1    3    3    0    0 -0.43715857859E+02  0.47749083501E+01 -0.48640564852E+01  0.44244165578E+02  0.10566000000E+00 0.  1.
         22    1    1    0    0    0  0.31866322744E+01  0.28242119905E+02  0.20050884438E+01  0.28491969774E+02  0.00000000000E+00 0. -1.
</event>
<event>
 5    1  0.1254496E-009  0.9118800E+02  0.7815553E-02  0.1125453E+00
         25   -1    0    0    0    0  0.00000000000E+00  0.00000000000E+00  0.99999998245E-14  0.12509000000E+03  0.12509000000E+03 0.  0.
        -13    1    3    3    0    0 -0.49526201235E+01  0.86150379815E+01 -0.34103192064E+02  0.35521630009E+02  0.10566000000E+00 0. -1.
         23    2    1    0    0    0  0.13175203696E+02  0.14217999508E+02  0.22600389107E+02  0.95315596728E+02  0.90545833087E+02 0.  0.
         13    1    3    3    0    0  0.18127823820E+02  0.56029615261E+01  0.56703581171E+02  0.59793966719E+02  0.10566000000E+00 0.  1.
         22    1    1    0    0    0 -0.13175203696E+02 -0.14217999508E+02 -0.22600389107E+02  0.29774403272E+02  0.00000000000E+00 0.  1.
</event>
<event>
 5    1  0.1254496E-009  0.9118800E+02  0.7815553E-02  0.1125453E+00
         25   -1    0    0    0    0  0.00000000000E+00  0.00000000000E+00  0.99999998245E-14  0.12509000000E+03  0.12509000000E+03 0.  0.
        -13    1    3    3    0    0 -0.34329644125E+02  0.32648863649E+02  0.90517814847E+01  0.48232962540E+02  0.10566000000E+00 0. -1.
         23    2    1    0    0    0 -0.13531623866E+02 -0.12809108480E+02  0.18189122700E+02  0.99051138868E+02  0.95567284266E+02 0.  0.
         13    1    3    3    0    0  0.20798020260E+02 -0.45457972128E+02  0.91373412152E+01  0.50818176327E+02  0.10566000000E+00 0.  1.
         22    1    1    0    0    0  0.13531623866E+02  0.12809108480E+02 -0.18189122700E+02  0.26038861132E+02  0.00000000000E+00 0.  1.
</event>
<event>
 5    1  0.1254496E-009  0.9118800E+02  0.7815553E-02  0.1125453E+00
         25   -1    0    0    0    0  0.00000000000E+00  0.00000000000E+00  0.99999998245E-14  0.12509000000E+03  0.12509000000E+03 0.  0.
        -13    1    3    3    0    0 -0.53166897192E+02 -0.15282977460E+02  0.38482469146E+00  0.55321312450E+02  0.10566000000E+00 0. -1.
         23    2    1    0    0    0 -0.22683083574E+02  0.35044773615E+00  0.20041927198E+02  0.94819156936E+02  0.89857379119E+02 0.  0.
         13    1    3    3    0    0  0.30483813618E+02  0.15633425196E+02  0.19657102506E+02  0.39497844486E+02  0.10566000000E+00 0.  1.
         22    1    1    0    0    0  0.22683083574E+02 -0.35044773615E+00 -0.20041927198E+02  0.30270843064E+02  0.00000000000E+00 0. -1.
</event>
<event>
 5    1  0.1254496E-009  0.9118800E+02  0.7815553E-02  0.1125453E+00
         25   -1    0    0    0    0  0.00000000000E+00  0.00000000000E+00  0.99999998245E-14  0.12509000000E+03  0.12509000000E+03 0.  0.
        -13    1    3    3    0    0  0.26686714511E+02 -0.20384237133E+02  0.49785362251E+02  0.60052404726E+02  0.10566000000E+00 0.  1.
         23    2    1    0    0    0  0.16156907974E+02  0.22408788272E+01  0.25107672144E+02  0.95149017824E+02  0.90315409422E+02 0.  0.
         13    1    3    3    0    0 -0.10529806537E+02  0.22625115960E+02 -0.24677690106E+02  0.35096613098E+02  0.10566000000E+00 0. -1.
         22    1    1    0    0    0 -0.16156907974E+02 -0.22408788272E+01 -0.25107672144E+02  0.29940982176E+02  0.00000000000E+00 0.  1.
</event>
<event>
 5    1  0.1254496E-009  0.9118800E+02  0.7815553E-02  0.1125453E+00
         25   -1    0    0    0    0  0.00000000000E+00  0.00000000000E+00  0.99999998245E-14  0.12509000000E+03  0.12509000000E+03 0.  0.
        -13    1    3    3    0    0 -0.88435907831E+01 -0.33234513108E+02  0.13094945471E+02  0.36799873918E+02  0.10566000000E+00 0.  1.
         23    2    1    0    0    0  0.29022479044E+02 -0.10916375893E+02 -0.16671608126E+02  0.89884686907E+02  0.82703342558E+02 0.  0.
         13    1    3    3    0    0  0.37866069827E+02  0.22318137215E+02 -0.29766553597E+02  0.53084812988E+02  0.10566000000E+00 0. -1.
         22    1    1    0    0    0 -0.29022479044E+02  0.10916375893E+02  0.16671608126E+02  0.35205313093E+02  0.00000000000E+00 0. -1.
</event>
<event>
 5    1  0.1254496E-009  0.9118800E+02  0.7815553E-02  0.1125453E+00
         25   -1    0    0    0    0  0.00000000000E+00  0.00000000000E+00  0.99999998245E-14  0.12509000000E+03  0.12509000000E+03 0.  0.
        -13    1    3    3    0    0 -0.29798189428E+02  0.18481842582E+02 -0.42096706890E+02  0.54787357058E+02  0.10566000000E+00 0.  1.
         23    2    1    0    0    0 -0.28934639392E+02 -0.35375649330E+01 -0.89387553305E+01  0.94600180892E+02  0.89552024855E+02 0.  0.
         13    1    3    3    0    0  0.86355003677E+00 -0.22019407515E+02  0.33157951559E+02  0.39812823834E+02  0.10566000000E+00 0. -1.
         22    1    1    0    0    0  0.28934639392E+02  0.35375649330E+01  0.89387553305E+01  0.30489819108E+02  0.00000000000E+00 0. -1.
</event>
<event>
 5    1  0.1254496E-009  0.9118800E+02  0.7815553E-02  0.1125453E+00
         25   -1    0    0    0    0  0.00000000000E+00  0.00000000000E+00  0.99999998245E-14  0.12509000000E+03  0.12509000000E+03 0.  0.
        -13    1    3    3    0    0  0.26059624748E+02 -0.20489780118E+02  0.28227269875E+02  0.43539924896E+02  0.10566000000E+00 0. -1.
         23    2    1    0    0    0  0.18216599763E+01  0.24289723870E+02  0.16129290383E+02  0.95875908554E+02  0.91316628837E+02 0.  0.
         13    1    3    3    0    0 -0.24237964772E+02  0.44779503988E+02 -0.12097979492E+02  0.52335983658E+02  0.10566000000E+00 0.  1.
         22    1    1    0    0    0 -0.18216599763E+01 -0.24289723870E+02 -0.16129290383E+02  0.29214091446E+02  0.00000000000E+00 0. -1.
</event>
<event>
 5    1  0.1254496E-009  0.9118800E+02  0.7815553E-02  0.1125453E+00
         25   -1    0    0    0    0  0.00000000000E+00  0.00000000000E+00  0.99999998245E-14  0.12509000000E+03  0.12509000000E+03 0.  0.
        -13    1    3    3    0    0  0.20327632195E+02  0.55824413031E+02  0.73961790475E+01  0.59868959816E+02  0.10566000000E+00 0. -1.
         23    2    1    0    0    0  0.18089635976E+02  0.13911999227E+02  0.21318170933E+01  0.10217006771E+03  0.99566055655E+02 0.  0.
         13    1    3    3    0    0 -0.22379962185E+01 -0.41912413804E+02 -0.52643619542E+01  0.42301107890E+02  0.10566000000E+00 0.  1.
         22    1    1    0    0    0 -0.18089635976E+02 -0.13911999227E+02 -0.21318170933E+01  0.22919932294E+02  0.00000000000E+00 0. -1.
</event>
<event>
 5    1  0.1254496E-009  0.9118800E+02  0.7815553E-02  0.1125453E+00
         25   -1    0    0    0    0  0.00000000000E+00  0.00000000000E+00  0.99999998245E-14  0.12509000000E+03  0.12509000000E+03 0.  0.
        -13    1    3    3    0    0  0.15474107788E+02 -0.14036319008E+02  0.26740159158E+02  0.33933958492E+02  0.10566000000E+00 0.  1.
         23    2    1    0    0    0 -0.15179258153E+02  0.16068641023E+02 -0.18456459672E+02  0.96293263969E+02  0.91886564197E+02 0.  0.
         13    1    3    3    0    0 -0.30653365941E+02  0.30104960031E+02 -0.45196618830E+02  0.62359305477E+02  0.10566000000E+00 0. -1.
         22    1    1    0    0    0  0.15179258153E+02 -0.16068641023E+02  0.18456459672E+02  0.28796736031E+02  0.00000000000E+00 0. -1.
</event>
<event>
 5    1  0.1254496E-009  0.9118800E+02  0.7815553E-02  0.1125453E+00
         25   -1    0    0    0    0  0.00000000000E+00  0.00000000000E+00  0.99999998245E-14  0.12509000000E+03  0.12509000000E+03 0.  0.
        -13    1    3    3    0    0  0.28876892252E+02  0.35304488704E+02 -0.41652293025E+02  0.61767357941E+02  0.10566000000E+00 0.  1.
         23    2    1    0    0    0  0.16824353141E+02  0.20694366716E+02 -0.14918341752E+02  0.94530670934E+02  0.89454877755E+02 0.  0.
         13    1    3    3    0    0 -0.12052539111E+02 -0.14610121988E+02  0.26733951273E+02  0.32763312992E+02  0.10566000000E+00 0. -1.
         22    1    1    0    0    0 -0.16824353141E+02 -0.20694366716E+02  0.14918341752E+02  0.30559329066E+02  0.00000000000E+00 0.  1.
</event>
<event>
 5    1  0.1254496E-009  0.9118800E+02  0.7815553E-02  0.1125453E+00
         25   -1    0    0    0    0  0.00000000000E+00  0.00000000000E+00  0.99999998245E-14  0.12509000000E+03  0.12509000000E+03 0.  0.
        -13    1    3    3    0    0 -0.12518672846E+02 -0.84689562300E+00 -0.58037793733E+02  0.59378708874E+02  0.10566000000E+00 0.  1.
         23    2    1    0    0    0  0.81177317702E+01 -0.13589307020E+01 -0.28572664166E+02  0.95355484714E+02  0.90600921992E+02 0.  0.
         13    1    3    3    0    0  0.20636404616E+02 -0.51203507898E+00  0.29465129567E+02  0.35976775840E+02  0.10566000000E+00 0. -1.
         22    1    1    0    0    0 -0.81177317702E+01  0.13589307020E+01  0.28572664166E+02  0.29734515286E+02  0.00000000000E+00 0.  1.
</event>
<event>
 5    1  0.1254496E-009  0.9118800E+02  0.7815553E-02  0.1125453E+00
         25   -1    0    0    0    0  0.00000000000E+00  0.00000000000E+00  0.99999998245E-14  0.12509000000E+03  0.12509000000E+03 0.  0.
        -13    1    3    3    0    0  0.65957866260E+01 -0.33012896409E+02 -0.10321804500E+02  0.35212306693E+02  0.10566000000E+00 0.  1.
         23    2    1    0    0    0  0.35068241420E+01  0.27974667148E+02 -0.42216572645E+01  0.96582067636E+02  0.92278890225E+02 0.  0.
         13    1    3    3    0    0 -0.30889624840E+01  0.60987563557E+02  0.61001472354E+01  0.61369760943E+02  0.10566000000E+00 0. -1.
         22    1    1    0    0    0 -0.35068241420E+01 -0.27974667148E+02  0.42216572645E+01  0.28507932364E+02  0.00000000000E+00 0. -1.
</event>
<event>
 5    1  0.1254496E-009  0.9118800E+02  0.7815553E-02  0.1125453E+00
         25   -1    0    0    0    0  0.00000000000E+00  0.00000000000E+00  0.99999998245E-14  0.12509000000E+03  0.12509000000E+03 0.  0.
        -13    1    3    3    0    0  0.16295965485E+02  0.23665134131E+02  0.26839853237E+02  0.39319027841E+02  0.10566000000E+00 0. -1.
         23    2    1    0    0    0  0.20726937518E+02 -0.64846985070E+01 -0.20241454280E+02  0.95402060951E+02  0.90665205612E+02 0.  0.
         13    1    3    3    0    0  0.44309720326E+01 -0.30149832638E+02 -0.47081307518E+02  0.56083033110E+02  0.10566000000E+00 0.  1.
         22    1    1    0    0    0 -0.20726937518E+02  0.64846985070E+01  0.20241454280E+02  0.29687939049E+02  0.00000000000E+00 0.  1.
</event>
<event>
 5    1  0.1254496E-009  0.9118800E+02  0.7815553E-02  0.1125453E+00
         25   -1    0    0    0    0  0.00000000000E+00  0.00000000000E+00  0.99999998245E-14  0.12509000000E+03  0.12509000000E+03 0.  0.
        -13    1    3    3    0    0  0.32219373669E+02 -0.15090145195E+02 -0.21072807388E+02  0.41350633573E+02  0.10566000000E+00 0.  1.
         23    2    1    0    0    0  0.18697805240E+02 -0.43807199082E-01 -0.47157777430E+02  0.74360661231E+02  0.54369496289E+02 0.  0.
         13    1    3    3    0    0 -0.13521568429E+02  0.15046337996E+02 -0.26084970041E+02  0.33010027658E+02  0.10566000000E+00 0. -1.
         22    1    1    0    0    0 -0.18697805240E+02  0.43807199082E-01  0.47157777430E+02  0.50729338769E+02  0.00000000000E+00 0.  1.
</event>
<event>
 5    1  0.1254496E-009  0.9118800E+02  0.7815553E-02  0.1125453E+00
         25   -1    0    0    0    0  0.00000000000E+00  0.00000000000E+00  0.99999998245E-14  0.12509000000E+03  0.12509000000E+03 0.  0.
        -13    1    3    3    0    0 -0.47597132789E+02  0.21651701013E+02 -0.28413898692E+02  0.59511713212E+02  0.10566000000E+00 0.  1.
         23    2    1    0    0    0 -0.26055693718E+02 -0.31546027860E+01 -0.12937321616E+02  0.95828677671E+02  0.91251906718E+02 0.  0.
         13    1    3    3    0    0  0.21541439072E+02 -0.24806303799E+02  0.15476577076E+02  0.36316964458E+02  0.10566000000E+00 0. -1.
         22    1    1    0    0    0  0.26055693718E+02  0.31546027860E+01  0.12937321616E+02  0.29261322329E+02  0.00000000000E+00 0.  1.
</event>
<event>
 5    1  0.1254496E-009  0.9118800E+02  0.7815553E-02  0.1125453E+00
         25   -1    0    0    0    0  0.00000000000E+00  0.00000000000E+00  0.99999998245E-14  0.12509000000E+03  0.12509000000E+03 0.  0.
        -13    1    3    3    0    0  0.48954913520E+02  0.35670927709E+02  0.12424627328E+02  0.61833495531E+02  0.10566000000E+00 0.  1.
         23    2    1    0    0    0  0.22732749251E+02  0.18704644833E+02  0.12604105568E+02  0.93066491385E+02  0.87383446457E+02 0.  0.
         13    1    3    3    0    0 -0.26222164269E+02 -0.16966282876E+02  0.17947824025E+00  0.31232995854E+02  0.10566000000E+00 0. -1.
         22    1    1    0    0    0 -0.22732749251E+02 -0.18704644833E+02 -0.12604105568E+02  0.32023508615E+02  0.00000000000E+00 0.  1.
</event>
<event>
 5    1  0.1254496E-009  0.9118800E+02  0.7815553E-02  0.1125453E+00
         25   -1    0    0    0    0  0.00000000000E+00  0.00000000000E+00  0.99999998245E-14  0.12509000000E+03  0.12509000000E+03 0.  0.
        -13    1    3    3    0    0  0.59948944692E+01  0.35522529805E+02  0.19649491337E+01  0.36078540333E+02  0.10566000000E+00 0.  1.
         23    2    1    0    0    0  0.29624950986E+02 -0.99484071693E+01 -0.15485720902E+02  0.90212843035E+02  0.83198202928E+02 0.  0.
         13    1    3    3    0    0  0.23630056517E+02 -0.45470936974E+02 -0.17450670036E+02  0.54134302702E+02  0.10566000000E+00 0. -1.
         22    1    1    0    0    0 -0.29624950986E+02  0.99484071693E+01  0.15485720902E+02  0.34877156965E+02  0.00000000000E+00 0. -1.
</event>
<event>
 5    1  0.1254496E-009  0.9118800E+02  0.7815553E-02  0.1125453E+00
         25   -1    0    0    0    0  0.00000000000E+00  0.00000000000E+00  0.99999998245E-14  0.12509000000E+03  0.12509000000E+03 0.  0.
        -13    1    3    3    0    0 -0.29368263464E+02  0.34906439522E+02  0.19335299912E+02  0.49546134115E+02  0.10566000000E+00 0.  1.
         23    2    1    0    0    0  0.13951648289E+02  0.23628974135E+02  0.12894209108E+02  0.94771069656E+02  0.89790412108E+02 0.  0.
         13    1    3    3    0    0  0.43319911754E+02 -0.11277465387E+02 -0.64410908035E+01  0.45224935541E+02  0.10566000000E+00 0. -1.
         22    1    1    0    0    0 -0.13951648289E+02 -0.23628974135E+02 -0.12894209108E+02  0.30318930344E+02  0.00000000000E+00 0.  1.
</event>
<event>
 5    1  0.1254496E-009  0.9118800E+02  0.7815553E-02  0.1125453E+00
         25   -1    0    0    0    0  0.00000000000E+00  0.00000000000E+00  0.99999998245E-14  0.12509000000E+03  0.12509000000E+03 0.  0.
        -13    1    3    3    0    0  0.21891459700E+02  0.47113626988E+02  0.34038684850E+02  0.62109363916E+02  0.10566000000E+00 0.  1.
         23    2    1    0    0    0 -0.15986810637E+00  0.86538621859E+01  0.57316255956E+01  0.11470893934E+03  0.11423823503E+03 0.  0.
         13    1    3    3    0    0 -0.22051327807E+02 -0.38459764802E+02 -0.28307059254E+02  0.52599575420E+02  0.10566000000E+00 0. -1.
         22    1    1    0    0    0  0.15986810637E+00 -0.86538621859E+01 -0.57316255956E+01  0.10381060664E+02  0.00000000000E+00 0.  1.
</event>
<event>
 5    1  0.1254496E-009  0.9118800E+02  0.7815553E-02  0.1125453E+00
         25   -1    0    0    0    0  0.00000000000E+00  0.00000000000E+00  0.99999998245E-14  0.12509000000E+03  0.12509000000E+03 0.  0.
        -13    1    3    3    0    0  0.26519003441E+02 -0.92948570822E+01 -0.43651949403E+02  0.51914889602E+02  0.10566000000E+00 0. -1.
         23    2    1    0    0    0  0.10330038240E+02  0.21301650100E+02 -0.13402023111E+02  0.97885511207E+02  0.94029192775E+02 0.  0.
         13    1    3    3    0    0 -0.16188965201E+02  0.30596507182E+02  0.30249926292E+02  0.45970621605E+02  0.10566000000E+00 0.  1.
         22    1    1    0    0    0 -0.10330038240E+02 -0.21301650100E+02  0.13402023111E+02  0.27204488793E+02  0.00000000000E+00 0. -1.
</event>
<event>
 5    1  0.1254496E-009  0.9118800E+02  0.7815553E-02  0.1125453E+00
         25   -1    0    0    0    0  0.00000000000E+00  0.00000000000E+00  0.99999998245E-14  0.12509000000E+03  0.12509000000E+03 0.  0.
        -13    1    3    3    0    0 -0.21108166876E+02 -0.45365985869E+02  0.31758917311E+02  0.59264385389E+02  0.10566000000E+00 0. -1.
         23    2    1    0    0    0 -0.16508380729E+02 -0.91422860563E+01  0.19920767966E+02  0.97650156250E+02  0.93715569628E+02 0.  0.
         13    1    3    3    0    0  0.45997861464E+01  0.36223699813E+02 -0.11838149344E+02  0.38385770862E+02  0.10566000000E+00 0.  1.
         22    1    1    0    0    0  0.16508380729E+02  0.91422860563E+01 -0.19920767966E+02  0.27439843750E+02  0.00000000000E+00 0. -1.
</event>
<event>
 5    1  0.1254496E-009  0.9118800E+02  0.7815553E-02  0.1125453E+00
         25   -1    0    0    0    0  0.00000000000E+00  0.00000000000E+00  0.99999998245E-14  0.12509000000E+03  0.12509000000E+03 0.  0.
        -13    1    3    3    0    0 -0.52276970688E+02  0.21790502702E+01 -0.17361521570E+02  0.55127701926E+02  0.10566000000E+00 0.  1.
         23    2    1    0    0    0 -0.14993045239E+02  0.19262212288E+02 -0.15487158785E+02  0.96181933392E+02  0.91734878841E+02 0.  0.
         13    1    3    3    0    0  0.37283925448E+02  0.17083162018E+02  0.18743627853E+01  0.41054231466E+02  0.10566000000E+00 0. -1.
         22    1    1    0    0    0  0.14993045239E+02 -0.19262212288E+02  0.15487158785E+02  0.28908066608E+02  0.00000000000E+00 0.  1.
</event>
<event>
 5    1  0.1254496E-009  0.9118800E+02  0.7815553E-02  0.1125453E+00
         25   -1    0    0    0    0  0.00000000000E+00  0.00000000000E+00  0.99999998245E-14  0.12509000000E+03  0.12509000000E+03 0.  0.
        -13    1    3    3    0    0  0.16677875193E+02  0.44026636364E+01 -0.35950400238E+02  0.39874520804E+02  0.10566000000E+00 0. -1.
         23    2    1    0    0    0 -0.67281050465E+01 -0.27957882340E+02  0.36330627825E+01  0.96105353587E+02  0.91630394851E+02 0.  0.
         13    1    3    3    0    0 -0.23405980239E+02 -0.32360545977E+02  0.39583463020E+02  0.56230832784E+02  0.10566000000E+00 0.  1.
         22    1    1    0    0    0  0.67281050465E+01  0.27957882340E+02 -0.36330627825E+01  0.28984646413E+02  0.00000000000E+00 0.  1.
</event>
<event>
 5    1  0.1254496E-009  0.9118800E+02  0.7815553E-02  0.1125453E+00
         25   -1    0    0    0    0  0.00000000000E+00  0.00000000000E+00  0.99999998245E-14  0.12509000000E+03  0.12509000000E+03 0.  0.
        -13    1    3    3    0    0  0.41541266424E+02  0.15692215219E+02  0.14776212677E+02  0.46800321150E+02  0.10566000000E+00 0. -1.
         23    2    1    0    0    0 -0.84097389260E+01  0.18438889425E+02  0.19393611994E+02  0.97039535865E+02  0.92896948188E+02 0.  0.
         13    1    3    3    0    0 -0.49951005350E+02  0.27466742056E+01  0.46173993166E+01  0.50239214715E+02  0.10566000000E+00 0.  1.
         22    1    1    0    0    0  0.84097389260E+01 -0.18438889425E+02 -0.19393611994E+02  0.28050464135E+02  0.00000000000E+00 0. -1.
</event>
<event>
 5    1  0.1254496E-009  0.9118800E+02  0.7815553E-02  0.1125453E+00
         25   -1    0    0    0    0  0.00000000000E+00  0.00000000000E+00  0.99999998245E-14  0.12509000000E+03  0.12509000000E+03 0.  0.
        -13    1    3    3    0    0 -0.55539032837E+01  0.40299687786E+02 -0.43788111984E+02  0.59768893184E+02  0.10566000000E+00 0. -1.
         23    2    1    0    0    0 -0.88529645229E+01  0.91959481207E+01 -0.26899343566E+02  0.95315596111E+02  0.90545832234E+02 0.  0.
         13    1    3    3    0    0 -0.32990612392E+01 -0.31103739665E+02  0.16888768417E+02  0.35546702926E+02  0.10566000000E+00 0.  1.
         22    1    1    0    0    0  0.88529645229E+01 -0.91959481207E+01  0.26899343566E+02  0.29774403889E+02  0.00000000000E+00 0. -1.
</event>
<event>
 5    1  0.1254496E-009  0.9118800E+02  0.7815553E-02  0.1125453E+00
         25   -1    0    0    0    0  0.00000000000E+00  0.00000000000E+00  0.99999998245E-14  0.12509000000E+03  0.12509000000E+03 0.  0.
        -13    1    3    3    0    0  0.54071920381E+02  0.14997236000E+02  0.21453162352E+02  0.60074445485E+02  0.10566000000E+00 0.  1.
         23    2    1    0    0    0  0.26584784884E+02  0.20191157247E+02  0.10904043123E+02  0.89971176348E+02  0.82834055791E+02 0.  0.
         13    1    3    3    0    0 -0.27487135497E+02  0.51939212471E+01 -0.10549119230E+02  0.29896730864E+02  0.10566000000E+00 0. -1.
         22    1    1    0    0    0 -0.26584784884E+02 -0.20191157247E+02 -0.10904043123E+02  0.35118823652E+02  0.00000000000E+00 0.  1.
</event>
<event>
 5    1  0.1254496E-009  0.9118800E+02  0.7815553E-02  0.1125453E+00
         25   -1    0    0    0    0  0.00000000000E+00  0.00000000000E+00  0.99999998245E-14  0.12509000000E+03  0.12509000000E+03 0.  0.
        -13    1    3    3    0    0  0.83375443961E+00 -0.57251844977E+02  0.20304719139E+01  0.57294003874E+02  0.10566000000E+00 0.  1.
         23    2    1    0    0    0 -0.16214646912E+02 -0.24280722557E+02 -0.60288768027E+01  0.95276989118E+02  0.90492480558E+02 0.  0.
         13    1    3    3    0    0 -0.17048401351E+02  0.32971122420E+02 -0.80593487166E+01  0.37982985244E+02  0.10566000000E+00 0. -1.
         22    1    1    0    0    0  0.16214646912E+02  0.24280722557E+02  0.60288768027E+01  0.29813010882E+02  0.00000000000E+00 0.  1.
</event>
<event>
 5    1  0.1254496E-009  0.9118800E+02  0.7815553E-02  0.1125453E+00
         25   -1    0    0    0    0  0.00000000000E+00  0.00000000000E+00  0.99999998245E-14  0.12509000000E+03  0.12509000000E+03 0.  0.
        -13    1    3    3    0    0  0.28937586344E+02  0.13565095626E+02 -0.38580471741E+02  0.50098499843E+02  0.10566000000E+00 0.  1.
         23    2    1    0    0    0  0.22456459308E+02 -0.16907285195E+02 -0.39102204115E+01  0.96709748398E+02  0.92451807739E+02 0.  0.
         13    1    3    3    0    0 -0.64811270353E+01 -0.30472380822E+02  0.34670251329E+02  0.46611248555E+02  0.10566000000E+00 0. -1.
         22    1    1    0    0    0 -0.22456459308E+02  0.16907285195E+02  0.39102204115E+01  0.28380251602E+02  0.00000000000E+00 0. -1.
</event>
<event>
 5    1  0.1254496E-009  0.9118800E+02  0.7815553E-02  0.1125453E+00
         25   -1    0    0    0    0  0.00000000000E+00  0.00000000000E+00  0.99999998245E-14  0.12509000000E+03  0.12509000000E+03 0.  0.
        -13    1    3    3    0    0 -0.29336288787E+02 -0.37243722331E+02  0.34846435002E+02  0.58838744797E+02  0.10566000000E+00 0.  1.
         23    2    1    0    0    0 -0.44601422372E+01 -0.27407139997E+02  0.93586057245E+01  0.95787650389E+02  0.91195648330E+02 0.  0.
         13    1    3    3    0    0  0.24876146550E+02  0.98365823338E+01 -0.25487829278E+02  0.36948905593E+02  0.10566000000E+00 0. -1.
         22    1    1    0    0    0  0.44601422372E+01  0.27407139997E+02 -0.93586057245E+01  0.29302349611E+02  0.00000000000E+00 0.  1.
</event>
<event>
 5    1  0.1254496E-009  0.9118800E+02  0.7815553E-02  0.1125453E+00
         25   -1    0    0    0    0  0.00000000000E+00  0.00000000000E+00  0.99999998245E-14  0.12509000000E+03  0.12509000000E+03 0.  0.
        -13    1    3    3    0    0  0.48317633280E+01 -0.43313045941E+02  0.38726942634E+01  0.43753569116E+02  0.10566000000E+00 0.  1.
         23    2    1    0    0    0  0.14697080096E+02 -0.23852299686E+01 -0.25829163417E+02  0.95276594153E+02  0.90491934587E+02 0.  0.
         13    1    3    3    0    0  0.98653167679E+01  0.40927815972E+02 -0.29701857681E+02  0.51523025037E+02  0.10566000000E+00 0. -1.
         22    1    1    0    0    0 -0.14697080096E+02  0.23852299686E+01  0.25829163417E+02  0.29813405847E+02  0.00000000000E+00 0.  1.
</event>
<event>
 5    1  0.1254496E-009  0.9118800E+02  0.7815553E-02  0.1125453E+00
         25   -1    0    0    0    0  0.00000000000E+00  0.00000000000E+00  0.99999998245E-14  0.12509000000E+03  0.12509000000E+03 0.  0.
        -13    1    3    3    0    0  0.37686028231E+02  0.42036419750E+02 -0.41965360840E+01  0.56612007458E+02  0.10566000000E+00 0. -1.
         23    2    1    0    0    0  0.21959121324E+02  0.92949331714E+01  0.14209255579E+02  0.97332086964E+02  0.93290049934E+02 0.  0.
         13    1    3    3    0    0 -0.15726906907E+02 -0.32741486578E+02  0.18405791663E+02  0.40720079506E+02  0.10566000000E+00 0.  1.
         22    1    1    0    0    0 -0.21959121324E+02 -0.92949331714E+01 -0.14209255579E+02  0.27757913036E+02  0.00000000000E+00 0. -1.
</event>
<event>
 5    1  0.1254496E-009  0.9118800E+02  0.7815553E-02  0.1125453E+00
         25   -1    0    0    0    0  0.00000000000E+00  0.00000000000E+00  0.99999998245E-14  0.12509000000E+03  0.12509000000E+03 0.  0.
        -13    1    3    3    0    0  0.10014444219E+02 -0.86024826205E+00  0.37647893033E+02  0.38966705454E+02  0.10566000000E+00 0. -1.
         23    2    1    0    0    0  0.24756076029E+02 -0.85495145875E+01 -0.15501137669E+02  0.94655763209E+02  0.89629630924E+02 0.  0.
         13    1    3    3    0    0  0.14741631810E+02 -0.76892663254E+01 -0.53149030702E+02  0.55689057755E+02  0.10566000000E+00 0.  1.
         22    1    1    0    0    0 -0.24756076029E+02  0.85495145875E+01  0.15501137669E+02  0.30434236791E+02  0.00000000000E+00 0.  1.
</event>
<event>
 5    1  0.1254496E-009  0.9118800E+02  0.7815553E-02  0.1125453E+00
         25   -1    0    0    0    0  0.00000000000E+00  0.00000000000E+00  0.99999998245E-14  0.12509000000E+03  0.12509000000E+03 0.  0.
        -13    1    3    3    0    0 -0.47320977964E+01  0.19680851458E+02 -0.40678026290E+02  0.45436127152E+02  0.10566000000E+00 0. -1.
         23    2    1    0    0    0 -0.28471158693E+02  0.10469337187E+02  0.15145859397E+01  0.94717185362E+02  0.89715312705E+02 0.  0.
         13    1    3    3    0    0 -0.23739060897E+02 -0.92115142712E+01  0.42192612230E+02  0.49281058210E+02  0.10566000000E+00 0.  1.
         22    1    1    0    0    0  0.28471158693E+02 -0.10469337187E+02 -0.15145859397E+01  0.30372814638E+02  0.00000000000E+00 0.  1.
</event>
<event>
 5    1  0.1254496E-009  0.9118800E+02  0.7815553E-02  0.1125453E+00
         25   -1    0    0    0    0  0.00000000000E+00  0.00000000000E+00  0.99999998245E-14  0.12509000000E+03  0.12509000000E+03 0.  0.
        -13    1    3    3    0    0  0.10272371656E+02 -0.34580789925E+02  0.18896192710E+02  0.40723824897E+02  0.10566000000E+00 0. -1.
         23    2    1    0    0    0  0.32953986073E+02  0.77867735563E+01  0.11394257516E+02  0.89362865426E+02  0.81910277574E+02 0.  0.
         13    1    3    3    0    0  0.22681614418E+02  0.42367563481E+02 -0.75019351944E+01  0.48639040529E+02  0.10566000000E+00 0.  1.
         22    1    1    0    0    0 -0.32953986073E+02 -0.77867735563E+01 -0.11394257516E+02  0.35727134574E+02  0.00000000000E+00 0.  1.
</event>
<event>
 5    1  0.1254496E-009  0.9118800E+02  0.7815553E-02  0.1125453E+00
         25   -1    0    0    0    0  0.00000000000E+00  0.00000000000E+00  0.99999998245E-14  0.12509000000E+03  0.12509000000E+03 0.  0.
        -13    1    3    3    0    0  0.11877261726E+02 -0.36537746025E+02 -0.12400054938E+02  0.40371385376E+02  0.10566000000E+00 0.  1.
         23    2    1    0    0    0 -0.28968630869E+02 -0.29693250527E+00 -0.72961330682E+01  0.95215206258E+02  0.90407036240E+02 0.  0.
         13    1    3    3    0    0 -0.40845892596E+02  0.36240813520E+02  0.51039218695E+01  0.54843820882E+02  0.10566000000E+00 0. -1.
         22    1    1    0    0    0  0.28968630869E+02  0.29693250527E+00  0.72961330682E+01  0.29874793742E+02  0.00000000000E+00 0. -1.
</event>
<event>
 5    1  0.1254496E-009  0.9118800E+02  0.7815553E-02  0.1125453E+00
         25   -1    0    0    0    0  0.00000000000E+00  0.00000000000E+00  0.99999998245E-14  0.12509000000E+03  0.12509000000E+03 0.  0.
        -13    1    3    3    0    0  0.33356780039E+02  0.45242283687E+02 -0.58634477140E+01  0.56514866990E+02  0.10566000000E+00 0. -1.
         23    2    1    0    0    0 -0.83617309884E+00  0.26999720747E+02 -0.11599460711E+02  0.95692183845E+02  0.91064605937E+02 0.  0.
         13    1    3    3    0    0 -0.34192953137E+02 -0.18242562940E+02 -0.57360129971E+01  0.39177316856E+02  0.10566000000E+00 0.  1.
         22    1    1    0    0    0  0.83617309884E+00 -0.26999720747E+02  0.11599460711E+02  0.29397816155E+02  0.00000000000E+00 0. -1.
</event>
<event>
 5    1  0.1254496E-009  0.9118800E+02  0.7815553E-02  0.1125453E+00
         25   -1    0    0    0    0  0.00000000000E+00  0.00000000000E+00  0.99999998245E-14  0.12509000000E+03  0.12509000000E+03 0.  0.
        -13    1    3    3    0    0 -0.19215012789E+02  0.27851960869E+02  0.27967826424E+02  0.43899418216E+02  0.10566000000E+00 0.  1.
         23    2    1    0    0    0 -0.21100464907E+02  0.49192027152E+01 -0.19046127390E+02  0.96242415297E+02  0.91817315137E+02 0.  0.
         13    1    3    3    0    0 -0.18854521171E+01 -0.22932758154E+02 -0.47013953814E+02  0.52342997082E+02  0.10566000000E+00 0. -1.
         22    1    1    0    0    0  0.21100464907E+02 -0.49192027152E+01  0.19046127390E+02  0.28847584703E+02  0.00000000000E+00 0. -1.
</event>
<event>
 5    1  0.1254496E-009  0.9118800E+02  0.7815553E-02  0.1125453E+00
         25   -1    0    0    0    0  0.00000000000E+00  0.00000000000E+00  0.99999998245E-14  0.12509000000E+03  0.12509000000E+03 0.  0.
        -13    1    3    3    0    0  0.84977094616E+01 -0.33706040710E+02  0.13576484559E+02  0.37318096729E+02  0.10566000000E+00 0.  1.
         23    2    1    0    0    0 -0.17073737870E+02  0.19144902345E+02  0.13653524738E+02  0.96030431035E+02  0.91528056553E+02 0.  0.
         13    1    3    3    0    0 -0.25571447332E+02  0.52850943055E+02  0.77040179084E-01  0.58712334306E+02  0.10566000000E+00 0. -1.
         22    1    1    0    0    0  0.17073737870E+02 -0.19144902345E+02 -0.13653524738E+02  0.29059568965E+02  0.00000000000E+00 0. -1.
</event>
<event>
 5    1  0.1254496E-009  0.9118800E+02  0.7815553E-02  0.1125453E+00
         25   -1    0    0    0    0  0.00000000000E+00  0.00000000000E+00  0.99999998245E-14  0.12509000000E+03  0.12509000000E+03 0.  0.
        -13    1    3    3    0    0  0.69518044525E+01  0.33179406869E+02  0.16699477267E+02  0.37790003048E+02  0.10566000000E+00 0.  1.
         23    2    1    0    0    0 -0.25665524391E+01 -0.38421681731E+01 -0.28060635197E+02  0.96651492737E+02  0.92372952496E+02 0.  0.
         13    1    3    3    0    0 -0.95183568916E+01 -0.37021575042E+02 -0.44760112465E+02  0.58861489689E+02  0.10566000000E+00 0. -1.
         22    1    1    0    0    0  0.25665524391E+01  0.38421681731E+01  0.28060635197E+02  0.28438507263E+02  0.00000000000E+00 0. -1.
</event>
<event>
 5    1  0.1254496E-009  0.9118800E+02  0.7815553E-02  0.1125453E+00
         25   -1    0    0    0    0  0.00000000000E+00  0.00000000000E+00  0.99999998245E-14  0.12509000000E+03  0.12509000000E+03 0.  0.
        -13    1    3    3    0    0  0.13059524749E+02  0.20765259984E+02  0.22646436099E+02  0.33385916804E+02  0.10566000000E+00 0. -1.
         23    2    1    0    0    0 -0.56985514684E+00 -0.26846621241E+02 -0.13821948619E+02  0.94888806802E+02  0.89954286089E+02 0.  0.
         13    1    3    3    0    0 -0.13629379896E+02 -0.47611881225E+02 -0.36468384718E+02  0.61502889998E+02  0.10566000000E+00 0.  1.
         22    1    1    0    0    0  0.56985514684E+00  0.26846621241E+02  0.13821948619E+02  0.30201193198E+02  0.00000000000E+00 0.  1.
</event>
<event>
 5    1  0.1254496E-009  0.9118800E+02  0.7815553E-02  0.1125453E+00
         25   -1    0    0    0    0  0.00000000000E+00  0.00000000000E+00  0.99999998245E-14  0.12509000000E+03  0.12509000000E+03 0.  0.
        -13    1    3    3    0    0 -0.81990036763E+00 -0.50117882386E+02  0.19876702366E+02  0.53921877123E+02  0.10566000000E+00 0.  1.
         23    2    1    0    0    0 -0.22621802600E+02 -0.17781913261E+02  0.39575577871E+01  0.96045126859E+02  0.91548138909E+02 0.  0.
         13    1    3    3    0    0 -0.21801902233E+02  0.32335969125E+02 -0.15919144579E+02  0.42123249737E+02  0.10566000000E+00 0. -1.
         22    1    1    0    0    0  0.22621802600E+02  0.17781913261E+02 -0.39575577871E+01  0.29044873141E+02  0.00000000000E+00 0.  1.
</event>
<event>
 5    1  0.1254496E-009  0.9118800E+02  0.7815553E-02  0.1125453E+00
         25   -1    0    0    0    0  0.00000000000E+00  0.00000000000E+00  0.99999998245E-14  0.12509000000E+03  0.12509000000E+03 0.  0.
        -13    1    3    3    0    0 -0.34233080895E+02 -0.49462473204E+02 -0.10931626806E+02  0.61138790564E+02  0.10566000000E+00 0.  1.
         23    2    1    0    0    0 -0.17019843753E+02 -0.19875880989E+02 -0.13833266402E+02  0.95491267159E+02  0.90788199221E+02 0.  0.
         13    1    3    3    0    0  0.17213237142E+02  0.29586592215E+02 -0.29016395961E+01  0.34352476595E+02  0.10566000000E+00 0. -1.
         22    1    1    0    0    0  0.17019843753E+02  0.19875880989E+02  0.13833266402E+02  0.29598732841E+02  0.00000000000E+00 0.  1.
</event>
<event>
 5    1  0.1254496E-009  0.9118800E+02  0.7815553E-02  0.1125453E+00
         25   -1    0    0    0    0  0.00000000000E+00  0.00000000000E+00  0.99999998245E-14  0.12509000000E+03  0.12509000000E+03 0.  0.
        -13    1    3    3    0    0 -0.32011380206E+01  0.22398219540E+02  0.38309546406E+02  0.44492246887E+02  0.10566000000E+00 0. -1.
         23    2    1    0    0    0  0.17279899768E+02  0.14235259832E+02 -0.12192212164E+02  0.99597106952E+02  0.96279261097E+02 0.  0.
         13    1    3    3    0    0  0.20481037789E+02 -0.81629597081E+01 -0.50501758570E+02  0.55104860065E+02  0.10566000000E+00 0.  1.
         22    1    1    0    0    0 -0.17279899768E+02 -0.14235259832E+02  0.12192212164E+02  0.25492893048E+02  0.00000000000E+00 0.  1.
</event>
<event>
 5    1  0.1254496E-009  0.9118800E+02  0.7815553E-02  0.1125453E+00
         25   -1    0    0    0    0  0.00000000000E+00  0.00000000000E+00  0.99999998245E-14  0.12509000000E+03  0.12509000000E+03 0.  0.
        -13    1    3    3    0    0  0.28419147257E+02  0.24090015080E+02 -0.11087229501E+02  0.38870484682E+02  0.10566000000E+00 0.  1.
         23    2    1    0    0    0 -0.26162415019E+02  0.13638266929E+02  0.23398267659E+00  0.95585271017E+02  0.90917627571E+02 0.  0.
         13    1    3    3    0    0 -0.54581562276E+02 -0.10451748151E+02  0.11321212177E+02  0.56714786336E+02  0.10566000000E+00 0. -1.
         22    1    1    0    0    0  0.26162415019E+02 -0.13638266929E+02 -0.23398267659E+00  0.29504728983E+02  0.00000000000E+00 0. -1.
</event>
<event>
 5    1  0.1254496E-009  0.9118800E+02  0.7815553E-02  0.1125453E+00
         25   -1    0    0    0    0  0.00000000000E+00  0.00000000000E+00  0.99999998245E-14  0.12509000000E+03  0.12509000000E+03 0.  0.
        -13    1    3    3    0    0 -0.30535609801E+02  0.37909249777E+02  0.16837132417E+02  0.51507619598E+02  0.10566000000E+00 0.  1.
         23    2    1    0    0    0 -0.12789919638E+02 -0.11325923357E+01  0.26655722658E+02  0.95502969731E+02  0.90804321853E+02 0.  0.
         13    1    3    3    0    0  0.17745690163E+02 -0.39041842113E+02  0.98185902404E+01  0.43995350133E+02  0.10566000000E+00 0. -1.
         22    1    1    0    0    0  0.12789919638E+02  0.11325923357E+01 -0.26655722658E+02  0.29587030269E+02  0.00000000000E+00 0.  1.
</event>
<event>
 5    1  0.1254496E-009  0.9118800E+02  0.7815553E-02  0.1125453E+00
         25   -1    0    0    0    0  0.00000000000E+00  0.00000000000E+00  0.99999998245E-14  0.12509000000E+03  0.12509000000E+03 0.  0.
        -13    1    3    3    0    0 -0.98791308032E+01  0.41058189253E+02  0.22387139284E+02  0.47797147400E+02  0.10566000000E+00 0. -1.
         23    2    1    0    0    0 -0.16673807218E+01 -0.74657813527E+01  0.26810471916E+02  0.97209550684E+02  0.93125599543E+02 0.  0.
         13    1    3    3    0    0  0.82117500815E+01 -0.48523970606E+02  0.44233326321E+01  0.49412403285E+02  0.10566000000E+00 0.  1.
         22    1    1    0    0    0  0.16673807218E+01  0.74657813527E+01 -0.26810471916E+02  0.27880449316E+02  0.00000000000E+00 0. -1.
</event>
<event>
 5    1  0.1254496E-009  0.9118800E+02  0.7815553E-02  0.1125453E+00
         25   -1    0    0    0    0  0.00000000000E+00  0.00000000000E+00  0.99999998245E-14  0.12509000000E+03  0.12509000000E+03 0.  0.
        -13    1    3    3    0    0  0.36950317499E+02  0.29420100778E+02  0.17835830460E+02  0.50487585655E+02  0.10566000000E+00 0.  1.
         23    2    1    0    0    0 -0.14848089753E+01  0.83077135442E+01  0.28289567293E+02  0.95568442120E+02  0.90894470402E+02 0.  0.
         13    1    3    3    0    0 -0.38435126475E+02 -0.21112387233E+02  0.10453736833E+02  0.45080856465E+02  0.10566000000E+00 0. -1.
         22    1    1    0    0    0  0.14848089753E+01 -0.83077135442E+01 -0.28289567293E+02  0.29521557880E+02  0.00000000000E+00 0.  1.
</event>
<event>
 5    1  0.1254496E-009  0.9118800E+02  0.7815553E-02  0.1125453E+00
         25   -1    0    0    0    0  0.00000000000E+00  0.00000000000E+00  0.99999998245E-14  0.12509000000E+03  0.12509000000E+03 0.  0.
        -13    1    3    3    0    0 -0.18056006244E+02  0.20571299383E+02 -0.21113704715E+02  0.34568734582E+02  0.10566000000E+00 0. -1.
         23    2    1    0    0    0  0.19023588011E+02 -0.23036233310E+02 -0.11468128866E+01  0.95192171890E+02  0.90375159548E+02 0.  0.
         13    1    3    3    0    0  0.37079594255E+02 -0.43607532693E+02  0.19966891828E+02  0.60623437308E+02  0.10566000000E+00 0.  1.
         22    1    1    0    0    0 -0.19023588011E+02  0.23036233310E+02  0.11468128866E+01  0.29897828110E+02  0.00000000000E+00 0.  1.
</event>
<event>
 5    1  0.1254496E-009  0.9118800E+02  0.7815553E-02  0.1125453E+00
         25   -1    0    0    0    0  0.00000000000E+00  0.00000000000E+00  0.99999998245E-14  0.12509000000E+03  0.12509000000E+03 0.  0.
        -13    1    3    3    0    0 -0.24438622142E+02 -0.13427803160E+02  0.21611013001E+02  0.35278877488E+02  0.10566000000E+00 0.  1.
         23    2    1    0    0    0  0.37872533113E+01  0.36701013774E+01 -0.28953838260E+02  0.95659782845E+02  0.91020087740E+02 0.  0.
         13    1    3    3    0    0  0.28225875453E+02  0.17097904537E+02 -0.50564851261E+02  0.60380905357E+02  0.10566000000E+00 0. -1.
         22    1    1    0    0    0 -0.37872533113E+01 -0.36701013774E+01  0.28953838260E+02  0.29430217155E+02  0.00000000000E+00 0. -1.
</event>
<event>
 5    1  0.1254496E-009  0.9118800E+02  0.7815553E-02  0.1125453E+00
         25   -1    0    0    0    0  0.00000000000E+00  0.00000000000E+00  0.99999998245E-14  0.12509000000E+03  0.12509000000E+03 0.  0.
        -13    1    3    3    0    0 -0.18308225346E+02 -0.34120887562E+01 -0.36994566752E+02  0.41417901905E+02  0.10566000000E+00 0.  1.
         23    2    1    0    0    0 -0.19237526759E+02  0.65944608791E+01  0.18368717449E+02  0.97686001554E+02  0.93763403143E+02 0.  0.
         13    1    3    3    0    0 -0.92930141297E+00  0.10006549635E+02  0.55363284200E+02  0.56268099650E+02  0.10566000000E+00 0. -1.
         22    1    1    0    0    0  0.19237526759E+02 -0.65944608791E+01 -0.18368717449E+02  0.27403998446E+02  0.00000000000E+00 0. -1.
</event>
<event>
 5    1  0.1254496E-009  0.9118800E+02  0.7815553E-02  0.1125453E+00
         25   -1    0    0    0    0  0.00000000000E+00  0.00000000000E+00  0.99999998245E-14  0.12509000000E+03  0.12509000000E+03 0.  0.
        -13    1    3    3    0    0 -0.94196549467E+01  0.59839244464E+02  0.87586250938E+01  0.61206125143E+02  0.10566000000E+00 0. -1.
         23    2    1    0    0    0  0.46186715493E+01  0.29333691955E+02  0.44977531536E+01  0.95056229108E+02  0.90186802240E+02 0.  0.
         13    1    3    3    0    0  0.14038326496E+02 -0.30505552510E+02 -0.42608719402E+01  0.33850103965E+02  0.10566000000E+00 0.  1.
         22    1    1    0    0    0 -0.46186715493E+01 -0.29333691955E+02 -0.44977531536E+01  0.30033770892E+02  0.00000000000E+00 0. -1.
</event>
<event>
 5    1  0.1254496E-009  0.9118800E+02  0.7815553E-02  0.1125453E+00
         25   -1    0    0    0    0  0.00000000000E+00  0.00000000000E+00  0.99999998245E-14  0.12509000000E+03  0.12509000000E+03 0.  0.
        -13    1    3    3    0    0  0.20400129342E+02  0.32754943773E+02 -0.58779896252E+01  0.39033492603E+02  0.10566000000E+00 0.  1.
         23    2    1    0    0    0  0.14534169164E+02 -0.17625505863E+02  0.18860112721E+02  0.95465611702E+02  0.90752843678E+02 0.  0.
         13    1    3    3    0    0 -0.58659601782E+01 -0.50380449635E+02  0.24738102346E+02  0.56432119099E+02  0.10566000000E+00 0. -1.
         22    1    1    0    0    0 -0.14534169164E+02  0.17625505863E+02 -0.18860112721E+02  0.29624388298E+02  0.00000000000E+00 0. -1.
</event>
<event>
 5    1  0.1254496E-009  0.9118800E+02  0.7815553E-02  0.1125453E+00
         25   -1    0    0    0    0  0.00000000000E+00  0.00000000000E+00  0.99999998245E-14  0.12509000000E+03  0.12509000000E+03 0.  0.
        -13    1    3    3    0    0 -0.32399912942E+01 -0.12379951382E+02 -0.49262149154E+02  0.50897261647E+02  0.10566000000E+00 0.  1.
         23    2    1    0    0    0  0.44563580793E+01 -0.29465265830E+02 -0.11324755917E+02  0.93210365210E+02  0.87589160678E+02 0.  0.
         13    1    3    3    0    0  0.76963493735E+01 -0.17085314448E+02  0.37937393238E+02  0.42313103563E+02  0.10566000000E+00 0. -1.
         22    1    1    0    0    0 -0.44563580793E+01  0.29465265830E+02  0.11324755917E+02  0.31879634790E+02  0.00000000000E+00 0.  1.
</event>
<event>
 5    1  0.1254496E-009  0.9118800E+02  0.7815553E-02  0.1125453E+00
         25   -1    0    0    0    0  0.00000000000E+00  0.00000000000E+00  0.99999998245E-14  0.12509000000E+03  0.12509000000E+03 0.  0.
        -13    1    3    3    0    0  0.12115532694E+02  0.29049003817E+02 -0.30552732130E+02  0.43864693774E+02  0.10566000000E+00 0.  1.
         23    2    1    0    0    0  0.24819269378E+02 -0.15065792701E+02 -0.82288441642E+01  0.94912390445E+02  0.89987075414E+02 0.  0.
         13    1    3    3    0    0  0.12703736684E+02 -0.44114796518E+02  0.22323887966E+02  0.51047696672E+02  0.10566000000E+00 0. -1.
         22    1    1    0    0    0 -0.24819269378E+02  0.15065792701E+02  0.82288441642E+01  0.30177609555E+02  0.00000000000E+00 0. -1.
</event>
<event>
 5    1  0.1254496E-009  0.9118800E+02  0.7815553E-02  0.1125453E+00
         25   -1    0    0    0    0  0.00000000000E+00  0.00000000000E+00  0.99999998245E-14  0.12509000000E+03  0.12509000000E+03 0.  0.
        -13    1    3    3    0    0  0.44478904356E+02 -0.21400817259E+01 -0.19582652263E+02  0.48646113064E+02  0.10566000000E+00 0.  1.
         23    2    1    0    0    0  0.21283611669E+02  0.17083797028E+02  0.14541480101E+02  0.94165852637E+02  0.88943267945E+02 0.  0.
         13    1    3    3    0    0 -0.23195292687E+02  0.19223878754E+02  0.34124132365E+02  0.45519739573E+02  0.10566000000E+00 0. -1.
         22    1    1    0    0    0 -0.21283611669E+02 -0.17083797028E+02 -0.14541480101E+02  0.30924147363E+02  0.00000000000E+00 0.  1.
</event>
<event>
 5    1  0.1254496E-009  0.9118800E+02  0.7815553E-02  0.1125453E+00
         25   -1    0    0    0    0  0.00000000000E+00  0.00000000000E+00  0.99999998245E-14  0.12509000000E+03  0.12509000000E+03 0.  0.
        -13    1    3    3    0    0 -0.96173717798E+00  0.23217281523E+02 -0.30266394960E+02  0.38157999523E+02  0.10566000000E+00 0.  1.
         23    2    1    0    0    0 -0.25734850417E+02 -0.68862887364E+01  0.12184982079E+02  0.95795336888E+02  0.91206191032E+02 0.  0.
         13    1    3    3    0    0 -0.24773113239E+02 -0.30103570259E+02  0.42451377040E+02  0.57637337365E+02  0.10566000000E+00 0. -1.
         22    1    1    0    0    0  0.25734850417E+02  0.68862887364E+01 -0.12184982079E+02  0.29294663112E+02  0.00000000000E+00 0.  1.
</event>
<event>
 5    1  0.1254496E-009  0.9118800E+02  0.7815553E-02  0.1125453E+00
         25   -1    0    0    0    0  0.00000000000E+00  0.00000000000E+00  0.99999998245E-14  0.12509000000E+03  0.12509000000E+03 0.  0.
        -13    1    3    3    0    0 -0.16913064155E+02  0.30391527657E+02 -0.17939309120E+02  0.39134724582E+02  0.10566000000E+00 0. -1.
         23    2    1    0    0    0  0.29022300508E+02  0.15857420715E+01 -0.74932830747E+00  0.96014752837E+02  0.91506626890E+02 0.  0.
         13    1    3    3    0    0  0.45935364662E+02 -0.28805785585E+02  0.17189980812E+02  0.56880028254E+02  0.10566000000E+00 0.  1.
         22    1    1    0    0    0 -0.29022300508E+02 -0.15857420715E+01  0.74932830747E+00  0.29075247163E+02  0.00000000000E+00 0.  1.
</event>
<event>
 5    1  0.1254496E-009  0.9118800E+02  0.7815553E-02  0.1125453E+00
         25   -1    0    0    0    0  0.00000000000E+00  0.00000000000E+00  0.99999998245E-14  0.12509000000E+03  0.12509000000E+03 0.  0.
        -13    1    3    3    0    0 -0.50152282454E+02 -0.10864921267E+02 -0.25787771765E+02  0.57430987159E+02  0.10566000000E+00 0. -1.
         23    2    1    0    0    0 -0.28171389914E+02 -0.74903054440E+01  0.51055120412E+01  0.95496113156E+02  0.90794875899E+02 0.  0.
         13    1    3    3    0    0  0.21980892540E+02  0.33746158231E+01  0.30893283806E+02  0.38065125997E+02  0.10566000000E+00 0.  1.
         22    1    1    0    0    0  0.28171389914E+02  0.74903054440E+01 -0.51055120412E+01  0.29593886844E+02  0.00000000000E+00 0.  1.
</event>
<event>
 5    1  0.1254496E-009  0.9118800E+02  0.7815553E-02  0.1125453E+00
         25   -1    0    0    0    0  0.00000000000E+00  0.00000000000E+00  0.99999998245E-14  0.12509000000E+03  0.12509000000E+03 0.  0.
        -13    1    3    3    0    0  0.11312081749E+01 -0.36704560888E+02  0.10268487077E+02  0.38130793498E+02  0.10566000000E+00 0.  1.
         23    2    1    0    0    0  0.20375450098E+02  0.17690197127E+02 -0.46069084026E+01  0.97716186855E+02  0.93803664786E+02 0.  0.
         13    1    3    3    0    0  0.19244241923E+02  0.54394758015E+02 -0.14875395479E+02  0.59585393356E+02  0.10566000000E+00 0. -1.
         22    1    1    0    0    0 -0.20375450098E+02 -0.17690197127E+02  0.46069084026E+01  0.27373813145E+02  0.00000000000E+00 0. -1.
</event>
<event>
 5    1  0.1254496E-009  0.9118800E+02  0.7815553E-02  0.1125453E+00
         25   -1    0    0    0    0  0.00000000000E+00  0.00000000000E+00  0.99999998245E-14  0.12509000000E+03  0.12509000000E+03 0.  0.
        -13    1    3    3    0    0 -0.10055927139E+02  0.53683096206E+01 -0.55854114071E+02  0.57005557988E+02  0.10566000000E+00 0.  1.
         23    2    1    0    0    0  0.89072285361E+01 -0.10579845695E+02 -0.24352834942E+02  0.97084064471E+02  0.92956888660E+02 0.  0.
         13    1    3    3    0    0  0.18963155675E+02 -0.15948155315E+02  0.31501279129E+02  0.40078506483E+02  0.10566000000E+00 0. -1.
         22    1    1    0    0    0 -0.89072285361E+01  0.10579845695E+02  0.24352834942E+02  0.28005935529E+02  0.00000000000E+00 0.  1.
</event>
<event>
 5    1  0.1254496E-009  0.9118800E+02  0.7815553E-02  0.1125453E+00
         25   -1    0    0    0    0  0.00000000000E+00  0.00000000000E+00  0.99999998245E-14  0.12509000000E+03  0.12509000000E+03 0.  0.
        -13    1    3    3    0    0  0.32287036921E+02  0.76795790876E+01  0.87842255440E+01  0.34330780220E+02  0.10566000000E+00 0. -1.
         23    2    1    0    0    0 -0.27971889848E+02  0.82429842931E+01 -0.31380624761E+01  0.95760478220E+02  0.91158369562E+02 0.  0.
         13    1    3    3    0    0 -0.60258926769E+02  0.56340520550E+00 -0.11922288020E+02  0.61429698000E+02  0.10566000000E+00 0.  1.
         22    1    1    0    0    0  0.27971889848E+02 -0.82429842931E+01  0.31380624761E+01  0.29329521780E+02  0.00000000000E+00 0.  1.
</event>
<event>
 5    1  0.1254496E-009  0.9118800E+02  0.7815553E-02  0.1125453E+00
         25   -1    0    0    0    0  0.00000000000E+00  0.00000000000E+00  0.99999998245E-14  0.12509000000E+03  0.12509000000E+03 0.  0.
        -13    1    3    3    0    0  0.22573334718E+02  0.11360878795E+02 -0.57564482205E+01  0.25918581509E+02  0.10566000000E+00 0.  1.
         23    2    1    0    0    0 -0.15385441481E+02  0.82646610128E+01 -0.42686753537E+02  0.78968688671E+02  0.64100533786E+02 0.  0.
         13    1    3    3    0    0 -0.37958776199E+02 -0.30962177819E+01 -0.36930305316E+02  0.53050107162E+02  0.10566000000E+00 0. -1.
         22    1    1    0    0    0  0.15385441481E+02 -0.82646610128E+01  0.42686753537E+02  0.46121311329E+02  0.00000000000E+00 0. -1.
</event>
<event>
 5    1  0.1254496E-009  0.9118800E+02  0.7815553E-02  0.1125453E+00
         25   -1    0    0    0    0  0.00000000000E+00  0.00000000000E+00  0.99999998245E-14  0.12509000000E+03  0.12509000000E+03 0.  0.
        -13    1    3    3    0    0 -0.49568555821E+02 -0.26795372065E+02  0.27040716334E+02  0.62499961553E+02  0.10566000000E+00 0.  1.
         23    2    1    0    0    0 -0.23290769272E+02 -0.10803851310E+02  0.12931274997E+02  0.96342808668E+02  0.91953987258E+02 0.  0.
         13    1    3    3    0    0  0.26277786549E+02  0.15991520754E+02 -0.14109441336E+02  0.33842847115E+02  0.10566000000E+00 0. -1.
         22    1    1    0    0    0  0.23290769272E+02  0.10803851310E+02 -0.12931274997E+02  0.28747191332E+02  0.00000000000E+00 0.  1.
</event>
<event>
 5    1  0.1254496E-009  0.9118800E+02  0.7815553E-02  0.1125453E+00
         25   -1    0    0    0    0  0.00000000000E+00  0.00000000000E+00  0.99999998245E-14  0.12509000000E+03  0.12509000000E+03 0.  0.
        -13    1    3    3    0    0 -0.32459208790E+02  0.14183301118E+01 -0.23689301424E+02  0.40209527001E+02  0.10566000000E+00 0.  1.
         23    2    1    0    0    0 -0.87591633308E+01  0.10452152205E+02  0.25849495036E+02  0.95863867489E+02  0.91300132904E+02 0.  0.
         13    1    3    3    0    0  0.23700045460E+02  0.90338220933E+01  0.49538796460E+02  0.55654340488E+02  0.10566000000E+00 0. -1.
         22    1    1    0    0    0  0.87591633308E+01 -0.10452152205E+02 -0.25849495036E+02  0.29226132511E+02  0.00000000000E+00 0. -1.
</event>
<event>
 5    1  0.1254496E-009  0.9118800E+02  0.7815553E-02  0.1125453E+00
         25   -1    0    0    0    0  0.00000000000E+00  0.00000000000E+00  0.99999998245E-14  0.12509000000E+03  0.12509000000E+03 0.  0.
        -13    1    3    3    0    0 -0.62319989958E+01  0.37951437493E+02  0.15821047861E+02  0.41586850550E+02  0.10566000000E+00 0. -1.
         23    2    1    0    0    0  0.38698485700E+01 -0.13693858237E+02  0.26246843868E+02  0.95233772938E+02  0.90432722029E+02 0.  0.
         13    1    3    3    0    0  0.10101847566E+02 -0.51645295729E+02  0.10425796008E+02  0.53646922387E+02  0.10566000000E+00 0.  1.
         22    1    1    0    0    0 -0.38698485700E+01  0.13693858237E+02 -0.26246843868E+02  0.29856227062E+02  0.00000000000E+00 0. -1.
</event>
<event>
 5    1  0.1254496E-009  0.9118800E+02  0.7815553E-02  0.1125453E+00
         25   -1    0    0    0    0  0.00000000000E+00  0.00000000000E+00  0.99999998245E-14  0.12509000000E+03  0.12509000000E+03 0.  0.
        -13    1    3    3    0    0 -0.16947937305E+02 -0.43914710880E+02 -0.19464245797E+02  0.50937240199E+02  0.10566000000E+00 0.  1.
         23    2    1    0    0    0 -0.16112246539E+02 -0.15713225902E+02  0.16887157936E+02  0.96953083681E+02  0.92780463328E+02 0.  0.
         13    1    3    3    0    0  0.83569076613E+00  0.28201484978E+02  0.36351403733E+02  0.46015843483E+02  0.10566000000E+00 0. -1.
         22    1    1    0    0    0  0.16112246539E+02  0.15713225902E+02 -0.16887157936E+02  0.28136916319E+02  0.00000000000E+00 0. -1.
</event>
<event>
 5    1  0.1254496E-009  0.9118800E+02  0.7815553E-02  0.1125453E+00
         25   -1    0    0    0    0  0.00000000000E+00  0.00000000000E+00  0.99999998245E-14  0.12509000000E+03  0.12509000000E+03 0.  0.
        -13    1    3    3    0    0 -0.28019853987E+02 -0.52763581288E+01 -0.23128711303E+02  0.36713766126E+02  0.10566000000E+00 0.  1.
         23    2    1    0    0    0 -0.54901807220E+01  0.21659666630E+02  0.21890693485E+02  0.93809243869E+02  0.88440310555E+02 0.  0.
         13    1    3    3    0    0  0.22529673265E+02  0.26936024759E+02  0.45019404788E+02  0.57095477743E+02  0.10566000000E+00 0. -1.
         22    1    1    0    0    0  0.54901807220E+01 -0.21659666630E+02 -0.21890693485E+02  0.31280756131E+02  0.00000000000E+00 0. -1.
</event>
<event>
 5    1  0.1254496E-009  0.9118800E+02  0.7815553E-02  0.1125453E+00
         25   -1    0    0    0    0  0.00000000000E+00  0.00000000000E+00  0.99999998245E-14  0.12509000000E+03  0.12509000000E+03 0.  0.
        -13    1    3    3    0    0  0.35680405706E+02  0.21268805105E+02  0.32290215679E+02  0.52612951015E+02  0.10566000000E+00 0.  1.
         23    2    1    0    0    0  0.46213513176E+01 -0.90531455756E+01  0.26876769206E+02  0.96355403157E+02  0.91971118628E+02 0.  0.
         13    1    3    3    0    0 -0.31059054388E+02 -0.30321950681E+02 -0.54134464729E+01  0.43742452141E+02  0.10566000000E+00 0. -1.
         22    1    1    0    0    0 -0.46213513176E+01  0.90531455756E+01 -0.26876769206E+02  0.28734596843E+02  0.00000000000E+00 0. -1.
</event>
<event>
 5    1  0.1254496E-009  0.9118800E+02  0.7815553E-02  0.1125453E+00
         25   -1    0    0    0    0  0.00000000000E+00  0.00000000000E+00  0.99999998245E-14  0.12509000000E+03  0.12509000000E+03 0.  0.
        -13    1    3    3    0    0  0.41527723079E+02 -0.27387509304E+02 -0.13566670281E+02  0.51562516972E+02  0.10566000000E+00 0.  1.
         23    2    1    0    0    0  0.78988752636E+01 -0.14812469437E+01 -0.27655934290E+02  0.96290051660E+02  0.91882191007E+02 0.  0.
         13    1    3    3    0    0 -0.33628847815E+02  0.25906262361E+02 -0.14089264009E+02  0.44727534687E+02  0.10566000000E+00 0. -1.
         22    1    1    0    0    0 -0.78988752636E+01  0.14812469437E+01  0.27655934290E+02  0.28799948340E+02  0.00000000000E+00 0.  1.
</event>
<event>
 5    1  0.1254496E-009  0.9118800E+02  0.7815553E-02  0.1125453E+00
         25   -1    0    0    0    0  0.00000000000E+00  0.00000000000E+00  0.99999998245E-14  0.12509000000E+03  0.12509000000E+03 0.  0.
        -13    1    3    3    0    0 -0.42530563402E+02  0.21661719748E+02  0.70966703519E+00  0.47734617596E+02  0.10566000000E+00 0.  1.
         23    2    1    0    0    0 -0.14744941540E+02 -0.10955873587E+02 -0.22161764470E+02  0.96304790752E+02  0.91902254870E+02 0.  0.
         13    1    3    3    0    0  0.27785621862E+02 -0.32617593335E+02 -0.22871431505E+02  0.48570173155E+02  0.10566000000E+00 0. -1.
         22    1    1    0    0    0  0.14744941540E+02  0.10955873587E+02  0.22161764470E+02  0.28785209248E+02  0.00000000000E+00 0.  1.
</event>
<event>
 5    1  0.1254496E-009  0.9118800E+02  0.7815553E-02  0.1125453E+00
         25   -1    0    0    0    0  0.00000000000E+00  0.00000000000E+00  0.99999998245E-14  0.12509000000E+03  0.12509000000E+03 0.  0.
        -13    1    3    3    0    0 -0.19833289329E+02 -0.31161124922E+02  0.43772083664E+02  0.57274615183E+02  0.10566000000E+00 0.  1.
         23    2    1    0    0    0 -0.28794901030E+01  0.34949635577E+00  0.28933467565E+02  0.96011500103E+02  0.91502180279E+02 0.  0.
         13    1    3    3    0    0  0.16953799226E+02  0.31510621278E+02 -0.14838616100E+02  0.38736884920E+02  0.10566000000E+00 0. -1.
         22    1    1    0    0    0  0.28794901030E+01 -0.34949635577E+00 -0.28933467565E+02  0.29078499897E+02  0.00000000000E+00 0.  1.
</event>
<event>
 5    1  0.1254496E-009  0.9118800E+02  0.7815553E-02  0.1125453E+00
         25   -1    0    0    0    0  0.00000000000E+00  0.00000000000E+00  0.99999998245E-14  0.12509000000E+03  0.12509000000E+03 0.  0.
        -13    1    3    3    0    0 -0.40254151415E+02 -0.18216281358E+02 -0.18226551255E+02  0.47795898855E+02  0.10566000000E+00 0.  1.
         23    2    1    0    0    0 -0.23668120698E+02  0.10863517120E+02  0.15061154757E+02  0.95006211605E+02  0.90117400758E+02 0.  0.
         13    1    3    3    0    0  0.16586030717E+02  0.29079798478E+02  0.33287706012E+02  0.47210312751E+02  0.10566000000E+00 0. -1.
         22    1    1    0    0    0  0.23668120698E+02 -0.10863517120E+02 -0.15061154757E+02  0.30083788395E+02  0.00000000000E+00 0. -1.
</event>
<event>
 5    1  0.1254496E-009  0.9118800E+02  0.7815553E-02  0.1125453E+00
         25   -1    0    0    0    0  0.00000000000E+00  0.00000000000E+00  0.99999998245E-14  0.12509000000E+03  0.12509000000E+03 0.  0.
        -13    1    3    3    0    0  0.12843137161E+02  0.28761494158E+02 -0.18189600684E+02  0.36373650565E+02  0.10566000000E+00 0. -1.
         23    2    1    0    0    0  0.64032764842E+01 -0.17449587656E+02  0.20812463767E+02  0.97185722422E+02  0.93093586973E+02 0.  0.
         13    1    3    3    0    0 -0.64398606769E+01 -0.46211081815E+02  0.39002064451E+02  0.60812071857E+02  0.10566000000E+00 0.  1.
         22    1    1    0    0    0 -0.64032764842E+01  0.17449587656E+02 -0.20812463767E+02  0.27904277578E+02  0.00000000000E+00 0.  1.
</event>
<event>
 5    1  0.1254496E-009  0.9118800E+02  0.7815553E-02  0.1125453E+00
         25   -1    0    0    0    0  0.00000000000E+00  0.00000000000E+00  0.99999998245E-14  0.12509000000E+03  0.12509000000E+03 0.  0.
        -13    1    3    3    0    0  0.45025936591E+02  0.23636485584E+02  0.17967949026E+01  0.50884752654E+02  0.10566000000E+00 0. -1.
         23    2    1    0    0    0  0.12127518907E+02 -0.17146661913E+02 -0.43495605888E+01  0.10364230999E+03  0.10139884128E+03 0.  0.
         13    1    3    3    0    0 -0.32898417684E+02 -0.40783147497E+02 -0.61463554914E+01  0.52757557333E+02  0.10566000000E+00 0.  1.
         22    1    1    0    0    0 -0.12127518907E+02  0.17146661913E+02  0.43495605888E+01  0.21447690013E+02  0.00000000000E+00 0. -1.
</event>
<event>
 5    1  0.1254496E-009  0.9118800E+02  0.7815553E-02  0.1125453E+00
         25   -1    0    0    0    0  0.00000000000E+00  0.00000000000E+00  0.99999998245E-14  0.12509000000E+03  0.12509000000E+03 0.  0.
        -13    1    3    3    0    0 -0.10900587726E+02 -0.13230043283E+02  0.27984909168E+02  0.32818031069E+02  0.10566000000E+00 0.  1.
         23    2    1    0    0    0  0.67340763815E+01  0.12499037129E+02 -0.26171675398E+02  0.95315341194E+02  0.90545480064E+02 0.  0.
         13    1    3    3    0    0  0.17634664107E+02  0.25729080413E+02 -0.54156584566E+02  0.62497310126E+02  0.10566000000E+00 0. -1.
         22    1    1    0    0    0 -0.67340763815E+01 -0.12499037129E+02  0.26171675398E+02  0.29774658806E+02  0.00000000000E+00 0. -1.
</event>
<event>
 5    1  0.1254496E-009  0.9118800E+02  0.7815553E-02  0.1125453E+00
         25   -1    0    0    0    0  0.00000000000E+00  0.00000000000E+00  0.99999998245E-14  0.12509000000E+03  0.12509000000E+03 0.  0.
        -13    1    3    3    0    0  0.16818825942E+00 -0.26191550887E+02 -0.28405309561E+02  0.38638043435E+02  0.10566000000E+00 0. -1.
         23    2    1    0    0    0 -0.27776648742E+02  0.67980918293E+01  0.82578047139E+01  0.95325127977E+02  0.90558999649E+02 0.  0.
         13    1    3    3    0    0 -0.27944837001E+02  0.32989642716E+02  0.36663114275E+02  0.56687084543E+02  0.10566000000E+00 0.  1.
         22    1    1    0    0    0  0.27776648742E+02 -0.67980918293E+01 -0.82578047139E+01  0.29764872023E+02  0.00000000000E+00 0.  1.
</event>
<event>
 5    1  0.1254496E-009  0.9118800E+02  0.7815553E-02  0.1125453E+00
         25   -1    0    0    0    0  0.00000000000E+00  0.00000000000E+00  0.99999998245E-14  0.12509000000E+03  0.12509000000E+03 0.  0.
        -13    1    3    3    0    0 -0.31752037913E+01  0.36648334029E+02  0.12600277036E+00  0.36785993896E+02  0.10566000000E+00 0.  1.
         23    2    1    0    0    0 -0.55310675068E+01 -0.19144943501E+02 -0.20672354627E+02  0.96376452409E+02  0.91999743281E+02 0.  0.
         13    1    3    3    0    0 -0.23558637155E+01 -0.55793277529E+02 -0.20798357398E+02  0.59590458513E+02  0.10566000000E+00 0. -1.
         22    1    1    0    0    0  0.55310675068E+01  0.19144943501E+02  0.20672354627E+02  0.28713547591E+02  0.00000000000E+00 0. -1.
</event>
<event>
 5    1  0.1254496E-009  0.9118800E+02  0.7815553E-02  0.1125453E+00
         25   -1    0    0    0    0  0.00000000000E+00  0.00000000000E+00  0.99999998245E-14  0.12509000000E+03  0.12509000000E+03 0.  0.
        -13    1    3    3    0    0 -0.30181895671E+02  0.42156876897E+02  0.20974554520E+01  0.51889879355E+02  0.10566000000E+00 0. -1.
         23    2    1    0    0    0 -0.13335150305E+02  0.10935700502E+02 -0.23717976505E+02  0.95764956290E+02  0.91164514284E+02 0.  0.
         13    1    3    3    0    0  0.16846745366E+02 -0.31221176395E+02 -0.25815431957E+02  0.43875076935E+02  0.10566000000E+00 0.  1.
         22    1    1    0    0    0  0.13335150305E+02 -0.10935700502E+02  0.23717976505E+02  0.29325043710E+02  0.00000000000E+00 0.  1.
</event>
<event>
 5    1  0.1254496E-009  0.9118800E+02  0.7815553E-02  0.1125453E+00
         25   -1    0    0    0    0  0.00000000000E+00  0.00000000000E+00  0.99999998245E-14  0.12509000000E+03  0.12509000000E+03 0.  0.
        -13    1    3    3    0    0  0.42037307804E+02  0.37862642890E+02  0.24753258531E+02  0.61753137135E+02  0.10566000000E+00 0.  1.
         23    2    1    0    0    0  0.21757622530E+02  0.21501037714E+02  0.20777004274E+02  0.88111997518E+02  0.79977193243E+02 0.  0.
         13    1    3    3    0    0 -0.20279685275E+02 -0.16361605176E+02 -0.39762542568E+01  0.26358860383E+02  0.10566000000E+00 0. -1.
         22    1    1    0    0    0 -0.21757622530E+02 -0.21501037714E+02 -0.20777004274E+02  0.36978002482E+02  0.00000000000E+00 0.  1.
</event>
<event>
 5    1  0.1254496E-009  0.9118800E+02  0.7815553E-02  0.1125453E+00
         25   -1    0    0    0    0  0.00000000000E+00  0.00000000000E+00  0.99999998245E-14  0.12509000000E+03  0.12509000000E+03 0.  0.
        -13    1    3    3    0    0  0.28100135587E+02  0.24199605940E+02 -0.39829192704E+02  0.54420715754E+02  0.10566000000E+00 0.  1.
         23    2    1    0    0    0  0.72863447798E+01 -0.10265944168E+02 -0.24578425672E+02  0.97475159091E+02  0.93481694473E+02 0.  0.
         13    1    3    3    0    0 -0.20813790807E+02 -0.34465550108E+02  0.15250767033E+02  0.43054443338E+02  0.10566000000E+00 0. -1.
         22    1    1    0    0    0 -0.72863447798E+01  0.10265944168E+02  0.24578425672E+02  0.27614840909E+02  0.00000000000E+00 0.  1.
</event>
<event>
 5    1  0.1254496E-009  0.9118800E+02  0.7815553E-02  0.1125453E+00
         25   -1    0    0    0    0  0.00000000000E+00  0.00000000000E+00  0.99999998245E-14  0.12509000000E+03  0.12509000000E+03 0.  0.
        -13    1    3    3    0    0 -0.28001144287E+02  0.49802468084E+02  0.25015299165E+01  0.57189323519E+02  0.10566000000E+00 0. -1.
         23    2    1    0    0    0  0.11891675292E+01  0.27451711165E+02 -0.97382361397E+01  0.95937919312E+02  0.91401534744E+02 0.  0.
         13    1    3    3    0    0  0.29190311816E+02 -0.22350756919E+02 -0.12239766056E+02  0.38748595793E+02  0.10566000000E+00 0.  1.
         22    1    1    0    0    0 -0.11891675292E+01 -0.27451711165E+02  0.97382361397E+01  0.29152080688E+02  0.00000000000E+00 0. -1.
</event>
<event>
 5    1  0.1254496E-009  0.9118800E+02  0.7815553E-02  0.1125453E+00
         25   -1    0    0    0    0  0.00000000000E+00  0.00000000000E+00  0.99999998245E-14  0.12509000000E+03  0.12509000000E+03 0.  0.
        -13    1    3    3    0    0 -0.94460103780E+01  0.18584029355E+02  0.56812485238E+02  0.60516633268E+02  0.10566000000E+00 0. -1.
         23    2    1    0    0    0 -0.13180837266E+02  0.14156444531E+02  0.22050654270E+02  0.95757922908E+02  0.91154863025E+02 0.  0.
         13    1    3    3    0    0 -0.37348268879E+01 -0.44275848239E+01 -0.34761830968E+02  0.35241289641E+02  0.10566000000E+00 0.  1.
         22    1    1    0    0    0  0.13180837266E+02 -0.14156444531E+02 -0.22050654270E+02  0.29332077092E+02  0.00000000000E+00 0. -1.
</event>
<event>
 5    1  0.1254496E-009  0.9118800E+02  0.7815553E-02  0.1125453E+00
         25   -1    0    0    0    0  0.00000000000E+00  0.00000000000E+00  0.99999998245E-14  0.12509000000E+03  0.12509000000E+03 0.  0.
        -13    1    3    3    0    0  0.43003542945E+02 -0.25182761504E+02  0.35709122596E+02  0.61307656809E+02  0.10566000000E+00 0. -1.
         23    2    1    0    0    0  0.24951457818E+02 -0.45105651304E+01  0.15786105354E+02  0.95221595836E+02  0.90415876628E+02 0.  0.
         13    1    3    3    0    0 -0.18052085127E+02  0.20672196373E+02 -0.19923017241E+02  0.33913939028E+02  0.10566000000E+00 0.  1.
         22    1    1    0    0    0 -0.24951457818E+02  0.45105651304E+01 -0.15786105354E+02  0.29868404164E+02  0.00000000000E+00 0. -1.
</event>
<event>
 5    1  0.1254496E-009  0.9118800E+02  0.7815553E-02  0.1125453E+00
         25   -1    0    0    0    0  0.00000000000E+00  0.00000000000E+00  0.99999998245E-14  0.12509000000E+03  0.12509000000E+03 0.  0.
        -13    1    3    3    0    0 -0.34880943401E+01 -0.38291111868E+02 -0.89045277845E+01  0.39467427447E+02  0.10566000000E+00 0.  1.
         23    2    1    0    0    0 -0.17495718011E+01  0.24540197210E+01  0.29470366712E+02  0.95465926539E+02  0.90753277635E+02 0.  0.
         13    1    3    3    0    0  0.17385225390E+01  0.40745131589E+02  0.38374894497E+02  0.55998499091E+02  0.10566000000E+00 0. -1.
         22    1    1    0    0    0  0.17495718011E+01 -0.24540197210E+01 -0.29470366712E+02  0.29624073461E+02  0.00000000000E+00 0. -1.
</event>
<event>
 5    1  0.1254496E-009  0.9118800E+02  0.7815553E-02  0.1125453E+00
         25   -1    0    0    0    0  0.00000000000E+00  0.00000000000E+00  0.99999998245E-14  0.12509000000E+03  0.12509000000E+03 0.  0.
        -13    1    3    3    0    0 -0.29312068777E+02  0.33563154563E+02 -0.11157665233E+02  0.45936775874E+02  0.10566000000E+00 0.  1.
         23    2    1    0    0    0 -0.43820652465E+01  0.15783913874E+02  0.26169438344E+02  0.94216484873E+02  0.89014448746E+02 0.  0.
         13    1    3    3    0    0  0.24930003531E+02 -0.17779240689E+02  0.37327103577E+02  0.48279708999E+02  0.10566000000E+00 0. -1.
         22    1    1    0    0    0  0.43820652465E+01 -0.15783913874E+02 -0.26169438344E+02  0.30873515127E+02  0.00000000000E+00 0. -1.
</event>
<event>
 5    1  0.1254496E-009  0.9118800E+02  0.7815553E-02  0.1125453E+00
         25   -1    0    0    0    0  0.00000000000E+00  0.00000000000E+00  0.99999998245E-14  0.12509000000E+03  0.12509000000E+03 0.  0.
        -13    1    3    3    0    0  0.20320149228E+02  0.36264762399E+02  0.16534447543E+02  0.44737462781E+02  0.10566000000E+00 0.  1.
         23    2    1    0    0    0  0.24396189147E+01  0.79908917747E+01 -0.25382733852E+02  0.98367551205E+02  0.94668293850E+02 0.  0.
         13    1    3    3    0    0 -0.17880530313E+02 -0.28273870624E+02 -0.41917181394E+02  0.53630088425E+02  0.10566000000E+00 0. -1.
         22    1    1    0    0    0 -0.24396189147E+01 -0.79908917747E+01  0.25382733852E+02  0.26722448795E+02  0.00000000000E+00 0. -1.
</event>
<event>
 5    1  0.1254496E-009  0.9118800E+02  0.7815553E-02  0.1125453E+00
         25   -1    0    0    0    0  0.00000000000E+00  0.00000000000E+00  0.99999998245E-14  0.12509000000E+03  0.12509000000E+03 0.  0.
        -13    1    3    3    0    0  0.22595092936E+02  0.22871914002E+02  0.21412603302E+02  0.38628660592E+02  0.10566000000E+00 0.  1.
         23    2    1    0    0    0  0.29133463115E+01 -0.28042138545E+02  0.10870693503E+01  0.96875981487E+02  0.92676453041E+02 0.  0.
         13    1    3    3    0    0 -0.19681746625E+02 -0.50914052547E+02 -0.20325533952E+02  0.58247320895E+02  0.10566000000E+00 0. -1.
         22    1    1    0    0    0 -0.29133463115E+01  0.28042138545E+02 -0.10870693503E+01  0.28214018513E+02  0.00000000000E+00 0. -1.
</event>
<event>
 5    1  0.1254496E-009  0.9118800E+02  0.7815553E-02  0.1125453E+00
         25   -1    0    0    0    0  0.00000000000E+00  0.00000000000E+00  0.99999998245E-14  0.12509000000E+03  0.12509000000E+03 0.  0.
        -13    1    3    3    0    0  0.33789496567E+02 -0.19898228866E+02 -0.99312315198E+01  0.40451330186E+02  0.10566000000E+00 0. -1.
         23    2    1    0    0    0  0.43203440155E+01  0.27636229153E+02 -0.57309519456E+01  0.96537060669E+02  0.92217860191E+02 0.  0.
         13    1    3    3    0    0 -0.29469152552E+02  0.47534458019E+02  0.42002795742E+01  0.56085730483E+02  0.10566000000E+00 0.  1.
         22    1    1    0    0    0 -0.43203440155E+01 -0.27636229153E+02  0.57309519456E+01  0.28552939331E+02  0.00000000000E+00 0.  1.
</event>
<event>
 5    1  0.1254496E-009  0.9118800E+02  0.7815553E-02  0.1125453E+00
         25   -1    0    0    0    0  0.00000000000E+00  0.00000000000E+00  0.99999998245E-14  0.12509000000E+03  0.12509000000E+03 0.  0.
        -13    1    3    3    0    0 -0.10558715155E+02  0.38804864939E+02 -0.30289875171E+02  0.50346714993E+02  0.10566000000E+00 0.  1.
         23    2    1    0    0    0 -0.23167807860E+02 -0.27174942725E+01 -0.18509075463E+02  0.95312189962E+02  0.90541126482E+02 0.  0.
         13    1    3    3    0    0 -0.12609092706E+02 -0.41522359212E+02  0.11780799708E+02  0.44965474969E+02  0.10566000000E+00 0. -1.
         22    1    1    0    0    0  0.23167807860E+02  0.27174942725E+01  0.18509075463E+02  0.29777810038E+02  0.00000000000E+00 0. -1.
</event>
<event>
 5    1  0.1254496E-009  0.9118800E+02  0.7815553E-02  0.1125453E+00
         25   -1    0    0    0    0  0.00000000000E+00  0.00000000000E+00  0.99999998245E-14  0.12509000000E+03  0.12509000000E+03 0.  0.
        -13    1    3    3    0    0 -0.35985138178E+01 -0.52966596191E+01  0.20978701468E+02  0.21934470227E+02  0.10566000000E+00 0. -1.
         23    2    1    0    0    0  0.46136567258E+02  0.13116992993E+02  0.98221117932E+01  0.76129687260E+02  0.58297659119E+02 0.  0.
         13    1    3    3    0    0  0.49735081076E+02  0.18413652612E+02 -0.11156589674E+02  0.54195217034E+02  0.10566000000E+00 0.  1.
         22    1    1    0    0    0 -0.46136567258E+02 -0.13116992993E+02 -0.98221117932E+01  0.48960312740E+02  0.00000000000E+00 0.  1.
</event>
<event>
 5    1  0.1254496E-009  0.9118800E+02  0.7815553E-02  0.1125453E+00
         25   -1    0    0    0    0  0.00000000000E+00  0.00000000000E+00  0.99999998245E-14  0.12509000000E+03  0.12509000000E+03 0.  0.
        -13    1    3    3    0    0 -0.32829329939E+02  0.19034209227E+02  0.13422397034E+02  0.40252179213E+02  0.10566000000E+00 0. -1.
         23    2    1    0    0    0 -0.90303199912E+01 -0.13128453359E+02 -0.24817305039E+02  0.95597601045E+02  0.90934590390E+02 0.  0.
         13    1    3    3    0    0  0.23799009948E+02 -0.32162662586E+02 -0.38239702073E+02  0.55345421832E+02  0.10566000000E+00 0.  1.
         22    1    1    0    0    0  0.90303199912E+01  0.13128453359E+02  0.24817305039E+02  0.29492398955E+02  0.00000000000E+00 0.  1.
</event>
<event>
 5    1  0.1254496E-009  0.9118800E+02  0.7815553E-02  0.1125453E+00
         25   -1    0    0    0    0  0.00000000000E+00  0.00000000000E+00  0.99999998245E-14  0.12509000000E+03  0.12509000000E+03 0.  0.
        -13    1    3    3    0    0  0.20548533625E+02 -0.16013388685E+02  0.16837890276E+02  0.31019293420E+02  0.10566000000E+00 0.  1.
         23    2    1    0    0    0 -0.97776538923E+01  0.19979784799E+02 -0.23300677047E+02  0.92876402450E+02  0.87110907842E+02 0.  0.
         13    1    3    3    0    0 -0.30326187517E+02  0.35993173484E+02 -0.40138567323E+02  0.61857109030E+02  0.10566000000E+00 0. -1.
         22    1    1    0    0    0  0.97776538923E+01 -0.19979784799E+02  0.23300677047E+02  0.32213597550E+02  0.00000000000E+00 0. -1.
</event>
<event>
 5    1  0.1254496E-009  0.9118800E+02  0.7815553E-02  0.1125453E+00
         25   -1    0    0    0    0  0.00000000000E+00  0.00000000000E+00  0.99999998245E-14  0.12509000000E+03  0.12509000000E+03 0.  0.
        -13    1    3    3    0    0  0.47822603922E+02  0.19013652721E+02  0.21284610347E+02  0.55691707078E+02  0.10566000000E+00 0. -1.
         23    2    1    0    0    0  0.27339058477E+02 -0.67422791543E+01 -0.32579031430E+01  0.96743988296E+02  0.92498123721E+02 0.  0.
         13    1    3    3    0    0 -0.20483545444E+02 -0.25755931875E+02 -0.24542513490E+02  0.41052281218E+02  0.10566000000E+00 0.  1.
         22    1    1    0    0    0 -0.27339058477E+02  0.67422791543E+01  0.32579031430E+01  0.28346011704E+02  0.00000000000E+00 0. -1.
</event>
<event>
 5    1  0.1254496E-009  0.9118800E+02  0.7815553E-02  0.1125453E+00
         25   -1    0    0    0    0  0.00000000000E+00  0.00000000000E+00  0.99999998245E-14  0.12509000000E+03  0.12509000000E+03 0.  0.
        -13    1    3    3    0    0  0.15010747549E+02  0.41462105391E+02  0.31419988678E+02  0.54144765010E+02  0.10566000000E+00 0. -1.
         23    2    1    0    0    0 -0.35652769147E+01  0.39273278065E+01  0.28471647231E+02  0.96128477263E+02  0.91661956895E+02 0.  0.
         13    1    3    3    0    0 -0.18576024463E+02 -0.37534777585E+02 -0.29483414470E+01  0.41983712253E+02  0.10566000000E+00 0.  1.
         22    1    1    0    0    0  0.35652769147E+01 -0.39273278065E+01 -0.28471647231E+02  0.28961522737E+02  0.00000000000E+00 0. -1.
</event>
<event>
 5    1  0.1254496E-009  0.9118800E+02  0.7815553E-02  0.1125453E+00
         25   -1    0    0    0    0  0.00000000000E+00  0.00000000000E+00  0.99999998245E-14  0.12509000000E+03  0.12509000000E+03 0.  0.
        -13    1    3    3    0    0  0.36073624303E+02  0.10601211569E+02  0.36208941722E+02  0.52199527601E+02  0.10566000000E+00 0. -1.
         23    2    1    0    0    0 -0.54883173138E+01  0.15852666483E+02  0.23950387318E+02  0.95848766882E+02  0.91279441270E+02 0.  0.
         13    1    3    3    0    0 -0.41561941617E+02  0.52514549138E+01 -0.12258554404E+02  0.43649239281E+02  0.10566000000E+00 0.  1.
         22    1    1    0    0    0  0.54883173138E+01 -0.15852666483E+02 -0.23950387318E+02  0.29241233118E+02  0.00000000000E+00 0. -1.
</event>
<event>
 5    1  0.1254496E-009  0.9118800E+02  0.7815553E-02  0.1125453E+00
         25   -1    0    0    0    0  0.00000000000E+00  0.00000000000E+00  0.99999998245E-14  0.12509000000E+03  0.12509000000E+03 0.  0.
        -13    1    3    3    0    0 -0.52037933376E+01  0.17625139530E+02  0.31702485895E+02  0.36644014307E+02  0.10566000000E+00 0. -1.
         23    2    1    0    0    0 -0.20074553484E+02 -0.19085552092E+02 -0.11359679606E+02  0.95151925296E+02  0.90319436284E+02 0.  0.
         13    1    3    3    0    0 -0.14870760146E+02 -0.36710691622E+02 -0.43062165501E+02  0.58507910989E+02  0.10566000000E+00 0.  1.
         22    1    1    0    0    0  0.20074553484E+02  0.19085552092E+02  0.11359679606E+02  0.29938074704E+02  0.00000000000E+00 0.  1.
</event>
<event>
 5    1  0.1254496E-009  0.9118800E+02  0.7815553E-02  0.1125453E+00
         25   -1    0    0    0    0  0.00000000000E+00  0.00000000000E+00  0.99999998245E-14  0.12509000000E+03  0.12509000000E+03 0.  0.
        -13    1    3    3    0    0 -0.84696636066E+01  0.23596005421E+02  0.24470618959E+02  0.35033256053E+02  0.10566000000E+00 0. -1.
         23    2    1    0    0    0  0.92520472721E+01  0.12488745723E+01 -0.28448397666E+02  0.95148867821E+02  0.90315201663E+02 0.  0.
         13    1    3    3    0    0  0.17721710879E+02 -0.22347130849E+02 -0.52919016624E+02  0.60115611767E+02  0.10566000000E+00 0.  1.
         22    1    1    0    0    0 -0.92520472721E+01 -0.12488745723E+01  0.28448397666E+02  0.29941132179E+02  0.00000000000E+00 0.  1.
</event>
<event>
 5    1  0.1254496E-009  0.9118800E+02  0.7815553E-02  0.1125453E+00
         25   -1    0    0    0    0  0.00000000000E+00  0.00000000000E+00  0.99999998245E-14  0.12509000000E+03  0.12509000000E+03 0.  0.
        -13    1    3    3    0    0 -0.36120061676E+00  0.29091031220E+02  0.14180714429E+02  0.32365450546E+02  0.10566000000E+00 0.  1.
         23    2    1    0    0    0 -0.11559278776E+02 -0.20781961494E+02 -0.20134612175E+02  0.93930579967E+02  0.88611762178E+02 0.  0.
         13    1    3    3    0    0 -0.11198078159E+02 -0.49872992714E+02 -0.34315326603E+02  0.61565129421E+02  0.10566000000E+00 0. -1.
         22    1    1    0    0    0  0.11559278776E+02  0.20781961494E+02  0.20134612175E+02  0.31159420033E+02  0.00000000000E+00 0. -1.
</event>
<event>
 5    1  0.1254496E-009  0.9118800E+02  0.7815553E-02  0.1125453E+00
         25   -1    0    0    0    0  0.00000000000E+00  0.00000000000E+00  0.99999998245E-14  0.12509000000E+03  0.12509000000E+03 0.  0.
        -13    1    3    3    0    0  0.34954181908E+02  0.56673404701E+01 -0.82248390976E+01  0.36353441695E+02  0.10566000000E+00 0. -1.
         23    2    1    0    0    0  0.69289278699E+01 -0.24341572914E+02  0.25257169495E+02  0.89334625240E+02  0.81867138966E+02 0.  0.
         13    1    3    3    0    0 -0.28025254038E+02 -0.30008913384E+02  0.33482008593E+02  0.52981183545E+02  0.10566000000E+00 0.  1.
         22    1    1    0    0    0 -0.69289278699E+01  0.24341572914E+02 -0.25257169495E+02  0.35755374760E+02  0.00000000000E+00 0.  1.
</event>
<event>
 5    1  0.1254496E-009  0.9118800E+02  0.7815553E-02  0.1125453E+00
         25   -1    0    0    0    0  0.00000000000E+00  0.00000000000E+00  0.99999998245E-14  0.12509000000E+03  0.12509000000E+03 0.  0.
        -13    1    3    3    0    0 -0.15768316200E+02  0.20791375640E+02  0.38143929406E+02  0.46215707409E+02  0.10566000000E+00 0.  1.
         23    2    1    0    0    0 -0.28304828712E+02 -0.50824408867E+00 -0.53860880481E+01  0.96272790126E+02  0.91858687852E+02 0.  0.
         13    1    3    3    0    0 -0.12536512512E+02 -0.21299619729E+02 -0.43530017454E+02  0.50057082717E+02  0.10566000000E+00 0. -1.
         22    1    1    0    0    0  0.28304828712E+02  0.50824408867E+00  0.53860880481E+01  0.28817209874E+02  0.00000000000E+00 0. -1.
</event>
<event>
 5    1  0.1254496E-009  0.9118800E+02  0.7815553E-02  0.1125453E+00
         25   -1    0    0    0    0  0.00000000000E+00  0.00000000000E+00  0.99999998245E-14  0.12509000000E+03  0.12509000000E+03 0.  0.
        -13    1    3    3    0    0 -0.12787953020E+02  0.55922129782E+01 -0.47091803838E+02  0.49116735856E+02  0.10566000000E+00 0. -1.
         23    2    1    0    0    0 -0.36034362706E+00 -0.20640896980E+02 -0.41585236231E+02  0.78662547474E+02  0.63500299425E+02 0.  0.
         13    1    3    3    0    0  0.12427609393E+02 -0.26233109958E+02  0.55065676066E+01  0.29545811618E+02  0.10566000000E+00 0.  1.
         22    1    1    0    0    0  0.36034362706E+00  0.20640896980E+02  0.41585236231E+02  0.46427452526E+02  0.00000000000E+00 0. -1.
</event>
<event>
 5    1  0.1254496E-009  0.9118800E+02  0.7815553E-02  0.1125453E+00
         25   -1    0    0    0    0  0.00000000000E+00  0.00000000000E+00  0.99999998245E-14  0.12509000000E+03  0.12509000000E+03 0.  0.
        -13    1    3    3    0    0  0.41356815394E+02 -0.52292826426E+01 -0.40600666647E+02  0.58190694039E+02  0.10566000000E+00 0.  1.
         23    2    1    0    0    0  0.13976542030E+02  0.12880774349E+02 -0.22350983117E+02  0.95750188800E+02  0.91144249046E+02 0.  0.
         13    1    3    3    0    0 -0.27380273364E+02  0.18110056991E+02  0.18249683531E+02  0.37559494761E+02  0.10566000000E+00 0. -1.
         22    1    1    0    0    0 -0.13976542030E+02 -0.12880774349E+02  0.22350983117E+02  0.29339811200E+02  0.00000000000E+00 0.  1.
</event>
<event>
 5    1  0.1254496E-009  0.9118800E+02  0.7815553E-02  0.1125453E+00
         25   -1    0    0    0    0  0.00000000000E+00  0.00000000000E+00  0.99999998245E-14  0.12509000000E+03  0.12509000000E+03 0.  0.
        -13    1    3    3    0    0 -0.32292706767E+02 -0.52722411139E+00  0.21168066959E+02  0.38615995370E+02  0.10566000000E+00 0.  1.
         23    2    1    0    0    0  0.63589855323E+01  0.26820013274E+02 -0.10517490715E+02  0.95588009898E+02  0.90921395812E+02 0.  0.
         13    1    3    3    0    0  0.38651692300E+02  0.27347237385E+02 -0.31685557674E+02  0.56972014528E+02  0.10566000000E+00 0. -1.
         22    1    1    0    0    0 -0.63589855323E+01 -0.26820013274E+02  0.10517490715E+02  0.29501990102E+02  0.00000000000E+00 0. -1.
</event>
<event>
 5    1  0.1254496E-009  0.9118800E+02  0.7815553E-02  0.1125453E+00
         25   -1    0    0    0    0  0.00000000000E+00  0.00000000000E+00  0.99999998245E-14  0.12509000000E+03  0.12509000000E+03 0.  0.
        -13    1    3    3    0    0  0.12457638287E+02 -0.15923059389E+02  0.45377061635E+02  0.49677212670E+02  0.10566000000E+00 0. -1.
         23    2    1    0    0    0 -0.69680837025E+01  0.18668096366E+02  0.20484366788E+02  0.96512713650E+02  0.92184828475E+02 0.  0.
         13    1    3    3    0    0 -0.19425721989E+02  0.34591155756E+02 -0.24892694846E+02  0.46835500980E+02  0.10566000000E+00 0.  1.
         22    1    1    0    0    0  0.69680837025E+01 -0.18668096366E+02 -0.20484366788E+02  0.28577286350E+02  0.00000000000E+00 0.  1.
</event>
<event>
 5    1  0.1254496E-009  0.9118800E+02  0.7815553E-02  0.1125453E+00
         25   -1    0    0    0    0  0.00000000000E+00  0.00000000000E+00  0.99999998245E-14  0.12509000000E+03  0.12509000000E+03 0.  0.
        -13    1    3    3    0    0  0.37557922105E+02 -0.13371160157E+02  0.31382189782E+02  0.50736953361E+02  0.10566000000E+00 0.  1.
         23    2    1    0    0    0  0.13913642029E+02 -0.24378344474E+02 -0.60662487713E+01  0.96372540364E+02  0.91994424006E+02 0.  0.
         13    1    3    3    0    0 -0.23644280076E+02 -0.11007184317E+02 -0.37448438553E+02  0.45635587002E+02  0.10566000000E+00 0. -1.
         22    1    1    0    0    0 -0.13913642029E+02  0.24378344474E+02  0.60662487713E+01  0.28717459636E+02  0.00000000000E+00 0. -1.
</event>
<event>
 5    1  0.1254496E-009  0.9118800E+02  0.7815553E-02  0.1125453E+00
         25   -1    0    0    0    0  0.00000000000E+00  0.00000000000E+00  0.99999998245E-14  0.12509000000E+03  0.12509000000E+03 0.  0.
        -13    1    3    3    0    0 -0.70506321298E+00 -0.30822494260E+02 -0.15969898963E+02  0.34721349390E+02  0.10566000000E+00 0. -1.
         23    2    1    0    0    0 -0.85190285021E+01  0.25341927259E+02  0.92735789555E+01  0.96791830616E+02  0.92562800754E+02 0.  0.
         13    1    3    3    0    0 -0.78139652892E+01  0.56164421520E+02  0.25243477918E+02  0.62070481226E+02  0.10566000000E+00 0.  1.
         22    1    1    0    0    0  0.85190285021E+01 -0.25341927259E+02 -0.92735789555E+01  0.28298169384E+02  0.00000000000E+00 0.  1.
</event>
<event>
 5    1  0.1254496E-009  0.9118800E+02  0.7815553E-02  0.1125453E+00
         25   -1    0    0    0    0  0.00000000000E+00  0.00000000000E+00  0.99999998245E-14  0.12509000000E+03  0.12509000000E+03 0.  0.
        -13    1    3    3    0    0 -0.23022850453E+02 -0.26453695668E+02 -0.10174183183E+02  0.36515405310E+02  0.10566000000E+00 0. -1.
         23    2    1    0    0    0  0.20081440387E+02  0.14087524792E+02 -0.15729865839E+02  0.95949799553E+02  0.91417792317E+02 0.  0.
         13    1    3    3    0    0  0.43104290841E+02  0.40541220460E+02 -0.55556826560E+01  0.59434394243E+02  0.10566000000E+00 0.  1.
         22    1    1    0    0    0 -0.20081440387E+02 -0.14087524792E+02  0.15729865839E+02  0.29140200447E+02  0.00000000000E+00 0.  1.
</event>
<event>
 5    1  0.1254496E-009  0.9118800E+02  0.7815553E-02  0.1125453E+00
         25   -1    0    0    0    0  0.00000000000E+00  0.00000000000E+00  0.99999998245E-14  0.12509000000E+03  0.12509000000E+03 0.  0.
        -13    1    3    3    0    0 -0.43707264818E+02  0.18148121710E+02 -0.29156567673E+02  0.55585932771E+02  0.10566000000E+00 0. -1.
         23    2    1    0    0    0 -0.28045548004E+02  0.61278184953E+01  0.58656187244E+01  0.95789685917E+02  0.91198440352E+02 0.  0.
         13    1    3    3    0    0  0.15661716814E+02 -0.12020303214E+02  0.35022186398E+02  0.40203753146E+02  0.10566000000E+00 0.  1.
         22    1    1    0    0    0  0.28045548004E+02 -0.61278184953E+01 -0.58656187244E+01  0.29300314083E+02  0.00000000000E+00 0.  1.
</event>
<event>
 5    1  0.1254496E-009  0.9118800E+02  0.7815553E-02  0.1125453E+00
         25   -1    0    0    0    0  0.00000000000E+00  0.00000000000E+00  0.99999998245E-14  0.12509000000E+03  0.12509000000E+03 0.  0.
        -13    1    3    3    0    0  0.49397234031E+02 -0.35409279971E+02 -0.22943163246E+01  0.60820875441E+02  0.10566000000E+00 0.  1.
         23    2    1    0    0    0  0.23795211305E+02 -0.11482938932E+02 -0.10242692033E+02  0.96753050488E+02  0.92510378180E+02 0.  0.
         13    1    3    3    0    0 -0.25602022725E+02  0.23926341039E+02 -0.79483757082E+01  0.35932175047E+02  0.10566000000E+00 0. -1.
         22    1    1    0    0    0 -0.23795211305E+02  0.11482938932E+02  0.10242692033E+02  0.28336949512E+02  0.00000000000E+00 0.  1.
</event>
<event>
 5    1  0.1254496E-009  0.9118800E+02  0.7815553E-02  0.1125453E+00
         25   -1    0    0    0    0  0.00000000000E+00  0.00000000000E+00  0.99999998245E-14  0.12509000000E+03  0.12509000000E+03 0.  0.
        -13    1    3    3    0    0  0.75291184416E+01  0.15984876406E+02 -0.30855464509E+02  0.35556641466E+02  0.10566000000E+00 0.  1.
         23    2    1    0    0    0  0.16602159979E+02 -0.18916277921E+02  0.16437154502E+02  0.95029438886E+02  0.90149636276E+02 0.  0.
         13    1    3    3    0    0  0.90730415376E+01 -0.34901154327E+02  0.47292619011E+02  0.59472797421E+02  0.10566000000E+00 0. -1.
         22    1    1    0    0    0 -0.16602159979E+02  0.18916277921E+02 -0.16437154502E+02  0.30060561114E+02  0.00000000000E+00 0. -1.
</event>
<event>
 5    1  0.1254496E-009  0.9118800E+02  0.7815553E-02  0.1125453E+00
         25   -1    0    0    0    0  0.00000000000E+00  0.00000000000E+00  0.99999998245E-14  0.12509000000E+03  0.12509000000E+03 0.  0.
        -13    1    3    3    0    0  0.15088810431E+02 -0.32338171374E+01  0.56702031276E+02  0.58764455995E+02  0.10566000000E+00 0. -1.
         23    2    1    0    0    0 -0.73305883046E+01 -0.69624926248E+01  0.27645592952E+02  0.95653752989E+02  0.91011800459E+02 0.  0.
         13    1    3    3    0    0 -0.22419398736E+02 -0.37286754874E+01 -0.29056438324E+02  0.36889296994E+02  0.10566000000E+00 0.  1.
         22    1    1    0    0    0  0.73305883046E+01  0.69624926248E+01 -0.27645592952E+02  0.29436247011E+02  0.00000000000E+00 0. -1.
</event>
<event>
 5    1  0.1254496E-009  0.9118800E+02  0.7815553E-02  0.1125453E+00
         25   -1    0    0    0    0  0.00000000000E+00  0.00000000000E+00  0.99999998245E-14  0.12509000000E+03  0.12509000000E+03 0.  0.
        -13    1    3    3    0    0  0.56925555615E+02  0.22502412265E+02 -0.12541698887E+02  0.62483460330E+02  0.10566000000E+00 0.  1.
         23    2    1    0    0    0  0.25694940776E+02  0.10314453437E+02 -0.36881413818E+01  0.97157575866E+02  0.93055758715E+02 0.  0.
         13    1    3    3    0    0 -0.31230614840E+02 -0.12187958827E+02  0.88535575047E+01  0.34674115535E+02  0.10566000000E+00 0. -1.
         22    1    1    0    0    0 -0.25694940776E+02 -0.10314453437E+02  0.36881413818E+01  0.27932424134E+02  0.00000000000E+00 0.  1.
</event>
<event>
 5    1  0.1254496E-009  0.9118800E+02  0.7815553E-02  0.1125453E+00
         25   -1    0    0    0    0  0.00000000000E+00  0.00000000000E+00  0.99999998245E-14  0.12509000000E+03  0.12509000000E+03 0.  0.
        -13    1    3    3    0    0 -0.18837931475E+02  0.17903905273E+02 -0.31898003156E+02  0.41145002803E+02  0.10566000000E+00 0.  1.
         23    2    1    0    0    0 -0.37344897591E+01  0.20210640446E+02  0.20701483439E+02  0.95918647313E+02  0.91375155731E+02 0.  0.
         13    1    3    3    0    0  0.15103441716E+02  0.23067351725E+01  0.52599486595E+02  0.54773644510E+02  0.10566000000E+00 0. -1.
         22    1    1    0    0    0  0.37344897591E+01 -0.20210640446E+02 -0.20701483439E+02  0.29171352687E+02  0.00000000000E+00 0. -1.
</event>
<event>
 5    1  0.1254496E-009  0.9118800E+02  0.7815553E-02  0.1125453E+00
         25   -1    0    0    0    0  0.00000000000E+00  0.00000000000E+00  0.99999998245E-14  0.12509000000E+03  0.12509000000E+03 0.  0.
        -13    1    3    3    0    0 -0.16230686271E+02 -0.91353710092E+01 -0.39960926314E+02  0.44088286157E+02  0.10566000000E+00 0. -1.
         23    2    1    0    0    0  0.16375238628E+02 -0.23530630793E+02 -0.17099962222E+01  0.96371310742E+02  0.91992752004E+02 0.  0.
         13    1    3    3    0    0  0.32605924899E+02 -0.14395259784E+02  0.38250930092E+02  0.52283024585E+02  0.10566000000E+00 0.  1.
         22    1    1    0    0    0 -0.16375238628E+02  0.23530630793E+02  0.17099962222E+01  0.28718689258E+02  0.00000000000E+00 0.  1.
</event>
<event>
 5    1  0.1254496E-009  0.9118800E+02  0.7815553E-02  0.1125453E+00
         25   -1    0    0    0    0  0.00000000000E+00  0.00000000000E+00  0.99999998245E-14  0.12509000000E+03  0.12509000000E+03 0.  0.
        -13    1    3    3    0    0 -0.14205446607E+02 -0.23128484295E+02  0.25926625540E+02  0.37535617419E+02  0.10566000000E+00 0.  1.
         23    2    1    0    0    0 -0.73129742244E+01  0.24729349252E+02 -0.96395160497E+01  0.97559279412E+02  0.93594190115E+02 0.  0.
         13    1    3    3    0    0  0.68924723829E+01  0.47857833547E+02 -0.35566141590E+02  0.60023661993E+02  0.10566000000E+00 0. -1.
         22    1    1    0    0    0  0.73129742244E+01 -0.24729349252E+02  0.96395160497E+01  0.27530720588E+02  0.00000000000E+00 0. -1.
</event>
<event>
 5    1  0.1254496E-009  0.9118800E+02  0.7815553E-02  0.1125453E+00
         25   -1    0    0    0    0  0.00000000000E+00  0.00000000000E+00  0.99999998245E-14  0.12509000000E+03  0.12509000000E+03 0.  0.
        -13    1    3    3    0    0  0.25999041400E+02 -0.43755592635E+01 -0.21844182145E+02  0.34238503621E+02  0.10566000000E+00 0. -1.
         23    2    1    0    0    0 -0.10894586199E+02  0.49632031779E+01  0.26644947134E+02  0.95879067081E+02  0.91320955439E+02 0.  0.
         13    1    3    3    0    0 -0.36893627599E+02  0.93387624413E+01  0.48489129279E+02  0.61640563460E+02  0.10566000000E+00 0.  1.
         22    1    1    0    0    0  0.10894586199E+02 -0.49632031779E+01 -0.26644947134E+02  0.29210932919E+02  0.00000000000E+00 0.  1.
</event>
<event>
 5    1  0.1254496E-009  0.9118800E+02  0.7815553E-02  0.1125453E+00
         25   -1    0    0    0    0  0.00000000000E+00  0.00000000000E+00  0.99999998245E-14  0.12509000000E+03  0.12509000000E+03 0.  0.
        -13    1    3    3    0    0 -0.46836825421E+02 -0.99480672401E+00 -0.10442974645E+02  0.47997340962E+02  0.10566000000E+00 0.  1.
         23    2    1    0    0    0 -0.77267349942E+01 -0.27780527508E+02 -0.16628837827E+01  0.96207040928E+02  0.91769109178E+02 0.  0.
         13    1    3    3    0    0  0.39110090427E+02 -0.26785720784E+02  0.87800908621E+01  0.48209699965E+02  0.10566000000E+00 0. -1.
         22    1    1    0    0    0  0.77267349942E+01  0.27780527508E+02  0.16628837827E+01  0.28882959072E+02  0.00000000000E+00 0.  1.
</event>
<event>
 5    1  0.1254496E-009  0.9118800E+02  0.7815553E-02  0.1125453E+00
         25   -1    0    0    0    0  0.00000000000E+00  0.00000000000E+00  0.99999998245E-14  0.12509000000E+03  0.12509000000E+03 0.  0.
        -13    1    3    3    0    0 -0.11111030087E+02  0.18435831656E+02  0.31076749816E+02  0.37803576836E+02  0.10566000000E+00 0. -1.
         23    2    1    0    0    0 -0.57528248794E+01 -0.27680175645E+02 -0.47188446854E+01  0.96427226007E+02  0.92068753127E+02 0.  0.
         13    1    3    3    0    0  0.53582052074E+01 -0.46116007301E+02 -0.35795594501E+02  0.58623649171E+02  0.10566000000E+00 0.  1.
         22    1    1    0    0    0  0.57528248794E+01  0.27680175645E+02  0.47188446854E+01  0.28662773993E+02  0.00000000000E+00 0.  1.
</event>
<event>
 5    1  0.1254496E-009  0.9118800E+02  0.7815553E-02  0.1125453E+00
         25   -1    0    0    0    0  0.00000000000E+00  0.00000000000E+00  0.99999998245E-14  0.12509000000E+03  0.12509000000E+03 0.  0.
        -13    1    3    3    0    0 -0.33901540351E+01  0.47661519450E+02  0.10509501120E+02  0.48924169472E+02  0.10566000000E+00 0. -1.
         23    2    1    0    0    0  0.23669830220E+02  0.98488419651E+01  0.14575058947E+02  0.95599443986E+02  0.90937125512E+02 0.  0.
         13    1    3    3    0    0  0.27059984255E+02 -0.37812677485E+02  0.40655578274E+01  0.46675274514E+02  0.10566000000E+00 0.  1.
         22    1    1    0    0    0 -0.23669830220E+02 -0.98488419651E+01 -0.14575058947E+02  0.29490556014E+02  0.00000000000E+00 0. -1.
</event>
<event>
 5    1  0.1254496E-009  0.9118800E+02  0.7815553E-02  0.1125453E+00
         25   -1    0    0    0    0  0.00000000000E+00  0.00000000000E+00  0.99999998245E-14  0.12509000000E+03  0.12509000000E+03 0.  0.
        -13    1    3    3    0    0 -0.42046520758E+02  0.25952004661E+02 -0.95578686186E+01  0.50326737132E+02  0.10566000000E+00 0.  1.
         23    2    1    0    0    0 -0.21705028779E+02 -0.12795081811E+02 -0.16970253405E+02  0.94712180897E+02  0.89708334712E+02 0.  0.
         13    1    3    3    0    0  0.20341491979E+02 -0.38747086472E+02 -0.74123847863E+01  0.44385443765E+02  0.10566000000E+00 0. -1.
         22    1    1    0    0    0  0.21705028779E+02  0.12795081811E+02  0.16970253405E+02  0.30377819103E+02  0.00000000000E+00 0. -1.
</event>
<event>
 5    1  0.1254496E-009  0.9118800E+02  0.7815553E-02  0.1125453E+00
         25   -1    0    0    0    0  0.00000000000E+00  0.00000000000E+00  0.99999998245E-14  0.12509000000E+03  0.12509000000E+03 0.  0.
        -13    1    3    3    0    0  0.18015253427E+02  0.23139450006E+02  0.23186969686E+02  0.37384893070E+02  0.10566000000E+00 0. -1.
         23    2    1    0    0    0  0.90343656020E+01 -0.16008019226E+02 -0.21055879091E+02  0.97139570922E+02  0.93031552461E+02 0.  0.
         13    1    3    3    0    0 -0.89808878250E+01 -0.39147469231E+02 -0.44242848777E+02  0.59754677852E+02  0.10566000000E+00 0.  1.
         22    1    1    0    0    0 -0.90343656020E+01  0.16008019226E+02  0.21055879091E+02  0.27950429078E+02  0.00000000000E+00 0.  1.
</event>
<event>
 5    1  0.1254496E-009  0.9118800E+02  0.7815553E-02  0.1125453E+00
         25   -1    0    0    0    0  0.00000000000E+00  0.00000000000E+00  0.99999998245E-14  0.12509000000E+03  0.12509000000E+03 0.  0.
        -13    1    3    3    0    0  0.54858809289E+02  0.50638882163E+01 -0.28449535638E+02  0.62004186653E+02  0.10566000000E+00 0.  1.
         23    2    1    0    0    0  0.22640809739E+02  0.55750899494E+01 -0.17130187863E+02  0.96156779824E+02  0.91700572933E+02 0.  0.
         13    1    3    3    0    0 -0.32217999550E+02  0.51120173307E+00  0.11319347775E+02  0.34152593171E+02  0.10566000000E+00 0. -1.
         22    1    1    0    0    0 -0.22640809739E+02 -0.55750899494E+01  0.17130187863E+02  0.28933220176E+02  0.00000000000E+00 0.  1.
</event>
<event>
 5    1  0.1254496E-009  0.9118800E+02  0.7815553E-02  0.1125453E+00
         25   -1    0    0    0    0  0.00000000000E+00  0.00000000000E+00  0.99999998245E-14  0.12509000000E+03  0.12509000000E+03 0.  0.
        -13    1    3    3    0    0 -0.26197465473E+02 -0.41521938551E+01  0.39192524273E+02  0.47324550013E+02  0.10566000000E+00 0.  1.
         23    2    1    0    0    0  0.61742405216E+01  0.23682316371E+02  0.14318903175E+02  0.96735029663E+02  0.92486007704E+02 0.  0.
         13    1    3    3    0    0  0.32371705995E+02  0.27834510226E+02 -0.24873621099E+02  0.49410479649E+02  0.10566000000E+00 0. -1.
         22    1    1    0    0    0 -0.61742405216E+01 -0.23682316371E+02 -0.14318903175E+02  0.28354970337E+02  0.00000000000E+00 0.  1.
</event>
<event>
 5    1  0.1254496E-009  0.9118800E+02  0.7815553E-02  0.1125453E+00
         25   -1    0    0    0    0  0.00000000000E+00  0.00000000000E+00  0.99999998245E-14  0.12509000000E+03  0.12509000000E+03 0.  0.
        -13    1    3    3    0    0 -0.26818077741E+02 -0.18489918068E+02  0.12954117889E+02  0.35055765549E+02  0.10566000000E+00 0. -1.
         23    2    1    0    0    0  0.18592259285E+02  0.20800916954E+02 -0.25523743698E+01  0.97074560214E+02  0.92944098115E+02 0.  0.
         13    1    3    3    0    0  0.45410337027E+02  0.39290835022E+02 -0.15506492259E+02  0.62018794666E+02  0.10566000000E+00 0.  1.
         22    1    1    0    0    0 -0.18592259285E+02 -0.20800916954E+02  0.25523743698E+01  0.28015439786E+02  0.00000000000E+00 0.  1.
</event>
<event>
 5    1  0.1254496E-009  0.9118800E+02  0.7815553E-02  0.1125453E+00
         25   -1    0    0    0    0  0.00000000000E+00  0.00000000000E+00  0.99999998245E-14  0.12509000000E+03  0.12509000000E+03 0.  0.
        -13    1    3    3    0    0 -0.27359978338E+02  0.15669132379E+02  0.15451819258E+02  0.35112106268E+02  0.10566000000E+00 0. -1.
         23    2    1    0    0    0  0.15802061697E+02 -0.24561880123E+02  0.96862354971E+00  0.95867930589E+02  0.91305699574E+02 0.  0.
         13    1    3    3    0    0  0.43162040036E+02 -0.40231012502E+02 -0.14483195708E+02  0.60755824321E+02  0.10566000000E+00 0.  1.
         22    1    1    0    0    0 -0.15802061697E+02  0.24561880123E+02 -0.96862354971E+00  0.29222069411E+02  0.00000000000E+00 0.  1.
</event>
<event>
 5    1  0.1254496E-009  0.9118800E+02  0.7815553E-02  0.1125453E+00
         25   -1    0    0    0    0  0.00000000000E+00  0.00000000000E+00  0.99999998245E-14  0.12509000000E+03  0.12509000000E+03 0.  0.
        -13    1    3    3    0    0 -0.81516506508E+01  0.35617360143E+02 -0.11255820506E+02  0.38232844665E+02  0.10566000000E+00 0.  1.
         23    2    1    0    0    0  0.28894054644E+02 -0.69014310536E+01 -0.48646372614E+01  0.94987494456E+02  0.90091416145E+02 0.  0.
         13    1    3    3    0    0  0.37045705295E+02 -0.42518791196E+02  0.63911832445E+01  0.56754649791E+02  0.10566000000E+00 0. -1.
         22    1    1    0    0    0 -0.28894054644E+02  0.69014310536E+01  0.48646372614E+01  0.30102505544E+02  0.00000000000E+00 0. -1.
</event>
<event>
 5    1  0.1254496E-009  0.9118800E+02  0.7815553E-02  0.1125453E+00
         25   -1    0    0    0    0  0.00000000000E+00  0.00000000000E+00  0.99999998245E-14  0.12509000000E+03  0.12509000000E+03 0.  0.
        -13    1    3    3    0    0 -0.51089555457E+01 -0.42542756482E+02 -0.11705949372E+02  0.44418779481E+02  0.10566000000E+00 0.  1.
         23    2    1    0    0    0  0.24816975298E+02  0.22655409384E+00 -0.13862616335E+02  0.96662799622E+02  0.92388262833E+02 0.  0.
         13    1    3    3    0    0  0.29925930843E+02  0.42769310576E+02 -0.21566669634E+01  0.52244020140E+02  0.10566000000E+00 0. -1.
         22    1    1    0    0    0 -0.24816975298E+02 -0.22655409384E+00  0.13862616335E+02  0.28427200378E+02  0.00000000000E+00 0.  1.
</event>
<event>
 5    1  0.1254496E-009  0.9118800E+02  0.7815553E-02  0.1125453E+00
         25   -1    0    0    0    0  0.00000000000E+00  0.00000000000E+00  0.99999998245E-14  0.12509000000E+03  0.12509000000E+03 0.  0.
        -13    1    3    3    0    0 -0.11716503879E+02  0.53412714708E+02 -0.12461621817E+02  0.56084737122E+02  0.10566000000E+00 0.  1.
         23    2    1    0    0    0 -0.98138718191E+01  0.21602710858E+02  0.14029795445E+02  0.97525088306E+02  0.93548482042E+02 0.  0.
         13    1    3    3    0    0  0.19026320599E+01 -0.31810003850E+02  0.26491417262E+02  0.41440351184E+02  0.10566000000E+00 0. -1.
         22    1    1    0    0    0  0.98138718191E+01 -0.21602710858E+02 -0.14029795445E+02  0.27564911694E+02  0.00000000000E+00 0.  1.
</event>
<event>
 5    1  0.1254496E-009  0.9118800E+02  0.7815553E-02  0.1125453E+00
         25   -1    0    0    0    0  0.00000000000E+00  0.00000000000E+00  0.99999998245E-14  0.12509000000E+03  0.12509000000E+03 0.  0.
        -13    1    3    3    0    0 -0.33854959318E+02  0.25304399978E+02 -0.16499836678E+02  0.45373193662E+02  0.10566000000E+00 0. -1.
         23    2    1    0    0    0 -0.97868011485E+01  0.13671035468E+02  0.25134333337E+02  0.94850730832E+02  0.89901322235E+02 0.  0.
         13    1    3    3    0    0  0.24068158170E+02 -0.11633364510E+02  0.41634170015E+02  0.49477537170E+02  0.10566000000E+00 0.  1.
         22    1    1    0    0    0  0.97868011485E+01 -0.13671035468E+02 -0.25134333337E+02  0.30239269168E+02  0.00000000000E+00 0.  1.
</event>
<event>
 5    1  0.1254496E-009  0.9118800E+02  0.7815553E-02  0.1125453E+00
         25   -1    0    0    0    0  0.00000000000E+00  0.00000000000E+00  0.99999998245E-14  0.12509000000E+03  0.12509000000E+03 0.  0.
        -13    1    3    3    0    0  0.16239447782E+02 -0.42149030128E+02 -0.31365833529E+02  0.54991700119E+02  0.10566000000E+00 0.  1.
         23    2    1    0    0    0 -0.10777185720E+02 -0.31671676432E+02 -0.13636425377E+02  0.88962518534E+02  0.81296585332E+02 0.  0.
         13    1    3    3    0    0 -0.27016633502E+02  0.10477353697E+02  0.17729408152E+02  0.33970818414E+02  0.10566000000E+00 0. -1.
         22    1    1    0    0    0  0.10777185720E+02  0.31671676432E+02  0.13636425377E+02  0.36127481466E+02  0.00000000000E+00 0.  1.
</event>
<event>
 5    1  0.1254496E-009  0.9118800E+02  0.7815553E-02  0.1125453E+00
         25   -1    0    0    0    0  0.00000000000E+00  0.00000000000E+00  0.99999998245E-14  0.12509000000E+03  0.12509000000E+03 0.  0.
        -13    1    3    3    0    0 -0.26704105220E+02 -0.45727058801E+02 -0.41145135921E+01  0.53113214254E+02  0.10566000000E+00 0.  1.
         23    2    1    0    0    0  0.10955686692E+02 -0.27333622560E+02  0.24705685118E+01  0.95539065972E+02  0.90854033619E+02 0.  0.
         13    1    3    3    0    0  0.37659791913E+02  0.18393436242E+02  0.65850821039E+01  0.42425851718E+02  0.10566000000E+00 0. -1.
         22    1    1    0    0    0 -0.10955686692E+02  0.27333622560E+02 -0.24705685118E+01  0.29550934028E+02  0.00000000000E+00 0.  1.
</event>
<event>
 5    1  0.1254496E-009  0.9118800E+02  0.7815553E-02  0.1125453E+00
         25   -1    0    0    0    0  0.00000000000E+00  0.00000000000E+00  0.99999998245E-14  0.12509000000E+03  0.12509000000E+03 0.  0.
        -13    1    3    3    0    0  0.28879350690E+02  0.25416875493E+02 -0.11862876877E+01  0.38489646642E+02  0.10566000000E+00 0.  1.
         23    2    1    0    0    0  0.22742426622E+01 -0.20662725357E+02 -0.21257208535E+02  0.95358042218E+02  0.90604452992E+02 0.  0.
         13    1    3    3    0    0 -0.26605108028E+02 -0.46079600850E+02 -0.20070920848E+02  0.56868395576E+02  0.10566000000E+00 0. -1.
         22    1    1    0    0    0 -0.22742426622E+01  0.20662725357E+02  0.21257208535E+02  0.29731957782E+02  0.00000000000E+00 0. -1.
</event>
<event>
 5    1  0.1254496E-009  0.9118800E+02  0.7815553E-02  0.1125453E+00
         25   -1    0    0    0    0  0.00000000000E+00  0.00000000000E+00  0.99999998245E-14  0.12509000000E+03  0.12509000000E+03 0.  0.
        -13    1    3    3    0    0  0.45147127920E+02 -0.16350650968E+01 -0.28478438049E+02  0.53403831277E+02  0.10566000000E+00 0. -1.
         23    2    1    0    0    0  0.37662416143E+01 -0.38533658918E+01 -0.29742327854E+02  0.94863536912E+02  0.89919139035E+02 0.  0.
         13    1    3    3    0    0 -0.41380886306E+02 -0.22183007951E+01 -0.12638898052E+01  0.41459705635E+02  0.10566000000E+00 0.  1.
         22    1    1    0    0    0 -0.37662416143E+01  0.38533658918E+01  0.29742327854E+02  0.30226463088E+02  0.00000000000E+00 0. -1.
</event>
<event>
 5    1  0.1254496E-009  0.9118800E+02  0.7815553E-02  0.1125453E+00
         25   -1    0    0    0    0  0.00000000000E+00  0.00000000000E+00  0.99999998245E-14  0.12509000000E+03  0.12509000000E+03 0.  0.
        -13    1    3    3    0    0 -0.39545431954E+02  0.33996819073E+01  0.47421232816E+01  0.39973715398E+02  0.10566000000E+00 0. -1.
         23    2    1    0    0    0  0.72110425476E+01 -0.27697978389E+02 -0.12176209997E+01  0.96442840588E+02  0.92089965568E+02 0.  0.
         13    1    3    3    0    0  0.46756474502E+02 -0.31097660297E+02 -0.59597442813E+01  0.56469125190E+02  0.10566000000E+00 0.  1.
         22    1    1    0    0    0 -0.72110425476E+01  0.27697978389E+02  0.12176209997E+01  0.28647159412E+02  0.00000000000E+00 0.  1.
</event>
<event>
 5    1  0.1254496E-009  0.9118800E+02  0.7815553E-02  0.1125453E+00
         25   -1    0    0    0    0  0.00000000000E+00  0.00000000000E+00  0.99999998245E-14  0.12509000000E+03  0.12509000000E+03 0.  0.
        -13    1    3    3    0    0  0.31373627758E+02 -0.38452241363E+02 -0.21505309330E+02  0.54086679302E+02  0.10566000000E+00 0. -1.
         23    2    1    0    0    0 -0.71345192411E+01 -0.24813837921E+02 -0.14319127101E+02  0.95566021303E+02  0.90891138784E+02 0.  0.
         13    1    3    3    0    0 -0.38508146999E+02  0.13638403442E+02  0.71861822287E+01  0.41479342000E+02  0.10566000000E+00 0.  1.
         22    1    1    0    0    0  0.71345192411E+01  0.24813837921E+02  0.14319127101E+02  0.29523978697E+02  0.00000000000E+00 0. -1.
</event>
<event>
 5    1  0.1254496E-009  0.9118800E+02  0.7815553E-02  0.1125453E+00
         25   -1    0    0    0    0  0.00000000000E+00  0.00000000000E+00  0.99999998245E-14  0.12509000000E+03  0.12509000000E+03 0.  0.
        -13    1    3    3    0    0  0.71253455488E+01 -0.14237607889E+02  0.48199701306E+02  0.50761229276E+02  0.10566000000E+00 0. -1.
         23    2    1    0    0    0  0.54188344984E+01  0.20794577763E+02  0.19259722631E+02  0.96233195820E+02  0.91804753854E+02 0.  0.
         13    1    3    3    0    0 -0.17065110503E+01  0.35032185652E+02 -0.28939978676E+02  0.45471966543E+02  0.10566000000E+00 0.  1.
         22    1    1    0    0    0 -0.54188344984E+01 -0.20794577763E+02 -0.19259722631E+02  0.28856804180E+02  0.00000000000E+00 0. -1.
</event>
<event>
 5    1  0.1254496E-009  0.9118800E+02  0.7815553E-02  0.1125453E+00
         25   -1    0    0    0    0  0.00000000000E+00  0.00000000000E+00  0.99999998245E-14  0.12509000000E+03  0.12509000000E+03 0.  0.
        -13    1    3    3    0    0  0.19565332432E+02 -0.54513974144E+02 -0.40072991618E+01  0.58057258123E+02  0.10566000000E+00 0.  1.
         23    2    1    0    0    0  0.24275560887E+02 -0.18325635174E+02 -0.14987162865E+01  0.94637119817E+02  0.89603607829E+02 0.  0.
         13    1    3    3    0    0  0.47102284557E+01  0.36188338970E+02  0.25085828753E+01  0.36579861695E+02  0.10566000000E+00 0. -1.
         22    1    1    0    0    0 -0.24275560887E+02  0.18325635174E+02  0.14987162865E+01  0.30452880183E+02  0.00000000000E+00 0.  1.
</event>
<event>
 5    1  0.1254496E-009  0.9118800E+02  0.7815553E-02  0.1125453E+00
         25   -1    0    0    0    0  0.00000000000E+00  0.00000000000E+00  0.99999998245E-14  0.12509000000E+03  0.12509000000E+03 0.  0.
        -13    1    3    3    0    0 -0.38026468013E+02  0.25877732197E+02  0.24777988613E+02  0.52245853203E+02  0.10566000000E+00 0. -1.
         23    2    1    0    0    0 -0.19879282707E+02  0.19568422152E+02 -0.12760338832E+02  0.94415331728E+02  0.89293446522E+02 0.  0.
         13    1    3    3    0    0  0.18147185306E+02 -0.63093100445E+01 -0.37538327444E+02  0.42169478526E+02  0.10566000000E+00 0.  1.
         22    1    1    0    0    0  0.19879282707E+02 -0.19568422152E+02  0.12760338832E+02  0.30674668272E+02  0.00000000000E+00 0.  1.
</event>
<event>
 5    1  0.1254496E-009  0.9118800E+02  0.7815553E-02  0.1125453E+00
         25   -1    0    0    0    0  0.00000000000E+00  0.00000000000E+00  0.99999998245E-14  0.12509000000E+03  0.12509000000E+03 0.  0.
        -13    1    3    3    0    0  0.17794339980E+01 -0.27825277915E+02 -0.31815045320E+02  0.42303909384E+02  0.10566000000E+00 0.  1.
         23    2    1    0    0    0 -0.27042469713E+02  0.12959999830E+00  0.59221081310E+01  0.97406370739E+02  0.93389601838E+02 0.  0.
         13    1    3    3    0    0 -0.28821903711E+02  0.27954877914E+02  0.37737153451E+02  0.55102461355E+02  0.10566000000E+00 0. -1.
         22    1    1    0    0    0  0.27042469713E+02 -0.12959999830E+00 -0.59221081310E+01  0.27683629261E+02  0.00000000000E+00 0. -1.
</event>
<event>
 5    1  0.1254496E-009  0.9118800E+02  0.7815553E-02  0.1125453E+00
         25   -1    0    0    0    0  0.00000000000E+00  0.00000000000E+00  0.99999998245E-14  0.12509000000E+03  0.12509000000E+03 0.  0.
        -13    1    3    3    0    0 -0.12763496481E+01  0.57234024798E+01  0.41364715685E+02  0.41778430705E+02  0.10566000000E+00 0.  1.
         23    2    1    0    0    0  0.92314248720E+01 -0.27327408544E+02 -0.62505686458E+00  0.96238706113E+02  0.91812261682E+02 0.  0.
         13    1    3    3    0    0  0.10507774520E+02 -0.33050811024E+02 -0.41989772550E+02  0.54460275408E+02  0.10566000000E+00 0. -1.
         22    1    1    0    0    0 -0.92314248720E+01  0.27327408544E+02  0.62505686458E+00  0.28851293887E+02  0.00000000000E+00 0. -1.
</event>
<event>
 5    1  0.1254496E-009  0.9118800E+02  0.7815553E-02  0.1125453E+00
         25   -1    0    0    0    0  0.00000000000E+00  0.00000000000E+00  0.99999998245E-14  0.12509000000E+03  0.12509000000E+03 0.  0.
        -13    1    3    3    0    0  0.27714765967E+02  0.48353710925E+01 -0.17914460541E+02  0.33353082717E+02  0.10566000000E+00 0. -1.
         23    2    1    0    0    0 -0.18335768773E+02 -0.54687164496E+01  0.22550245703E+02  0.95516010459E+02  0.90822284692E+02 0.  0.
         13    1    3    3    0    0 -0.46050534740E+02 -0.10304087542E+02  0.40464706244E+02  0.62162927742E+02  0.10566000000E+00 0.  1.
         22    1    1    0    0    0  0.18335768773E+02  0.54687164496E+01 -0.22550245703E+02  0.29573989541E+02  0.00000000000E+00 0.  1.
</event>
<event>
 5    1  0.1254496E-009  0.9118800E+02  0.7815553E-02  0.1125453E+00
         25   -1    0    0    0    0  0.00000000000E+00  0.00000000000E+00  0.99999998245E-14  0.12509000000E+03  0.12509000000E+03 0.  0.
        -13    1    3    3    0    0  0.17220533109E+02 -0.32205670244E+02  0.29251606506E+01  0.36637681221E+02  0.10566000000E+00 0. -1.
         23    2    1    0    0    0  0.93838057967E+01  0.25823007199E+02  0.10491133742E+02  0.95680011914E+02  0.91047884547E+02 0.  0.
         13    1    3    3    0    0 -0.78367273119E+01  0.58028677443E+02  0.75659730919E+01  0.59042330693E+02  0.10566000000E+00 0.  1.
         22    1    1    0    0    0 -0.93838057967E+01 -0.25823007199E+02 -0.10491133742E+02  0.29409988086E+02  0.00000000000E+00 0.  1.
</event>
<event>
 5    1  0.1254496E-009  0.9118800E+02  0.7815553E-02  0.1125453E+00
         25   -1    0    0    0    0  0.00000000000E+00  0.00000000000E+00  0.99999998245E-14  0.12509000000E+03  0.12509000000E+03 0.  0.
        -13    1    3    3    0    0  0.29569149686E+01  0.45507001646E+02  0.20633072442E+02  0.50053625117E+02  0.10566000000E+00 0.  1.
         23    2    1    0    0    0  0.10932780093E+02  0.20329856502E+02 -0.17277712992E+02  0.96256892083E+02  0.91837035891E+02 0.  0.
         13    1    3    3    0    0  0.79758651247E+01 -0.25177145144E+02 -0.37910785434E+02  0.46203266966E+02  0.10566000000E+00 0. -1.
         22    1    1    0    0    0 -0.10932780093E+02 -0.20329856502E+02  0.17277712992E+02  0.28833107917E+02  0.00000000000E+00 0.  1.
</event>
<event>
 5    1  0.1254496E-009  0.9118800E+02  0.7815553E-02  0.1125453E+00
         25   -1    0    0    0    0  0.00000000000E+00  0.00000000000E+00  0.99999998245E-14  0.12509000000E+03  0.12509000000E+03 0.  0.
        -13    1    3    3    0    0  0.27518944681E+02  0.22258521842E+02 -0.16178023232E+02  0.38916239678E+02  0.10566000000E+00 0. -1.
         23    2    1    0    0    0 -0.16417092617E+02 -0.51884578675E+01  0.17368270922E+02  0.10063396067E+03  0.97617089589E+02 0.  0.
         13    1    3    3    0    0 -0.43936037298E+02 -0.27446979710E+02  0.33546294153E+02  0.61717720989E+02  0.10566000000E+00 0.  1.
         22    1    1    0    0    0  0.16417092617E+02  0.51884578675E+01 -0.17368270922E+02  0.24456039333E+02  0.00000000000E+00 0.  1.
</event>
<event>
 5    1  0.1254496E-009  0.9118800E+02  0.7815553E-02  0.1125453E+00
         25   -1    0    0    0    0  0.00000000000E+00  0.00000000000E+00  0.99999998245E-14  0.12509000000E+03  0.12509000000E+03 0.  0.
        -13    1    3    3    0    0  0.35015082701E+02 -0.21299851115E+02 -0.20527527936E+02  0.45838087234E+02  0.10566000000E+00 0.  1.
         23    2    1    0    0    0  0.17466092575E+02 -0.14725922139E+02  0.22657649589E+02  0.92914135481E+02  0.87165075085E+02 0.  0.
         13    1    3    3    0    0 -0.17548990126E+02  0.65739289764E+01  0.43185177525E+02  0.47076048247E+02  0.10566000000E+00 0. -1.
         22    1    1    0    0    0 -0.17466092575E+02  0.14725922139E+02 -0.22657649589E+02  0.32175864519E+02  0.00000000000E+00 0. -1.
</event>
<event>
 5    1  0.1254496E-009  0.9118800E+02  0.7815553E-02  0.1125453E+00
         25   -1    0    0    0    0  0.00000000000E+00  0.00000000000E+00  0.99999998245E-14  0.12509000000E+03  0.12509000000E+03 0.  0.
        -13    1    3    3    0    0  0.23725186979E+02 -0.26404526230E+02 -0.30827269271E+02  0.47015052881E+02  0.10566000000E+00 0.  1.
         23    2    1    0    0    0  0.17092232371E+02  0.18824041404E+02 -0.15893864852E+02  0.95104939017E+02  0.90254338086E+02 0.  0.
         13    1    3    3    0    0 -0.66329546083E+01  0.45228567634E+02  0.14933404419E+02  0.48089886137E+02  0.10566000000E+00 0. -1.
         22    1    1    0    0    0 -0.17092232371E+02 -0.18824041404E+02  0.15893864852E+02  0.29985060983E+02  0.00000000000E+00 0. -1.
</event>
<event>
 5    1  0.1254496E-009  0.9118800E+02  0.7815553E-02  0.1125453E+00
         25   -1    0    0    0    0  0.00000000000E+00  0.00000000000E+00  0.99999998245E-14  0.12509000000E+03  0.12509000000E+03 0.  0.
        -13    1    3    3    0    0  0.16113239999E+02 -0.25865699045E+02 -0.15809426140E+02  0.34331035657E+02  0.10566000000E+00 0.  1.
         23    2    1    0    0    0 -0.95355058906E+01  0.23510816709E+02 -0.23508336881E+02  0.90502050107E+02  0.83631900586E+02 0.  0.
         13    1    3    3    0    0 -0.25648745890E+02  0.49376515753E+02 -0.76989107411E+01  0.56171014450E+02  0.10566000000E+00 0. -1.
         22    1    1    0    0    0  0.95355058906E+01 -0.23510816709E+02  0.23508336881E+02  0.34587949893E+02  0.00000000000E+00 0. -1.
</event>
<event>
 5    1  0.1254496E-009  0.9118800E+02  0.7815553E-02  0.1125453E+00
         25   -1    0    0    0    0  0.00000000000E+00  0.00000000000E+00  0.99999998245E-14  0.12509000000E+03  0.12509000000E+03 0.  0.
        -13    1    3    3    0    0  0.43320408478E+02 -0.92429034667E+00 -0.30906230694E+02  0.53223287789E+02  0.10566000000E+00 0.  1.
         23    2    1    0    0    0  0.29058158306E+02 -0.88824794469E+00  0.82286350734E+01  0.94876162380E+02  0.89936701098E+02 0.  0.
         13    1    3    3    0    0 -0.14262250172E+02  0.36042401979E-01  0.39134865768E+02  0.41652874591E+02  0.10566000000E+00 0. -1.
         22    1    1    0    0    0 -0.29058158306E+02  0.88824794469E+00 -0.82286350734E+01  0.30213837620E+02  0.00000000000E+00 0. -1.
</event>
<event>
 5    1  0.1254496E-009  0.9118800E+02  0.7815553E-02  0.1125453E+00
         25   -1    0    0    0    0  0.00000000000E+00  0.00000000000E+00  0.99999998245E-14  0.12509000000E+03  0.12509000000E+03 0.  0.
        -13    1    3    3    0    0  0.12076760763E+02 -0.21819930685E+02 -0.52607728197E+02  0.58219771175E+02  0.10566000000E+00 0. -1.
         23    2    1    0    0    0  0.99134441441E+01  0.56721321887E+01 -0.26665488449E+02  0.96081419673E+02  0.91597715439E+02 0.  0.
         13    1    3    3    0    0 -0.21633166184E+01  0.27492062873E+02  0.25942239747E+02  0.37861648498E+02  0.10566000000E+00 0.  1.
         22    1    1    0    0    0 -0.99134441441E+01 -0.56721321887E+01  0.26665488449E+02  0.29008580327E+02  0.00000000000E+00 0. -1.
</event>
<event>
 5    1  0.1254496E-009  0.9118800E+02  0.7815553E-02  0.1125453E+00
         25   -1    0    0    0    0  0.00000000000E+00  0.00000000000E+00  0.99999998245E-14  0.12509000000E+03  0.12509000000E+03 0.  0.
        -13    1    3    3    0    0 -0.25047954065E+02  0.54785335827E+02 -0.87149214910E-01  0.60239951722E+02  0.10566000000E+00 0.  1.
         23    2    1    0    0    0 -0.12127500630E+01  0.29096509309E+02 -0.47195942627E+01  0.95588268073E+02  0.90921751009E+02 0.  0.
         13    1    3    3    0    0  0.23835204002E+02 -0.25688826518E+02 -0.46324450478E+01  0.35348316351E+02  0.10566000000E+00 0. -1.
         22    1    1    0    0    0  0.12127500630E+01 -0.29096509309E+02  0.47195942627E+01  0.29501731927E+02  0.00000000000E+00 0.  1.
</event>
<event>
 5    1  0.1254496E-009  0.9118800E+02  0.7815553E-02  0.1125453E+00
         25   -1    0    0    0    0  0.00000000000E+00  0.00000000000E+00  0.99999998245E-14  0.12509000000E+03  0.12509000000E+03 0.  0.
        -13    1    3    3    0    0  0.10352657471E+02  0.44518517586E+02 -0.22550144264E+02  0.50966617458E+02  0.10566000000E+00 0.  1.
         23    2    1    0    0    0  0.15580325491E+02  0.17581728773E+02  0.14809037328E+02  0.97320028527E+02  0.93273879714E+02 0.  0.
         13    1    3    3    0    0  0.52276680200E+01 -0.26936788812E+02  0.37359181592E+02  0.46353411069E+02  0.10566000000E+00 0. -1.
         22    1    1    0    0    0 -0.15580325491E+02 -0.17581728773E+02 -0.14809037328E+02  0.27769971473E+02  0.00000000000E+00 0.  1.
</event>
<event>
 5    1  0.1254496E-009  0.9118800E+02  0.7815553E-02  0.1125453E+00
         25   -1    0    0    0    0  0.00000000000E+00  0.00000000000E+00  0.99999998245E-14  0.12509000000E+03  0.12509000000E+03 0.  0.
        -13    1    3    3    0    0  0.34742093021E+02  0.18021416088E+02 -0.31433493638E+02  0.50198208649E+02  0.10566000000E+00 0. -1.
         23    2    1    0    0    0  0.21413873332E+02 -0.18498889949E+02 -0.76359598667E+01  0.95780090694E+02  0.91185278361E+02 0.  0.
         13    1    3    3    0    0 -0.13328219688E+02 -0.36520306037E+02  0.23797533771E+02  0.45581882045E+02  0.10566000000E+00 0.  1.
         22    1    1    0    0    0 -0.21413873332E+02  0.18498889949E+02  0.76359598667E+01  0.29309909306E+02  0.00000000000E+00 0. -1.
</event>
<event>
 5    1  0.1254496E-009  0.9118800E+02  0.7815553E-02  0.1125453E+00
         25   -1    0    0    0    0  0.00000000000E+00  0.00000000000E+00  0.99999998245E-14  0.12509000000E+03  0.12509000000E+03 0.  0.
        -13    1    3    3    0    0 -0.72250971894E+01 -0.28713440764E+02  0.18730544615E+02  0.35035812757E+02  0.10566000000E+00 0.  1.
         23    2    1    0    0    0  0.10566897030E+02  0.40574652040E+01 -0.28039706189E+02  0.94851821154E+02  0.89902839312E+02 0.  0.
         13    1    3    3    0    0  0.17791994220E+02  0.32770905968E+02 -0.46770250805E+02  0.59816008398E+02  0.10566000000E+00 0. -1.
         22    1    1    0    0    0 -0.10566897030E+02 -0.40574652040E+01  0.28039706189E+02  0.30238178846E+02  0.00000000000E+00 0. -1.
</event>
<event>
 5    1  0.1254496E-009  0.9118800E+02  0.7815553E-02  0.1125453E+00
         25   -1    0    0    0    0  0.00000000000E+00  0.00000000000E+00  0.99999998245E-14  0.12509000000E+03  0.12509000000E+03 0.  0.
        -13    1    3    3    0    0 -0.84530269559E+01  0.28272912549E+02  0.22405980761E+02  0.37051995716E+02  0.10566000000E+00 0. -1.
         23    2    1    0    0    0  0.43654188348E+01 -0.27451639779E+02  0.98955572861E+01  0.95584551992E+02  0.90916638287E+02 0.  0.
         13    1    3    3    0    0  0.12818445791E+02 -0.55724552327E+02 -0.12510423475E+02  0.58532556275E+02  0.10566000000E+00 0.  1.
         22    1    1    0    0    0 -0.43654188348E+01  0.27451639779E+02 -0.98955572861E+01  0.29505448008E+02  0.00000000000E+00 0.  1.
</event>
<event>
 5    1  0.1254496E-009  0.9118800E+02  0.7815553E-02  0.1125453E+00
         25   -1    0    0    0    0  0.00000000000E+00  0.00000000000E+00  0.99999998245E-14  0.12509000000E+03  0.12509000000E+03 0.  0.
        -13    1    3    3    0    0  0.35450569565E+02 -0.76912835428E+00 -0.94035100680E+01  0.36684759867E+02  0.10566000000E+00 0.  1.
         23    2    1    0    0    0 -0.11511198326E+02  0.13698573844E+02  0.23299993744E+02  0.95712315940E+02  0.91092255993E+02 0.  0.
         13    1    3    3    0    0 -0.46961767890E+02  0.14467702198E+02  0.32703503812E+02  0.59027556073E+02  0.10566000000E+00 0. -1.
         22    1    1    0    0    0  0.11511198326E+02 -0.13698573844E+02 -0.23299993744E+02  0.29377684060E+02  0.00000000000E+00 0. -1.
</event>
<event>
 5    1  0.1254496E-009  0.9118800E+02  0.7815553E-02  0.1125453E+00
         25   -1    0    0    0    0  0.00000000000E+00  0.00000000000E+00  0.99999998245E-14  0.12509000000E+03  0.12509000000E+03 0.  0.
        -13    1    3    3    0    0 -0.33587821082E+02  0.49202230939E+01 -0.50908420575E+01  0.34326056535E+02  0.10566000000E+00 0. -1.
         23    2    1    0    0    0  0.22994548394E+02  0.78411728114E+01  0.17318287347E+02  0.95254512346E+02  0.90461405023E+02 0.  0.
         13    1    3    3    0    0  0.56582369476E+02  0.29209497174E+01  0.22409129405E+02  0.60928455811E+02  0.10566000000E+00 0.  1.
         22    1    1    0    0    0 -0.22994548394E+02 -0.78411728114E+01 -0.17318287347E+02  0.29835487654E+02  0.00000000000E+00 0.  1.
</event>
<event>
 5    1  0.1254496E-009  0.9118800E+02  0.7815553E-02  0.1125453E+00
         25   -1    0    0    0    0  0.00000000000E+00  0.00000000000E+00  0.99999998245E-14  0.12509000000E+03  0.12509000000E+03 0.  0.
        -13    1    3    3    0    0 -0.44179228101E+02 -0.10845735022E+02 -0.13508640868E+02  0.47454490893E+02  0.10566000000E+00 0.  1.
         23    2    1    0    0    0 -0.10405791155E+02  0.84510541923E+01  0.21478162715E+02  0.99771779681E+02  0.96505936297E+02 0.  0.
         13    1    3    3    0    0  0.33773436946E+02  0.19296789215E+02  0.34986803583E+02  0.52317288788E+02  0.10566000000E+00 0. -1.
         22    1    1    0    0    0  0.10405791155E+02 -0.84510541923E+01 -0.21478162715E+02  0.25318220319E+02  0.00000000000E+00 0. -1.
</event>
<event>
 5    1  0.1254496E-009  0.9118800E+02  0.7815553E-02  0.1125453E+00
         25   -1    0    0    0    0  0.00000000000E+00  0.00000000000E+00  0.99999998245E-14  0.12509000000E+03  0.12509000000E+03 0.  0.
        -13    1    3    3    0    0  0.54337751760E+02  0.20367185094E+02  0.11155157827E+02  0.59091980887E+02  0.10566000000E+00 0. -1.
         23    2    1    0    0    0  0.19266229853E+02 -0.51873252280E+01 -0.33750385695E+01  0.10485421879E+03  0.10288304213E+03 0.  0.
         13    1    3    3    0    0 -0.35071521908E+02 -0.25554510322E+02 -0.14530196396E+02  0.45762237905E+02  0.10566000000E+00 0.  1.
         22    1    1    0    0    0 -0.19266229853E+02  0.51873252280E+01  0.33750385695E+01  0.20235781208E+02  0.00000000000E+00 0. -1.
</event>
<event>
 5    1  0.1254496E-009  0.9118800E+02  0.7815553E-02  0.1125453E+00
         25   -1    0    0    0    0  0.00000000000E+00  0.00000000000E+00  0.99999998245E-14  0.12509000000E+03  0.12509000000E+03 0.  0.
        -13    1    3    3    0    0  0.16344127692E+02  0.29172566797E+02 -0.28607707662E+02  0.44006604791E+02  0.10566000000E+00 0.  1.
         23    2    1    0    0    0 -0.98449873405E+01 -0.15126500756E+02 -0.23119644023E+02  0.95759934527E+02  0.91157623489E+02 0.  0.
         13    1    3    3    0    0 -0.26189115032E+02 -0.44299067553E+02  0.54880636384E+01  0.51753329736E+02  0.10566000000E+00 0. -1.
         22    1    1    0    0    0  0.98449873405E+01  0.15126500756E+02  0.23119644023E+02  0.29330065473E+02  0.00000000000E+00 0. -1.
</event>
<event>
 5    1  0.1254496E-009  0.9118800E+02  0.7815553E-02  0.1125453E+00
         25   -1    0    0    0    0  0.00000000000E+00  0.00000000000E+00  0.99999998245E-14  0.12509000000E+03  0.12509000000E+03 0.  0.
        -13    1    3    3    0    0  0.14715008976E+02  0.50198187546E+02 -0.18831159076E+02  0.55596881551E+02  0.10566000000E+00 0.  1.
         23    2    1    0    0    0  0.81661492456E+01  0.33607364999E+02  0.96332341530E+01  0.89188187011E+02  0.81643080089E+02 0.  0.
         13    1    3    3    0    0 -0.65488597308E+01 -0.16590822547E+02  0.28464393229E+02  0.33591305460E+02  0.10566000000E+00 0. -1.
         22    1    1    0    0    0 -0.81661492456E+01 -0.33607364999E+02 -0.96332341530E+01  0.35901812989E+02  0.00000000000E+00 0.  1.
</event>
<event>
 5    1  0.1254496E-009  0.9118800E+02  0.7815553E-02  0.1125453E+00
         25   -1    0    0    0    0  0.00000000000E+00  0.00000000000E+00  0.99999998245E-14  0.12509000000E+03  0.12509000000E+03 0.  0.
        -13    1    3    3    0    0  0.71600536667E+01  0.26180378017E+01  0.35655586943E+02  0.36461658420E+02  0.10566000000E+00 0. -1.
         23    2    1    0    0    0 -0.21281811109E+02  0.95422554045E+01 -0.16672120868E+02  0.96420683012E+02  0.92059863002E+02 0.  0.
         13    1    3    3    0    0 -0.28441864776E+02  0.69242176028E+01 -0.52327707811E+02  0.59959024593E+02  0.10566000000E+00 0.  1.
         22    1    1    0    0    0  0.21281811109E+02 -0.95422554045E+01  0.16672120868E+02  0.28669316988E+02  0.00000000000E+00 0.  1.
</event>
<event>
 5    1  0.1254496E-009  0.9118800E+02  0.7815553E-02  0.1125453E+00
         25   -1    0    0    0    0  0.00000000000E+00  0.00000000000E+00  0.99999998245E-14  0.12509000000E+03  0.12509000000E+03 0.  0.
        -13    1    3    3    0    0  0.30959254663E+02 -0.34863919766E+02 -0.26842199824E+02  0.53800401543E+02  0.10566000000E+00 0. -1.
         23    2    1    0    0    0  0.11711173450E+02  0.29439005321E+01 -0.26211485754E+02  0.96230684010E+02  0.91801331285E+02 0.  0.
         13    1    3    3    0    0 -0.19248081213E+02  0.37807820298E+02  0.63071406948E+00  0.42430282468E+02  0.10566000000E+00 0.  1.
         22    1    1    0    0    0 -0.11711173450E+02 -0.29439005321E+01  0.26211485754E+02  0.28859315990E+02  0.00000000000E+00 0. -1.
</event>
<event>
 5    1  0.1254496E-009  0.9118800E+02  0.7815553E-02  0.1125453E+00
         25   -1    0    0    0    0  0.00000000000E+00  0.00000000000E+00  0.99999998245E-14  0.12509000000E+03  0.12509000000E+03 0.  0.
        -13    1    3    3    0    0 -0.30534264218E+02 -0.17108621008E+02 -0.83435831254E+00  0.35010762944E+02  0.10566000000E+00 0.  1.
         23    2    1    0    0    0  0.14668863909E+02  0.23737436072E+02 -0.72155402158E+01  0.96268038577E+02  0.91852217128E+02 0.  0.
         13    1    3    3    0    0  0.45203128127E+02  0.40846057080E+02 -0.63811819032E+01  0.61257275633E+02  0.10566000000E+00 0. -1.
         22    1    1    0    0    0 -0.14668863909E+02 -0.23737436072E+02  0.72155402158E+01  0.28821961423E+02  0.00000000000E+00 0. -1.
</event>
<event>
 5    1  0.1254496E-009  0.9118800E+02  0.7815553E-02  0.1125453E+00
         25   -1    0    0    0    0  0.00000000000E+00  0.00000000000E+00  0.99999998245E-14  0.12509000000E+03  0.12509000000E+03 0.  0.
        -13    1    3    3    0    0  0.32666041442E+02 -0.95561698646E+01  0.10443158913E+02  0.35601423821E+02  0.10566000000E+00 0.  1.
         23    2    1    0    0    0 -0.11381005387E+02  0.17678627145E+02 -0.20331427908E+02  0.95842297490E+02  0.91270575138E+02 0.  0.
         13    1    3    3    0    0 -0.44047046828E+02  0.27234797010E+02 -0.30774586820E+02  0.60240873669E+02  0.10566000000E+00 0. -1.
         22    1    1    0    0    0  0.11381005387E+02 -0.17678627145E+02  0.20331427908E+02  0.29247702510E+02  0.00000000000E+00 0. -1.
</event>
<event>
 5    1  0.1254496E-009  0.9118800E+02  0.7815553E-02  0.1125453E+00
         25   -1    0    0    0    0  0.00000000000E+00  0.00000000000E+00  0.99999998245E-14  0.12509000000E+03  0.12509000000E+03 0.  0.
        -13    1    3    3    0    0  0.20633807163E+02 -0.17391059657E+02 -0.44473946572E+02  0.52020630925E+02  0.10566000000E+00 0. -1.
         23    2    1    0    0    0  0.25670107638E+02 -0.13652272905E+02 -0.94433736311E+00  0.95999954371E+02  0.91486395079E+02 0.  0.
         13    1    3    3    0    0  0.50363004751E+01  0.37387867520E+01  0.43529609209E+02  0.43979323446E+02  0.10566000000E+00 0.  1.
         22    1    1    0    0    0 -0.25670107638E+02  0.13652272905E+02  0.94433736311E+00  0.29090045629E+02  0.00000000000E+00 0. -1.
</event>
<event>
 5    1  0.1254496E-009  0.9118800E+02  0.7815553E-02  0.1125453E+00
         25   -1    0    0    0    0  0.00000000000E+00  0.00000000000E+00  0.99999998245E-14  0.12509000000E+03  0.12509000000E+03 0.  0.
        -13    1    3    3    0    0 -0.45123650890E+01  0.22456168463E+02 -0.32487047203E+02  0.39749972840E+02  0.10566000000E+00 0.  1.
         23    2    1    0    0    0  0.22111474053E+02  0.12718145410E+02  0.15323219217E+02  0.95333159532E+02  0.90570093032E+02 0.  0.
         13    1    3    3    0    0  0.26623839142E+02 -0.97380230533E+01  0.47810266421E+02  0.55583186692E+02  0.10566000000E+00 0. -1.
         22    1    1    0    0    0 -0.22111474053E+02 -0.12718145410E+02 -0.15323219217E+02  0.29756840468E+02  0.00000000000E+00 0. -1.
</event>
<event>
 5    1  0.1254496E-009  0.9118800E+02  0.7815553E-02  0.1125453E+00
         25   -1    0    0    0    0  0.00000000000E+00  0.00000000000E+00  0.99999998245E-14  0.12509000000E+03  0.12509000000E+03 0.  0.
        -13    1    3    3    0    0  0.64186384931E+01 -0.97542180077E+01  0.54559185590E+01  0.12888828512E+02  0.10566000000E+00 0. -1.
         23    2    1    0    0    0 -0.26292217444E+01  0.48160235755E+02 -0.14361643554E+02  0.74765275256E+02  0.55292571504E+02 0.  0.
         13    1    3    3    0    0 -0.90478602374E+01  0.57914453763E+02 -0.19817562113E+02  0.61876446744E+02  0.10566000000E+00 0.  1.
         22    1    1    0    0    0  0.26292217444E+01 -0.48160235755E+02  0.14361643554E+02  0.50324724744E+02  0.00000000000E+00 0.  1.
</event>
<event>
 5    1  0.1254496E-009  0.9118800E+02  0.7815553E-02  0.1125453E+00
         25   -1    0    0    0    0  0.00000000000E+00  0.00000000000E+00  0.99999998245E-14  0.12509000000E+03  0.12509000000E+03 0.  0.
        -13    1    3    3    0    0 -0.75109181457E+01  0.45100680650E+02  0.25596700305E+02  0.52399308363E+02  0.10566000000E+00 0. -1.
         23    2    1    0    0    0  0.21709603252E+02  0.18684113721E+02  0.10605202819E+02  0.94547025264E+02  0.89477744052E+02 0.  0.
         13    1    3    3    0    0  0.29220521397E+02 -0.26416566928E+02 -0.14991497486E+02  0.42147716901E+02  0.10566000000E+00 0.  1.
         22    1    1    0    0    0 -0.21709603252E+02 -0.18684113721E+02 -0.10605202819E+02  0.30542974736E+02  0.00000000000E+00 0. -1.
</event>
<event>
 4    1  0.1254496E-009  0.9118800E+02  0.7815553E-02  0.1125453E+00
         25   -1    0    0    0    0  0.00000000000E+00  0.00000000000E+00  0.99999998245E-14  0.12509000000E+03  0.12509000000E+03 0.  0.
        -13    1    1    0    0    0  0.92182858469E+01 -0.13165396160E+02 -0.34426826701E+02  0.37993710147E+02  0.10566000000E+00 0. -1.
         13    1    1    0    0    0  0.25578934847E+01 -0.32465639389E+02  0.10321186347E+02  0.34162824995E+02  0.10566000000E+00 0.  1.
         22    1    1    0    0    0 -0.11776179332E+02  0.45631035549E+02  0.24105640355E+02  0.52933464858E+02  0.00000000000E+00 0. -1.
</event>
<event>
 5    1  0.1254496E-009  0.9118800E+02  0.7815553E-02  0.1125453E+00
         25   -1    0    0    0    0  0.00000000000E+00  0.00000000000E+00  0.99999998245E-14  0.12509000000E+03  0.12509000000E+03 0.  0.
        -13    1    3    3    0    0 -0.23188028905E+02  0.22488053577E+02  0.43767859451E+02  0.54397002888E+02  0.10566000000E+00 0. -1.
         23    2    1    0    0    0  0.89126018886E+01  0.92530922146E+01  0.31242355248E+02  0.91309251793E+02  0.84830657864E+02 0.  0.
         13    1    3    3    0    0  0.32100630794E+02 -0.13234961363E+02 -0.12525504203E+02  0.36912248905E+02  0.10566000000E+00 0.  1.
         22    1    1    0    0    0 -0.89126018886E+01 -0.92530922146E+01 -0.31242355248E+02  0.33780748207E+02  0.00000000000E+00 0. -1.
</event>
<event>
 5    1  0.1254496E-009  0.9118800E+02  0.7815553E-02  0.1125453E+00
         25   -1    0    0    0    0  0.00000000000E+00  0.00000000000E+00  0.99999998245E-14  0.12509000000E+03  0.12509000000E+03 0.  0.
        -13    1    3    3    0    0 -0.59851279062E+02  0.87961352059E+01  0.15382665898E+02  0.62419429460E+02  0.10566000000E+00 0. -1.
         23    2    1    0    0    0 -0.26558280905E+02  0.15832570958E+01  0.83675203024E+01  0.97199779785E+02  0.93112473958E+02 0.  0.
         13    1    3    3    0    0  0.33292998158E+02 -0.72128781101E+01 -0.70151455952E+01  0.34780350325E+02  0.10566000000E+00 0.  1.
         22    1    1    0    0    0  0.26558280905E+02 -0.15832570958E+01 -0.83675203024E+01  0.27890220215E+02  0.00000000000E+00 0. -1.
</event>
<event>
 5    1  0.1254496E-009  0.9118800E+02  0.7815553E-02  0.1125453E+00
         25   -1    0    0    0    0  0.00000000000E+00  0.00000000000E+00  0.99999998245E-14  0.12509000000E+03  0.12509000000E+03 0.  0.
        -13    1    3    3    0    0 -0.21560234969E+02 -0.67040760323E+01 -0.30916494053E+02  0.38283536095E+02  0.10566000000E+00 0.  1.
         23    2    1    0    0    0  0.23721777625E+02 -0.19361147890E+02 -0.15588909154E+00  0.94469727586E+02  0.89369616467E+02 0.  0.
         13    1    3    3    0    0  0.45282012594E+02 -0.12657071858E+02  0.30760604961E+02  0.56186191491E+02  0.10566000000E+00 0. -1.
         22    1    1    0    0    0 -0.23721777625E+02  0.19361147890E+02  0.15588909154E+00  0.30620272414E+02  0.00000000000E+00 0. -1.
</event>
<event>
 5    1  0.1254496E-009  0.9118800E+02  0.7815553E-02  0.1125453E+00
         25   -1    0    0    0    0  0.00000000000E+00  0.00000000000E+00  0.99999998245E-14  0.12509000000E+03  0.12509000000E+03 0.  0.
        -13    1    3    3    0    0 -0.30508407924E+02  0.49974279810E+02 -0.15067392398E+02  0.60458490506E+02  0.10566000000E+00 0. -1.
         23    2    1    0    0    0 -0.88981132092E+01  0.25394322490E+02  0.32854203649E+01  0.97982030316E+02  0.94157507638E+02 0.  0.
         13    1    3    3    0    0  0.21610294714E+02 -0.24579957321E+02  0.18352812763E+02  0.37523539810E+02  0.10566000000E+00 0.  1.
         22    1    1    0    0    0  0.88981132092E+01 -0.25394322490E+02 -0.32854203649E+01  0.27107969684E+02  0.00000000000E+00 0. -1.
</event>
<event>
 5    1  0.1254496E-009  0.9118800E+02  0.7815553E-02  0.1125453E+00
         25   -1    0    0    0    0  0.00000000000E+00  0.00000000000E+00  0.99999998245E-14  0.12509000000E+03  0.12509000000E+03 0.  0.
        -13    1    3    3    0    0 -0.42810438818E+02  0.17492679054E+02 -0.40149295705E+02  0.61242996350E+02  0.10566000000E+00 0. -1.
         23    2    1    0    0    0 -0.24393902128E+02  0.14172561199E+02 -0.13480289520E+02  0.93822730252E+02  0.88459383643E+02 0.  0.
         13    1    3    3    0    0  0.18416536690E+02 -0.33201178554E+01  0.26669006185E+02  0.32579733903E+02  0.10566000000E+00 0.  1.
         22    1    1    0    0    0  0.24393902128E+02 -0.14172561199E+02  0.13480289520E+02  0.31267269748E+02  0.00000000000E+00 0. -1.
</event>
<event>
 5    1  0.1254496E-009  0.9118800E+02  0.7815553E-02  0.1125453E+00
         25   -1    0    0    0    0  0.00000000000E+00  0.00000000000E+00  0.99999998245E-14  0.12509000000E+03  0.12509000000E+03 0.  0.
        -13    1    3    3    0    0 -0.29710986060E+02  0.28435149057E+02 -0.57420347159E+01  0.41524480987E+02  0.10566000000E+00 0.  1.
         23    2    1    0    0    0  0.22564606018E+02  0.17868846027E+02 -0.89329765873E+01  0.94952727831E+02  0.90043130492E+02 0.  0.
         13    1    3    3    0    0  0.52275592078E+02 -0.10566303029E+02 -0.31909418714E+01  0.53428246844E+02  0.10566000000E+00 0. -1.
         22    1    1    0    0    0 -0.22564606018E+02 -0.17868846027E+02  0.89329765873E+01  0.30137272169E+02  0.00000000000E+00 0. -1.
</event>
<event>
 5    1  0.1254496E-009  0.9118800E+02  0.7815553E-02  0.1125453E+00
         25   -1    0    0    0    0  0.00000000000E+00  0.00000000000E+00  0.99999998245E-14  0.12509000000E+03  0.12509000000E+03 0.  0.
        -13    1    3    3    0    0 -0.17807075883E+02  0.40044825444E+02  0.33306252648E+02  0.55045414212E+02  0.10566000000E+00 0.  1.
         23    2    1    0    0    0 -0.19634769658E+02  0.12278894376E+01  0.22127851123E+02  0.95481324121E+02  0.90774498449E+02 0.  0.
         13    1    3    3    0    0 -0.18276937747E+01 -0.38816936006E+02 -0.11178401525E+02  0.40435909909E+02  0.10566000000E+00 0. -1.
         22    1    1    0    0    0  0.19634769658E+02 -0.12278894376E+01 -0.22127851123E+02  0.29608675879E+02  0.00000000000E+00 0.  1.
</event>
<event>
 5    1  0.1254496E-009  0.9118800E+02  0.7815553E-02  0.1125453E+00
         25   -1    0    0    0    0  0.00000000000E+00  0.00000000000E+00  0.99999998245E-14  0.12509000000E+03  0.12509000000E+03 0.  0.
        -13    1    3    3    0    0  0.10067363960E+02 -0.34915006983E+02 -0.33804209258E+02  0.49630084196E+02  0.10566000000E+00 0. -1.
         23    2    1    0    0    0 -0.89010577662E+01  0.75162142054E+01 -0.25785453003E+02  0.96794913998E+02  0.92566967564E+02 0.  0.
         13    1    3    3    0    0 -0.18968421726E+02  0.42431221188E+02  0.80187562555E+01  0.47164829802E+02  0.10566000000E+00 0.  1.
         22    1    1    0    0    0  0.89010577662E+01 -0.75162142054E+01  0.25785453003E+02  0.28295086002E+02  0.00000000000E+00 0.  1.
</event>
<event>
 5    1  0.1254496E-009  0.9118800E+02  0.7815553E-02  0.1125453E+00
         25   -1    0    0    0    0  0.00000000000E+00  0.00000000000E+00  0.99999998245E-14  0.12509000000E+03  0.12509000000E+03 0.  0.
        -13    1    3    3    0    0 -0.25150738484E+02  0.19927984800E+02 -0.24907074642E+02  0.40620902941E+02  0.10566000000E+00 0. -1.
         23    2    1    0    0    0 -0.54873998689E+01 -0.27510161032E+02 -0.16170649877E+02  0.92710833322E+02  0.86872827631E+02 0.  0.
         13    1    3    3    0    0  0.19663338616E+02 -0.47438145831E+02  0.87364247650E+01  0.52089930381E+02  0.10566000000E+00 0.  1.
         22    1    1    0    0    0  0.54873998689E+01  0.27510161032E+02  0.16170649877E+02  0.32379166678E+02  0.00000000000E+00 0.  1.
</event>
<event>
 5    1  0.1254496E-009  0.9118800E+02  0.7815553E-02  0.1125453E+00
         25   -1    0    0    0    0  0.00000000000E+00  0.00000000000E+00  0.99999998245E-14  0.12509000000E+03  0.12509000000E+03 0.  0.
        -13    1    3    3    0    0 -0.35474773161E+02  0.96246250894E+00 -0.22537435809E+02  0.42039660344E+02  0.10566000000E+00 0.  1.
         23    2    1    0    0    0 -0.13248216815E+02 -0.15266740778E+01  0.26215170486E+02  0.95677738167E+02  0.91044760611E+02 0.  0.
         13    1    3    3    0    0  0.22226556347E+02 -0.24891365867E+01  0.48752606295E+02  0.53638077823E+02  0.10566000000E+00 0. -1.
         22    1    1    0    0    0  0.13248216815E+02  0.15266740778E+01 -0.26215170486E+02  0.29412261833E+02  0.00000000000E+00 0. -1.
</event>
<event>
 5    1  0.1254496E-009  0.9118800E+02  0.7815553E-02  0.1125453E+00
         25   -1    0    0    0    0  0.00000000000E+00  0.00000000000E+00  0.99999998245E-14  0.12509000000E+03  0.12509000000E+03 0.  0.
        -13    1    3    3    0    0  0.42917525702E+02 -0.88684495449E+01 -0.11156418790E+02  0.45222121290E+02  0.10566000000E+00 0.  1.
         23    2    1    0    0    0  0.10016250630E+02 -0.43510331674E+00  0.26989871183E+02  0.96298200160E+02  0.91893283846E+02 0.  0.
         13    1    3    3    0    0 -0.32901275072E+02  0.84333462282E+01  0.38146289973E+02  0.51076078870E+02  0.10566000000E+00 0. -1.
         22    1    1    0    0    0 -0.10016250630E+02  0.43510331674E+00 -0.26989871183E+02  0.28791799840E+02  0.00000000000E+00 0. -1.
</event>
<event>
 5    1  0.1254496E-009  0.9118800E+02  0.7815553E-02  0.1125453E+00
         25   -1    0    0    0    0  0.00000000000E+00  0.00000000000E+00  0.99999998245E-14  0.12509000000E+03  0.12509000000E+03 0.  0.
        -13    1    3    3    0    0  0.16003407534E+02 -0.16001577669E+02  0.47370997620E+02  0.52499353521E+02  0.10566000000E+00 0.  1.
         23    2    1    0    0    0 -0.17810610120E+02 -0.51841204957E+01  0.22906187207E+02  0.95614818058E+02  0.90958271101E+02 0.  0.
         13    1    3    3    0    0 -0.33814017654E+02  0.10817457173E+02 -0.24464810414E+02  0.43115464537E+02  0.10566000000E+00 0. -1.
         22    1    1    0    0    0  0.17810610120E+02  0.51841204957E+01 -0.22906187207E+02  0.29475181942E+02  0.00000000000E+00 0. -1.
</event>
<event>
 5    1  0.1254496E-009  0.9118800E+02  0.7815553E-02  0.1125453E+00
         25   -1    0    0    0    0  0.00000000000E+00  0.00000000000E+00  0.99999998245E-14  0.12509000000E+03  0.12509000000E+03 0.  0.
        -13    1    3    3    0    0  0.26102536979E+02 -0.31083573519E+02 -0.86636132394E+01  0.41504220723E+02  0.10566000000E+00 0. -1.
         23    2    1    0    0    0  0.45018751576E+01  0.17920982024E+02 -0.21666492277E+02  0.96614302217E+02  0.92322575943E+02 0.  0.
         13    1    3    3    0    0 -0.21600661821E+02  0.49004555542E+02 -0.13002879038E+02  0.55110081494E+02  0.10566000000E+00 0.  1.
         22    1    1    0    0    0 -0.45018751576E+01 -0.17920982024E+02  0.21666492277E+02  0.28475697783E+02  0.00000000000E+00 0. -1.
</event>
<event>
 5    1  0.1254496E-009  0.9118800E+02  0.7815553E-02  0.1125453E+00
         25   -1    0    0    0    0  0.00000000000E+00  0.00000000000E+00  0.99999998245E-14  0.12509000000E+03  0.12509000000E+03 0.  0.
        -13    1    3    3    0    0  0.34434089313E+02  0.45022623286E+02 -0.12848637712E+02  0.58119203104E+02  0.10566000000E+00 0. -1.
         23    2    1    0    0    0  0.20576039763E+02  0.11213542110E+02 -0.18682046773E+02  0.95121085929E+02  0.90276714482E+02 0.  0.
         13    1    3    3    0    0 -0.13858049550E+02 -0.33809081176E+02 -0.58334090614E+01  0.37001882825E+02  0.10566000000E+00 0.  1.
         22    1    1    0    0    0 -0.20576039763E+02 -0.11213542110E+02  0.18682046773E+02  0.29968914071E+02  0.00000000000E+00 0. -1.
</event>
<event>
 5    1  0.1254496E-009  0.9118800E+02  0.7815553E-02  0.1125453E+00
         25   -1    0    0    0    0  0.00000000000E+00  0.00000000000E+00  0.99999998245E-14  0.12509000000E+03  0.12509000000E+03 0.  0.
        -13    1    3    3    0    0  0.34955892435E+02  0.36068476401E+02  0.47328983666E+01  0.50450578756E+02  0.10566000000E+00 0.  1.
         23    2    1    0    0    0 -0.95893471695E+01  0.27431862200E+02  0.32435307096E+01  0.95849905363E+02  0.91281001439E+02 0.  0.
         13    1    3    3    0    0 -0.44545239605E+02 -0.86366142011E+01 -0.14893676569E+01  0.45399326607E+02  0.10566000000E+00 0. -1.
         22    1    1    0    0    0  0.95893471695E+01 -0.27431862200E+02 -0.32435307096E+01  0.29240094637E+02  0.00000000000E+00 0.  1.
</event>
<event>
 5    1  0.1254496E-009  0.9118800E+02  0.7815553E-02  0.1125453E+00
         25   -1    0    0    0    0  0.00000000000E+00  0.00000000000E+00  0.99999998245E-14  0.12509000000E+03  0.12509000000E+03 0.  0.
        -13    1    3    3    0    0  0.11743145623E+01 -0.24008801935E+02  0.10571282504E+02  0.26259565169E+02  0.10566000000E+00 0. -1.
         23    2    1    0    0    0  0.86332389586E+01  0.12863729175E+02 -0.35864966245E+02  0.86022057298E+02  0.76638699068E+02 0.  0.
         13    1    3    3    0    0  0.74589243963E+01  0.36872531111E+02 -0.46436248748E+02  0.59762492129E+02  0.10566000000E+00 0.  1.
         22    1    1    0    0    0 -0.86332389586E+01 -0.12863729175E+02  0.35864966245E+02  0.39067942702E+02  0.00000000000E+00 0.  1.
</event>
<event>
 5    1  0.1254496E-009  0.9118800E+02  0.7815553E-02  0.1125453E+00
         25   -1    0    0    0    0  0.00000000000E+00  0.00000000000E+00  0.99999998245E-14  0.12509000000E+03  0.12509000000E+03 0.  0.
        -13    1    3    3    0    0 -0.45517501572E+02 -0.23827666710E+02 -0.89830746900E+01  0.52156566654E+02  0.10566000000E+00 0. -1.
         23    2    1    0    0    0 -0.23865213905E+02  0.69310546574E+01  0.14322586441E+02  0.96406826610E+02  0.92041033138E+02 0.  0.
         13    1    3    3    0    0  0.21652287667E+02  0.30758721368E+02  0.23305661131E+02  0.44250259956E+02  0.10566000000E+00 0.  1.
         22    1    1    0    0    0  0.23865213905E+02 -0.69310546574E+01 -0.14322586441E+02  0.28683173390E+02  0.00000000000E+00 0.  1.
</event>
<event>
 5    1  0.1254496E-009  0.9118800E+02  0.7815553E-02  0.1125453E+00
         25   -1    0    0    0    0  0.00000000000E+00  0.00000000000E+00  0.99999998245E-14  0.12509000000E+03  0.12509000000E+03 0.  0.
        -13    1    3    3    0    0 -0.26770433645E+02  0.60565664431E+00 -0.33535784528E+02  0.42914833630E+02  0.10566000000E+00 0. -1.
         23    2    1    0    0    0  0.23800204163E+02  0.91506621670E+00 -0.15807563678E+02  0.96503882148E+02  0.92172843809E+02 0.  0.
         13    1    3    3    0    0  0.50570637808E+02  0.30940957238E+00  0.17728220851E+02  0.53589048519E+02  0.10566000000E+00 0.  1.
         22    1    1    0    0    0 -0.23800204163E+02 -0.91506621670E+00  0.15807563678E+02  0.28586117852E+02  0.00000000000E+00 0.  1.
</event>
<event>
 5    1  0.1254496E-009  0.9118800E+02  0.7815553E-02  0.1125453E+00
         25   -1    0    0    0    0  0.00000000000E+00  0.00000000000E+00  0.99999998245E-14  0.12509000000E+03  0.12509000000E+03 0.  0.
        -13    1    3    3    0    0 -0.24193710340E+02  0.43958960220E+02 -0.35711611931E+02  0.61587792576E+02  0.10566000000E+00 0.  1.
         23    2    1    0    0    0 -0.17712717540E+02  0.16302719819E+02 -0.17457876480E+02  0.95352876949E+02  0.90597321457E+02 0.  0.
         13    1    3    3    0    0  0.64809927999E+01 -0.27656240402E+02  0.18253735450E+02  0.33765084374E+02  0.10566000000E+00 0. -1.
         22    1    1    0    0    0  0.17712717540E+02 -0.16302719819E+02  0.17457876480E+02  0.29737123051E+02  0.00000000000E+00 0.  1.
</event>
<event>
 5    1  0.1254496E-009  0.9118800E+02  0.7815553E-02  0.1125453E+00
         25   -1    0    0    0    0  0.00000000000E+00  0.00000000000E+00  0.99999998245E-14  0.12509000000E+03  0.12509000000E+03 0.  0.
        -13    1    3    3    0    0  0.48648884513E+02  0.21336347918E+02  0.19463021061E+02  0.56575383867E+02  0.10566000000E+00 0.  1.
         23    2    1    0    0    0  0.36033211996E+02  0.91812445100E+01 -0.59405016352E+01  0.87433962274E+02  0.78909572181E+02 0.  0.
         13    1    3    3    0    0 -0.12615672517E+02 -0.12155103408E+02 -0.25403522696E+02  0.30858578407E+02  0.10566000000E+00 0. -1.
         22    1    1    0    0    0 -0.36033211996E+02 -0.91812445100E+01  0.59405016352E+01  0.37656037726E+02  0.00000000000E+00 0.  1.
</event>
<event>
 5    1  0.1254496E-009  0.9118800E+02  0.7815553E-02  0.1125453E+00
         25   -1    0    0    0    0  0.00000000000E+00  0.00000000000E+00  0.99999998245E-14  0.12509000000E+03  0.12509000000E+03 0.  0.
        -13    1    3    3    0    0 -0.16930266528E+02 -0.22776593540E+02  0.37825425505E+02  0.47288276735E+02  0.10566000000E+00 0.  1.
         23    2    1    0    0    0 -0.91473325851E+01 -0.24120715939E+02 -0.11214942246E+02  0.96960699255E+02  0.92790730354E+02 0.  0.
         13    1    3    3    0    0  0.77829339429E+01 -0.13441223995E+01 -0.49040367751E+02  0.49672422519E+02  0.10566000000E+00 0. -1.
         22    1    1    0    0    0  0.91473325851E+01  0.24120715939E+02  0.11214942246E+02  0.28129300745E+02  0.00000000000E+00 0.  1.
</event>
<event>
 5    1  0.1254496E-009  0.9118800E+02  0.7815553E-02  0.1125453E+00
         25   -1    0    0    0    0  0.00000000000E+00  0.00000000000E+00  0.99999998245E-14  0.12509000000E+03  0.12509000000E+03 0.  0.
        -13    1    3    3    0    0  0.22449072444E+02 -0.18456323732E+02 -0.55064798175E+02  0.62263471646E+02  0.10566000000E+00 0.  1.
         23    2    1    0    0    0  0.89074911483E+01 -0.12729129386E+02 -0.27477177584E+02  0.93524680083E+02  0.88036903417E+02 0.  0.
         13    1    3    3    0    0 -0.13541581296E+02  0.57271943460E+01  0.27587620591E+02  0.31261208438E+02  0.10566000000E+00 0. -1.
         22    1    1    0    0    0 -0.89074911483E+01  0.12729129386E+02  0.27477177584E+02  0.31565319917E+02  0.00000000000E+00 0.  1.
</event>
<event>
 5    1  0.1254496E-009  0.9118800E+02  0.7815553E-02  0.1125453E+00
         25   -1    0    0    0    0  0.00000000000E+00  0.00000000000E+00  0.99999998245E-14  0.12509000000E+03  0.12509000000E+03 0.  0.
        -13    1    3    3    0    0  0.65982748187E+00  0.37084969450E+02  0.55810651863E+01  0.37508529484E+02  0.10566000000E+00 0.  1.
         23    2    1    0    0    0  0.24277249471E+02 -0.16117014555E+02  0.33248794179E+01  0.95760870739E+02  0.91158908185E+02 0.  0.
         13    1    3    3    0    0  0.23617421989E+02 -0.53201984005E+02 -0.22561857684E+01  0.58252341255E+02  0.10566000000E+00 0. -1.
         22    1    1    0    0    0 -0.24277249471E+02  0.16117014555E+02 -0.33248794179E+01  0.29329129261E+02  0.00000000000E+00 0. -1.
</event>
<event>
 5    1  0.1254496E-009  0.9118800E+02  0.7815553E-02  0.1125453E+00
         25   -1    0    0    0    0  0.00000000000E+00  0.00000000000E+00  0.99999998245E-14  0.12509000000E+03  0.12509000000E+03 0.  0.
        -13    1    3    3    0    0  0.42754095865E+02  0.15869532055E+02 -0.41667809658E+02  0.61773556532E+02  0.10566000000E+00 0.  1.
         23    2    1    0    0    0  0.18442212590E+02  0.13944038437E+02 -0.17651644639E+02  0.96001652305E+02  0.91488716647E+02 0.  0.
         13    1    3    3    0    0 -0.24311883275E+02 -0.19254936177E+01  0.24016165019E+02  0.34228095773E+02  0.10566000000E+00 0. -1.
         22    1    1    0    0    0 -0.18442212590E+02 -0.13944038437E+02  0.17651644639E+02  0.29088347695E+02  0.00000000000E+00 0.  1.
</event>
<event>
 5    1  0.1254496E-009  0.9118800E+02  0.7815553E-02  0.1125453E+00
         25   -1    0    0    0    0  0.00000000000E+00  0.00000000000E+00  0.99999998245E-14  0.12509000000E+03  0.12509000000E+03 0.  0.
        -13    1    3    3    0    0 -0.54006898326E+02 -0.24659673626E+02 -0.13393764410E+02  0.60862539047E+02  0.10566000000E+00 0.  1.
         23    2    1    0    0    0 -0.33872984061E+02 -0.20561664270E+02  0.13684553769E+00  0.85464505512E+02  0.75723192543E+02 0.  0.
         13    1    3    3    0    0  0.20133914266E+02  0.40980093553E+01  0.13530609947E+02  0.24601966464E+02  0.10566000000E+00 0. -1.
         22    1    1    0    0    0  0.33872984061E+02  0.20561664270E+02 -0.13684553769E+00  0.39625494488E+02  0.00000000000E+00 0.  1.
</event>
<event>
 5    1  0.1254496E-009  0.9118800E+02  0.7815553E-02  0.1125453E+00
         25   -1    0    0    0    0  0.00000000000E+00  0.00000000000E+00  0.99999998245E-14  0.12509000000E+03  0.12509000000E+03 0.  0.
        -13    1    3    3    0    0 -0.29013500324E+02  0.44751352416E+02  0.26696181214E+02  0.59641965088E+02  0.10566000000E+00 0.  1.
         23    2    1    0    0    0 -0.19360345831E+02  0.98111978153E+01  0.17933216322E+02  0.96935376207E+02  0.92756586394E+02 0.  0.
         13    1    3    3    0    0  0.96531544934E+01 -0.34940154600E+02 -0.87629648918E+01  0.37293411119E+02  0.10566000000E+00 0. -1.
         22    1    1    0    0    0  0.19360345831E+02 -0.98111978153E+01 -0.17933216322E+02  0.28154623793E+02  0.00000000000E+00 0.  1.
</event>
<event>
 5    1  0.1254496E-009  0.9118800E+02  0.7815553E-02  0.1125453E+00
         25   -1    0    0    0    0  0.00000000000E+00  0.00000000000E+00  0.99999998245E-14  0.12509000000E+03  0.12509000000E+03 0.  0.
        -13    1    3    3    0    0  0.41407639111E+01  0.25379731232E+02  0.24540042733E+02  0.35545766901E+02  0.10566000000E+00 0. -1.
         23    2    1    0    0    0  0.14112644145E+02 -0.26184527690E+02 -0.35970107694E+01  0.95127778761E+02  0.90285987786E+02 0.  0.
         13    1    3    3    0    0  0.99718802340E+01 -0.51564258921E+02 -0.28137053502E+02  0.59582011861E+02  0.10566000000E+00 0.  1.
         22    1    1    0    0    0 -0.14112644145E+02  0.26184527690E+02  0.35970107694E+01  0.29962221239E+02  0.00000000000E+00 0.  1.
</event>
<event>
 5    1  0.1254496E-009  0.9118800E+02  0.7815553E-02  0.1125453E+00
         25   -1    0    0    0    0  0.00000000000E+00  0.00000000000E+00  0.99999998245E-14  0.12509000000E+03  0.12509000000E+03 0.  0.
        -13    1    3    3    0    0 -0.55251855201E+02 -0.25655131604E+02  0.29422804365E+01  0.60988699437E+02  0.10566000000E+00 0. -1.
         23    2    1    0    0    0 -0.20629813524E+02 -0.19369339223E+02  0.54734531692E+01  0.96267800264E+02  0.91851892578E+02 0.  0.
         13    1    3    3    0    0  0.34622041677E+02  0.62857923808E+01  0.25311727327E+01  0.35279100827E+02  0.10566000000E+00 0.  1.
         22    1    1    0    0    0  0.20629813524E+02  0.19369339223E+02 -0.54734531692E+01  0.28822199736E+02  0.00000000000E+00 0. -1.
</event>
<event>
 5    1  0.1254496E-009  0.9118800E+02  0.7815553E-02  0.1125453E+00
         25   -1    0    0    0    0  0.00000000000E+00  0.00000000000E+00  0.99999998245E-14  0.12509000000E+03  0.12509000000E+03 0.  0.
        -13    1    3    3    0    0 -0.48162687328E+01  0.28095762734E+02 -0.15369559887E+02  0.32385226003E+02  0.10566000000E+00 0.  1.
         23    2    1    0    0    0 -0.60763579149E+01 -0.23201478162E+02  0.19293638567E+02  0.94308914841E+02  0.89144243869E+02 0.  0.
         13    1    3    3    0    0 -0.12600891821E+01 -0.51297240896E+02  0.34663198454E+02  0.61923688838E+02  0.10566000000E+00 0. -1.
         22    1    1    0    0    0  0.60763579149E+01  0.23201478162E+02 -0.19293638567E+02  0.30781085159E+02  0.00000000000E+00 0. -1.
</event>
<event>
 5    1  0.1254496E-009  0.9118800E+02  0.7815553E-02  0.1125453E+00
         25   -1    0    0    0    0  0.00000000000E+00  0.00000000000E+00  0.99999998245E-14  0.12509000000E+03  0.12509000000E+03 0.  0.
        -13    1    3    3    0    0  0.16191422410E+02 -0.37671609316E+02  0.12369402726E+02  0.42829027492E+02  0.10566000000E+00 0.  1.
         23    2    1    0    0    0  0.10375436286E+02 -0.13100893159E+01 -0.26638397134E+02  0.96472344366E+02  0.92130033179E+02 0.  0.
         13    1    3    3    0    0 -0.58159861244E+01  0.36361520000E+02 -0.39007799860E+02  0.53643316874E+02  0.10566000000E+00 0. -1.
         22    1    1    0    0    0 -0.10375436286E+02  0.13100893159E+01  0.26638397134E+02  0.28617655634E+02  0.00000000000E+00 0. -1.
</event>
<event>
 5    1  0.1254496E-009  0.9118800E+02  0.7815553E-02  0.1125453E+00
         25   -1    0    0    0    0  0.00000000000E+00  0.00000000000E+00  0.99999998245E-14  0.12509000000E+03  0.12509000000E+03 0.  0.
        -13    1    3    3    0    0  0.35459849815E+02 -0.31908732976E+02  0.39207909542E+02  0.61748194498E+02  0.10566000000E+00 0. -1.
         23    2    1    0    0    0  0.17037090833E+02 -0.76979714177E+01  0.19923513313E+02  0.97768440551E+02  0.93873320795E+02 0.  0.
         13    1    3    3    0    0 -0.18422758983E+02  0.24210761559E+02 -0.19284396228E+02  0.36020246053E+02  0.10566000000E+00 0.  1.
         22    1    1    0    0    0 -0.17037090833E+02  0.76979714177E+01 -0.19923513313E+02  0.27321559449E+02  0.00000000000E+00 0. -1.
</event>
<event>
 5    1  0.1254496E-009  0.9118800E+02  0.7815553E-02  0.1125453E+00
         25   -1    0    0    0    0  0.00000000000E+00  0.00000000000E+00  0.99999998245E-14  0.12509000000E+03  0.12509000000E+03 0.  0.
        -13    1    3    3    0    0 -0.54944695713E+02  0.23646230473E+01 -0.26732270113E+02  0.61148478792E+02  0.10566000000E+00 0.  1.
         23    2    1    0    0    0 -0.23718999622E+02 -0.77162308665E+01 -0.14936962391E+02  0.96016919542E+02  0.91509588738E+02 0.  0.
         13    1    3    3    0    0  0.31225696091E+02 -0.10080853914E+02  0.11795307723E+02  0.34868440749E+02  0.10566000000E+00 0. -1.
         22    1    1    0    0    0  0.23718999622E+02  0.77162308665E+01  0.14936962391E+02  0.29073080458E+02  0.00000000000E+00 0.  1.
</event>
<event>
 5    1  0.1254496E-009  0.9118800E+02  0.7815553E-02  0.1125453E+00
         25   -1    0    0    0    0  0.00000000000E+00  0.00000000000E+00  0.99999998245E-14  0.12509000000E+03  0.12509000000E+03 0.  0.
        -13    1    3    3    0    0  0.41326832516E+02  0.61441795975E+00  0.18161700306E+02  0.45145798445E+02  0.10566000000E+00 0.  1.
         23    2    1    0    0    0  0.11275610540E+02 -0.23102529234E+02 -0.14593593889E+02  0.95529228145E+02  0.90840487654E+02 0.  0.
         13    1    3    3    0    0 -0.30051221976E+02 -0.23716947194E+02 -0.32755294195E+02  0.50383429700E+02  0.10566000000E+00 0. -1.
         22    1    1    0    0    0 -0.11275610540E+02  0.23102529234E+02  0.14593593889E+02  0.29560771855E+02  0.00000000000E+00 0. -1.
</event>
<event>
 5    1  0.1254496E-009  0.9118800E+02  0.7815553E-02  0.1125453E+00
         25   -1    0    0    0    0  0.00000000000E+00  0.00000000000E+00  0.99999998245E-14  0.12509000000E+03  0.12509000000E+03 0.  0.
        -13    1    3    3    0    0  0.20059288171E+02  0.20582172284E+02 -0.16434707116E+02  0.33107576473E+02  0.10566000000E+00 0.  1.
         23    2    1    0    0    0 -0.15116622987E+02 -0.19706069945E+02  0.15894620207E+02  0.95603046364E+02  0.90942080685E+02 0.  0.
         13    1    3    3    0    0 -0.35175911158E+02 -0.40288242229E+02  0.32329327323E+02  0.62495469891E+02  0.10566000000E+00 0. -1.
         22    1    1    0    0    0  0.15116622987E+02  0.19706069945E+02 -0.15894620207E+02  0.29486953636E+02  0.00000000000E+00 0. -1.
</event>
<event>
 5    1  0.1254496E-009  0.9118800E+02  0.7815553E-02  0.1125453E+00
         25   -1    0    0    0    0  0.00000000000E+00  0.00000000000E+00  0.99999998245E-14  0.12509000000E+03  0.12509000000E+03 0.  0.
        -13    1    3    3    0    0 -0.36628183169E+02 -0.32367058081E+02 -0.91072698971E+01  0.49721260846E+02  0.10566000000E+00 0.  1.
         23    2    1    0    0    0 -0.75370382073E+01 -0.16528862552E+02 -0.30811327211E+02  0.89322023726E+02  0.81847882049E+02 0.  0.
         13    1    3    3    0    0  0.29091144962E+02  0.15838195529E+02 -0.21704057314E+02  0.39600762881E+02  0.10566000000E+00 0. -1.
         22    1    1    0    0    0  0.75370382073E+01  0.16528862552E+02  0.30811327211E+02  0.35767976274E+02  0.00000000000E+00 0.  1.
</event>
<event>
 5    1  0.1254496E-009  0.9118800E+02  0.7815553E-02  0.1125453E+00
         25   -1    0    0    0    0  0.00000000000E+00  0.00000000000E+00  0.99999998245E-14  0.12509000000E+03  0.12509000000E+03 0.  0.
        -13    1    3    3    0    0 -0.16656438234E+02  0.35448994844E+02  0.23928347911E+02  0.45898204408E+02  0.10566000000E+00 0. -1.
         23    2    1    0    0    0  0.24561520819E+02  0.13160290112E+02  0.14432356890E+02  0.93709202270E+02  0.88298698314E+02 0.  0.
         13    1    3    3    0    0  0.41217959053E+02 -0.22288704732E+02 -0.94959910210E+01  0.47810997863E+02  0.10566000000E+00 0.  1.
         22    1    1    0    0    0 -0.24561520819E+02 -0.13160290112E+02 -0.14432356890E+02  0.31380797730E+02  0.00000000000E+00 0. -1.
</event>
<event>
 5    1  0.1254496E-009  0.9118800E+02  0.7815553E-02  0.1125453E+00
         25   -1    0    0    0    0  0.00000000000E+00  0.00000000000E+00  0.99999998245E-14  0.12509000000E+03  0.12509000000E+03 0.  0.
        -13    1    3    3    0    0  0.13854481663E+02 -0.33373339253E+02  0.75724879404E+01  0.36919915665E+02  0.10566000000E+00 0. -1.
         23    2    1    0    0    0  0.52771440680E+01  0.21757543824E+02 -0.16085019050E+02  0.97522504637E+02  0.93545027180E+02 0.  0.
         13    1    3    3    0    0 -0.85773375952E+01  0.55130883077E+02 -0.23657506990E+02  0.60602588972E+02  0.10566000000E+00 0.  1.
         22    1    1    0    0    0 -0.52771440680E+01 -0.21757543824E+02  0.16085019050E+02  0.27567495363E+02  0.00000000000E+00 0.  1.
</event>
<event>
 5    1  0.1254496E-009  0.9118800E+02  0.7815553E-02  0.1125453E+00
         25   -1    0    0    0    0  0.00000000000E+00  0.00000000000E+00  0.99999998245E-14  0.12509000000E+03  0.12509000000E+03 0.  0.
        -13    1    3    3    0    0 -0.30856718196E+02 -0.22020429020E+02  0.86153863017E+01  0.38875087102E+02  0.10566000000E+00 0.  1.
         23    2    1    0    0    0  0.21775094758E+02 -0.17781077989E+02 -0.10571477792E+02  0.95055392813E+02  0.90185642283E+02 0.  0.
         13    1    3    3    0    0  0.52631812954E+02  0.42393510309E+01 -0.19186864094E+02  0.56180305711E+02  0.10566000000E+00 0. -1.
         22    1    1    0    0    0 -0.21775094758E+02  0.17781077989E+02  0.10571477792E+02  0.30034607187E+02  0.00000000000E+00 0. -1.
</event>
<event>
 5    1  0.1254496E-009  0.9118800E+02  0.7815553E-02  0.1125453E+00
         25   -1    0    0    0    0  0.00000000000E+00  0.00000000000E+00  0.99999998245E-14  0.12509000000E+03  0.12509000000E+03 0.  0.
        -13    1    3    3    0    0  0.41414173209E+02 -0.14615210038E+02 -0.33963045564E+02  0.55517904635E+02  0.10566000000E+00 0.  1.
         23    2    1    0    0    0  0.32013075919E+01 -0.56672091408E+01 -0.29340900275E+02  0.95035814623E+02  0.90158482698E+02 0.  0.
         13    1    3    3    0    0 -0.38212865617E+02  0.89480008968E+01  0.46221452898E+01  0.39517909988E+02  0.10566000000E+00 0. -1.
         22    1    1    0    0    0 -0.32013075919E+01  0.56672091408E+01  0.29340900275E+02  0.30054185377E+02  0.00000000000E+00 0. -1.
</event>
<event>
 5    1  0.1254496E-009  0.9118800E+02  0.7815553E-02  0.1125453E+00
         25   -1    0    0    0    0  0.00000000000E+00  0.00000000000E+00  0.99999998245E-14  0.12509000000E+03  0.12509000000E+03 0.  0.
        -13    1    3    3    0    0 -0.24659356119E+02  0.26023967565E+02 -0.74440584915E+01  0.36616333826E+02  0.10566000000E+00 0.  1.
         23    2    1    0    0    0  0.28856086167E+02  0.82144108919E+01  0.57529884924E+01  0.94540906204E+02  0.89469189188E+02 0.  0.
         13    1    3    3    0    0  0.53515442286E+02 -0.17809556673E+02  0.13197046984E+02  0.57924572377E+02  0.10566000000E+00 0. -1.
         22    1    1    0    0    0 -0.28856086167E+02 -0.82144108919E+01 -0.57529884924E+01  0.30549093796E+02  0.00000000000E+00 0. -1.
</event>
<event>
 5    1  0.1254496E-009  0.9118800E+02  0.7815553E-02  0.1125453E+00
         25   -1    0    0    0    0  0.00000000000E+00  0.00000000000E+00  0.99999998245E-14  0.12509000000E+03  0.12509000000E+03 0.  0.
        -13    1    3    3    0    0  0.33467414778E+02  0.25366872796E+02 -0.34074482759E+01  0.42132742080E+02  0.10566000000E+00 0.  1.
         23    2    1    0    0    0 -0.12404128358E+02  0.14701919465E+02  0.22180650540E+02  0.95730332177E+02  0.91116992949E+02 0.  0.
         13    1    3    3    0    0 -0.45871543136E+02 -0.10664953331E+02  0.25588098816E+02  0.53597590097E+02  0.10566000000E+00 0. -1.
         22    1    1    0    0    0  0.12404128358E+02 -0.14701919465E+02 -0.22180650540E+02  0.29359667823E+02  0.00000000000E+00 0.  1.
</event>
<event>
 5    1  0.1254496E-009  0.9118800E+02  0.7815553E-02  0.1125453E+00
         25   -1    0    0    0    0  0.00000000000E+00  0.00000000000E+00  0.99999998245E-14  0.12509000000E+03  0.12509000000E+03 0.  0.
        -13    1    3    3    0    0  0.17311210110E+02 -0.48056449862E+02 -0.13296574585E+02  0.52781724380E+02  0.10566000000E+00 0.  1.
         23    2    1    0    0    0  0.34434596234E+01 -0.33568689659E+02  0.15565898907E+02  0.87928036269E+02  0.79688945367E+02 0.  0.
         13    1    3    3    0    0 -0.13867750487E+02  0.14487760203E+02  0.28862473492E+02  0.35146311889E+02  0.10566000000E+00 0. -1.
         22    1    1    0    0    0 -0.34434596234E+01  0.33568689659E+02 -0.15565898907E+02  0.37161963731E+02  0.00000000000E+00 0.  1.
</event>
<event>
 5    1  0.1254496E-009  0.9118800E+02  0.7815553E-02  0.1125453E+00
         25   -1    0    0    0    0  0.00000000000E+00  0.00000000000E+00  0.99999998245E-14  0.12509000000E+03  0.12509000000E+03 0.  0.
        -13    1    3    3    0    0 -0.11039757294E+02 -0.50424432956E+02  0.27816564946E+02  0.58636781370E+02  0.10566000000E+00 0.  1.
         23    2    1    0    0    0  0.32504342669E+01 -0.14097028887E+02  0.22928746991E+02  0.97978766444E+02  0.94153171423E+02 0.  0.
         13    1    3    3    0    0  0.14290191561E+02  0.36327404068E+02 -0.48878179554E+01  0.39341985074E+02  0.10566000000E+00 0. -1.
         22    1    1    0    0    0 -0.32504342669E+01  0.14097028887E+02 -0.22928746991E+02  0.27111233556E+02  0.00000000000E+00 0.  1.
</event>
<event>
 5    1  0.1254496E-009  0.9118800E+02  0.7815553E-02  0.1125453E+00
         25   -1    0    0    0    0  0.00000000000E+00  0.00000000000E+00  0.99999998245E-14  0.12509000000E+03  0.12509000000E+03 0.  0.
        -13    1    3    3    0    0 -0.49235196205E+01 -0.33417736784E+02 -0.51775486106E+01  0.34173152487E+02  0.10566000000E+00 0.  1.
         23    2    1    0    0    0 -0.14856957984E+02  0.24467263088E+02  0.98873934288E+01  0.94805734904E+02  0.89838692435E+02 0.  0.
         13    1    3    3    0    0 -0.99334383638E+01  0.57884999872E+02  0.15064942039E+02  0.60632582418E+02  0.10566000000E+00 0. -1.
         22    1    1    0    0    0  0.14856957984E+02 -0.24467263088E+02 -0.98873934288E+01  0.30284265096E+02  0.00000000000E+00 0. -1.
</event>
<event>
 5    1  0.1254496E-009  0.9118800E+02  0.7815553E-02  0.1125453E+00
         25   -1    0    0    0    0  0.00000000000E+00  0.00000000000E+00  0.99999998245E-14  0.12509000000E+03  0.12509000000E+03 0.  0.
        -13    1    3    3    0    0 -0.13087663954E+02  0.37578985304E+01  0.43075645942E+02  0.45176666394E+02  0.10566000000E+00 0. -1.
         23    2    1    0    0    0  0.22281028229E+02 -0.11726633416E+02  0.49666439381E+01  0.99426296015E+02  0.96057080098E+02 0.  0.
         13    1    3    3    0    0  0.35368692183E+02 -0.15484531946E+02 -0.38109002004E+02  0.54249629621E+02  0.10566000000E+00 0.  1.
         22    1    1    0    0    0 -0.22281028229E+02  0.11726633416E+02 -0.49666439381E+01  0.25663703985E+02  0.00000000000E+00 0.  1.
</event>
<event>
 5    1  0.1254496E-009  0.9118800E+02  0.7815553E-02  0.1125453E+00
         25   -1    0    0    0    0  0.00000000000E+00  0.00000000000E+00  0.99999998245E-14  0.12509000000E+03  0.12509000000E+03 0.  0.
        -13    1    3    3    0    0 -0.17186474215E+02 -0.42684634677E+02 -0.11895266981E+01  0.46030197385E+02  0.10566000000E+00 0.  1.
         23    2    1    0    0    0 -0.14173512900E+02  0.40933366332E+01 -0.23027135386E+02  0.97742370545E+02  0.93838575027E+02 0.  0.
         13    1    3    3    0    0  0.30129613159E+01  0.46777971310E+02 -0.21837608688E+02  0.51712173161E+02  0.10566000000E+00 0. -1.
         22    1    1    0    0    0  0.14173512900E+02 -0.40933366332E+01  0.23027135386E+02  0.27347629455E+02  0.00000000000E+00 0.  1.
</event>
<event>
 5    1  0.1254496E-009  0.9118800E+02  0.7815553E-02  0.1125453E+00
         25   -1    0    0    0    0  0.00000000000E+00  0.00000000000E+00  0.99999998245E-14  0.12509000000E+03  0.12509000000E+03 0.  0.
        -13    1    3    3    0    0  0.22552168409E+02  0.21523651163E+02  0.11683953969E+02  0.33292548772E+02  0.10566000000E+00 0.  1.
         23    2    1    0    0    0 -0.10177849047E+02 -0.29001111994E+02  0.17639577504E+01  0.94304213425E+02  0.89137646450E+02 0.  0.
         13    1    3    3    0    0 -0.32730017456E+02 -0.50524763157E+02 -0.99199962187E+01  0.61011664653E+02  0.10566000000E+00 0. -1.
         22    1    1    0    0    0  0.10177849047E+02  0.29001111994E+02 -0.17639577504E+01  0.30785786575E+02  0.00000000000E+00 0. -1.
</event>
<event>
 5    1  0.1254496E-009  0.9118800E+02  0.7815553E-02  0.1125453E+00
         25   -1    0    0    0    0  0.00000000000E+00  0.00000000000E+00  0.99999998245E-14  0.12509000000E+03  0.12509000000E+03 0.  0.
        -13    1    3    3    0    0 -0.32327486604E+02 -0.12563790181E+02  0.41829214815E+02  0.54337920368E+02  0.10566000000E+00 0.  1.
         23    2    1    0    0    0 -0.29675361970E+02 -0.42254354602E+00  0.28212414464E+01  0.95277837140E+02  0.90493652792E+02 0.  0.
         13    1    3    3    0    0  0.26521246340E+01  0.12141246635E+02 -0.39007973369E+02  0.40939916772E+02  0.10566000000E+00 0. -1.
         22    1    1    0    0    0  0.29675361970E+02  0.42254354602E+00 -0.28212414464E+01  0.29812162860E+02  0.00000000000E+00 0. -1.
</event>
<event>
 5    1  0.1254496E-009  0.9118800E+02  0.7815553E-02  0.1125453E+00
         25   -1    0    0    0    0  0.00000000000E+00  0.00000000000E+00  0.99999998245E-14  0.12509000000E+03  0.12509000000E+03 0.  0.
        -13    1    3    3    0    0 -0.70907535868E+01 -0.19358597595E+02 -0.26161021850E+02  0.33308322016E+02  0.10566000000E+00 0.  1.
         23    2    1    0    0    0  0.11581592386E+02  0.23516840591E+02  0.14372185149E+02  0.95194602704E+02  0.90378524022E+02 0.  0.
         13    1    3    3    0    0  0.18672345972E+02  0.42875438186E+02  0.40533206998E+02  0.61886280688E+02  0.10566000000E+00 0. -1.
         22    1    1    0    0    0 -0.11581592386E+02 -0.23516840591E+02 -0.14372185149E+02  0.29895397296E+02  0.00000000000E+00 0. -1.
</event>
<event>
 5    1  0.1254496E-009  0.9118800E+02  0.7815553E-02  0.1125453E+00
         25   -1    0    0    0    0  0.00000000000E+00  0.00000000000E+00  0.99999998245E-14  0.12509000000E+03  0.12509000000E+03 0.  0.
        -13    1    3    3    0    0  0.46753852176E+01 -0.46489925633E+01 -0.38526835225E+02  0.39087089368E+02  0.10566000000E+00 0.  1.
         23    2    1    0    0    0 -0.29578024910E+02  0.93832279623E+01  0.20253335721E+01  0.93993271866E+02  0.88700217899E+02 0.  0.
         13    1    3    3    0    0 -0.34253410128E+02  0.14032220526E+02  0.40552168797E+02  0.54906182497E+02  0.10566000000E+00 0. -1.
         22    1    1    0    0    0  0.29578024910E+02 -0.93832279623E+01 -0.20253335721E+01  0.31096728134E+02  0.00000000000E+00 0. -1.
</event>
<event>
 5    1  0.1254496E-009  0.9118800E+02  0.7815553E-02  0.1125453E+00
         25   -1    0    0    0    0  0.00000000000E+00  0.00000000000E+00  0.99999998245E-14  0.12509000000E+03  0.12509000000E+03 0.  0.
        -13    1    3    3    0    0  0.39218419465E+02  0.55806187405E+01 -0.34438650380E+02  0.52490566151E+02  0.10566000000E+00 0.  1.
         23    2    1    0    0    0  0.14345804204E+02  0.25512442845E+02 -0.59889340237E+01  0.95214354921E+02  0.90405858295E+02 0.  0.
         13    1    3    3    0    0 -0.24872615261E+02  0.19931824104E+02  0.28449716356E+02  0.42723788769E+02  0.10566000000E+00 0. -1.
         22    1    1    0    0    0 -0.14345804204E+02 -0.25512442845E+02  0.59889340237E+01  0.29875645079E+02  0.00000000000E+00 0. -1.
</event>
<event>
 5    1  0.1254496E-009  0.9118800E+02  0.7815553E-02  0.1125453E+00
         25   -1    0    0    0    0  0.00000000000E+00  0.00000000000E+00  0.99999998245E-14  0.12509000000E+03  0.12509000000E+03 0.  0.
        -13    1    3    3    0    0 -0.25170063076E+02 -0.43089285920E+02 -0.22295829822E+02  0.54656507644E+02  0.10566000000E+00 0.  1.
         23    2    1    0    0    0  0.11463019083E+01 -0.23636869210E+02 -0.28584585688E+02  0.87980781023E+02  0.79771697340E+02 0.  0.
         13    1    3    3    0    0  0.26316364985E+02  0.19452416710E+02 -0.62887558661E+01  0.33324273379E+02  0.10566000000E+00 0. -1.
         22    1    1    0    0    0 -0.11463019083E+01  0.23636869210E+02  0.28584585688E+02  0.37109218977E+02  0.00000000000E+00 0.  1.
</event>
<event>
 5    1  0.1254496E-009  0.9118800E+02  0.7815553E-02  0.1125453E+00
         25   -1    0    0    0    0  0.00000000000E+00  0.00000000000E+00  0.99999998245E-14  0.12509000000E+03  0.12509000000E+03 0.  0.
        -13    1    3    3    0    0  0.79864039649E+01 -0.54489406956E+02 -0.25051897829E+02  0.60501957552E+02  0.10566000000E+00 0. -1.
         23    2    1    0    0    0 -0.62708700119E+01 -0.20041659019E+02 -0.15504330092E+02  0.98986817081E+02  0.95483055027E+02 0.  0.
         13    1    3    3    0    0 -0.14257273977E+02  0.34447747937E+02  0.95475677377E+01  0.38484859529E+02  0.10566000000E+00 0.  1.
         22    1    1    0    0    0  0.62708700119E+01  0.20041659019E+02  0.15504330092E+02  0.26103182919E+02  0.00000000000E+00 0. -1.
</event>
<event>
 5    1  0.1254496E-009  0.9118800E+02  0.7815553E-02  0.1125453E+00
         25   -1    0    0    0    0  0.00000000000E+00  0.00000000000E+00  0.99999998245E-14  0.12509000000E+03  0.12509000000E+03 0.  0.
        -13    1    3    3    0    0  0.53192312824E+02 -0.46351262693E+01 -0.17783014240E+02  0.56277467059E+02  0.10566000000E+00 0. -1.
         23    2    1    0    0    0  0.14221166218E+02  0.49222602475E+00 -0.25078338033E+02  0.96255872762E+02  0.91835647478E+02 0.  0.
         13    1    3    3    0    0 -0.38971146606E+02  0.51273522940E+01 -0.72953237927E+01  0.39978405703E+02  0.10566000000E+00 0.  1.
         22    1    1    0    0    0 -0.14221166218E+02 -0.49222602475E+00  0.25078338033E+02  0.28834127238E+02  0.00000000000E+00 0. -1.
</event>
<event>
 5    1  0.1254496E-009  0.9118800E+02  0.7815553E-02  0.1125453E+00
         25   -1    0    0    0    0  0.00000000000E+00  0.00000000000E+00  0.99999998245E-14  0.12509000000E+03  0.12509000000E+03 0.  0.
        -13    1    3    3    0    0 -0.42509802352E+02 -0.37594379953E+01 -0.29512486019E+02  0.51886555726E+02  0.10566000000E+00 0.  1.
         23    2    1    0    0    0 -0.25534662654E+02  0.13991701531E+01  0.11858452907E+02  0.96901357264E+02  0.92710697658E+02 0.  0.
         13    1    3    3    0    0  0.16975139698E+02  0.51586081484E+01  0.41370938926E+02  0.45014801537E+02  0.10566000000E+00 0. -1.
         22    1    1    0    0    0  0.25534662654E+02 -0.13991701531E+01 -0.11858452907E+02  0.28188642736E+02  0.00000000000E+00 0. -1.
</event>
<event>
 5    1  0.1254496E-009  0.9118800E+02  0.7815553E-02  0.1125453E+00
         25   -1    0    0    0    0  0.00000000000E+00  0.00000000000E+00  0.99999998245E-14  0.12509000000E+03  0.12509000000E+03 0.  0.
        -13    1    3    3    0    0 -0.38147433417E+02  0.26618968798E+02 -0.11494138074E+02  0.47915786024E+02  0.10566000000E+00 0.  1.
         23    2    1    0    0    0  0.78245597690E+01  0.28361094879E+02  0.12154978744E+01  0.95644238447E+02  0.90998722380E+02 0.  0.
         13    1    3    3    0    0  0.45971993186E+02  0.17421260816E+01  0.12709635948E+02  0.47728452424E+02  0.10566000000E+00 0. -1.
         22    1    1    0    0    0 -0.78245597690E+01 -0.28361094879E+02 -0.12154978744E+01  0.29445761553E+02  0.00000000000E+00 0. -1.
</event>
<event>
 5    1  0.1254496E-009  0.9118800E+02  0.7815553E-02  0.1125453E+00
         25   -1    0    0    0    0  0.00000000000E+00  0.00000000000E+00  0.99999998245E-14  0.12509000000E+03  0.12509000000E+03 0.  0.
        -13    1    3    3    0    0 -0.17198658389E+02 -0.33060614918E+02 -0.15550814299E+00  0.37267055907E+02  0.10566000000E+00 0.  1.
         23    2    1    0    0    0 -0.44814806579E+01  0.20915513900E+02  0.19543423296E+02  0.96116084408E+02  0.91645042949E+02 0.  0.
         13    1    3    3    0    0  0.12717177731E+02  0.53976128818E+02  0.19698931439E+02  0.58849028501E+02  0.10566000000E+00 0. -1.
         22    1    1    0    0    0  0.44814806579E+01 -0.20915513900E+02 -0.19543423296E+02  0.28973915592E+02  0.00000000000E+00 0. -1.
</event>
<event>
 5    1  0.1254496E-009  0.9118800E+02  0.7815553E-02  0.1125453E+00
         25   -1    0    0    0    0  0.00000000000E+00  0.00000000000E+00  0.99999998245E-14  0.12509000000E+03  0.12509000000E+03 0.  0.
        -13    1    3    3    0    0 -0.41978053397E+02 -0.16074817506E+01  0.20702431545E+02  0.46833137846E+02  0.10566000000E+00 0. -1.
         23    2    1    0    0    0 -0.17558523272E+02  0.19078040278E+02 -0.15284514975E+02  0.94991997435E+02  0.90097668218E+02 0.  0.
         13    1    3    3    0    0  0.24419530124E+02  0.20685522029E+02 -0.35986946520E+02  0.48158859590E+02  0.10566000000E+00 0.  1.
         22    1    1    0    0    0  0.17558523272E+02 -0.19078040278E+02  0.15284514975E+02  0.30098002565E+02  0.00000000000E+00 0.  1.
</event>
<event>
 5    1  0.1254496E-009  0.9118800E+02  0.7815553E-02  0.1125453E+00
         25   -1    0    0    0    0  0.00000000000E+00  0.00000000000E+00  0.99999998245E-14  0.12509000000E+03  0.12509000000E+03 0.  0.
        -13    1    3    3    0    0  0.17911730306E+02 -0.56298895860E+02 -0.86554135960E+01  0.59710326629E+02  0.10566000000E+00 0.  1.
         23    2    1    0    0    0  0.16261982585E+02 -0.20291863935E+02 -0.13002290273E+02  0.96016448929E+02  0.91508945426E+02 0.  0.
         13    1    3    3    0    0 -0.16497477210E+01  0.36007031925E+02 -0.43468766765E+01  0.36306122300E+02  0.10566000000E+00 0. -1.
         22    1    1    0    0    0 -0.16261982585E+02  0.20291863935E+02  0.13002290273E+02  0.29073551071E+02  0.00000000000E+00 0.  1.
</event>
<event>
 5    1  0.1254496E-009  0.9118800E+02  0.7815553E-02  0.1125453E+00
         25   -1    0    0    0    0  0.00000000000E+00  0.00000000000E+00  0.99999998245E-14  0.12509000000E+03  0.12509000000E+03 0.  0.
        -13    1    3    3    0    0  0.11388676427E+02 -0.51484221554E+02 -0.11649168512E+01  0.52741778649E+02  0.10566000000E+00 0.  1.
         23    2    1    0    0    0  0.13988302673E+02 -0.14992076917E+02  0.21180054639E+02  0.95610690366E+02  0.90952594333E+02 0.  0.
         13    1    3    3    0    0  0.25996262457E+01  0.36492144637E+02  0.22344971491E+02  0.42868911717E+02  0.10566000000E+00 0. -1.
         22    1    1    0    0    0 -0.13988302673E+02  0.14992076917E+02 -0.21180054639E+02  0.29479309634E+02  0.00000000000E+00 0.  1.
</event>
<event>
 5    1  0.1254496E-009  0.9118800E+02  0.7815553E-02  0.1125453E+00
         25   -1    0    0    0    0  0.00000000000E+00  0.00000000000E+00  0.99999998245E-14  0.12509000000E+03  0.12509000000E+03 0.  0.
        -13    1    3    3    0    0  0.29087306074E+02  0.48662855984E+02 -0.67823698906E+00  0.56697584574E+02  0.10566000000E+00 0. -1.
         23    2    1    0    0    0  0.15747000135E+01  0.24814693672E+02 -0.15256791742E+02  0.95917780400E+02  0.91373968943E+02 0.  0.
         13    1    3    3    0    0 -0.27512606060E+02 -0.23848162312E+02 -0.14578554753E+02  0.39220195825E+02  0.10566000000E+00 0.  1.
         22    1    1    0    0    0 -0.15747000135E+01 -0.24814693672E+02  0.15256791742E+02  0.29172219600E+02  0.00000000000E+00 0. -1.
</event>
<event>
 5    1  0.1254496E-009  0.9118800E+02  0.7815553E-02  0.1125453E+00
         25   -1    0    0    0    0  0.00000000000E+00  0.00000000000E+00  0.99999998245E-14  0.12509000000E+03  0.12509000000E+03 0.  0.
        -13    1    3    3    0    0 -0.33453875355E+01 -0.50020131923E+02  0.33365487672E+01  0.50242899369E+02  0.10566000000E+00 0. -1.
         23    2    1    0    0    0  0.22034839741E+02 -0.14302233630E+02 -0.11374627986E+02  0.96463609885E+02  0.92118173131E+02 0.  0.
         13    1    3    3    0    0  0.25380227277E+02  0.35717898293E+02 -0.14711176753E+02  0.46220710515E+02  0.10566000000E+00 0.  1.
         22    1    1    0    0    0 -0.22034839741E+02  0.14302233630E+02  0.11374627986E+02  0.28626390115E+02  0.00000000000E+00 0. -1.
</event>
<event>
 5    1  0.1254496E-009  0.9118800E+02  0.7815553E-02  0.1125453E+00
         25   -1    0    0    0    0  0.00000000000E+00  0.00000000000E+00  0.99999998245E-14  0.12509000000E+03  0.12509000000E+03 0.  0.
        -13    1    3    3    0    0  0.44425995602E+02  0.30417426022E+01  0.38594240596E+02  0.58927479621E+02  0.10566000000E+00 0. -1.
         23    2    1    0    0    0  0.65191835184E+01  0.36525764309E+01  0.24665975754E+02  0.99316924354E+02  0.95914545482E+02 0.  0.
         13    1    3    3    0    0 -0.37906812084E+02  0.61083382872E+00 -0.13928264842E+02  0.40389444733E+02  0.10566000000E+00 0.  1.
         22    1    1    0    0    0 -0.65191835184E+01 -0.36525764309E+01 -0.24665975754E+02  0.25773075646E+02  0.00000000000E+00 0. -1.
</event>
<event>
 5    1  0.1254496E-009  0.9118800E+02  0.7815553E-02  0.1125453E+00
         25   -1    0    0    0    0  0.00000000000E+00  0.00000000000E+00  0.99999998245E-14  0.12509000000E+03  0.12509000000E+03 0.  0.
        -13    1    3    3    0    0  0.29304023587E+02 -0.93180240185E+01  0.25962673876E+01  0.30859409236E+02  0.10566000000E+00 0. -1.
         23    2    1    0    0    0 -0.24394985826E+02 -0.27395270516E+02  0.72039222292E+01  0.87706679180E+02  0.79340713995E+02 0.  0.
         13    1    3    3    0    0 -0.53699009413E+02 -0.18077246497E+02  0.46076548416E+01  0.56847269944E+02  0.10566000000E+00 0.  1.
         22    1    1    0    0    0  0.24394985826E+02  0.27395270516E+02 -0.72039222292E+01  0.37383320820E+02  0.00000000000E+00 0.  1.
</event>
<event>
 5    1  0.1254496E-009  0.9118800E+02  0.7815553E-02  0.1125453E+00
         25   -1    0    0    0    0  0.00000000000E+00  0.00000000000E+00  0.99999998245E-14  0.12509000000E+03  0.12509000000E+03 0.  0.
        -13    1    3    3    0    0  0.24571605292E+02  0.14095100126E+01 -0.40866991681E+02  0.47706107347E+02  0.10566000000E+00 0.  1.
         23    2    1    0    0    0  0.21114436507E+02  0.18899036199E+02  0.44515410527E+01  0.96405348773E+02  0.92039024636E+02 0.  0.
         13    1    3    3    0    0 -0.34571687850E+01  0.17489526187E+02  0.45318532734E+02  0.48699241426E+02  0.10566000000E+00 0. -1.
         22    1    1    0    0    0 -0.21114436507E+02 -0.18899036199E+02 -0.44515410527E+01  0.28684651227E+02  0.00000000000E+00 0. -1.
</event>
<event>
 5    1  0.1254496E-009  0.9118800E+02  0.7815553E-02  0.1125453E+00
         25   -1    0    0    0    0  0.00000000000E+00  0.00000000000E+00  0.99999998245E-14  0.12509000000E+03  0.12509000000E+03 0.  0.
        -13    1    3    3    0    0 -0.22197672298E+02  0.50972877783E+02  0.22352412975E+02  0.59921719391E+02  0.10566000000E+00 0. -1.
         23    2    1    0    0    0 -0.62505287581E+01  0.16658728555E+02 -0.49959464180E+01  0.10660914971E+03  0.10499509024E+03 0.  0.
         13    1    3    3    0    0  0.15947143540E+02 -0.34314149228E+02 -0.27348359393E+02  0.46687430320E+02  0.10566000000E+00 0.  1.
         22    1    1    0    0    0  0.62505287581E+01 -0.16658728555E+02  0.49959464180E+01  0.18480850290E+02  0.00000000000E+00 0. -1.
</event>
<event>
 5    1  0.1254496E-009  0.9118800E+02  0.7815553E-02  0.1125453E+00
         25   -1    0    0    0    0  0.00000000000E+00  0.00000000000E+00  0.99999998245E-14  0.12509000000E+03  0.12509000000E+03 0.  0.
        -13    1    3    3    0    0  0.33452055125E+02  0.66508872721E+01 -0.34197181609E+02  0.48298371480E+02  0.10566000000E+00 0. -1.
         23    2    1    0    0    0 -0.91053388119E+01 -0.10775445846E+02 -0.26699356481E+02  0.94892763958E+02  0.89959788723E+02 0.  0.
         13    1    3    3    0    0 -0.42557393937E+02 -0.17426333119E+02  0.74978251282E+01  0.46594392478E+02  0.10566000000E+00 0.  1.
         22    1    1    0    0    0  0.91053388119E+01  0.10775445846E+02  0.26699356481E+02  0.30197236042E+02  0.00000000000E+00 0.  1.
</event>
<event>
 5    1  0.1254496E-009  0.9118800E+02  0.7815553E-02  0.1125453E+00
         25   -1    0    0    0    0  0.00000000000E+00  0.00000000000E+00  0.99999998245E-14  0.12509000000E+03  0.12509000000E+03 0.  0.
        -13    1    3    3    0    0  0.69714607688E+01 -0.11195870651E+02  0.36697443747E+02  0.38995670612E+02  0.10566000000E+00 0.  1.
         23    2    1    0    0    0  0.21606773951E+02 -0.11194637955E+02 -0.17488262210E+02  0.95123153074E+02  0.90279578733E+02 0.  0.
         13    1    3    3    0    0  0.14635313182E+02  0.12326961755E-02 -0.54185705957E+02  0.56127482462E+02  0.10566000000E+00 0. -1.
         22    1    1    0    0    0 -0.21606773951E+02  0.11194637955E+02  0.17488262210E+02  0.29966846926E+02  0.00000000000E+00 0. -1.
</event>
<event>
 5    1  0.1254496E-009  0.9118800E+02  0.7815553E-02  0.1125453E+00
         25   -1    0    0    0    0  0.00000000000E+00  0.00000000000E+00  0.99999998245E-14  0.12509000000E+03  0.12509000000E+03 0.  0.
        -13    1    3    3    0    0  0.14010310573E+02  0.39152970188E+02 -0.27747914057E+01  0.41676786203E+02  0.10566000000E+00 0.  1.
         23    2    1    0    0    0  0.44898480809E+01 -0.19934899374E+02 -0.10657166141E+02  0.10204365237E+03  0.99407106639E+02 0.  0.
         13    1    3    3    0    0 -0.95204624916E+01 -0.59087869562E+02 -0.78823747356E+01  0.60366866168E+02  0.10566000000E+00 0. -1.
         22    1    1    0    0    0 -0.44898480809E+01  0.19934899374E+02  0.10657166141E+02  0.23046347629E+02  0.00000000000E+00 0. -1.
</event>
<event>
 5    1  0.1254496E-009  0.9118800E+02  0.7815553E-02  0.1125453E+00
         25   -1    0    0    0    0  0.00000000000E+00  0.00000000000E+00  0.99999998245E-14  0.12509000000E+03  0.12509000000E+03 0.  0.
        -13    1    3    3    0    0  0.36876476632E+01  0.58113950889E+01  0.36137965594E+02  0.36787698752E+02  0.10566000000E+00 0. -1.
         23    2    1    0    0    0 -0.23877842663E+02  0.62583877447E+01 -0.15935351480E+02  0.95708811899E+02  0.91087444036E+02 0.  0.
         13    1    3    3    0    0 -0.27565490327E+02  0.44699265579E+00 -0.52073317074E+02  0.58921113147E+02  0.10566000000E+00 0.  1.
         22    1    1    0    0    0  0.23877842663E+02 -0.62583877447E+01  0.15935351480E+02  0.29381188101E+02  0.00000000000E+00 0.  1.
</event>
<event>
 5    1  0.1254496E-009  0.9118800E+02  0.7815553E-02  0.1125453E+00
         25   -1    0    0    0    0  0.00000000000E+00  0.00000000000E+00  0.99999998245E-14  0.12509000000E+03  0.12509000000E+03 0.  0.
        -13    1    3    3    0    0  0.38729473553E+02  0.22408645064E+02  0.40800909787E+02  0.60554478767E+02  0.10566000000E+00 0.  1.
         23    2    1    0    0    0  0.11337742962E+02  0.68768011930E+01  0.27149476533E+02  0.94875286926E+02  0.89935483449E+02 0.  0.
         13    1    3    3    0    0 -0.27391730591E+02 -0.15531843871E+02 -0.13651433254E+02  0.34320808159E+02  0.10566000000E+00 0. -1.
         22    1    1    0    0    0 -0.11337742962E+02 -0.68768011930E+01 -0.27149476533E+02  0.30214713074E+02  0.00000000000E+00 0.  1.
</event>
<event>
 5    1  0.1254496E-009  0.9118800E+02  0.7815553E-02  0.1125453E+00
         25   -1    0    0    0    0  0.00000000000E+00  0.00000000000E+00  0.99999998245E-14  0.12509000000E+03  0.12509000000E+03 0.  0.
        -13    1    3    3    0    0 -0.46395544722E+02  0.34487676740E+02 -0.19387722200E+02  0.60974103955E+02  0.10566000000E+00 0.  1.
         23    2    1    0    0    0 -0.15185370479E+02  0.23586967828E+02 -0.86004660920E+01  0.95748756929E+02  0.91142283868E+02 0.  0.
         13    1    3    3    0    0  0.31210174243E+02 -0.10900708912E+02  0.10787256108E+02  0.34774652974E+02  0.10566000000E+00 0. -1.
         22    1    1    0    0    0  0.15185370479E+02 -0.23586967828E+02  0.86004660920E+01  0.29341243071E+02  0.00000000000E+00 0.  1.
</event>
<event>
 5    1  0.1254496E-009  0.9118800E+02  0.7815553E-02  0.1125453E+00
         25   -1    0    0    0    0  0.00000000000E+00  0.00000000000E+00  0.99999998245E-14  0.12509000000E+03  0.12509000000E+03 0.  0.
        -13    1    3    3    0    0  0.29912323033E+02 -0.37195776283E+02  0.42137468346E+01  0.47917008138E+02  0.10566000000E+00 0. -1.
         23    2    1    0    0    0 -0.12756929877E+02 -0.23163928020E+02  0.15774284020E+02  0.94298201456E+02  0.89129209243E+02 0.  0.
         13    1    3    3    0    0 -0.42669252910E+02  0.14031848263E+02  0.11560537185E+02  0.46381193318E+02  0.10566000000E+00 0.  1.
         22    1    1    0    0    0  0.12756929877E+02  0.23163928020E+02 -0.15774284020E+02  0.30791798544E+02  0.00000000000E+00 0. -1.
</event>
<event>
 5    1  0.1254496E-009  0.9118800E+02  0.7815553E-02  0.1125453E+00
         25   -1    0    0    0    0  0.00000000000E+00  0.00000000000E+00  0.99999998245E-14  0.12509000000E+03  0.12509000000E+03 0.  0.
        -13    1    3    3    0    0  0.28368052593E+02 -0.15269678744E+01 -0.19800767674E+02  0.34628883946E+02  0.10566000000E+00 0.  1.
         23    2    1    0    0    0 -0.20537707356E+02  0.18518577330E+02  0.10449342074E+02  0.95527796436E+02  0.90838516129E+02 0.  0.
         13    1    3    3    0    0 -0.48905759949E+02  0.20045545204E+02  0.30250109748E+02  0.60898912491E+02  0.10566000000E+00 0. -1.
         22    1    1    0    0    0  0.20537707356E+02 -0.18518577330E+02 -0.10449342074E+02  0.29562203564E+02  0.00000000000E+00 0. -1.
</event>
<event>
 5    1  0.1254496E-009  0.9118800E+02  0.7815553E-02  0.1125453E+00
         25   -1    0    0    0    0  0.00000000000E+00  0.00000000000E+00  0.99999998245E-14  0.12509000000E+03  0.12509000000E+03 0.  0.
        -13    1    3    3    0    0  0.27376999722E+02 -0.50947882424E+02 -0.11721505451E+02  0.59013487368E+02  0.10566000000E+00 0.  1.
         23    2    1    0    0    0  0.18999930481E+02 -0.14773511524E+02 -0.15694496461E+02  0.96357244821E+02  0.91973623443E+02 0.  0.
         13    1    3    3    0    0 -0.83770692416E+01  0.36174370900E+02 -0.39729910092E+01  0.37343757452E+02  0.10566000000E+00 0. -1.
         22    1    1    0    0    0 -0.18999930481E+02  0.14773511524E+02  0.15694496461E+02  0.28732755179E+02  0.00000000000E+00 0.  1.
</event>
<event>
 5    1  0.1254496E-009  0.9118800E+02  0.7815553E-02  0.1125453E+00
         25   -1    0    0    0    0  0.00000000000E+00  0.00000000000E+00  0.99999998245E-14  0.12509000000E+03  0.12509000000E+03 0.  0.
        -13    1    3    3    0    0 -0.94609695583E+01 -0.54670468564E+02  0.50740007169E+01  0.55714690391E+02  0.10566000000E+00 0.  1.
         23    2    1    0    0    0 -0.18994513236E+02 -0.17538039284E+02  0.14846278441E+02  0.95277480171E+02  0.90493159350E+02 0.  0.
         13    1    3    3    0    0 -0.95335436777E+01  0.37132429280E+02  0.97722777239E+01  0.39562789780E+02  0.10566000000E+00 0. -1.
         22    1    1    0    0    0  0.18994513236E+02  0.17538039284E+02 -0.14846278441E+02  0.29812519829E+02  0.00000000000E+00 0.  1.
</event>
<event>
 5    1  0.1254496E-009  0.9118800E+02  0.7815553E-02  0.1125453E+00
         25   -1    0    0    0    0  0.00000000000E+00  0.00000000000E+00  0.99999998245E-14  0.12509000000E+03  0.12509000000E+03 0.  0.
        -13    1    3    3    0    0 -0.35005529237E+01 -0.41346050553E+02 -0.38033889628E+02  0.56287988873E+02  0.10566000000E+00 0.  1.
         23    2    1    0    0    0 -0.87811495528E+01 -0.33887626714E+01 -0.27487482817E+02  0.96035671380E+02  0.91535218173E+02 0.  0.
         13    1    3    3    0    0 -0.52805966291E+01  0.37957287881E+02  0.10546406811E+02  0.39747682508E+02  0.10566000000E+00 0. -1.
         22    1    1    0    0    0  0.87811495528E+01  0.33887626714E+01  0.27487482817E+02  0.29054328620E+02  0.00000000000E+00 0.  1.
</event>
<event>
 5    1  0.1254496E-009  0.9118800E+02  0.7815553E-02  0.1125453E+00
         25   -1    0    0    0    0  0.00000000000E+00  0.00000000000E+00  0.99999998245E-14  0.12509000000E+03  0.12509000000E+03 0.  0.
        -13    1    3    3    0    0 -0.60208150743E+01 -0.12829319616E+02  0.54932380480E+02  0.56731113555E+02  0.10566000000E+00 0.  1.
         23    2    1    0    0    0 -0.54877288349E+00 -0.22624892452E+02  0.15676224466E+02  0.97559454715E+02  0.93594424410E+02 0.  0.
         13    1    3    3    0    0  0.54720421908E+01 -0.97955728365E+01 -0.39256156013E+02  0.40828341160E+02  0.10566000000E+00 0. -1.
         22    1    1    0    0    0  0.54877288349E+00  0.22624892452E+02 -0.15676224466E+02  0.27530545285E+02  0.00000000000E+00 0.  1.
</event>
<event>
 5    1  0.1254496E-009  0.9118800E+02  0.7815553E-02  0.1125453E+00
         25   -1    0    0    0    0  0.00000000000E+00  0.00000000000E+00  0.99999998245E-14  0.12509000000E+03  0.12509000000E+03 0.  0.
        -13    1    3    3    0    0 -0.31660277706E+02  0.31300899979E+02 -0.10597315628E+02  0.45764984284E+02  0.10566000000E+00 0. -1.
         23    2    1    0    0    0 -0.57735168070E+00  0.15588904107E+02  0.25035641147E+02  0.95592023902E+02  0.90926918126E+02 0.  0.
         13    1    3    3    0    0  0.31082926025E+02 -0.15711995872E+02  0.35632956775E+02  0.49827039619E+02  0.10566000000E+00 0.  1.
         22    1    1    0    0    0  0.57735168070E+00 -0.15588904107E+02 -0.25035641147E+02  0.29497976098E+02  0.00000000000E+00 0.  1.
</event>
<event>
 5    1  0.1254496E-009  0.9118800E+02  0.7815553E-02  0.1125453E+00
         25   -1    0    0    0    0  0.00000000000E+00  0.00000000000E+00  0.99999998245E-14  0.12509000000E+03  0.12509000000E+03 0.  0.
        -13    1    3    3    0    0  0.41533232374E+02  0.30712986280E+02  0.84501862320E+01  0.52342274779E+02  0.10566000000E+00 0. -1.
         23    2    1    0    0    0 -0.66165093086E+00  0.28900541086E+02 -0.27934357863E+01  0.96047232561E+02  0.91551016063E+02 0.  0.
         13    1    3    3    0    0 -0.42194883304E+02 -0.18124451937E+01 -0.11243622018E+02  0.43704957783E+02  0.10566000000E+00 0.  1.
         22    1    1    0    0    0  0.66165093086E+00 -0.28900541086E+02  0.27934357863E+01  0.29042767439E+02  0.00000000000E+00 0. -1.
</event>
<event>
 5    1  0.1254496E-009  0.9118800E+02  0.7815553E-02  0.1125453E+00
         25   -1    0    0    0    0  0.00000000000E+00  0.00000000000E+00  0.99999998245E-14  0.12509000000E+03  0.12509000000E+03 0.  0.
        -13    1    3    3    0    0  0.42560843569E+02 -0.36244847441E+01 -0.12188081640E+02  0.44419846837E+02  0.10566000000E+00 0.  1.
         23    2    1    0    0    0  0.85392317116E+01  0.30233662403E+02 -0.84131997305E+01  0.92566550764E+02  0.86664823141E+02 0.  0.
         13    1    3    3    0    0 -0.34021611857E+02  0.33858147147E+02  0.37748819094E+01  0.48146703927E+02  0.10566000000E+00 0. -1.
         22    1    1    0    0    0 -0.85392317116E+01 -0.30233662403E+02  0.84131997305E+01  0.32523449236E+02  0.00000000000E+00 0.  1.
</event>
<event>
 5    1  0.1254496E-009  0.9118800E+02  0.7815553E-02  0.1125453E+00
         25   -1    0    0    0    0  0.00000000000E+00  0.00000000000E+00  0.99999998245E-14  0.12509000000E+03  0.12509000000E+03 0.  0.
        -13    1    3    3    0    0  0.14615304271E+02  0.32698216834E+02  0.31822787271E+02  0.47911183003E+02  0.10566000000E+00 0. -1.
         23    2    1    0    0    0  0.19751499150E+02  0.18592182383E+02 -0.12876005207E+02  0.95063637009E+02  0.90197076487E+02 0.  0.
         13    1    3    3    0    0  0.51361948791E+01 -0.14106034451E+02 -0.44698792478E+02  0.47152454006E+02  0.10566000000E+00 0.  1.
         22    1    1    0    0    0 -0.19751499150E+02 -0.18592182383E+02  0.12876005207E+02  0.30026362991E+02  0.00000000000E+00 0. -1.
</event>
<event>
 5    1  0.1254496E-009  0.9118800E+02  0.7815553E-02  0.1125453E+00
         25   -1    0    0    0    0  0.00000000000E+00  0.00000000000E+00  0.99999998245E-14  0.12509000000E+03  0.12509000000E+03 0.  0.
        -13    1    3    3    0    0  0.12674322024E+01  0.28966249108E+02  0.48141543621E+02  0.56198481812E+02  0.10566000000E+00 0.  1.
         23    2    1    0    0    0  0.13977295467E+02  0.23161596903E+02  0.10990406135E+02  0.95890455711E+02  0.91336554072E+02 0.  0.
         13    1    3    3    0    0  0.12709863265E+02 -0.58046522052E+01 -0.37151137486E+02  0.39691973899E+02  0.10566000000E+00 0. -1.
         22    1    1    0    0    0 -0.13977295467E+02 -0.23161596903E+02 -0.10990406135E+02  0.29199544289E+02  0.00000000000E+00 0. -1.
</event>
<event>
 5    1  0.1254496E-009  0.9118800E+02  0.7815553E-02  0.1125453E+00
         25   -1    0    0    0    0  0.00000000000E+00  0.00000000000E+00  0.99999998245E-14  0.12509000000E+03  0.12509000000E+03 0.  0.
        -13    1    3    3    0    0 -0.35376901759E+02 -0.73357160205E+01  0.17744648310E+00  0.36130050635E+02  0.10566000000E+00 0.  1.
         23    2    1    0    0    0  0.22299123679E+02 -0.13769015633E+02  0.13406283254E+02  0.95652521523E+02  0.91010107871E+02 0.  0.
         13    1    3    3    0    0  0.57676025439E+02 -0.64332996128E+01  0.13228836770E+02  0.59522470888E+02  0.10566000000E+00 0. -1.
         22    1    1    0    0    0 -0.22299123679E+02  0.13769015633E+02 -0.13406283254E+02  0.29437478477E+02  0.00000000000E+00 0. -1.
</event>
<event>
 5    1  0.1254496E-009  0.9118800E+02  0.7815553E-02  0.1125453E+00
         25   -1    0    0    0    0  0.00000000000E+00  0.00000000000E+00  0.99999998245E-14  0.12509000000E+03  0.12509000000E+03 0.  0.
        -13    1    3    3    0    0 -0.37676257813E+02 -0.34371015371E+01  0.46982797398E+02  0.60321708241E+02  0.10566000000E+00 0. -1.
         23    2    1    0    0    0 -0.15591837348E+02 -0.13141019871E+02  0.23314732355E+02  0.94116325050E+02  0.88873584945E+02 0.  0.
         13    1    3    3    0    0  0.22084420465E+02 -0.97039183338E+01 -0.23668065044E+02  0.33794616809E+02  0.10566000000E+00 0.  1.
         22    1    1    0    0    0  0.15591837348E+02  0.13141019871E+02 -0.23314732355E+02  0.30973674950E+02  0.00000000000E+00 0. -1.
</event>
<event>
 5    1  0.1254496E-009  0.9118800E+02  0.7815553E-02  0.1125453E+00
         25   -1    0    0    0    0  0.00000000000E+00  0.00000000000E+00  0.99999998245E-14  0.12509000000E+03  0.12509000000E+03 0.  0.
        -13    1    3    3    0    0  0.15819718544E+01 -0.16678792061E+02  0.42841672931E+02  0.46001139585E+02  0.10566000000E+00 0. -1.
         23    2    1    0    0    0  0.30896272097E+01  0.24714480052E+02  0.13517651344E+02  0.96751365269E+02  0.92508099446E+02 0.  0.
         13    1    3    3    0    0  0.15076553553E+01  0.41393272113E+02 -0.29324021587E+02  0.50750225684E+02  0.10566000000E+00 0.  1.
         22    1    1    0    0    0 -0.30896272097E+01 -0.24714480052E+02 -0.13517651344E+02  0.28338634731E+02  0.00000000000E+00 0.  1.
</event>
<event>
 5    1  0.1254496E-009  0.9118800E+02  0.7815553E-02  0.1125453E+00
         25   -1    0    0    0    0  0.00000000000E+00  0.00000000000E+00  0.99999998245E-14  0.12509000000E+03  0.12509000000E+03 0.  0.
        -13    1    3    3    0    0  0.58130649252E+02  0.19394475154E+02  0.40213704527E+01  0.61412544592E+02  0.10566000000E+00 0.  1.
         23    2    1    0    0    0  0.25680403752E+02  0.17018494771E+02  0.45129480724E+01  0.93953542247E+02  0.88644171265E+02 0.  0.
         13    1    3    3    0    0 -0.32450245500E+02 -0.23759803835E+01  0.49157761962E+00  0.32540997655E+02  0.10566000000E+00 0. -1.
         22    1    1    0    0    0 -0.25680403752E+02 -0.17018494771E+02 -0.45129480724E+01  0.31136457753E+02  0.00000000000E+00 0.  1.
</event>
<event>
 5    1  0.1254496E-009  0.9118800E+02  0.7815553E-02  0.1125453E+00
         25   -1    0    0    0    0  0.00000000000E+00  0.00000000000E+00  0.99999998245E-14  0.12509000000E+03  0.12509000000E+03 0.  0.
        -13    1    3    3    0    0 -0.19620816731E+02  0.50405102509E+02 -0.26739706039E+02  0.60337996745E+02  0.10566000000E+00 0. -1.
         23    2    1    0    0    0 -0.15732551071E+02  0.15588779054E+02 -0.18267187742E+02  0.96380883964E+02  0.92005768570E+02 0.  0.
         13    1    3    3    0    0  0.38882656601E+01 -0.34816323455E+02  0.84725182969E+01  0.36042887219E+02  0.10566000000E+00 0.  1.
         22    1    1    0    0    0  0.15732551071E+02 -0.15588779054E+02  0.18267187742E+02  0.28709116036E+02  0.00000000000E+00 0. -1.
</event>
<event>
 5    1  0.1254496E-009  0.9118800E+02  0.7815553E-02  0.1125453E+00
         25   -1    0    0    0    0  0.00000000000E+00  0.00000000000E+00  0.99999998245E-14  0.12509000000E+03  0.12509000000E+03 0.  0.
        -13    1    3    3    0    0 -0.21087791524E+01  0.12407533807E+02  0.38587543828E+02  0.40588219318E+02  0.10566000000E+00 0. -1.
         23    2    1    0    0    0  0.51582121497E+01 -0.29769250272E+02  0.62308063728E+01  0.94241363686E+02  0.89049403519E+02 0.  0.
         13    1    3    3    0    0  0.72669913021E+01 -0.42176784079E+02 -0.32356737455E+02  0.53653144369E+02  0.10566000000E+00 0.  1.
         22    1    1    0    0    0 -0.51582121497E+01  0.29769250272E+02 -0.62308063728E+01  0.30848636314E+02  0.00000000000E+00 0.  1.
</event>
<event>
 5    1  0.1254496E-009  0.9118800E+02  0.7815553E-02  0.1125453E+00
         25   -1    0    0    0    0  0.00000000000E+00  0.00000000000E+00  0.99999998245E-14  0.12509000000E+03  0.12509000000E+03 0.  0.
        -13    1    3    3    0    0 -0.44694246602E+01 -0.29286317497E+02 -0.54047393136E+02  0.61634373674E+02  0.10566000000E+00 0. -1.
         23    2    1    0    0    0  0.16775985547E+01 -0.42094034423E+01 -0.21181102447E+02  0.10342960953E+03  0.10113610440E+03 0.  0.
         13    1    3    3    0    0  0.61470232148E+01  0.25076914055E+02  0.32866290690E+02  0.41795235861E+02  0.10566000000E+00 0.  1.
         22    1    1    0    0    0 -0.16775985547E+01  0.42094034423E+01  0.21181102447E+02  0.21660390465E+02  0.00000000000E+00 0. -1.
</event>
<event>
 5    1  0.1254496E-009  0.9118800E+02  0.7815553E-02  0.1125453E+00
         25   -1    0    0    0    0  0.00000000000E+00  0.00000000000E+00  0.99999998245E-14  0.12509000000E+03  0.12509000000E+03 0.  0.
        -13    1    3    3    0    0 -0.40704864658E+02  0.38547225992E+01  0.14741898897E+02  0.43463543807E+02  0.10566000000E+00 0.  1.
         23    2    1    0    0    0 -0.33582571194E+01  0.24293902613E+02 -0.15850267334E+02  0.95888928622E+02  0.91334462623E+02 0.  0.
         13    1    3    3    0    0  0.37346607538E+02  0.20439180014E+02 -0.30592166231E+02  0.52425384815E+02  0.10566000000E+00 0. -1.
         22    1    1    0    0    0  0.33582571194E+01 -0.24293902613E+02  0.15850267334E+02  0.29201071378E+02  0.00000000000E+00 0. -1.
</event>
<event>
 5    1  0.1254496E-009  0.9118800E+02  0.7815553E-02  0.1125453E+00
         25   -1    0    0    0    0  0.00000000000E+00  0.00000000000E+00  0.99999998245E-14  0.12509000000E+03  0.12509000000E+03 0.  0.
        -13    1    3    3    0    0  0.17961108068E+02 -0.53223899877E+01 -0.41741665824E+02  0.45752672796E+02  0.10566000000E+00 0.  1.
         23    2    1    0    0    0  0.17080209761E+02  0.24377028394E+02 -0.21588733528E+01  0.95246511381E+02  0.90450340614E+02 0.  0.
         13    1    3    3    0    0 -0.88089830703E+00  0.29699418382E+02  0.39582792471E+02  0.49493838585E+02  0.10566000000E+00 0. -1.
         22    1    1    0    0    0 -0.17080209761E+02 -0.24377028394E+02  0.21588733528E+01  0.29843488619E+02  0.00000000000E+00 0. -1.
</event>
<event>
 5    1  0.1254496E-009  0.9118800E+02  0.7815553E-02  0.1125453E+00
         25   -1    0    0    0    0  0.00000000000E+00  0.00000000000E+00  0.99999998245E-14  0.12509000000E+03  0.12509000000E+03 0.  0.
        -13    1    3    3    0    0  0.25352811236E+02 -0.35577942757E+02  0.15229073718E+01  0.43713675884E+02  0.10566000000E+00 0.  1.
         23    2    1    0    0    0  0.14111945751E+02  0.55022546337E+01 -0.26408486588E+02  0.94646117481E+02  0.89616168025E+02 0.  0.
         13    1    3    3    0    0 -0.11240865485E+02  0.41080197391E+02 -0.27931393960E+02  0.50932441597E+02  0.10566000000E+00 0. -1.
         22    1    1    0    0    0 -0.14111945751E+02 -0.55022546337E+01  0.26408486588E+02  0.30443882519E+02  0.00000000000E+00 0.  1.
</event>
<event>
 5    1  0.1254496E-009  0.9118800E+02  0.7815553E-02  0.1125453E+00
         25   -1    0    0    0    0  0.00000000000E+00  0.00000000000E+00  0.99999998245E-14  0.12509000000E+03  0.12509000000E+03 0.  0.
        -13    1    3    3    0    0  0.47942787119E+02  0.82429655322E+01 -0.37013628081E+02  0.61126730203E+02  0.10566000000E+00 0. -1.
         23    2    1    0    0    0  0.20642940513E+02 -0.50152011755E+01 -0.19968154172E+02  0.95935061878E+02  0.91397624043E+02 0.  0.
         13    1    3    3    0    0 -0.27299846607E+02 -0.13258166708E+02  0.17045473909E+02  0.34808331675E+02  0.10566000000E+00 0.  1.
         22    1    1    0    0    0 -0.20642940513E+02  0.50152011755E+01  0.19968154172E+02  0.29154938122E+02  0.00000000000E+00 0. -1.
</event>
<event>
 5    1  0.1254496E-009  0.9118800E+02  0.7815553E-02  0.1125453E+00
         25   -1    0    0    0    0  0.00000000000E+00  0.00000000000E+00  0.99999998245E-14  0.12509000000E+03  0.12509000000E+03 0.  0.
        -13    1    3    3    0    0 -0.69116958789E+01  0.66689068463E+01 -0.57270983933E+02  0.58070841419E+02  0.10566000000E+00 0. -1.
         23    2    1    0    0    0 -0.14762391807E+02 -0.89651755917E+01 -0.26810155454E+02  0.93198198221E+02  0.87571782732E+02 0.  0.
         13    1    3    3    0    0 -0.78506959280E+01 -0.15634082438E+02  0.30460828479E+02  0.35127356802E+02  0.10566000000E+00 0.  1.
         22    1    1    0    0    0  0.14762391807E+02  0.89651755917E+01  0.26810155454E+02  0.31891801779E+02  0.00000000000E+00 0. -1.
</event>
<event>
 5    1  0.1254496E-009  0.9118800E+02  0.7815553E-02  0.1125453E+00
         25   -1    0    0    0    0  0.00000000000E+00  0.00000000000E+00  0.99999998245E-14  0.12509000000E+03  0.12509000000E+03 0.  0.
        -13    1    3    3    0    0 -0.31602844709E+02 -0.51038393886E+02 -0.44657842798E+00  0.60032225017E+02  0.10566000000E+00 0. -1.
         23    2    1    0    0    0 -0.40509322963E+01 -0.27174701537E+02  0.57893421566E+01  0.97011699861E+02  0.92859458168E+02 0.  0.
         13    1    3    3    0    0  0.27551912413E+02  0.23863692349E+02  0.62359205846E+01  0.36979474844E+02  0.10566000000E+00 0.  1.
         22    1    1    0    0    0  0.40509322963E+01  0.27174701537E+02 -0.57893421566E+01  0.28078300139E+02  0.00000000000E+00 0. -1.
</event>
<event>
 5    1  0.1254496E-009  0.9118800E+02  0.7815553E-02  0.1125453E+00
         25   -1    0    0    0    0  0.00000000000E+00  0.00000000000E+00  0.99999998245E-14  0.12509000000E+03  0.12509000000E+03 0.  0.
        -13    1    3    3    0    0 -0.85084662202E+01 -0.11492245512E+02 -0.32058300925E+02  0.35102870631E+02  0.10566000000E+00 0. -1.
         23    2    1    0    0    0 -0.55275177158E+01  0.21133234458E+02  0.19247041951E+02  0.95976160084E+02  0.91453855194E+02 0.  0.
         13    1    3    3    0    0  0.29809485044E+01  0.32625479970E+02  0.51305342876E+02  0.60873289453E+02  0.10566000000E+00 0.  1.
         22    1    1    0    0    0  0.55275177158E+01 -0.21133234458E+02 -0.19247041951E+02  0.29113839916E+02  0.00000000000E+00 0.  1.
</event>
<event>
 5    1  0.1254496E-009  0.9118800E+02  0.7815553E-02  0.1125453E+00
         25   -1    0    0    0    0  0.00000000000E+00  0.00000000000E+00  0.99999998245E-14  0.12509000000E+03  0.12509000000E+03 0.  0.
        -13    1    3    3    0    0  0.12598330157E+02 -0.15638616103E+01  0.53116188215E+02  0.54612308141E+02  0.10566000000E+00 0. -1.
         23    2    1    0    0    0  0.88527285532E+01  0.20819797704E+02  0.19222483115E+02  0.95402651914E+02  0.90666020955E+02 0.  0.
         13    1    3    3    0    0 -0.37456016038E+01  0.22383659315E+02 -0.33893705100E+02  0.40790343773E+02  0.10566000000E+00 0.  1.
         22    1    1    0    0    0 -0.88527285532E+01 -0.20819797704E+02 -0.19222483115E+02  0.29687348086E+02  0.00000000000E+00 0. -1.
</event>
<event>
 5    1  0.1254496E-009  0.9118800E+02  0.7815553E-02  0.1125453E+00
         25   -1    0    0    0    0  0.00000000000E+00  0.00000000000E+00  0.99999998245E-14  0.12509000000E+03  0.12509000000E+03 0.  0.
        -13    1    3    3    0    0  0.25595076662E+02 -0.27294950398E+02  0.36267789034E+02  0.52110324812E+02  0.10566000000E+00 0. -1.
         23    2    1    0    0    0  0.92477829960E+01  0.11165794342E+02  0.26276867788E+02  0.95078831506E+02  0.90218146545E+02 0.  0.
         13    1    3    3    0    0 -0.16347293666E+02  0.38460744740E+02 -0.99909212452E+01  0.42968506694E+02  0.10566000000E+00 0.  1.
         22    1    1    0    0    0 -0.92477829960E+01 -0.11165794342E+02 -0.26276867788E+02  0.30011168494E+02  0.00000000000E+00 0. -1.
</event>
<event>
 5    1  0.1254496E-009  0.9118800E+02  0.7815553E-02  0.1125453E+00
         25   -1    0    0    0    0  0.00000000000E+00  0.00000000000E+00  0.99999998245E-14  0.12509000000E+03  0.12509000000E+03 0.  0.
        -13    1    3    3    0    0  0.16313453894E+02 -0.41599543005E+02 -0.25578072491E+02  0.51486888745E+02  0.10566000000E+00 0. -1.
         23    2    1    0    0    0 -0.10278065938E+02 -0.15680806754E+01 -0.23272267564E+02  0.99600865962E+02  0.96284144834E+02 0.  0.
         13    1    3    3    0    0 -0.26591519833E+02  0.40031462330E+02  0.23058049270E+01  0.48113977218E+02  0.10566000000E+00 0.  1.
         22    1    1    0    0    0  0.10278065938E+02  0.15680806754E+01  0.23272267564E+02  0.25489134038E+02  0.00000000000E+00 0. -1.
</event>
<event>
 5    1  0.1254496E-009  0.9118800E+02  0.7815553E-02  0.1125453E+00
         25   -1    0    0    0    0  0.00000000000E+00  0.00000000000E+00  0.99999998245E-14  0.12509000000E+03  0.12509000000E+03 0.  0.
        -13    1    3    3    0    0  0.16352355162E+02  0.28652104635E+02 -0.24928891334E+02  0.41349769123E+02  0.10566000000E+00 0.  1.
         23    2    1    0    0    0 -0.22119647212E+02  0.15603337742E+02  0.11275706367E+02  0.95766212804E+02  0.91166238374E+02 0.  0.
         13    1    3    3    0    0 -0.38472002373E+02 -0.13048766894E+02  0.36204597701E+02  0.54416443680E+02  0.10566000000E+00 0. -1.
         22    1    1    0    0    0  0.22119647212E+02 -0.15603337742E+02 -0.11275706367E+02  0.29323787196E+02  0.00000000000E+00 0. -1.
</event>
<event>
 5    1  0.1254496E-009  0.9118800E+02  0.7815553E-02  0.1125453E+00
         25   -1    0    0    0    0  0.00000000000E+00  0.00000000000E+00  0.99999998245E-14  0.12509000000E+03  0.12509000000E+03 0.  0.
        -13    1    3    3    0    0 -0.38947121167E+02  0.14037765583E+02 -0.47271342400E+01  0.41668862139E+02  0.10566000000E+00 0.  1.
         23    2    1    0    0    0 -0.52107306312E+01 -0.27293525574E+02 -0.10615546108E+02  0.95344780701E+02  0.90586142073E+02 0.  0.
         13    1    3    3    0    0  0.33736390536E+02 -0.41331291157E+02 -0.58884118685E+01  0.53675918562E+02  0.10566000000E+00 0. -1.
         22    1    1    0    0    0  0.52107306312E+01  0.27293525574E+02  0.10615546108E+02  0.29745219299E+02  0.00000000000E+00 0. -1.
</event>
<event>
 5    1  0.1254496E-009  0.9118800E+02  0.7815553E-02  0.1125453E+00
         25   -1    0    0    0    0  0.00000000000E+00  0.00000000000E+00  0.99999998245E-14  0.12509000000E+03  0.12509000000E+03 0.  0.
        -13    1    3    3    0    0  0.47138458122E+02  0.37504953765E+02  0.14260238353E+02  0.61903322632E+02  0.10566000000E+00 0.  1.
         23    2    1    0    0    0  0.17464876498E+02  0.19180462210E+02  0.12747135117E+01  0.99118151082E+02  0.95654957727E+02 0.  0.
         13    1    3    3    0    0 -0.29673581624E+02 -0.18324491555E+02 -0.12985524841E+02  0.37214828450E+02  0.10566000000E+00 0. -1.
         22    1    1    0    0    0 -0.17464876498E+02 -0.19180462210E+02 -0.12747135117E+01  0.25971848918E+02  0.00000000000E+00 0.  1.
</event>
<event>
 5    1  0.1254496E-009  0.9118800E+02  0.7815553E-02  0.1125453E+00
         25   -1    0    0    0    0  0.00000000000E+00  0.00000000000E+00  0.99999998245E-14  0.12509000000E+03  0.12509000000E+03 0.  0.
        -13    1    3    3    0    0  0.14061658666E+02  0.23842177587E+02  0.19194785706E+02  0.33684278809E+02  0.10566000000E+00 0. -1.
         23    2    1    0    0    0 -0.25138496250E+02 -0.11957592578E+02 -0.11458892059E+02  0.94986275626E+02  0.90089723810E+02 0.  0.
         13    1    3    3    0    0 -0.39200154916E+02 -0.35799770165E+02 -0.30653677765E+02  0.61301996817E+02  0.10566000000E+00 0.  1.
         22    1    1    0    0    0  0.25138496250E+02  0.11957592578E+02  0.11458892059E+02  0.30103724374E+02  0.00000000000E+00 0.  1.
</event>
<event>
 5    1  0.1254496E-009  0.9118800E+02  0.7815553E-02  0.1125453E+00
         25   -1    0    0    0    0  0.00000000000E+00  0.00000000000E+00  0.99999998245E-14  0.12509000000E+03  0.12509000000E+03 0.  0.
        -13    1    3    3    0    0 -0.34182309890E+02  0.26017719477E+02 -0.13024910992E+02  0.44888879543E+02  0.10566000000E+00 0. -1.
         23    2    1    0    0    0  0.12518067356E+02  0.10625741720E+02 -0.24702576806E+02  0.95428144052E+02  0.90701185102E+02 0.  0.
         13    1    3    3    0    0  0.46700377247E+02 -0.15391977756E+02 -0.11677665814E+02  0.50539264509E+02  0.10566000000E+00 0.  1.
         22    1    1    0    0    0 -0.12518067356E+02 -0.10625741720E+02  0.24702576806E+02  0.29661855948E+02  0.00000000000E+00 0. -1.
</event>
<event>
 5    1  0.1254496E-009  0.9118800E+02  0.7815553E-02  0.1125453E+00
         25   -1    0    0    0    0  0.00000000000E+00  0.00000000000E+00  0.99999998245E-14  0.12509000000E+03  0.12509000000E+03 0.  0.
        -13    1    3    3    0    0 -0.31422226623E+02  0.12215534144E+01  0.34176823474E+02  0.46442598393E+02  0.10566000000E+00 0. -1.
         23    2    1    0    0    0  0.13299656284E+02  0.13037365756E+02  0.25511396849E+02  0.93503845877E+02  0.88007295501E+02 0.  0.
         13    1    3    3    0    0  0.44721882907E+02  0.11815812342E+02 -0.86654266256E+01  0.47061247483E+02  0.10566000000E+00 0.  1.
         22    1    1    0    0    0 -0.13299656284E+02 -0.13037365756E+02 -0.25511396849E+02  0.31586154123E+02  0.00000000000E+00 0.  1.
</event>
<event>
 5    1  0.1254496E-009  0.9118800E+02  0.7815553E-02  0.1125453E+00
         25   -1    0    0    0    0  0.00000000000E+00  0.00000000000E+00  0.99999998245E-14  0.12509000000E+03  0.12509000000E+03 0.  0.
        -13    1    3    3    0    0 -0.57319321938E+01 -0.76009004033E+01  0.59578806596E+02  0.60334683998E+02  0.10566000000E+00 0.  1.
         23    2    1    0    0    0 -0.14098136660E+02 -0.70189894617E+01  0.28468322790E+02  0.92555878330E+02  0.86649417429E+02 0.  0.
         13    1    3    3    0    0 -0.83662044659E+01  0.58191094158E+00 -0.31110483807E+02  0.32221194333E+02  0.10566000000E+00 0. -1.
         22    1    1    0    0    0  0.14098136660E+02  0.70189894617E+01 -0.28468322790E+02  0.32534121670E+02  0.00000000000E+00 0.  1.
</event>
<event>
 5    1  0.1254496E-009  0.9118800E+02  0.7815553E-02  0.1125453E+00
         25   -1    0    0    0    0  0.00000000000E+00  0.00000000000E+00  0.99999998245E-14  0.12509000000E+03  0.12509000000E+03 0.  0.
        -13    1    3    3    0    0 -0.24954501625E+02  0.10560391844E+02  0.25644150171E+02  0.37307943246E+02  0.10566000000E+00 0.  1.
         23    2    1    0    0    0  0.21651920788E+02 -0.82587137915E+01 -0.10929206207E+02  0.99468532914E+02  0.96112067215E+02 0.  0.
         13    1    3    3    0    0  0.46606422413E+02 -0.18819105635E+02 -0.36573356378E+02  0.62160589668E+02  0.10566000000E+00 0. -1.
         22    1    1    0    0    0 -0.21651920788E+02  0.82587137915E+01  0.10929206207E+02  0.25621467086E+02  0.00000000000E+00 0. -1.
</event>
<event>
 5    1  0.1254496E-009  0.9118800E+02  0.7815553E-02  0.1125453E+00
         25   -1    0    0    0    0  0.00000000000E+00  0.00000000000E+00  0.99999998245E-14  0.12509000000E+03  0.12509000000E+03 0.  0.
        -13    1    3    3    0    0  0.31322368124E+02 -0.88573333570E+01 -0.43722227979E+02  0.54508600079E+02  0.10566000000E+00 0.  1.
         23    2    1    0    0    0  0.23769942952E+02 -0.16300378566E+02 -0.35579779904E+01  0.96049136777E+02  0.91553617836E+02 0.  0.
         13    1    3    3    0    0 -0.75524251717E+01 -0.74430452089E+01  0.40164249989E+02  0.41540536698E+02  0.10566000000E+00 0. -1.
         22    1    1    0    0    0 -0.23769942952E+02  0.16300378566E+02  0.35579779904E+01  0.29040863223E+02  0.00000000000E+00 0.  1.
</event>
<event>
 5    1  0.1254496E-009  0.9118800E+02  0.7815553E-02  0.1125453E+00
         25   -1    0    0    0    0  0.00000000000E+00  0.00000000000E+00  0.99999998245E-14  0.12509000000E+03  0.12509000000E+03 0.  0.
        -13    1    3    3    0    0  0.16641005333E+02 -0.26399098595E+02 -0.48076959013E+02  0.57317018564E+02  0.10566000000E+00 0.  1.
         23    2    1    0    0    0 -0.74155156772E+01 -0.21248611759E+02 -0.17387011186E+02  0.96650563782E+02  0.92371694511E+02 0.  0.
         13    1    3    3    0    0 -0.24056521010E+02  0.51504868364E+01  0.30689947826E+02  0.39333545218E+02  0.10566000000E+00 0. -1.
         22    1    1    0    0    0  0.74155156772E+01  0.21248611759E+02  0.17387011186E+02  0.28439436218E+02  0.00000000000E+00 0.  1.
</event>
<event>
 5    1  0.1254496E-009  0.9118800E+02  0.7815553E-02  0.1125453E+00
         25   -1    0    0    0    0  0.00000000000E+00  0.00000000000E+00  0.99999998245E-14  0.12509000000E+03  0.12509000000E+03 0.  0.
        -13    1    3    3    0    0  0.45238921983E+02 -0.36817416640E+02 -0.15270238116E+02  0.60293229856E+02  0.10566000000E+00 0.  1.
         23    2    1    0    0    0  0.13282429002E+02 -0.26017136145E+02 -0.61269829247E+01  0.95242819009E+02  0.90445234035E+02 0.  0.
         13    1    3    3    0    0 -0.31956492981E+02  0.10800280495E+02  0.91432551912E+01  0.34949589153E+02  0.10566000000E+00 0. -1.
         22    1    1    0    0    0 -0.13282429002E+02  0.26017136145E+02  0.61269829247E+01  0.29847180991E+02  0.00000000000E+00 0.  1.
</event>
<event>
 5    1  0.1254496E-009  0.9118800E+02  0.7815553E-02  0.1125453E+00
         25   -1    0    0    0    0  0.00000000000E+00  0.00000000000E+00  0.99999998245E-14  0.12509000000E+03  0.12509000000E+03 0.  0.
        -13    1    3    3    0    0 -0.16128430571E+02 -0.47444893018E+02  0.13943451030E+02  0.52015143342E+02  0.10566000000E+00 0.  1.
         23    2    1    0    0    0 -0.96660058683E+01  0.59566373152E+01  0.15556747851E+02  0.10583057111E+03  0.10406336618E+03 0.  0.
         13    1    3    3    0    0  0.64624247023E+01  0.53401530333E+02  0.16132968207E+01  0.53815427766E+02  0.10566000000E+00 0. -1.
         22    1    1    0    0    0  0.96660058683E+01 -0.59566373152E+01 -0.15556747851E+02  0.19259428892E+02  0.00000000000E+00 0.  1.
</event>
<event>
 5    1  0.1254496E-009  0.9118800E+02  0.7815553E-02  0.1125453E+00
         25   -1    0    0    0    0  0.00000000000E+00  0.00000000000E+00  0.99999998245E-14  0.12509000000E+03  0.12509000000E+03 0.  0.
        -13    1    3    3    0    0 -0.45936330893E+01  0.52193276279E+02 -0.28408408841E+01  0.52472098249E+02  0.10566000000E+00 0. -1.
         23    2    1    0    0    0 -0.23258840808E+02  0.13009257522E+02  0.81073006679E+01  0.97234250483E+02  0.93158771384E+02 0.  0.
         13    1    3    3    0    0 -0.18665207719E+02 -0.39184018757E+02  0.10948141552E+02  0.44762152234E+02  0.10566000000E+00 0.  1.
         22    1    1    0    0    0  0.23258840808E+02 -0.13009257522E+02 -0.81073006679E+01  0.27855749517E+02  0.00000000000E+00 0.  1.
</event>
<event>
 5    1  0.1254496E-009  0.9118800E+02  0.7815553E-02  0.1125453E+00
         25   -1    0    0    0    0  0.00000000000E+00  0.00000000000E+00  0.99999998245E-14  0.12509000000E+03  0.12509000000E+03 0.  0.
        -13    1    3    3    0    0 -0.15658670074E+02  0.64090414216E+01  0.31143117013E+02  0.35442554391E+02  0.10566000000E+00 0.  1.
         23    2    1    0    0    0 -0.32223869113E+01 -0.17162380258E+02 -0.23249214155E+02  0.96013256160E+02  0.91504580903E+02 0.  0.
         13    1    3    3    0    0  0.12436283163E+02 -0.23571421679E+02 -0.54392331168E+02  0.60570701769E+02  0.10566000000E+00 0. -1.
         22    1    1    0    0    0  0.32223869113E+01  0.17162380258E+02  0.23249214155E+02  0.29076743840E+02  0.00000000000E+00 0. -1.
</event>
<event>
 5    1  0.1254496E-009  0.9118800E+02  0.7815553E-02  0.1125453E+00
         25   -1    0    0    0    0  0.00000000000E+00  0.00000000000E+00  0.99999998245E-14  0.12509000000E+03  0.12509000000E+03 0.  0.
        -13    1    3    3    0    0 -0.45064785803E+02 -0.10183388349E+02  0.35131737333E+02  0.58041247831E+02  0.10566000000E+00 0.  1.
         23    2    1    0    0    0 -0.29825154741E+02 -0.82043585868E+01  0.25663017600E+01  0.94050714250E+02  0.88781189399E+02 0.  0.
         13    1    3    3    0    0  0.15239631062E+02  0.19790297621E+01 -0.32565435573E+02  0.36009466419E+02  0.10566000000E+00 0. -1.
         22    1    1    0    0    0  0.29825154741E+02  0.82043585868E+01 -0.25663017600E+01  0.31039285750E+02  0.00000000000E+00 0.  1.
</event>
<event>
 5    1  0.1254496E-009  0.9118800E+02  0.7815553E-02  0.1125453E+00
         25   -1    0    0    0    0  0.00000000000E+00  0.00000000000E+00  0.99999998245E-14  0.12509000000E+03  0.12509000000E+03 0.  0.
        -13    1    3    3    0    0  0.41019333562E+02 -0.28975494968E+02  0.24996476480E+02  0.56098128623E+02  0.10566000000E+00 0. -1.
         23    2    1    0    0    0  0.75844522851E+01 -0.93046973959E+01  0.27615007039E+02  0.94978707702E+02  0.90079215099E+02 0.  0.
         13    1    3    3    0    0 -0.33434881277E+02  0.19670797573E+02  0.26185305591E+01  0.38880579079E+02  0.10566000000E+00 0.  1.
         22    1    1    0    0    0 -0.75844522851E+01  0.93046973959E+01 -0.27615007039E+02  0.30111292298E+02  0.00000000000E+00 0. -1.
</event>
<event>
 5    1  0.1254496E-009  0.9118800E+02  0.7815553E-02  0.1125453E+00
         25   -1    0    0    0    0  0.00000000000E+00  0.00000000000E+00  0.99999998245E-14  0.12509000000E+03  0.12509000000E+03 0.  0.
        -13    1    3    3    0    0 -0.55478899024E+02 -0.27564419057E+01 -0.20174361831E+02  0.59097565502E+02  0.10566000000E+00 0.  1.
         23    2    1    0    0    0 -0.20791621730E+02 -0.14450164365E+02 -0.13798940925E+02  0.96254092610E+02  0.91833222687E+02 0.  0.
         13    1    3    3    0    0  0.34687277293E+02 -0.11693722459E+02  0.63754209063E+01  0.37156527108E+02  0.10566000000E+00 0. -1.
         22    1    1    0    0    0  0.20791621730E+02  0.14450164365E+02  0.13798940925E+02  0.28835907390E+02  0.00000000000E+00 0.  1.
</event>
<event>
 5    1  0.1254496E-009  0.9118800E+02  0.7815553E-02  0.1125453E+00
         25   -1    0    0    0    0  0.00000000000E+00  0.00000000000E+00  0.99999998245E-14  0.12509000000E+03  0.12509000000E+03 0.  0.
        -13    1    3    3    0    0 -0.70197669496E+01 -0.93146425764E+01 -0.32400185002E+02  0.34435778582E+02  0.10566000000E+00 0. -1.
         23    2    1    0    0    0 -0.10739597161E+01  0.81917542001E+01  0.27108497383E+02  0.96750471833E+02  0.92506891329E+02 0.  0.
         13    1    3    3    0    0  0.59458072335E+01  0.17506396777E+02  0.59508682385E+02  0.62314693251E+02  0.10566000000E+00 0.  1.
         22    1    1    0    0    0  0.10739597161E+01 -0.81917542001E+01 -0.27108497383E+02  0.28339528167E+02  0.00000000000E+00 0.  1.
</event>
<event>
 5    1  0.1254496E-009  0.9118800E+02  0.7815553E-02  0.1125453E+00
         25   -1    0    0    0    0  0.00000000000E+00  0.00000000000E+00  0.99999998245E-14  0.12509000000E+03  0.12509000000E+03 0.  0.
        -13    1    3    3    0    0  0.43527813403E+02  0.19668139602E+01 -0.21740701146E+01  0.43626558902E+02  0.10566000000E+00 0. -1.
         23    2    1    0    0    0 -0.56855687178E+01  0.23598360451E+02  0.10151437106E+02  0.98779166054E+02  0.95210627891E+02 0.  0.
         13    1    3    3    0    0 -0.49213382120E+02  0.21631546491E+02  0.12325507220E+02  0.55152607151E+02  0.10566000000E+00 0.  1.
         22    1    1    0    0    0  0.56855687178E+01 -0.23598360451E+02 -0.10151437106E+02  0.26310833946E+02  0.00000000000E+00 0. -1.
</event>
<event>
 5    1  0.1254496E-009  0.9118800E+02  0.7815553E-02  0.1125453E+00
         25   -1    0    0    0    0  0.00000000000E+00  0.00000000000E+00  0.99999998245E-14  0.12509000000E+03  0.12509000000E+03 0.  0.
        -13    1    3    3    0    0  0.10752171943E+02 -0.70521753804E+01  0.59426715944E+02  0.60802040353E+02  0.10566000000E+00 0.  1.
         23    2    1    0    0    0  0.31559233451E+01  0.69278214176E+01  0.28618768115E+02  0.95476009216E+02  0.90767174053E+02 0.  0.
         13    1    3    3    0    0 -0.75962485974E+01  0.13979996798E+02 -0.30807947829E+02  0.34673968863E+02  0.10566000000E+00 0. -1.
         22    1    1    0    0    0 -0.31559233451E+01 -0.69278214176E+01 -0.28618768115E+02  0.29613990784E+02  0.00000000000E+00 0.  1.
</event>
<event>
 5    1  0.1254496E-009  0.9118800E+02  0.7815553E-02  0.1125453E+00
         25   -1    0    0    0    0  0.00000000000E+00  0.00000000000E+00  0.99999998245E-14  0.12509000000E+03  0.12509000000E+03 0.  0.
        -13    1    3    3    0    0  0.84222401650E+01  0.15763394648E+02 -0.16682292704E+02  0.24448492676E+02  0.10566000000E+00 0. -1.
         23    2    1    0    0    0 -0.48386969337E+01 -0.31278932828E+02  0.21801911595E+02  0.86656837548E+02  0.77667879575E+02 0.  0.
         13    1    3    3    0    0 -0.13260937099E+02 -0.47042327476E+02  0.38484204299E+02  0.62208344872E+02  0.10566000000E+00 0.  1.
         22    1    1    0    0    0  0.48386969337E+01  0.31278932828E+02 -0.21801911595E+02  0.38433162452E+02  0.00000000000E+00 0.  1.
</event>
<event>
 5    1  0.1254496E-009  0.9118800E+02  0.7815553E-02  0.1125453E+00
         25   -1    0    0    0    0  0.00000000000E+00  0.00000000000E+00  0.99999998245E-14  0.12509000000E+03  0.12509000000E+03 0.  0.
        -13    1    3    3    0    0  0.52293010165E+01 -0.12322480090E+02 -0.32482899130E+02  0.35133161039E+02  0.10566000000E+00 0. -1.
         23    2    1    0    0    0  0.96376817098E+01  0.17310347126E+02  0.20864608412E+02  0.96317358297E+02  0.91919359217E+02 0.  0.
         13    1    3    3    0    0  0.44083806932E+01  0.29632827216E+02  0.53347507542E+02  0.61184197258E+02  0.10566000000E+00 0.  1.
         22    1    1    0    0    0 -0.96376817098E+01 -0.17310347126E+02 -0.20864608412E+02  0.28772641703E+02  0.00000000000E+00 0.  1.
</event>
<event>
 5    1  0.1254496E-009  0.9118800E+02  0.7815553E-02  0.1125453E+00
         25   -1    0    0    0    0  0.00000000000E+00  0.00000000000E+00  0.99999998245E-14  0.12509000000E+03  0.12509000000E+03 0.  0.
        -13    1    3    3    0    0 -0.20902400027E+02  0.47306613201E+02 -0.83470654203E+01  0.52388077314E+02  0.10566000000E+00 0.  1.
         23    2    1    0    0    0 -0.29022544180E+01  0.18012848429E+02  0.20771020246E+02  0.97443642713E+02  0.93439512166E+02 0.  0.
         13    1    3    3    0    0  0.18000145609E+02 -0.29293764773E+02  0.29118085666E+02  0.45055565399E+02  0.10566000000E+00 0. -1.
         22    1    1    0    0    0  0.29022544180E+01 -0.18012848429E+02 -0.20771020246E+02  0.27646357287E+02  0.00000000000E+00 0.  1.
</event>
<event>
 5    1  0.1254496E-009  0.9118800E+02  0.7815553E-02  0.1125453E+00
         25   -1    0    0    0    0  0.00000000000E+00  0.00000000000E+00  0.99999998245E-14  0.12509000000E+03  0.12509000000E+03 0.  0.
        -13    1    3    3    0    0 -0.77831058702E+01 -0.46492761736E+01 -0.41334695849E+02  0.42317381191E+02  0.10566000000E+00 0.  1.
         23    2    1    0    0    0 -0.10883787366E+02  0.27820685999E+02  0.30886471147E+00  0.95214545287E+02  0.90406121695E+02 0.  0.
         13    1    3    3    0    0 -0.31006814960E+01  0.32469962173E+02  0.41643560560E+02  0.52897164096E+02  0.10566000000E+00 0. -1.
         22    1    1    0    0    0  0.10883787366E+02 -0.27820685999E+02 -0.30886471147E+00  0.29875454713E+02  0.00000000000E+00 0. -1.
</event>
<event>
 5    1  0.1254496E-009  0.9118800E+02  0.7815553E-02  0.1125453E+00
         25   -1    0    0    0    0  0.00000000000E+00  0.00000000000E+00  0.99999998245E-14  0.12509000000E+03  0.12509000000E+03 0.  0.
        -13    1    3    3    0    0 -0.84522215713E+01 -0.27992712596E+02 -0.19343491259E+02  0.35060145837E+02  0.10566000000E+00 0.  1.
         23    2    1    0    0    0  0.23583063049E+02  0.13972858606E+02  0.10534473748E+02  0.95723747642E+02  0.91107952919E+02 0.  0.
         13    1    3    3    0    0  0.32035284620E+02  0.41965571202E+02  0.29877965008E+02  0.60663601806E+02  0.10566000000E+00 0. -1.
         22    1    1    0    0    0 -0.23583063049E+02 -0.13972858606E+02 -0.10534473748E+02  0.29366252358E+02  0.00000000000E+00 0. -1.
</event>
<event>
 5    1  0.1254496E-009  0.9118800E+02  0.7815553E-02  0.1125453E+00
         25   -1    0    0    0    0  0.00000000000E+00  0.00000000000E+00  0.99999998245E-14  0.12509000000E+03  0.12509000000E+03 0.  0.
        -13    1    3    3    0    0 -0.30391887039E+02 -0.25751239619E+02 -0.37908445887E+02  0.54989586044E+02  0.10566000000E+00 0.  1.
         23    2    1    0    0    0  0.57686972876E+01 -0.74182429223E+01 -0.26300372232E+02  0.97161201673E+02  0.93060632571E+02 0.  0.
         13    1    3    3    0    0  0.36160584326E+02  0.18332996697E+02  0.11608073655E+02  0.42171615628E+02  0.10566000000E+00 0. -1.
         22    1    1    0    0    0 -0.57686972876E+01  0.74182429223E+01  0.26300372232E+02  0.27928798327E+02  0.00000000000E+00 0.  1.
</event>
<event>
 5    1  0.1254496E-009  0.9118800E+02  0.7815553E-02  0.1125453E+00
         25   -1    0    0    0    0  0.00000000000E+00  0.00000000000E+00  0.99999998245E-14  0.12509000000E+03  0.12509000000E+03 0.  0.
        -13    1    3    3    0    0 -0.17292108482E+02 -0.64911119316E+01 -0.26005501860E+02  0.31897473895E+02  0.10566000000E+00 0.  1.
         23    2    1    0    0    0  0.17948986949E+02  0.31783763297E+00  0.25028219416E+02  0.94289368182E+02  0.89116811163E+02 0.  0.
         13    1    3    3    0    0  0.35241095432E+02  0.68089495646E+01  0.51033721276E+02  0.62391894287E+02  0.10566000000E+00 0. -1.
         22    1    1    0    0    0 -0.17948986949E+02 -0.31783763297E+00 -0.25028219416E+02  0.30800631818E+02  0.00000000000E+00 0. -1.
</event>
<event>
 5    1  0.1254496E-009  0.9118800E+02  0.7815553E-02  0.1125453E+00
         25   -1    0    0    0    0  0.00000000000E+00  0.00000000000E+00  0.99999998245E-14  0.12509000000E+03  0.12509000000E+03 0.  0.
        -13    1    3    3    0    0 -0.29609015003E+02  0.16163749456E+02  0.31327473654E+02  0.46036749837E+02  0.10566000000E+00 0. -1.
         23    2    1    0    0    0  0.14411179934E+02  0.20030928263E+02 -0.35578815010E+00  0.10041112686E+03  0.97331123585E+02 0.  0.
         13    1    3    3    0    0  0.44020194937E+02  0.38671788080E+01 -0.31683261805E+02  0.54374377025E+02  0.10566000000E+00 0.  1.
         22    1    1    0    0    0 -0.14411179934E+02 -0.20030928263E+02  0.35578815010E+00  0.24678873138E+02  0.00000000000E+00 0.  1.
</event>
<event>
 5    1  0.1254496E-009  0.9118800E+02  0.7815553E-02  0.1125453E+00
         25   -1    0    0    0    0  0.00000000000E+00  0.00000000000E+00  0.99999998245E-14  0.12509000000E+03  0.12509000000E+03 0.  0.
        -13    1    3    3    0    0 -0.62166311321E+01 -0.16063594397E+02 -0.31141160777E+02  0.35587478502E+02  0.10566000000E+00 0. -1.
         23    2    1    0    0    0  0.91638436535E+00  0.70316126718E+00  0.27792394819E+02  0.97273612639E+02  0.93211610382E+02 0.  0.
         13    1    3    3    0    0  0.71330154975E+01  0.16766755664E+02  0.58933555595E+02  0.61686134137E+02  0.10566000000E+00 0.  1.
         22    1    1    0    0    0 -0.91638436535E+00 -0.70316126718E+00 -0.27792394819E+02  0.27816387361E+02  0.00000000000E+00 0.  1.
</event>
<event>
 5    1  0.1254496E-009  0.9118800E+02  0.7815553E-02  0.1125453E+00
         25   -1    0    0    0    0  0.00000000000E+00  0.00000000000E+00  0.99999998245E-14  0.12509000000E+03  0.12509000000E+03 0.  0.
        -13    1    3    3    0    0  0.11131291990E+02  0.33388668005E+02 -0.27286060255E+02  0.44533684563E+02  0.10566000000E+00 0.  1.
         23    2    1    0    0    0 -0.22183500581E+02  0.17626542343E+02  0.80941869974E+01  0.95622754521E+02  0.90969185035E+02 0.  0.
         13    1    3    3    0    0 -0.33314792571E+02 -0.15762125662E+02  0.35380247253E+02  0.51089069957E+02  0.10566000000E+00 0. -1.
         22    1    1    0    0    0  0.22183500581E+02 -0.17626542343E+02 -0.80941869974E+01  0.29467245479E+02  0.00000000000E+00 0. -1.
</event>
<event>
 5    1  0.1254496E-009  0.9118800E+02  0.7815553E-02  0.1125453E+00
         25   -1    0    0    0    0  0.00000000000E+00  0.00000000000E+00  0.99999998245E-14  0.12509000000E+03  0.12509000000E+03 0.  0.
        -13    1    3    3    0    0  0.43965776227E+02 -0.67766377367E+00  0.20662416973E+02  0.48583900076E+02  0.10566000000E+00 0. -1.
         23    2    1    0    0    0  0.20130215177E+02  0.37330283367E+01 -0.20349325496E+02  0.96223824088E+02  0.91791983366E+02 0.  0.
         13    1    3    3    0    0 -0.23835561050E+02  0.44106921104E+01 -0.41011742469E+02  0.47639924012E+02  0.10566000000E+00 0.  1.
         22    1    1    0    0    0 -0.20130215177E+02 -0.37330283367E+01  0.20349325496E+02  0.28866175912E+02  0.00000000000E+00 0.  1.
</event>
<event>
 5    1  0.1254496E-009  0.9118800E+02  0.7815553E-02  0.1125453E+00
         25   -1    0    0    0    0  0.00000000000E+00  0.00000000000E+00  0.99999998245E-14  0.12509000000E+03  0.12509000000E+03 0.  0.
        -13    1    3    3    0    0  0.27578581952E+02 -0.45584402640E+01 -0.40016868914E+02  0.48813097851E+02  0.10566000000E+00 0. -1.
         23    2    1    0    0    0 -0.16229260689E+02  0.49074998502E+01 -0.22461562190E+02  0.96947607896E+02  0.92773080382E+02 0.  0.
         13    1    3    3    0    0 -0.43807842641E+02  0.94659401142E+01  0.17555306724E+02  0.48134510045E+02  0.10566000000E+00 0.  1.
         22    1    1    0    0    0  0.16229260689E+02 -0.49074998502E+01  0.22461562190E+02  0.28142392104E+02  0.00000000000E+00 0.  1.
</event>
<event>
 5    1  0.1254496E-009  0.9118800E+02  0.7815553E-02  0.1125453E+00
         25   -1    0    0    0    0  0.00000000000E+00  0.00000000000E+00  0.99999998245E-14  0.12509000000E+03  0.12509000000E+03 0.  0.
        -13    1    3    3    0    0 -0.40403452279E+02 -0.16118255903E+02 -0.55497593140E+01  0.43852572580E+02  0.10566000000E+00 0. -1.
         23    2    1    0    0    0 -0.81097673216E+01 -0.39815406790E+02  0.10250025657E+01  0.84444144441E+02  0.74018429842E+02 0.  0.
         13    1    3    3    0    0  0.32293684958E+02 -0.23697150887E+02  0.65747618798E+01  0.40591571860E+02  0.10566000000E+00 0.  1.
         22    1    1    0    0    0  0.81097673216E+01  0.39815406790E+02 -0.10250025657E+01  0.40645855559E+02  0.00000000000E+00 0. -1.
</event>
<event>
 5    1  0.1254496E-009  0.9118800E+02  0.7815553E-02  0.1125453E+00
         25   -1    0    0    0    0  0.00000000000E+00  0.00000000000E+00  0.99999998245E-14  0.12509000000E+03  0.12509000000E+03 0.  0.
        -13    1    3    3    0    0 -0.14869960799E+01 -0.77567734544E+01  0.37622614863E+02  0.38442827743E+02  0.10566000000E+00 0. -1.
         23    2    1    0    0    0  0.16820528135E+02 -0.19043124981E+02 -0.15204410446E+02  0.95480122040E+02  0.90772841930E+02 0.  0.
         13    1    3    3    0    0  0.18307524215E+02 -0.11286351527E+02 -0.52827025309E+02  0.57037294297E+02  0.10566000000E+00 0.  1.
         22    1    1    0    0    0 -0.16820528135E+02  0.19043124981E+02  0.15204410446E+02  0.29609877960E+02  0.00000000000E+00 0.  1.
</event>
<event>
 5    1  0.1254496E-009  0.9118800E+02  0.7815553E-02  0.1125453E+00
         25   -1    0    0    0    0  0.00000000000E+00  0.00000000000E+00  0.99999998245E-14  0.12509000000E+03  0.12509000000E+03 0.  0.
        -13    1    3    3    0    0  0.32385241100E+02 -0.10092351311E+00  0.15898930096E+02  0.36077710139E+02  0.10566000000E+00 0.  1.
         23    2    1    0    0    0 -0.15594861616E+02  0.26055906945E+02 -0.44683857493E+01  0.94396735808E+02  0.89267391944E+02 0.  0.
         13    1    3    3    0    0 -0.47980102715E+02  0.26156830458E+02 -0.20367315846E+02  0.58319025669E+02  0.10566000000E+00 0. -1.
         22    1    1    0    0    0  0.15594861616E+02 -0.26055906945E+02  0.44683857493E+01  0.30693264192E+02  0.00000000000E+00 0. -1.
</event>
<event>
 5    1  0.1254496E-009  0.9118800E+02  0.7815553E-02  0.1125453E+00
         25   -1    0    0    0    0  0.00000000000E+00  0.00000000000E+00  0.99999998245E-14  0.12509000000E+03  0.12509000000E+03 0.  0.
        -13    1    3    3    0    0  0.27415715155E+02  0.42798671748E+02 -0.10143741451E+01  0.50836875001E+02  0.10566000000E+00 0.  1.
         23    2    1    0    0    0  0.26919019922E+02 -0.21312439484E+00  0.11767440679E+02  0.95710556239E+02  0.91089839498E+02 0.  0.
         13    1    3    3    0    0 -0.49669523323E+00 -0.43011796143E+02  0.12781814825E+02  0.44873681238E+02  0.10566000000E+00 0. -1.
         22    1    1    0    0    0 -0.26919019922E+02  0.21312439484E+00 -0.11767440679E+02  0.29379443761E+02  0.00000000000E+00 0. -1.
</event>
<event>
 5    1  0.1254496E-009  0.9118800E+02  0.7815553E-02  0.1125453E+00
         25   -1    0    0    0    0  0.00000000000E+00  0.00000000000E+00  0.99999998245E-14  0.12509000000E+03  0.12509000000E+03 0.  0.
        -13    1    3    3    0    0  0.15024795042E+00  0.17421284710E+02 -0.36277873263E+02  0.40244490157E+02  0.10566000000E+00 0.  1.
         23    2    1    0    0    0 -0.20034995870E+02 -0.23606408676E+02 -0.13916579347E+02  0.91143943222E+02  0.84586545119E+02 0.  0.
         13    1    3    3    0    0 -0.20185243821E+02 -0.41027693386E+02  0.22361293916E+02  0.50899453065E+02  0.10566000000E+00 0. -1.
         22    1    1    0    0    0  0.20034995870E+02  0.23606408676E+02  0.13916579347E+02  0.33946056778E+02  0.00000000000E+00 0. -1.
</event>
<event>
 5    1  0.1254496E-009  0.9118800E+02  0.7815553E-02  0.1125453E+00
         25   -1    0    0    0    0  0.00000000000E+00  0.00000000000E+00  0.99999998245E-14  0.12509000000E+03  0.12509000000E+03 0.  0.
        -13    1    3    3    0    0  0.78719308571E+01  0.30666976059E+02  0.15493013204E+02  0.35248763641E+02  0.10566000000E+00 0. -1.
         23    2    1    0    0    0 -0.24532864613E+02 -0.13678012516E+02 -0.92910790495E+01  0.95504976383E+02  0.90807086131E+02 0.  0.
         13    1    3    3    0    0 -0.32404795470E+02 -0.44344988575E+02 -0.24784092254E+02  0.60256212742E+02  0.10566000000E+00 0.  1.
         22    1    1    0    0    0  0.24532864613E+02  0.13678012516E+02  0.92910790495E+01  0.29585023617E+02  0.00000000000E+00 0.  1.
</event>
<event>
 5    1  0.1254496E-009  0.9118800E+02  0.7815553E-02  0.1125453E+00
         25   -1    0    0    0    0  0.00000000000E+00  0.00000000000E+00  0.99999998245E-14  0.12509000000E+03  0.12509000000E+03 0.  0.
        -13    1    3    3    0    0  0.27682065616E+02 -0.33748860593E+02 -0.30820532112E+02  0.53434059474E+02  0.10566000000E+00 0.  1.
         23    2    1    0    0    0 -0.85402939374E+01 -0.52981167647E+01 -0.22781341717E+02  0.10019027727E+03  0.97046872523E+02 0.  0.
         13    1    3    3    0    0 -0.36222359553E+02  0.28450743829E+02  0.80391903956E+01  0.46756217793E+02  0.10566000000E+00 0. -1.
         22    1    1    0    0    0  0.85402939374E+01  0.52981167647E+01  0.22781341717E+02  0.24899722734E+02  0.00000000000E+00 0. -1.
</event>
<event>
 5    1  0.1254496E-009  0.9118800E+02  0.7815553E-02  0.1125453E+00
         25   -1    0    0    0    0  0.00000000000E+00  0.00000000000E+00  0.99999998245E-14  0.12509000000E+03  0.12509000000E+03 0.  0.
        -13    1    3    3    0    0  0.10828851172E+02  0.55032660532E+02  0.19149749121E+02  0.59267038043E+02  0.10566000000E+00 0. -1.
         23    2    1    0    0    0  0.13931657541E+02  0.16334685506E+02  0.16187699812E+02  0.98202183844E+02  0.94449532842E+02 0.  0.
         13    1    3    3    0    0  0.31028063681E+01 -0.38697975025E+02 -0.29620493091E+01  0.38935145801E+02  0.10566000000E+00 0.  1.
         22    1    1    0    0    0 -0.13931657541E+02 -0.16334685506E+02 -0.16187699812E+02  0.26887816156E+02  0.00000000000E+00 0. -1.
</event>
<event>
 5    1  0.1254496E-009  0.9118800E+02  0.7815553E-02  0.1125453E+00
         25   -1    0    0    0    0  0.00000000000E+00  0.00000000000E+00  0.99999998245E-14  0.12509000000E+03  0.12509000000E+03 0.  0.
        -13    1    3    3    0    0 -0.14756303448E+02  0.47514153395E+02 -0.19806715455E+02  0.53550540665E+02  0.10566000000E+00 0. -1.
         23    2    1    0    0    0  0.15890673909E+02  0.18609516194E+02 -0.16006298682E+02  0.95849117527E+02  0.91279921796E+02 0.  0.
         13    1    3    3    0    0  0.30646977358E+02 -0.28904637202E+02  0.38004167731E+01  0.42298576863E+02  0.10566000000E+00 0.  1.
         22    1    1    0    0    0 -0.15890673909E+02 -0.18609516194E+02  0.16006298682E+02  0.29240882473E+02  0.00000000000E+00 0.  1.
</event>
<event>
 5    1  0.1254496E-009  0.9118800E+02  0.7815553E-02  0.1125453E+00
         25   -1    0    0    0    0  0.00000000000E+00  0.00000000000E+00  0.99999998245E-14  0.12509000000E+03  0.12509000000E+03 0.  0.
        -13    1    3    3    0    0  0.47189231904E+00 -0.71787092083E+00 -0.50343271517E+02  0.50350711734E+02  0.10566000000E+00 0. -1.
         23    2    1    0    0    0  0.11422291890E+02  0.23338846610E+02 -0.13181814996E+02  0.95953583616E+02  0.91422970030E+02 0.  0.
         13    1    3    3    0    0  0.10950399571E+02  0.24056717531E+02  0.37161456521E+02  0.45602871882E+02  0.10566000000E+00 0.  1.
         22    1    1    0    0    0 -0.11422291890E+02 -0.23338846610E+02  0.13181814996E+02  0.29136416384E+02  0.00000000000E+00 0. -1.
</event>
<event>
 5    1  0.1254496E-009  0.9118800E+02  0.7815553E-02  0.1125453E+00
         25   -1    0    0    0    0  0.00000000000E+00  0.00000000000E+00  0.99999998245E-14  0.12509000000E+03  0.12509000000E+03 0.  0.
        -13    1    3    3    0    0  0.22081436022E+02  0.31207729884E+02  0.75881988330E+01  0.38975686612E+02  0.10566000000E+00 0. -1.
         23    2    1    0    0    0  0.50104353983E+01 -0.25781867580E+02  0.32552650137E+01  0.98624817040E+02  0.95007624048E+02 0.  0.
         13    1    3    3    0    0 -0.17071000623E+02 -0.56989597464E+02 -0.43329338193E+01  0.59649130429E+02  0.10566000000E+00 0.  1.
         22    1    1    0    0    0 -0.50104353983E+01  0.25781867580E+02 -0.32552650137E+01  0.26465182960E+02  0.00000000000E+00 0.  1.
</event>
<event>
 5    1  0.1254496E-009  0.9118800E+02  0.7815553E-02  0.1125453E+00
         25   -1    0    0    0    0  0.00000000000E+00  0.00000000000E+00  0.99999998245E-14  0.12509000000E+03  0.12509000000E+03 0.  0.
        -13    1    3    3    0    0 -0.49738411772E+02  0.52320033245E+01  0.21075899834E+01  0.50057332769E+02  0.10566000000E+00 0. -1.
         23    2    1    0    0    0 -0.15938366231E+02 -0.21320762680E+02  0.14482304579E+02  0.94785815713E+02  0.89810952979E+02 0.  0.
         13    1    3    3    0    0  0.33800045541E+02 -0.26552766004E+02  0.12374714596E+02  0.44728482944E+02  0.10566000000E+00 0.  1.
         22    1    1    0    0    0  0.15938366231E+02  0.21320762680E+02 -0.14482304579E+02  0.30304184287E+02  0.00000000000E+00 0. -1.
</event>
<event>
 5    1  0.1254496E-009  0.9118800E+02  0.7815553E-02  0.1125453E+00
         25   -1    0    0    0    0  0.00000000000E+00  0.00000000000E+00  0.99999998245E-14  0.12509000000E+03  0.12509000000E+03 0.  0.
        -13    1    3    3    0    0 -0.38290323978E+02 -0.26339215715E+02  0.17275599469E+02  0.49581858536E+02  0.10566000000E+00 0.  1.
         23    2    1    0    0    0 -0.22057618749E+02  0.15965418115E+02  0.12447395351E+02  0.95150548243E+02  0.90317529082E+02 0.  0.
         13    1    3    3    0    0  0.16232705229E+02  0.42304633830E+02 -0.48282041175E+01  0.45568689707E+02  0.10566000000E+00 0. -1.
         22    1    1    0    0    0  0.22057618749E+02 -0.15965418115E+02 -0.12447395351E+02  0.29939451757E+02  0.00000000000E+00 0.  1.
</event>
<event>
 5    1  0.1254496E-009  0.9118800E+02  0.7815553E-02  0.1125453E+00
         25   -1    0    0    0    0  0.00000000000E+00  0.00000000000E+00  0.99999998245E-14  0.12509000000E+03  0.12509000000E+03 0.  0.
        -13    1    3    3    0    0 -0.40453058401E+02 -0.25620841319E+02  0.28202801575E+00  0.47884946984E+02  0.10566000000E+00 0.  1.
         23    2    1    0    0    0 -0.43215950145E+01 -0.67981495409E+01  0.27204843346E+02  0.96717574617E+02  0.92462396236E+02 0.  0.
         13    1    3    3    0    0  0.36131463386E+02  0.18822691778E+02  0.26922815330E+02  0.48832627633E+02  0.10566000000E+00 0. -1.
         22    1    1    0    0    0  0.43215950145E+01  0.67981495409E+01 -0.27204843346E+02  0.28372425383E+02  0.00000000000E+00 0.  1.
</event>
<event>
 5    1  0.1254496E-009  0.9118800E+02  0.7815553E-02  0.1125453E+00
         25   -1    0    0    0    0  0.00000000000E+00  0.00000000000E+00  0.99999998245E-14  0.12509000000E+03  0.12509000000E+03 0.  0.
        -13    1    3    3    0    0  0.59867946432E+02 -0.16849876389E+02  0.46159863700E+01  0.62365117161E+02  0.10566000000E+00 0.  1.
         23    2    1    0    0    0  0.29016366735E+02 -0.74069457062E+01 -0.10567085061E+01  0.95124536278E+02  0.90281495258E+02 0.  0.
         13    1    3    3    0    0 -0.30851579697E+02  0.94429306827E+01 -0.56726948761E+01  0.32759419117E+02  0.10566000000E+00 0. -1.
         22    1    1    0    0    0 -0.29016366735E+02  0.74069457062E+01  0.10567085061E+01  0.29965463722E+02  0.00000000000E+00 0.  1.
</event>
<event>
 5    1  0.1254496E-009  0.9118800E+02  0.7815553E-02  0.1125453E+00
         25   -1    0    0    0    0  0.00000000000E+00  0.00000000000E+00  0.99999998245E-14  0.12509000000E+03  0.12509000000E+03 0.  0.
        -13    1    3    3    0    0  0.39544772633E+02 -0.22107164025E+02 -0.16217087133E+01  0.45333837771E+02  0.10566000000E+00 0. -1.
         23    2    1    0    0    0 -0.11980077111E+02 -0.18951898020E+02 -0.14309783594E+02  0.98491755835E+02  0.94832269692E+02 0.  0.
         13    1    3    3    0    0 -0.51524849744E+02  0.31552660060E+01 -0.12688074881E+02  0.53157918064E+02  0.10566000000E+00 0.  1.
         22    1    1    0    0    0  0.11980077111E+02  0.18951898020E+02  0.14309783594E+02  0.26598244165E+02  0.00000000000E+00 0.  1.
</event>
<event>
 5    1  0.1254496E-009  0.9118800E+02  0.7815553E-02  0.1125453E+00
         25   -1    0    0    0    0  0.00000000000E+00  0.00000000000E+00  0.99999998245E-14  0.12509000000E+03  0.12509000000E+03 0.  0.
        -13    1    3    3    0    0  0.25152186565E+02  0.23050092791E+02  0.19324387233E+01  0.34171402519E+02  0.10566000000E+00 0. -1.
         23    2    1    0    0    0 -0.18295145663E+02 -0.56221263076E+01  0.27036917034E+02  0.91964246549E+02  0.85791066560E+02 0.  0.
         13    1    3    3    0    0 -0.43447332228E+02 -0.28672219098E+02  0.25104478310E+02  0.57792844029E+02  0.10566000000E+00 0.  1.
         22    1    1    0    0    0  0.18295145663E+02  0.56221263076E+01 -0.27036917034E+02  0.33125753451E+02  0.00000000000E+00 0.  1.
</event>
<event>
 5    1  0.1254496E-009  0.9118800E+02  0.7815553E-02  0.1125453E+00
         25   -1    0    0    0    0  0.00000000000E+00  0.00000000000E+00  0.99999998245E-14  0.12509000000E+03  0.12509000000E+03 0.  0.
        -13    1    3    3    0    0  0.21024478046E+02 -0.28188752279E+02  0.13267224554E+02  0.37585433928E+02  0.10566000000E+00 0.  1.
         23    2    1    0    0    0 -0.17294870578E+01  0.26701446981E+02  0.67807692030E+00  0.98324010673E+02  0.94610744052E+02 0.  0.
         13    1    3    3    0    0 -0.22753965104E+02  0.54890199260E+02 -0.12589147633E+02  0.60738576745E+02  0.10566000000E+00 0. -1.
         22    1    1    0    0    0  0.17294870578E+01 -0.26701446981E+02 -0.67807692030E+00  0.26765989327E+02  0.00000000000E+00 0. -1.
</event>
<event>
 5    1  0.1254496E-009  0.9118800E+02  0.7815553E-02  0.1125453E+00
         25   -1    0    0    0    0  0.00000000000E+00  0.00000000000E+00  0.99999998245E-14  0.12509000000E+03  0.12509000000E+03 0.  0.
        -13    1    3    3    0    0 -0.17317199416E+02  0.27613592265E+02 -0.30283202062E+02  0.44491340331E+02  0.10566000000E+00 0.  1.
         23    2    1    0    0    0 -0.25277734360E+02 -0.20397523399E+00  0.13084855996E+02  0.96625655344E+02  0.92337957277E+02 0.  0.
         13    1    3    3    0    0 -0.79605349439E+01 -0.27817567499E+02  0.43368058058E+02  0.52134315013E+02  0.10566000000E+00 0. -1.
         22    1    1    0    0    0  0.25277734360E+02  0.20397523399E+00 -0.13084855996E+02  0.28464344656E+02  0.00000000000E+00 0. -1.
</event>
<event>
 5    1  0.1254496E-009  0.9118800E+02  0.7815553E-02  0.1125453E+00
         25   -1    0    0    0    0  0.00000000000E+00  0.00000000000E+00  0.99999998245E-14  0.12509000000E+03  0.12509000000E+03 0.  0.
        -13    1    3    3    0    0 -0.27921044923E+02 -0.25084476590E+01 -0.19477597832E+02  0.34135978682E+02  0.10566000000E+00 0. -1.
         23    2    1    0    0    0  0.13066864841E+02 -0.16745118796E+01  0.26353356166E+02  0.95627374048E+02  0.90975537037E+02 0.  0.
         13    1    3    3    0    0  0.40987909763E+02  0.83393577936E+00  0.45830953998E+02  0.61491395366E+02  0.10566000000E+00 0.  1.
         22    1    1    0    0    0 -0.13066864841E+02  0.16745118796E+01 -0.26353356166E+02  0.29462625952E+02  0.00000000000E+00 0.  1.
</event>
<event>
 5    1  0.1254496E-009  0.9118800E+02  0.7815553E-02  0.1125453E+00
         25   -1    0    0    0    0  0.00000000000E+00  0.00000000000E+00  0.99999998245E-14  0.12509000000E+03  0.12509000000E+03 0.  0.
        -13    1    3    3    0    0 -0.17005029238E+02  0.31549472265E+02  0.32943873677E+01  0.35991726435E+02  0.10566000000E+00 0.  1.
         23    2    1    0    0    0  0.13260631792E+02 -0.12082734992E+02  0.25800083622E+02  0.93665787117E+02  0.88237171991E+02 0.  0.
         13    1    3    3    0    0  0.30265661030E+02 -0.43632207257E+02  0.22505696255E+02  0.57674060682E+02  0.10566000000E+00 0. -1.
         22    1    1    0    0    0 -0.13260631792E+02  0.12082734992E+02 -0.25800083622E+02  0.31424212883E+02  0.00000000000E+00 0. -1.
</event>
<event>
 5    1  0.1254496E-009  0.9118800E+02  0.7815553E-02  0.1125453E+00
         25   -1    0    0    0    0  0.00000000000E+00  0.00000000000E+00  0.99999998245E-14  0.12509000000E+03  0.12509000000E+03 0.  0.
        -13    1    3    3    0    0  0.36263181577E+02  0.13282400388E+02 -0.31423553230E+02  0.49788466132E+02  0.10566000000E+00 0.  1.
         23    2    1    0    0    0 -0.79576538430E+01  0.19244581786E+02 -0.20799895462E+02  0.95656790287E+02  0.91015974938E+02 0.  0.
         13    1    3    3    0    0 -0.44220835420E+02  0.59621813987E+01  0.10623657769E+02  0.45868324154E+02  0.10566000000E+00 0. -1.
         22    1    1    0    0    0  0.79576538430E+01 -0.19244581786E+02  0.20799895462E+02  0.29433209713E+02  0.00000000000E+00 0. -1.
</event>
<event>
 5    1  0.1254496E-009  0.9118800E+02  0.7815553E-02  0.1125453E+00
         25   -1    0    0    0    0  0.00000000000E+00  0.00000000000E+00  0.99999998245E-14  0.12509000000E+03  0.12509000000E+03 0.  0.
        -13    1    3    3    0    0 -0.27773314023E+01 -0.97004895195E+00 -0.36317133988E+02  0.36436245001E+02  0.10566000000E+00 0. -1.
         23    2    1    0    0    0  0.29351828422E+02  0.10607644554E+02  0.84629332127E+01  0.92753129507E+02  0.86933709458E+02 0.  0.
         13    1    3    3    0    0  0.32129159824E+02  0.11577693506E+02  0.44780067200E+02  0.56316884506E+02  0.10566000000E+00 0.  1.
         22    1    1    0    0    0 -0.29351828422E+02 -0.10607644554E+02 -0.84629332127E+01  0.32336870493E+02  0.00000000000E+00 0.  1.
</event>
<event>
 5    1  0.1254496E-009  0.9118800E+02  0.7815553E-02  0.1125453E+00
         25   -1    0    0    0    0  0.00000000000E+00  0.00000000000E+00  0.99999998245E-14  0.12509000000E+03  0.12509000000E+03 0.  0.
        -13    1    3    3    0    0  0.19100256262E+02 -0.23454847934E+02 -0.18699069676E+02  0.35561440517E+02  0.10566000000E+00 0. -1.
         23    2    1    0    0    0 -0.19430457285E+02 -0.32098896581E+00  0.21677409887E+02  0.95977188325E+02  0.91455261604E+02 0.  0.
         13    1    3    3    0    0 -0.38530713548E+02  0.23133858968E+02  0.40376479562E+02  0.60415747808E+02  0.10566000000E+00 0.  1.
         22    1    1    0    0    0  0.19430457285E+02  0.32098896581E+00 -0.21677409887E+02  0.29112811675E+02  0.00000000000E+00 0.  1.
</event>
<event>
 5    1  0.1254496E-009  0.9118800E+02  0.7815553E-02  0.1125453E+00
         25   -1    0    0    0    0  0.00000000000E+00  0.00000000000E+00  0.99999998245E-14  0.12509000000E+03  0.12509000000E+03 0.  0.
        -13    1    3    3    0    0 -0.46045386675E+02  0.31134655521E+02  0.20785667053E+02  0.59343066379E+02  0.10566000000E+00 0.  1.
         23    2    1    0    0    0 -0.85178383333E+01  0.20132351000E+02  0.91084428192E+00  0.10321090578E+03  0.10086523835E+03 0.  0.
         13    1    3    3    0    0  0.37527548342E+02 -0.11002304521E+02 -0.19874822771E+02  0.43867839399E+02  0.10566000000E+00 0. -1.
         22    1    1    0    0    0  0.85178383333E+01 -0.20132351000E+02 -0.91084428192E+00  0.21879094222E+02  0.00000000000E+00 0.  1.
</event>
<event>
 5    1  0.1254496E-009  0.9118800E+02  0.7815553E-02  0.1125453E+00
         25   -1    0    0    0    0  0.00000000000E+00  0.00000000000E+00  0.99999998245E-14  0.12509000000E+03  0.12509000000E+03 0.  0.
        -13    1    3    3    0    0 -0.21566111665E+02 -0.50288344043E+02 -0.45234603391E+01  0.54904349340E+02  0.10566000000E+00 0.  1.
         23    2    1    0    0    0  0.99884703041E+01 -0.25767137721E+02  0.71647371673E+01  0.96540947756E+02  0.92223132725E+02 0.  0.
         13    1    3    3    0    0  0.31554581969E+02  0.24521206322E+02  0.11688197506E+02  0.41636598417E+02  0.10566000000E+00 0. -1.
         22    1    1    0    0    0 -0.99884703041E+01  0.25767137721E+02 -0.71647371673E+01  0.28549052244E+02  0.00000000000E+00 0.  1.
</event>
<event>
 5    1  0.1254496E-009  0.9118800E+02  0.7815553E-02  0.1125453E+00
         25   -1    0    0    0    0  0.00000000000E+00  0.00000000000E+00  0.99999998245E-14  0.12509000000E+03  0.12509000000E+03 0.  0.
        -13    1    3    3    0    0  0.29926865611E+02 -0.11423743897E+02  0.11356754569E+02  0.33986854052E+02  0.10566000000E+00 0.  1.
         23    2    1    0    0    0 -0.19262964632E+02  0.22468665009E+02 -0.27539997951E+01  0.95366486941E+02  0.90616111166E+02 0.  0.
         13    1    3    3    0    0 -0.49189830243E+02  0.33892408906E+02 -0.14110754364E+02  0.61379632889E+02  0.10566000000E+00 0. -1.
         22    1    1    0    0    0  0.19262964632E+02 -0.22468665009E+02  0.27539997951E+01  0.29723513059E+02  0.00000000000E+00 0. -1.
</event>
<event>
 5    1  0.1254496E-009  0.9118800E+02  0.7815553E-02  0.1125453E+00
         25   -1    0    0    0    0  0.00000000000E+00  0.00000000000E+00  0.99999998245E-14  0.12509000000E+03  0.12509000000E+03 0.  0.
        -13    1    3    3    0    0 -0.29668254315E+01 -0.34236531811E+02 -0.12893262576E+02  0.36704080801E+02  0.10566000000E+00 0. -1.
         23    2    1    0    0    0 -0.69305443801E+01  0.25946199219E+02 -0.77327231153E+00  0.98223000738E+02  0.94477098942E+02 0.  0.
         13    1    3    3    0    0 -0.39637189487E+01  0.60182731030E+02  0.12119990264E+02  0.61518919936E+02  0.10566000000E+00 0.  1.
         22    1    1    0    0    0  0.69305443801E+01 -0.25946199219E+02  0.77327231153E+00  0.26866999262E+02  0.00000000000E+00 0.  1.
</event>
<event>
 5    1  0.1254496E-009  0.9118800E+02  0.7815553E-02  0.1125453E+00
         25   -1    0    0    0    0  0.00000000000E+00  0.00000000000E+00  0.99999998245E-14  0.12509000000E+03  0.12509000000E+03 0.  0.
        -13    1    3    3    0    0 -0.83578314338E+01 -0.23554724462E+02 -0.51238975850E+02  0.57009843018E+02  0.10566000000E+00 0.  1.
         23    2    1    0    0    0 -0.20341911832E+02 -0.28479040551E+01 -0.19396074699E+02  0.96839130133E+02  0.92626699589E+02 0.  0.
         13    1    3    3    0    0 -0.11984080399E+02  0.20706820407E+02  0.31842901151E+02  0.39829287115E+02  0.10566000000E+00 0. -1.
         22    1    1    0    0    0  0.20341911832E+02  0.28479040551E+01  0.19396074699E+02  0.28250869867E+02  0.00000000000E+00 0.  1.
</event>
<event>
 5    1  0.1254496E-009  0.9118800E+02  0.7815553E-02  0.1125453E+00
         25   -1    0    0    0    0  0.00000000000E+00  0.00000000000E+00  0.99999998245E-14  0.12509000000E+03  0.12509000000E+03 0.  0.
        -13    1    3    3    0    0  0.17591216976E+02  0.46630649142E+02  0.34453442729E+02  0.60588111325E+02  0.10566000000E+00 0. -1.
         23    2    1    0    0    0  0.55181757258E+01  0.15045016256E+02  0.24459214948E+02  0.95848659858E+02  0.91279294603E+02 0.  0.
         13    1    3    3    0    0 -0.12073041250E+02 -0.31585632886E+02 -0.99942277812E+01  0.35260548532E+02  0.10566000000E+00 0.  1.
         22    1    1    0    0    0 -0.55181757258E+01 -0.15045016256E+02 -0.24459214948E+02  0.29241340142E+02  0.00000000000E+00 0. -1.
</event>
<event>
 5    1  0.1254496E-009  0.9118800E+02  0.7815553E-02  0.1125453E+00
         25   -1    0    0    0    0  0.00000000000E+00  0.00000000000E+00  0.99999998245E-14  0.12509000000E+03  0.12509000000E+03 0.  0.
        -13    1    3    3    0    0 -0.27816641056E+02 -0.53060929094E+00  0.23640405183E+02  0.36509272618E+02  0.10566000000E+00 0. -1.
         23    2    1    0    0    0  0.19898449341E+02  0.19928576477E+02 -0.60068356447E+01  0.96294539923E+02  0.91888301203E+02 0.  0.
         13    1    3    3    0    0  0.47715090397E+02  0.20459185768E+02 -0.29647240828E+02  0.59785267304E+02  0.10566000000E+00 0.  1.
         22    1    1    0    0    0 -0.19898449341E+02 -0.19928576477E+02  0.60068356447E+01  0.28795460077E+02  0.00000000000E+00 0.  1.
</event>
<event>
 5    1  0.1254496E-009  0.9118800E+02  0.7815553E-02  0.1125453E+00
         25   -1    0    0    0    0  0.00000000000E+00  0.00000000000E+00  0.99999998245E-14  0.12509000000E+03  0.12509000000E+03 0.  0.
        -13    1    3    3    0    0 -0.44297305073E+02 -0.23326733594E+02 -0.26072213450E+02  0.56446073513E+02  0.10566000000E+00 0.  1.
         23    2    1    0    0    0 -0.18512870448E+02 -0.23527364263E+02  0.26386865572E+01  0.95036282956E+02  0.90159132482E+02 0.  0.
         13    1    3    3    0    0  0.25784434625E+02 -0.20063066952E+00  0.28710900007E+02  0.38590209443E+02  0.10566000000E+00 0. -1.
         22    1    1    0    0    0  0.18512870448E+02  0.23527364263E+02 -0.26386865572E+01  0.30053717044E+02  0.00000000000E+00 0.  1.
</event>
<event>
 5    1  0.1254496E-009  0.9118800E+02  0.7815553E-02  0.1125453E+00
         25   -1    0    0    0    0  0.00000000000E+00  0.00000000000E+00  0.99999998245E-14  0.12509000000E+03  0.12509000000E+03 0.  0.
        -13    1    3    3    0    0  0.13168224870E+02 -0.20624619697E+02 -0.52051550242E+02  0.57516537887E+02  0.10566000000E+00 0.  1.
         23    2    1    0    0    0  0.90075533279E+00  0.73903142236E+01 -0.27096775361E+02  0.96989050916E+02  0.92828942998E+02 0.  0.
         13    1    3    3    0    0 -0.12267469537E+02  0.28014933920E+02  0.24954774881E+02  0.39472513029E+02  0.10566000000E+00 0. -1.
         22    1    1    0    0    0 -0.90075533279E+00 -0.73903142236E+01  0.27096775361E+02  0.28100949084E+02  0.00000000000E+00 0.  1.
</event>
<event>
 5    1  0.1254496E-009  0.9118800E+02  0.7815553E-02  0.1125453E+00
         25   -1    0    0    0    0  0.00000000000E+00  0.00000000000E+00  0.99999998245E-14  0.12509000000E+03  0.12509000000E+03 0.  0.
        -13    1    3    3    0    0 -0.22754647865E+02 -0.19099836560E+02  0.19006960544E+02  0.35268306866E+02  0.10566000000E+00 0.  1.
         23    2    1    0    0    0  0.10701229873E+01  0.13820662297E+02 -0.25826776611E+02  0.95778257308E+02  0.91182763247E+02 0.  0.
         13    1    3    3    0    0  0.23824770852E+02  0.32920498856E+02 -0.44833737155E+02  0.60509950442E+02  0.10566000000E+00 0. -1.
         22    1    1    0    0    0 -0.10701229873E+01 -0.13820662297E+02  0.25826776611E+02  0.29311742692E+02  0.00000000000E+00 0. -1.
</event>
<event>
 5    1  0.1254496E-009  0.9118800E+02  0.7815553E-02  0.1125453E+00
         25   -1    0    0    0    0  0.00000000000E+00  0.00000000000E+00  0.99999998245E-14  0.12509000000E+03  0.12509000000E+03 0.  0.
        -13    1    3    3    0    0 -0.35580136092E+02 -0.28399431032E+02 -0.35769849605E+02  0.57896174934E+02  0.10566000000E+00 0.  1.
         23    2    1    0    0    0 -0.18290112458E+01 -0.20196985939E+02 -0.21749306264E+02  0.95352887730E+02  0.90597336343E+02 0.  0.
         13    1    3    3    0    0  0.33751124846E+02  0.82024450930E+01  0.14020543340E+02  0.37456712796E+02  0.10566000000E+00 0. -1.
         22    1    1    0    0    0  0.18290112458E+01  0.20196985939E+02  0.21749306264E+02  0.29737112270E+02  0.00000000000E+00 0.  1.
</event>
<event>
 5    1  0.1254496E-009  0.9118800E+02  0.7815553E-02  0.1125453E+00
         25   -1    0    0    0    0  0.00000000000E+00  0.00000000000E+00  0.99999998245E-14  0.12509000000E+03  0.12509000000E+03 0.  0.
        -13    1    3    3    0    0  0.49168489165E+02  0.84547765129E+01  0.32050353148E+02  0.59298059611E+02  0.10566000000E+00 0. -1.
         23    2    1    0    0    0  0.30075005466E+02  0.43174209860E+01  0.26586513487E+01  0.94590581895E+02  0.89538615572E+02 0.  0.
         13    1    3    3    0    0 -0.19093483699E+02 -0.41373555269E+01 -0.29391701799E+02  0.35292522285E+02  0.10566000000E+00 0.  1.
         22    1    1    0    0    0 -0.30075005466E+02 -0.43174209860E+01 -0.26586513487E+01  0.30499418105E+02  0.00000000000E+00 0. -1.
</event>
<event>
 5    1  0.1254496E-009  0.9118800E+02  0.7815553E-02  0.1125453E+00
         25   -1    0    0    0    0  0.00000000000E+00  0.00000000000E+00  0.99999998245E-14  0.12509000000E+03  0.12509000000E+03 0.  0.
        -13    1    3    3    0    0 -0.22842305736E+02 -0.47460768909E+01 -0.34495606462E+02  0.41644377849E+02  0.10566000000E+00 0. -1.
         23    2    1    0    0    0  0.17631620895E+02 -0.23411023097E+02 -0.43286667819E+01  0.95464210323E+02  0.90750912054E+02 0.  0.
         13    1    3    3    0    0  0.40473926632E+02 -0.18664946206E+02  0.30166939680E+02  0.53819832474E+02  0.10566000000E+00 0.  1.
         22    1    1    0    0    0 -0.17631620895E+02  0.23411023097E+02  0.43286667819E+01  0.29625789677E+02  0.00000000000E+00 0.  1.
</event>
<event>
 5    1  0.1254496E-009  0.9118800E+02  0.7815553E-02  0.1125453E+00
         25   -1    0    0    0    0  0.00000000000E+00  0.00000000000E+00  0.99999998245E-14  0.12509000000E+03  0.12509000000E+03 0.  0.
        -13    1    3    3    0    0  0.35502523654E+01  0.41626239273E+02 -0.19498223776E+02  0.46103578845E+02  0.10566000000E+00 0.  1.
         23    2    1    0    0    0  0.78642127176E+01 -0.15888108864E+02 -0.10524264291E+02  0.10447355065E+03  0.10241916228E+03 0.  0.
         13    1    3    3    0    0  0.43139603522E+01 -0.57514348137E+02  0.89739594854E+01  0.58369971804E+02  0.10566000000E+00 0. -1.
         22    1    1    0    0    0 -0.78642127176E+01  0.15888108864E+02  0.10524264291E+02  0.20616449350E+02  0.00000000000E+00 0. -1.
</event>
<event>
 5    1  0.1254496E-009  0.9118800E+02  0.7815553E-02  0.1125453E+00
         25   -1    0    0    0    0  0.00000000000E+00  0.00000000000E+00  0.99999998245E-14  0.12509000000E+03  0.12509000000E+03 0.  0.
        -13    1    3    3    0    0  0.16956223112E+02 -0.20419333848E+02 -0.16204828979E+02  0.31097754634E+02  0.10566000000E+00 0. -1.
         23    2    1    0    0    0  0.59967838552E+01  0.31087634083E+02  0.12473743885E+02  0.91060649492E+02  0.84463277167E+02 0.  0.
         13    1    3    3    0    0 -0.10959439256E+02  0.51506967931E+02  0.28678572864E+02  0.59962894858E+02  0.10566000000E+00 0.  1.
         22    1    1    0    0    0 -0.59967838552E+01 -0.31087634083E+02 -0.12473743885E+02  0.34029350508E+02  0.00000000000E+00 0.  1.
</event>
<event>
 5    1  0.1254496E-009  0.9118800E+02  0.7815553E-02  0.1125453E+00
         25   -1    0    0    0    0  0.00000000000E+00  0.00000000000E+00  0.99999998245E-14  0.12509000000E+03  0.12509000000E+03 0.  0.
        -13    1    3    3    0    0  0.11610457938E+02 -0.52476013748E+02  0.16215327125E+02  0.56138068636E+02  0.10566000000E+00 0.  1.
         23    2    1    0    0    0 -0.49591328385E+01 -0.17295130122E+02  0.23285522101E+02  0.95663310347E+02  0.91024935499E+02 0.  0.
         13    1    3    3    0    0 -0.16569590777E+02  0.35180883626E+02  0.70701949760E+01  0.39525241710E+02  0.10566000000E+00 0. -1.
         22    1    1    0    0    0  0.49591328385E+01  0.17295130122E+02 -0.23285522101E+02  0.29426689653E+02  0.00000000000E+00 0.  1.
</event>
<event>
 5    1  0.1254496E-009  0.9118800E+02  0.7815553E-02  0.1125453E+00
         25   -1    0    0    0    0  0.00000000000E+00  0.00000000000E+00  0.99999998245E-14  0.12509000000E+03  0.12509000000E+03 0.  0.
        -13    1    3    3    0    0  0.46340006118E+02  0.14401435533E+02 -0.33060595320E+02  0.58718069105E+02  0.10566000000E+00 0. -1.
         23    2    1    0    0    0  0.23561923216E+02 -0.84997024064E+01 -0.17220466950E+02  0.94693394127E+02  0.89682134467E+02 0.  0.
         13    1    3    3    0    0 -0.22778082902E+02 -0.22901137939E+02  0.15840128371E+02  0.35975325022E+02  0.10566000000E+00 0.  1.
         22    1    1    0    0    0 -0.23561923216E+02  0.84997024064E+01  0.17220466950E+02  0.30396605873E+02  0.00000000000E+00 0. -1.
</event>
<event>
 5    1  0.1254496E-009  0.9118800E+02  0.7815553E-02  0.1125453E+00
         25   -1    0    0    0    0  0.00000000000E+00  0.00000000000E+00  0.99999998245E-14  0.12509000000E+03  0.12509000000E+03 0.  0.
        -13    1    3    3    0    0  0.60472399470E+01  0.57176118866E+02  0.63333633545E+01  0.57842893556E+02  0.10566000000E+00 0. -1.
         23    2    1    0    0    0  0.19793135744E+02  0.25743021457E+02  0.69951575704E+00  0.92609841462E+02  0.86727285424E+02 0.  0.
         13    1    3    3    0    0  0.13745895797E+02 -0.31433097408E+02 -0.56338475975E+01  0.34766947906E+02  0.10566000000E+00 0.  1.
         22    1    1    0    0    0 -0.19793135744E+02 -0.25743021457E+02 -0.69951575704E+00  0.32480158538E+02  0.00000000000E+00 0. -1.
</event>
<event>
 5    1  0.1254496E-009  0.9118800E+02  0.7815553E-02  0.1125453E+00
         25   -1    0    0    0    0  0.00000000000E+00  0.00000000000E+00  0.99999998245E-14  0.12509000000E+03  0.12509000000E+03 0.  0.
        -13    1    3    3    0    0 -0.11469378886E+02  0.22483519243E+02  0.35010988608E+02  0.43160581285E+02  0.10566000000E+00 0. -1.
         23    2    1    0    0    0  0.20414213979E+02  0.20616636684E+02 -0.63222681047E+01  0.95395608029E+02  0.90656302135E+02 0.  0.
         13    1    3    3    0    0  0.31883592865E+02 -0.18668825593E+01 -0.41333256712E+02  0.52235026744E+02  0.10566000000E+00 0.  1.
         22    1    1    0    0    0 -0.20414213979E+02 -0.20616636684E+02  0.63222681047E+01  0.29694391971E+02  0.00000000000E+00 0.  1.
</event>
<event>
 5    1  0.1254496E-009  0.9118800E+02  0.7815553E-02  0.1125453E+00
         25   -1    0    0    0    0  0.00000000000E+00  0.00000000000E+00  0.99999998245E-14  0.12509000000E+03  0.12509000000E+03 0.  0.
        -13    1    3    3    0    0 -0.31696474411E+02 -0.84251992567E+01  0.36716372494E+02  0.49231632573E+02  0.10566000000E+00 0.  1.
         23    2    1    0    0    0  0.13746547348E+02 -0.81910663503E+01  0.23683521614E+02  0.96507307194E+02  0.92177491905E+02 0.  0.
         13    1    3    3    0    0  0.45443021760E+02  0.23413290631E+00 -0.13032850880E+02  0.47275674622E+02  0.10566000000E+00 0. -1.
         22    1    1    0    0    0 -0.13746547348E+02  0.81910663503E+01 -0.23683521614E+02  0.28582692806E+02  0.00000000000E+00 0.  1.
</event>
<event>
 5    1  0.1254496E-009  0.9118800E+02  0.7815553E-02  0.1125453E+00
         25   -1    0    0    0    0  0.00000000000E+00  0.00000000000E+00  0.99999998245E-14  0.12509000000E+03  0.12509000000E+03 0.  0.
        -13    1    3    3    0    0  0.41434072912E+02  0.23935541822E+02  0.14216407162E+02  0.49918032383E+02  0.10566000000E+00 0. -1.
         23    2    1    0    0    0  0.17583242010E+02 -0.17892121747E+02  0.43924628380E+00  0.10000033365E+03  0.96801732283E+02 0.  0.
         13    1    3    3    0    0 -0.23850830902E+02 -0.41827663569E+02 -0.13777160878E+02  0.50082301268E+02  0.10566000000E+00 0.  1.
         22    1    1    0    0    0 -0.17583242010E+02  0.17892121747E+02 -0.43924628380E+00  0.25089666349E+02  0.00000000000E+00 0.  1.
</event>
<event>
 5    1  0.1254496E-009  0.9118800E+02  0.7815553E-02  0.1125453E+00
         25   -1    0    0    0    0  0.00000000000E+00  0.00000000000E+00  0.99999998245E-14  0.12509000000E+03  0.12509000000E+03 0.  0.
        -13    1    3    3    0    0  0.40368792713E+02 -0.61958550508E+01 -0.76175000747E+00  0.40848738928E+02  0.10566000000E+00 0.  1.
         23    2    1    0    0    0 -0.51632873125E+01  0.38370808873E+01 -0.29018234937E+02  0.95367269902E+02  0.90617191990E+02 0.  0.
         13    1    3    3    0    0 -0.45532080026E+02  0.10032935938E+02 -0.28256484929E+02  0.54518530974E+02  0.10566000000E+00 0. -1.
         22    1    1    0    0    0  0.51632873125E+01 -0.38370808873E+01  0.29018234937E+02  0.29722730098E+02  0.00000000000E+00 0. -1.
</event>
<event>
 5    1  0.1254496E-009  0.9118800E+02  0.7815553E-02  0.1125453E+00
         25   -1    0    0    0    0  0.00000000000E+00  0.00000000000E+00  0.99999998245E-14  0.12509000000E+03  0.12509000000E+03 0.  0.
        -13    1    3    3    0    0 -0.21062995216E+01  0.37717229652E+02 -0.96932345717E+01  0.38999947061E+02  0.10566000000E+00 0.  1.
         23    2    1    0    0    0  0.24897465579E+02 -0.11360813620E+02 -0.12319081511E+02  0.95078141550E+02  0.90217189897E+02 0.  0.
         13    1    3    3    0    0  0.27003765100E+02 -0.49078043272E+02 -0.26258469392E+01  0.56078194489E+02  0.10566000000E+00 0. -1.
         22    1    1    0    0    0 -0.24897465579E+02  0.11360813620E+02  0.12319081511E+02  0.30011858450E+02  0.00000000000E+00 0. -1.
</event>
<event>
 5    1  0.1254496E-009  0.9118800E+02  0.7815553E-02  0.1125453E+00
         25   -1    0    0    0    0  0.00000000000E+00  0.00000000000E+00  0.99999998245E-14  0.12509000000E+03  0.12509000000E+03 0.  0.
        -13    1    3    3    0    0  0.11193888103E+02  0.22872836945E+02 -0.22530684551E+02  0.34001657477E+02  0.10566000000E+00 0.  1.
         23    2    1    0    0    0 -0.15419735182E+02 -0.19786871112E+02  0.14195032514E+02  0.96266616272E+02  0.91850280124E+02 0.  0.
         13    1    3    3    0    0 -0.26613623285E+02 -0.42659708057E+02  0.36725717065E+02  0.62264958795E+02  0.10566000000E+00 0. -1.
         22    1    1    0    0    0  0.15419735182E+02  0.19786871112E+02 -0.14195032514E+02  0.28823383728E+02  0.00000000000E+00 0. -1.
</event>
<event>
 5    1  0.1254496E-009  0.9118800E+02  0.7815553E-02  0.1125453E+00
         25   -1    0    0    0    0  0.00000000000E+00  0.00000000000E+00  0.99999998245E-14  0.12509000000E+03  0.12509000000E+03 0.  0.
        -13    1    3    3    0    0  0.15544400505E+02 -0.22172982652E+02 -0.56199270637E+02  0.62383000337E+02  0.10566000000E+00 0.  1.
         23    2    1    0    0    0  0.79058980712E+01 -0.16392084168E+02 -0.35227778988E+02  0.85439021953E+02  0.75681083582E+02 0.  0.
         13    1    3    3    0    0 -0.76385024341E+01  0.57808984845E+01  0.20971491649E+02  0.23056021616E+02  0.10566000000E+00 0. -1.
         22    1    1    0    0    0 -0.79058980712E+01  0.16392084168E+02  0.35227778988E+02  0.39650978047E+02  0.00000000000E+00 0.  1.
</event>
<event>
 5    1  0.1254496E-009  0.9118800E+02  0.7815553E-02  0.1125453E+00
         25   -1    0    0    0    0  0.00000000000E+00  0.00000000000E+00  0.99999998245E-14  0.12509000000E+03  0.12509000000E+03 0.  0.
        -13    1    3    3    0    0 -0.27002958154E+01  0.41235738473E+02 -0.99356433513E+01  0.42501834052E+02  0.10566000000E+00 0.  1.
         23    2    1    0    0    0 -0.19793414832E+02 -0.13152631843E+02  0.34837090566E+01  0.10107110694E+03  0.98175666200E+02 0.  0.
         13    1    3    3    0    0 -0.17093119017E+02 -0.54388370316E+02  0.13419352408E+02  0.58569272887E+02  0.10566000000E+00 0. -1.
         22    1    1    0    0    0  0.19793414832E+02  0.13152631843E+02 -0.34837090566E+01  0.24018893062E+02  0.00000000000E+00 0. -1.
</event>
<event>
 5    1  0.1254496E-009  0.9118800E+02  0.7815553E-02  0.1125453E+00
         25   -1    0    0    0    0  0.00000000000E+00  0.00000000000E+00  0.99999998245E-14  0.12509000000E+03  0.12509000000E+03 0.  0.
        -13    1    3    3    0    0  0.21695248026E+02  0.80421415031E+01 -0.53717789698E+02  0.58489075227E+02  0.10566000000E+00 0. -1.
         23    2    1    0    0    0 -0.15619648710E+01  0.14733272620E+02 -0.24843703442E+02  0.96163910443E+02  0.91710299393E+02 0.  0.
         13    1    3    3    0    0 -0.23257212897E+02  0.66911311167E+01  0.28874086257E+02  0.37674835216E+02  0.10566000000E+00 0.  1.
         22    1    1    0    0    0  0.15619648710E+01 -0.14733272620E+02  0.24843703442E+02  0.28926089557E+02  0.00000000000E+00 0. -1.
</event>
<event>
 5    1  0.1254496E-009  0.9118800E+02  0.7815553E-02  0.1125453E+00
         25   -1    0    0    0    0  0.00000000000E+00  0.00000000000E+00  0.99999998245E-14  0.12509000000E+03  0.12509000000E+03 0.  0.
        -13    1    3    3    0    0 -0.21062816522E+01 -0.40879163987E+02  0.15763534107E+02  0.43863910476E+02  0.10566000000E+00 0. -1.
         23    2    1    0    0    0 -0.25025040457E+02  0.72643398868E+01  0.85213283073E+01  0.97674013423E+02  0.93747408381E+02 0.  0.
         13    1    3    3    0    0 -0.22918758805E+02  0.48143503873E+02 -0.72422057999E+01  0.53810102948E+02  0.10566000000E+00 0.  1.
         22    1    1    0    0    0  0.25025040457E+02 -0.72643398868E+01 -0.85213283073E+01  0.27415986577E+02  0.00000000000E+00 0.  1.
</event>
<event>
 5    1  0.1254496E-009  0.9118800E+02  0.7815553E-02  0.1125453E+00
         25   -1    0    0    0    0  0.00000000000E+00  0.00000000000E+00  0.99999998245E-14  0.12509000000E+03  0.12509000000E+03 0.  0.
        -13    1    3    3    0    0  0.12351890913E+02  0.35278920382E+02  0.38757121573E+02  0.53845121126E+02  0.10566000000E+00 0.  1.
         23    2    1    0    0    0  0.57046290519E+01  0.27389884419E+02 -0.30872680306E+01  0.96942535017E+02  0.92766240144E+02 0.  0.
         13    1    3    3    0    0 -0.66472618607E+01 -0.78890359635E+01 -0.41844389604E+02  0.43097413890E+02  0.10566000000E+00 0. -1.
         22    1    1    0    0    0 -0.57046290519E+01 -0.27389884419E+02  0.30872680306E+01  0.28147464983E+02  0.00000000000E+00 0.  1.
</event>
<event>
 5    1  0.1254496E-009  0.9118800E+02  0.7815553E-02  0.1125453E+00
         25   -1    0    0    0    0  0.00000000000E+00  0.00000000000E+00  0.99999998245E-14  0.12509000000E+03  0.12509000000E+03 0.  0.
        -13    1    3    3    0    0  0.17541876870E+02 -0.33958576538E+02 -0.41017645163E+02  0.56065682403E+02  0.10566000000E+00 0. -1.
         23    2    1    0    0    0  0.24303046905E+02 -0.22380239925E+02 -0.88933894683E+01  0.90875885892E+02  0.84189197838E+02 0.  0.
         13    1    3    3    0    0  0.67611700347E+01  0.11578336613E+02  0.32124255694E+02  0.34810203489E+02  0.10566000000E+00 0.  1.
         22    1    1    0    0    0 -0.24303046905E+02  0.22380239925E+02  0.88933894683E+01  0.34214114108E+02  0.00000000000E+00 0. -1.
</event>
<event>
 5    1  0.1254496E-009  0.9118800E+02  0.7815553E-02  0.1125453E+00
         25   -1    0    0    0    0  0.00000000000E+00  0.00000000000E+00  0.99999998245E-14  0.12509000000E+03  0.12509000000E+03 0.  0.
        -13    1    3    3    0    0 -0.42572382438E+02 -0.33419940562E+02 -0.34870834880E+00  0.54124236117E+02  0.10566000000E+00 0. -1.
         23    2    1    0    0    0 -0.23532493638E+02  0.68344339335E+01  0.77580660441E+01  0.99386394557E+02  0.96005104501E+02 0.  0.
         13    1    3    3    0    0  0.19039888800E+02  0.40254374496E+02  0.81067743929E+01  0.45262158440E+02  0.10566000000E+00 0.  1.
         22    1    1    0    0    0  0.23532493638E+02 -0.68344339335E+01 -0.77580660441E+01  0.25703605443E+02  0.00000000000E+00 0. -1.
</event>
<event>
 5    1  0.1254496E-009  0.9118800E+02  0.7815553E-02  0.1125453E+00
         25   -1    0    0    0    0  0.00000000000E+00  0.00000000000E+00  0.99999998245E-14  0.12509000000E+03  0.12509000000E+03 0.  0.
        -13    1    3    3    0    0  0.37772452652E+02  0.19512795952E+02 -0.33445011067E+02  0.54093320424E+02  0.10566000000E+00 0.  1.
         23    2    1    0    0    0  0.14016160324E+02 -0.13538866011E+02 -0.20499613159E+02  0.96805944726E+02  0.92581872693E+02 0.  0.
         13    1    3    3    0    0 -0.23756292328E+02 -0.33051661963E+02  0.12945397908E+02  0.42712624301E+02  0.10566000000E+00 0. -1.
         22    1    1    0    0    0 -0.14016160324E+02  0.13538866011E+02  0.20499613159E+02  0.28284055274E+02  0.00000000000E+00 0.  1.
</event>
<event>
 5    1  0.1254496E-009  0.9118800E+02  0.7815553E-02  0.1125453E+00
         25   -1    0    0    0    0  0.00000000000E+00  0.00000000000E+00  0.99999998245E-14  0.12509000000E+03  0.12509000000E+03 0.  0.
        -13    1    3    3    0    0  0.21362855245E+02 -0.14982947637E+02  0.20084492505E+02  0.32928077796E+02  0.10566000000E+00 0.  1.
         23    2    1    0    0    0 -0.18163473929E+02  0.64140087481E+01 -0.22931382038E+02  0.95141718321E+02  0.90305298789E+02 0.  0.
         13    1    3    3    0    0 -0.39526329174E+02  0.21396956385E+02 -0.43015874543E+02  0.62213640524E+02  0.10566000000E+00 0. -1.
         22    1    1    0    0    0  0.18163473929E+02 -0.64140087481E+01  0.22931382038E+02  0.29948281679E+02  0.00000000000E+00 0. -1.
</event>
<event>
 5    1  0.1254496E-009  0.9118800E+02  0.7815553E-02  0.1125453E+00
         25   -1    0    0    0    0  0.00000000000E+00  0.00000000000E+00  0.99999998245E-14  0.12509000000E+03  0.12509000000E+03 0.  0.
        -13    1    3    3    0    0 -0.20220687684E+02 -0.36417581517E+02  0.27115233897E+02  0.49702751707E+02  0.10566000000E+00 0. -1.
         23    2    1    0    0    0 -0.15913072448E+02 -0.17572435076E+02 -0.15683513375E+02  0.96664853720E+02  0.92391043958E+02 0.  0.
         13    1    3    3    0    0  0.43076152364E+01  0.18845146441E+02 -0.42798747272E+02  0.46962102013E+02  0.10566000000E+00 0.  1.
         22    1    1    0    0    0  0.15913072448E+02  0.17572435076E+02  0.15683513375E+02  0.28425146280E+02  0.00000000000E+00 0.  1.
</event>
<event>
 5    1  0.1254496E-009  0.9118800E+02  0.7815553E-02  0.1125453E+00
         25   -1    0    0    0    0  0.00000000000E+00  0.00000000000E+00  0.99999998245E-14  0.12509000000E+03  0.12509000000E+03 0.  0.
        -13    1    3    3    0    0 -0.23823783167E+02 -0.21411738966E+02  0.13922389120E+02  0.34926770432E+02  0.10566000000E+00 0.  1.
         23    2    1    0    0    0  0.86399838796E+01  0.27695611751E+02 -0.22938943593E+01  0.95987454011E+02  0.91469301651E+02 0.  0.
         13    1    3    3    0    0  0.32463767047E+02  0.49107350717E+02 -0.16216283479E+02  0.61060683580E+02  0.10566000000E+00 0. -1.
         22    1    1    0    0    0 -0.86399838796E+01 -0.27695611751E+02  0.22938943593E+01  0.29102545989E+02  0.00000000000E+00 0. -1.
</event>
<event>
 5    1  0.1254496E-009  0.9118800E+02  0.7815553E-02  0.1125453E+00
         25   -1    0    0    0    0  0.00000000000E+00  0.00000000000E+00  0.99999998245E-14  0.12509000000E+03  0.12509000000E+03 0.  0.
        -13    1    3    3    0    0 -0.33218873724E+02  0.80450081875E+01 -0.92911832177E+01  0.35419669364E+02  0.10566000000E+00 0.  1.
         23    2    1    0    0    0  0.17166924795E+02 -0.11850700430E+02  0.19297906210E+02  0.96672547762E+02  0.92401460482E+02 0.  0.
         13    1    3    3    0    0  0.50385798519E+02 -0.19895708617E+02  0.28589089428E+02  0.61252878399E+02  0.10566000000E+00 0. -1.
         22    1    1    0    0    0 -0.17166924795E+02  0.11850700430E+02 -0.19297906210E+02  0.28417452238E+02  0.00000000000E+00 0. -1.
</event>
<event>
 5    1  0.1254496E-009  0.9118800E+02  0.7815553E-02  0.1125453E+00
         25   -1    0    0    0    0  0.00000000000E+00  0.00000000000E+00  0.99999998245E-14  0.12509000000E+03  0.12509000000E+03 0.  0.
        -13    1    3    3    0    0  0.46876793448E+02 -0.25883147637E+02 -0.20915077501E+02  0.57487587586E+02  0.10566000000E+00 0.  1.
         23    2    1    0    0    0  0.13112798345E+02 -0.25896917717E+02 -0.24798122675E+01  0.95956766459E+02  0.91427324869E+02 0.  0.
         13    1    3    3    0    0 -0.33763995103E+02 -0.13770080669E-01  0.18435265233E+02  0.38469178873E+02  0.10566000000E+00 0. -1.
         22    1    1    0    0    0 -0.13112798345E+02  0.25896917717E+02  0.24798122675E+01  0.29133233541E+02  0.00000000000E+00 0.  1.
</event>
<event>
 5    1  0.1254496E-009  0.9118800E+02  0.7815553E-02  0.1125453E+00
         25   -1    0    0    0    0  0.00000000000E+00  0.00000000000E+00  0.99999998245E-14  0.12509000000E+03  0.12509000000E+03 0.  0.
        -13    1    3    3    0    0 -0.15045005943E+02 -0.35878927932E+02  0.39605735292E+02  0.55518241195E+02  0.10566000000E+00 0.  1.
         23    2    1    0    0    0  0.11734034330E+02 -0.93469160616E+01  0.24976496539E+02  0.95954492782E+02  0.91424213992E+02 0.  0.
         13    1    3    3    0    0  0.26779040273E+02  0.26532011870E+02 -0.14629238753E+02  0.40436251586E+02  0.10566000000E+00 0. -1.
         22    1    1    0    0    0 -0.11734034330E+02  0.93469160616E+01 -0.24976496539E+02  0.29135507218E+02  0.00000000000E+00 0.  1.
</event>
<event>
 5    1  0.1254496E-009  0.9118800E+02  0.7815553E-02  0.1125453E+00
         25   -1    0    0    0    0  0.00000000000E+00  0.00000000000E+00  0.99999998245E-14  0.12509000000E+03  0.12509000000E+03 0.  0.
        -13    1    3    3    0    0 -0.20469134750E+02 -0.20264329809E+02 -0.28731074287E+02  0.40683096413E+02  0.10566000000E+00 0. -1.
         23    2    1    0    0    0  0.17299468962E+01 -0.17346901876E+02  0.22519616750E+02  0.96611220891E+02  0.92318400888E+02 0.  0.
         13    1    3    3    0    0  0.22199081647E+02  0.29174279328E+01  0.51250691038E+02  0.55928124477E+02  0.10566000000E+00 0.  1.
         22    1    1    0    0    0 -0.17299468962E+01  0.17346901876E+02 -0.22519616750E+02  0.28478779109E+02  0.00000000000E+00 0.  1.
</event>
<event>
 5    1  0.1254496E-009  0.9118800E+02  0.7815553E-02  0.1125453E+00
         25   -1    0    0    0    0  0.00000000000E+00  0.00000000000E+00  0.99999998245E-14  0.12509000000E+03  0.12509000000E+03 0.  0.
        -13    1    3    3    0    0  0.11051221724E+02  0.23149784636E+02  0.53446313100E+02  0.59283737891E+02  0.10566000000E+00 0.  1.
         23    2    1    0    0    0 -0.76466019831E+01  0.16904075576E+02  0.23262591283E+02  0.95334892100E+02  0.90572485919E+02 0.  0.
         13    1    3    3    0    0 -0.18697823707E+02 -0.62457090597E+01 -0.30183721817E+02  0.36051154209E+02  0.10566000000E+00 0. -1.
         22    1    1    0    0    0  0.76466019831E+01 -0.16904075576E+02 -0.23262591283E+02  0.29755107900E+02  0.00000000000E+00 0.  1.
</event>
<event>
 5    1  0.1254496E-009  0.9118800E+02  0.7815553E-02  0.1125453E+00
         25   -1    0    0    0    0  0.00000000000E+00  0.00000000000E+00  0.99999998245E-14  0.12509000000E+03  0.12509000000E+03 0.  0.
        -13    1    3    3    0    0 -0.96300280406E+01 -0.95580899489E+01 -0.37702175197E+02  0.40069436010E+02  0.10566000000E+00 0.  1.
         23    2    1    0    0    0  0.22925463754E+02 -0.20375206630E+02  0.40996254033E+01  0.94145972111E+02  0.88915303535E+02 0.  0.
         13    1    3    3    0    0  0.32555491794E+02 -0.10817116681E+02  0.41801800600E+02  0.54076536101E+02  0.10566000000E+00 0. -1.
         22    1    1    0    0    0 -0.22925463754E+02  0.20375206630E+02 -0.40996254033E+01  0.30944027889E+02  0.00000000000E+00 0. -1.
</event>
<event>
 5    1  0.1254496E-009  0.9118800E+02  0.7815553E-02  0.1125453E+00
         25   -1    0    0    0    0  0.00000000000E+00  0.00000000000E+00  0.99999998245E-14  0.12509000000E+03  0.12509000000E+03 0.  0.
        -13    1    3    3    0    0  0.41677433232E+02 -0.77044390772E+00  0.10068329464E+02  0.42883381942E+02  0.10566000000E+00 0.  1.
         23    2    1    0    0    0 -0.54377436748E+01  0.49849289382E+01  0.29876504974E+02  0.94316242961E+02  0.89154526324E+02 0.  0.
         13    1    3    3    0    0 -0.47115176906E+02  0.57553728459E+01  0.19808175510E+02  0.51432861019E+02  0.10566000000E+00 0. -1.
         22    1    1    0    0    0  0.54377436748E+01 -0.49849289382E+01 -0.29876504974E+02  0.30773757039E+02  0.00000000000E+00 0.  1.
</event>
<event>
 5    1  0.1254496E-009  0.9118800E+02  0.7815553E-02  0.1125453E+00
         25   -1    0    0    0    0  0.00000000000E+00  0.00000000000E+00  0.99999998245E-14  0.12509000000E+03  0.12509000000E+03 0.  0.
        -13    1    3    3    0    0 -0.34922266309E+02  0.91811391937E+01 -0.17988182636E+02  0.40341589949E+02  0.10566000000E+00 0.  1.
         23    2    1    0    0    0 -0.73416308113E+01 -0.14323217219E+02  0.24244005711E+02  0.95989726679E+02  0.91472409613E+02 0.  0.
         13    1    3    3    0    0  0.27580635498E+02 -0.23504356413E+02  0.42232188347E+02  0.55648136729E+02  0.10566000000E+00 0. -1.
         22    1    1    0    0    0  0.73416308113E+01  0.14323217219E+02 -0.24244005711E+02  0.29100273321E+02  0.00000000000E+00 0. -1.
</event>
<event>
 5    1  0.1254496E-009  0.9118800E+02  0.7815553E-02  0.1125453E+00
         25   -1    0    0    0    0  0.00000000000E+00  0.00000000000E+00  0.99999998245E-14  0.12509000000E+03  0.12509000000E+03 0.  0.
        -13    1    3    3    0    0 -0.26216560510E+02 -0.56080357795E+02  0.83133682768E+01  0.62461490789E+02  0.10566000000E+00 0.  1.
         23    2    1    0    0    0 -0.12163102293E+02 -0.27042968314E+02  0.62437722340E+01  0.94787394760E+02  0.89813152273E+02 0.  0.
         13    1    3    3    0    0  0.14053458217E+02  0.29037389481E+02 -0.20695960428E+01  0.32325903972E+02  0.10566000000E+00 0. -1.
         22    1    1    0    0    0  0.12163102293E+02  0.27042968314E+02 -0.62437722340E+01  0.30302605240E+02  0.00000000000E+00 0.  1.
</event>
<event>
 5    1  0.1254496E-009  0.9118800E+02  0.7815553E-02  0.1125453E+00
         25   -1    0    0    0    0  0.00000000000E+00  0.00000000000E+00  0.99999998245E-14  0.12509000000E+03  0.12509000000E+03 0.  0.
        -13    1    3    3    0    0  0.43532804513E+02  0.29548317710E+02  0.31620946597E+02  0.61384880679E+02  0.10566000000E+00 0.  1.
         23    2    1    0    0    0  0.25347318978E+02  0.14040264051E+02  0.79048575877E+01  0.95054980981E+02  0.90185071058E+02 0.  0.
         13    1    3    3    0    0 -0.18185485534E+02 -0.15508053660E+02 -0.23716089009E+02  0.33670100302E+02  0.10566000000E+00 0. -1.
         22    1    1    0    0    0 -0.25347318978E+02 -0.14040264051E+02 -0.79048575877E+01  0.30035019019E+02  0.00000000000E+00 0.  1.
</event>
<event>
 5    1  0.1254496E-009  0.9118800E+02  0.7815553E-02  0.1125453E+00
         25   -1    0    0    0    0  0.00000000000E+00  0.00000000000E+00  0.99999998245E-14  0.12509000000E+03  0.12509000000E+03 0.  0.
        -13    1    3    3    0    0  0.53794032100E+02 -0.18532048462E+01 -0.29640211695E+02  0.61447421192E+02  0.10566000000E+00 0.  1.
         23    2    1    0    0    0  0.31868178844E+02 -0.37189009170E+01 -0.86461633570E+01  0.91860988765E+02  0.85640376396E+02 0.  0.
         13    1    3    3    0    0 -0.21925853257E+02 -0.18656960709E+01  0.20994048338E+02  0.30413567573E+02  0.10566000000E+00 0. -1.
         22    1    1    0    0    0 -0.31868178844E+02  0.37189009170E+01  0.86461633570E+01  0.33229011235E+02  0.00000000000E+00 0.  1.
</event>
<event>
 5    1  0.1254496E-009  0.9118800E+02  0.7815553E-02  0.1125453E+00
         25   -1    0    0    0    0  0.00000000000E+00  0.00000000000E+00  0.99999998245E-14  0.12509000000E+03  0.12509000000E+03 0.  0.
        -13    1    3    3    0    0  0.33728003420E+02 -0.19196071617E+02 -0.12488583140E+02  0.40768164701E+02  0.10566000000E+00 0. -1.
         23    2    1    0    0    0  0.33937602169E+01  0.26570797916E+02 -0.12150874817E+02  0.95676250339E+02  0.91042716402E+02 0.  0.
         13    1    3    3    0    0 -0.30334243203E+02  0.45766869533E+02  0.33770832340E+00  0.54908085638E+02  0.10566000000E+00 0.  1.
         22    1    1    0    0    0 -0.33937602169E+01 -0.26570797916E+02  0.12150874817E+02  0.29413749661E+02  0.00000000000E+00 0. -1.
</event>
<event>
 5    1  0.1254496E-009  0.9118800E+02  0.7815553E-02  0.1125453E+00
         25   -1    0    0    0    0  0.00000000000E+00  0.00000000000E+00  0.99999998245E-14  0.12509000000E+03  0.12509000000E+03 0.  0.
        -13    1    3    3    0    0 -0.14259146773E+02 -0.20799521850E+02  0.18301913257E+02  0.31159502062E+02  0.10566000000E+00 0. -1.
         23    2    1    0    0    0  0.21326038311E+02  0.11996748681E+02 -0.20484960118E+02  0.93178317500E+02  0.87543379945E+02 0.  0.
         13    1    3    3    0    0  0.35585185084E+02  0.32796270531E+02 -0.38786873374E+02  0.62018815438E+02  0.10566000000E+00 0.  1.
         22    1    1    0    0    0 -0.21326038311E+02 -0.11996748681E+02  0.20484960118E+02  0.31911682500E+02  0.00000000000E+00 0.  1.
</event>
<event>
 5    1  0.1254496E-009  0.9118800E+02  0.7815553E-02  0.1125453E+00
         25   -1    0    0    0    0  0.00000000000E+00  0.00000000000E+00  0.99999998245E-14  0.12509000000E+03  0.12509000000E+03 0.  0.
        -13    1    3    3    0    0  0.27716309599E+02 -0.37939758243E+02 -0.30729748870E+01  0.47085809030E+02  0.10566000000E+00 0.  1.
         23    2    1    0    0    0  0.29116075846E+02 -0.65335361474E+01  0.22586425093E+02  0.87665682160E+02  0.79276051004E+02 0.  0.
         13    1    3    3    0    0  0.13997662479E+01  0.31406222096E+02  0.25659399980E+02  0.40579873130E+02  0.10566000000E+00 0. -1.
         22    1    1    0    0    0 -0.29116075846E+02  0.65335361474E+01 -0.22586425093E+02  0.37424317840E+02  0.00000000000E+00 0. -1.
</event>
<event>
 5    1  0.1254496E-009  0.9118800E+02  0.7815553E-02  0.1125453E+00
         25   -1    0    0    0    0  0.00000000000E+00  0.00000000000E+00  0.99999998245E-14  0.12509000000E+03  0.12509000000E+03 0.  0.
        -13    1    3    3    0    0 -0.67206267331E+01  0.17077738801E+02 -0.51250129373E+02  0.54437146426E+02  0.10566000000E+00 0. -1.
         23    2    1    0    0    0  0.11236472080E+02 -0.85417667228E+01 -0.29028315573E+02  0.92812094421E+02  0.87018513445E+02 0.  0.
         13    1    3    3    0    0  0.17957098813E+02 -0.25619505524E+02  0.22221813799E+02  0.38374947995E+02  0.10566000000E+00 0.  1.
         22    1    1    0    0    0 -0.11236472080E+02  0.85417667228E+01  0.29028315573E+02  0.32277905579E+02  0.00000000000E+00 0. -1.
</event>
<event>
 5    1  0.1254496E-009  0.9118800E+02  0.7815553E-02  0.1125453E+00
         25   -1    0    0    0    0  0.00000000000E+00  0.00000000000E+00  0.99999998245E-14  0.12509000000E+03  0.12509000000E+03 0.  0.
        -13    1    3    3    0    0 -0.41343791426E+02 -0.16747740795E+02  0.16878640465E+02  0.47693768767E+02  0.10566000000E+00 0.  1.
         23    2    1    0    0    0  0.48553523658E+01 -0.26399372505E+02  0.13586740560E+02  0.95005106211E+02  0.90115866372E+02 0.  0.
         13    1    3    3    0    0  0.46199143792E+02 -0.96516317098E+01 -0.32918999046E+01  0.47311337444E+02  0.10566000000E+00 0. -1.
         22    1    1    0    0    0 -0.48553523658E+01  0.26399372505E+02 -0.13586740560E+02  0.30084893789E+02  0.00000000000E+00 0.  1.
</event>
<event>
 5    1  0.1254496E-009  0.9118800E+02  0.7815553E-02  0.1125453E+00
         25   -1    0    0    0    0  0.00000000000E+00  0.00000000000E+00  0.99999998245E-14  0.12509000000E+03  0.12509000000E+03 0.  0.
        -13    1    3    3    0    0 -0.29032409011E+01 -0.16807724551E+02  0.32161695502E+02  0.36404865525E+02  0.10566000000E+00 0.  1.
         23    2    1    0    0    0 -0.11890351887E+02  0.17931865531E+02 -0.17278868614E+02  0.97494863291E+02  0.93508057397E+02 0.  0.
         13    1    3    3    0    0 -0.89871109862E+01  0.34739590082E+02 -0.49440564116E+02  0.61089997766E+02  0.10566000000E+00 0. -1.
         22    1    1    0    0    0  0.11890351887E+02 -0.17931865531E+02  0.17278868614E+02  0.27595136709E+02  0.00000000000E+00 0. -1.
</event>
<event>
 5    1  0.1254496E-009  0.9118800E+02  0.7815553E-02  0.1125453E+00
         25   -1    0    0    0    0  0.00000000000E+00  0.00000000000E+00  0.99999998245E-14  0.12509000000E+03  0.12509000000E+03 0.  0.
        -13    1    3    3    0    0 -0.34204213191E+02 -0.11823381175E+02  0.12638790590E+02  0.38333676240E+02  0.10566000000E+00 0. -1.
         23    2    1    0    0    0  0.20689870101E+00  0.10399762044E+02 -0.27502399594E+02  0.95686261444E+02  0.91056470325E+02 0.  0.
         13    1    3    3    0    0  0.34411111892E+02  0.22223143219E+02 -0.40141190184E+02  0.57352585204E+02  0.10566000000E+00 0.  1.
         22    1    1    0    0    0 -0.20689870101E+00 -0.10399762044E+02  0.27502399594E+02  0.29403738556E+02  0.00000000000E+00 0.  1.
</event>
<event>
 5    1  0.1254496E-009  0.9118800E+02  0.7815553E-02  0.1125453E+00
         25   -1    0    0    0    0  0.00000000000E+00  0.00000000000E+00  0.99999998245E-14  0.12509000000E+03  0.12509000000E+03 0.  0.
        -13    1    3    3    0    0  0.40394351976E+02  0.11998565312E+02  0.19990116009E+02  0.46639952221E+02  0.10566000000E+00 0. -1.
         23    2    1    0    0    0 -0.10474033204E+02  0.57648258071E+01  0.24236979390E+02  0.98064646014E+02  0.94267200233E+02 0.  0.
         13    1    3    3    0    0 -0.50868385180E+02 -0.62337395045E+01  0.42468633805E+01  0.51424693793E+02  0.10566000000E+00 0.  1.
         22    1    1    0    0    0  0.10474033204E+02 -0.57648258071E+01 -0.24236979390E+02  0.27025353986E+02  0.00000000000E+00 0.  1.
</event>
<event>
 5    1  0.1254496E-009  0.9118800E+02  0.7815553E-02  0.1125453E+00
         25   -1    0    0    0    0  0.00000000000E+00  0.00000000000E+00  0.99999998245E-14  0.12509000000E+03  0.12509000000E+03 0.  0.
        -13    1    3    3    0    0  0.93902372162E+01 -0.18062676596E+02  0.30369934048E+02  0.36562014426E+02  0.10566000000E+00 0.  1.
         23    2    1    0    0    0  0.20389840674E+02 -0.10080288966E+02 -0.23656937959E+02  0.92272191695E+02  0.86238905480E+02 0.  0.
         13    1    3    3    0    0  0.10999603457E+02  0.79823876294E+01 -0.54026872007E+02  0.55710177269E+02  0.10566000000E+00 0. -1.
         22    1    1    0    0    0 -0.20389840674E+02  0.10080288966E+02  0.23656937959E+02  0.32817808305E+02  0.00000000000E+00 0. -1.
</event>
<event>
 5    1  0.1254496E-009  0.9118800E+02  0.7815553E-02  0.1125453E+00
         25   -1    0    0    0    0  0.00000000000E+00  0.00000000000E+00  0.99999998245E-14  0.12509000000E+03  0.12509000000E+03 0.  0.
        -13    1    3    3    0    0  0.54645825065E+00 -0.53174030011E+02 -0.23530353930E+02  0.58150363751E+02  0.10566000000E+00 0. -1.
         23    2    1    0    0    0  0.53072252607E+01 -0.30507941910E+02  0.37059493469E+01  0.93902899781E+02  0.88572678446E+02 0.  0.
         13    1    3    3    0    0  0.47607670101E+01  0.22666088101E+02  0.27236303277E+02  0.35752536030E+02  0.10566000000E+00 0.  1.
         22    1    1    0    0    0 -0.53072252607E+01  0.30507941910E+02 -0.37059493469E+01  0.31187100219E+02  0.00000000000E+00 0. -1.
</event>
<event>
 5    1  0.1254496E-009  0.9118800E+02  0.7815553E-02  0.1125453E+00
         25   -1    0    0    0    0  0.00000000000E+00  0.00000000000E+00  0.99999998245E-14  0.12509000000E+03  0.12509000000E+03 0.  0.
        -13    1    3    3    0    0  0.86552257248E+01  0.18527175081E+02 -0.35970584066E+02  0.41377085819E+02  0.10566000000E+00 0.  1.
         23    2    1    0    0    0  0.54986499632E+01  0.20962787305E+02  0.18864929809E+02  0.96357454347E+02  0.91973908411E+02 0.  0.
         13    1    3    3    0    0 -0.31565757616E+01  0.24356122239E+01  0.54835513875E+02  0.54980368527E+02  0.10566000000E+00 0. -1.
         22    1    1    0    0    0 -0.54986499632E+01 -0.20962787305E+02 -0.18864929809E+02  0.28732545653E+02  0.00000000000E+00 0. -1.
</event>
<event>
 5    1  0.1254496E-009  0.9118800E+02  0.7815553E-02  0.1125453E+00
         25   -1    0    0    0    0  0.00000000000E+00  0.00000000000E+00  0.99999998245E-14  0.12509000000E+03  0.12509000000E+03 0.  0.
        -13    1    3    3    0    0  0.54835175836E+02 -0.92142323108E+01  0.22206107377E+02  0.59874209431E+02  0.10566000000E+00 0. -1.
         23    2    1    0    0    0  0.22135690497E+02  0.40507516902E+01  0.19582325161E+02  0.95259397564E+02  0.90468160048E+02 0.  0.
         13    1    3    3    0    0 -0.32699485340E+02  0.13264984001E+02 -0.26237822160E+01  0.35385188133E+02  0.10566000000E+00 0.  1.
         22    1    1    0    0    0 -0.22135690497E+02 -0.40507516902E+01 -0.19582325161E+02  0.29830602436E+02  0.00000000000E+00 0. -1.
</event>
<event>
 5    1  0.1254496E-009  0.9118800E+02  0.7815553E-02  0.1125453E+00
         25   -1    0    0    0    0  0.00000000000E+00  0.00000000000E+00  0.99999998245E-14  0.12509000000E+03  0.12509000000E+03 0.  0.
        -13    1    3    3    0    0 -0.30342246551E+02 -0.27302318112E+01  0.25525696127E+02  0.39745168490E+02  0.10566000000E+00 0.  1.
         23    2    1    0    0    0  0.30455270662E+01  0.29358617864E+02 -0.49218377321E+01  0.95166294270E+02  0.90339334735E+02 0.  0.
         13    1    3    3    0    0  0.33387773617E+02  0.32088849675E+02 -0.30447533859E+02  0.55421125780E+02  0.10566000000E+00 0. -1.
         22    1    1    0    0    0 -0.30455270662E+01 -0.29358617864E+02  0.49218377321E+01  0.29923705730E+02  0.00000000000E+00 0. -1.
</event>
<event>
 5    1  0.1254496E-009  0.9118800E+02  0.7815553E-02  0.1125453E+00
         25   -1    0    0    0    0  0.00000000000E+00  0.00000000000E+00  0.99999998245E-14  0.12509000000E+03  0.12509000000E+03 0.  0.
        -13    1    3    3    0    0  0.18913848979E+02  0.72200614245E+01  0.21299122134E+01  0.20357078873E+02  0.10566000000E+00 0.  1.
         23    2    1    0    0    0 -0.40572343449E+02 -0.46181696824E+01 -0.11791965915E+02  0.82587141222E+02  0.70810612842E+02 0.  0.
         13    1    3    3    0    0 -0.59486192428E+02 -0.11838231107E+02 -0.13921878128E+02  0.62230062349E+02  0.10566000000E+00 0. -1.
         22    1    1    0    0    0  0.40572343449E+02  0.46181696824E+01  0.11791965915E+02  0.42502858778E+02  0.00000000000E+00 0. -1.
</event>
<event>
 5    1  0.1254496E-009  0.9118800E+02  0.7815553E-02  0.1125453E+00
         25   -1    0    0    0    0  0.00000000000E+00  0.00000000000E+00  0.99999998245E-14  0.12509000000E+03  0.12509000000E+03 0.  0.
        -13    1    3    3    0    0  0.16872402205E+02  0.20733606870E-02 -0.49467712339E+02  0.52266085453E+02  0.10566000000E+00 0.  1.
         23    2    1    0    0    0 -0.17959674913E+02 -0.63538578232E+00 -0.22331153682E+02  0.96425840098E+02  0.92066870132E+02 0.  0.
         13    1    3    3    0    0 -0.34832077119E+02 -0.63745914300E+00  0.27136558657E+02  0.44159754645E+02  0.10566000000E+00 0. -1.
         22    1    1    0    0    0  0.17959674913E+02  0.63538578232E+00  0.22331153682E+02  0.28664159902E+02  0.00000000000E+00 0.  1.
</event>
<event>
 5    1  0.1254496E-009  0.9118800E+02  0.7815553E-02  0.1125453E+00
         25   -1    0    0    0    0  0.00000000000E+00  0.00000000000E+00  0.99999998245E-14  0.12509000000E+03  0.12509000000E+03 0.  0.
        -13    1    3    3    0    0 -0.46585025600E+02 -0.10002570228E+02  0.10512631771E+01  0.47658497035E+02  0.10566000000E+00 0.  1.
         23    2    1    0    0    0 -0.32431094589E+01  0.20740646718E+02 -0.98465895302E+01  0.10190277268E+03  0.99229670814E+02 0.  0.
         13    1    3    3    0    0  0.43341916141E+02  0.30743216946E+02 -0.10897852707E+02  0.54244275649E+02  0.10566000000E+00 0. -1.
         22    1    1    0    0    0  0.32431094589E+01 -0.20740646718E+02  0.98465895302E+01  0.23187227317E+02  0.00000000000E+00 0. -1.
</event>
<event>
 5    1  0.1254496E-009  0.9118800E+02  0.7815553E-02  0.1125453E+00
         25   -1    0    0    0    0  0.00000000000E+00  0.00000000000E+00  0.99999998245E-14  0.12509000000E+03  0.12509000000E+03 0.  0.
        -13    1    3    3    0    0 -0.47450972254E+02 -0.31648179518E+02 -0.23743398766E+02  0.61781568317E+02  0.10566000000E+00 0.  1.
         23    2    1    0    0    0 -0.18737517709E+02 -0.20490682208E+02 -0.92722918477E+01  0.95816496223E+02  0.91235206610E+02 0.  0.
         13    1    3    3    0    0  0.28713454545E+02  0.11157497310E+02  0.14471106918E+02  0.34034927907E+02  0.10566000000E+00 0. -1.
         22    1    1    0    0    0  0.18737517709E+02  0.20490682208E+02  0.92722918477E+01  0.29273503777E+02  0.00000000000E+00 0.  1.
</event>
<event>
 5    1  0.1254496E-009  0.9118800E+02  0.7815553E-02  0.1125453E+00
         25   -1    0    0    0    0  0.00000000000E+00  0.00000000000E+00  0.99999998245E-14  0.12509000000E+03  0.12509000000E+03 0.  0.
        -13    1    3    3    0    0  0.21494031414E+02  0.14546234328E+02  0.48343561885E+02  0.54869822848E+02  0.10566000000E+00 0.  1.
         23    2    1    0    0    0 -0.69235373202E+01  0.20717906833E+02  0.20263987004E+02  0.95294090853E+02  0.90516117624E+02 0.  0.
         13    1    3    3    0    0 -0.28417568735E+02  0.61716725053E+01 -0.28079574881E+02  0.40424268006E+02  0.10566000000E+00 0. -1.
         22    1    1    0    0    0  0.69235373202E+01 -0.20717906833E+02 -0.20263987004E+02  0.29795909147E+02  0.00000000000E+00 0.  1.
</event>
<event>
 5    1  0.1254496E-009  0.9118800E+02  0.7815553E-02  0.1125453E+00
         25   -1    0    0    0    0  0.00000000000E+00  0.00000000000E+00  0.99999998245E-14  0.12509000000E+03  0.12509000000E+03 0.  0.
        -13    1    3    3    0    0  0.41149174990E+02 -0.21746638189E+01 -0.12832694939E+02  0.43158695398E+02  0.10566000000E+00 0. -1.
         23    2    1    0    0    0 -0.18427815924E+01  0.27838526315E+02 -0.91854471323E+01  0.95717362556E+02  0.91099185860E+02 0.  0.
         13    1    3    3    0    0 -0.42991956582E+02  0.30013190134E+02  0.36472478065E+01  0.52558667158E+02  0.10566000000E+00 0.  1.
         22    1    1    0    0    0  0.18427815924E+01 -0.27838526315E+02  0.91854471323E+01  0.29372637444E+02  0.00000000000E+00 0. -1.
</event>
<event>
 5    1  0.1254496E-009  0.9118800E+02  0.7815553E-02  0.1125453E+00
         25   -1    0    0    0    0  0.00000000000E+00  0.00000000000E+00  0.99999998245E-14  0.12509000000E+03  0.12509000000E+03 0.  0.
        -13    1    3    3    0    0  0.33118573662E+02  0.46104237884E+02  0.71069775528E+01  0.57209797816E+02  0.10566000000E+00 0.  1.
         23    2    1    0    0    0  0.27631317068E+02  0.77792911388E+01  0.13366288779E+01  0.96353374758E+02  0.91968359760E+02 0.  0.
         13    1    3    3    0    0 -0.54872565936E+01 -0.38324946745E+02 -0.57703486749E+01  0.39143576942E+02  0.10566000000E+00 0. -1.
         22    1    1    0    0    0 -0.27631317068E+02 -0.77792911388E+01 -0.13366288779E+01  0.28736625242E+02  0.00000000000E+00 0.  1.
</event>
<event>
 5    1  0.1254496E-009  0.9118800E+02  0.7815553E-02  0.1125453E+00
         25   -1    0    0    0    0  0.00000000000E+00  0.00000000000E+00  0.99999998245E-14  0.12509000000E+03  0.12509000000E+03 0.  0.
        -13    1    3    3    0    0  0.38303125485E+02 -0.21563241466E+02 -0.22301819002E+02  0.49289807255E+02  0.10566000000E+00 0.  1.
         23    2    1    0    0    0 -0.43241547003E+00  0.29408638595E+01 -0.29285171646E+02  0.95654359329E+02  0.91012633832E+02 0.  0.
         13    1    3    3    0    0 -0.38735540955E+02  0.24504105325E+02 -0.69833526434E+01  0.46364552074E+02  0.10566000000E+00 0. -1.
         22    1    1    0    0    0  0.43241547003E+00 -0.29408638595E+01  0.29285171646E+02  0.29435640671E+02  0.00000000000E+00 0.  1.
</event>
<event>
 5    1  0.1254496E-009  0.9118800E+02  0.7815553E-02  0.1125453E+00
         25   -1    0    0    0    0  0.00000000000E+00  0.00000000000E+00  0.99999998245E-14  0.12509000000E+03  0.12509000000E+03 0.  0.
        -13    1    3    3    0    0 -0.38882939675E+02  0.13523364022E+02  0.12313498113E+02  0.42969730882E+02  0.10566000000E+00 0.  1.
         23    2    1    0    0    0 -0.13275952278E+02 -0.17711993409E+02 -0.20432057070E+02  0.94966345249E+02  0.90062046138E+02 0.  0.
         13    1    3    3    0    0  0.25606987397E+02 -0.31235357432E+02 -0.32745555183E+02  0.51996614367E+02  0.10566000000E+00 0. -1.
         22    1    1    0    0    0  0.13275952278E+02  0.17711993409E+02  0.20432057070E+02  0.30123654751E+02  0.00000000000E+00 0. -1.
</event>
<event>
 5    1  0.1254496E-009  0.9118800E+02  0.7815553E-02  0.1125453E+00
         25   -1    0    0    0    0  0.00000000000E+00  0.00000000000E+00  0.99999998245E-14  0.12509000000E+03  0.12509000000E+03 0.  0.
        -13    1    3    3    0    0  0.53395097907E+01  0.38036263399E+02 -0.30637467699E+02  0.49131795095E+02  0.10566000000E+00 0.  1.
         23    2    1    0    0    0 -0.21485388524E+02  0.10293485898E+01 -0.19222658441E+02  0.96242260469E+02  0.91817104202E+02 0.  0.
         13    1    3    3    0    0 -0.26824898314E+02 -0.37006914809E+02  0.11414809259E+02  0.47110465374E+02  0.10566000000E+00 0. -1.
         22    1    1    0    0    0  0.21485388524E+02 -0.10293485898E+01  0.19222658441E+02  0.28847739531E+02  0.00000000000E+00 0. -1.
</event>
<event>
 5    1  0.1254496E-009  0.9118800E+02  0.7815553E-02  0.1125453E+00
         25   -1    0    0    0    0  0.00000000000E+00  0.00000000000E+00  0.99999998245E-14  0.12509000000E+03  0.12509000000E+03 0.  0.
        -13    1    3    3    0    0 -0.17740677922E+02 -0.21201909544E+02  0.42123856280E+02  0.50385345621E+02  0.10566000000E+00 0.  1.
         23    2    1    0    0    0  0.57915834011E+01 -0.29135365123E+02  0.39939094316E+02  0.75315074646E+02  0.56522714682E+02 0.  0.
         13    1    3    3    0    0  0.23532261323E+02 -0.79334555786E+01 -0.21847619637E+01  0.24929729025E+02  0.10566000000E+00 0. -1.
         22    1    1    0    0    0 -0.57915834011E+01  0.29135365123E+02 -0.39939094316E+02  0.49774925354E+02  0.00000000000E+00 0. -1.
</event>
<event>
 5    1  0.1254496E-009  0.9118800E+02  0.7815553E-02  0.1125453E+00
         25   -1    0    0    0    0  0.00000000000E+00  0.00000000000E+00  0.99999998245E-14  0.12509000000E+03  0.12509000000E+03 0.  0.
        -13    1    3    3    0    0 -0.37421901922E+02 -0.35108290391E+02 -0.16997890815E+02  0.54054881869E+02  0.10566000000E+00 0.  1.
         23    2    1    0    0    0 -0.10831472720E+02 -0.28137231115E+02  0.10718416201E+02  0.93091421563E+02  0.87419126893E+02 0.  0.
         13    1    3    3    0    0  0.26590429203E+02  0.69710592764E+01  0.27716307017E+02  0.39036539694E+02  0.10566000000E+00 0. -1.
         22    1    1    0    0    0  0.10831472720E+02  0.28137231115E+02 -0.10718416201E+02  0.31998578437E+02  0.00000000000E+00 0.  1.
</event>
<event>
 5    1  0.1254496E-009  0.9118800E+02  0.7815553E-02  0.1125453E+00
         25   -1    0    0    0    0  0.00000000000E+00  0.00000000000E+00  0.99999998245E-14  0.12509000000E+03  0.12509000000E+03 0.  0.
        -13    1    3    3    0    0 -0.29813245586E+02 -0.28325488909E+02  0.25651991474E+01  0.41203814690E+02  0.10566000000E+00 0.  1.
         23    2    1    0    0    0 -0.15892061901E+02  0.22839568624E+02 -0.96893669711E+01  0.95626677738E+02  0.90974579617E+02 0.  0.
         13    1    3    3    0    0  0.13921183685E+02  0.51165057533E+02 -0.12254566118E+02  0.54422863048E+02  0.10566000000E+00 0. -1.
         22    1    1    0    0    0  0.15892061901E+02 -0.22839568624E+02  0.96893669711E+01  0.29463322262E+02  0.00000000000E+00 0. -1.
</event>
<event>
 5    1  0.1254496E-009  0.9118800E+02  0.7815553E-02  0.1125453E+00
         25   -1    0    0    0    0  0.00000000000E+00  0.00000000000E+00  0.99999998245E-14  0.12509000000E+03  0.12509000000E+03 0.  0.
        -13    1    3    3    0    0  0.16984793714E+02  0.68122644291E+01 -0.29229370387E+02  0.34485611803E+02  0.10566000000E+00 0.  1.
         23    2    1    0    0    0  0.87123047076E+01  0.12858463840E+02  0.28239516488E+02  0.92860903874E+02  0.87088649267E+02 0.  0.
         13    1    3    3    0    0 -0.82724890067E+01  0.60461994108E+01  0.57468886875E+02  0.58375292071E+02  0.10566000000E+00 0. -1.
         22    1    1    0    0    0 -0.87123047076E+01 -0.12858463840E+02 -0.28239516488E+02  0.32229096126E+02  0.00000000000E+00 0. -1.
</event>
<event>
 5    1  0.1254496E-009  0.9118800E+02  0.7815553E-02  0.1125453E+00
         25   -1    0    0    0    0  0.00000000000E+00  0.00000000000E+00  0.99999998245E-14  0.12509000000E+03  0.12509000000E+03 0.  0.
        -13    1    3    3    0    0  0.41569978208E+02  0.97656642186E+00 -0.14081939906E+02  0.43901354942E+02  0.10566000000E+00 0.  1.
         23    2    1    0    0    0  0.90682880161E+01 -0.14287903752E+01  0.27133651596E+02  0.96445448364E+02  0.92093507761E+02 0.  0.
         13    1    3    3    0    0 -0.32501690192E+02 -0.24053567971E+01  0.41215591502E+02  0.52544093422E+02  0.10566000000E+00 0. -1.
         22    1    1    0    0    0 -0.90682880161E+01  0.14287903752E+01 -0.27133651596E+02  0.28644551636E+02  0.00000000000E+00 0. -1.
</event>
<event>
 5    1  0.1254496E-009  0.9118800E+02  0.7815553E-02  0.1125453E+00
         25   -1    0    0    0    0  0.00000000000E+00  0.00000000000E+00  0.99999998245E-14  0.12509000000E+03  0.12509000000E+03 0.  0.
        -13    1    3    3    0    0  0.11597507226E+02  0.52897688612E+02  0.13601141807E+02  0.55836098152E+02  0.10566000000E+00 0.  1.
         23    2    1    0    0    0 -0.13929780814E+02  0.25025547766E+02 -0.11930170972E+01  0.96423990087E+02  0.92064356513E+02 0.  0.
         13    1    3    3    0    0 -0.25527288040E+02 -0.27872140846E+02 -0.14794158905E+02  0.40587891935E+02  0.10566000000E+00 0. -1.
         22    1    1    0    0    0  0.13929780814E+02 -0.25025547766E+02  0.11930170972E+01  0.28666009913E+02  0.00000000000E+00 0.  1.
</event>
<event>
 5    1  0.1254496E-009  0.9118800E+02  0.7815553E-02  0.1125453E+00
         25   -1    0    0    0    0  0.00000000000E+00  0.00000000000E+00  0.99999998245E-14  0.12509000000E+03  0.12509000000E+03 0.  0.
        -13    1    3    3    0    0  0.17173928864E+02  0.35936191197E+02  0.10935356068E+02  0.41303109407E+02  0.10566000000E+00 0.  1.
         23    2    1    0    0    0 -0.10838607744E+02 -0.38962530607E+01  0.29502409193E+02  0.93419061366E+02  0.87886703616E+02 0.  0.
         13    1    3    3    0    0 -0.28012536608E+02 -0.39832444257E+02  0.18567053126E+02  0.52115951959E+02  0.10566000000E+00 0. -1.
         22    1    1    0    0    0  0.10838607744E+02  0.38962530607E+01 -0.29502409193E+02  0.31670938634E+02  0.00000000000E+00 0.  1.
</event>
<event>
 5    1  0.1254496E-009  0.9118800E+02  0.7815553E-02  0.1125453E+00
         25   -1    0    0    0    0  0.00000000000E+00  0.00000000000E+00  0.99999998245E-14  0.12509000000E+03  0.12509000000E+03 0.  0.
        -13    1    3    3    0    0 -0.80910401183E+01 -0.42655557141E+02 -0.32621887466E+02  0.54306170838E+02  0.10566000000E+00 0.  1.
         23    2    1    0    0    0 -0.24290126143E+02 -0.13731738125E+02 -0.66866051020E+01  0.96397116775E+02  0.92027835869E+02 0.  0.
         13    1    3    3    0    0 -0.16199086024E+02  0.28923819016E+02  0.25935282364E+02  0.42090945937E+02  0.10566000000E+00 0. -1.
         22    1    1    0    0    0  0.24290126143E+02  0.13731738125E+02  0.66866051020E+01  0.28692883225E+02  0.00000000000E+00 0.  1.
</event>
<event>
 5    1  0.1254496E-009  0.9118800E+02  0.7815553E-02  0.1125453E+00
         25   -1    0    0    0    0  0.00000000000E+00  0.00000000000E+00  0.99999998245E-14  0.12509000000E+03  0.12509000000E+03 0.  0.
        -13    1    3    3    0    0 -0.32619139521E+02 -0.26989482338E+02 -0.32512851654E+02  0.53381055691E+02  0.10566000000E+00 0.  1.
         23    2    1    0    0    0  0.45823354701E+01 -0.26132013016E+02 -0.10952125586E+02  0.96387579240E+02  0.92014870941E+02 0.  0.
         13    1    3    3    0    0  0.37201474991E+02  0.85746932236E+00  0.21560726068E+02  0.43006523549E+02  0.10566000000E+00 0. -1.
         22    1    1    0    0    0 -0.45823354701E+01  0.26132013016E+02  0.10952125586E+02  0.28702420760E+02  0.00000000000E+00 0.  1.
</event>
<event>
 5    1  0.1254496E-009  0.9118800E+02  0.7815553E-02  0.1125453E+00
         25   -1    0    0    0    0  0.00000000000E+00  0.00000000000E+00  0.99999998245E-14  0.12509000000E+03  0.12509000000E+03 0.  0.
        -13    1    3    3    0    0 -0.37969366688E+02 -0.26499112338E+02  0.29072670606E+00  0.46303039289E+02  0.10566000000E+00 0.  1.
         23    2    1    0    0    0  0.12699749138E+01 -0.91916329308E+01 -0.26596530954E+02  0.96921322165E+02  0.92737631408E+02 0.  0.
         13    1    3    3    0    0  0.39239341602E+02  0.17307479407E+02 -0.26887257660E+02  0.50618282876E+02  0.10566000000E+00 0. -1.
         22    1    1    0    0    0 -0.12699749138E+01  0.91916329308E+01  0.26596530954E+02  0.28168677835E+02  0.00000000000E+00 0. -1.
</event>
<event>
 5    1  0.1254496E-009  0.9118800E+02  0.7815553E-02  0.1125453E+00
         25   -1    0    0    0    0  0.00000000000E+00  0.00000000000E+00  0.99999998245E-14  0.12509000000E+03  0.12509000000E+03 0.  0.
        -13    1    3    3    0    0  0.13538212512E+02  0.52768113735E+02 -0.95636328430E+01  0.55310317865E+02  0.10566000000E+00 0. -1.
         23    2    1    0    0    0  0.13773696184E+02  0.11105623363E+02 -0.20126881660E+02  0.98291848157E+02  0.94568210683E+02 0.  0.
         13    1    3    3    0    0  0.23548367231E+00 -0.41662490372E+02 -0.10563248817E+02  0.42981530291E+02  0.10566000000E+00 0.  1.
         22    1    1    0    0    0 -0.13773696184E+02 -0.11105623363E+02  0.20126881660E+02  0.26798151843E+02  0.00000000000E+00 0. -1.
</event>
<event>
 5    1  0.1254496E-009  0.9118800E+02  0.7815553E-02  0.1125453E+00
         25   -1    0    0    0    0  0.00000000000E+00  0.00000000000E+00  0.99999998245E-14  0.12509000000E+03  0.12509000000E+03 0.  0.
        -13    1    3    3    0    0  0.50351854261E+02 -0.15898759664E+02  0.84229315411E+01  0.53469960971E+02  0.10566000000E+00 0.  1.
         23    2    1    0    0    0  0.13821226397E+02 -0.40851574970E+01  0.25741294425E+02  0.95588660207E+02  0.90922290505E+02 0.  0.
         13    1    3    3    0    0 -0.36530627865E+02  0.11813602167E+02  0.17318362884E+02  0.42118699237E+02  0.10566000000E+00 0. -1.
         22    1    1    0    0    0 -0.13821226397E+02  0.40851574970E+01 -0.25741294425E+02  0.29501339793E+02  0.00000000000E+00 0.  1.
</event>
<event>
 5    1  0.1254496E-009  0.9118800E+02  0.7815553E-02  0.1125453E+00
         25   -1    0    0    0    0  0.00000000000E+00  0.00000000000E+00  0.99999998245E-14  0.12509000000E+03  0.12509000000E+03 0.  0.
        -13    1    3    3    0    0 -0.13519327654E+01  0.43553208229E+02 -0.32437857301E+02  0.54322513008E+02  0.10566000000E+00 0.  1.
         23    2    1    0    0    0  0.99633118875E+01  0.24994305073E+02  0.51042092814E+01  0.97703218111E+02  0.93786368983E+02 0.  0.
         13    1    3    3    0    0  0.11315244653E+02 -0.18558903156E+02  0.37542066582E+02  0.43380705103E+02  0.10566000000E+00 0. -1.
         22    1    1    0    0    0 -0.99633118875E+01 -0.24994305073E+02 -0.51042092814E+01  0.27386781889E+02  0.00000000000E+00 0. -1.
</event>
<event>
 5    1  0.1254496E-009  0.9118800E+02  0.7815553E-02  0.1125453E+00
         25   -1    0    0    0    0  0.00000000000E+00  0.00000000000E+00  0.99999998245E-14  0.12509000000E+03  0.12509000000E+03 0.  0.
        -13    1    3    3    0    0  0.16137584531E+02 -0.30532386308E+02 -0.46078062938E+02  0.57583394275E+02  0.10566000000E+00 0.  1.
         23    2    1    0    0    0  0.16509778578E+02  0.52084715114E+00 -0.25034417972E+02  0.95097231644E+02  0.90243655249E+02 0.  0.
         13    1    3    3    0    0  0.37219404679E+00  0.31053233459E+02  0.21043644966E+02  0.37513837369E+02  0.10566000000E+00 0. -1.
         22    1    1    0    0    0 -0.16509778578E+02 -0.52084715114E+00  0.25034417972E+02  0.29992768356E+02  0.00000000000E+00 0.  1.
</event>
<event>
 5    1  0.1254496E-009  0.9118800E+02  0.7815553E-02  0.1125453E+00
         25   -1    0    0    0    0  0.00000000000E+00  0.00000000000E+00  0.99999998245E-14  0.12509000000E+03  0.12509000000E+03 0.  0.
        -13    1    3    3    0    0 -0.25585230435E+02 -0.82153441188E+01 -0.32826781490E+02  0.42422925906E+02  0.10566000000E+00 0.  1.
         23    2    1    0    0    0  0.10071523781E+02 -0.27222466187E+02  0.23133928823E+01  0.95972135325E+02  0.91448349989E+02 0.  0.
         13    1    3    3    0    0  0.35656754216E+02 -0.19007122068E+02  0.35140174372E+02  0.53549209420E+02  0.10566000000E+00 0. -1.
         22    1    1    0    0    0 -0.10071523781E+02  0.27222466187E+02 -0.23133928823E+01  0.29117864675E+02  0.00000000000E+00 0. -1.
</event>
<event>
 5    1  0.1254496E-009  0.9118800E+02  0.7815553E-02  0.1125453E+00
         25   -1    0    0    0    0  0.00000000000E+00  0.00000000000E+00  0.99999998245E-14  0.12509000000E+03  0.12509000000E+03 0.  0.
        -13    1    3    3    0    0  0.24824687238E+02  0.98606252661E+01  0.24238467495E+02  0.36069536975E+02  0.10566000000E+00 0.  1.
         23    2    1    0    0    0 -0.21198407955E+01 -0.41095547932E+01 -0.28121855869E+02  0.96590509775E+02  0.92290333380E+02 0.  0.
         13    1    3    3    0    0 -0.26944528033E+02 -0.13970180059E+02 -0.52360323364E+02  0.60520972799E+02  0.10566000000E+00 0. -1.
         22    1    1    0    0    0  0.21198407955E+01  0.41095547932E+01  0.28121855869E+02  0.28499490225E+02  0.00000000000E+00 0. -1.
</event>
<event>
 5    1  0.1254496E-009  0.9118800E+02  0.7815553E-02  0.1125453E+00
         25   -1    0    0    0    0  0.00000000000E+00  0.00000000000E+00  0.99999998245E-14  0.12509000000E+03  0.12509000000E+03 0.  0.
        -13    1    3    3    0    0 -0.13537835996E+02 -0.17673684811E+02  0.26078972777E+02  0.34289300421E+02  0.10566000000E+00 0.  1.
         23    2    1    0    0    0  0.64296956415E+01 -0.39936761192E+01 -0.29353789333E+02  0.94776052992E+02  0.89797354291E+02 0.  0.
         13    1    3    3    0    0  0.19967531637E+02  0.13680008692E+02 -0.55432762110E+02  0.60486752571E+02  0.10566000000E+00 0. -1.
         22    1    1    0    0    0 -0.64296956415E+01  0.39936761192E+01  0.29353789333E+02  0.30313947008E+02  0.00000000000E+00 0. -1.
</event>
<event>
 5    1  0.1254496E-009  0.9118800E+02  0.7815553E-02  0.1125453E+00
         25   -1    0    0    0    0  0.00000000000E+00  0.00000000000E+00  0.99999998245E-14  0.12509000000E+03  0.12509000000E+03 0.  0.
        -13    1    3    3    0    0  0.57140542683E+01  0.30689008544E+02  0.10902780023E+02  0.33065804661E+02  0.10566000000E+00 0. -1.
         23    2    1    0    0    0 -0.40513830682E+00 -0.25687338091E+02 -0.14925693818E+02  0.95378389286E+02  0.90632540137E+02 0.  0.
         13    1    3    3    0    0 -0.61191925752E+01 -0.56376346635E+02 -0.25828473842E+02  0.62312584625E+02  0.10566000000E+00 0.  1.
         22    1    1    0    0    0  0.40513830682E+00  0.25687338091E+02  0.14925693818E+02  0.29711610714E+02  0.00000000000E+00 0.  1.
</event>
<event>
 5    1  0.1254496E-009  0.9118800E+02  0.7815553E-02  0.1125453E+00
         25   -1    0    0    0    0  0.00000000000E+00  0.00000000000E+00  0.99999998245E-14  0.12509000000E+03  0.12509000000E+03 0.  0.
        -13    1    3    3    0    0 -0.21943007225E+02 -0.21880686027E+02 -0.16879243409E+02  0.35287108257E+02  0.10566000000E+00 0. -1.
         23    2    1    0    0    0  0.19915704093E+02  0.34392096817E+01  0.20080293865E+02  0.96599973070E+02  0.92303159007E+02 0.  0.
         13    1    3    3    0    0  0.41858711318E+02  0.25319895708E+02  0.36959537275E+02  0.61312864812E+02  0.10566000000E+00 0.  1.
         22    1    1    0    0    0 -0.19915704093E+02 -0.34392096817E+01 -0.20080293865E+02  0.28490026930E+02  0.00000000000E+00 0.  1.
</event>
<event>
 5    1  0.1254496E-009  0.9118800E+02  0.7815553E-02  0.1125453E+00
         25   -1    0    0    0    0  0.00000000000E+00  0.00000000000E+00  0.99999998245E-14  0.12509000000E+03  0.12509000000E+03 0.  0.
        -13    1    3    3    0    0 -0.11795777924E+02  0.42636024986E+02 -0.39912600591E+02  0.59581858425E+02  0.10566000000E+00 0. -1.
         23    2    1    0    0    0 -0.29823376035E+01  0.10804374308E+02 -0.28396785975E+02  0.94561221848E+02  0.89497588693E+02 0.  0.
         13    1    3    3    0    0  0.88134403208E+01 -0.31831650677E+02  0.11515814616E+02  0.34979363423E+02  0.10566000000E+00 0.  1.
         22    1    1    0    0    0  0.29823376035E+01 -0.10804374308E+02  0.28396785975E+02  0.30528778152E+02  0.00000000000E+00 0. -1.
</event>
<event>
 5    1  0.1254496E-009  0.9118800E+02  0.7815553E-02  0.1125453E+00
         25   -1    0    0    0    0  0.00000000000E+00  0.00000000000E+00  0.99999998245E-14  0.12509000000E+03  0.12509000000E+03 0.  0.
        -13    1    3    3    0    0 -0.52693496889E+02 -0.47530478500E+01  0.19171219145E+02  0.56273820608E+02  0.10566000000E+00 0.  1.
         23    2    1    0    0    0 -0.22575451352E+02 -0.19249637029E+02 -0.11640225617E+01  0.95399016890E+02  0.90661005651E+02 0.  0.
         13    1    3    3    0    0  0.30118045538E+02 -0.14496589179E+02 -0.20335241706E+02  0.39125196282E+02  0.10566000000E+00 0. -1.
         22    1    1    0    0    0  0.22575451352E+02  0.19249637029E+02  0.11640225617E+01  0.29690983110E+02  0.00000000000E+00 0.  1.
</event>
<event>
 5    1  0.1254496E-009  0.9118800E+02  0.7815553E-02  0.1125453E+00
         25   -1    0    0    0    0  0.00000000000E+00  0.00000000000E+00  0.99999998245E-14  0.12509000000E+03  0.12509000000E+03 0.  0.
        -13    1    3    3    0    0 -0.50048398213E+02  0.50391183503E+01  0.32269974758E+02  0.59762842238E+02  0.10566000000E+00 0.  1.
         23    2    1    0    0    0 -0.28219986817E+02 -0.63259720099E+01  0.63975735764E+01  0.95470504301E+02  0.90759587185E+02 0.  0.
         13    1    3    3    0    0  0.21828411396E+02 -0.11365090360E+02 -0.25872401182E+02  0.35707662062E+02  0.10566000000E+00 0. -1.
         22    1    1    0    0    0  0.28219986817E+02  0.63259720099E+01 -0.63975735764E+01  0.29619495699E+02  0.00000000000E+00 0.  1.
</event>
<event>
 5    1  0.1254496E-009  0.9118800E+02  0.7815553E-02  0.1125453E+00
         25   -1    0    0    0    0  0.00000000000E+00  0.00000000000E+00  0.99999998245E-14  0.12509000000E+03  0.12509000000E+03 0.  0.
        -13    1    3    3    0    0  0.10371874290E+02 -0.56349907742E+02  0.14748575042E+02  0.59164343220E+02  0.10566000000E+00 0.  1.
         23    2    1    0    0    0 -0.59167165506E+01 -0.31073880316E+02 -0.16493403187E+01  0.93414869438E+02  0.87880737002E+02 0.  0.
         13    1    3    3    0    0 -0.16288590840E+02  0.25276027426E+02 -0.16397915360E+02  0.34250526218E+02  0.10566000000E+00 0. -1.
         22    1    1    0    0    0  0.59167165506E+01  0.31073880316E+02  0.16493403187E+01  0.31675130562E+02  0.00000000000E+00 0.  1.
</event>
<event>
 5    1  0.1254496E-009  0.9118800E+02  0.7815553E-02  0.1125453E+00
         25   -1    0    0    0    0  0.00000000000E+00  0.00000000000E+00  0.99999998245E-14  0.12509000000E+03  0.12509000000E+03 0.  0.
        -13    1    3    3    0    0 -0.85207970647E+01 -0.29024239013E+01  0.32477876448E+02  0.33702398576E+02  0.10566000000E+00 0. -1.
         23    2    1    0    0    0 -0.79257036183E+01  0.42890447663E+01 -0.28547930920E+02  0.95153449720E+02  0.90321547546E+02 0.  0.
         13    1    3    3    0    0  0.59509344637E+00  0.71914686676E+01 -0.61025807368E+02  0.61451051145E+02  0.10566000000E+00 0.  1.
         22    1    1    0    0    0  0.79257036183E+01 -0.42890447663E+01  0.28547930920E+02  0.29936550280E+02  0.00000000000E+00 0.  1.
</event>
<event>
 5    1  0.1254496E-009  0.9118800E+02  0.7815553E-02  0.1125453E+00
         25   -1    0    0    0    0  0.00000000000E+00  0.00000000000E+00  0.99999998245E-14  0.12509000000E+03  0.12509000000E+03 0.  0.
        -13    1    3    3    0    0 -0.46104209782E+02 -0.87560623413E+01  0.26452217104E+02  0.53870193438E+02  0.10566000000E+00 0.  1.
         23    2    1    0    0    0 -0.22254062141E+01 -0.18745306995E+02  0.16632951509E+02  0.99930627133E+02  0.96711613554E+02 0.  0.
         13    1    3    3    0    0  0.43878803568E+02 -0.99892446541E+01 -0.98192655955E+01  0.46060433695E+02  0.10566000000E+00 0. -1.
         22    1    1    0    0    0  0.22254062141E+01  0.18745306995E+02 -0.16632951509E+02  0.25159372867E+02  0.00000000000E+00 0.  1.
</event>
<event>
 5    1  0.1254496E-009  0.9118800E+02  0.7815553E-02  0.1125453E+00
         25   -1    0    0    0    0  0.00000000000E+00  0.00000000000E+00  0.99999998245E-14  0.12509000000E+03  0.12509000000E+03 0.  0.
        -13    1    3    3    0    0  0.40428830569E+02 -0.41816539867E+02 -0.15992287490E+02  0.60323111416E+02  0.10566000000E+00 0.  1.
         23    2    1    0    0    0  0.25332465021E+02 -0.11869669493E+02 -0.89836567959E+00  0.97100182229E+02  0.92978575436E+02 0.  0.
         13    1    3    3    0    0 -0.15096365548E+02  0.29946870374E+02  0.15093921811E+02  0.36777070814E+02  0.10566000000E+00 0. -1.
         22    1    1    0    0    0 -0.25332465021E+02  0.11869669493E+02  0.89836567959E+00  0.27989817771E+02  0.00000000000E+00 0.  1.
</event>
<event>
 5    1  0.1254496E-009  0.9118800E+02  0.7815553E-02  0.1125453E+00
         25   -1    0    0    0    0  0.00000000000E+00  0.00000000000E+00  0.99999998245E-14  0.12509000000E+03  0.12509000000E+03 0.  0.
        -13    1    3    3    0    0  0.26641020285E+02  0.54264975493E+01  0.43541543163E+02  0.51332913248E+02  0.10566000000E+00 0.  1.
         23    2    1    0    0    0 -0.37003621310E+01  0.23733443934E+02  0.19438218703E+02  0.94189945191E+02  0.88977145312E+02 0.  0.
         13    1    3    3    0    0 -0.30341382416E+02  0.18306946385E+02 -0.24103324460E+02  0.42857031943E+02  0.10566000000E+00 0. -1.
         22    1    1    0    0    0  0.37003621310E+01 -0.23733443934E+02 -0.19438218703E+02  0.30900054809E+02  0.00000000000E+00 0.  1.
</event>
<event>
 5    1  0.1254496E-009  0.9118800E+02  0.7815553E-02  0.1125453E+00
         25   -1    0    0    0    0  0.00000000000E+00  0.00000000000E+00  0.99999998245E-14  0.12509000000E+03  0.12509000000E+03 0.  0.
        -13    1    3    3    0    0 -0.43476766100E+02  0.44183043579E+02 -0.78756211230E+01  0.62485255081E+02  0.10566000000E+00 0. -1.
         23    2    1    0    0    0 -0.20423263700E+02  0.20841726541E+02 -0.17647061035E+01  0.95856432770E+02  0.91289946053E+02 0.  0.
         13    1    3    3    0    0  0.23053502400E+02 -0.23341317038E+02  0.61109150195E+01  0.33371177689E+02  0.10566000000E+00 0.  1.
         22    1    1    0    0    0  0.20423263700E+02 -0.20841726541E+02  0.17647061035E+01  0.29233567230E+02  0.00000000000E+00 0. -1.
</event>
<event>
 5    1  0.1254496E-009  0.9118800E+02  0.7815553E-02  0.1125453E+00
         25   -1    0    0    0    0  0.00000000000E+00  0.00000000000E+00  0.99999998245E-14  0.12509000000E+03  0.12509000000E+03 0.  0.
        -13    1    3    3    0    0 -0.36467232405E+02  0.15693290340E+02  0.43777433368E+02  0.59098335317E+02  0.10566000000E+00 0.  1.
         23    2    1    0    0    0 -0.56680121200E+01  0.10238828827E+02  0.29249314308E+02  0.93586311889E+02  0.88124431393E+02 0.  0.
         13    1    3    3    0    0  0.30799220285E+02 -0.54544615127E+01 -0.14528119060E+02  0.34487976572E+02  0.10566000000E+00 0. -1.
         22    1    1    0    0    0  0.56680121200E+01 -0.10238828827E+02 -0.29249314308E+02  0.31503688111E+02  0.00000000000E+00 0.  1.
</event>
<event>
 5    1  0.1254496E-009  0.9118800E+02  0.7815553E-02  0.1125453E+00
         25   -1    0    0    0    0  0.00000000000E+00  0.00000000000E+00  0.99999998245E-14  0.12509000000E+03  0.12509000000E+03 0.  0.
        -13    1    3    3    0    0 -0.33199544896E+01  0.51512877427E+02 -0.21142112295E+02  0.55781705917E+02  0.10566000000E+00 0.  1.
         23    2    1    0    0    0 -0.67157912908E+01  0.28844254167E+02  0.94451224845E+01  0.94004582360E+02  0.88716167156E+02 0.  0.
         13    1    3    3    0    0 -0.33958368012E+01 -0.22668623260E+02  0.30587234779E+02  0.38222876443E+02  0.10566000000E+00 0. -1.
         22    1    1    0    0    0  0.67157912908E+01 -0.28844254167E+02 -0.94451224845E+01  0.31085417640E+02  0.00000000000E+00 0.  1.
</event>
<event>
 5    1  0.1254496E-009  0.9118800E+02  0.7815553E-02  0.1125453E+00
         25   -1    0    0    0    0  0.00000000000E+00  0.00000000000E+00  0.99999998245E-14  0.12509000000E+03  0.12509000000E+03 0.  0.
        -13    1    3    3    0    0  0.13833884151E+02 -0.57515866698E+02  0.18776091621E+02  0.62064515251E+02  0.10566000000E+00 0.  1.
         23    2    1    0    0    0  0.30394387819E+01 -0.27248674627E+02  0.13126858542E+02  0.94691926505E+02  0.89680087383E+02 0.  0.
         13    1    3    3    0    0 -0.10794445369E+02  0.30267192071E+02 -0.56492330791E+01  0.32627411254E+02  0.10566000000E+00 0. -1.
         22    1    1    0    0    0 -0.30394387819E+01  0.27248674627E+02 -0.13126858542E+02  0.30398073495E+02  0.00000000000E+00 0.  1.
</event>
<event>
 5    1  0.1254496E-009  0.9118800E+02  0.7815553E-02  0.1125453E+00
         25   -1    0    0    0    0  0.00000000000E+00  0.00000000000E+00  0.99999998245E-14  0.12509000000E+03  0.12509000000E+03 0.  0.
        -13    1    3    3    0    0  0.13130062863E+02  0.30190731143E+02 -0.51136403506E+02  0.60817939173E+02  0.10566000000E+00 0. -1.
         23    2    1    0    0    0 -0.13152508298E+00  0.21435153387E+02 -0.20010731091E+02  0.95765736013E+02  0.91165584163E+02 0.  0.
         13    1    3    3    0    0 -0.13261587946E+02 -0.87555777566E+01  0.31125672414E+02  0.34947796840E+02  0.10566000000E+00 0.  1.
         22    1    1    0    0    0  0.13152508298E+00 -0.21435153387E+02  0.20010731091E+02  0.29324263987E+02  0.00000000000E+00 0. -1.
</event>
<event>
 5    1  0.1254496E-009  0.9118800E+02  0.7815553E-02  0.1125453E+00
         25   -1    0    0    0    0  0.00000000000E+00  0.00000000000E+00  0.99999998245E-14  0.12509000000E+03  0.12509000000E+03 0.  0.
        -13    1    3    3    0    0  0.33541989845E+02 -0.75687695838E+01 -0.77994936848E+01  0.35258965123E+02  0.10566000000E+00 0.  1.
         23    2    1    0    0    0 -0.19572619208E+02 -0.73516946013E+01  0.20811626034E+02  0.95589853994E+02  0.90923932891E+02 0.  0.
         13    1    3    3    0    0 -0.53114609053E+02  0.21707498244E+00  0.28611119718E+02  0.60330888871E+02  0.10566000000E+00 0. -1.
         22    1    1    0    0    0  0.19572619208E+02  0.73516946013E+01 -0.20811626034E+02  0.29500146006E+02  0.00000000000E+00 0. -1.
</event>
<event>
 5    1  0.1254496E-009  0.9118800E+02  0.7815553E-02  0.1125453E+00
         25   -1    0    0    0    0  0.00000000000E+00  0.00000000000E+00  0.99999998245E-14  0.12509000000E+03  0.12509000000E+03 0.  0.
        -13    1    3    3    0    0  0.19816793779E+02  0.15978712124E+02  0.30903524706E+02  0.40038276188E+02  0.10566000000E+00 0.  1.
         23    2    1    0    0    0  0.16274929373E+02  0.49564018673E+01 -0.23733567946E+02  0.95888604605E+02  0.91334018855E+02 0.  0.
         13    1    3    3    0    0 -0.35418644062E+01 -0.11022310256E+02 -0.54637092652E+02  0.55850328417E+02  0.10566000000E+00 0. -1.
         22    1    1    0    0    0 -0.16274929373E+02 -0.49564018673E+01  0.23733567946E+02  0.29201395395E+02  0.00000000000E+00 0. -1.
</event>
<event>
 5    1  0.1254496E-009  0.9118800E+02  0.7815553E-02  0.1125453E+00
         25   -1    0    0    0    0  0.00000000000E+00  0.00000000000E+00  0.99999998245E-14  0.12509000000E+03  0.12509000000E+03 0.  0.
        -13    1    3    3    0    0 -0.31355778172E+01 -0.35799925459E+02 -0.15205121150E+02  0.39021447748E+02  0.10566000000E+00 0.  1.
         23    2    1    0    0    0 -0.67252012806E+01  0.21580131521E+02 -0.17414012670E+02  0.96556191176E+02  0.92243806342E+02 0.  0.
         13    1    3    3    0    0 -0.35896234634E+01  0.57380056980E+02 -0.22088915202E+01  0.57534743429E+02  0.10566000000E+00 0. -1.
         22    1    1    0    0    0  0.67252012806E+01 -0.21580131521E+02  0.17414012670E+02  0.28533808824E+02  0.00000000000E+00 0. -1.
</event>
<event>
 5    1  0.1254496E-009  0.9118800E+02  0.7815553E-02  0.1125453E+00
         25   -1    0    0    0    0  0.00000000000E+00  0.00000000000E+00  0.99999998245E-14  0.12509000000E+03  0.12509000000E+03 0.  0.
        -13    1    3    3    0    0  0.36414580168E+02 -0.12176244747E+02 -0.56384246576E+01  0.38808318459E+02  0.10566000000E+00 0.  1.
         23    2    1    0    0    0 -0.90581930959E+01  0.16829664035E+02  0.19030833017E+02  0.98118513964E+02  0.94338654450E+02 0.  0.
         13    1    3    3    0    0 -0.45472773264E+02  0.29005908782E+02  0.24669257675E+02  0.59310195505E+02  0.10566000000E+00 0. -1.
         22    1    1    0    0    0  0.90581930959E+01 -0.16829664035E+02 -0.19030833017E+02  0.26971486036E+02  0.00000000000E+00 0. -1.
</event>
<event>
 5    1  0.1254496E-009  0.9118800E+02  0.7815553E-02  0.1125453E+00
         25   -1    0    0    0    0  0.00000000000E+00  0.00000000000E+00  0.99999998245E-14  0.12509000000E+03  0.12509000000E+03 0.  0.
        -13    1    3    3    0    0  0.41623935182E+02 -0.12066274620E+02 -0.46695150840E+01  0.43588559260E+02  0.10566000000E+00 0.  1.
         23    2    1    0    0    0 -0.69338068448E+01 -0.23174506086E+02 -0.17746570200E+02  0.95088730634E+02  0.90231870922E+02 0.  0.
         13    1    3    3    0    0 -0.48557742027E+02 -0.11108231466E+02 -0.13077055116E+02  0.51500171374E+02  0.10566000000E+00 0. -1.
         22    1    1    0    0    0  0.69338068448E+01  0.23174506086E+02  0.17746570200E+02  0.30001269366E+02  0.00000000000E+00 0. -1.
</event>
<event>
 5    1  0.1254496E-009  0.9118800E+02  0.7815553E-02  0.1125453E+00
         25   -1    0    0    0    0  0.00000000000E+00  0.00000000000E+00  0.99999998245E-14  0.12509000000E+03  0.12509000000E+03 0.  0.
        -13    1    3    3    0    0 -0.19608887608E+02  0.27406561476E+01 -0.29584701358E+02  0.35598952061E+02  0.10566000000E+00 0. -1.
         23    2    1    0    0    0  0.26521626520E+01 -0.26746000983E+02  0.15637462694E+02  0.93994778907E+02  0.88702343187E+02 0.  0.
         13    1    3    3    0    0  0.22261050260E+02 -0.29486657131E+02  0.45222164052E+02  0.58395826846E+02  0.10566000000E+00 0.  1.
         22    1    1    0    0    0 -0.26521626520E+01  0.26746000983E+02 -0.15637462694E+02  0.31095221093E+02  0.00000000000E+00 0.  1.
</event>
<event>
 5    1  0.1254496E-009  0.9118800E+02  0.7815553E-02  0.1125453E+00
         25   -1    0    0    0    0  0.00000000000E+00  0.00000000000E+00  0.99999998245E-14  0.12509000000E+03  0.12509000000E+03 0.  0.
        -13    1    3    3    0    0  0.44472902097E+02 -0.41221387781E+02  0.14788662289E+02  0.62416003780E+02  0.10566000000E+00 0. -1.
         23    2    1    0    0    0  0.22049717977E+02 -0.20869470723E+02  0.44994969515E+01  0.94398464620E+02  0.89269814488E+02 0.  0.
         13    1    3    3    0    0 -0.22423184120E+02  0.20351917058E+02 -0.10289165338E+02  0.31982460840E+02  0.10566000000E+00 0.  1.
         22    1    1    0    0    0 -0.22049717977E+02  0.20869470723E+02 -0.44994969515E+01  0.30691535380E+02  0.00000000000E+00 0. -1.
</event>
<event>
 5    1  0.1254496E-009  0.9118800E+02  0.7815553E-02  0.1125453E+00
         25   -1    0    0    0    0  0.00000000000E+00  0.00000000000E+00  0.99999998245E-14  0.12509000000E+03  0.12509000000E+03 0.  0.
        -13    1    3    3    0    0  0.13437206337E+02  0.27546974884E+02 -0.35464150684E+02  0.46873355834E+02  0.10566000000E+00 0.  1.
         23    2    1    0    0    0  0.51326771358E+01 -0.19976508521E+02 -0.16368336353E+02  0.98758883385E+02  0.95183976305E+02 0.  0.
         13    1    3    3    0    0 -0.83045292011E+01 -0.47523483405E+02  0.19095814331E+02  0.51885527550E+02  0.10566000000E+00 0. -1.
         22    1    1    0    0    0 -0.51326771358E+01  0.19976508521E+02  0.16368336353E+02  0.26331116615E+02  0.00000000000E+00 0.  1.
</event>
<event>
 5    1  0.1254496E-009  0.9118800E+02  0.7815553E-02  0.1125453E+00
         25   -1    0    0    0    0  0.00000000000E+00  0.00000000000E+00  0.99999998245E-14  0.12509000000E+03  0.12509000000E+03 0.  0.
        -13    1    3    3    0    0  0.16564014615E+02 -0.40110340500E+02 -0.44317203650E+02  0.62026056610E+02  0.10566000000E+00 0. -1.
         23    2    1    0    0    0  0.53474723750E+01 -0.22629221489E+02 -0.17283144041E+02  0.96117872119E+02  0.91647483035E+02 0.  0.
         13    1    3    3    0    0 -0.11216542240E+02  0.17481119011E+02  0.27034059609E+02  0.34091815508E+02  0.10566000000E+00 0.  1.
         22    1    1    0    0    0 -0.53474723750E+01  0.22629221489E+02  0.17283144041E+02  0.28972127881E+02  0.00000000000E+00 0. -1.
</event>
<event>
 5    1  0.1254496E-009  0.9118800E+02  0.7815553E-02  0.1125453E+00
         25   -1    0    0    0    0  0.00000000000E+00  0.00000000000E+00  0.99999998245E-14  0.12509000000E+03  0.12509000000E+03 0.  0.
        -13    1    3    3    0    0 -0.89480275807E+01 -0.25761361400E+02  0.32170538469E+02  0.42174277091E+02  0.10566000000E+00 0.  1.
         23    2    1    0    0    0  0.27053437489E+02 -0.14367684755E+02 -0.36730053001E+01  0.94238584909E+02  0.89045500013E+02 0.  0.
         13    1    3    3    0    0  0.36001465069E+02  0.11393676645E+02 -0.35843543769E+02  0.52064307818E+02  0.10566000000E+00 0. -1.
         22    1    1    0    0    0 -0.27053437489E+02  0.14367684755E+02  0.36730053001E+01  0.30851415091E+02  0.00000000000E+00 0. -1.
</event>
<event>
 5    1  0.1254496E-009  0.9118800E+02  0.7815553E-02  0.1125453E+00
         25   -1    0    0    0    0  0.00000000000E+00  0.00000000000E+00  0.99999998245E-14  0.12509000000E+03  0.12509000000E+03 0.  0.
        -13    1    3    3    0    0 -0.46800258158E+02 -0.46654083565E+01  0.10677287510E+02  0.48229097352E+02  0.10566000000E+00 0. -1.
         23    2    1    0    0    0 -0.28632096860E+01 -0.26112297501E+02  0.95651770065E+01  0.97133915481E+02  0.93023947857E+02 0.  0.
         13    1    3    3    0    0  0.43937048472E+02 -0.21446889144E+02 -0.11121105034E+01  0.48904818129E+02  0.10566000000E+00 0.  1.
         22    1    1    0    0    0  0.28632096860E+01  0.26112297501E+02 -0.95651770065E+01  0.27956084519E+02  0.00000000000E+00 0.  1.
</event>
<event>
 5    1  0.1254496E-009  0.9118800E+02  0.7815553E-02  0.1125453E+00
         25   -1    0    0    0    0  0.00000000000E+00  0.00000000000E+00  0.99999998245E-14  0.12509000000E+03  0.12509000000E+03 0.  0.
        -13    1    3    3    0    0  0.75826773956E+01  0.45067238921E+02 -0.47139126712E+01  0.45943281959E+02  0.10566000000E+00 0. -1.
         23    2    1    0    0    0 -0.24292915836E+02  0.75344359406E+01 -0.14005681550E+02  0.96054287500E+02  0.91560655014E+02 0.  0.
         13    1    3    3    0    0 -0.31875593231E+02 -0.37532802980E+02 -0.92917688783E+01  0.50111005541E+02  0.10566000000E+00 0.  1.
         22    1    1    0    0    0  0.24292915836E+02 -0.75344359406E+01  0.14005681550E+02  0.29035712500E+02  0.00000000000E+00 0. -1.
</event>
<event>
 5    1  0.1254496E-009  0.9118800E+02  0.7815553E-02  0.1125453E+00
         25   -1    0    0    0    0  0.00000000000E+00  0.00000000000E+00  0.99999998245E-14  0.12509000000E+03  0.12509000000E+03 0.  0.
        -13    1    3    3    0    0  0.24665435366E+01  0.35060231971E+02 -0.64209468457E+01  0.35728747883E+02  0.10566000000E+00 0.  1.
         23    2    1    0    0    0  0.17313961107E+02 -0.21597493104E+02  0.84317001202E+01  0.96153543332E+02  0.91696157885E+02 0.  0.
         13    1    3    3    0    0  0.14847417570E+02 -0.56657725075E+02  0.14852646966E+02  0.60424795449E+02  0.10566000000E+00 0. -1.
         22    1    1    0    0    0 -0.17313961107E+02  0.21597493104E+02 -0.84317001202E+01  0.28936456668E+02  0.00000000000E+00 0. -1.
</event>
<event>
 5    1  0.1254496E-009  0.9118800E+02  0.7815553E-02  0.1125453E+00
         25   -1    0    0    0    0  0.00000000000E+00  0.00000000000E+00  0.99999998245E-14  0.12509000000E+03  0.12509000000E+03 0.  0.
        -13    1    3    3    0    0  0.32618334007E+02  0.13124476679E+02 -0.47947316974E+01  0.35485323974E+02  0.10566000000E+00 0.  1.
         23    2    1    0    0    0 -0.13147702805E+02 -0.25390820365E+02  0.48946619487E+01  0.96081146809E+02  0.91597342804E+02 0.  0.
         13    1    3    3    0    0 -0.45766036812E+02 -0.38515297044E+02  0.96893936461E+01  0.60595822835E+02  0.10566000000E+00 0. -1.
         22    1    1    0    0    0  0.13147702805E+02  0.25390820365E+02 -0.48946619487E+01  0.29008853191E+02  0.00000000000E+00 0. -1.
</event>
<event>
 5    1  0.1254496E-009  0.9118800E+02  0.7815553E-02  0.1125453E+00
         25   -1    0    0    0    0  0.00000000000E+00  0.00000000000E+00  0.99999998245E-14  0.12509000000E+03  0.12509000000E+03 0.  0.
        -13    1    3    3    0    0 -0.16868931711E+00 -0.37988373130E+02 -0.47885372178E+02  0.61124176737E+02  0.10566000000E+00 0. -1.
         23    2    1    0    0    0 -0.30371017582E+01 -0.19090864623E+02 -0.10551069963E+02  0.10306705341E+03  0.10068667897E+03 0.  0.
         13    1    3    3    0    0 -0.28684124411E+01  0.18897508507E+02  0.37334302215E+02  0.41942876673E+02  0.10566000000E+00 0.  1.
         22    1    1    0    0    0  0.30371017582E+01  0.19090864623E+02  0.10551069963E+02  0.22022946590E+02  0.00000000000E+00 0. -1.
</event>
<event>
 5    1  0.1254496E-009  0.9118800E+02  0.7815553E-02  0.1125453E+00
         25   -1    0    0    0    0  0.00000000000E+00  0.00000000000E+00  0.99999998245E-14  0.12509000000E+03  0.12509000000E+03 0.  0.
        -13    1    3    3    0    0  0.52947856358E+01 -0.62522972534E+01  0.43055752015E+02  0.43828471585E+02  0.10566000000E+00 0. -1.
         23    2    1    0    0    0  0.12150989066E+02  0.25877065349E+02  0.19697590292E+01  0.96434302539E+02  0.92078367216E+02 0.  0.
         13    1    3    3    0    0  0.68562034298E+01  0.32129362603E+02 -0.41085992986E+02  0.52605830954E+02  0.10566000000E+00 0.  1.
         22    1    1    0    0    0 -0.12150989066E+02 -0.25877065349E+02 -0.19697590292E+01  0.28655697461E+02  0.00000000000E+00 0.  1.
</event>
<event>
 5    1  0.1254496E-009  0.9118800E+02  0.7815553E-02  0.1125453E+00
         25   -1    0    0    0    0  0.00000000000E+00  0.00000000000E+00  0.99999998245E-14  0.12509000000E+03  0.12509000000E+03 0.  0.
        -13    1    3    3    0    0  0.53346802796E+01  0.19338091222E+01  0.38277704028E+02  0.38696152536E+02  0.10566000000E+00 0.  1.
         23    2    1    0    0    0  0.12182639409E+02 -0.88521096229E+01 -0.20951659918E+02  0.99287895414E+02  0.95876678993E+02 0.  0.
         13    1    3    3    0    0  0.68479591295E+01 -0.10785918745E+02 -0.59229363946E+02  0.60591742878E+02  0.10566000000E+00 0. -1.
         22    1    1    0    0    0 -0.12182639409E+02  0.88521096229E+01  0.20951659918E+02  0.25802104586E+02  0.00000000000E+00 0. -1.
</event>
<event>
 5    1  0.1254496E-009  0.9118800E+02  0.7815553E-02  0.1125453E+00
         25   -1    0    0    0    0  0.00000000000E+00  0.00000000000E+00  0.99999998245E-14  0.12509000000E+03  0.12509000000E+03 0.  0.
        -13    1    3    3    0    0  0.27613848993E+02  0.25651581091E+02  0.33576287869E+02  0.50476792091E+02  0.10566000000E+00 0.  1.
         23    2    1    0    0    0  0.20880502730E+02 -0.14817789749E+02  0.12638338277E+02  0.96536718548E+02  0.92217396115E+02 0.  0.
         13    1    3    3    0    0 -0.67333462625E+01 -0.40469370840E+02 -0.20937949592E+02  0.46059926457E+02  0.10566000000E+00 0. -1.
         22    1    1    0    0    0 -0.20880502730E+02  0.14817789749E+02 -0.12638338277E+02  0.28553281452E+02  0.00000000000E+00 0.  1.
</event>
<event>
 5    1  0.1254496E-009  0.9118800E+02  0.7815553E-02  0.1125453E+00
         25   -1    0    0    0    0  0.00000000000E+00  0.00000000000E+00  0.99999998245E-14  0.12509000000E+03  0.12509000000E+03 0.  0.
        -13    1    3    3    0    0 -0.91328293069E+01 -0.53295967597E+02 -0.28146555459E+01  0.54146118818E+02  0.10566000000E+00 0. -1.
         23    2    1    0    0    0  0.15115188583E+02 -0.20590179694E+02 -0.13444599073E+02  0.96225113547E+02  0.91793740566E+02 0.  0.
         13    1    3    3    0    0  0.24248017890E+02  0.32705787903E+02 -0.10629943527E+02  0.42078994729E+02  0.10566000000E+00 0.  1.
         22    1    1    0    0    0 -0.15115188583E+02  0.20590179694E+02  0.13444599073E+02  0.28864886453E+02  0.00000000000E+00 0. -1.
</event>
<event>
 5    1  0.1254496E-009  0.9118800E+02  0.7815553E-02  0.1125453E+00
         25   -1    0    0    0    0  0.00000000000E+00  0.00000000000E+00  0.99999998245E-14  0.12509000000E+03  0.12509000000E+03 0.  0.
        -13    1    3    3    0    0  0.10958669833E+02  0.41591263053E+01  0.15207839147E+02  0.19201049755E+02  0.10566000000E+00 0.  1.
         23    2    1    0    0    0  0.55462248674E+01 -0.40135856728E+02 -0.23479810337E+02  0.78261065579E+02  0.62704427965E+02 0.  0.
         13    1    3    3    0    0 -0.54124449659E+01 -0.44294983034E+02 -0.38687649484E+02  0.59060015824E+02  0.10566000000E+00 0. -1.
         22    1    1    0    0    0 -0.55462248674E+01  0.40135856728E+02  0.23479810337E+02  0.46828934421E+02  0.00000000000E+00 0. -1.
</event>
<event>
 5    1  0.1254496E-009  0.9118800E+02  0.7815553E-02  0.1125453E+00
         25   -1    0    0    0    0  0.00000000000E+00  0.00000000000E+00  0.99999998245E-14  0.12509000000E+03  0.12509000000E+03 0.  0.
        -13    1    3    3    0    0  0.47948358586E+02  0.63519901768E+01 -0.22465155491E+02  0.53329984488E+02  0.10566000000E+00 0.  1.
         23    2    1    0    0    0  0.11681603324E+02  0.24678646317E+02 -0.11833357909E+02  0.95332248074E+02  0.90568834172E+02 0.  0.
         13    1    3    3    0    0 -0.36266755261E+02  0.18326656140E+02  0.10631797582E+02  0.42002263586E+02  0.10566000000E+00 0. -1.
         22    1    1    0    0    0 -0.11681603324E+02 -0.24678646317E+02  0.11833357909E+02  0.29757751926E+02  0.00000000000E+00 0.  1.
</event>
<event>
 5    1  0.1254496E-009  0.9118800E+02  0.7815553E-02  0.1125453E+00
         25   -1    0    0    0    0  0.00000000000E+00  0.00000000000E+00  0.99999998245E-14  0.12509000000E+03  0.12509000000E+03 0.  0.
        -13    1    3    3    0    0  0.50839888830E+01  0.54632897025E+02  0.10104611800E+02  0.55791708380E+02  0.10566000000E+00 0. -1.
         23    2    1    0    0    0 -0.52614921413E+01  0.18488632573E+02  0.22610154754E+02  0.95412871904E+02  0.90680120165E+02 0.  0.
         13    1    3    3    0    0 -0.10345481024E+02 -0.36144264452E+02  0.12505542955E+02  0.39621163524E+02  0.10566000000E+00 0.  1.
         22    1    1    0    0    0  0.52614921413E+01 -0.18488632573E+02 -0.22610154754E+02  0.29677128096E+02  0.00000000000E+00 0. -1.
</event>
<event>
 5    1  0.1254496E-009  0.9118800E+02  0.7815553E-02  0.1125453E+00
         25   -1    0    0    0    0  0.00000000000E+00  0.00000000000E+00  0.99999998245E-14  0.12509000000E+03  0.12509000000E+03 0.  0.
        -13    1    3    3    0    0  0.73868998411E+01  0.37078252667E+02 -0.24018004693E+02  0.44791057406E+02  0.10566000000E+00 0.  1.
         23    2    1    0    0    0  0.29764919699E+02  0.52859543904E+01  0.64417261911E+01  0.94180655218E+02  0.88964083891E+02 0.  0.
         13    1    3    3    0    0  0.22378019858E+02 -0.31792298277E+02  0.30459730884E+02  0.49389597812E+02  0.10566000000E+00 0. -1.
         22    1    1    0    0    0 -0.29764919699E+02 -0.52859543904E+01 -0.64417261911E+01  0.30909344782E+02  0.00000000000E+00 0.  1.
</event>
<event>
 5    1  0.1254496E-009  0.9118800E+02  0.7815553E-02  0.1125453E+00
         25   -1    0    0    0    0  0.00000000000E+00  0.00000000000E+00  0.99999998245E-14  0.12509000000E+03  0.12509000000E+03 0.  0.
        -13    1    3    3    0    0  0.15708751258E+02  0.11020874140E+02  0.43414120013E+02  0.47466003765E+02  0.10566000000E+00 0. -1.
         23    2    1    0    0    0 -0.15222749910E+02 -0.16664770945E+02  0.18707419380E+02  0.95774232138E+02  0.91177241109E+02 0.  0.
         13    1    3    3    0    0 -0.30931501168E+02 -0.27685645085E+02 -0.24706700633E+02  0.48308228372E+02  0.10566000000E+00 0.  1.
         22    1    1    0    0    0  0.15222749910E+02  0.16664770945E+02 -0.18707419380E+02  0.29315767862E+02  0.00000000000E+00 0. -1.
</event>
<event>
 5    1  0.1254496E-009  0.9118800E+02  0.7815553E-02  0.1125453E+00
         25   -1    0    0    0    0  0.00000000000E+00  0.00000000000E+00  0.99999998245E-14  0.12509000000E+03  0.12509000000E+03 0.  0.
        -13    1    3    3    0    0  0.30573614210E+02  0.22215770331E+02  0.96720476645E+01  0.39010844740E+02  0.10566000000E+00 0.  1.
         23    2    1    0    0    0 -0.15742425640E+02  0.10031176035E+02 -0.21854798240E+02  0.96348380982E+02  0.91961567266E+02 0.  0.
         13    1    3    3    0    0 -0.46316039850E+02 -0.12184594296E+02 -0.31526845904E+02  0.57337536242E+02  0.10566000000E+00 0. -1.
         22    1    1    0    0    0  0.15742425640E+02 -0.10031176035E+02  0.21854798240E+02  0.28741619018E+02  0.00000000000E+00 0. -1.
</event>
<event>
 5    1  0.1254496E-009  0.9118800E+02  0.7815553E-02  0.1125453E+00
         25   -1    0    0    0    0  0.00000000000E+00  0.00000000000E+00  0.99999998245E-14  0.12509000000E+03  0.12509000000E+03 0.  0.
        -13    1    3    3    0    0  0.52466888631E+01 -0.41345168066E+01  0.58811025771E+02  0.59189271744E+02  0.10566000000E+00 0. -1.
         23    2    1    0    0    0 -0.52386984342E+01 -0.14108142461E+02  0.26027497511E+02  0.95024832918E+02  0.90143244890E+02 0.  0.
         13    1    3    3    0    0 -0.10485387297E+02 -0.99736256546E+01 -0.32783528260E+02  0.35835561174E+02  0.10566000000E+00 0.  1.
         22    1    1    0    0    0  0.52386984342E+01  0.14108142461E+02 -0.26027497511E+02  0.30065167082E+02  0.00000000000E+00 0. -1.
</event>
<event>
 5    1  0.1254496E-009  0.9118800E+02  0.7815553E-02  0.1125453E+00
         25   -1    0    0    0    0  0.00000000000E+00  0.00000000000E+00  0.99999998245E-14  0.12509000000E+03  0.12509000000E+03 0.  0.
        -13    1    3    3    0    0  0.12133725960E+02 -0.30666872608E+02 -0.13315528377E+02  0.35566822198E+02  0.10566000000E+00 0.  1.
         23    2    1    0    0    0 -0.93671141052E+01  0.10357322197E+02  0.25512192327E+02  0.96005830645E+02  0.91494429397E+02 0.  0.
         13    1    3    3    0    0 -0.21500840065E+02  0.41024194805E+02  0.38827720704E+02  0.60439008447E+02  0.10566000000E+00 0. -1.
         22    1    1    0    0    0  0.93671141052E+01 -0.10357322197E+02 -0.25512192327E+02  0.29084169355E+02  0.00000000000E+00 0. -1.
</event>
<event>
 5    1  0.1254496E-009  0.9118800E+02  0.7815553E-02  0.1125453E+00
         25   -1    0    0    0    0  0.00000000000E+00  0.00000000000E+00  0.99999998245E-14  0.12509000000E+03  0.12509000000E+03 0.  0.
        -13    1    3    3    0    0  0.22419141269E+01  0.43192802477E+02 -0.43708324521E+02  0.61490431460E+02  0.10566000000E+00 0.  1.
         23    2    1    0    0    0  0.86834758878E+01  0.17676957211E+02 -0.21580704418E+02  0.95873491432E+02  0.91313317684E+02 0.  0.
         13    1    3    3    0    0  0.64415617609E+01 -0.25515845266E+02  0.22127620102E+02  0.34383059971E+02  0.10566000000E+00 0. -1.
         22    1    1    0    0    0 -0.86834758878E+01 -0.17676957211E+02  0.21580704418E+02  0.29216508568E+02  0.00000000000E+00 0.  1.
</event>
<event>
 5    1  0.1254496E-009  0.9118800E+02  0.7815553E-02  0.1125453E+00
         25   -1    0    0    0    0  0.00000000000E+00  0.00000000000E+00  0.99999998245E-14  0.12509000000E+03  0.12509000000E+03 0.  0.
        -13    1    3    3    0    0  0.11083078551E+02  0.23434747467E+02 -0.40960013185E+02  0.48474280430E+02  0.10566000000E+00 0. -1.
         23    2    1    0    0    0  0.26060981412E+02 -0.88907311303E+01 -0.96258234095E+01  0.95920215488E+02  0.91377302492E+02 0.  0.
         13    1    3    3    0    0  0.14977902860E+02 -0.32325478597E+02  0.31334189776E+02  0.47445935058E+02  0.10566000000E+00 0.  1.
         22    1    1    0    0    0 -0.26060981412E+02  0.88907311303E+01  0.96258234095E+01  0.29169784512E+02  0.00000000000E+00 0. -1.
</event>
<event>
 5    1  0.1254496E-009  0.9118800E+02  0.7815553E-02  0.1125453E+00
         25   -1    0    0    0    0  0.00000000000E+00  0.00000000000E+00  0.99999998245E-14  0.12509000000E+03  0.12509000000E+03 0.  0.
        -13    1    3    3    0    0  0.26611331690E+02  0.41949715891E+02 -0.94778942681E+01  0.50574531945E+02  0.10566000000E+00 0.  1.
         23    2    1    0    0    0  0.29141102469E+02 -0.21940545847E+01  0.32554146707E+00  0.95864605121E+02  0.91301143525E+02 0.  0.
         13    1    3    3    0    0  0.25297707784E+01 -0.44143770476E+02  0.98034357352E+01  0.45290073176E+02  0.10566000000E+00 0. -1.
         22    1    1    0    0    0 -0.29141102469E+02  0.21940545847E+01 -0.32554146707E+00  0.29225394879E+02  0.00000000000E+00 0.  1.
</event>
<event>
 5    1  0.1254496E-009  0.9118800E+02  0.7815553E-02  0.1125453E+00
         25   -1    0    0    0    0  0.00000000000E+00  0.00000000000E+00  0.99999998245E-14  0.12509000000E+03  0.12509000000E+03 0.  0.
        -13    1    3    3    0    0 -0.24673494469E+02 -0.47986752436E+02 -0.44696106853E+01  0.54143312813E+02  0.10566000000E+00 0. -1.
         23    2    1    0    0    0 -0.18317946089E+02 -0.98085937667E+01 -0.20375705533E+02  0.95988023494E+02  0.91470080451E+02 0.  0.
         13    1    3    3    0    0  0.63555483805E+01  0.38178158669E+02 -0.15906094848E+02  0.41844710681E+02  0.10566000000E+00 0.  1.
         22    1    1    0    0    0  0.18317946089E+02  0.98085937667E+01  0.20375705533E+02  0.29101976506E+02  0.00000000000E+00 0. -1.
</event>
<event>
 5    1  0.1254496E-009  0.9118800E+02  0.7815553E-02  0.1125453E+00
         25   -1    0    0    0    0  0.00000000000E+00  0.00000000000E+00  0.99999998245E-14  0.12509000000E+03  0.12509000000E+03 0.  0.
        -13    1    3    3    0    0 -0.19999856580E+02  0.13834768117E+01 -0.32136546338E+02  0.37877130909E+02  0.10566000000E+00 0. -1.
         23    2    1    0    0    0 -0.10454128684E+02  0.81516039730E+01  0.25318038725E+02  0.96511327204E+02  0.92182947121E+02 0.  0.
         13    1    3    3    0    0  0.95457278958E+01  0.67681271613E+01  0.57454585064E+02  0.58634196295E+02  0.10566000000E+00 0.  1.
         22    1    1    0    0    0  0.10454128684E+02 -0.81516039730E+01 -0.25318038725E+02  0.28578672796E+02  0.00000000000E+00 0.  1.
</event>
<event>
 5    1  0.1254496E-009  0.9118800E+02  0.7815553E-02  0.1125453E+00
         25   -1    0    0    0    0  0.00000000000E+00  0.00000000000E+00  0.99999998245E-14  0.12509000000E+03  0.12509000000E+03 0.  0.
        -13    1    3    3    0    0 -0.10260359773E+02 -0.14663184647E+02  0.37972547955E+02  0.41978679456E+02  0.10566000000E+00 0.  1.
         23    2    1    0    0    0 -0.22562018764E+02  0.19055549208E+02 -0.17381461809E+01  0.95506562092E+02  0.90809270474E+02 0.  0.
         13    1    3    3    0    0 -0.12301658991E+02  0.33718733855E+02 -0.39710694136E+02  0.53527882636E+02  0.10566000000E+00 0. -1.
         22    1    1    0    0    0  0.22562018764E+02 -0.19055549208E+02  0.17381461809E+01  0.29583437908E+02  0.00000000000E+00 0.  1.
</event>
<event>
 5    1  0.1254496E-009  0.9118800E+02  0.7815553E-02  0.1125453E+00
         25   -1    0    0    0    0  0.00000000000E+00  0.00000000000E+00  0.99999998245E-14  0.12509000000E+03  0.12509000000E+03 0.  0.
        -13    1    3    3    0    0  0.38185391933E+02 -0.72695157765E+01  0.25852995405E+02  0.46683600463E+02  0.10566000000E+00 0. -1.
         23    2    1    0    0    0  0.21511952184E+02  0.76178554233E+01 -0.18079242882E+02  0.95975487618E+02  0.91452935395E+02 0.  0.
         13    1    3    3    0    0 -0.16673439749E+02  0.14887371200E+02 -0.43932238288E+02  0.49291887155E+02  0.10566000000E+00 0.  1.
         22    1    1    0    0    0 -0.21511952184E+02 -0.76178554233E+01  0.18079242882E+02  0.29114512382E+02  0.00000000000E+00 0. -1.
</event>
<event>
 5    1  0.1254496E-009  0.9118800E+02  0.7815553E-02  0.1125453E+00
         25   -1    0    0    0    0  0.00000000000E+00  0.00000000000E+00  0.99999998245E-14  0.12509000000E+03  0.12509000000E+03 0.  0.
        -13    1    3    3    0    0  0.41176594161E+02  0.21225093373E+02  0.86749431707E+01  0.47130481628E+02  0.10566000000E+00 0. -1.
         23    2    1    0    0    0 -0.38092351062E+00  0.59622672178E+01  0.28738949351E+02  0.95736619566E+02  0.91125624185E+02 0.  0.
         13    1    3    3    0    0 -0.41557517672E+02 -0.15262826155E+02  0.20064006180E+02  0.48606137939E+02  0.10566000000E+00 0.  1.
         22    1    1    0    0    0  0.38092351062E+00 -0.59622672178E+01 -0.28738949351E+02  0.29353380434E+02  0.00000000000E+00 0.  1.
</event>
<event>
 5    1  0.1254496E-009  0.9118800E+02  0.7815553E-02  0.1125453E+00
         25   -1    0    0    0    0  0.00000000000E+00  0.00000000000E+00  0.99999998245E-14  0.12509000000E+03  0.12509000000E+03 0.  0.
        -13    1    3    3    0    0 -0.92345409647E+01 -0.17580405866E+02  0.29742171142E+02  0.35762484890E+02  0.10566000000E+00 0.  1.
         23    2    1    0    0    0  0.17259130553E+02 -0.88001462533E+01 -0.22747056070E+02  0.95211099060E+02  0.90401353214E+02 0.  0.
         13    1    3    3    0    0  0.26493671518E+02  0.87802596125E+01 -0.52489227212E+02  0.59448614170E+02  0.10566000000E+00 0. -1.
         22    1    1    0    0    0 -0.17259130553E+02  0.88001462533E+01  0.22747056070E+02  0.29878900940E+02  0.00000000000E+00 0. -1.
</event>
<event>
 5    1  0.1254496E-009  0.9118800E+02  0.7815553E-02  0.1125453E+00
         25   -1    0    0    0    0  0.00000000000E+00  0.00000000000E+00  0.99999998245E-14  0.12509000000E+03  0.12509000000E+03 0.  0.
        -13    1    3    3    0    0  0.36097910591E+02 -0.29316166617E+01 -0.29990716536E+02  0.47022417714E+02  0.10566000000E+00 0.  1.
         23    2    1    0    0    0  0.25725616635E+02  0.99300299835E+01  0.14108000917E+02  0.94115033711E+02  0.88871767361E+02 0.  0.
         13    1    3    3    0    0 -0.10372293956E+02  0.12861646645E+02  0.44098717453E+02  0.47092615997E+02  0.10566000000E+00 0. -1.
         22    1    1    0    0    0 -0.25725616635E+02 -0.99300299835E+01 -0.14108000917E+02  0.30974966289E+02  0.00000000000E+00 0.  1.
</event>
<event>
 5    1  0.1254496E-009  0.9118800E+02  0.7815553E-02  0.1125453E+00
         25   -1    0    0    0    0  0.00000000000E+00  0.00000000000E+00  0.99999998245E-14  0.12509000000E+03  0.12509000000E+03 0.  0.
        -13    1    3    3    0    0  0.26612342121E+02 -0.11160090141E+02 -0.55187483517E+02  0.62277073359E+02  0.10566000000E+00 0.  1.
         23    2    1    0    0    0  0.11245355020E+02 -0.21868829897E+01 -0.28707901696E+02  0.94180711970E+02  0.88964163688E+02 0.  0.
         13    1    3    3    0    0 -0.15366987101E+02  0.89732071509E+01  0.26479581822E+02  0.31903638611E+02  0.10566000000E+00 0. -1.
         22    1    1    0    0    0 -0.11245355020E+02  0.21868829897E+01  0.28707901696E+02  0.30909288030E+02  0.00000000000E+00 0.  1.
</event>
<event>
 5    1  0.1254496E-009  0.9118800E+02  0.7815553E-02  0.1125453E+00
         25   -1    0    0    0    0  0.00000000000E+00  0.00000000000E+00  0.99999998245E-14  0.12509000000E+03  0.12509000000E+03 0.  0.
        -13    1    3    3    0    0 -0.28420765094E+02 -0.12542772424E+02 -0.37768304321E+02  0.48903138999E+02  0.10566000000E+00 0. -1.
         23    2    1    0    0    0 -0.96238880509E+01 -0.27942289479E+02  0.19580336522E+01  0.95472021367E+02  0.90761678067E+02 0.  0.
         13    1    3    3    0    0  0.18796877043E+02 -0.15399517055E+02  0.39726337974E+02  0.46568882367E+02  0.10566000000E+00 0.  1.
         22    1    1    0    0    0  0.96238880509E+01  0.27942289479E+02 -0.19580336522E+01  0.29617978633E+02  0.00000000000E+00 0.  1.
</event>
<event>
 5    1  0.1254496E-009  0.9118800E+02  0.7815553E-02  0.1125453E+00
         25   -1    0    0    0    0  0.00000000000E+00  0.00000000000E+00  0.99999998245E-14  0.12509000000E+03  0.12509000000E+03 0.  0.
        -13    1    3    3    0    0 -0.21606205016E+02  0.28763067944E+02 -0.89952404373E+01  0.37081905119E+02  0.10566000000E+00 0. -1.
         23    2    1    0    0    0  0.30140029505E+02  0.51669073294E+01 -0.51046721694E+01  0.94087161616E+02  0.88832527787E+02 0.  0.
         13    1    3    3    0    0  0.51746234521E+02 -0.23596160614E+02  0.38905682679E+01  0.57005256497E+02  0.10566000000E+00 0.  1.
         22    1    1    0    0    0 -0.30140029505E+02 -0.51669073294E+01  0.51046721694E+01  0.31002838384E+02  0.00000000000E+00 0.  1.
</event>
<event>
 5    1  0.1254496E-009  0.9118800E+02  0.7815553E-02  0.1125453E+00
         25   -1    0    0    0    0  0.00000000000E+00  0.00000000000E+00  0.99999998245E-14  0.12509000000E+03  0.12509000000E+03 0.  0.
        -13    1    3    3    0    0 -0.11220109663E+02 -0.20714710165E+02 -0.30259114732E+02  0.38348601885E+02  0.10566000000E+00 0. -1.
         23    2    1    0    0    0  0.24082739384E+02  0.17109434462E+02 -0.10303174321E+02  0.93803157959E+02  0.88431702223E+02 0.  0.
         13    1    3    3    0    0  0.35302849047E+02  0.37824144627E+02  0.19955940411E+02  0.55454556074E+02  0.10566000000E+00 0.  1.
         22    1    1    0    0    0 -0.24082739384E+02 -0.17109434462E+02  0.10303174321E+02  0.31286842041E+02  0.00000000000E+00 0.  1.
</event>
<event>
 5    1  0.1254496E-009  0.9118800E+02  0.7815553E-02  0.1125453E+00
         25   -1    0    0    0    0  0.00000000000E+00  0.00000000000E+00  0.99999998245E-14  0.12509000000E+03  0.12509000000E+03 0.  0.
        -13    1    3    3    0    0 -0.17206739183E+02 -0.10923201381E+02  0.31708283897E+02  0.37693694876E+02  0.10566000000E+00 0. -1.
         23    2    1    0    0    0  0.22090477400E+02  0.18643052724E+02  0.43243385355E-01  0.96184040811E+02  0.91737752480E+02 0.  0.
         13    1    3    3    0    0  0.39297216583E+02  0.29566254104E+02 -0.31665040512E+02  0.58490345935E+02  0.10566000000E+00 0.  1.
         22    1    1    0    0    0 -0.22090477400E+02 -0.18643052724E+02 -0.43243385355E-01  0.28905959189E+02  0.00000000000E+00 0.  1.
</event>
<event>
 5    1  0.1254496E-009  0.9118800E+02  0.7815553E-02  0.1125453E+00
         25   -1    0    0    0    0  0.00000000000E+00  0.00000000000E+00  0.99999998245E-14  0.12509000000E+03  0.12509000000E+03 0.  0.
        -13    1    3    3    0    0 -0.19791836073E+02 -0.18931295548E+02 -0.19932719967E+02  0.33873813124E+02  0.10566000000E+00 0.  1.
         23    2    1    0    0    0  0.24798342832E+02  0.16120674044E+02  0.36279148127E+01  0.95290743219E+02  0.90511491195E+02 0.  0.
         13    1    3    3    0    0  0.44590178905E+02  0.35051969592E+02  0.23560634779E+02  0.61416930095E+02  0.10566000000E+00 0. -1.
         22    1    1    0    0    0 -0.24798342832E+02 -0.16120674044E+02 -0.36279148127E+01  0.29799256781E+02  0.00000000000E+00 0. -1.
</event>
<event>
 5    1  0.1254496E-009  0.9118800E+02  0.7815553E-02  0.1125453E+00
         25   -1    0    0    0    0  0.00000000000E+00  0.00000000000E+00  0.99999998245E-14  0.12509000000E+03  0.12509000000E+03 0.  0.
        -13    1    3    3    0    0  0.41621721497E+02 -0.33379475443E+01 -0.38455853301E+02  0.56765952923E+02  0.10566000000E+00 0. -1.
         23    2    1    0    0    0  0.27952083932E+02  0.71952061533E+01 -0.31607342321E+01  0.96054156140E+02  0.91560475551E+02 0.  0.
         13    1    3    3    0    0 -0.13669637564E+02  0.10533153698E+02  0.35295119068E+02  0.39288203217E+02  0.10566000000E+00 0.  1.
         22    1    1    0    0    0 -0.27952083932E+02 -0.71952061533E+01  0.31607342321E+01  0.29035843860E+02  0.00000000000E+00 0. -1.
</event>
<event>
 5    1  0.1254496E-009  0.9118800E+02  0.7815553E-02  0.1125453E+00
         25   -1    0    0    0    0  0.00000000000E+00  0.00000000000E+00  0.99999998245E-14  0.12509000000E+03  0.12509000000E+03 0.  0.
        -13    1    3    3    0    0 -0.44530647466E+01 -0.12066381251E+02  0.31763581285E+02  0.34268988929E+02  0.10566000000E+00 0. -1.
         23    2    1    0    0    0  0.14350639064E+02  0.94527284161E+01 -0.23200694502E+02  0.96218437149E+02  0.91784641994E+02 0.  0.
         13    1    3    3    0    0  0.18803703810E+02  0.21519109667E+02 -0.54964275788E+02  0.61949448220E+02  0.10566000000E+00 0.  1.
         22    1    1    0    0    0 -0.14350639064E+02 -0.94527284161E+01  0.23200694502E+02  0.28871562851E+02  0.00000000000E+00 0.  1.
</event>
<event>
 5    1  0.1254496E-009  0.9118800E+02  0.7815553E-02  0.1125453E+00
         25   -1    0    0    0    0  0.00000000000E+00  0.00000000000E+00  0.99999998245E-14  0.12509000000E+03  0.12509000000E+03 0.  0.
        -13    1    3    3    0    0 -0.29855367976E+02  0.23629457044E+02  0.39917258774E+02  0.55164236143E+02  0.10566000000E+00 0. -1.
         23    2    1    0    0    0 -0.17527702665E+02  0.25373628815E+02  0.30224823642E+01  0.94103280270E+02  0.88855222458E+02 0.  0.
         13    1    3    3    0    0  0.12327665311E+02  0.17441717711E+01 -0.36894776410E+02  0.38939044127E+02  0.10566000000E+00 0.  1.
         22    1    1    0    0    0  0.17527702665E+02 -0.25373628815E+02 -0.30224823642E+01  0.30986719730E+02  0.00000000000E+00 0.  1.
</event>
<event>
 5    1  0.1254496E-009  0.9118800E+02  0.7815553E-02  0.1125453E+00
         25   -1    0    0    0    0  0.00000000000E+00  0.00000000000E+00  0.99999998245E-14  0.12509000000E+03  0.12509000000E+03 0.  0.
        -13    1    3    3    0    0 -0.35940133155E+02  0.16115839470E+02  0.17794418922E+02  0.43221128650E+02  0.10566000000E+00 0.  1.
         23    2    1    0    0    0 -0.11187532020E+02 -0.27441862862E+02  0.39896104303E+01  0.95187931485E+02  0.90369290132E+02 0.  0.
         13    1    3    3    0    0  0.24752601134E+02 -0.43557702332E+02 -0.13804808491E+02  0.51966802835E+02  0.10566000000E+00 0. -1.
         22    1    1    0    0    0  0.11187532020E+02  0.27441862862E+02 -0.39896104303E+01  0.29902068515E+02  0.00000000000E+00 0. -1.
</event>
<event>
 5    1  0.1254496E-009  0.9118800E+02  0.7815553E-02  0.1125453E+00
         25   -1    0    0    0    0  0.00000000000E+00  0.00000000000E+00  0.99999998245E-14  0.12509000000E+03  0.12509000000E+03 0.  0.
        -13    1    3    3    0    0 -0.31490461061E+02 -0.58853485553E+01 -0.16393065146E+02  0.35986528234E+02  0.10566000000E+00 0. -1.
         23    2    1    0    0    0  0.10903518169E+02 -0.94930664092E+01  0.25551046811E+02  0.95732530568E+02  0.91120010961E+02 0.  0.
         13    1    3    3    0    0  0.42393979229E+02 -0.36077178539E+01  0.41944111957E+02  0.59746002334E+02  0.10566000000E+00 0.  1.
         22    1    1    0    0    0 -0.10903518169E+02  0.94930664092E+01 -0.25551046811E+02  0.29357469432E+02  0.00000000000E+00 0.  1.
</event>
<event>
 5    1  0.1254496E-009  0.9118800E+02  0.7815553E-02  0.1125453E+00
         25   -1    0    0    0    0  0.00000000000E+00  0.00000000000E+00  0.99999998245E-14  0.12509000000E+03  0.12509000000E+03 0.  0.
        -13    1    3    3    0    0  0.23730031190E+02 -0.51892292245E+02  0.16605013705E+02  0.59427788272E+02  0.10566000000E+00 0.  1.
         23    2    1    0    0    0 -0.13381550199E+01 -0.28638478272E+02  0.12308793978E+02  0.93889687409E+02  0.88554016825E+02 0.  0.
         13    1    3    3    0    0 -0.25068186210E+02  0.23253813973E+02 -0.42962197263E+01  0.34461899137E+02  0.10566000000E+00 0. -1.
         22    1    1    0    0    0  0.13381550199E+01  0.28638478272E+02 -0.12308793978E+02  0.31200312591E+02  0.00000000000E+00 0.  1.
</event>
<event>
 5    1  0.1254496E-009  0.9118800E+02  0.7815553E-02  0.1125453E+00
         25   -1    0    0    0    0  0.00000000000E+00  0.00000000000E+00  0.99999998245E-14  0.12509000000E+03  0.12509000000E+03 0.  0.
        -13    1    3    3    0    0  0.18401450994E+02  0.24460312535E+02 -0.46980253004E+02  0.56072057430E+02  0.10566000000E+00 0.  1.
         23    2    1    0    0    0 -0.12957396582E+01 -0.47195919963E+01 -0.29143146659E+02  0.95538748130E+02  0.90853596006E+02 0.  0.
         13    1    3    3    0    0 -0.19697190652E+02 -0.29179904531E+02  0.17837106345E+02  0.39466690701E+02  0.10566000000E+00 0. -1.
         22    1    1    0    0    0  0.12957396582E+01  0.47195919963E+01  0.29143146659E+02  0.29551251870E+02  0.00000000000E+00 0.  1.
</event>
<event>
 5    1  0.1254496E-009  0.9118800E+02  0.7815553E-02  0.1125453E+00
         25   -1    0    0    0    0  0.00000000000E+00  0.00000000000E+00  0.99999998245E-14  0.12509000000E+03  0.12509000000E+03 0.  0.
        -13    1    3    3    0    0  0.40204777034E+02 -0.47274791053E+01  0.26569501004E+02  0.48422336816E+02  0.10566000000E+00 0.  1.
         23    2    1    0    0    0  0.39625337786E+02  0.20721326952E+02  0.86703510916E+01  0.79540952004E+02  0.65207724024E+02 0.  0.
         13    1    3    3    0    0 -0.57943924848E+00  0.25448806057E+02 -0.17899149913E+02  0.31118615188E+02  0.10566000000E+00 0. -1.
         22    1    1    0    0    0 -0.39625337786E+02 -0.20721326952E+02 -0.86703510916E+01  0.45549047996E+02  0.00000000000E+00 0.  1.
</event>
<event>
 5    1  0.1254496E-009  0.9118800E+02  0.7815553E-02  0.1125453E+00
         25   -1    0    0    0    0  0.00000000000E+00  0.00000000000E+00  0.99999998245E-14  0.12509000000E+03  0.12509000000E+03 0.  0.
        -13    1    3    3    0    0 -0.52454522354E+02 -0.14777324852E+02 -0.30092071668E+02  0.62252631964E+02  0.10566000000E+00 0. -1.
         23    2    1    0    0    0 -0.25195866620E+02 -0.90302338138E+01 -0.10365997938E+02  0.96387548350E+02  0.92014828947E+02 0.  0.
         13    1    3    3    0    0  0.27258655734E+02  0.57470910378E+01  0.19726073730E+02  0.34134916386E+02  0.10566000000E+00 0.  1.
         22    1    1    0    0    0  0.25195866620E+02  0.90302338138E+01  0.10365997938E+02  0.28702451650E+02  0.00000000000E+00 0. -1.
</event>
<event>
 5    1  0.1254496E-009  0.9118800E+02  0.7815553E-02  0.1125453E+00
         25   -1    0    0    0    0  0.00000000000E+00  0.00000000000E+00  0.99999998245E-14  0.12509000000E+03  0.12509000000E+03 0.  0.
        -13    1    3    3    0    0  0.35600835652E+02  0.21658081808E+02  0.35865698035E+02  0.54980464406E+02  0.10566000000E+00 0. -1.
         23    2    1    0    0    0  0.19444429106E+02 -0.11589742175E+02  0.18659028459E+02  0.95754572783E+02  0.91150265600E+02 0.  0.
         13    1    3    3    0    0 -0.16156406545E+02 -0.33247823983E+02 -0.17206669576E+02  0.40774108377E+02  0.10566000000E+00 0.  1.
         22    1    1    0    0    0 -0.19444429106E+02  0.11589742175E+02 -0.18659028459E+02  0.29335427217E+02  0.00000000000E+00 0. -1.
</event>
<event>
 5    1  0.1254496E-009  0.9118800E+02  0.7815553E-02  0.1125453E+00
         25   -1    0    0    0    0  0.00000000000E+00  0.00000000000E+00  0.99999998245E-14  0.12509000000E+03  0.12509000000E+03 0.  0.
        -13    1    3    3    0    0 -0.11019775797E+02 -0.10407492811E+02  0.94094465696E+01  0.17840970097E+02  0.10566000000E+00 0.  1.
         23    2    1    0    0    0  0.32167252700E+02 -0.22386226844E+02 -0.28573765770E+02  0.76589119711E+02  0.59275271988E+02 0.  0.
         13    1    3    3    0    0  0.43187028497E+02 -0.11978734033E+02 -0.37983212339E+02  0.58748149614E+02  0.10566000000E+00 0. -1.
         22    1    1    0    0    0 -0.32167252700E+02  0.22386226844E+02  0.28573765770E+02  0.48500880289E+02  0.00000000000E+00 0. -1.
</event>
<event>
 5    1  0.1254496E-009  0.9118800E+02  0.7815553E-02  0.1125453E+00
         25   -1    0    0    0    0  0.00000000000E+00  0.00000000000E+00  0.99999998245E-14  0.12509000000E+03  0.12509000000E+03 0.  0.
        -13    1    3    3    0    0 -0.78371290261E+01 -0.52826594421E+02 -0.16239337154E+02  0.55819323757E+02  0.10566000000E+00 0.  1.
         23    2    1    0    0    0  0.99788710066E+01 -0.25492016250E+02  0.81177134378E+01  0.96536225635E+02  0.92216727492E+02 0.  0.
         13    1    3    3    0    0  0.17816000033E+02  0.27334578171E+02  0.24357050592E+02  0.40716901878E+02  0.10566000000E+00 0. -1.
         22    1    1    0    0    0 -0.99788710066E+01  0.25492016250E+02 -0.81177134378E+01  0.28553774365E+02  0.00000000000E+00 0.  1.
</event>
<event>
 5    1  0.1254496E-009  0.9118800E+02  0.7815553E-02  0.1125453E+00
         25   -1    0    0    0    0  0.00000000000E+00  0.00000000000E+00  0.99999998245E-14  0.12509000000E+03  0.12509000000E+03 0.  0.
        -13    1    3    3    0    0 -0.28641359984E+01 -0.36892462405E+02 -0.25980978366E+02  0.45213708742E+02  0.10566000000E+00 0. -1.
         23    2    1    0    0    0  0.15867375546E+02  0.10573798118E+02 -0.21369388838E+02  0.96450349292E+02  0.92100164418E+02 0.  0.
         13    1    3    3    0    0  0.18731511545E+02  0.47466260523E+02  0.46115895273E+01  0.51236640550E+02  0.10566000000E+00 0.  1.
         22    1    1    0    0    0 -0.15867375546E+02 -0.10573798118E+02  0.21369388838E+02  0.28639650708E+02  0.00000000000E+00 0.  1.
</event>
<event>
 5    1  0.1254496E-009  0.9118800E+02  0.7815553E-02  0.1125453E+00
         25   -1    0    0    0    0  0.00000000000E+00  0.00000000000E+00  0.99999998245E-14  0.12509000000E+03  0.12509000000E+03 0.  0.
        -13    1    3    3    0    0  0.25989001739E+02 -0.40308951067E-01 -0.20877656421E+02  0.33336429591E+02  0.10566000000E+00 0. -1.
         23    2    1    0    0    0 -0.10512870045E+02 -0.17164084748E+02  0.24067068981E+02  0.93715646601E+02  0.88307827324E+02 0.  0.
         13    1    3    3    0    0 -0.36501871784E+02 -0.17123775797E+02  0.44944725402E+02  0.60379217011E+02  0.10566000000E+00 0.  1.
         22    1    1    0    0    0  0.10512870045E+02  0.17164084748E+02 -0.24067068981E+02  0.31374353399E+02  0.00000000000E+00 0.  1.
</event>
<event>
 5    1  0.1254496E-009  0.9118800E+02  0.7815553E-02  0.1125453E+00
         25   -1    0    0    0    0  0.00000000000E+00  0.00000000000E+00  0.99999998245E-14  0.12509000000E+03  0.12509000000E+03 0.  0.
        -13    1    3    3    0    0 -0.48313945493E+01  0.50143101496E+02  0.67158064245E+01  0.50821119831E+02  0.10566000000E+00 0. -1.
         23    2    1    0    0    0  0.24740305557E+02  0.24104190578E+02  0.40278226798E+01  0.90314749059E+02  0.83351279652E+02 0.  0.
         13    1    3    3    0    0  0.29571700106E+02 -0.26038910918E+02 -0.26879837447E+01  0.39493629228E+02  0.10566000000E+00 0.  1.
         22    1    1    0    0    0 -0.24740305557E+02 -0.24104190578E+02 -0.40278226798E+01  0.34775250941E+02  0.00000000000E+00 0.  1.
</event>
<event>
 5    1  0.1254496E-009  0.9118800E+02  0.7815553E-02  0.1125453E+00
         25   -1    0    0    0    0  0.00000000000E+00  0.00000000000E+00  0.99999998245E-14  0.12509000000E+03  0.12509000000E+03 0.  0.
        -13    1    3    3    0    0  0.11972482497E+02 -0.54162692078E+02 -0.24970662269E+02  0.60831592849E+02  0.10566000000E+00 0.  1.
         23    2    1    0    0    0  0.32335062321E+01 -0.17630051162E+02 -0.19179332511E+02  0.98838884555E+02  0.95289055185E+02 0.  0.
         13    1    3    3    0    0 -0.87389762654E+01  0.36532640916E+02  0.57913297581E+01  0.38007291706E+02  0.10566000000E+00 0. -1.
         22    1    1    0    0    0 -0.32335062321E+01  0.17630051162E+02  0.19179332511E+02  0.26251115445E+02  0.00000000000E+00 0.  1.
</event>
<event>
 5    1  0.1254496E-009  0.9118800E+02  0.7815553E-02  0.1125453E+00
         25   -1    0    0    0    0  0.00000000000E+00  0.00000000000E+00  0.99999998245E-14  0.12509000000E+03  0.12509000000E+03 0.  0.
        -13    1    3    3    0    0  0.28922769374E+02  0.24763190274E+01 -0.51423078306E+02  0.59050850042E+02  0.10566000000E+00 0.  1.
         23    2    1    0    0    0  0.28221154131E+02  0.30870386510E+01 -0.20296712064E+02  0.90191291302E+02  0.83165793197E+02 0.  0.
         13    1    3    3    0    0 -0.70161524263E+00  0.61071962358E+00  0.31126366242E+02  0.31140441260E+02  0.10566000000E+00 0. -1.
         22    1    1    0    0    0 -0.28221154131E+02 -0.30870386510E+01  0.20296712064E+02  0.34898708698E+02  0.00000000000E+00 0.  1.
</event>
<event>
 5    1  0.1254496E-009  0.9118800E+02  0.7815553E-02  0.1125453E+00
         25   -1    0    0    0    0  0.00000000000E+00  0.00000000000E+00  0.99999998245E-14  0.12509000000E+03  0.12509000000E+03 0.  0.
        -13    1    3    3    0    0 -0.26273973750E+02 -0.22976458784E+01 -0.28249302143E+02  0.38647575717E+02  0.10566000000E+00 0.  1.
         23    2    1    0    0    0  0.20145911066E+02  0.20659721187E+02 -0.35712593576E+01  0.96013622894E+02  0.91505082239E+02 0.  0.
         13    1    3    3    0    0  0.46419884817E+02  0.22957367065E+02  0.24678042785E+02  0.57366047177E+02  0.10566000000E+00 0. -1.
         22    1    1    0    0    0 -0.20145911066E+02 -0.20659721187E+02  0.35712593576E+01  0.29076377106E+02  0.00000000000E+00 0. -1.
</event>
<event>
 5    1  0.1254496E-009  0.9118800E+02  0.7815553E-02  0.1125453E+00
         25   -1    0    0    0    0  0.00000000000E+00  0.00000000000E+00  0.99999998245E-14  0.12509000000E+03  0.12509000000E+03 0.  0.
        -13    1    3    3    0    0  0.91603979604E+01 -0.22204759377E+02 -0.33217174335E+02  0.40992146377E+02  0.10566000000E+00 0.  1.
         23    2    1    0    0    0 -0.19751810518E+02  0.17938656429E+02 -0.18554663541E+02  0.92590693048E+02  0.86699662553E+02 0.  0.
         13    1    3    3    0    0 -0.28912208479E+02  0.40143415806E+02  0.14662510794E+02  0.51598546671E+02  0.10566000000E+00 0. -1.
         22    1    1    0    0    0  0.19751810518E+02 -0.17938656429E+02  0.18554663541E+02  0.32499306952E+02  0.00000000000E+00 0.  1.
</event>
<event>
 5    1  0.1254496E-009  0.9118800E+02  0.7815553E-02  0.1125453E+00
         25   -1    0    0    0    0  0.00000000000E+00  0.00000000000E+00  0.99999998245E-14  0.12509000000E+03  0.12509000000E+03 0.  0.
        -13    1    3    3    0    0  0.28473247824E+02  0.37629919806E+02 -0.19741520043E+01  0.47229706186E+02  0.10566000000E+00 0. -1.
         23    2    1    0    0    0 -0.15402998412E+02  0.24152185073E+02  0.10142293273E+02  0.94701737188E+02  0.89693770741E+02 0.  0.
         13    1    3    3    0    0 -0.43876246236E+02 -0.13477734732E+02  0.12116445277E+02  0.47472031002E+02  0.10566000000E+00 0.  1.
         22    1    1    0    0    0  0.15402998412E+02 -0.24152185073E+02 -0.10142293273E+02  0.30388262812E+02  0.00000000000E+00 0.  1.
</event>
<event>
 5    1  0.1254496E-009  0.9118800E+02  0.7815553E-02  0.1125453E+00
         25   -1    0    0    0    0  0.00000000000E+00  0.00000000000E+00  0.99999998245E-14  0.12509000000E+03  0.12509000000E+03 0.  0.
        -13    1    3    3    0    0 -0.43117949230E+01 -0.16746017746E+02  0.51225964340E+02  0.54065989979E+02  0.10566000000E+00 0.  1.
         23    2    1    0    0    0  0.20127509339E+02 -0.10624217869E+01  0.21309454294E+02  0.95758477459E+02  0.91155624021E+02 0.  0.
         13    1    3    3    0    0  0.24439304262E+02  0.15683595959E+02 -0.29916510045E+02  0.41692487481E+02  0.10566000000E+00 0. -1.
         22    1    1    0    0    0 -0.20127509339E+02  0.10624217869E+01 -0.21309454294E+02  0.29331522541E+02  0.00000000000E+00 0. -1.
</event>
<event>
 5    1  0.1254496E-009  0.9118800E+02  0.7815553E-02  0.1125453E+00
         25   -1    0    0    0    0  0.00000000000E+00  0.00000000000E+00  0.99999998245E-14  0.12509000000E+03  0.12509000000E+03 0.  0.
        -13    1    3    3    0    0  0.28672768689E+02 -0.53692822140E+01 -0.51920313818E+02  0.59554067928E+02  0.10566000000E+00 0. -1.
         23    2    1    0    0    0  0.13325062438E+02 -0.15752956925E+02 -0.20676010694E+02  0.95880235210E+02  0.91322555510E+02 0.  0.
         13    1    3    3    0    0 -0.15347706251E+02 -0.10383674711E+02  0.31244303124E+02  0.36326167282E+02  0.10566000000E+00 0.  1.
         22    1    1    0    0    0 -0.13325062438E+02  0.15752956925E+02  0.20676010694E+02  0.29209764790E+02  0.00000000000E+00 0. -1.
</event>
<event>
 5    1  0.1254496E-009  0.9118800E+02  0.7815553E-02  0.1125453E+00
         25   -1    0    0    0    0  0.00000000000E+00  0.00000000000E+00  0.99999998245E-14  0.12509000000E+03  0.12509000000E+03 0.  0.
        -13    1    3    3    0    0 -0.87787593958E+01 -0.16477145268E+02  0.51809860241E+02  0.55071187702E+02  0.10566000000E+00 0. -1.
         23    2    1    0    0    0  0.14077645869E+02 -0.17940444009E+02  0.17404258282E+02  0.96402932343E+02  0.92035740414E+02 0.  0.
         13    1    3    3    0    0  0.22856405265E+02 -0.14632987407E+01 -0.34405601959E+02  0.41331744641E+02  0.10566000000E+00 0.  1.
         22    1    1    0    0    0 -0.14077645869E+02  0.17940444009E+02 -0.17404258282E+02  0.28687067657E+02  0.00000000000E+00 0. -1.
</event>
<event>
 5    1  0.1254496E-009  0.9118800E+02  0.7815553E-02  0.1125453E+00
         25   -1    0    0    0    0  0.00000000000E+00  0.00000000000E+00  0.99999998245E-14  0.12509000000E+03  0.12509000000E+03 0.  0.
        -13    1    3    3    0    0 -0.40033888441E+02 -0.23880760342E+02  0.12983852674E+02  0.48390025134E+02  0.10566000000E+00 0. -1.
         23    2    1    0    0    0 -0.10330607217E+02  0.10915440696E+02  0.25205141999E+02  0.95744344883E+02  0.91136228267E+02 0.  0.
         13    1    3    3    0    0  0.29703281223E+02  0.34796201038E+02  0.12221289325E+02  0.47354319749E+02  0.10566000000E+00 0.  1.
         22    1    1    0    0    0  0.10330607217E+02 -0.10915440696E+02 -0.25205141999E+02  0.29345655117E+02  0.00000000000E+00 0.  1.
</event>
<event>
 5    1  0.1254496E-009  0.9118800E+02  0.7815553E-02  0.1125453E+00
         25   -1    0    0    0    0  0.00000000000E+00  0.00000000000E+00  0.99999998245E-14  0.12509000000E+03  0.12509000000E+03 0.  0.
        -13    1    3    3    0    0  0.16510449443E+02  0.26291706366E+02 -0.18686010264E+02  0.36235713157E+02  0.10566000000E+00 0.  1.
         23    2    1    0    0    0 -0.13568812943E+02 -0.44358458284E+01  0.24217371218E+02  0.96978250115E+02  0.92814387429E+02 0.  0.
         13    1    3    3    0    0 -0.30079262386E+02 -0.30727552194E+02  0.42903381481E+02  0.60742536958E+02  0.10566000000E+00 0. -1.
         22    1    1    0    0    0  0.13568812943E+02  0.44358458284E+01 -0.24217371218E+02  0.28111749885E+02  0.00000000000E+00 0. -1.
</event>
<event>
 5    1  0.1254496E-009  0.9118800E+02  0.7815553E-02  0.1125453E+00
         25   -1    0    0    0    0  0.00000000000E+00  0.00000000000E+00  0.99999998245E-14  0.12509000000E+03  0.12509000000E+03 0.  0.
        -13    1    3    3    0    0 -0.10306430958E+02 -0.37711596984E+02  0.42195131425E+02  0.57522407340E+02  0.10566000000E+00 0.  1.
         23    2    1    0    0    0 -0.23939251580E+01 -0.34860020935E+01  0.30129411271E+02  0.94665264803E+02  0.89642890675E+02 0.  0.
         13    1    3    3    0    0  0.79125057997E+01  0.34225594891E+02 -0.12065720154E+02  0.37142857463E+02  0.10566000000E+00 0. -1.
         22    1    1    0    0    0  0.23939251580E+01  0.34860020935E+01 -0.30129411271E+02  0.30424735197E+02  0.00000000000E+00 0.  1.
</event>
<event>
 5    1  0.1254496E-009  0.9118800E+02  0.7815553E-02  0.1125453E+00
         25   -1    0    0    0    0  0.00000000000E+00  0.00000000000E+00  0.99999998245E-14  0.12509000000E+03  0.12509000000E+03 0.  0.
        -13    1    3    3    0    0  0.80857323433E+01  0.31166651777E+01 -0.59000177782E+02  0.59633252567E+02  0.10566000000E+00 0.  1.
         23    2    1    0    0    0 -0.54616469696E+01  0.11275383878E+02 -0.25540460844E+02  0.96642170393E+02  0.92360327462E+02 0.  0.
         13    1    3    3    0    0 -0.13547379313E+02  0.81587187001E+01  0.33459716938E+02  0.37008917826E+02  0.10566000000E+00 0. -1.
         22    1    1    0    0    0  0.54616469696E+01 -0.11275383878E+02  0.25540460844E+02  0.28447829607E+02  0.00000000000E+00 0.  1.
</event>
<event>
 5    1  0.1254496E-009  0.9118800E+02  0.7815553E-02  0.1125453E+00
         25   -1    0    0    0    0  0.00000000000E+00  0.00000000000E+00  0.99999998245E-14  0.12509000000E+03  0.12509000000E+03 0.  0.
        -13    1    3    3    0    0 -0.44212933585E+02  0.21655156115E+02  0.23949287781E+02  0.54747683347E+02  0.10566000000E+00 0. -1.
         23    2    1    0    0    0 -0.10354186460E+02 -0.38736998350E+00  0.27886487435E+02  0.95340791368E+02  0.90580633054E+02 0.  0.
         13    1    3    3    0    0  0.33858747125E+02 -0.22042526098E+02  0.39371996543E+01  0.40593108021E+02  0.10566000000E+00 0.  1.
         22    1    1    0    0    0  0.10354186460E+02  0.38736998350E+00 -0.27886487435E+02  0.29749208632E+02  0.00000000000E+00 0. -1.
</event>
<event>
 5    1  0.1254496E-009  0.9118800E+02  0.7815553E-02  0.1125453E+00
         25   -1    0    0    0    0  0.00000000000E+00  0.00000000000E+00  0.99999998245E-14  0.12509000000E+03  0.12509000000E+03 0.  0.
        -13    1    3    3    0    0 -0.32784090103E+01  0.46665759262E+02  0.49271760124E+01  0.47039656468E+02  0.10566000000E+00 0.  1.
         23    2    1    0    0    0 -0.27335132657E+01 -0.26707884407E+01  0.24628107021E+02  0.10016714180E+03  0.97017047133E+02 0.  0.
         13    1    3    3    0    0  0.54489574453E+00 -0.49336547703E+02  0.19700931008E+02  0.53127485327E+02  0.10566000000E+00 0. -1.
         22    1    1    0    0    0  0.27335132657E+01  0.26707884407E+01 -0.24628107021E+02  0.24922858205E+02  0.00000000000E+00 0. -1.
</event>
<event>
 5    1  0.1254496E-009  0.9118800E+02  0.7815553E-02  0.1125453E+00
         25   -1    0    0    0    0  0.00000000000E+00  0.00000000000E+00  0.99999998245E-14  0.12509000000E+03  0.12509000000E+03 0.  0.
        -13    1    3    3    0    0  0.12113683885E+02 -0.18925178332E+02  0.47003777376E+02  0.52098656065E+02  0.10566000000E+00 0.  1.
         23    2    1    0    0    0  0.24923169211E+02 -0.15885889562E+02  0.63109352023E+01  0.94868256936E+02  0.89925705003E+02 0.  0.
         13    1    3    3    0    0  0.12809485325E+02  0.30392887697E+01 -0.40692842173E+02  0.42769600872E+02  0.10566000000E+00 0. -1.
         22    1    1    0    0    0 -0.24923169211E+02  0.15885889562E+02 -0.63109352023E+01  0.30221743064E+02  0.00000000000E+00 0.  1.
</event>
<event>
 5    1  0.1254496E-009  0.9118800E+02  0.7815553E-02  0.1125453E+00
         25   -1    0    0    0    0  0.00000000000E+00  0.00000000000E+00  0.99999998245E-14  0.12509000000E+03  0.12509000000E+03 0.  0.
        -13    1    3    3    0    0 -0.27290195641E+02 -0.60242015326E+01  0.42669683627E+02  0.51007439135E+02  0.10566000000E+00 0.  1.
         23    2    1    0    0    0  0.96731230689E+01 -0.19052029003E+02  0.15253968485E+02  0.98836758799E+02  0.95286264573E+02 0.  0.
         13    1    3    3    0    0  0.36963318710E+02 -0.13027827470E+02 -0.27415715142E+02  0.47829319664E+02  0.10566000000E+00 0. -1.
         22    1    1    0    0    0 -0.96731230689E+01  0.19052029003E+02 -0.15253968485E+02  0.26253241201E+02  0.00000000000E+00 0.  1.
</event>
<event>
 5    1  0.1254496E-009  0.9118800E+02  0.7815553E-02  0.1125453E+00
         25   -1    0    0    0    0  0.00000000000E+00  0.00000000000E+00  0.99999998245E-14  0.12509000000E+03  0.12509000000E+03 0.  0.
        -13    1    3    3    0    0 -0.99543999510E+01 -0.20845754955E+02 -0.33341069628E+02  0.40561973152E+02  0.10566000000E+00 0. -1.
         23    2    1    0    0    0 -0.18485962229E+02  0.22483701993E+02  0.14255996926E+00  0.95982132023E+02  0.91462023209E+02 0.  0.
         13    1    3    3    0    0 -0.85315622781E+01  0.43329456948E+02  0.33483629597E+02  0.55420158871E+02  0.10566000000E+00 0.  1.
         22    1    1    0    0    0  0.18485962229E+02 -0.22483701993E+02 -0.14255996926E+00  0.29107867977E+02  0.00000000000E+00 0.  1.
</event>
<event>
 5    1  0.1254496E-009  0.9118800E+02  0.7815553E-02  0.1125453E+00
         25   -1    0    0    0    0  0.00000000000E+00  0.00000000000E+00  0.99999998245E-14  0.12509000000E+03  0.12509000000E+03 0.  0.
        -13    1    3    3    0    0 -0.61835303590E+02 -0.57502262725E+01 -0.72566544571E+01  0.62524715674E+02  0.10566000000E+00 0.  1.
         23    2    1    0    0    0 -0.29038276716E+02 -0.16596665892E+01 -0.29610419875E+01  0.95853998606E+02  0.91286610581E+02 0.  0.
         13    1    3    3    0    0  0.32797026873E+02  0.40905596833E+01  0.42956124696E+01  0.33329282932E+02  0.10566000000E+00 0. -1.
         22    1    1    0    0    0  0.29038276716E+02  0.16596665892E+01  0.29610419875E+01  0.29236001394E+02  0.00000000000E+00 0.  1.
</event>
<event>
 5    1  0.1254496E-009  0.9118800E+02  0.7815553E-02  0.1125453E+00
         25   -1    0    0    0    0  0.00000000000E+00  0.00000000000E+00  0.99999998245E-14  0.12509000000E+03  0.12509000000E+03 0.  0.
        -13    1    3    3    0    0 -0.44605287589E+02 -0.19685327297E+01  0.30599948892E+02  0.54128318265E+02  0.10566000000E+00 0. -1.
         23    2    1    0    0    0 -0.24558368827E+01 -0.65763781892E+01  0.27573528710E+02  0.96636891727E+02  0.92353177922E+02 0.  0.
         13    1    3    3    0    0  0.42149450706E+02 -0.46078454595E+01 -0.30264201819E+01  0.42508573462E+02  0.10566000000E+00 0.  1.
         22    1    1    0    0    0  0.24558368827E+01  0.65763781892E+01 -0.27573528710E+02  0.28453108273E+02  0.00000000000E+00 0. -1.
</event>
<event>
 5    1  0.1254496E-009  0.9118800E+02  0.7815553E-02  0.1125453E+00
         25   -1    0    0    0    0  0.00000000000E+00  0.00000000000E+00  0.99999998245E-14  0.12509000000E+03  0.12509000000E+03 0.  0.
        -13    1    3    3    0    0  0.30592478794E+02  0.42030676351E+02  0.44925918453E+01  0.52179230148E+02  0.10566000000E+00 0.  1.
         23    2    1    0    0    0 -0.91409417484E+01  0.28190722860E+02 -0.42449700210E+01  0.95151839704E+02  0.90319317740E+02 0.  0.
         13    1    3    3    0    0 -0.39733420542E+02 -0.13839953491E+02 -0.87375618663E+01  0.42972609556E+02  0.10566000000E+00 0. -1.
         22    1    1    0    0    0  0.91409417484E+01 -0.28190722860E+02  0.42449700210E+01  0.29938160296E+02  0.00000000000E+00 0. -1.
</event>
<event>
 5    1  0.1254496E-009  0.9118800E+02  0.7815553E-02  0.1125453E+00
         25   -1    0    0    0    0  0.00000000000E+00  0.00000000000E+00  0.99999998245E-14  0.12509000000E+03  0.12509000000E+03 0.  0.
        -13    1    3    3    0    0  0.98298364348E+01  0.20952053825E+02 -0.56400107667E+02  0.60963903687E+02  0.10566000000E+00 0.  1.
         23    2    1    0    0    0  0.50581909261E+01  0.42324616150E+00 -0.29596035287E+02  0.95061850915E+02  0.90194599406E+02 0.  0.
         13    1    3    3    0    0 -0.47716455087E+01 -0.20528807664E+02  0.26804072381E+02  0.34097947228E+02  0.10566000000E+00 0. -1.
         22    1    1    0    0    0 -0.50581909261E+01 -0.42324616150E+00  0.29596035287E+02  0.30028149085E+02  0.00000000000E+00 0.  1.
</event>
<event>
 5    1  0.1254496E-009  0.9118800E+02  0.7815553E-02  0.1125453E+00
         25   -1    0    0    0    0  0.00000000000E+00  0.00000000000E+00  0.99999998245E-14  0.12509000000E+03  0.12509000000E+03 0.  0.
        -13    1    3    3    0    0  0.82295543048E+01  0.30879323837E+02 -0.35874194215E+02  0.48044012939E+02  0.10566000000E+00 0.  1.
         23    2    1    0    0    0  0.60275564560E+01  0.26202518647E+02  0.11606184854E+02  0.95805073039E+02  0.91219543261E+02 0.  0.
         13    1    3    3    0    0 -0.22019978487E+01 -0.46768051902E+01  0.47480379069E+02  0.47761060100E+02  0.10566000000E+00 0. -1.
         22    1    1    0    0    0 -0.60275564560E+01 -0.26202518647E+02 -0.11606184854E+02  0.29284926961E+02  0.00000000000E+00 0.  1.
</event>
<event>
 5    1  0.1254496E-009  0.9118800E+02  0.7815553E-02  0.1125453E+00
         25   -1    0    0    0    0  0.00000000000E+00  0.00000000000E+00  0.99999998245E-14  0.12509000000E+03  0.12509000000E+03 0.  0.
        -13    1    3    3    0    0  0.28280415019E+02  0.41566585938E+02 -0.26614694900E+02  0.56885113069E+02  0.10566000000E+00 0.  1.
         23    2    1    0    0    0  0.29208482324E+02  0.96479346854E+01 -0.11090131651E+02  0.92391236975E+02  0.86411408774E+02 0.  0.
         13    1    3    3    0    0  0.92806730421E+00 -0.31918651253E+02  0.15524563249E+02  0.35506123906E+02  0.10566000000E+00 0. -1.
         22    1    1    0    0    0 -0.29208482324E+02 -0.96479346854E+01  0.11090131651E+02  0.32698763025E+02  0.00000000000E+00 0.  1.
</event>
<event>
 5    1  0.1254496E-009  0.9118800E+02  0.7815553E-02  0.1125453E+00
         25   -1    0    0    0    0  0.00000000000E+00  0.00000000000E+00  0.99999998245E-14  0.12509000000E+03  0.12509000000E+03 0.  0.
        -13    1    3    3    0    0 -0.38148202399E+02 -0.19609529681E+01  0.43459727751E+02  0.57860952144E+02  0.10566000000E+00 0.  1.
         23    2    1    0    0    0 -0.25270561264E+02  0.87553697870E+01  0.78460230622E+01  0.97218547856E+02  0.93137684117E+02 0.  0.
         13    1    3    3    0    0  0.12877641135E+02  0.10716322755E+02 -0.35613704688E+02  0.39357595712E+02  0.10566000000E+00 0. -1.
         22    1    1    0    0    0  0.25270561264E+02 -0.87553697870E+01 -0.78460230622E+01  0.27871452144E+02  0.00000000000E+00 0.  1.
</event>
<event>
 5    1  0.1254496E-009  0.9118800E+02  0.7815553E-02  0.1125453E+00
         25   -1    0    0    0    0  0.00000000000E+00  0.00000000000E+00  0.99999998245E-14  0.12509000000E+03  0.12509000000E+03 0.  0.
        -13    1    3    3    0    0 -0.39879708250E+02  0.13870946320E+01 -0.90144456855E+01  0.40909492257E+02  0.10566000000E+00 0. -1.
         23    2    1    0    0    0  0.12295617075E+02  0.22776051114E+01 -0.26371902393E+02  0.95903583294E+02  0.91354531188E+02 0.  0.
         13    1    3    3    0    0  0.52175325325E+02  0.89051047940E+00 -0.17357456708E+02  0.54994091038E+02  0.10566000000E+00 0.  1.
         22    1    1    0    0    0 -0.12295617075E+02 -0.22776051114E+01  0.26371902393E+02  0.29186416706E+02  0.00000000000E+00 0.  1.
</event>
<event>
 5    1  0.1254496E-009  0.9118800E+02  0.7815553E-02  0.1125453E+00
         25   -1    0    0    0    0  0.00000000000E+00  0.00000000000E+00  0.99999998245E-14  0.12509000000E+03  0.12509000000E+03 0.  0.
        -13    1    3    3    0    0 -0.42950985664E+01  0.20245886585E+02 -0.38733932537E+02  0.43916653892E+02  0.10566000000E+00 0.  1.
         23    2    1    0    0    0 -0.18031105716E+02  0.21201146246E+02  0.10730044850E+02  0.95261435871E+02  0.90470978364E+02 0.  0.
         13    1    3    3    0    0 -0.13736007150E+02  0.95525966148E+00  0.49463977387E+02  0.51344781979E+02  0.10566000000E+00 0. -1.
         22    1    1    0    0    0  0.18031105716E+02 -0.21201146246E+02 -0.10730044850E+02  0.29828564129E+02  0.00000000000E+00 0. -1.
</event>
<event>
 5    1  0.1254496E-009  0.9118800E+02  0.7815553E-02  0.1125453E+00
         25   -1    0    0    0    0  0.00000000000E+00  0.00000000000E+00  0.99999998245E-14  0.12509000000E+03  0.12509000000E+03 0.  0.
        -13    1    3    3    0    0 -0.27699824911E+02 -0.49245037317E+01 -0.27676341319E+02  0.39465454133E+02  0.10566000000E+00 0.  1.
         23    2    1    0    0    0 -0.47148895273E+01  0.26615056717E+02  0.12353614641E+02  0.95371264798E+02  0.90622706466E+02 0.  0.
         13    1    3    3    0    0  0.22984935384E+02  0.31539560448E+02  0.40029955960E+02  0.55905810665E+02  0.10566000000E+00 0. -1.
         22    1    1    0    0    0  0.47148895273E+01 -0.26615056717E+02 -0.12353614641E+02  0.29718735202E+02  0.00000000000E+00 0. -1.
</event>
<event>
 5    1  0.1254496E-009  0.9118800E+02  0.7815553E-02  0.1125453E+00
         25   -1    0    0    0    0  0.00000000000E+00  0.00000000000E+00  0.99999998245E-14  0.12509000000E+03  0.12509000000E+03 0.  0.
        -13    1    3    3    0    0  0.38676855849E+02 -0.32116544175E+02  0.28094759770E+02  0.57590782932E+02  0.10566000000E+00 0.  1.
         23    2    1    0    0    0  0.14184763932E+02 -0.26376087000E+02  0.21681492120E+00  0.95140834704E+02  0.90304074804E+02 0.  0.
         13    1    3    3    0    0 -0.24492091917E+02  0.57404571752E+01 -0.27877944849E+02  0.37550051772E+02  0.10566000000E+00 0. -1.
         22    1    1    0    0    0 -0.14184763932E+02  0.26376087000E+02 -0.21681492120E+00  0.29949165296E+02  0.00000000000E+00 0.  1.
</event>
<event>
 5    1  0.1254496E-009  0.9118800E+02  0.7815553E-02  0.1125453E+00
         25   -1    0    0    0    0  0.00000000000E+00  0.00000000000E+00  0.99999998245E-14  0.12509000000E+03  0.12509000000E+03 0.  0.
        -13    1    3    3    0    0 -0.45358360987E+02  0.37271589289E+02 -0.14347233231E+02  0.60435143294E+02  0.10566000000E+00 0. -1.
         23    2    1    0    0    0 -0.22877164252E+02  0.10779086029E+02 -0.15903402035E+02  0.95215737898E+02  0.90407771830E+02 0.  0.
         13    1    3    3    0    0  0.22481196735E+02 -0.26492503259E+02 -0.15561688040E+01  0.34780594603E+02  0.10566000000E+00 0.  1.
         22    1    1    0    0    0  0.22877164252E+02 -0.10779086029E+02  0.15903402035E+02  0.29874262102E+02  0.00000000000E+00 0. -1.
</event>
<event>
 5    1  0.1254496E-009  0.9118800E+02  0.7815553E-02  0.1125453E+00
         25   -1    0    0    0    0  0.00000000000E+00  0.00000000000E+00  0.99999998245E-14  0.12509000000E+03  0.12509000000E+03 0.  0.
        -13    1    3    3    0    0 -0.34796704592E+02 -0.47730644788E+02 -0.11104698981E+02  0.60102833593E+02  0.10566000000E+00 0. -1.
         23    2    1    0    0    0 -0.21650636388E+02 -0.13425655989E+02 -0.12171920918E+02  0.96856085047E+02  0.92649593939E+02 0.  0.
         13    1    3    3    0    0  0.13146068204E+02  0.34304988799E+02 -0.10672219369E+01  0.36753251454E+02  0.10566000000E+00 0.  1.
         22    1    1    0    0    0  0.21650636388E+02  0.13425655989E+02  0.12171920918E+02  0.28233914953E+02  0.00000000000E+00 0. -1.
</event>
<event>
 5    1  0.1254496E-009  0.9118800E+02  0.7815553E-02  0.1125453E+00
         25   -1    0    0    0    0  0.00000000000E+00  0.00000000000E+00  0.99999998245E-14  0.12509000000E+03  0.12509000000E+03 0.  0.
        -13    1    3    3    0    0 -0.11377760604E+02 -0.22025278876E+01  0.34471826255E+02  0.36367877789E+02  0.10566000000E+00 0.  1.
         23    2    1    0    0    0 -0.94767985885E+01 -0.32696084855E+02 -0.93484667768E+01  0.89787910722E+02  0.82556837417E+02 0.  0.
         13    1    3    3    0    0  0.19009620152E+01 -0.30493556967E+02 -0.43820293032E+02  0.53420032933E+02  0.10566000000E+00 0. -1.
         22    1    1    0    0    0  0.94767985885E+01  0.32696084855E+02  0.93484667768E+01  0.35302089278E+02  0.00000000000E+00 0. -1.
</event>
<event>
 5    1  0.1254496E-009  0.9118800E+02  0.7815553E-02  0.1125453E+00
         25   -1    0    0    0    0  0.00000000000E+00  0.00000000000E+00  0.99999998245E-14  0.12509000000E+03  0.12509000000E+03 0.  0.
        -13    1    3    3    0    0 -0.17725100366E+02  0.12848768907E+01  0.36761138413E+02  0.40831636669E+02  0.10566000000E+00 0.  1.
         23    2    1    0    0    0 -0.17752648034E+02 -0.17492982041E+02 -0.15073736449E+02  0.95963062924E+02  0.91435939226E+02 0.  0.
         13    1    3    3    0    0 -0.27547668593E-01 -0.18777858931E+02 -0.51834874862E+02  0.55131426255E+02  0.10566000000E+00 0. -1.
         22    1    1    0    0    0  0.17752648034E+02  0.17492982041E+02  0.15073736449E+02  0.29126937076E+02  0.00000000000E+00 0. -1.
</event>
<event>
 5    1  0.1254496E-009  0.9118800E+02  0.7815553E-02  0.1125453E+00
         25   -1    0    0    0    0  0.00000000000E+00  0.00000000000E+00  0.99999998245E-14  0.12509000000E+03  0.12509000000E+03 0.  0.
        -13    1    3    3    0    0  0.25965655205E+02 -0.19800741645E+02  0.11097153409E+01  0.32673035550E+02  0.10566000000E+00 0. -1.
         23    2    1    0    0    0 -0.27548486395E+02  0.11827906273E+02 -0.29327606194E+01  0.94966594576E+02  0.90062392435E+02 0.  0.
         13    1    3    3    0    0 -0.53514141600E+02  0.31628647917E+02 -0.40424759603E+01  0.62293559026E+02  0.10566000000E+00 0.  1.
         22    1    1    0    0    0  0.27548486395E+02 -0.11827906273E+02  0.29327606194E+01  0.30123405424E+02  0.00000000000E+00 0.  1.
</event>
<event>
 5    1  0.1254496E-009  0.9118800E+02  0.7815553E-02  0.1125453E+00
         25   -1    0    0    0    0  0.00000000000E+00  0.00000000000E+00  0.99999998245E-14  0.12509000000E+03  0.12509000000E+03 0.  0.
        -13    1    3    3    0    0  0.17501155320E+02  0.36114041113E+02  0.44899764152E+02  0.60220547888E+02  0.10566000000E+00 0. -1.
         23    2    1    0    0    0  0.18538255435E+02  0.11147212907E+02  0.17865985897E+02  0.97034328163E+02  0.92889935514E+02 0.  0.
         13    1    3    3    0    0  0.10371001156E+01 -0.24966828206E+02 -0.27033778255E+02  0.36813780275E+02  0.10566000000E+00 0.  1.
         22    1    1    0    0    0 -0.18538255435E+02 -0.11147212907E+02 -0.17865985897E+02  0.28055671837E+02  0.00000000000E+00 0. -1.
</event>
<event>
 5    1  0.1254496E-009  0.9118800E+02  0.7815553E-02  0.1125453E+00
         25   -1    0    0    0    0  0.00000000000E+00  0.00000000000E+00  0.99999998245E-14  0.12509000000E+03  0.12509000000E+03 0.  0.
        -13    1    3    3    0    0  0.16143405963E+02  0.41952287367E+02 -0.10673954931E+02  0.46201173679E+02  0.10566000000E+00 0.  1.
         23    2    1    0    0    0  0.79021123735E+01  0.10197115839E+02  0.26399923355E+02  0.95706662808E+02  0.91084492650E+02 0.  0.
         13    1    3    3    0    0 -0.82412935895E+01 -0.31755171527E+02  0.37073878286E+02  0.49505489129E+02  0.10566000000E+00 0. -1.
         22    1    1    0    0    0 -0.79021123735E+01 -0.10197115839E+02 -0.26399923355E+02  0.29383337192E+02  0.00000000000E+00 0. -1.
</event>
<event>
 5    1  0.1254496E-009  0.9118800E+02  0.7815553E-02  0.1125453E+00
         25   -1    0    0    0    0  0.00000000000E+00  0.00000000000E+00  0.99999998245E-14  0.12509000000E+03  0.12509000000E+03 0.  0.
        -13    1    3    3    0    0 -0.28637248175E+01 -0.38112205872E+02  0.97441262107E+01  0.39442367017E+02  0.10566000000E+00 0.  1.
         23    2    1    0    0    0 -0.71792699481E+01  0.42860513248E+01 -0.27689511840E+02  0.96165594754E+02  0.91712596711E+02 0.  0.
         13    1    3    3    0    0 -0.43155451305E+01  0.42398257197E+02 -0.37433638050E+02  0.56723227736E+02  0.10566000000E+00 0. -1.
         22    1    1    0    0    0  0.71792699481E+01 -0.42860513248E+01  0.27689511840E+02  0.28924405246E+02  0.00000000000E+00 0. -1.
</event>
<event>
 5    1  0.1254496E-009  0.9118800E+02  0.7815553E-02  0.1125453E+00
         25   -1    0    0    0    0  0.00000000000E+00  0.00000000000E+00  0.99999998245E-14  0.12509000000E+03  0.12509000000E+03 0.  0.
        -13    1    3    3    0    0 -0.47233738009E+01  0.29696258460E+02 -0.15119213473E+02  0.33656794360E+02  0.10566000000E+00 0. -1.
         23    2    1    0    0    0  0.32868871127E+02 -0.38346791076E+01 -0.23201714561E+02  0.84674817066E+02  0.74407241808E+02 0.  0.
         13    1    3    3    0    0  0.37592244928E+02 -0.33530937567E+02 -0.80825010888E+01  0.51018022705E+02  0.10566000000E+00 0.  1.
         22    1    1    0    0    0 -0.32868871127E+02  0.38346791076E+01  0.23201714561E+02  0.40415182934E+02  0.00000000000E+00 0.  1.
</event>
<event>
 5    1  0.1254496E-009  0.9118800E+02  0.7815553E-02  0.1125453E+00
         25   -1    0    0    0    0  0.00000000000E+00  0.00000000000E+00  0.99999998245E-14  0.12509000000E+03  0.12509000000E+03 0.  0.
        -13    1    3    3    0    0 -0.26916312190E+02  0.24232040082E+02 -0.19567066116E+02  0.41165044260E+02  0.10566000000E+00 0.  1.
         23    2    1    0    0    0  0.13569966317E+02 -0.12478580346E+02 -0.22628513497E+02  0.95902527064E+02  0.91353084900E+02 0.  0.
         13    1    3    3    0    0  0.40486278508E+02 -0.36710620428E+02 -0.30614473814E+01  0.54737482804E+02  0.10566000000E+00 0. -1.
         22    1    1    0    0    0 -0.13569966317E+02  0.12478580346E+02  0.22628513497E+02  0.29187472936E+02  0.00000000000E+00 0. -1.
</event>
<event>
 5    1  0.1254496E-009  0.9118800E+02  0.7815553E-02  0.1125453E+00
         25   -1    0    0    0    0  0.00000000000E+00  0.00000000000E+00  0.99999998245E-14  0.12509000000E+03  0.12509000000E+03 0.  0.
        -13    1    3    3    0    0 -0.35009817821E+02 -0.47256004771E+02 -0.17892874916E+02  0.61473437090E+02  0.10566000000E+00 0. -1.
         23    2    1    0    0    0 -0.15281892847E+02 -0.24702846949E+02 -0.66999975212E+00  0.96034608142E+02  0.91533765163E+02 0.  0.
         13    1    3    3    0    0  0.19727924975E+02  0.22553157822E+02  0.17222875164E+02  0.34561171052E+02  0.10566000000E+00 0.  1.
         22    1    1    0    0    0  0.15281892847E+02  0.24702846949E+02  0.66999975212E+00  0.29055391858E+02  0.00000000000E+00 0. -1.
</event>
<event>
 5    1  0.1254496E-009  0.9118800E+02  0.7815553E-02  0.1125453E+00
         25   -1    0    0    0    0  0.00000000000E+00  0.00000000000E+00  0.99999998245E-14  0.12509000000E+03  0.12509000000E+03 0.  0.
        -13    1    3    3    0    0  0.86222324509E+00 -0.43692718023E+02  0.21775831886E+02  0.48826171830E+02  0.10566000000E+00 0. -1.
         23    2    1    0    0    0 -0.25680732596E+02 -0.14886522735E+02 -0.31264456495E+01  0.95242332617E+02  0.90444561330E+02 0.  0.
         13    1    3    3    0    0 -0.26542955841E+02  0.28806195288E+02 -0.24902277535E+02  0.46416160787E+02  0.10566000000E+00 0.  1.
         22    1    1    0    0    0  0.25680732596E+02  0.14886522735E+02  0.31264456495E+01  0.29847667383E+02  0.00000000000E+00 0. -1.
</event>
<event>
 5    1  0.1254496E-009  0.9118800E+02  0.7815553E-02  0.1125453E+00
         25   -1    0    0    0    0  0.00000000000E+00  0.00000000000E+00  0.99999998245E-14  0.12509000000E+03  0.12509000000E+03 0.  0.
        -13    1    3    3    0    0  0.23594328130E+02  0.23716693923E+02 -0.23806993947E+02  0.41060419084E+02  0.10566000000E+00 0. -1.
         23    2    1    0    0    0 -0.31684332062E+01  0.15568532306E+02  0.23915328358E+02  0.96378310785E+02  0.92002270038E+02 0.  0.
         13    1    3    3    0    0 -0.26762761336E+02 -0.81481616172E+01  0.47722322304E+02  0.55317891701E+02  0.10566000000E+00 0.  1.
         22    1    1    0    0    0  0.31684332062E+01 -0.15568532306E+02 -0.23915328358E+02  0.28711689215E+02  0.00000000000E+00 0.  1.
</event>
<event>
 5    1  0.1254496E-009  0.9118800E+02  0.7815553E-02  0.1125453E+00
         25   -1    0    0    0    0  0.00000000000E+00  0.00000000000E+00  0.99999998245E-14  0.12509000000E+03  0.12509000000E+03 0.  0.
        -13    1    3    3    0    0 -0.39746837932E+01 -0.79667931511E+01  0.44238483043E+02  0.45125629640E+02  0.10566000000E+00 0.  1.
         23    2    1    0    0    0  0.10859037703E+02 -0.27098256266E+02 -0.38666223583E+00  0.95894389026E+02  0.91341940785E+02 0.  0.
         13    1    3    3    0    0  0.14833721496E+02 -0.19131463115E+02 -0.44625145279E+02  0.50768759386E+02  0.10566000000E+00 0. -1.
         22    1    1    0    0    0 -0.10859037703E+02  0.27098256266E+02  0.38666223583E+00  0.29195610974E+02  0.00000000000E+00 0. -1.
</event>
<event>
 5    1  0.1254496E-009  0.9118800E+02  0.7815553E-02  0.1125453E+00
         25   -1    0    0    0    0  0.00000000000E+00  0.00000000000E+00  0.99999998245E-14  0.12509000000E+03  0.12509000000E+03 0.  0.
        -13    1    3    3    0    0 -0.25745207325E+02 -0.38039258092E+02  0.23710664102E+02  0.51691465568E+02  0.10566000000E+00 0.  1.
         23    2    1    0    0    0  0.88765720293E+01 -0.11473894146E+02  0.25919862604E+02  0.95386750089E+02  0.90644078887E+02 0.  0.
         13    1    3    3    0    0  0.34621779354E+02  0.26565363946E+02  0.22091985023E+01  0.43695284520E+02  0.10566000000E+00 0. -1.
         22    1    1    0    0    0 -0.88765720293E+01  0.11473894146E+02 -0.25919862604E+02  0.29703249911E+02  0.00000000000E+00 0.  1.
</event>
<event>
 5    1  0.1254496E-009  0.9118800E+02  0.7815553E-02  0.1125453E+00
         25   -1    0    0    0    0  0.00000000000E+00  0.00000000000E+00  0.99999998245E-14  0.12509000000E+03  0.12509000000E+03 0.  0.
        -13    1    3    3    0    0 -0.30513122414E+02  0.46643739931E+02  0.18138795074E+02  0.58614982428E+02  0.10566000000E+00 0.  1.
         23    2    1    0    0    0 -0.53824931986E+01  0.24482814152E+02  0.21198772090E+02  0.92260632660E+02  0.86222137407E+02 0.  0.
         13    1    3    3    0    0  0.25130629216E+02 -0.22160925780E+02  0.30599770158E+01  0.33645650232E+02  0.10566000000E+00 0. -1.
         22    1    1    0    0    0  0.53824931986E+01 -0.24482814152E+02 -0.21198772090E+02  0.32829367340E+02  0.00000000000E+00 0.  1.
</event>
<event>
 5    1  0.1254496E-009  0.9118800E+02  0.7815553E-02  0.1125453E+00
         25   -1    0    0    0    0  0.00000000000E+00  0.00000000000E+00  0.99999998245E-14  0.12509000000E+03  0.12509000000E+03 0.  0.
        -13    1    3    3    0    0 -0.39353262468E+02  0.22405099957E+02  0.17638269315E+01  0.45318760138E+02  0.10566000000E+00 0.  1.
         23    2    1    0    0    0  0.40059211821E+01  0.11880854214E+02  0.26094410864E+02  0.96139691198E+02  0.91677259143E+02 0.  0.
         13    1    3    3    0    0  0.43359183650E+02 -0.10524245744E+02  0.24330583933E+02  0.50820931060E+02  0.10566000000E+00 0. -1.
         22    1    1    0    0    0 -0.40059211821E+01 -0.11880854214E+02 -0.26094410864E+02  0.28950308802E+02  0.00000000000E+00 0. -1.
</event>
<event>
 5    1  0.1254496E-009  0.9118800E+02  0.7815553E-02  0.1125453E+00
         25   -1    0    0    0    0  0.00000000000E+00  0.00000000000E+00  0.99999998245E-14  0.12509000000E+03  0.12509000000E+03 0.  0.
        -13    1    3    3    0    0 -0.22260722776E+02  0.29054039506E+02  0.11658637093E+02  0.38413695123E+02  0.10566000000E+00 0. -1.
         23    2    1    0    0    0  0.14016845849E+01  0.71210947708E+00 -0.30554432851E+02  0.94495144445E+02  0.89405185181E+02 0.  0.
         13    1    3    3    0    0  0.23662407360E+02 -0.28341930029E+02 -0.42213069945E+02  0.56081449322E+02  0.10566000000E+00 0.  1.
         22    1    1    0    0    0 -0.14016845849E+01 -0.71210947708E+00  0.30554432851E+02  0.30594855555E+02  0.00000000000E+00 0.  1.
</event>
<event>
 5    1  0.1254496E-009  0.9118800E+02  0.7815553E-02  0.1125453E+00
         25   -1    0    0    0    0  0.00000000000E+00  0.00000000000E+00  0.99999998245E-14  0.12509000000E+03  0.12509000000E+03 0.  0.
        -13    1    3    3    0    0  0.44797425691E+02 -0.12631144886E+02  0.13396346479E+02  0.48433753031E+02  0.10566000000E+00 0. -1.
         23    2    1    0    0    0  0.10071214643E+02  0.20281504634E+02  0.17524200106E+02  0.96456691006E+02  0.92108777301E+02 0.  0.
         13    1    3    3    0    0 -0.34726211048E+02  0.32912649520E+02  0.41278536264E+01  0.48022937975E+02  0.10566000000E+00 0.  1.
         22    1    1    0    0    0 -0.10071214643E+02 -0.20281504634E+02 -0.17524200106E+02  0.28633308994E+02  0.00000000000E+00 0.  1.
</event>
<event>
 5    1  0.1254496E-009  0.9118800E+02  0.7815553E-02  0.1125453E+00
         25   -1    0    0    0    0  0.00000000000E+00  0.00000000000E+00  0.99999998245E-14  0.12509000000E+03  0.12509000000E+03 0.  0.
        -13    1    3    3    0    0  0.39993249049E+02  0.37163273250E+02  0.20444412315E+02  0.58297118343E+02  0.10566000000E+00 0. -1.
         23    2    1    0    0    0  0.27378423436E+02  0.94992981381E+01 -0.19288308417E+01  0.96046323866E+02  0.91549774467E+02 0.  0.
         13    1    3    3    0    0 -0.12614825614E+02 -0.27663975112E+02 -0.22373243156E+02  0.37749205523E+02  0.10566000000E+00 0.  1.
         22    1    1    0    0    0 -0.27378423436E+02 -0.94992981381E+01  0.19288308417E+01  0.29043676134E+02  0.00000000000E+00 0. -1.
</event>
<event>
 5    1  0.1254496E-009  0.9118800E+02  0.7815553E-02  0.1125453E+00
         25   -1    0    0    0    0  0.00000000000E+00  0.00000000000E+00  0.99999998245E-14  0.12509000000E+03  0.12509000000E+03 0.  0.
        -13    1    3    3    0    0  0.16321051924E+02 -0.28933323216E+02  0.35035402125E+02  0.48280477363E+02  0.10566000000E+00 0. -1.
         23    2    1    0    0    0 -0.48956075208E+01  0.59424824492E+01  0.35153530107E+02  0.89103186448E+02  0.81512741860E+02 0.  0.
         13    1    3    3    0    0 -0.21216659445E+02  0.34875805666E+02  0.11812798165E+00  0.40822709086E+02  0.10566000000E+00 0.  1.
         22    1    1    0    0    0  0.48956075208E+01 -0.59424824492E+01 -0.35153530107E+02  0.35986813552E+02  0.00000000000E+00 0.  1.
</event>
<event>
 5    1  0.1254496E-009  0.9118800E+02  0.7815553E-02  0.1125453E+00
         25   -1    0    0    0    0  0.00000000000E+00  0.00000000000E+00  0.99999998245E-14  0.12509000000E+03  0.12509000000E+03 0.  0.
        -13    1    3    3    0    0 -0.80220825605E+01 -0.13868918617E+02  0.42516543823E+02  0.45435320786E+02  0.10566000000E+00 0.  1.
         23    2    1    0    0    0  0.17419040412E+02 -0.25691886612E+02  0.29896625646E+01  0.93906124538E+02  0.88577232611E+02 0.  0.
         13    1    3    3    0    0  0.25441122973E+02 -0.11822967995E+02 -0.39526881259E+02  0.48470803752E+02  0.10566000000E+00 0. -1.
         22    1    1    0    0    0 -0.17419040412E+02  0.25691886612E+02 -0.29896625646E+01  0.31183875462E+02  0.00000000000E+00 0.  1.
</event>
<event>
 5    1  0.1254496E-009  0.9118800E+02  0.7815553E-02  0.1125453E+00
         25   -1    0    0    0    0  0.00000000000E+00  0.00000000000E+00  0.99999998245E-14  0.12509000000E+03  0.12509000000E+03 0.  0.
        -13    1    3    3    0    0  0.21931425864E+02 -0.13901113760E+02  0.27065278598E+02  0.37506917679E+02  0.10566000000E+00 0.  1.
         23    2    1    0    0    0  0.56572615541E+01 -0.15732500465E+02 -0.26631447013E+02  0.93645602261E+02  0.88208552157E+02 0.  0.
         13    1    3    3    0    0 -0.16274164310E+02 -0.18313867049E+01 -0.53696725610E+02  0.56138684582E+02  0.10566000000E+00 0. -1.
         22    1    1    0    0    0 -0.56572615541E+01  0.15732500465E+02  0.26631447013E+02  0.31444397739E+02  0.00000000000E+00 0.  1.
</event>
<event>
 5    1  0.1254496E-009  0.9118800E+02  0.7815553E-02  0.1125453E+00
         25   -1    0    0    0    0  0.00000000000E+00  0.00000000000E+00  0.99999998245E-14  0.12509000000E+03  0.12509000000E+03 0.  0.
        -13    1    3    3    0    0  0.11263694007E+02  0.38645226212E+02  0.10503817051E+02  0.41601269793E+02  0.10566000000E+00 0. -1.
         23    2    1    0    0    0 -0.18874206487E+02  0.76105104576E+01 -0.21555119535E+02  0.95445797901E+02  0.90725529036E+02 0.  0.
         13    1    3    3    0    0 -0.30137900494E+02 -0.31034715755E+02 -0.32058936585E+02  0.53844528108E+02  0.10566000000E+00 0.  1.
         22    1    1    0    0    0  0.18874206487E+02 -0.76105104576E+01  0.21555119535E+02  0.29644202099E+02  0.00000000000E+00 0.  1.
</event>
<event>
 5    1  0.1254496E-009  0.9118800E+02  0.7815553E-02  0.1125453E+00
         25   -1    0    0    0    0  0.00000000000E+00  0.00000000000E+00  0.99999998245E-14  0.12509000000E+03  0.12509000000E+03 0.  0.
        -13    1    3    3    0    0  0.43349085469E+01 -0.49102914582E+02  0.16983590201E+02  0.52137713343E+02  0.10566000000E+00 0. -1.
         23    2    1    0    0    0 -0.13288340050E+02 -0.21374363018E+02 -0.13127484206E+02  0.96703837574E+02  0.92443809875E+02 0.  0.
         13    1    3    3    0    0 -0.17623248596E+02  0.27728551564E+02 -0.30111074408E+02  0.44566124230E+02  0.10566000000E+00 0.  1.
         22    1    1    0    0    0  0.13288340050E+02  0.21374363018E+02  0.13127484206E+02  0.28386162426E+02  0.00000000000E+00 0. -1.
</event>
<event>
 5    1  0.1254496E-009  0.9118800E+02  0.7815553E-02  0.1125453E+00
         25   -1    0    0    0    0  0.00000000000E+00  0.00000000000E+00  0.99999998245E-14  0.12509000000E+03  0.12509000000E+03 0.  0.
        -13    1    3    3    0    0 -0.51008107439E+02 -0.34563969975E+02 -0.68883279158E+01  0.61999639277E+02  0.10566000000E+00 0.  1.
         23    2    1    0    0    0 -0.28800410405E+02 -0.18678379212E+02  0.19732273767E+01  0.90706295782E+02  0.83936839224E+02 0.  0.
         13    1    3    3    0    0  0.22207697034E+02  0.15885590764E+02  0.88615552924E+01  0.28706656505E+02  0.10566000000E+00 0. -1.
         22    1    1    0    0    0  0.28800410405E+02  0.18678379212E+02 -0.19732273767E+01  0.34383704218E+02  0.00000000000E+00 0.  1.
</event>
<event>
 5    1  0.1254496E-009  0.9118800E+02  0.7815553E-02  0.1125453E+00
         25   -1    0    0    0    0  0.00000000000E+00  0.00000000000E+00  0.99999998245E-14  0.12509000000E+03  0.12509000000E+03 0.  0.
        -13    1    3    3    0    0 -0.25107589109E+01  0.28404968276E+02 -0.18750980519E+02  0.34128530110E+02  0.10566000000E+00 0.  1.
         23    2    1    0    0    0  0.10437141512E+02 -0.15965225507E+02  0.22157989400E+02  0.95853056885E+02  0.91285320132E+02 0.  0.
         13    1    3    3    0    0  0.12947900423E+02 -0.44370193783E+02  0.40908969919E+02  0.61724526775E+02  0.10566000000E+00 0. -1.
         22    1    1    0    0    0 -0.10437141512E+02  0.15965225507E+02 -0.22157989400E+02  0.29236943115E+02  0.00000000000E+00 0. -1.
</event>
<event>
 5    1  0.1254496E-009  0.9118800E+02  0.7815553E-02  0.1125453E+00
         25   -1    0    0    0    0  0.00000000000E+00  0.00000000000E+00  0.99999998245E-14  0.12509000000E+03  0.12509000000E+03 0.  0.
        -13    1    3    3    0    0  0.16141448190E+02 -0.30421679675E+02  0.27671830044E+02  0.44178799055E+02  0.10566000000E+00 0.  1.
         23    2    1    0    0    0  0.20957790106E+02 -0.76290647464E+01 -0.18642140122E+02  0.96021787407E+02  0.91516242676E+02 0.  0.
         13    1    3    3    0    0  0.48163419157E+01  0.22792614928E+02 -0.46313970166E+02  0.51842988352E+02  0.10566000000E+00 0. -1.
         22    1    1    0    0    0 -0.20957790106E+02  0.76290647464E+01  0.18642140122E+02  0.29068212593E+02  0.00000000000E+00 0. -1.
</event>
<event>
 5    1  0.1254496E-009  0.9118800E+02  0.7815553E-02  0.1125453E+00
         25   -1    0    0    0    0  0.00000000000E+00  0.00000000000E+00  0.99999998245E-14  0.12509000000E+03  0.12509000000E+03 0.  0.
        -13    1    3    3    0    0 -0.51740451002E+02  0.32959301955E+02  0.11582351920E+02  0.62430376383E+02  0.10566000000E+00 0. -1.
         23    2    1    0    0    0 -0.21043273286E+02  0.15149665484E+02  0.26585873782E+01  0.99024701197E+02  0.95532673183E+02 0.  0.
         13    1    3    3    0    0  0.30697177716E+02 -0.17809636471E+02 -0.89237645418E+01  0.36594324814E+02  0.10566000000E+00 0.  1.
         22    1    1    0    0    0  0.21043273286E+02 -0.15149665484E+02 -0.26585873782E+01  0.26065298803E+02  0.00000000000E+00 0. -1.
</event>
<event>
 5    1  0.1254496E-009  0.9118800E+02  0.7815553E-02  0.1125453E+00
         25   -1    0    0    0    0  0.00000000000E+00  0.00000000000E+00  0.99999998245E-14  0.12509000000E+03  0.12509000000E+03 0.  0.
        -13    1    3    3    0    0  0.30238515584E+02  0.34089905145E+01  0.21043945354E+02  0.36997943742E+02  0.10566000000E+00 0.  1.
         23    2    1    0    0    0 -0.24494925383E+02 -0.13733350547E+02  0.48831401128E+01  0.96586467866E+02  0.92284854828E+02 0.  0.
         13    1    3    3    0    0 -0.54733440967E+02 -0.17142341062E+02 -0.16160805241E+02  0.59588524124E+02  0.10566000000E+00 0. -1.
         22    1    1    0    0    0  0.24494925383E+02  0.13733350547E+02 -0.48831401128E+01  0.28503532134E+02  0.00000000000E+00 0. -1.
</event>
<event>
 5    1  0.1254496E-009  0.9118800E+02  0.7815553E-02  0.1125453E+00
         25   -1    0    0    0    0  0.00000000000E+00  0.00000000000E+00  0.99999998245E-14  0.12509000000E+03  0.12509000000E+03 0.  0.
        -13    1    3    3    0    0 -0.26031014182E+02 -0.31236645287E+02 -0.14803997683E+02  0.43272522685E+02  0.10566000000E+00 0. -1.
         23    2    1    0    0    0 -0.19867738532E+02  0.20392710103E+02 -0.51676202685E+01  0.96153967809E+02  0.91696736946E+02 0.  0.
         13    1    3    3    0    0  0.61632756502E+01  0.51629355389E+02  0.96363774149E+01  0.52881445124E+02  0.10566000000E+00 0.  1.
         22    1    1    0    0    0  0.19867738532E+02 -0.20392710103E+02  0.51676202685E+01  0.28936032191E+02  0.00000000000E+00 0.  1.
</event>
<event>
 5    1  0.1254496E-009  0.9118800E+02  0.7815553E-02  0.1125453E+00
         25   -1    0    0    0    0  0.00000000000E+00  0.00000000000E+00  0.99999998245E-14  0.12509000000E+03  0.12509000000E+03 0.  0.
        -13    1    3    3    0    0  0.23689324422E+02 -0.63266532452E+01  0.37666687087E+02  0.44944422491E+02  0.10566000000E+00 0.  1.
         23    2    1    0    0    0  0.76341415654E+01  0.27765168507E+02  0.30165267757E+01  0.96136863150E+02  0.91673400301E+02 0.  0.
         13    1    3    3    0    0 -0.16055182856E+02  0.34091821753E+02 -0.34650160312E+02  0.51192440659E+02  0.10566000000E+00 0. -1.
         22    1    1    0    0    0 -0.76341415654E+01 -0.27765168507E+02 -0.30165267757E+01  0.28953136850E+02  0.00000000000E+00 0. -1.
</event>
<event>
 5    1  0.1254496E-009  0.9118800E+02  0.7815553E-02  0.1125453E+00
         25   -1    0    0    0    0  0.00000000000E+00  0.00000000000E+00  0.99999998245E-14  0.12509000000E+03  0.12509000000E+03 0.  0.
        -13    1    3    3    0    0 -0.59317488060E+02 -0.81164202599E+01  0.14093081359E+01  0.59886876534E+02  0.10566000000E+00 0.  1.
         23    2    1    0    0    0 -0.23946628847E+02 -0.15744066197E+02  0.39517894138E+01  0.96160200603E+02  0.91705239147E+02 0.  0.
         13    1    3    3    0    0  0.35370859212E+02 -0.76276459368E+01  0.25424812779E+01  0.36273324069E+02  0.10566000000E+00 0. -1.
         22    1    1    0    0    0  0.23946628847E+02  0.15744066197E+02 -0.39517894138E+01  0.28929799397E+02  0.00000000000E+00 0.  1.
</event>
<event>
 5    1  0.1254496E-009  0.9118800E+02  0.7815553E-02  0.1125453E+00
         25   -1    0    0    0    0  0.00000000000E+00  0.00000000000E+00  0.99999998245E-14  0.12509000000E+03  0.12509000000E+03 0.  0.
        -13    1    3    3    0    0 -0.18892175500E+02  0.32888318385E+02 -0.14822335643E+02  0.40721844006E+02  0.10566000000E+00 0.  1.
         23    2    1    0    0    0 -0.61158075784E+01  0.83848624472E+01  0.29981747359E+02  0.93362816146E+02  0.87806612754E+02 0.  0.
         13    1    3    3    0    0  0.12776367922E+02 -0.24503455938E+02  0.44804083002E+02  0.52640972140E+02  0.10566000000E+00 0. -1.
         22    1    1    0    0    0  0.61158075784E+01 -0.83848624472E+01 -0.29981747359E+02  0.31727183854E+02  0.00000000000E+00 0. -1.
</event>
<event>
 5    1  0.1254496E-009  0.9118800E+02  0.7815553E-02  0.1125453E+00
         25   -1    0    0    0    0  0.00000000000E+00  0.00000000000E+00  0.99999998245E-14  0.12509000000E+03  0.12509000000E+03 0.  0.
        -13    1    3    3    0    0 -0.24691177219E+01 -0.34724726681E+02  0.16035028429E+02  0.38328011769E+02  0.10566000000E+00 0. -1.
         23    2    1    0    0    0 -0.13266473368E+02  0.29112285496E+01 -0.25989178408E+02  0.95765744483E+02  0.91165595785E+02 0.  0.
         13    1    3    3    0    0 -0.10797355646E+02  0.37635955230E+02 -0.42024206837E+02  0.57437732714E+02  0.10566000000E+00 0.  1.
         22    1    1    0    0    0  0.13266473368E+02 -0.29112285496E+01  0.25989178408E+02  0.29324255517E+02  0.00000000000E+00 0.  1.
</event>
<event>
 5    1  0.1254496E-009  0.9118800E+02  0.7815553E-02  0.1125453E+00
         25   -1    0    0    0    0  0.00000000000E+00  0.00000000000E+00  0.99999998245E-14  0.12509000000E+03  0.12509000000E+03 0.  0.
        -13    1    3    3    0    0 -0.14743167779E+02  0.25686991252E+02 -0.99185067515E+01  0.31234123262E+02  0.10566000000E+00 0.  1.
         23    2    1    0    0    0 -0.67837189639E+01 -0.31678491944E+02  0.77400716703E+01  0.91781526539E+02  0.85524231710E+02 0.  0.
         13    1    3    3    0    0  0.79594488148E+01 -0.57365483196E+02  0.17658578422E+02  0.60547403277E+02  0.10566000000E+00 0. -1.
         22    1    1    0    0    0  0.67837189639E+01  0.31678491944E+02 -0.77400716703E+01  0.33308473461E+02  0.00000000000E+00 0. -1.
</event>
<event>
 5    1  0.1254496E-009  0.9118800E+02  0.7815553E-02  0.1125453E+00
         25   -1    0    0    0    0  0.00000000000E+00  0.00000000000E+00  0.99999998245E-14  0.12509000000E+03  0.12509000000E+03 0.  0.
        -13    1    3    3    0    0  0.46829142307E+02 -0.34008698746E+02 -0.21915139139E+02  0.61885738641E+02  0.10566000000E+00 0. -1.
         23    2    1    0    0    0  0.18837468165E+02 -0.20289115776E+02 -0.14085209305E+02  0.94027296528E+02  0.88748188406E+02 0.  0.
         13    1    3    3    0    0 -0.27991674142E+02  0.13719582970E+02  0.78299298341E+01  0.32141557887E+02  0.10566000000E+00 0.  1.
         22    1    1    0    0    0 -0.18837468165E+02  0.20289115776E+02  0.14085209305E+02  0.31062703472E+02  0.00000000000E+00 0. -1.
</event>
<event>
 5    1  0.1254496E-009  0.9118800E+02  0.7815553E-02  0.1125453E+00
         25   -1    0    0    0    0  0.00000000000E+00  0.00000000000E+00  0.99999998245E-14  0.12509000000E+03  0.12509000000E+03 0.  0.
        -13    1    3    3    0    0  0.28032907849E+02 -0.24354694179E+02 -0.22221979132E+01  0.37201402912E+02  0.10566000000E+00 0. -1.
         23    2    1    0    0    0 -0.26536548572E+02 -0.76972663478E+01  0.10277943389E+02  0.95609965407E+02  0.90951597267E+02 0.  0.
         13    1    3    3    0    0 -0.54569456421E+02  0.16657427831E+02  0.12500141303E+02  0.58408562494E+02  0.10566000000E+00 0.  1.
         22    1    1    0    0    0  0.26536548572E+02  0.76972663478E+01 -0.10277943389E+02  0.29480034593E+02  0.00000000000E+00 0.  1.
</event>
<event>
 5    1  0.1254496E-009  0.9118800E+02  0.7815553E-02  0.1125453E+00
         25   -1    0    0    0    0  0.00000000000E+00  0.00000000000E+00  0.99999998245E-14  0.12509000000E+03  0.12509000000E+03 0.  0.
        -13    1    3    3    0    0 -0.36985591371E+01 -0.51684326016E+02  0.33640809608E+02  0.61779156117E+02  0.10566000000E+00 0.  1.
         23    2    1    0    0    0 -0.27905292090E+01 -0.27894964142E+02  0.10011713558E+02  0.95321720135E+02  0.90554292241E+02 0.  0.
         13    1    3    3    0    0  0.90802992805E+00  0.23789361874E+02 -0.23629096049E+02  0.33542564018E+02  0.10566000000E+00 0. -1.
         22    1    1    0    0    0  0.27905292090E+01  0.27894964142E+02 -0.10011713558E+02  0.29768279865E+02  0.00000000000E+00 0.  1.
</event>
<event>
 5    1  0.1254496E-009  0.9118800E+02  0.7815553E-02  0.1125453E+00
         25   -1    0    0    0    0  0.00000000000E+00  0.00000000000E+00  0.99999998245E-14  0.12509000000E+03  0.12509000000E+03 0.  0.
        -13    1    3    3    0    0 -0.48344845380E+01 -0.14417594237E+02  0.33156419071E+02  0.36477370437E+02  0.10566000000E+00 0. -1.
         23    2    1    0    0    0  0.26250120942E+02  0.12503961770E+02 -0.82824573197E+01  0.94857285787E+02  0.89910442432E+02 0.  0.
         13    1    3    3    0    0  0.31084605480E+02  0.26921556007E+02 -0.41438876391E+02  0.58379915350E+02  0.10566000000E+00 0.  1.
         22    1    1    0    0    0 -0.26250120942E+02 -0.12503961770E+02  0.82824573197E+01  0.30232714213E+02  0.00000000000E+00 0.  1.
</event>
<event>
 5    1  0.1254496E-009  0.9118800E+02  0.7815553E-02  0.1125453E+00
         25   -1    0    0    0    0  0.00000000000E+00  0.00000000000E+00  0.99999998245E-14  0.12509000000E+03  0.12509000000E+03 0.  0.
        -13    1    3    3    0    0 -0.25553461144E+02 -0.32527095602E+02 -0.40495207109E+02  0.57886650340E+02  0.10566000000E+00 0.  1.
         23    2    1    0    0    0 -0.91186416665E+01 -0.26291350982E+02 -0.59702906180E+01  0.96628989260E+02  0.92342473614E+02 0.  0.
         13    1    3    3    0    0  0.16434819478E+02  0.62357446207E+01  0.34524916491E+02  0.38742338920E+02  0.10566000000E+00 0. -1.
         22    1    1    0    0    0  0.91186416665E+01  0.26291350982E+02  0.59702906180E+01  0.28461010740E+02  0.00000000000E+00 0.  1.
</event>
<event>
 5    1  0.1254496E-009  0.9118800E+02  0.7815553E-02  0.1125453E+00
         25   -1    0    0    0    0  0.00000000000E+00  0.00000000000E+00  0.99999998245E-14  0.12509000000E+03  0.12509000000E+03 0.  0.
        -13    1    3    3    0    0 -0.14345620920E+02  0.37268436309E+02  0.41896582212E+02  0.57879771506E+02  0.10566000000E+00 0. -1.
         23    2    1    0    0    0  0.70159433404E+01  0.12460426052E+02  0.28404907466E+02  0.93288672253E+02  0.87700923166E+02 0.  0.
         13    1    3    3    0    0  0.21361564261E+02 -0.24808010257E+02 -0.13491674746E+02  0.35408900746E+02  0.10566000000E+00 0.  1.
         22    1    1    0    0    0 -0.70159433404E+01 -0.12460426052E+02 -0.28404907466E+02  0.31801327747E+02  0.00000000000E+00 0. -1.
</event>
<event>
 5    1  0.1254496E-009  0.9118800E+02  0.7815553E-02  0.1125453E+00
         25   -1    0    0    0    0  0.00000000000E+00  0.00000000000E+00  0.99999998245E-14  0.12509000000E+03  0.12509000000E+03 0.  0.
        -13    1    3    3    0    0  0.54560742245E+02 -0.19902027956E+02  0.86254328979E+01  0.58714347206E+02  0.10566000000E+00 0. -1.
         23    2    1    0    0    0  0.24415201665E+02  0.11858906749E+01  0.15507420977E+02  0.96141968730E+02  0.91680366692E+02 0.  0.
         13    1    3    3    0    0 -0.30145540579E+02  0.21087918631E+02  0.68819880791E+01  0.37427621524E+02  0.10566000000E+00 0.  1.
         22    1    1    0    0    0 -0.24415201665E+02 -0.11858906749E+01 -0.15507420977E+02  0.28948031270E+02  0.00000000000E+00 0. -1.
</event>
<event>
 5    1  0.1254496E-009  0.9118800E+02  0.7815553E-02  0.1125453E+00
         25   -1    0    0    0    0  0.00000000000E+00  0.00000000000E+00  0.99999998245E-14  0.12509000000E+03  0.12509000000E+03 0.  0.
        -13    1    3    3    0    0  0.32570146689E+02  0.87915144241E+01  0.82383353600E+01  0.34727316550E+02  0.10566000000E+00 0. -1.
         23    2    1    0    0    0  0.37114624448E+02 -0.29716447523E+02 -0.81991421214E+01  0.76842839121E+02  0.59808305371E+02 0.  0.
         13    1    3    3    0    0  0.45444777591E+01 -0.38507961947E+02 -0.16437477481E+02  0.42115522571E+02  0.10566000000E+00 0.  1.
         22    1    1    0    0    0 -0.37114624448E+02  0.29716447523E+02  0.81991421214E+01  0.48247160879E+02  0.00000000000E+00 0.  1.
</event>
<event>
 5    1  0.1254496E-009  0.9118800E+02  0.7815553E-02  0.1125453E+00
         25   -1    0    0    0    0  0.00000000000E+00  0.00000000000E+00  0.99999998245E-14  0.12509000000E+03  0.12509000000E+03 0.  0.
        -13    1    3    3    0    0 -0.31237461665E+02 -0.11806553698E+01  0.15929020809E+02  0.35084438521E+02  0.10566000000E+00 0. -1.
         23    2    1    0    0    0  0.18325706438E+02 -0.67119880990E+01 -0.20455972109E+02  0.96817591266E+02  0.92597607328E+02 0.  0.
         13    1    3    3    0    0  0.49563168103E+02 -0.55313327292E+01 -0.36384992918E+02  0.61733152745E+02  0.10566000000E+00 0.  1.
         22    1    1    0    0    0 -0.18325706438E+02  0.67119880990E+01  0.20455972109E+02  0.28272408734E+02  0.00000000000E+00 0.  1.
</event>
<event>
 5    1  0.1254496E-009  0.9118800E+02  0.7815553E-02  0.1125453E+00
         25   -1    0    0    0    0  0.00000000000E+00  0.00000000000E+00  0.99999998245E-14  0.12509000000E+03  0.12509000000E+03 0.  0.
        -13    1    3    3    0    0  0.13966304199E+02  0.51192096294E+02 -0.23909799352E+02  0.58201185942E+02  0.10566000000E+00 0. -1.
         23    2    1    0    0    0  0.98288880240E+01  0.15233089815E+02 -0.24754106890E+02  0.94407433728E+02  0.89282381633E+02 0.  0.
         13    1    3    3    0    0 -0.41374161749E+01 -0.35959006478E+02 -0.84430753816E+00  0.36206247787E+02  0.10566000000E+00 0.  1.
         22    1    1    0    0    0 -0.98288880240E+01 -0.15233089815E+02  0.24754106890E+02  0.30682566272E+02  0.00000000000E+00 0. -1.
</event>
<event>
 5    1  0.1254496E-009  0.9118800E+02  0.7815553E-02  0.1125453E+00
         25   -1    0    0    0    0  0.00000000000E+00  0.00000000000E+00  0.99999998245E-14  0.12509000000E+03  0.12509000000E+03 0.  0.
        -13    1    3    3    0    0 -0.38184971775E+02  0.18656540380E+02 -0.82485511867E+01  0.43292127797E+02  0.10566000000E+00 0.  1.
         23    2    1    0    0    0  0.59580026676E+01  0.20441916405E+02  0.20119992689E+02  0.95795224904E+02  0.91206037445E+02 0.  0.
         13    1    3    3    0    0  0.44142974443E+02  0.17853760255E+01  0.28368543876E+02  0.52503097108E+02  0.10566000000E+00 0. -1.
         22    1    1    0    0    0 -0.59580026676E+01 -0.20441916405E+02 -0.20119992689E+02  0.29294775096E+02  0.00000000000E+00 0. -1.
</event>
<event>
 5    1  0.1254496E-009  0.9118800E+02  0.7815553E-02  0.1125453E+00
         25   -1    0    0    0    0  0.00000000000E+00  0.00000000000E+00  0.99999998245E-14  0.12509000000E+03  0.12509000000E+03 0.  0.
        -13    1    3    3    0    0  0.15985620144E+01  0.56443978603E+02  0.63153702234E+01  0.56818774944E+02  0.10566000000E+00 0. -1.
         23    2    1    0    0    0  0.13292138742E+02  0.24056658514E+02 -0.11151317141E+02  0.95429324938E+02  0.90702813699E+02 0.  0.
         13    1    3    3    0    0  0.11693576727E+02 -0.32387320090E+02 -0.17466687365E+02  0.38610549993E+02  0.10566000000E+00 0.  1.
         22    1    1    0    0    0 -0.13292138742E+02 -0.24056658514E+02  0.11151317141E+02  0.29660675062E+02  0.00000000000E+00 0. -1.
</event>
<event>
 5    1  0.1254496E-009  0.9118800E+02  0.7815553E-02  0.1125453E+00
         25   -1    0    0    0    0  0.00000000000E+00  0.00000000000E+00  0.99999998245E-14  0.12509000000E+03  0.12509000000E+03 0.  0.
        -13    1    3    3    0    0 -0.33672348011E+02 -0.23022223939E+02  0.18525035340E+01  0.40832496238E+02  0.10566000000E+00 0. -1.
         23    2    1    0    0    0  0.18336362105E+02 -0.63305274026E+01  0.18853760609E+02  0.98038899440E+02  0.94233029039E+02 0.  0.
         13    1    3    3    0    0  0.52008710116E+02  0.16691696536E+02  0.17001257075E+02  0.57206403202E+02  0.10566000000E+00 0.  1.
         22    1    1    0    0    0 -0.18336362105E+02  0.63305274026E+01 -0.18853760609E+02  0.27051100560E+02  0.00000000000E+00 0.  1.
</event>
<event>
 5    1  0.1254496E-009  0.9118800E+02  0.7815553E-02  0.1125453E+00
         25   -1    0    0    0    0  0.00000000000E+00  0.00000000000E+00  0.99999998245E-14  0.12509000000E+03  0.12509000000E+03 0.  0.
        -13    1    3    3    0    0 -0.46233181007E+01 -0.73856266556E+01 -0.46238528796E+02  0.47052473481E+02  0.10566000000E+00 0. -1.
         23    2    1    0    0    0  0.58045453928E+01  0.25366958151E+02 -0.94381741805E+01  0.97408698641E+02  0.93392719877E+02 0.  0.
         13    1    3    3    0    0  0.10427863494E+02  0.32752584807E+02  0.36800354616E+02  0.50356225161E+02  0.10566000000E+00 0.  1.
         22    1    1    0    0    0 -0.58045453928E+01 -0.25366958151E+02  0.94381741805E+01  0.27681301359E+02  0.00000000000E+00 0.  1.
</event>
<event>
 5    1  0.1254496E-009  0.9118800E+02  0.7815553E-02  0.1125453E+00
         25   -1    0    0    0    0  0.00000000000E+00  0.00000000000E+00  0.99999998245E-14  0.12509000000E+03  0.12509000000E+03 0.  0.
        -13    1    3    3    0    0  0.57184296816E+02  0.98702425355E+01  0.12872770073E+02  0.59440599454E+02  0.10566000000E+00 0. -1.
         23    2    1    0    0    0  0.21201268145E+02  0.15340918071E+02  0.13071072053E+02  0.95837812683E+02  0.91264428322E+02 0.  0.
         13    1    3    3    0    0 -0.35983028671E+02  0.54706755351E+01  0.19830198026E+00  0.36397213229E+02  0.10566000000E+00 0.  1.
         22    1    1    0    0    0 -0.21201268145E+02 -0.15340918071E+02 -0.13071072053E+02  0.29252187317E+02  0.00000000000E+00 0. -1.
</event>
<event>
 5    1  0.1254496E-009  0.9118800E+02  0.7815553E-02  0.1125453E+00
         25   -1    0    0    0    0  0.00000000000E+00  0.00000000000E+00  0.99999998245E-14  0.12509000000E+03  0.12509000000E+03 0.  0.
        -13    1    3    3    0    0 -0.30363151136E+02 -0.10847398733E+02  0.50886133242E+02  0.60241154757E+02  0.10566000000E+00 0.  1.
         23    2    1    0    0    0 -0.23181253814E+02 -0.83425212205E+01  0.16548302959E+02  0.95411480504E+02  0.90678200756E+02 0.  0.
         13    1    3    3    0    0  0.71818973224E+01  0.25048775130E+01 -0.34337830283E+02  0.35170325746E+02  0.10566000000E+00 0. -1.
         22    1    1    0    0    0  0.23181253814E+02  0.83425212205E+01 -0.16548302959E+02  0.29678519496E+02  0.00000000000E+00 0.  1.
</event>
<event>
 5    1  0.1254496E-009  0.9118800E+02  0.7815553E-02  0.1125453E+00
         25   -1    0    0    0    0  0.00000000000E+00  0.00000000000E+00  0.99999998245E-14  0.12509000000E+03  0.12509000000E+03 0.  0.
        -13    1    3    3    0    0  0.28120005318E+02  0.18676687652E+02 -0.14741477172E+02  0.36835793381E+02  0.10566000000E+00 0.  1.
         23    2    1    0    0    0 -0.41441525244E+01 -0.28394058014E+02  0.20502480720E+01  0.96321961349E+02  0.91925623144E+02 0.  0.
         13    1    3    3    0    0 -0.32264157842E+02 -0.47070745666E+02  0.16791725244E+02  0.59486167968E+02  0.10566000000E+00 0. -1.
         22    1    1    0    0    0  0.41441525244E+01  0.28394058014E+02 -0.20502480720E+01  0.28768038651E+02  0.00000000000E+00 0. -1.
</event>
<event>
 5    1  0.1254496E-009  0.9118800E+02  0.7815553E-02  0.1125453E+00
         25   -1    0    0    0    0  0.00000000000E+00  0.00000000000E+00  0.99999998245E-14  0.12509000000E+03  0.12509000000E+03 0.  0.
        -13    1    3    3    0    0  0.37262402540E+02  0.44328509616E+02  0.20372680045E+02  0.61388603698E+02  0.10566000000E+00 0.  1.
         23    2    1    0    0    0  0.16904808400E+02  0.13208550495E+02  0.14885117906E+02  0.98978602330E+02  0.95472292477E+02 0.  0.
         13    1    3    3    0    0 -0.20357594140E+02 -0.31119959121E+02 -0.54875621387E+01  0.37589998631E+02  0.10566000000E+00 0. -1.
         22    1    1    0    0    0 -0.16904808400E+02 -0.13208550495E+02 -0.14885117906E+02  0.26111397670E+02  0.00000000000E+00 0.  1.
</event>
<event>
 5    1  0.1254496E-009  0.9118800E+02  0.7815553E-02  0.1125453E+00
         25   -1    0    0    0    0  0.00000000000E+00  0.00000000000E+00  0.99999998245E-14  0.12509000000E+03  0.12509000000E+03 0.  0.
        -13    1    3    3    0    0 -0.30413757007E+01 -0.18598278059E+02 -0.25929546872E+02  0.32054617108E+02  0.10566000000E+00 0. -1.
         23    2    1    0    0    0 -0.29770256602E+02 -0.16497998434E+02  0.20273501935E+02  0.85473500771E+02  0.75738050694E+02 0.  0.
         13    1    3    3    0    0 -0.26728880901E+02  0.21002796256E+01  0.46203048807E+02  0.53418883663E+02  0.10566000000E+00 0.  1.
         22    1    1    0    0    0  0.29770256602E+02  0.16497998434E+02 -0.20273501935E+02  0.39616499229E+02  0.00000000000E+00 0.  1.
</event>
<event>
 5    1  0.1254496E-009  0.9118800E+02  0.7815553E-02  0.1125453E+00
         25   -1    0    0    0    0  0.00000000000E+00  0.00000000000E+00  0.99999998245E-14  0.12509000000E+03  0.12509000000E+03 0.  0.
        -13    1    3    3    0    0 -0.65378443348E+01  0.54705324853E+02  0.24796003806E+02  0.60417455628E+02  0.10566000000E+00 0. -1.
         23    2    1    0    0    0  0.86678240736E+00  0.21282743361E+02  0.21526522223E+02  0.94806380076E+02  0.89839590757E+02 0.  0.
         13    1    3    3    0    0  0.74046267422E+01 -0.33422581492E+02 -0.32694815832E+01  0.34388924447E+02  0.10566000000E+00 0.  1.
         22    1    1    0    0    0 -0.86678240736E+00 -0.21282743361E+02 -0.21526522223E+02  0.30283619924E+02  0.00000000000E+00 0. -1.
</event>
<event>
 5    1  0.1254496E-009  0.9118800E+02  0.7815553E-02  0.1125453E+00
         25   -1    0    0    0    0  0.00000000000E+00  0.00000000000E+00  0.99999998245E-14  0.12509000000E+03  0.12509000000E+03 0.  0.
        -13    1    3    3    0    0 -0.32119088526E+02  0.20534885058E+01 -0.47080939394E+02  0.57030506583E+02  0.10566000000E+00 0.  1.
         23    2    1    0    0    0 -0.20191111881E+02  0.16934737758E+02 -0.13914962127E+02  0.95289118924E+02  0.90509246336E+02 0.  0.
         13    1    3    3    0    0  0.11927976645E+02  0.14881249252E+02  0.33165977267E+02  0.38258612341E+02  0.10566000000E+00 0. -1.
         22    1    1    0    0    0  0.20191111881E+02 -0.16934737758E+02  0.13914962127E+02  0.29800881076E+02  0.00000000000E+00 0.  1.
</event>
<event>
 5    1  0.1254496E-009  0.9118800E+02  0.7815553E-02  0.1125453E+00
         25   -1    0    0    0    0  0.00000000000E+00  0.00000000000E+00  0.99999998245E-14  0.12509000000E+03  0.12509000000E+03 0.  0.
        -13    1    3    3    0    0  0.10281449747E+02  0.28061861484E+02  0.13324107531E+02  0.32721847203E+02  0.10566000000E+00 0.  1.
         23    2    1    0    0    0 -0.13370704524E+02 -0.26520803039E+02 -0.50093092107E+01  0.94969875298E+02  0.90066948999E+02 0.  0.
         13    1    3    3    0    0 -0.23652154271E+02 -0.54582664524E+02 -0.18333416742E+02  0.62248028094E+02  0.10566000000E+00 0. -1.
         22    1    1    0    0    0  0.13370704524E+02  0.26520803039E+02  0.50093092107E+01  0.30120124702E+02  0.00000000000E+00 0. -1.
</event>
<event>
 5    1  0.1254496E-009  0.9118800E+02  0.7815553E-02  0.1125453E+00
         25   -1    0    0    0    0  0.00000000000E+00  0.00000000000E+00  0.99999998245E-14  0.12509000000E+03  0.12509000000E+03 0.  0.
        -13    1    3    3    0    0 -0.22498760135E+02 -0.50100801168E+02  0.60063735969E+01  0.55248277558E+02  0.10566000000E+00 0.  1.
         23    2    1    0    0    0 -0.18409854491E+02 -0.16996068531E+02  0.21543629906E+02  0.92045831416E+02  0.85909941239E+02 0.  0.
         13    1    3    3    0    0  0.40889056447E+01  0.33104732637E+02  0.15537256309E+02  0.36797553858E+02  0.10566000000E+00 0. -1.
         22    1    1    0    0    0  0.18409854491E+02  0.16996068531E+02 -0.21543629906E+02  0.33044168584E+02  0.00000000000E+00 0.  1.
</event>
<event>
 5    1  0.1254496E-009  0.9118800E+02  0.7815553E-02  0.1125453E+00
         25   -1    0    0    0    0  0.00000000000E+00  0.00000000000E+00  0.99999998245E-14  0.12509000000E+03  0.12509000000E+03 0.  0.
        -13    1    3    3    0    0  0.42468721775E+01  0.30989085655E+02  0.28087467989E+02  0.42038986370E+02  0.10566000000E+00 0. -1.
         23    2    1    0    0    0 -0.22464392371E+02 -0.13493849755E+02  0.11031924506E+02  0.96656986370E+02  0.92380391588E+02 0.  0.
         13    1    3    3    0    0 -0.26711264548E+02 -0.44482935410E+02 -0.17055543483E+02  0.54617999999E+02  0.10566000000E+00 0.  1.
         22    1    1    0    0    0  0.22464392371E+02  0.13493849755E+02 -0.11031924506E+02  0.28433013630E+02  0.00000000000E+00 0.  1.
</event>
<event>
 5    1  0.1254496E-009  0.9118800E+02  0.7815553E-02  0.1125453E+00
         25   -1    0    0    0    0  0.00000000000E+00  0.00000000000E+00  0.99999998245E-14  0.12509000000E+03  0.12509000000E+03 0.  0.
        -13    1    3    3    0    0 -0.48321920756E+02 -0.29293666317E+02  0.10587070067E+02  0.57491078686E+02  0.10566000000E+00 0.  1.
         23    2    1    0    0    0 -0.90086115178E+01 -0.25502260049E+02  0.70169336581E+01  0.97147958073E+02  0.93042829120E+02 0.  0.
         13    1    3    3    0    0  0.39313309238E+02  0.37914062678E+01 -0.35701364094E+01  0.39656879387E+02  0.10566000000E+00 0. -1.
         22    1    1    0    0    0  0.90086115178E+01  0.25502260049E+02 -0.70169336581E+01  0.27942041927E+02  0.00000000000E+00 0.  1.
</event>
<event>
 5    1  0.1254496E-009  0.9118800E+02  0.7815553E-02  0.1125453E+00
         25   -1    0    0    0    0  0.00000000000E+00  0.00000000000E+00  0.99999998245E-14  0.12509000000E+03  0.12509000000E+03 0.  0.
        -13    1    3    3    0    0 -0.17159174898E+02  0.10047065843E+02  0.24277041991E+02  0.31380993405E+02  0.10566000000E+00 0.  1.
         23    2    1    0    0    0  0.84864573424E+01 -0.16405037195E+02 -0.25681882745E+02  0.93456089320E+02  0.87939390071E+02 0.  0.
         13    1    3    3    0    0  0.25645632240E+02 -0.26452103038E+02 -0.49958924735E+02  0.62075095915E+02  0.10566000000E+00 0. -1.
         22    1    1    0    0    0 -0.84864573424E+01  0.16405037195E+02  0.25681882745E+02  0.31633910680E+02  0.00000000000E+00 0. -1.
</event>
<event>
 5    1  0.1254496E-009  0.9118800E+02  0.7815553E-02  0.1125453E+00
         25   -1    0    0    0    0  0.00000000000E+00  0.00000000000E+00  0.99999998245E-14  0.12509000000E+03  0.12509000000E+03 0.  0.
        -13    1    3    3    0    0 -0.17218606748E+02 -0.52824094866E+02 -0.14429211702E+02  0.57402776337E+02  0.10566000000E+00 0.  1.
         23    2    1    0    0    0 -0.92646153592E+01 -0.21275554521E+02 -0.24385440658E+02  0.91427973412E+02  0.85005542691E+02 0.  0.
         13    1    3    3    0    0  0.79539913891E+01  0.31548540345E+02 -0.99562289554E+01  0.34025197075E+02  0.10566000000E+00 0. -1.
         22    1    1    0    0    0  0.92646153592E+01  0.21275554521E+02  0.24385440658E+02  0.33662026588E+02  0.00000000000E+00 0.  1.
</event>
<event>
 5    1  0.1254496E-009  0.9118800E+02  0.7815553E-02  0.1125453E+00
         25   -1    0    0    0    0  0.00000000000E+00  0.00000000000E+00  0.99999998245E-14  0.12509000000E+03  0.12509000000E+03 0.  0.
        -13    1    3    3    0    0  0.19854664948E+02  0.72794579431E+01 -0.83325980248E+01  0.22729751033E+02  0.10566000000E+00 0. -1.
         23    2    1    0    0    0 -0.36475333048E+02 -0.17528826447E+02 -0.30996133909E+01  0.84502843402E+02  0.74117563791E+02 0.  0.
         13    1    3    3    0    0 -0.56329997996E+02 -0.24808284390E+02  0.52329846339E+01  0.61773092369E+02  0.10566000000E+00 0.  1.
         22    1    1    0    0    0  0.36475333048E+02  0.17528826447E+02  0.30996133909E+01  0.40587156598E+02  0.00000000000E+00 0.  1.
</event>
<event>
 5    1  0.1254496E-009  0.9118800E+02  0.7815553E-02  0.1125453E+00
         25   -1    0    0    0    0  0.00000000000E+00  0.00000000000E+00  0.99999998245E-14  0.12509000000E+03  0.12509000000E+03 0.  0.
        -13    1    3    3    0    0  0.32363126305E+02 -0.34317816332E+02 -0.32167925208E+02  0.57095280350E+02  0.10566000000E+00 0. -1.
         23    2    1    0    0    0  0.24235851323E+02 -0.17921533120E+02  0.94962848043E+00  0.94932751568E+02  0.90015374727E+02 0.  0.
         13    1    3    3    0    0 -0.81272749819E+01  0.16396283212E+02  0.33117553688E+02  0.37837471218E+02  0.10566000000E+00 0.  1.
         22    1    1    0    0    0 -0.24235851323E+02  0.17921533120E+02 -0.94962848043E+00  0.30157248432E+02  0.00000000000E+00 0. -1.
</event>
<event>
 5    1  0.1254496E-009  0.9118800E+02  0.7815553E-02  0.1125453E+00
         25   -1    0    0    0    0  0.00000000000E+00  0.00000000000E+00  0.99999998245E-14  0.12509000000E+03  0.12509000000E+03 0.  0.
        -13    1    3    3    0    0  0.18873868073E+01  0.30866459700E+01  0.48113160812E+02  0.48249114186E+02  0.10566000000E+00 0.  1.
         23    2    1    0    0    0 -0.26667630315E+02 -0.37132188293E+01  0.99724086956E+01  0.96377643150E+02  0.92001362290E+02 0.  0.
         13    1    3    3    0    0 -0.28555017123E+02 -0.67998647993E+01 -0.38140752117E+02  0.48128528964E+02  0.10566000000E+00 0. -1.
         22    1    1    0    0    0  0.26667630315E+02  0.37132188293E+01 -0.99724086956E+01  0.28712356850E+02  0.00000000000E+00 0.  1.
</event>
<event>
 5    1  0.1254496E-009  0.9118800E+02  0.7815553E-02  0.1125453E+00
         25   -1    0    0    0    0  0.00000000000E+00  0.00000000000E+00  0.99999998245E-14  0.12509000000E+03  0.12509000000E+03 0.  0.
        -13    1    3    3    0    0 -0.31954601638E+02  0.30550411941E+02 -0.44502300061E+01  0.44432419996E+02  0.10566000000E+00 0.  1.
         23    2    1    0    0    0  0.17615645805E+02  0.24959219917E+02 -0.36468019855E+01  0.94323576732E+02  0.89164815521E+02 0.  0.
         13    1    3    3    0    0  0.49570247443E+02 -0.55911920240E+01  0.80342802056E+00  0.49891156736E+02  0.10566000000E+00 0. -1.
         22    1    1    0    0    0 -0.17615645805E+02 -0.24959219917E+02  0.36468019855E+01  0.30766423268E+02  0.00000000000E+00 0. -1.
</event>
<event>
 5    1  0.1254496E-009  0.9118800E+02  0.7815553E-02  0.1125453E+00
         25   -1    0    0    0    0  0.00000000000E+00  0.00000000000E+00  0.99999998245E-14  0.12509000000E+03  0.12509000000E+03 0.  0.
        -13    1    3    3    0    0 -0.17197212220E+02 -0.35263874053E+02  0.40738970393E+01  0.39444806027E+02  0.10566000000E+00 0. -1.
         23    2    1    0    0    0 -0.35220930216E+01  0.15625524522E+02  0.24381830636E+02  0.95917481751E+02  0.91373560095E+02 0.  0.
         13    1    3    3    0    0  0.13675119198E+02  0.50889398575E+02  0.20307933596E+02  0.56472675724E+02  0.10566000000E+00 0.  1.
         22    1    1    0    0    0  0.35220930216E+01 -0.15625524522E+02 -0.24381830636E+02  0.29172518249E+02  0.00000000000E+00 0.  1.
</event>
<event>
 5    1  0.1254496E-009  0.9118800E+02  0.7815553E-02  0.1125453E+00
         25   -1    0    0    0    0  0.00000000000E+00  0.00000000000E+00  0.99999998245E-14  0.12509000000E+03  0.12509000000E+03 0.  0.
        -13    1    3    3    0    0  0.50770707204E+01 -0.38512853912E+02  0.16325064484E+02  0.42137103104E+02  0.10566000000E+00 0. -1.
         23    2    1    0    0    0  0.20304964814E+02  0.11634386485E+02  0.19481300088E+02  0.94640507424E+02  0.89608336930E+02 0.  0.
         13    1    3    3    0    0  0.15227894094E+02  0.50147240397E+02  0.31562356049E+01  0.52503404320E+02  0.10566000000E+00 0.  1.
         22    1    1    0    0    0 -0.20304964814E+02 -0.11634386485E+02 -0.19481300088E+02  0.30449492576E+02  0.00000000000E+00 0.  1.
</event>
<event>
 5    1  0.1254496E-009  0.9118800E+02  0.7815553E-02  0.1125453E+00
         25   -1    0    0    0    0  0.00000000000E+00  0.00000000000E+00  0.99999998245E-14  0.12509000000E+03  0.12509000000E+03 0.  0.
        -13    1    3    3    0    0 -0.40459840780E+02  0.28135150536E+02 -0.23346745706E+02  0.54531340628E+02  0.10566000000E+00 0.  1.
         23    2    1    0    0    0 -0.25941160017E+02  0.35842549905E+01  0.87584503733E+01  0.97476577180E+02  0.93483592031E+02 0.  0.
         13    1    3    3    0    0  0.14518680763E+02 -0.24550895545E+02  0.32105196079E+02  0.42945236552E+02  0.10566000000E+00 0. -1.
         22    1    1    0    0    0  0.25941160017E+02 -0.35842549905E+01 -0.87584503733E+01  0.27613422820E+02  0.00000000000E+00 0.  1.
</event>
<event>
 5    1  0.1254496E-009  0.9118800E+02  0.7815553E-02  0.1125453E+00
         25   -1    0    0    0    0  0.00000000000E+00  0.00000000000E+00  0.99999998245E-14  0.12509000000E+03  0.12509000000E+03 0.  0.
        -13    1    3    3    0    0 -0.13497122690E+02  0.51664765714E+02 -0.12349291457E+02  0.54808179140E+02  0.10566000000E+00 0. -1.
         23    2    1    0    0    0  0.10025130172E+02  0.33903510709E+02  0.55649487869E+01  0.89300058279E+02  0.81814304864E+02 0.  0.
         13    1    3    3    0    0  0.23522252861E+02 -0.17761255005E+02  0.17914240244E+02  0.34491879139E+02  0.10566000000E+00 0.  1.
         22    1    1    0    0    0 -0.10025130172E+02 -0.33903510709E+02 -0.55649487869E+01  0.35789941721E+02  0.00000000000E+00 0. -1.
</event>
<event>
 5    1  0.1254496E-009  0.9118800E+02  0.7815553E-02  0.1125453E+00
         25   -1    0    0    0    0  0.00000000000E+00  0.00000000000E+00  0.99999998245E-14  0.12509000000E+03  0.12509000000E+03 0.  0.
        -13    1    3    3    0    0  0.48236732719E+02 -0.19052541850E+02 -0.20078227672E+02  0.55614100054E+02  0.10566000000E+00 0. -1.
         23    2    1    0    0    0  0.21642171511E+02 -0.18400756696E+02  0.92542721942E+01  0.95213370529E+02  0.90404496232E+02 0.  0.
         13    1    3    3    0    0 -0.26594561207E+02  0.65178515413E+00  0.29332499866E+02  0.39599270475E+02  0.10566000000E+00 0.  1.
         22    1    1    0    0    0 -0.21642171511E+02  0.18400756696E+02 -0.92542721942E+01  0.29876629471E+02  0.00000000000E+00 0. -1.
</event>
<event>
 5    1  0.1254496E-009  0.9118800E+02  0.7815553E-02  0.1125453E+00
         25   -1    0    0    0    0  0.00000000000E+00  0.00000000000E+00  0.99999998245E-14  0.12509000000E+03  0.12509000000E+03 0.  0.
        -13    1    3    3    0    0  0.63909240217E+01  0.12909943783E+02  0.27157764076E+02  0.30741923687E+02  0.10566000000E+00 0. -1.
         23    2    1    0    0    0 -0.17133599074E+02  0.12670715840E+02 -0.27530462495E+02  0.90275726744E+02  0.83292696060E+02 0.  0.
         13    1    3    3    0    0 -0.23524523096E+02 -0.23922794237E+00 -0.54688226571E+02  0.59533803057E+02  0.10566000000E+00 0.  1.
         22    1    1    0    0    0  0.17133599074E+02 -0.12670715840E+02  0.27530462495E+02  0.34814273256E+02  0.00000000000E+00 0.  1.
</event>
<event>
 5    1  0.1254496E-009  0.9118800E+02  0.7815553E-02  0.1125453E+00
         25   -1    0    0    0    0  0.00000000000E+00  0.00000000000E+00  0.99999998245E-14  0.12509000000E+03  0.12509000000E+03 0.  0.
        -13    1    3    3    0    0 -0.57566771775E+02 -0.52853098085E+01 -0.17577775614E+02  0.60422322629E+02  0.10566000000E+00 0.  1.
         23    2    1    0    0    0 -0.24195753922E+02 -0.13383877930E+02 -0.10682028438E+02  0.95447658192E+02  0.90728093921E+02 0.  0.
         13    1    3    3    0    0  0.33371017853E+02 -0.80985681212E+01  0.68957471761E+01  0.35025335563E+02  0.10566000000E+00 0. -1.
         22    1    1    0    0    0  0.24195753922E+02  0.13383877930E+02  0.10682028438E+02  0.29642341808E+02  0.00000000000E+00 0.  1.
</event>
<event>
 5    1  0.1254496E-009  0.9118800E+02  0.7815553E-02  0.1125453E+00
         25   -1    0    0    0    0  0.00000000000E+00  0.00000000000E+00  0.99999998245E-14  0.12509000000E+03  0.12509000000E+03 0.  0.
        -13    1    3    3    0    0  0.16064937275E+02  0.49154003130E+02 -0.45121952563E+01  0.51909241022E+02  0.10566000000E+00 0.  1.
         23    2    1    0    0    0 -0.17670277652E+02  0.22579402861E+02  0.52290792090E+01  0.95945336419E+02  0.91411685059E+02 0.  0.
         13    1    3    3    0    0 -0.33735214927E+02 -0.26574600269E+02  0.97412744653E+01  0.44036095397E+02  0.10566000000E+00 0. -1.
         22    1    1    0    0    0  0.17670277652E+02 -0.22579402861E+02 -0.52290792090E+01  0.29144663581E+02  0.00000000000E+00 0.  1.
</event>
<event>
 5    1  0.1254496E-009  0.9118800E+02  0.7815553E-02  0.1125453E+00
         25   -1    0    0    0    0  0.00000000000E+00  0.00000000000E+00  0.99999998245E-14  0.12509000000E+03  0.12509000000E+03 0.  0.
        -13    1    3    3    0    0  0.38271990831E+02  0.20263611615E+02 -0.12501311482E+02  0.45073863720E+02  0.10566000000E+00 0.  1.
         23    2    1    0    0    0  0.30221864140E+02 -0.13396186728E+02 -0.26812815455E+02  0.82525390715E+02  0.70701443756E+02 0.  0.
         13    1    3    3    0    0 -0.80501266910E+01 -0.33659798343E+02 -0.14311503973E+02  0.37451526995E+02  0.10566000000E+00 0. -1.
         22    1    1    0    0    0 -0.30221864140E+02  0.13396186728E+02  0.26812815455E+02  0.42564609285E+02  0.00000000000E+00 0.  1.
</event>
<event>
 5    1  0.1254496E-009  0.9118800E+02  0.7815553E-02  0.1125453E+00
         25   -1    0    0    0    0  0.00000000000E+00  0.00000000000E+00  0.99999998245E-14  0.12509000000E+03  0.12509000000E+03 0.  0.
        -13    1    3    3    0    0  0.28909410142E+01 -0.33148057478E+02 -0.22104848911E+02  0.39947299832E+02  0.10566000000E+00 0.  1.
         23    2    1    0    0    0  0.19203590749E+02 -0.18347029388E+02  0.22879421507E+02  0.90034910306E+02  0.82930246354E+02 0.  0.
         13    1    3    3    0    0  0.16312649735E+02  0.14801028090E+02  0.44984270418E+02  0.50087610473E+02  0.10566000000E+00 0. -1.
         22    1    1    0    0    0 -0.19203590749E+02  0.18347029388E+02 -0.22879421507E+02  0.35055089694E+02  0.00000000000E+00 0. -1.
</event>
<event>
 5    1  0.1254496E-009  0.9118800E+02  0.7815553E-02  0.1125453E+00
         25   -1    0    0    0    0  0.00000000000E+00  0.00000000000E+00  0.99999998245E-14  0.12509000000E+03  0.12509000000E+03 0.  0.
        -13    1    3    3    0    0  0.46211045161E+02  0.40427542126E+02 -0.29054372316E+01  0.61467874429E+02  0.10566000000E+00 0. -1.
         23    2    1    0    0    0  0.21458230224E+02  0.18416203749E+02 -0.95336358674E+01  0.95248712867E+02  0.90453385150E+02 0.  0.
         13    1    3    3    0    0 -0.24752814937E+02 -0.22011338376E+02 -0.66281986358E+01  0.33780838439E+02  0.10566000000E+00 0.  1.
         22    1    1    0    0    0 -0.21458230224E+02 -0.18416203749E+02  0.95336358674E+01  0.29841287133E+02  0.00000000000E+00 0. -1.
</event>
<event>
 5    1  0.1254496E-009  0.9118800E+02  0.7815553E-02  0.1125453E+00
         25   -1    0    0    0    0  0.00000000000E+00  0.00000000000E+00  0.99999998245E-14  0.12509000000E+03  0.12509000000E+03 0.  0.
        -13    1    3    3    0    0 -0.70718919592E+01  0.33310310008E+02 -0.10537031824E+02  0.35645877916E+02  0.10566000000E+00 0.  1.
         23    2    1    0    0    0 -0.33875096267E+01 -0.27077317818E+02 -0.96286258961E+01  0.96152709208E+02  0.91695019983E+02 0.  0.
         13    1    3    3    0    0  0.36843823325E+01 -0.60387627826E+02  0.90840592775E+00  0.60506831292E+02  0.10566000000E+00 0. -1.
         22    1    1    0    0    0  0.33875096267E+01  0.27077317818E+02  0.96286258961E+01  0.28937290792E+02  0.00000000000E+00 0. -1.
</event>
<event>
 5    1  0.1254496E-009  0.9118800E+02  0.7815553E-02  0.1125453E+00
         25   -1    0    0    0    0  0.00000000000E+00  0.00000000000E+00  0.99999998245E-14  0.12509000000E+03  0.12509000000E+03 0.  0.
        -13    1    3    3    0    0  0.15059900738E+02  0.39977556595E+02  0.38504126053E+02  0.57511603426E+02  0.10566000000E+00 0. -1.
         23    2    1    0    0    0  0.89075047078E+01  0.33257040246E+01  0.27074911832E+02  0.96394097887E+02  0.92023732316E+02 0.  0.
         13    1    3    3    0    0 -0.61523960304E+01 -0.36651852570E+02 -0.11429214221E+02  0.38882494461E+02  0.10566000000E+00 0.  1.
         22    1    1    0    0    0 -0.89075047078E+01 -0.33257040246E+01 -0.27074911832E+02  0.28695902113E+02  0.00000000000E+00 0. -1.
</event>
<event>
 5    1  0.1254496E-009  0.9118800E+02  0.7815553E-02  0.1125453E+00
         25   -1    0    0    0    0  0.00000000000E+00  0.00000000000E+00  0.99999998245E-14  0.12509000000E+03  0.12509000000E+03 0.  0.
        -13    1    3    3    0    0 -0.33905071544E+02  0.30117642732E+02 -0.16119404004E+02  0.48129747865E+02  0.10566000000E+00 0. -1.
         23    2    1    0    0    0 -0.33793186443E+02 -0.90208144508E+01 -0.14277060056E+02  0.87311845106E+02  0.78715750068E+02 0.  0.
         13    1    3    3    0    0  0.11188510076E+00 -0.39138457183E+02  0.18423439474E+01  0.39182097241E+02  0.10566000000E+00 0.  1.
         22    1    1    0    0    0  0.33793186443E+02  0.90208144508E+01  0.14277060056E+02  0.37778154894E+02  0.00000000000E+00 0.  1.
</event>
<event>
 5    1  0.1254496E-009  0.9118800E+02  0.7815553E-02  0.1125453E+00
         25   -1    0    0    0    0  0.00000000000E+00  0.00000000000E+00  0.99999998245E-14  0.12509000000E+03  0.12509000000E+03 0.  0.
        -13    1    3    3    0    0  0.49513095952E+02 -0.20038599788E+02  0.27921809139E+02  0.60272139018E+02  0.10566000000E+00 0. -1.
         23    2    1    0    0    0  0.16523202976E+02 -0.19413631116E+02  0.12642668377E+02  0.96634027457E+02  0.92349298261E+02 0.  0.
         13    1    3    3    0    0 -0.32989892976E+02  0.62496867199E+00 -0.15279140762E+02  0.36361888439E+02  0.10566000000E+00 0.  1.
         22    1    1    0    0    0 -0.16523202976E+02  0.19413631116E+02 -0.12642668377E+02  0.28455972543E+02  0.00000000000E+00 0. -1.
</event>
<event>
 5    1  0.1254496E-009  0.9118800E+02  0.7815553E-02  0.1125453E+00
         25   -1    0    0    0    0  0.00000000000E+00  0.00000000000E+00  0.99999998245E-14  0.12509000000E+03  0.12509000000E+03 0.  0.
        -13    1    3    3    0    0  0.50113064806E+02  0.26988214595E+02  0.20139830977E+02  0.60376377393E+02  0.10566000000E+00 0. -1.
         23    2    1    0    0    0  0.15708405255E+02  0.19759553005E+02  0.14491790561E+02  0.95983197973E+02  0.91463481066E+02 0.  0.
         13    1    3    3    0    0 -0.34404659551E+02 -0.72286615899E+01 -0.56480404168E+01  0.35606820580E+02  0.10566000000E+00 0.  1.
         22    1    1    0    0    0 -0.15708405255E+02 -0.19759553005E+02 -0.14491790561E+02  0.29106802027E+02  0.00000000000E+00 0. -1.
</event>
<event>
 5    1  0.1254496E-009  0.9118800E+02  0.7815553E-02  0.1125453E+00
         25   -1    0    0    0    0  0.00000000000E+00  0.00000000000E+00  0.99999998245E-14  0.12509000000E+03  0.12509000000E+03 0.  0.
        -13    1    3    3    0    0 -0.24946412456E+02  0.48212083940E+02 -0.30715041891E+02  0.62371095026E+02  0.10566000000E+00 0. -1.
         23    2    1    0    0    0 -0.11043333072E+02  0.26487132985E+02 -0.18799110966E+02  0.90783586719E+02  0.84051945994E+02 0.  0.
         13    1    3    3    0    0  0.13903079384E+02 -0.21724950956E+02  0.11915930925E+02  0.28412491693E+02  0.10566000000E+00 0.  1.
         22    1    1    0    0    0  0.11043333072E+02 -0.26487132985E+02  0.18799110966E+02  0.34306413281E+02  0.00000000000E+00 0. -1.
</event>
<event>
 5    1  0.1254496E-009  0.9118800E+02  0.7815553E-02  0.1125453E+00
         25   -1    0    0    0    0  0.00000000000E+00  0.00000000000E+00  0.99999998245E-14  0.12509000000E+03  0.12509000000E+03 0.  0.
        -13    1    3    3    0    0  0.34874662095E+02  0.26079138386E+02 -0.44628156292E+02  0.62354206059E+02  0.10566000000E+00 0. -1.
         23    2    1    0    0    0  0.16904731900E+02  0.86404315614E+01 -0.20958389396E+02  0.96811366648E+02  0.92589198117E+02 0.  0.
         13    1    3    3    0    0 -0.17969930195E+02 -0.17438706825E+02  0.23669766895E+02  0.34457160589E+02  0.10566000000E+00 0.  1.
         22    1    1    0    0    0 -0.16904731900E+02 -0.86404315614E+01  0.20958389396E+02  0.28278633352E+02  0.00000000000E+00 0. -1.
</event>
<event>
 5    1  0.1254496E-009  0.9118800E+02  0.7815553E-02  0.1125453E+00
         25   -1    0    0    0    0  0.00000000000E+00  0.00000000000E+00  0.99999998245E-14  0.12509000000E+03  0.12509000000E+03 0.  0.
        -13    1    3    3    0    0  0.11071750557E+02 -0.20942838829E+02  0.29251884807E+02  0.37641334825E+02  0.10566000000E+00 0.  1.
         23    2    1    0    0    0 -0.10707603003E+02 -0.18652200152E+02 -0.22577950659E+02  0.93907934826E+02  0.88579789087E+02 0.  0.
         13    1    3    3    0    0 -0.21779353560E+02  0.22906386773E+01 -0.51829835467E+02  0.56266600000E+02  0.10566000000E+00 0. -1.
         22    1    1    0    0    0  0.10707603003E+02  0.18652200152E+02  0.22577950659E+02  0.31182065174E+02  0.00000000000E+00 0. -1.
</event>
<event>
 5    1  0.1254496E-009  0.9118800E+02  0.7815553E-02  0.1125453E+00
         25   -1    0    0    0    0  0.00000000000E+00  0.00000000000E+00  0.99999998245E-14  0.12509000000E+03  0.12509000000E+03 0.  0.
        -13    1    3    3    0    0  0.84051161696E+01 -0.27948973507E+02 -0.17184426890E+02  0.33868964990E+02  0.10566000000E+00 0.  1.
         23    2    1    0    0    0  0.17933802896E+02  0.78376134527E+01  0.27140528095E+02  0.91628712873E+02  0.85300429580E+02 0.  0.
         13    1    3    3    0    0  0.95286867265E+01  0.35786586960E+02  0.44324954985E+02  0.57759747882E+02  0.10566000000E+00 0. -1.
         22    1    1    0    0    0 -0.17933802896E+02 -0.78376134527E+01 -0.27140528095E+02  0.33461287127E+02  0.00000000000E+00 0. -1.
</event>
<event>
 5    1  0.1254496E-009  0.9118800E+02  0.7815553E-02  0.1125453E+00
         25   -1    0    0    0    0  0.00000000000E+00  0.00000000000E+00  0.99999998245E-14  0.12509000000E+03  0.12509000000E+03 0.  0.
        -13    1    3    3    0    0 -0.34473292323E+02 -0.21990049454E+02  0.45351004254E+02  0.61063040454E+02  0.10566000000E+00 0.  1.
         23    2    1    0    0    0 -0.12520069206E+02 -0.18730210360E+02  0.18222159868E+02  0.96113802470E+02  0.91641928188E+02 0.  0.
         13    1    3    3    0    0  0.21953223117E+02  0.32598390945E+01 -0.27128844386E+02  0.35050762016E+02  0.10566000000E+00 0. -1.
         22    1    1    0    0    0  0.12520069206E+02  0.18730210360E+02 -0.18222159868E+02  0.28976197530E+02  0.00000000000E+00 0.  1.
</event>
<event>
 5    1  0.1254496E-009  0.9118800E+02  0.7815553E-02  0.1125453E+00
         25   -1    0    0    0    0  0.00000000000E+00  0.00000000000E+00  0.99999998245E-14  0.12509000000E+03  0.12509000000E+03 0.  0.
        -13    1    3    3    0    0  0.92578785906E+01  0.22157335905E+01 -0.51421681818E+02  0.52295490402E+02  0.10566000000E+00 0. -1.
         23    2    1    0    0    0 -0.20376522237E+02 -0.50813700026E+01 -0.20466539813E+02  0.95765910389E+02  0.91165823427E+02 0.  0.
         13    1    3    3    0    0 -0.29634400828E+02 -0.72971035931E+01  0.30955142005E+02  0.43470419987E+02  0.10566000000E+00 0.  1.
         22    1    1    0    0    0  0.20376522237E+02  0.50813700026E+01  0.20466539813E+02  0.29324089611E+02  0.00000000000E+00 0. -1.
</event>
<event>
 5    1  0.1254496E-009  0.9118800E+02  0.7815553E-02  0.1125453E+00
         25   -1    0    0    0    0  0.00000000000E+00  0.00000000000E+00  0.99999998245E-14  0.12509000000E+03  0.12509000000E+03 0.  0.
        -13    1    3    3    0    0  0.98979046180E+01 -0.17842175627E+02 -0.28739236987E+02  0.35245803347E+02  0.10566000000E+00 0.  1.
         23    2    1    0    0    0 -0.24681500160E+02  0.12002137682E+02  0.10738459007E+02  0.95618958943E+02  0.90963965659E+02 0.  0.
         13    1    3    3    0    0 -0.34579404778E+02  0.29844313309E+02  0.39477695994E+02  0.60373155597E+02  0.10566000000E+00 0. -1.
         22    1    1    0    0    0  0.24681500160E+02 -0.12002137682E+02 -0.10738459007E+02  0.29471041057E+02  0.00000000000E+00 0. -1.
</event>
<event>
 5    1  0.1254496E-009  0.9118800E+02  0.7815553E-02  0.1125453E+00
         25   -1    0    0    0    0  0.00000000000E+00  0.00000000000E+00  0.99999998245E-14  0.12509000000E+03  0.12509000000E+03 0.  0.
        -13    1    3    3    0    0  0.20954695533E+02  0.26389377283E+02 -0.18720608898E+02  0.38548292567E+02  0.10566000000E+00 0. -1.
         23    2    1    0    0    0 -0.66956170990E+01 -0.15056427090E+02 -0.31107424139E+02  0.89887739823E+02  0.82707960009E+02 0.  0.
         13    1    3    3    0    0 -0.27650312632E+02 -0.41445804373E+02 -0.12386815241E+02  0.51339447256E+02  0.10566000000E+00 0.  1.
         22    1    1    0    0    0  0.66956170990E+01  0.15056427090E+02  0.31107424139E+02  0.35202260177E+02  0.00000000000E+00 0.  1.
</event>
<event>
 5    1  0.1254496E-009  0.9118800E+02  0.7815553E-02  0.1125453E+00
         25   -1    0    0    0    0  0.00000000000E+00  0.00000000000E+00  0.99999998245E-14  0.12509000000E+03  0.12509000000E+03 0.  0.
        -13    1    3    3    0    0  0.63268387286E+01  0.47762623874E+01  0.31242167657E+02  0.32232371533E+02  0.10566000000E+00 0.  1.
         23    2    1    0    0    0 -0.38497246426E+02  0.64648578588E+01  0.27692624331E+02  0.77228597891E+02  0.60609755983E+02 0.  0.
         13    1    3    3    0    0 -0.44824085155E+02  0.16885954714E+01 -0.35495433261E+01  0.44996226358E+02  0.10566000000E+00 0. -1.
         22    1    1    0    0    0  0.38497246426E+02 -0.64648578588E+01 -0.27692624331E+02  0.47861402109E+02  0.00000000000E+00 0. -1.
</event>
<event>
 5    1  0.1254496E-009  0.9118800E+02  0.7815553E-02  0.1125453E+00
         25   -1    0    0    0    0  0.00000000000E+00  0.00000000000E+00  0.99999998245E-14  0.12509000000E+03  0.12509000000E+03 0.  0.
        -13    1    3    3    0    0 -0.17128495221E+02 -0.45029598807E+02  0.75636297187E+01  0.48767507377E+02  0.10566000000E+00 0.  1.
         23    2    1    0    0    0 -0.24766130792E+02 -0.71406741455E+01 -0.16676123128E+02  0.94390756618E+02  0.89259012938E+02 0.  0.
         13    1    3    3    0    0 -0.76376355707E+01  0.37888924661E+02 -0.24239752847E+02  0.45623249240E+02  0.10566000000E+00 0. -1.
         22    1    1    0    0    0  0.24766130792E+02  0.71406741455E+01  0.16676123128E+02  0.30699243382E+02  0.00000000000E+00 0. -1.
</event>
<event>
 5    1  0.1254496E-009  0.9118800E+02  0.7815553E-02  0.1125453E+00
         25   -1    0    0    0    0  0.00000000000E+00  0.00000000000E+00  0.99999998245E-14  0.12509000000E+03  0.12509000000E+03 0.  0.
        -13    1    3    3    0    0 -0.24201129637E+02 -0.48164733707E+02 -0.22685307979E+02  0.58482224743E+02  0.10566000000E+00 0.  1.
         23    2    1    0    0    0  0.24977943280E+01 -0.27753354845E+02 -0.39885673524E+01  0.96940464458E+02  0.92763448072E+02 0.  0.
         13    1    3    3    0    0  0.26698923965E+02  0.20411378862E+02  0.18696740627E+02  0.38458239715E+02  0.10566000000E+00 0. -1.
         22    1    1    0    0    0 -0.24977943280E+01  0.27753354845E+02  0.39885673524E+01  0.28149535542E+02  0.00000000000E+00 0.  1.
</event>
<event>
 5    1  0.1254496E-009  0.9118800E+02  0.7815553E-02  0.1125453E+00
         25   -1    0    0    0    0  0.00000000000E+00  0.00000000000E+00  0.99999998245E-14  0.12509000000E+03  0.12509000000E+03 0.  0.
        -13    1    3    3    0    0 -0.11082075847E+02 -0.45861511147E+02  0.31061249747E+01  0.47283715867E+02  0.10566000000E+00 0.  1.
         23    2    1    0    0    0  0.13299877676E+02 -0.84358744983E+01  0.23831005038E+02  0.96524854703E+02  0.92201301778E+02 0.  0.
         13    1    3    3    0    0  0.24381953523E+02  0.37425636649E+02  0.20724880063E+02  0.49241138836E+02  0.10566000000E+00 0. -1.
         22    1    1    0    0    0 -0.13299877676E+02  0.84358744983E+01 -0.23831005038E+02  0.28565145297E+02  0.00000000000E+00 0. -1.
</event>
<event>
 5    1  0.1254496E-009  0.9118800E+02  0.7815553E-02  0.1125453E+00
         25   -1    0    0    0    0  0.00000000000E+00  0.00000000000E+00  0.99999998245E-14  0.12509000000E+03  0.12509000000E+03 0.  0.
        -13    1    3    3    0    0 -0.27458288761E+02  0.21604612231E+02  0.44404222325E+01  0.35219957481E+02  0.10566000000E+00 0. -1.
         23    2    1    0    0    0  0.51079681011E+01 -0.28375310261E+02 -0.56197653945E+01  0.95716009232E+02  0.91097327566E+02 0.  0.
         13    1    3    3    0    0  0.32566256862E+02 -0.49979922492E+02 -0.10060187627E+02  0.60496051751E+02  0.10566000000E+00 0.  1.
         22    1    1    0    0    0 -0.51079681011E+01  0.28375310261E+02  0.56197653945E+01  0.29373990768E+02  0.00000000000E+00 0.  1.
</event>
<event>
 5    1  0.1254496E-009  0.9118800E+02  0.7815553E-02  0.1125453E+00
         25   -1    0    0    0    0  0.00000000000E+00  0.00000000000E+00  0.99999998245E-14  0.12509000000E+03  0.12509000000E+03 0.  0.
        -13    1    3    3    0    0 -0.44229278146E+02  0.24851153100E+02  0.39590654264E+01  0.50887073200E+02  0.10566000000E+00 0.  1.
         23    2    1    0    0    0 -0.21467703372E+01  0.26203477469E+02  0.15532773443E+02  0.94553171331E+02  0.89486335848E+02 0.  0.
         13    1    3    3    0    0  0.42082507809E+02  0.13523243690E+01  0.11573708016E+02  0.43666098131E+02  0.10566000000E+00 0. -1.
         22    1    1    0    0    0  0.21467703372E+01 -0.26203477469E+02 -0.15532773443E+02  0.30536828669E+02  0.00000000000E+00 0.  1.
</event>
<event>
 5    1  0.1254496E-009  0.9118800E+02  0.7815553E-02  0.1125453E+00
         25   -1    0    0    0    0  0.00000000000E+00  0.00000000000E+00  0.99999998245E-14  0.12509000000E+03  0.12509000000E+03 0.  0.
        -13    1    3    3    0    0 -0.13685368269E+02 -0.50897872710E+02 -0.10864658445E+02  0.53813889641E+02  0.10566000000E+00 0.  1.
         23    2    1    0    0    0  0.16976882456E+02 -0.25012617085E+02 -0.29307753193E+01  0.94718385039E+02  0.89716985399E+02 0.  0.
         13    1    3    3    0    0  0.30662250725E+02  0.25885255626E+02  0.79338831253E+01  0.40904495399E+02  0.10566000000E+00 0. -1.
         22    1    1    0    0    0 -0.16976882456E+02  0.25012617085E+02  0.29307753193E+01  0.30371614961E+02  0.00000000000E+00 0.  1.
</event>
<event>
 5    1  0.1254496E-009  0.9118800E+02  0.7815553E-02  0.1125453E+00
         25   -1    0    0    0    0  0.00000000000E+00  0.00000000000E+00  0.99999998245E-14  0.12509000000E+03  0.12509000000E+03 0.  0.
        -13    1    3    3    0    0  0.83295705783E+01 -0.23274861032E+02 -0.50139652519E+02  0.55902565422E+02  0.10566000000E+00 0. -1.
         23    2    1    0    0    0  0.21626978093E+02 -0.13926342539E+02 -0.13381221610E+02  0.96094719527E+02  0.91615876524E+02 0.  0.
         13    1    3    3    0    0  0.13297407515E+02  0.93485184928E+01  0.36758430909E+02  0.40192154104E+02  0.10566000000E+00 0.  1.
         22    1    1    0    0    0 -0.21626978093E+02  0.13926342539E+02  0.13381221610E+02  0.28995280473E+02  0.00000000000E+00 0. -1.
</event>
<event>
 5    1  0.1254496E-009  0.9118800E+02  0.7815553E-02  0.1125453E+00
         25   -1    0    0    0    0  0.00000000000E+00  0.00000000000E+00  0.99999998245E-14  0.12509000000E+03  0.12509000000E+03 0.  0.
        -13    1    3    3    0    0 -0.32561133095E+02 -0.88982385704E+01 -0.32753072459E+02  0.47033827801E+02  0.10566000000E+00 0.  1.
         23    2    1    0    0    0 -0.17578486969E+02  0.26845490721E+02 -0.14317587496E+02  0.89952030681E+02  0.82805138341E+02 0.  0.
         13    1    3    3    0    0  0.14982646126E+02  0.35743729291E+02  0.18435484963E+02  0.42918202880E+02  0.10566000000E+00 0. -1.
         22    1    1    0    0    0  0.17578486969E+02 -0.26845490721E+02  0.14317587496E+02  0.35137969319E+02  0.00000000000E+00 0.  1.
</event>
<event>
 5    1  0.1254496E-009  0.9118800E+02  0.7815553E-02  0.1125453E+00
         25   -1    0    0    0    0  0.00000000000E+00  0.00000000000E+00  0.99999998245E-14  0.12509000000E+03  0.12509000000E+03 0.  0.
        -13    1    3    3    0    0  0.26512899704E+02  0.10924821569E+02  0.32156776564E+02  0.43085438608E+02  0.10566000000E+00 0. -1.
         23    2    1    0    0    0  0.11509826992E+01 -0.24707312080E+02 -0.42519280099E+01  0.99993089370E+02  0.96792370560E+02 0.  0.
         13    1    3    3    0    0 -0.25361917004E+02 -0.35632133649E+02 -0.36408704574E+02  0.56907650762E+02  0.10566000000E+00 0.  1.
         22    1    1    0    0    0 -0.11509826992E+01  0.24707312080E+02  0.42519280099E+01  0.25096910630E+02  0.00000000000E+00 0.  1.
</event>
<event>
 5    1  0.1254496E-009  0.9118800E+02  0.7815553E-02  0.1125453E+00
         25   -1    0    0    0    0  0.00000000000E+00  0.00000000000E+00  0.99999998245E-14  0.12509000000E+03  0.12509000000E+03 0.  0.
        -13    1    3    3    0    0  0.27607599073E+02  0.19658655808E+02 -0.29671580791E+02  0.45045045737E+02  0.10566000000E+00 0.  1.
         23    2    1    0    0    0 -0.22356305946E+01  0.25302380033E+02  0.12311555397E+02  0.96862657302E+02  0.92658466984E+02 0.  0.
         13    1    3    3    0    0 -0.29843229668E+02  0.56437242253E+01  0.41983136188E+02  0.51817611565E+02  0.10566000000E+00 0. -1.
         22    1    1    0    0    0  0.22356305946E+01 -0.25302380033E+02 -0.12311555397E+02  0.28227342698E+02  0.00000000000E+00 0. -1.
</event>
<event>
 5    1  0.1254496E-009  0.9118800E+02  0.7815553E-02  0.1125453E+00
         25   -1    0    0    0    0  0.00000000000E+00  0.00000000000E+00  0.99999998245E-14  0.12509000000E+03  0.12509000000E+03 0.  0.
        -13    1    3    3    0    0 -0.53836276508E+02 -0.20530977491E+02 -0.19900399309E+02  0.60958205040E+02  0.10566000000E+00 0. -1.
         23    2    1    0    0    0 -0.27357212641E+02 -0.60366881274E+00 -0.12938526488E+02  0.94821419471E+02  0.89860528728E+02 0.  0.
         13    1    3    3    0    0  0.26479063867E+02  0.19927308678E+02  0.69618728213E+01  0.33863214431E+02  0.10566000000E+00 0.  1.
         22    1    1    0    0    0  0.27357212641E+02  0.60366881274E+00  0.12938526488E+02  0.30268580529E+02  0.00000000000E+00 0. -1.
</event>
<event>
 5    1  0.1254496E-009  0.9118800E+02  0.7815553E-02  0.1125453E+00
         25   -1    0    0    0    0  0.00000000000E+00  0.00000000000E+00  0.99999998245E-14  0.12509000000E+03  0.12509000000E+03 0.  0.
        -13    1    3    3    0    0 -0.92964497897E+01 -0.22475501797E+02 -0.26499079291E+02  0.35969216380E+02  0.10566000000E+00 0.  1.
         23    2    1    0    0    0  0.26465915728E+02  0.16508647752E+02 -0.16476389958E+02  0.89813214829E+02  0.82595169265E+02 0.  0.
         13    1    3    3    0    0  0.35762365518E+02  0.38984149548E+02  0.10022689333E+02  0.53843998449E+02  0.10566000000E+00 0. -1.
         22    1    1    0    0    0 -0.26465915728E+02 -0.16508647752E+02  0.16476389958E+02  0.35276785171E+02  0.00000000000E+00 0. -1.
</event>
<event>
 5    1  0.1254496E-009  0.9118800E+02  0.7815553E-02  0.1125453E+00
         25   -1    0    0    0    0  0.00000000000E+00  0.00000000000E+00  0.99999998245E-14  0.12509000000E+03  0.12509000000E+03 0.  0.
        -13    1    3    3    0    0  0.80229628711E+01 -0.39718610244E+02  0.68272701849E+01  0.41092076062E+02  0.10566000000E+00 0. -1.
         23    2    1    0    0    0 -0.26407875061E+02 -0.23626904593E+01 -0.12917543850E+02  0.95597270209E+02  0.90934135289E+02 0.  0.
         13    1    3    3    0    0 -0.34430837932E+02  0.37355919784E+02 -0.19744814035E+02  0.54505194146E+02  0.10566000000E+00 0.  1.
         22    1    1    0    0    0  0.26407875061E+02  0.23626904593E+01  0.12917543850E+02  0.29492729791E+02  0.00000000000E+00 0.  1.
</event>
<event>
 5    1  0.1254496E-009  0.9118800E+02  0.7815553E-02  0.1125453E+00
         25   -1    0    0    0    0  0.00000000000E+00  0.00000000000E+00  0.99999998245E-14  0.12509000000E+03  0.12509000000E+03 0.  0.
        -13    1    3    3    0    0 -0.31293552540E+02 -0.10460419556E+02 -0.22691816423E+02  0.40045430506E+02  0.10566000000E+00 0. -1.
         23    2    1    0    0    0  0.20878724928E+02 -0.13623172249E+02  0.56850642295E+01  0.99519862495E+02  0.96178849541E+02 0.  0.
         13    1    3    3    0    0  0.52172277468E+02 -0.31627526929E+01  0.28376880652E+02  0.59474431988E+02  0.10566000000E+00 0.  1.
         22    1    1    0    0    0 -0.20878724928E+02  0.13623172249E+02 -0.56850642295E+01  0.25570137505E+02  0.00000000000E+00 0.  1.
</event>
<event>
 5    1  0.1254496E-009  0.9118800E+02  0.7815553E-02  0.1125453E+00
         25   -1    0    0    0    0  0.00000000000E+00  0.00000000000E+00  0.99999998245E-14  0.12509000000E+03  0.12509000000E+03 0.  0.
        -13    1    3    3    0    0  0.72605482417E+01 -0.19849671129E+02  0.58035560555E+02  0.61764572836E+02  0.10566000000E+00 0.  1.
         23    2    1    0    0    0  0.77382421568E+00 -0.15104599343E+02  0.24113836228E+02  0.96625551598E+02  0.92337816732E+02 0.  0.
         13    1    3    3    0    0 -0.64867240261E+01  0.47450717862E+01 -0.33921724327E+02  0.34860978762E+02  0.10566000000E+00 0. -1.
         22    1    1    0    0    0 -0.77382421568E+00  0.15104599343E+02 -0.24113836228E+02  0.28464448402E+02  0.00000000000E+00 0.  1.
</event>
<event>
 5    1  0.1254496E-009  0.9118800E+02  0.7815553E-02  0.1125453E+00
         25   -1    0    0    0    0  0.00000000000E+00  0.00000000000E+00  0.99999998245E-14  0.12509000000E+03  0.12509000000E+03 0.  0.
        -13    1    3    3    0    0 -0.80496728351E+01 -0.14638824823E+02  0.48988328185E+02  0.51758669683E+02  0.10566000000E+00 0.  1.
         23    2    1    0    0    0 -0.24586239312E+02 -0.10898428500E+02  0.66196210574E+01  0.97393821740E+02  0.93372791663E+02 0.  0.
         13    1    3    3    0    0 -0.16536566477E+02  0.37403963230E+01 -0.42368707128E+02  0.45635152057E+02  0.10566000000E+00 0. -1.
         22    1    1    0    0    0  0.24586239312E+02  0.10898428500E+02 -0.66196210574E+01  0.27696178260E+02  0.00000000000E+00 0.  1.
</event>
<event>
 5    1  0.1254496E-009  0.9118800E+02  0.7815553E-02  0.1125453E+00
         25   -1    0    0    0    0  0.00000000000E+00  0.00000000000E+00  0.99999998245E-14  0.12509000000E+03  0.12509000000E+03 0.  0.
        -13    1    3    3    0    0  0.31901782086E+02 -0.42148044070E+02  0.26819693774E+02  0.59274686480E+02  0.10566000000E+00 0. -1.
         23    2    1    0    0    0  0.24410054485E+02 -0.14775611422E+02  0.28642530442E+01  0.96412946484E+02  0.92049350087E+02 0.  0.
         13    1    3    3    0    0 -0.74917276004E+01  0.27372432648E+02 -0.23955440730E+02  0.37138260004E+02  0.10566000000E+00 0.  1.
         22    1    1    0    0    0 -0.24410054485E+02  0.14775611422E+02 -0.28642530442E+01  0.28677053516E+02  0.00000000000E+00 0. -1.
</event>
<event>
 5    1  0.1254496E-009  0.9118800E+02  0.7815553E-02  0.1125453E+00
         25   -1    0    0    0    0  0.00000000000E+00  0.00000000000E+00  0.99999998245E-14  0.12509000000E+03  0.12509000000E+03 0.  0.
        -13    1    3    3    0    0 -0.50701818655E+00  0.28997318578E+02 -0.44598884172E+02  0.53199372041E+02  0.10566000000E+00 0. -1.
         23    2    1    0    0    0  0.77638470254E+01 -0.96891108084E+01 -0.24614627434E+02  0.97521248258E+02  0.93543347114E+02 0.  0.
         13    1    3    3    0    0  0.82708652120E+01 -0.38686429386E+02  0.19984256738E+02  0.44321876217E+02  0.10566000000E+00 0.  1.
         22    1    1    0    0    0 -0.77638470254E+01  0.96891108084E+01  0.24614627434E+02  0.27568751742E+02  0.00000000000E+00 0. -1.
</event>
<event>
 5    1  0.1254496E-009  0.9118800E+02  0.7815553E-02  0.1125453E+00
         25   -1    0    0    0    0  0.00000000000E+00  0.00000000000E+00  0.99999998245E-14  0.12509000000E+03  0.12509000000E+03 0.  0.
        -13    1    3    3    0    0 -0.75601227594E+01  0.20376709076E+02 -0.15196710410E+02  0.26520122553E+02  0.10566000000E+00 0. -1.
         23    2    1    0    0    0  0.37602741010E+02 -0.60517043857E+01  0.11554870697E+02  0.85289192291E+02  0.75433030082E+02 0.  0.
         13    1    3    3    0    0  0.45162863770E+02 -0.26428413462E+02  0.26751581108E+02  0.58769069737E+02  0.10566000000E+00 0.  1.
         22    1    1    0    0    0 -0.37602741010E+02  0.60517043857E+01 -0.11554870697E+02  0.39800807709E+02  0.00000000000E+00 0.  1.
</event>
<event>
 5    1  0.1254496E-009  0.9118800E+02  0.7815553E-02  0.1125453E+00
         25   -1    0    0    0    0  0.00000000000E+00  0.00000000000E+00  0.99999998245E-14  0.12509000000E+03  0.12509000000E+03 0.  0.
        -13    1    3    3    0    0 -0.25534355771E+02 -0.44888405528E+02 -0.87354444110E+01  0.52376439633E+02  0.10566000000E+00 0.  1.
         23    2    1    0    0    0  0.47035883563E+01 -0.28017327626E+02  0.13612003575E+02  0.93587920195E+02  0.88126714306E+02 0.  0.
         13    1    3    3    0    0  0.30237944128E+02  0.16871077902E+02  0.22347447986E+02  0.41211480563E+02  0.10566000000E+00 0. -1.
         22    1    1    0    0    0 -0.47035883563E+01  0.28017327626E+02 -0.13612003575E+02  0.31502079805E+02  0.00000000000E+00 0.  1.
</event>
<event>
 5    1  0.1254496E-009  0.9118800E+02  0.7815553E-02  0.1125453E+00
         25   -1    0    0    0    0  0.00000000000E+00  0.00000000000E+00  0.99999998245E-14  0.12509000000E+03  0.12509000000E+03 0.  0.
        -13    1    3    3    0    0 -0.28012504315E+02 -0.16273265206E+02 -0.10010106225E+02  0.33907712236E+02  0.10566000000E+00 0. -1.
         23    2    1    0    0    0  0.24211198584E+02 -0.41642745689E+00  0.17679464173E+02  0.95108022045E+02  0.90258610975E+02 0.  0.
         13    1    3    3    0    0  0.52223702898E+02  0.15856837749E+02  0.27689570398E+02  0.61200309808E+02  0.10566000000E+00 0.  1.
         22    1    1    0    0    0 -0.24211198584E+02  0.41642745689E+00 -0.17679464173E+02  0.29981977955E+02  0.00000000000E+00 0.  1.
</event>
<event>
 5    1  0.1254496E-009  0.9118800E+02  0.7815553E-02  0.1125453E+00
         25   -1    0    0    0    0  0.00000000000E+00  0.00000000000E+00  0.99999998245E-14  0.12509000000E+03  0.12509000000E+03 0.  0.
        -13    1    3    3    0    0  0.25327922332E+01  0.28053861961E+02  0.37773780678E+02  0.47120100575E+02  0.10566000000E+00 0. -1.
         23    2    1    0    0    0 -0.16292476732E+02  0.24403000574E+02 -0.62061301671E+01  0.95098879868E+02  0.90245939883E+02 0.  0.
         13    1    3    3    0    0 -0.18825268966E+02 -0.36508613864E+01 -0.43979910845E+02  0.47978779294E+02  0.10566000000E+00 0.  1.
         22    1    1    0    0    0  0.16292476732E+02 -0.24403000574E+02  0.62061301671E+01  0.29991120132E+02  0.00000000000E+00 0. -1.
</event>
<event>
 5    1  0.1254496E-009  0.9118800E+02  0.7815553E-02  0.1125453E+00
         25   -1    0    0    0    0  0.00000000000E+00  0.00000000000E+00  0.99999998245E-14  0.12509000000E+03  0.12509000000E+03 0.  0.
        -13    1    3    3    0    0 -0.23564067661E+02 -0.14711871360E+02  0.26407445268E+02  0.38328432962E+02  0.10566000000E+00 0. -1.
         23    2    1    0    0    0  0.39512074427E+01 -0.11033555604E+02 -0.25406678778E+02  0.97110530454E+02  0.92992496520E+02 0.  0.
         13    1    3    3    0    0  0.27515275104E+02  0.36783157557E+01 -0.51814124047E+02  0.58782097493E+02  0.10566000000E+00 0.  1.
         22    1    1    0    0    0 -0.39512074427E+01  0.11033555604E+02  0.25406678778E+02  0.27979469546E+02  0.00000000000E+00 0.  1.
</event>
<event>
 5    1  0.1254496E-009  0.9118800E+02  0.7815553E-02  0.1125453E+00
         25   -1    0    0    0    0  0.00000000000E+00  0.00000000000E+00  0.99999998245E-14  0.12509000000E+03  0.12509000000E+03 0.  0.
        -13    1    3    3    0    0 -0.11999002319E+02 -0.17367343705E+02  0.27983099805E+02  0.35052328350E+02  0.10566000000E+00 0.  1.
         23    2    1    0    0    0 -0.38199247408E+01 -0.37954087074E+01 -0.29717113741E+02  0.94888943704E+02  0.89954476464E+02 0.  0.
         13    1    3    3    0    0  0.81790775778E+01  0.13571934998E+02 -0.57700213547E+02  0.59836615354E+02  0.10566000000E+00 0. -1.
         22    1    1    0    0    0  0.38199247408E+01  0.37954087074E+01  0.29717113741E+02  0.30201056296E+02  0.00000000000E+00 0. -1.
</event>
<event>
 5    1  0.1254496E-009  0.9118800E+02  0.7815553E-02  0.1125453E+00
         25   -1    0    0    0    0  0.00000000000E+00  0.00000000000E+00  0.99999998245E-14  0.12509000000E+03  0.12509000000E+03 0.  0.
        -13    1    3    3    0    0 -0.25043653196E+02 -0.29065833072E+02 -0.39852517891E+02  0.55319450140E+02  0.10566000000E+00 0. -1.
         23    2    1    0    0    0 -0.17957299543E+02  0.53369762000E+01 -0.25924264242E+02  0.93105388101E+02  0.87439109643E+02 0.  0.
         13    1    3    3    0    0  0.70863536534E+01  0.34402809272E+02  0.13928253649E+02  0.37785937961E+02  0.10566000000E+00 0.  1.
         22    1    1    0    0    0  0.17957299543E+02 -0.53369762000E+01  0.25924264242E+02  0.31984611899E+02  0.00000000000E+00 0. -1.
</event>
<event>
 5    1  0.1254496E-009  0.9118800E+02  0.7815553E-02  0.1125453E+00
         25   -1    0    0    0    0  0.00000000000E+00  0.00000000000E+00  0.99999998245E-14  0.12509000000E+03  0.12509000000E+03 0.  0.
        -13    1    3    3    0    0  0.73989601583E+01  0.11181101601E+02 -0.32293696015E+02  0.34966492686E+02  0.10566000000E+00 0.  1.
         23    2    1    0    0    0 -0.95706258958E+01  0.66299656481E+01  0.26401728216E+02  0.96235111726E+02  0.91807364364E+02 0.  0.
         13    1    3    3    0    0 -0.16969586054E+02 -0.45511359532E+01  0.58695424231E+02  0.61268619039E+02  0.10566000000E+00 0. -1.
         22    1    1    0    0    0  0.95706258958E+01 -0.66299656481E+01 -0.26401728216E+02  0.28854888274E+02  0.00000000000E+00 0. -1.
</event>
<event>
 5    1  0.1254496E-009  0.9118800E+02  0.7815553E-02  0.1125453E+00
         25   -1    0    0    0    0  0.00000000000E+00  0.00000000000E+00  0.99999998245E-14  0.12509000000E+03  0.12509000000E+03 0.  0.
        -13    1    3    3    0    0 -0.22507529141E+02  0.18273907080E+02 -0.36790854176E+02  0.46841249589E+02  0.10566000000E+00 0. -1.
         23    2    1    0    0    0 -0.38738442175E+01 -0.22828661552E+02 -0.18152245979E+02  0.95667925101E+02  0.91031277053E+02 0.  0.
         13    1    3    3    0    0  0.18633684924E+02 -0.41102568632E+02  0.18638608197E+02  0.48826675512E+02  0.10566000000E+00 0.  1.
         22    1    1    0    0    0  0.38738442175E+01  0.22828661552E+02  0.18152245979E+02  0.29422074899E+02  0.00000000000E+00 0. -1.
</event>
<event>
 5    1  0.1254496E-009  0.9118800E+02  0.7815553E-02  0.1125453E+00
         25   -1    0    0    0    0  0.00000000000E+00  0.00000000000E+00  0.99999998245E-14  0.12509000000E+03  0.12509000000E+03 0.  0.
        -13    1    3    3    0    0  0.23891632875E+02  0.30137137322E+02  0.32520994634E+02  0.50365498344E+02  0.10566000000E+00 0. -1.
         23    2    1    0    0    0 -0.91791914826E+01  0.30813136790E+02  0.68971449801E+01  0.92207214778E+02  0.86144604550E+02 0.  0.
         13    1    3    3    0    0 -0.33070824358E+02  0.67599946735E+00 -0.25623849654E+02  0.41841716434E+02  0.10566000000E+00 0.  1.
         22    1    1    0    0    0  0.91791914826E+01 -0.30813136790E+02 -0.68971449801E+01  0.32882785222E+02  0.00000000000E+00 0. -1.
</event>
<event>
 5    1  0.1254496E-009  0.9118800E+02  0.7815553E-02  0.1125453E+00
         25   -1    0    0    0    0  0.00000000000E+00  0.00000000000E+00  0.99999998245E-14  0.12509000000E+03  0.12509000000E+03 0.  0.
        -13    1    3    3    0    0 -0.42227639617E+01 -0.32763131590E+02 -0.17074553533E+02  0.37186100487E+02  0.10566000000E+00 0. -1.
         23    2    1    0    0    0  0.95193333016E+01  0.23608855957E+02 -0.15613429729E+02  0.95227398405E+02  0.90423904102E+02 0.  0.
         13    1    3    3    0    0  0.13742097263E+02  0.56371987547E+02  0.14611238042E+01  0.58041297918E+02  0.10566000000E+00 0.  1.
         22    1    1    0    0    0 -0.95193333016E+01 -0.23608855957E+02  0.15613429729E+02  0.29862601595E+02  0.00000000000E+00 0.  1.
</event>
<event>
 5    1  0.1254496E-009  0.9118800E+02  0.7815553E-02  0.1125453E+00
         25   -1    0    0    0    0  0.00000000000E+00  0.00000000000E+00  0.99999998245E-14  0.12509000000E+03  0.12509000000E+03 0.  0.
        -13    1    3    3    0    0 -0.14115852528E+02 -0.16849447350E+02 -0.50128590054E+02  0.54736166046E+02  0.10566000000E+00 0.  1.
         23    2    1    0    0    0 -0.15357743989E+02 -0.23528080904E+02 -0.10261550179E+02  0.95177957216E+02  0.90355482602E+02 0.  0.
         13    1    3    3    0    0 -0.12418914611E+01 -0.66786335534E+01  0.39867039875E+02  0.40441791169E+02  0.10566000000E+00 0. -1.
         22    1    1    0    0    0  0.15357743989E+02  0.23528080904E+02  0.10261550179E+02  0.29912042784E+02  0.00000000000E+00 0.  1.
</event>
<event>
 5    1  0.1254496E-009  0.9118800E+02  0.7815553E-02  0.1125453E+00
         25   -1    0    0    0    0  0.00000000000E+00  0.00000000000E+00  0.99999998245E-14  0.12509000000E+03  0.12509000000E+03 0.  0.
        -13    1    3    3    0    0  0.54993748869E+02  0.57126298265E+01  0.42126043449E+01  0.55450011304E+02  0.10566000000E+00 0. -1.
         23    2    1    0    0    0  0.21405139125E+02 -0.15638971729E+02  0.11975975161E+02  0.96000802714E+02  0.91487555017E+02 0.  0.
         13    1    3    3    0    0 -0.33588609744E+02 -0.21351601556E+02  0.77633708165E+01  0.40550791410E+02  0.10566000000E+00 0.  1.
         22    1    1    0    0    0 -0.21405139125E+02  0.15638971729E+02 -0.11975975161E+02  0.29089197286E+02  0.00000000000E+00 0. -1.
</event>
<event>
 5    1  0.1254496E-009  0.9118800E+02  0.7815553E-02  0.1125453E+00
         25   -1    0    0    0    0  0.00000000000E+00  0.00000000000E+00  0.99999998245E-14  0.12509000000E+03  0.12509000000E+03 0.  0.
        -13    1    3    3    0    0 -0.82926808725E+01  0.37449162958E+02 -0.49705862695E+01  0.38677205873E+02  0.10566000000E+00 0. -1.
         23    2    1    0    0    0  0.14215650271E+02 -0.37691382934E+01  0.26200520991E+02  0.95044061567E+02  0.90169924159E+02 0.  0.
         13    1    3    3    0    0  0.22508331144E+02 -0.41218301251E+02  0.31171107261E+02  0.56366855694E+02  0.10566000000E+00 0.  1.
         22    1    1    0    0    0 -0.14215650271E+02  0.37691382934E+01 -0.26200520991E+02  0.30045938433E+02  0.00000000000E+00 0.  1.
</event>
<event>
 5    1  0.1254496E-009  0.9118800E+02  0.7815553E-02  0.1125453E+00
         25   -1    0    0    0    0  0.00000000000E+00  0.00000000000E+00  0.99999998245E-14  0.12509000000E+03  0.12509000000E+03 0.  0.
        -13    1    3    3    0    0 -0.97698741651E+01 -0.36116908063E+01 -0.36538525777E+02  0.37994338811E+02  0.10566000000E+00 0.  1.
         23    2    1    0    0    0 -0.19710592358E+02  0.12474319050E+01  0.20809601518E+02  0.96400227383E+02  0.92032063906E+02 0.  0.
         13    1    3    3    0    0 -0.99407181927E+01  0.48591227112E+01  0.57348127295E+02  0.58405888573E+02  0.10566000000E+00 0. -1.
         22    1    1    0    0    0  0.19710592358E+02 -0.12474319050E+01 -0.20809601518E+02  0.28689772617E+02  0.00000000000E+00 0. -1.
</event>
<event>
 5    1  0.1254496E-009  0.9118800E+02  0.7815553E-02  0.1125453E+00
         25   -1    0    0    0    0  0.00000000000E+00  0.00000000000E+00  0.99999998245E-14  0.12509000000E+03  0.12509000000E+03 0.  0.
        -13    1    3    3    0    0  0.39799209144E+02  0.16710927781E+02 -0.91543163578E+01  0.44125330908E+02  0.10566000000E+00 0.  1.
         23    2    1    0    0    0 -0.10442651680E+02  0.19096680630E+02 -0.19944834453E+02  0.95568336657E+02  0.90894325262E+02 0.  0.
         13    1    3    3    0    0 -0.50241860823E+02  0.23857528491E+01 -0.10790518095E+02  0.51443005749E+02  0.10566000000E+00 0. -1.
         22    1    1    0    0    0  0.10442651680E+02 -0.19096680630E+02  0.19944834453E+02  0.29521663343E+02  0.00000000000E+00 0. -1.
</event>
<event>
 5    1  0.1254496E-009  0.9118800E+02  0.7815553E-02  0.1125453E+00
         25   -1    0    0    0    0  0.00000000000E+00  0.00000000000E+00  0.99999998245E-14  0.12509000000E+03  0.12509000000E+03 0.  0.
        -13    1    3    3    0    0 -0.27954928509E+02 -0.42973715283E+02  0.30651708933E+02  0.59730701132E+02  0.10566000000E+00 0. -1.
         23    2    1    0    0    0 -0.23224004439E+02 -0.11560698449E+02  0.14554809340E+02  0.95343628696E+02  0.90584551261E+02 0.  0.
         13    1    3    3    0    0  0.47309240700E+01  0.31413016834E+02 -0.16096899593E+02  0.35612927564E+02  0.10566000000E+00 0.  1.
         22    1    1    0    0    0  0.23224004439E+02  0.11560698449E+02 -0.14554809340E+02  0.29746371304E+02  0.00000000000E+00 0. -1.
</event>
<event>
 5    1  0.1254496E-009  0.9118800E+02  0.7815553E-02  0.1125453E+00
         25   -1    0    0    0    0  0.00000000000E+00  0.00000000000E+00  0.99999998245E-14  0.12509000000E+03  0.12509000000E+03 0.  0.
        -13    1    3    3    0    0  0.26673309863E+02  0.24674300376E+02 -0.27473809618E+02  0.45553352643E+02  0.10566000000E+00 0. -1.
         23    2    1    0    0    0  0.15035216885E+02 -0.21540353498E+02 -0.15097666374E+02  0.94791747484E+02  0.89819214456E+02 0.  0.
         13    1    3    3    0    0 -0.11638092978E+02 -0.46214653874E+02  0.12376143244E+02  0.49238394840E+02  0.10566000000E+00 0.  1.
         22    1    1    0    0    0 -0.15035216885E+02  0.21540353498E+02  0.15097666374E+02  0.30298252516E+02  0.00000000000E+00 0.  1.
</event>
<event>
 5    1  0.1254496E-009  0.9118800E+02  0.7815553E-02  0.1125453E+00
         25   -1    0    0    0    0  0.00000000000E+00  0.00000000000E+00  0.99999998245E-14  0.12509000000E+03  0.12509000000E+03 0.  0.
        -13    1    3    3    0    0  0.39063981849E+02 -0.69548981824E+01 -0.39056995696E+02  0.55676075323E+02  0.10566000000E+00 0.  1.
         23    2    1    0    0    0  0.15722716708E+02  0.17377571318E+02 -0.19102162496E+02  0.94856303276E+02  0.89909075480E+02 0.  0.
         13    1    3    3    0    0 -0.23341265141E+02  0.24332469500E+02  0.19954833200E+02  0.39180227953E+02  0.10566000000E+00 0. -1.
         22    1    1    0    0    0 -0.15722716708E+02 -0.17377571318E+02  0.19102162496E+02  0.30233696724E+02  0.00000000000E+00 0.  1.
</event>
<event>
 4    1  0.1254496E-009  0.9118800E+02  0.7815553E-02  0.1125453E+00
         25   -1    0    0    0    0  0.00000000000E+00  0.00000000000E+00  0.99999998245E-14  0.12509000000E+03  0.12509000000E+03 0.  0.
        -13    1    1    0    0    0 -0.10409493773E+02  0.31314770286E+01 -0.55826663855E+01  0.12220517051E+02  0.10566000000E+00 0. -1.
         13    1    1    0    0    0 -0.40816660858E+01 -0.18624439369E+02  0.55471926343E+02  0.58657271638E+02  0.10566000000E+00 0.  1.
         22    1    1    0    0    0  0.14491159859E+02  0.15492962341E+02 -0.49889259957E+02  0.54212211311E+02  0.00000000000E+00 0.  1.
</event>
<event>
 5    1  0.1254496E-009  0.9118800E+02  0.7815553E-02  0.1125453E+00
         25   -1    0    0    0    0  0.00000000000E+00  0.00000000000E+00  0.99999998245E-14  0.12509000000E+03  0.12509000000E+03 0.  0.
        -13    1    3    3    0    0 -0.10065439455E+02  0.12694524258E+01  0.38772637473E+02  0.40078088297E+02  0.10566000000E+00 0.  1.
         23    2    1    0    0    0 -0.98290083736E+01  0.23862181440E+02 -0.12726349132E+02  0.96315478789E+02  0.91916801421E+02 0.  0.
         13    1    3    3    0    0  0.23643108155E+00  0.22592729014E+02 -0.51498986605E+02  0.56237390492E+02  0.10566000000E+00 0. -1.
         22    1    1    0    0    0  0.98290083736E+01 -0.23862181440E+02  0.12726349132E+02  0.28774521211E+02  0.00000000000E+00 0. -1.
</event>
<event>
 5    1  0.1254496E-009  0.9118800E+02  0.7815553E-02  0.1125453E+00
         25   -1    0    0    0    0  0.00000000000E+00  0.00000000000E+00  0.99999998245E-14  0.12509000000E+03  0.12509000000E+03 0.  0.
        -13    1    3    3    0    0 -0.16442827478E+02 -0.33908898767E+02  0.28463648245E+02  0.47226797758E+02  0.10566000000E+00 0.  1.
         23    2    1    0    0    0 -0.73894506259E+01  0.14750413928E+02  0.22660137904E+02  0.97060363160E+02  0.92924988864E+02 0.  0.
         13    1    3    3    0    0  0.90533768524E+01  0.48659312694E+02 -0.58035103414E+01  0.49833565401E+02  0.10566000000E+00 0. -1.
         22    1    1    0    0    0  0.73894506259E+01 -0.14750413928E+02 -0.22660137904E+02  0.28029636840E+02  0.00000000000E+00 0.  1.
</event>
<event>
 5    1  0.1254496E-009  0.9118800E+02  0.7815553E-02  0.1125453E+00
         25   -1    0    0    0    0  0.00000000000E+00  0.00000000000E+00  0.99999998245E-14  0.12509000000E+03  0.12509000000E+03 0.  0.
        -13    1    3    3    0    0 -0.14107736541E+02  0.48870200845E+01  0.60467379322E+02  0.62283435372E+02  0.10566000000E+00 0. -1.
         23    2    1    0    0    0 -0.32871636025E+01  0.54258618765E+00  0.29992933196E+02  0.94912593120E+02  0.89987357149E+02 0.  0.
         13    1    3    3    0    0  0.10820572939E+02 -0.43444338968E+01 -0.30474446126E+02  0.32629157748E+02  0.10566000000E+00 0.  1.
         22    1    1    0    0    0  0.32871636025E+01 -0.54258618765E+00 -0.29992933196E+02  0.30177406880E+02  0.00000000000E+00 0. -1.
</event>
<event>
 5    1  0.1254496E-009  0.9118800E+02  0.7815553E-02  0.1125453E+00
         25   -1    0    0    0    0  0.00000000000E+00  0.00000000000E+00  0.99999998245E-14  0.12509000000E+03  0.12509000000E+03 0.  0.
        -13    1    3    3    0    0 -0.28042390831E+02 -0.49952756176E+01  0.23253044137E+02  0.36770146691E+02  0.10566000000E+00 0.  1.
         23    2    1    0    0    0  0.21021701271E+02 -0.14414777044E+02 -0.10983054801E+02  0.97335266813E+02  0.93294313606E+02 0.  0.
         13    1    3    3    0    0  0.49064092101E+02 -0.94195014264E+01 -0.34236098938E+02  0.60565120122E+02  0.10566000000E+00 0. -1.
         22    1    1    0    0    0 -0.21021701271E+02  0.14414777044E+02  0.10983054801E+02  0.27754733187E+02  0.00000000000E+00 0. -1.
</event>
<event>
 5    1  0.1254496E-009  0.9118800E+02  0.7815553E-02  0.1125453E+00
         25   -1    0    0    0    0  0.00000000000E+00  0.00000000000E+00  0.99999998245E-14  0.12509000000E+03  0.12509000000E+03 0.  0.
        -13    1    3    3    0    0  0.76488123968E+01  0.36582590484E+02 -0.16259173056E+01  0.37409157017E+02  0.10566000000E+00 0. -1.
         23    2    1    0    0    0  0.13338154620E+00 -0.18009520809E+02 -0.22440432068E+02  0.96316164284E+02  0.91917734309E+02 0.  0.
         13    1    3    3    0    0 -0.75154308506E+01 -0.54592111293E+02 -0.20814514763E+02  0.58907007267E+02  0.10566000000E+00 0.  1.
         22    1    1    0    0    0 -0.13338154620E+00  0.18009520809E+02  0.22440432068E+02  0.28773835716E+02  0.00000000000E+00 0. -1.
</event>
<event>
 5    1  0.1254496E-009  0.9118800E+02  0.7815553E-02  0.1125453E+00
         25   -1    0    0    0    0  0.00000000000E+00  0.00000000000E+00  0.99999998245E-14  0.12509000000E+03  0.12509000000E+03 0.  0.
        -13    1    3    3    0    0 -0.43720952451E+02  0.26023619557E+02  0.12620456774E+02  0.52421727855E+02  0.10566000000E+00 0.  1.
         23    2    1    0    0    0 -0.27207263659E+02 -0.11995554801E+02  0.15992556817E+01  0.95312724276E+02  0.90541864678E+02 0.  0.
         13    1    3    3    0    0  0.16513688792E+02 -0.38019174358E+02 -0.11021201092E+02  0.42890996421E+02  0.10566000000E+00 0. -1.
         22    1    1    0    0    0  0.27207263659E+02  0.11995554801E+02 -0.15992556817E+01  0.29777275724E+02  0.00000000000E+00 0.  1.
</event>
<event>
 5    1  0.1254496E-009  0.9118800E+02  0.7815553E-02  0.1125453E+00
         25   -1    0    0    0    0  0.00000000000E+00  0.00000000000E+00  0.99999998245E-14  0.12509000000E+03  0.12509000000E+03 0.  0.
        -13    1    3    3    0    0 -0.40847109725E+01 -0.60486586424E+02  0.12577419589E+02  0.61915382971E+02  0.10566000000E+00 0.  1.
         23    2    1    0    0    0  0.15144165393E+00 -0.29731504410E+02  0.14516073591E+00  0.95357755539E+02  0.90604057198E+02 0.  0.
         13    1    3    3    0    0  0.42361526264E+01  0.30755082014E+02 -0.12432258853E+02  0.33442372568E+02  0.10566000000E+00 0. -1.
         22    1    1    0    0    0 -0.15144165393E+00  0.29731504410E+02 -0.14516073591E+00  0.29732244461E+02  0.00000000000E+00 0.  1.
</event>
<event>
 5    1  0.1254496E-009  0.9118800E+02  0.7815553E-02  0.1125453E+00
         25   -1    0    0    0    0  0.00000000000E+00  0.00000000000E+00  0.99999998245E-14  0.12509000000E+03  0.12509000000E+03 0.  0.
        -13    1    3    3    0    0  0.43844273172E+02  0.14381237356E+02 -0.25683096547E+02  0.52808833448E+02  0.10566000000E+00 0. -1.
         23    2    1    0    0    0  0.13619627501E+02  0.20780994536E+02  0.84485394763E+01  0.98846490203E+02  0.95299038920E+02 0.  0.
         13    1    3    3    0    0 -0.30224645671E+02  0.63997571792E+01  0.34131636023E+02  0.46037656755E+02  0.10566000000E+00 0.  1.
         22    1    1    0    0    0 -0.13619627501E+02 -0.20780994536E+02 -0.84485394763E+01  0.26243509797E+02  0.00000000000E+00 0.  1.
</event>
<event>
 5    1  0.1254496E-009  0.9118800E+02  0.7815553E-02  0.1125453E+00
         25   -1    0    0    0    0  0.00000000000E+00  0.00000000000E+00  0.99999998245E-14  0.12509000000E+03  0.12509000000E+03 0.  0.
        -13    1    3    3    0    0  0.73435935991E+01 -0.43591749269E+02 -0.39967867646E+02  0.59595390590E+02  0.10566000000E+00 0.  1.
         23    2    1    0    0    0 -0.90757772636E+01 -0.15958438581E+02 -0.22057642128E+02  0.96391897778E+02  0.92020741608E+02 0.  0.
         13    1    3    3    0    0 -0.16419370863E+02  0.27633310688E+02  0.17910225518E+02  0.36796507188E+02  0.10566000000E+00 0. -1.
         22    1    1    0    0    0  0.90757772636E+01  0.15958438581E+02  0.22057642128E+02  0.28698102222E+02  0.00000000000E+00 0.  1.
</event>
<event>
 5    1  0.1254496E-009  0.9118800E+02  0.7815553E-02  0.1125453E+00
         25   -1    0    0    0    0  0.00000000000E+00  0.00000000000E+00  0.99999998245E-14  0.12509000000E+03  0.12509000000E+03 0.  0.
        -13    1    3    3    0    0 -0.22237669488E+02  0.14207121934E+02  0.56702644402E+02  0.62542444021E+02  0.10566000000E+00 0.  1.
         23    2    1    0    0    0 -0.11751732455E+02  0.79251063143E+01  0.30020442044E+02  0.91891544218E+02  0.85684995375E+02 0.  0.
         13    1    3    3    0    0  0.10485937033E+02 -0.62820156198E+01 -0.26682202357E+02  0.29349100197E+02  0.10566000000E+00 0. -1.
         22    1    1    0    0    0  0.11751732455E+02 -0.79251063143E+01 -0.30020442044E+02  0.33198455782E+02  0.00000000000E+00 0.  1.
</event>
<event>
 5    1  0.1254496E-009  0.9118800E+02  0.7815553E-02  0.1125453E+00
         25   -1    0    0    0    0  0.00000000000E+00  0.00000000000E+00  0.99999998245E-14  0.12509000000E+03  0.12509000000E+03 0.  0.
        -13    1    3    3    0    0 -0.55358642026E+01  0.37205671647E+01  0.35706043169E+02  0.36323836462E+02  0.10566000000E+00 0. -1.
         23    2    1    0    0    0 -0.19959485413E+02 -0.68468440744E+01 -0.20720905204E+02  0.95516088453E+02  0.90822392113E+02 0.  0.
         13    1    3    3    0    0 -0.14423621210E+02 -0.10567411239E+02 -0.56426948373E+02  0.59192251991E+02  0.10566000000E+00 0.  1.
         22    1    1    0    0    0  0.19959485413E+02  0.68468440744E+01  0.20720905204E+02  0.29573911547E+02  0.00000000000E+00 0.  1.
</event>
<event>
 5    1  0.1254496E-009  0.9118800E+02  0.7815553E-02  0.1125453E+00
         25   -1    0    0    0    0  0.00000000000E+00  0.00000000000E+00  0.99999998245E-14  0.12509000000E+03  0.12509000000E+03 0.  0.
        -13    1    3    3    0    0  0.20714693894E+02 -0.29403835225E+02 -0.48852889228E+02  0.60665476336E+02  0.10566000000E+00 0. -1.
         23    2    1    0    0    0  0.19516780498E+01 -0.20961865716E+02 -0.20427039093E+02  0.95756183548E+02  0.91152476105E+02 0.  0.
         13    1    3    3    0    0 -0.18763015844E+02  0.84419695087E+01  0.28425850135E+02  0.35090707213E+02  0.10566000000E+00 0.  1.
         22    1    1    0    0    0 -0.19516780498E+01  0.20961865716E+02  0.20427039093E+02  0.29333816452E+02  0.00000000000E+00 0. -1.
</event>
<event>
 5    1  0.1254496E-009  0.9118800E+02  0.7815553E-02  0.1125453E+00
         25   -1    0    0    0    0  0.00000000000E+00  0.00000000000E+00  0.99999998245E-14  0.12509000000E+03  0.12509000000E+03 0.  0.
        -13    1    3    3    0    0 -0.13653455048E+02 -0.21313670994E+02  0.47682055003E+02  0.53984061901E+02  0.10566000000E+00 0.  1.
         23    2    1    0    0    0 -0.25860782943E+02 -0.92653929946E+01  0.91926729105E+01  0.96122210353E+02  0.91653404117E+02 0.  0.
         13    1    3    3    0    0 -0.12207327895E+02  0.12048277999E+02 -0.38489382093E+02  0.42138148452E+02  0.10566000000E+00 0. -1.
         22    1    1    0    0    0  0.25860782943E+02  0.92653929946E+01 -0.91926729105E+01  0.28967789647E+02  0.00000000000E+00 0.  1.
</event>
<event>
 5    1  0.1254496E-009  0.9118800E+02  0.7815553E-02  0.1125453E+00
         25   -1    0    0    0    0  0.00000000000E+00  0.00000000000E+00  0.99999998245E-14  0.12509000000E+03  0.12509000000E+03 0.  0.
        -13    1    3    3    0    0  0.15010073599E+02  0.55911346123E+02 -0.38872156475E+01  0.58021569647E+02  0.10566000000E+00 0. -1.
         23    2    1    0    0    0  0.13785039502E+01  0.24282850462E+02 -0.17574714012E+02  0.95082872975E+02  0.90223749982E+02 0.  0.
         13    1    3    3    0    0 -0.13631569649E+02 -0.31628495661E+02 -0.13687498365E+02  0.37061303328E+02  0.10566000000E+00 0.  1.
         22    1    1    0    0    0 -0.13785039502E+01 -0.24282850462E+02  0.17574714012E+02  0.30007127025E+02  0.00000000000E+00 0.  1.
</event>
<event>
 5    1  0.1254496E-009  0.9118800E+02  0.7815553E-02  0.1125453E+00
         25   -1    0    0    0    0  0.00000000000E+00  0.00000000000E+00  0.99999998245E-14  0.12509000000E+03  0.12509000000E+03 0.  0.
        -13    1    3    3    0    0  0.17884274552E+02 -0.19077325911E+02  0.22861078309E+02  0.34733725767E+02  0.10566000000E+00 0.  1.
         23    2    1    0    0    0  0.35023042498E+01  0.88435797253E+00 -0.30964368116E+02  0.93915646487E+02  0.88590678619E+02 0.  0.
         13    1    3    3    0    0 -0.14381970302E+02  0.19961683884E+02 -0.53825446425E+02  0.59181920720E+02  0.10566000000E+00 0. -1.
         22    1    1    0    0    0 -0.35023042498E+01 -0.88435797253E+00  0.30964368116E+02  0.31174353513E+02  0.00000000000E+00 0. -1.
</event>
<event>
 5    1  0.1254496E-009  0.9118800E+02  0.7815553E-02  0.1125453E+00
         25   -1    0    0    0    0  0.00000000000E+00  0.00000000000E+00  0.99999998245E-14  0.12509000000E+03  0.12509000000E+03 0.  0.
        -13    1    3    3    0    0 -0.53766346706E+02 -0.18809449395E+02 -0.15014865271E+02  0.58907323550E+02  0.10566000000E+00 0.  1.
         23    2    1    0    0    0 -0.18142292162E+02 -0.12913428714E+02 -0.19749480893E+02  0.95325232210E+02  0.90559143627E+02 0.  0.
         13    1    3    3    0    0  0.35624054545E+02  0.58960206804E+01 -0.47346156215E+01  0.36417908660E+02  0.10566000000E+00 0. -1.
         22    1    1    0    0    0  0.18142292162E+02  0.12913428714E+02  0.19749480893E+02  0.29764767790E+02  0.00000000000E+00 0.  1.
</event>
<event>
 5    1  0.1254496E-009  0.9118800E+02  0.7815553E-02  0.1125453E+00
         25   -1    0    0    0    0  0.00000000000E+00  0.00000000000E+00  0.99999998245E-14  0.12509000000E+03  0.12509000000E+03 0.  0.
        -13    1    3    3    0    0 -0.20371471965E+02 -0.13474911571E+02 -0.45173791341E+02  0.51354188729E+02  0.10566000000E+00 0.  1.
         23    2    1    0    0    0 -0.28704217770E+02 -0.54470411601E+01 -0.22761941010E+01  0.95784993009E+02  0.91192003218E+02 0.  0.
         13    1    3    3    0    0 -0.83327458048E+01  0.80278704107E+01  0.42897597240E+02  0.44430804280E+02  0.10566000000E+00 0. -1.
         22    1    1    0    0    0  0.28704217770E+02  0.54470411601E+01  0.22761941010E+01  0.29305006991E+02  0.00000000000E+00 0. -1.
</event>
<event>
 5    1  0.1254496E-009  0.9118800E+02  0.7815553E-02  0.1125453E+00
         25   -1    0    0    0    0  0.00000000000E+00  0.00000000000E+00  0.99999998245E-14  0.12509000000E+03  0.12509000000E+03 0.  0.
        -13    1    3    3    0    0  0.31651833036E+02  0.29074769177E+02  0.71983119880E+01  0.43577604302E+02  0.10566000000E+00 0. -1.
         23    2    1    0    0    0  0.15776555575E+02 -0.14965838030E+02  0.23427549990E+02  0.93125549242E+02  0.87467947325E+02 0.  0.
         13    1    3    3    0    0 -0.15875277460E+02 -0.44040607207E+02  0.16229238002E+02  0.49547944940E+02  0.10566000000E+00 0.  1.
         22    1    1    0    0    0 -0.15776555575E+02  0.14965838030E+02 -0.23427549990E+02  0.31964450758E+02  0.00000000000E+00 0.  1.
</event>
<event>
 5    1  0.1254496E-009  0.9118800E+02  0.7815553E-02  0.1125453E+00
         25   -1    0    0    0    0  0.00000000000E+00  0.00000000000E+00  0.99999998245E-14  0.12509000000E+03  0.12509000000E+03 0.  0.
        -13    1    3    3    0    0 -0.58806178408E+02 -0.12273774003E+02 -0.13480677466E+02  0.61567458744E+02  0.10566000000E+00 0.  1.
         23    2    1    0    0    0 -0.25512976758E+02 -0.13281548963E+02 -0.66061239516E+01  0.95578097324E+02  0.90907757031E+02 0.  0.
         13    1    3    3    0    0  0.33293201651E+02 -0.10077749608E+01  0.68745535149E+01  0.34010638579E+02  0.10566000000E+00 0. -1.
         22    1    1    0    0    0  0.25512976758E+02  0.13281548963E+02  0.66061239516E+01  0.29511902676E+02  0.00000000000E+00 0.  1.
</event>
<event>
 5    1  0.1254496E-009  0.9118800E+02  0.7815553E-02  0.1125453E+00
         25   -1    0    0    0    0  0.00000000000E+00  0.00000000000E+00  0.99999998245E-14  0.12509000000E+03  0.12509000000E+03 0.  0.
        -13    1    3    3    0    0 -0.10277627823E+02  0.75690532371E+01 -0.55739350638E+02  0.57182222536E+02  0.10566000000E+00 0. -1.
         23    2    1    0    0    0 -0.22131810676E+02  0.26306725124E+01 -0.20052782119E+02  0.95109146904E+02  0.90260169911E+02 0.  0.
         13    1    3    3    0    0 -0.11854182853E+02 -0.49383807247E+01  0.35686568519E+02  0.37926924368E+02  0.10566000000E+00 0.  1.
         22    1    1    0    0    0  0.22131810676E+02 -0.26306725124E+01  0.20052782119E+02  0.29980853096E+02  0.00000000000E+00 0. -1.
</event>
<event>
 5    1  0.1254496E-009  0.9118800E+02  0.7815553E-02  0.1125453E+00
         25   -1    0    0    0    0  0.00000000000E+00  0.00000000000E+00  0.99999998245E-14  0.12509000000E+03  0.12509000000E+03 0.  0.
        -13    1    3    3    0    0 -0.17766397221E+02  0.12203927390E+02 -0.53249153269E+02  0.57446185268E+02  0.10566000000E+00 0. -1.
         23    2    1    0    0    0 -0.99735406348E+01  0.21376921863E+02 -0.16013480852E+02  0.96579021937E+02  0.92274761490E+02 0.  0.
         13    1    3    3    0    0  0.77928565857E+01  0.91729944728E+01  0.37235672417E+02  0.39132836669E+02  0.10566000000E+00 0.  1.
         22    1    1    0    0    0  0.99735406348E+01 -0.21376921863E+02  0.16013480852E+02  0.28510978063E+02  0.00000000000E+00 0. -1.
</event>
<event>
 5    1  0.1254496E-009  0.9118800E+02  0.7815553E-02  0.1125453E+00
         25   -1    0    0    0    0  0.00000000000E+00  0.00000000000E+00  0.99999998245E-14  0.12509000000E+03  0.12509000000E+03 0.  0.
        -13    1    3    3    0    0 -0.24469393103E+02 -0.38556611893E+02 -0.12778043014E+02  0.47419964854E+02  0.10566000000E+00 0. -1.
         23    2    1    0    0    0  0.16251139994E+01 -0.16672257874E+02  0.22883012269E+02  0.96730919820E+02  0.92480448856E+02 0.  0.
         13    1    3    3    0    0  0.26094507102E+02  0.21884354019E+02  0.35661055283E+02  0.49310954966E+02  0.10566000000E+00 0.  1.
         22    1    1    0    0    0 -0.16251139994E+01  0.16672257874E+02 -0.22883012269E+02  0.28359080180E+02  0.00000000000E+00 0.  1.
</event>
<event>
 5    1  0.1254496E-009  0.9118800E+02  0.7815553E-02  0.1125453E+00
         25   -1    0    0    0    0  0.00000000000E+00  0.00000000000E+00  0.99999998245E-14  0.12509000000E+03  0.12509000000E+03 0.  0.
        -13    1    3    3    0    0  0.59822704036E+02 -0.15526236320E+02  0.84738966950E+01  0.62382994652E+02  0.10566000000E+00 0.  1.
         23    2    1    0    0    0  0.28311703459E+02 -0.98228076169E+01  0.62094055560E+01  0.94486130643E+02  0.89392572758E+02 0.  0.
         13    1    3    3    0    0 -0.31511000577E+02  0.57034287031E+01 -0.22644911389E+01  0.32103135992E+02  0.10566000000E+00 0. -1.
         22    1    1    0    0    0 -0.28311703459E+02  0.98228076169E+01 -0.62094055560E+01  0.30603869357E+02  0.00000000000E+00 0.  1.
</event>
<event>
 5    1  0.1254496E-009  0.9118800E+02  0.7815553E-02  0.1125453E+00
         25   -1    0    0    0    0  0.00000000000E+00  0.00000000000E+00  0.99999998245E-14  0.12509000000E+03  0.12509000000E+03 0.  0.
        -13    1    3    3    0    0  0.21539065111E+02 -0.30834247835E+02  0.50345308767E+01  0.37947856733E+02  0.10566000000E+00 0.  1.
         23    2    1    0    0    0 -0.63468434760E+01  0.70007775391E+01 -0.28092869217E+02  0.95450455316E+02  0.90731950331E+02 0.  0.
         13    1    3    3    0    0 -0.27885908587E+02  0.37835025374E+02 -0.33127400094E+02  0.57502598583E+02  0.10566000000E+00 0. -1.
         22    1    1    0    0    0  0.63468434760E+01 -0.70007775391E+01  0.28092869217E+02  0.29639544684E+02  0.00000000000E+00 0. -1.
</event>
<event>
 5    1  0.1254496E-009  0.9118800E+02  0.7815553E-02  0.1125453E+00
         25   -1    0    0    0    0  0.00000000000E+00  0.00000000000E+00  0.99999998245E-14  0.12509000000E+03  0.12509000000E+03 0.  0.
        -13    1    3    3    0    0  0.94416531502E+00  0.42141229966E+01  0.27377119943E+02  0.27715846392E+02  0.10566000000E+00 0.  1.
         23    2    1    0    0    0 -0.88794339219E+01  0.53566530252E+01 -0.33824537647E+02  0.89711511826E+02  0.82440996650E+02 0.  0.
         13    1    3    3    0    0 -0.98235992369E+01  0.11425300286E+01 -0.61201657591E+02  0.61995665435E+02  0.10566000000E+00 0. -1.
         22    1    1    0    0    0  0.88794339219E+01 -0.53566530252E+01  0.33824537647E+02  0.35378488174E+02  0.00000000000E+00 0. -1.
</event>
<event>
 5    1  0.1254496E-009  0.9118800E+02  0.7815553E-02  0.1125453E+00
         25   -1    0    0    0    0  0.00000000000E+00  0.00000000000E+00  0.99999998245E-14  0.12509000000E+03  0.12509000000E+03 0.  0.
        -13    1    3    3    0    0 -0.34036357323E+02 -0.38307401060E+01 -0.12230452007E+02  0.36369538214E+02  0.10566000000E+00 0. -1.
         23    2    1    0    0    0  0.23374289293E+02  0.59379424125E+01 -0.18151497114E+02  0.94905676130E+02  0.89977741437E+02 0.  0.
         13    1    3    3    0    0  0.57410646615E+02  0.97686825185E+01 -0.59210451068E+01  0.58536137916E+02  0.10566000000E+00 0.  1.
         22    1    1    0    0    0 -0.23374289293E+02 -0.59379424125E+01  0.18151497114E+02  0.30184323870E+02  0.00000000000E+00 0.  1.
</event>
<event>
 5    1  0.1254496E-009  0.9118800E+02  0.7815553E-02  0.1125453E+00
         25   -1    0    0    0    0  0.00000000000E+00  0.00000000000E+00  0.99999998245E-14  0.12509000000E+03  0.12509000000E+03 0.  0.
        -13    1    3    3    0    0 -0.11674638865E+02 -0.13332542609E+02  0.41910975759E+02  0.45503790371E+02  0.10566000000E+00 0. -1.
         23    2    1    0    0    0  0.26124975865E+02  0.32795975934E+01  0.15029838167E+02  0.94772246791E+02  0.89792052000E+02 0.  0.
         13    1    3    3    0    0  0.37799614729E+02  0.16612140202E+02 -0.26881137592E+02  0.49268456420E+02  0.10566000000E+00 0.  1.
         22    1    1    0    0    0 -0.26124975865E+02 -0.32795975934E+01 -0.15029838167E+02  0.30317753209E+02  0.00000000000E+00 0. -1.
</event>
<event>
 5    1  0.1254496E-009  0.9118800E+02  0.7815553E-02  0.1125453E+00
         25   -1    0    0    0    0  0.00000000000E+00  0.00000000000E+00  0.99999998245E-14  0.12509000000E+03  0.12509000000E+03 0.  0.
        -13    1    3    3    0    0  0.20078503044E+01  0.32401957163E+02 -0.50142158782E+02  0.59734123767E+02  0.10566000000E+00 0.  1.
         23    2    1    0    0    0  0.44283139567E+01  0.24899208545E+02 -0.15137126344E+02  0.95616059907E+02  0.90959978933E+02 0.  0.
         13    1    3    3    0    0  0.24204636523E+01 -0.75027486186E+01  0.35005032438E+02  0.35881936140E+02  0.10566000000E+00 0. -1.
         22    1    1    0    0    0 -0.44283139567E+01 -0.24899208545E+02  0.15137126344E+02  0.29473940093E+02  0.00000000000E+00 0.  1.
</event>
<event>
 5    1  0.1254496E-009  0.9118800E+02  0.7815553E-02  0.1125453E+00
         25   -1    0    0    0    0  0.00000000000E+00  0.00000000000E+00  0.99999998245E-14  0.12509000000E+03  0.12509000000E+03 0.  0.
        -13    1    3    3    0    0 -0.27677774046E+02 -0.17534150923E+02  0.14473696359E+02  0.35819054636E+02  0.10566000000E+00 0. -1.
         23    2    1    0    0    0  0.71522711786E+01 -0.71710161320E+01 -0.30101787883E+02  0.93330023785E+02  0.87759884062E+02 0.  0.
         13    1    3    3    0    0  0.34830045224E+02  0.10363134791E+02 -0.44575484242E+02  0.57510969149E+02  0.10566000000E+00 0.  1.
         22    1    1    0    0    0 -0.71522711786E+01  0.71710161320E+01  0.30101787883E+02  0.31759976215E+02  0.00000000000E+00 0.  1.
</event>
<event>
 5    1  0.1254496E-009  0.9118800E+02  0.7815553E-02  0.1125453E+00
         25   -1    0    0    0    0  0.00000000000E+00  0.00000000000E+00  0.99999998245E-14  0.12509000000E+03  0.12509000000E+03 0.  0.
        -13    1    3    3    0    0  0.35145700641E+02 -0.51931219034E+01  0.50899140524E+02  0.62071913606E+02  0.10566000000E+00 0.  1.
         23    2    1    0    0    0  0.20789497683E+02 -0.11658029007E+01  0.20817163281E+02  0.95646552557E+02  0.91001903379E+02 0.  0.
         13    1    3    3    0    0 -0.14356202959E+02  0.40273190026E+01 -0.30081977243E+02  0.33574638950E+02  0.10566000000E+00 0. -1.
         22    1    1    0    0    0 -0.20789497683E+02  0.11658029007E+01 -0.20817163281E+02  0.29443447443E+02  0.00000000000E+00 0.  1.
</event>
<event>
 5    1  0.1254496E-009  0.9118800E+02  0.7815553E-02  0.1125453E+00
         25   -1    0    0    0    0  0.00000000000E+00  0.00000000000E+00  0.99999998245E-14  0.12509000000E+03  0.12509000000E+03 0.  0.
        -13    1    3    3    0    0 -0.43310396997E+02  0.92436934546E+01 -0.38358304910E+01  0.44451784174E+02  0.10566000000E+00 0.  1.
         23    2    1    0    0    0  0.61704836303E+01  0.82668699519E+01 -0.24823252910E+02  0.98208595795E+02  0.94458024518E+02 0.  0.
         13    1    3    3    0    0  0.49480880627E+02 -0.97682350271E+00 -0.20987422419E+02  0.53756811620E+02  0.10566000000E+00 0. -1.
         22    1    1    0    0    0 -0.61704836303E+01 -0.82668699519E+01  0.24823252910E+02  0.26881404205E+02  0.00000000000E+00 0. -1.
</event>
<event>
 5    1  0.1254496E-009  0.9118800E+02  0.7815553E-02  0.1125453E+00
         25   -1    0    0    0    0  0.00000000000E+00  0.00000000000E+00  0.99999998245E-14  0.12509000000E+03  0.12509000000E+03 0.  0.
        -13    1    3    3    0    0  0.51969856743E+02 -0.11160260166E+02  0.14022614486E+02  0.54973287130E+02  0.10566000000E+00 0.  1.
         23    2    1    0    0    0  0.26756962287E+02  0.58465862838E+01 -0.12178671925E+02  0.95116050446E+02  0.90269736903E+02 0.  0.
         13    1    3    3    0    0 -0.25212894456E+02  0.17006846450E+02 -0.26201286411E+02  0.40142763316E+02  0.10566000000E+00 0. -1.
         22    1    1    0    0    0 -0.26756962287E+02 -0.58465862838E+01  0.12178671925E+02  0.29973949554E+02  0.00000000000E+00 0.  1.
</event>
<event>
 5    1  0.1254496E-009  0.9118800E+02  0.7815553E-02  0.1125453E+00
         25   -1    0    0    0    0  0.00000000000E+00  0.00000000000E+00  0.99999998245E-14  0.12509000000E+03  0.12509000000E+03 0.  0.
        -13    1    3    3    0    0 -0.13042120819E+02 -0.42399105114E+02  0.13295446859E+02  0.46309406184E+02  0.10566000000E+00 0. -1.
         23    2    1    0    0    0 -0.28269348580E+02  0.41725342160E+01  0.65934505658E+01  0.95763566510E+02  0.91162607298E+02 0.  0.
         13    1    3    3    0    0 -0.15227227761E+02  0.46571639330E+02 -0.67019962933E+01  0.49454160326E+02  0.10566000000E+00 0.  1.
         22    1    1    0    0    0  0.28269348580E+02 -0.41725342160E+01 -0.65934505658E+01  0.29326433490E+02  0.00000000000E+00 0.  1.
</event>
<event>
 5    1  0.1254496E-009  0.9118800E+02  0.7815553E-02  0.1125453E+00
         25   -1    0    0    0    0  0.00000000000E+00  0.00000000000E+00  0.99999998245E-14  0.12509000000E+03  0.12509000000E+03 0.  0.
        -13    1    3    3    0    0  0.16735177201E+01 -0.14668922632E+02 -0.33430846995E+02  0.36546007273E+02  0.10566000000E+00 0.  1.
         23    2    1    0    0    0  0.31831969149E+01 -0.75653296708E+01  0.26722074598E+02  0.97135819159E+02  0.93026507713E+02 0.  0.
         13    1    3    3    0    0  0.15096791948E+01  0.71035929609E+01  0.60152921593E+02  0.60589811887E+02  0.10566000000E+00 0. -1.
         22    1    1    0    0    0 -0.31831969149E+01  0.75653296708E+01 -0.26722074598E+02  0.27954180841E+02  0.00000000000E+00 0. -1.
</event>
<event>
 5    1  0.1254496E-009  0.9118800E+02  0.7815553E-02  0.1125453E+00
         25   -1    0    0    0    0  0.00000000000E+00  0.00000000000E+00  0.99999998245E-14  0.12509000000E+03  0.12509000000E+03 0.  0.
        -13    1    3    3    0    0 -0.33781172668E+02  0.33563686045E+02 -0.75800331882E+01  0.48219878836E+02  0.10566000000E+00 0.  1.
         23    2    1    0    0    0 -0.22531157528E+02 -0.12856696180E+02 -0.12606337704E+02  0.96247887620E+02  0.91824770214E+02 0.  0.
         13    1    3    3    0    0  0.11250015141E+02 -0.46420382226E+02 -0.50263045162E+01  0.48028008784E+02  0.10566000000E+00 0. -1.
         22    1    1    0    0    0  0.22531157528E+02  0.12856696180E+02  0.12606337704E+02  0.28842112380E+02  0.00000000000E+00 0.  1.
</event>
<event>
 5    1  0.1254496E-009  0.9118800E+02  0.7815553E-02  0.1125453E+00
         25   -1    0    0    0    0  0.00000000000E+00  0.00000000000E+00  0.99999998245E-14  0.12509000000E+03  0.12509000000E+03 0.  0.
        -13    1    3    3    0    0  0.44856719255E+02  0.10508887436E+02  0.25296219207E+02  0.52559222290E+02  0.10566000000E+00 0. -1.
         23    2    1    0    0    0  0.86170396873E+01  0.26593792637E+02  0.67494607217E+01  0.96331724672E+02  0.91938907860E+02 0.  0.
         13    1    3    3    0    0 -0.36239679568E+02  0.16084905201E+02 -0.18546758485E+02  0.43772502383E+02  0.10566000000E+00 0.  1.
         22    1    1    0    0    0 -0.86170396873E+01 -0.26593792637E+02 -0.67494607217E+01  0.28758275328E+02  0.00000000000E+00 0. -1.
</event>
<event>
 5    1  0.1254496E-009  0.9118800E+02  0.7815553E-02  0.1125453E+00
         25   -1    0    0    0    0  0.00000000000E+00  0.00000000000E+00  0.99999998245E-14  0.12509000000E+03  0.12509000000E+03 0.  0.
        -13    1    3    3    0    0  0.60693776525E+01  0.34439711146E+02 -0.16157894585E+02  0.38522977175E+02  0.10566000000E+00 0. -1.
         23    2    1    0    0    0  0.41514187837E+02  0.24617902046E+02 -0.90202525460E+01  0.75989757140E+02  0.57996632154E+02 0.  0.
         13    1    3    3    0    0  0.35444810185E+02 -0.98218091002E+01  0.71376420394E+01  0.37466779965E+02  0.10566000000E+00 0.  1.
         22    1    1    0    0    0 -0.41514187837E+02 -0.24617902046E+02  0.90202525460E+01  0.49100242860E+02  0.00000000000E+00 0. -1.
</event>
<event>
 5    1  0.1254496E-009  0.9118800E+02  0.7815553E-02  0.1125453E+00
         25   -1    0    0    0    0  0.00000000000E+00  0.00000000000E+00  0.99999998245E-14  0.12509000000E+03  0.12509000000E+03 0.  0.
        -13    1    3    3    0    0  0.27098907693E+02  0.20981590059E+02 -0.37334473001E+01  0.34475030273E+02  0.10566000000E+00 0.  1.
         23    2    1    0    0    0 -0.19271379356E+02 -0.14096768583E+02  0.16531014759E+02  0.96049004911E+02  0.91553437667E+02 0.  0.
         13    1    3    3    0    0 -0.46370287049E+02 -0.35078358643E+02  0.20264462059E+02  0.61573974638E+02  0.10566000000E+00 0. -1.
         22    1    1    0    0    0  0.19271379356E+02  0.14096768583E+02 -0.16531014759E+02  0.29040995089E+02  0.00000000000E+00 0. -1.
</event>
<event>
 5    1  0.1254496E-009  0.9118800E+02  0.7815553E-02  0.1125453E+00
         25   -1    0    0    0    0  0.00000000000E+00  0.00000000000E+00  0.99999998245E-14  0.12509000000E+03  0.12509000000E+03 0.  0.
        -13    1    3    3    0    0  0.24222125634E+02 -0.16295352336E+02  0.17767080742E+02  0.34174993783E+02  0.10566000000E+00 0.  1.
         23    2    1    0    0    0 -0.14646056227E+01  0.10037839570E+02 -0.29398759249E+02  0.93990316107E+02  0.88696049425E+02 0.  0.
         13    1    3    3    0    0 -0.25686731256E+02  0.26333191906E+02 -0.47165839991E+02  0.59815322324E+02  0.10566000000E+00 0. -1.
         22    1    1    0    0    0  0.14646056227E+01 -0.10037839570E+02  0.29398759249E+02  0.31099683893E+02  0.00000000000E+00 0. -1.
</event>
<event>
 5    1  0.1254496E-009  0.9118800E+02  0.7815553E-02  0.1125453E+00
         25   -1    0    0    0    0  0.00000000000E+00  0.00000000000E+00  0.99999998245E-14  0.12509000000E+03  0.12509000000E+03 0.  0.
        -13    1    3    3    0    0 -0.30520820057E+01 -0.35545126112E+02  0.82589305723E+01  0.36619561619E+02  0.10566000000E+00 0. -1.
         23    2    1    0    0    0 -0.18609333858E+02  0.15056542626E+02 -0.17446101463E+02  0.95469513193E+02  0.90758221173E+02 0.  0.
         13    1    3    3    0    0 -0.15557251852E+02  0.50601668738E+02 -0.25705032035E+02  0.58849951574E+02  0.10566000000E+00 0.  1.
         22    1    1    0    0    0  0.18609333858E+02 -0.15056542626E+02  0.17446101463E+02  0.29620486807E+02  0.00000000000E+00 0.  1.
</event>
<event>
 5    1  0.1254496E-009  0.9118800E+02  0.7815553E-02  0.1125453E+00
         25   -1    0    0    0    0  0.00000000000E+00  0.00000000000E+00  0.99999998245E-14  0.12509000000E+03  0.12509000000E+03 0.  0.
        -13    1    3    3    0    0  0.22333859887E+02 -0.27043464424E+02  0.23752218078E+02  0.42359524232E+02  0.10566000000E+00 0. -1.
         23    2    1    0    0    0 -0.12417393537E+02 -0.21143547364E+02 -0.16248424676E+02  0.95674824293E+02  0.91040757036E+02 0.  0.
         13    1    3    3    0    0 -0.34751253423E+02  0.58999170592E+01 -0.40000642755E+02  0.53315300061E+02  0.10566000000E+00 0.  1.
         22    1    1    0    0    0  0.12417393537E+02  0.21143547364E+02  0.16248424676E+02  0.29415175707E+02  0.00000000000E+00 0.  1.
</event>
<event>
 5    1  0.1254496E-009  0.9118800E+02  0.7815553E-02  0.1125453E+00
         25   -1    0    0    0    0  0.00000000000E+00  0.00000000000E+00  0.99999998245E-14  0.12509000000E+03  0.12509000000E+03 0.  0.
        -13    1    3    3    0    0 -0.75741654118E+01  0.51170376368E+01  0.45091226114E+02  0.46008498045E+02  0.10566000000E+00 0.  1.
         23    2    1    0    0    0  0.23414224642E+02  0.17451674062E+02  0.10508547636E+02  0.94054271934E+02  0.88786201926E+02 0.  0.
         13    1    3    3    0    0  0.30988390054E+02  0.12334636425E+02 -0.34582678478E+02  0.48045773889E+02  0.10566000000E+00 0. -1.
         22    1    1    0    0    0 -0.23414224642E+02 -0.17451674062E+02 -0.10508547636E+02  0.31035728066E+02  0.00000000000E+00 0.  1.
</event>
<event>
 5    1  0.1254496E-009  0.9118800E+02  0.7815553E-02  0.1125453E+00
         25   -1    0    0    0    0  0.00000000000E+00  0.00000000000E+00  0.99999998245E-14  0.12509000000E+03  0.12509000000E+03 0.  0.
        -13    1    3    3    0    0 -0.14179951995E+02  0.56383277925E+02 -0.10266572147E+02  0.59038620715E+02  0.10566000000E+00 0.  1.
         23    2    1    0    0    0 -0.17188446972E+02  0.17580322325E+02 -0.11431535304E+02  0.97975604529E+02  0.94148970473E+02 0.  0.
         13    1    3    3    0    0 -0.30084949767E+01 -0.38802955601E+02 -0.11649631571E+01  0.38936983814E+02  0.10566000000E+00 0. -1.
         22    1    1    0    0    0  0.17188446972E+02 -0.17580322325E+02  0.11431535304E+02  0.27114395471E+02  0.00000000000E+00 0.  1.
</event>
<event>
 5    1  0.1254496E-009  0.9118800E+02  0.7815553E-02  0.1125453E+00
         25   -1    0    0    0    0  0.00000000000E+00  0.00000000000E+00  0.99999998245E-14  0.12509000000E+03  0.12509000000E+03 0.  0.
        -13    1    3    3    0    0 -0.41331158486E+02  0.31869174573E+02  0.31390018947E+02  0.60903640312E+02  0.10566000000E+00 0.  1.
         23    2    1    0    0    0 -0.13168401105E+02  0.10845999549E+02  0.21942759635E+02  0.97295626572E+02  0.93241148404E+02 0.  0.
         13    1    3    3    0    0  0.28162757381E+02 -0.21023175024E+02 -0.94472593119E+01  0.36391986260E+02  0.10566000000E+00 0. -1.
         22    1    1    0    0    0  0.13168401105E+02 -0.10845999549E+02 -0.21942759635E+02  0.27794373428E+02  0.00000000000E+00 0.  1.
</event>
<event>
 5    1  0.1254496E-009  0.9118800E+02  0.7815553E-02  0.1125453E+00
         25   -1    0    0    0    0  0.00000000000E+00  0.00000000000E+00  0.99999998245E-14  0.12509000000E+03  0.12509000000E+03 0.  0.
        -13    1    3    3    0    0 -0.66167209029E+01 -0.36386889096E+02 -0.73236121742E+01  0.37701898532E+02  0.10566000000E+00 0.  1.
         23    2    1    0    0    0  0.24281156577E+02  0.11433380263E+02 -0.13638784988E+02  0.94984963795E+02  0.90087902308E+02 0.  0.
         13    1    3    3    0    0  0.30897877480E+02  0.47820269359E+02 -0.63151728133E+01  0.57283065264E+02  0.10566000000E+00 0. -1.
         22    1    1    0    0    0 -0.24281156577E+02 -0.11433380263E+02  0.13638784988E+02  0.30105036205E+02  0.00000000000E+00 0. -1.
</event>
<event>
 5    1  0.1254496E-009  0.9118800E+02  0.7815553E-02  0.1125453E+00
         25   -1    0    0    0    0  0.00000000000E+00  0.00000000000E+00  0.99999998245E-14  0.12509000000E+03  0.12509000000E+03 0.  0.
        -13    1    3    3    0    0  0.29517998277E+02  0.25592764356E+01  0.25453014177E+02  0.39060583878E+02  0.10566000000E+00 0. -1.
         23    2    1    0    0    0 -0.23003301686E+02 -0.13942608589E+02  0.11375011561E+02  0.95884878690E+02  0.91328915742E+02 0.  0.
         13    1    3    3    0    0 -0.52521299963E+02 -0.16501885025E+02 -0.14078002615E+02  0.56824294812E+02  0.10566000000E+00 0.  1.
         22    1    1    0    0    0  0.23003301686E+02  0.13942608589E+02 -0.11375011561E+02  0.29205121310E+02  0.00000000000E+00 0.  1.
</event>
<event>
 5    1  0.1254496E-009  0.9118800E+02  0.7815553E-02  0.1125453E+00
         25   -1    0    0    0    0  0.00000000000E+00  0.00000000000E+00  0.99999998245E-14  0.12509000000E+03  0.12509000000E+03 0.  0.
        -13    1    3    3    0    0  0.84597773441E+01 -0.30779476898E+02  0.18393195909E+02  0.36841075590E+02  0.10566000000E+00 0.  1.
         23    2    1    0    0    0  0.78752443684E+01  0.50500049562E+01 -0.28061070986E+02  0.95510518450E+02  0.90814720204E+02 0.  0.
         13    1    3    3    0    0 -0.58453297565E+00  0.35829481854E+02 -0.46454266895E+02  0.58669442860E+02  0.10566000000E+00 0. -1.
         22    1    1    0    0    0 -0.78752443684E+01 -0.50500049562E+01  0.28061070986E+02  0.29579481550E+02  0.00000000000E+00 0. -1.
</event>
<event>
 5    1  0.1254496E-009  0.9118800E+02  0.7815553E-02  0.1125453E+00
         25   -1    0    0    0    0  0.00000000000E+00  0.00000000000E+00  0.99999998245E-14  0.12509000000E+03  0.12509000000E+03 0.  0.
        -13    1    3    3    0    0  0.15099702505E+01  0.17018734720E+02  0.39827989834E+02  0.43338173471E+02  0.10566000000E+00 0.  1.
         23    2    1    0    0    0 -0.27169092800E+02  0.91648847944E+01 -0.38316184157E+01  0.96161881904E+02  0.91707532487E+02 0.  0.
         13    1    3    3    0    0 -0.28679063051E+02 -0.78538499253E+01 -0.43659608249E+02  0.52823708433E+02  0.10566000000E+00 0. -1.
         22    1    1    0    0    0  0.27169092800E+02 -0.91648847944E+01  0.38316184157E+01  0.28928118096E+02  0.00000000000E+00 0. -1.
</event>
<event>
 5    1  0.1254496E-009  0.9118800E+02  0.7815553E-02  0.1125453E+00
         25   -1    0    0    0    0  0.00000000000E+00  0.00000000000E+00  0.99999998245E-14  0.12509000000E+03  0.12509000000E+03 0.  0.
        -13    1    3    3    0    0  0.16907535773E+00  0.27761745135E+02  0.17208343481E+02  0.32663149402E+02  0.10566000000E+00 0. -1.
         23    2    1    0    0    0  0.17011000748E+02 -0.23723378704E+02 -0.11191433289E+02  0.93826266656E+02  0.88464384313E+02 0.  0.
         13    1    3    3    0    0  0.16841925390E+02 -0.51485123839E+02 -0.28399776771E+02  0.61163117254E+02  0.10566000000E+00 0.  1.
         22    1    1    0    0    0 -0.17011000748E+02  0.23723378704E+02  0.11191433289E+02  0.31263733344E+02  0.00000000000E+00 0. -1.
</event>
<event>
 5    1  0.1254496E-009  0.9118800E+02  0.7815553E-02  0.1125453E+00
         25   -1    0    0    0    0  0.00000000000E+00  0.00000000000E+00  0.99999998245E-14  0.12509000000E+03  0.12509000000E+03 0.  0.
        -13    1    3    3    0    0  0.18886297210E+02  0.21106950988E+02 -0.53117498524E+02  0.60196971816E+02  0.10566000000E+00 0.  1.
         23    2    1    0    0    0 -0.31603518913E+01  0.10804198901E+02 -0.26695217631E+02  0.96118407322E+02  0.91648213533E+02 0.  0.
         13    1    3    3    0    0 -0.22046649101E+02 -0.10302752087E+02  0.26422280893E+02  0.35921435506E+02  0.10566000000E+00 0. -1.
         22    1    1    0    0    0  0.31603518913E+01 -0.10804198901E+02  0.26695217631E+02  0.28971592678E+02  0.00000000000E+00 0.  1.
</event>
<event>
 5    1  0.1254496E-009  0.9118800E+02  0.7815553E-02  0.1125453E+00
         25   -1    0    0    0    0  0.00000000000E+00  0.00000000000E+00  0.99999998245E-14  0.12509000000E+03  0.12509000000E+03 0.  0.
        -13    1    3    3    0    0  0.27663877892E+02 -0.40083927183E+02 -0.17095908778E+02  0.51616786217E+02  0.10566000000E+00 0.  1.
         23    2    1    0    0    0  0.24412476790E+02  0.33711386812E+01 -0.16924836666E+02  0.95193784601E+02  0.90377391705E+02 0.  0.
         13    1    3    3    0    0 -0.32514011021E+01  0.43455065864E+02  0.17107211190E+00  0.43576998383E+02  0.10566000000E+00 0. -1.
         22    1    1    0    0    0 -0.24412476790E+02 -0.33711386812E+01  0.16924836666E+02  0.29896215399E+02  0.00000000000E+00 0. -1.
</event>
<event>
 5    1  0.1254496E-009  0.9118800E+02  0.7815553E-02  0.1125453E+00
         25   -1    0    0    0    0  0.00000000000E+00  0.00000000000E+00  0.99999998245E-14  0.12509000000E+03  0.12509000000E+03 0.  0.
        -13    1    3    3    0    0 -0.12583251989E+02 -0.37158100200E+02 -0.34425154388E+01  0.39381781545E+02  0.10566000000E+00 0. -1.
         23    2    1    0    0    0  0.23672620614E+02  0.11021300904E+01  0.17008184123E+02  0.95920049972E+02  0.91377075911E+02 0.  0.
         13    1    3    3    0    0  0.36255872603E+02  0.38260230291E+02  0.20450699562E+02  0.56538268427E+02  0.10566000000E+00 0.  1.
         22    1    1    0    0    0 -0.23672620614E+02 -0.11021300904E+01 -0.17008184123E+02  0.29169950028E+02  0.00000000000E+00 0.  1.
</event>
<event>
 5    1  0.1254496E-009  0.9118800E+02  0.7815553E-02  0.1125453E+00
         25   -1    0    0    0    0  0.00000000000E+00  0.00000000000E+00  0.99999998245E-14  0.12509000000E+03  0.12509000000E+03 0.  0.
        -13    1    3    3    0    0  0.21640500838E+02  0.33427211680E+02  0.41892152087E+02  0.57798385166E+02  0.10566000000E+00 0.  1.
         23    2    1    0    0    0  0.22071355442E+02  0.30994261337E+01  0.19082298424E+02  0.95749153274E+02  0.91142827837E+02 0.  0.
         13    1    3    3    0    0  0.43085460481E+00 -0.30327785547E+02 -0.22809853663E+02  0.37950768108E+02  0.10566000000E+00 0. -1.
         22    1    1    0    0    0 -0.22071355442E+02 -0.30994261337E+01 -0.19082298424E+02  0.29340846726E+02  0.00000000000E+00 0.  1.
</event>
<event>
 5    1  0.1254496E-009  0.9118800E+02  0.7815553E-02  0.1125453E+00
         25   -1    0    0    0    0  0.00000000000E+00  0.00000000000E+00  0.99999998245E-14  0.12509000000E+03  0.12509000000E+03 0.  0.
        -13    1    3    3    0    0 -0.41688593009E+02  0.17735655729E+02  0.36928707854E+02  0.58448549161E+02  0.10566000000E+00 0. -1.
         23    2    1    0    0    0 -0.30911826696E+02  0.70743550545E+01  0.61074684093E+01  0.92796212680E+02  0.86995680285E+02 0.  0.
         13    1    3    3    0    0  0.10776766313E+02 -0.10661300675E+02 -0.30821239445E+02  0.34347663519E+02  0.10566000000E+00 0.  1.
         22    1    1    0    0    0  0.30911826696E+02 -0.70743550545E+01 -0.61074684093E+01  0.32293787320E+02  0.00000000000E+00 0. -1.
</event>
<event>
 5    1  0.1254496E-009  0.9118800E+02  0.7815553E-02  0.1125453E+00
         25   -1    0    0    0    0  0.00000000000E+00  0.00000000000E+00  0.99999998245E-14  0.12509000000E+03  0.12509000000E+03 0.  0.
        -13    1    3    3    0    0  0.24490726792E+02 -0.28520509193E+02 -0.24688851128E+01  0.37673886197E+02  0.10566000000E+00 0. -1.
         23    2    1    0    0    0 -0.28452055258E+02 -0.60629294362E+01 -0.63513936586E+01  0.95313855805E+02  0.90543427952E+02 0.  0.
         13    1    3    3    0    0 -0.52942782050E+02  0.22457579757E+02 -0.38825085458E+01  0.57639969608E+02  0.10566000000E+00 0.  1.
         22    1    1    0    0    0  0.28452055258E+02  0.60629294362E+01  0.63513936586E+01  0.29776144195E+02  0.00000000000E+00 0.  1.
</event>
<event>
 5    1  0.1254496E-009  0.9118800E+02  0.7815553E-02  0.1125453E+00
         25   -1    0    0    0    0  0.00000000000E+00  0.00000000000E+00  0.99999998245E-14  0.12509000000E+03  0.12509000000E+03 0.  0.
        -13    1    3    3    0    0 -0.55581557152E+02 -0.17404347936E+02  0.18239713129E+01  0.58271424025E+02  0.10566000000E+00 0. -1.
         23    2    1    0    0    0 -0.20398506131E+02  0.29377260039E+01 -0.12052197148E+02  0.10121564676E+03  0.98359658432E+02 0.  0.
         13    1    3    3    0    0  0.35183051021E+02  0.20342073940E+02 -0.13876168461E+02  0.42944222737E+02  0.10566000000E+00 0.  1.
         22    1    1    0    0    0  0.20398506131E+02 -0.29377260039E+01  0.12052197148E+02  0.23874353238E+02  0.00000000000E+00 0. -1.
</event>
<event>
 5    1  0.1254496E-009  0.9118800E+02  0.7815553E-02  0.1125453E+00
         25   -1    0    0    0    0  0.00000000000E+00  0.00000000000E+00  0.99999998245E-14  0.12509000000E+03  0.12509000000E+03 0.  0.
        -13    1    3    3    0    0  0.65405542006E+01  0.51384304369E+02  0.11190353778E+02  0.52993969152E+02  0.10566000000E+00 0. -1.
         23    2    1    0    0    0  0.21605933008E+02  0.12198838617E+02 -0.78137604118E+01  0.99076871459E+02  0.95600960254E+02 0.  0.
         13    1    3    3    0    0  0.15065378807E+02 -0.39185465752E+02 -0.19004114190E+02  0.46082902307E+02  0.10566000000E+00 0.  1.
         22    1    1    0    0    0 -0.21605933008E+02 -0.12198838617E+02  0.78137604118E+01  0.26013128541E+02  0.00000000000E+00 0. -1.
</event>
<event>
 5    1  0.1254496E-009  0.9118800E+02  0.7815553E-02  0.1125453E+00
         25   -1    0    0    0    0  0.00000000000E+00  0.00000000000E+00  0.99999998245E-14  0.12509000000E+03  0.12509000000E+03 0.  0.
        -13    1    3    3    0    0  0.27513231345E+02 -0.33034351011E+02  0.13272285009E+02  0.44993454626E+02  0.10566000000E+00 0.  1.
         23    2    1    0    0    0 -0.19808468849E+02 -0.23405000403E+02  0.39858774613E+01  0.94169833423E+02  0.88948866354E+02 0.  0.
         13    1    3    3    0    0 -0.47321700195E+02  0.96293506075E+01 -0.92864075473E+01  0.49176378797E+02  0.10566000000E+00 0. -1.
         22    1    1    0    0    0  0.19808468849E+02  0.23405000403E+02 -0.39858774613E+01  0.30920166577E+02  0.00000000000E+00 0. -1.
</event>
<event>
 5    1  0.1254496E-009  0.9118800E+02  0.7815553E-02  0.1125453E+00
         25   -1    0    0    0    0  0.00000000000E+00  0.00000000000E+00  0.99999998245E-14  0.12509000000E+03  0.12509000000E+03 0.  0.
        -13    1    3    3    0    0  0.44953212069E+02 -0.17284537453E+02 -0.83852447031E+00  0.48169085497E+02  0.10566000000E+00 0. -1.
         23    2    1    0    0    0  0.23803261377E+02 -0.36328372624E+02  0.12914751096E+02  0.79778448432E+02  0.65661740220E+02 0.  0.
         13    1    3    3    0    0 -0.21149950693E+02 -0.19043835171E+02  0.13753275566E+02  0.31609362935E+02  0.10566000000E+00 0.  1.
         22    1    1    0    0    0 -0.23803261377E+02  0.36328372624E+02 -0.12914751096E+02  0.45311551568E+02  0.00000000000E+00 0. -1.
</event>
<event>
 5    1  0.1254496E-009  0.9118800E+02  0.7815553E-02  0.1125453E+00
         25   -1    0    0    0    0  0.00000000000E+00  0.00000000000E+00  0.99999998245E-14  0.12509000000E+03  0.12509000000E+03 0.  0.
        -13    1    3    3    0    0 -0.29077059721E+02 -0.80090343058E+01 -0.49300919539E+02  0.57794566042E+02  0.10566000000E+00 0.  1.
         23    2    1    0    0    0 -0.18562015576E+02  0.12453945757E+02 -0.28982267878E+02  0.88489166150E+02  0.80564951979E+02 0.  0.
         13    1    3    3    0    0  0.10515044146E+02  0.20462980063E+02  0.20318651661E+02  0.30694600108E+02  0.10566000000E+00 0. -1.
         22    1    1    0    0    0  0.18562015576E+02 -0.12453945757E+02  0.28982267878E+02  0.36600833850E+02  0.00000000000E+00 0.  1.
</event>
<event>
 5    1  0.1254496E-009  0.9118800E+02  0.7815553E-02  0.1125453E+00
         25   -1    0    0    0    0  0.00000000000E+00  0.00000000000E+00  0.99999998245E-14  0.12509000000E+03  0.12509000000E+03 0.  0.
        -13    1    3    3    0    0  0.25980830724E+02 -0.25241817250E+02 -0.12156885278E+02  0.38209343450E+02  0.10566000000E+00 0. -1.
         23    2    1    0    0    0 -0.10646754688E+02  0.21169766547E+02 -0.14374402915E+02  0.97374735970E+02  0.93347219268E+02 0.  0.
         13    1    3    3    0    0 -0.36627585412E+02  0.46411583797E+02 -0.22175176373E+01  0.59165392521E+02  0.10566000000E+00 0.  1.
         22    1    1    0    0    0  0.10646754688E+02 -0.21169766547E+02  0.14374402915E+02  0.27715264030E+02  0.00000000000E+00 0.  1.
</event>
<event>
 5    1  0.1254496E-009  0.9118800E+02  0.7815553E-02  0.1125453E+00
         25   -1    0    0    0    0  0.00000000000E+00  0.00000000000E+00  0.99999998245E-14  0.12509000000E+03  0.12509000000E+03 0.  0.
        -13    1    3    3    0    0  0.23288221637E+02  0.42280571437E+02 -0.31432438022E+01  0.48372297172E+02  0.10566000000E+00 0.  1.
         23    2    1    0    0    0  0.32025682058E+02 -0.14497631135E+01 -0.13178620711E+01  0.93004444297E+02  0.87294580440E+02 0.  0.
         13    1    3    3    0    0  0.87374604206E+01 -0.43730334550E+02  0.18253817312E+01  0.44632147125E+02  0.10566000000E+00 0. -1.
         22    1    1    0    0    0 -0.32025682058E+02  0.14497631135E+01  0.13178620711E+01  0.32085555703E+02  0.00000000000E+00 0.  1.
</event>
<event>
 5    1  0.1254496E-009  0.9118800E+02  0.7815553E-02  0.1125453E+00
         25   -1    0    0    0    0  0.00000000000E+00  0.00000000000E+00  0.99999998245E-14  0.12509000000E+03  0.12509000000E+03 0.  0.
        -13    1    3    3    0    0  0.57922116285E+02  0.18734599726E+02 -0.12476745966E+02  0.62142072187E+02  0.10566000000E+00 0.  1.
         23    2    1    0    0    0  0.25326293912E+02  0.12945070287E+02 -0.79553700562E+01  0.95555546885E+02  0.90876722101E+02 0.  0.
         13    1    3    3    0    0 -0.32595822372E+02 -0.57895294393E+01  0.45213759098E+01  0.33413474698E+02  0.10566000000E+00 0. -1.
         22    1    1    0    0    0 -0.25326293912E+02 -0.12945070287E+02  0.79553700562E+01  0.29534453115E+02  0.00000000000E+00 0.  1.
</event>
<event>
 5    1  0.1254496E-009  0.9118800E+02  0.7815553E-02  0.1125453E+00
         25   -1    0    0    0    0  0.00000000000E+00  0.00000000000E+00  0.99999998245E-14  0.12509000000E+03  0.12509000000E+03 0.  0.
        -13    1    3    3    0    0  0.35141066206E+02 -0.38314866874E+01  0.18856543696E+01  0.35399741253E+02  0.10566000000E+00 0.  1.
         23    2    1    0    0    0 -0.21167384976E+02 -0.16638024184E+01 -0.20066977843E+02  0.95875106111E+02  0.91315529604E+02 0.  0.
         13    1    3    3    0    0 -0.56308451182E+02  0.21676842690E+01 -0.21952632213E+02  0.60475364858E+02  0.10566000000E+00 0. -1.
         22    1    1    0    0    0  0.21167384976E+02  0.16638024184E+01  0.20066977843E+02  0.29214893889E+02  0.00000000000E+00 0. -1.
</event>
<event>
 5    1  0.1254496E-009  0.9118800E+02  0.7815553E-02  0.1125453E+00
         25   -1    0    0    0    0  0.00000000000E+00  0.00000000000E+00  0.99999998245E-14  0.12509000000E+03  0.12509000000E+03 0.  0.
        -13    1    3    3    0    0  0.46538999363E+02  0.30295209871E+02  0.22276592772E+02  0.59832565986E+02  0.10566000000E+00 0.  1.
         23    2    1    0    0    0  0.14600321446E+02  0.10110198168E+02  0.20932465388E+02  0.97639069222E+02  0.93700769677E+02 0.  0.
         13    1    3    3    0    0 -0.31938677918E+02 -0.20185011702E+02 -0.13441273837E+01  0.37806503237E+02  0.10566000000E+00 0. -1.
         22    1    1    0    0    0 -0.14600321446E+02 -0.10110198168E+02 -0.20932465388E+02  0.27450930778E+02  0.00000000000E+00 0.  1.
</event>
<event>
 5    1  0.1254496E-009  0.9118800E+02  0.7815553E-02  0.1125453E+00
         25   -1    0    0    0    0  0.00000000000E+00  0.00000000000E+00  0.99999998245E-14  0.12509000000E+03  0.12509000000E+03 0.  0.
        -13    1    3    3    0    0  0.17951941784E+02 -0.30197537326E+02 -0.37888213722E+01  0.35334541257E+02  0.10566000000E+00 0. -1.
         23    2    1    0    0    0 -0.65186722854E+01  0.25653824510E+02 -0.10362293252E+02  0.96664854059E+02  0.92391044417E+02 0.  0.
         13    1    3    3    0    0 -0.24470614070E+02  0.55851361836E+02 -0.65734718796E+01  0.61330312802E+02  0.10566000000E+00 0.  1.
         22    1    1    0    0    0  0.65186722854E+01 -0.25653824510E+02  0.10362293252E+02  0.28425145941E+02  0.00000000000E+00 0.  1.
</event>
<event>
 5    1  0.1254496E-009  0.9118800E+02  0.7815553E-02  0.1125453E+00
         25   -1    0    0    0    0  0.00000000000E+00  0.00000000000E+00  0.99999998245E-14  0.12509000000E+03  0.12509000000E+03 0.  0.
        -13    1    3    3    0    0  0.28851011334E+02 -0.12816038659E+02 -0.17015473070E+02  0.35863201053E+02  0.10566000000E+00 0.  1.
         23    2    1    0    0    0 -0.74396553326E+01  0.16860196348E+02  0.21669857898E+02  0.96643604206E+02  0.92362269354E+02 0.  0.
         13    1    3    3    0    0 -0.36290666667E+02  0.29676235007E+02  0.38685330968E+02  0.60780403153E+02  0.10566000000E+00 0. -1.
         22    1    1    0    0    0  0.74396553326E+01 -0.16860196348E+02 -0.21669857898E+02  0.28446395794E+02  0.00000000000E+00 0. -1.
</event>
<event>
 5    1  0.1254496E-009  0.9118800E+02  0.7815553E-02  0.1125453E+00
         25   -1    0    0    0    0  0.00000000000E+00  0.00000000000E+00  0.99999998245E-14  0.12509000000E+03  0.12509000000E+03 0.  0.
        -13    1    3    3    0    0  0.30641440865E+02 -0.40371757771E+02 -0.21636163192E+02  0.55108179479E+02  0.10566000000E+00 0. -1.
         23    2    1    0    0    0 -0.61396380077E+01 -0.26032771043E+02 -0.53490041624E+01  0.97813413547E+02  0.93933230015E+02 0.  0.
         13    1    3    3    0    0 -0.36781078873E+02  0.14338986729E+02  0.16287159030E+02  0.42705234067E+02  0.10566000000E+00 0.  1.
         22    1    1    0    0    0  0.61396380077E+01  0.26032771043E+02  0.53490041624E+01  0.27276586453E+02  0.00000000000E+00 0. -1.
</event>
<event>
 5    1  0.1254496E-009  0.9118800E+02  0.7815553E-02  0.1125453E+00
         25   -1    0    0    0    0  0.00000000000E+00  0.00000000000E+00  0.99999998245E-14  0.12509000000E+03  0.12509000000E+03 0.  0.
        -13    1    3    3    0    0  0.33036451688E+02 -0.34425688312E+01 -0.31173746290E+02  0.45552958654E+02  0.10566000000E+00 0.  1.
         23    2    1    0    0    0  0.23527816594E+02 -0.37227908409E+01  0.17743899642E+02  0.95387082638E+02  0.90644537808E+02 0.  0.
         13    1    3    3    0    0 -0.95086350946E+01 -0.28022200968E+00  0.48917645932E+02  0.49834123984E+02  0.10566000000E+00 0. -1.
         22    1    1    0    0    0 -0.23527816594E+02  0.37227908409E+01 -0.17743899642E+02  0.29702917362E+02  0.00000000000E+00 0. -1.
</event>
<event>
 5    1  0.1254496E-009  0.9118800E+02  0.7815553E-02  0.1125453E+00
         25   -1    0    0    0    0  0.00000000000E+00  0.00000000000E+00  0.99999998245E-14  0.12509000000E+03  0.12509000000E+03 0.  0.
        -13    1    3    3    0    0 -0.32041331552E+01 -0.25647506063E+02 -0.34584063038E+02  0.43175567359E+02  0.10566000000E+00 0.  1.
         23    2    1    0    0    0  0.22196960591E+02 -0.15376491412E+02  0.10651891130E+02  0.96062352278E+02  0.91571672437E+02 0.  0.
         13    1    3    3    0    0  0.25401093746E+02  0.10271014651E+02  0.45235954169E+02  0.52886784919E+02  0.10566000000E+00 0. -1.
         22    1    1    0    0    0 -0.22196960591E+02  0.15376491412E+02 -0.10651891130E+02  0.29027647722E+02  0.00000000000E+00 0.  1.
</event>
<event>
 5    1  0.1254496E-009  0.9118800E+02  0.7815553E-02  0.1125453E+00
         25   -1    0    0    0    0  0.00000000000E+00  0.00000000000E+00  0.99999998245E-14  0.12509000000E+03  0.12509000000E+03 0.  0.
        -13    1    3    3    0    0  0.26011507364E+02  0.24453362749E+02 -0.50661919481E+02  0.61977469411E+02  0.10566000000E+00 0. -1.
         23    2    1    0    0    0  0.12755981499E+02  0.16872891401E+02 -0.21306740194E+02  0.95066897131E+02  0.90201597681E+02 0.  0.
         13    1    3    3    0    0 -0.13255525865E+02 -0.75804713488E+01  0.29355179287E+02  0.33089427720E+02  0.10566000000E+00 0.  1.
         22    1    1    0    0    0 -0.12755981499E+02 -0.16872891401E+02  0.21306740194E+02  0.30023102869E+02  0.00000000000E+00 0. -1.
</event>
<event>
 5    1  0.1254496E-009  0.9118800E+02  0.7815553E-02  0.1125453E+00
         25   -1    0    0    0    0  0.00000000000E+00  0.00000000000E+00  0.99999998245E-14  0.12509000000E+03  0.12509000000E+03 0.  0.
        -13    1    3    3    0    0 -0.39506770801E+02 -0.31884337699E+01 -0.19631146943E+02  0.44230579279E+02  0.10566000000E+00 0. -1.
         23    2    1    0    0    0 -0.14978424267E+02  0.43554812817E+01  0.24946981658E+02  0.95667639378E+02  0.91030884427E+02 0.  0.
         13    1    3    3    0    0  0.24528346533E+02  0.75439150517E+01  0.44578128602E+02  0.51437060099E+02  0.10566000000E+00 0.  1.
         22    1    1    0    0    0  0.14978424267E+02 -0.43554812817E+01 -0.24946981658E+02  0.29422360622E+02  0.00000000000E+00 0.  1.
</event>
<event>
 5    1  0.1254496E-009  0.9118800E+02  0.7815553E-02  0.1125453E+00
         25   -1    0    0    0    0  0.00000000000E+00  0.00000000000E+00  0.99999998245E-14  0.12509000000E+03  0.12509000000E+03 0.  0.
        -13    1    3    3    0    0  0.79775822899E+01 -0.32328365181E+02  0.77494860307E+01  0.34188166260E+02  0.10566000000E+00 0.  1.
         23    2    1    0    0    0 -0.19919144538E+02  0.19456422478E+02 -0.97997220438E+01  0.95571205192E+02  0.90898272894E+02 0.  0.
         13    1    3    3    0    0 -0.27896726828E+02  0.51784787658E+02 -0.17549208075E+02  0.61383038933E+02  0.10566000000E+00 0. -1.
         22    1    1    0    0    0  0.19919144538E+02 -0.19456422478E+02  0.97997220438E+01  0.29518794808E+02  0.00000000000E+00 0. -1.
</event>
<event>
 5    1  0.1254496E-009  0.9118800E+02  0.7815553E-02  0.1125453E+00
         25   -1    0    0    0    0  0.00000000000E+00  0.00000000000E+00  0.99999998245E-14  0.12509000000E+03  0.12509000000E+03 0.  0.
        -13    1    3    3    0    0  0.39240100976E+02 -0.19566816146E+02  0.10385625902E+02  0.45061271710E+02  0.10566000000E+00 0. -1.
         23    2    1    0    0    0  0.15340583479E+02  0.24235323669E+02 -0.15451336920E+01  0.96365935996E+02  0.91985443236E+02 0.  0.
         13    1    3    3    0    0 -0.23899517498E+02  0.43802139815E+02 -0.11930759594E+02  0.51304664286E+02  0.10566000000E+00 0.  1.
         22    1    1    0    0    0 -0.15340583479E+02 -0.24235323669E+02  0.15451336920E+01  0.28724064004E+02  0.00000000000E+00 0.  1.
</event>
<event>
 5    1  0.1254496E-009  0.9118800E+02  0.7815553E-02  0.1125453E+00
         25   -1    0    0    0    0  0.00000000000E+00  0.00000000000E+00  0.99999998245E-14  0.12509000000E+03  0.12509000000E+03 0.  0.
        -13    1    3    3    0    0  0.53811624561E+02 -0.68681450533E-01 -0.10050354597E+02  0.54742272939E+02  0.10566000000E+00 0. -1.
         23    2    1    0    0    0  0.22303255395E+02 -0.21567857204E+02 -0.51824179758E+00  0.94059752818E+02  0.88793923554E+02 0.  0.
         13    1    3    3    0    0 -0.31508369166E+02 -0.21499175754E+02  0.95321127999E+01  0.39317479879E+02  0.10566000000E+00 0.  1.
         22    1    1    0    0    0 -0.22303255395E+02  0.21567857204E+02  0.51824179758E+00  0.31030247182E+02  0.00000000000E+00 0. -1.
</event>
<event>
 5    1  0.1254496E-009  0.9118800E+02  0.7815553E-02  0.1125453E+00
         25   -1    0    0    0    0  0.00000000000E+00  0.00000000000E+00  0.99999998245E-14  0.12509000000E+03  0.12509000000E+03 0.  0.
        -13    1    3    3    0    0 -0.19087212715E+02 -0.36238825150E+02  0.11732372241E+02  0.42605561373E+02  0.10566000000E+00 0.  1.
         23    2    1    0    0    0 -0.63091327764E+01  0.19342211407E+02 -0.83904650526E+01  0.10308258756E+03  0.10070597627E+03 0.  0.
         13    1    3    3    0    0  0.12778079938E+02  0.55581036557E+02 -0.20122837293E+02  0.60477026187E+02  0.10566000000E+00 0. -1.
         22    1    1    0    0    0  0.63091327764E+01 -0.19342211407E+02  0.83904650526E+01  0.22007412440E+02  0.00000000000E+00 0. -1.
</event>
<event>
 5    1  0.1254496E-009  0.9118800E+02  0.7815553E-02  0.1125453E+00
         25   -1    0    0    0    0  0.00000000000E+00  0.00000000000E+00  0.99999998245E-14  0.12509000000E+03  0.12509000000E+03 0.  0.
        -13    1    3    3    0    0  0.73761926910E+01 -0.47713840305E+02  0.17723412112E+02  0.51431014731E+02  0.10566000000E+00 0. -1.
         23    2    1    0    0    0 -0.65680298318E+01 -0.27969598931E+02 -0.15443730385E+02  0.92471810467E+02  0.86527969134E+02 0.  0.
         13    1    3    3    0    0 -0.13944222523E+02  0.19744241374E+02 -0.33167142497E+02  0.41040795736E+02  0.10566000000E+00 0.  1.
         22    1    1    0    0    0  0.65680298318E+01  0.27969598931E+02  0.15443730385E+02  0.32618189533E+02  0.00000000000E+00 0. -1.
</event>
<event>
 5    1  0.1254496E-009  0.9118800E+02  0.7815553E-02  0.1125453E+00
         25   -1    0    0    0    0  0.00000000000E+00  0.00000000000E+00  0.99999998245E-14  0.12509000000E+03  0.12509000000E+03 0.  0.
        -13    1    3    3    0    0  0.16695747848E+02  0.50685389002E+02  0.13367701794E+02  0.55013300845E+02  0.10566000000E+00 0.  1.
         23    2    1    0    0    0 -0.64992514564E+01  0.93626234097E+01  0.19203558438E+02  0.10275895338E+03  0.10030317471E+03 0.  0.
         13    1    3    3    0    0 -0.23194999305E+02 -0.41322765593E+02  0.58358566433E+01  0.47745652533E+02  0.10566000000E+00 0. -1.
         22    1    1    0    0    0  0.64992514564E+01 -0.93626234097E+01 -0.19203558438E+02  0.22331046623E+02  0.00000000000E+00 0.  1.
</event>
<event>
 5    1  0.1254496E-009  0.9118800E+02  0.7815553E-02  0.1125453E+00
         25   -1    0    0    0    0  0.00000000000E+00  0.00000000000E+00  0.99999998245E-14  0.12509000000E+03  0.12509000000E+03 0.  0.
        -13    1    3    3    0    0  0.45881423114E+02 -0.68574948595E+01  0.41787091350E+02  0.62436386749E+02  0.10566000000E+00 0. -1.
         23    2    1    0    0    0  0.24437559116E+02 -0.22943478883E+01  0.19070787137E+02  0.94006994196E+02  0.88719567785E+02 0.  0.
         13    1    3    3    0    0 -0.21443863998E+02  0.45631469712E+01 -0.22716304213E+02  0.31570607447E+02  0.10566000000E+00 0.  1.
         22    1    1    0    0    0 -0.24437559116E+02  0.22943478883E+01 -0.19070787137E+02  0.31083005804E+02  0.00000000000E+00 0. -1.
</event>
<event>
 5    1  0.1254496E-009  0.9118800E+02  0.7815553E-02  0.1125453E+00
         25   -1    0    0    0    0  0.00000000000E+00  0.00000000000E+00  0.99999998245E-14  0.12509000000E+03  0.12509000000E+03 0.  0.
        -13    1    3    3    0    0 -0.52330231343E+02  0.28210797002E+02  0.73656676691E+01  0.59904644262E+02  0.10566000000E+00 0. -1.
         23    2    1    0    0    0 -0.18427516716E+02  0.19404049558E+02  0.12926884544E+02  0.95371405559E+02  0.90622900763E+02 0.  0.
         13    1    3    3    0    0  0.33902714628E+02 -0.88067474441E+01  0.55612168750E+01  0.35466761296E+02  0.10566000000E+00 0.  1.
         22    1    1    0    0    0  0.18427516716E+02 -0.19404049558E+02 -0.12926884544E+02  0.29718594441E+02  0.00000000000E+00 0. -1.
</event>
<event>
 5    1  0.1254496E-009  0.9118800E+02  0.7815553E-02  0.1125453E+00
         25   -1    0    0    0    0  0.00000000000E+00  0.00000000000E+00  0.99999998245E-14  0.12509000000E+03  0.12509000000E+03 0.  0.
        -13    1    3    3    0    0 -0.49851591931E+02  0.19414627041E+02 -0.14527683202E+02  0.55436212933E+02  0.10566000000E+00 0. -1.
         23    2    1    0    0    0 -0.25945442892E+02  0.10208997246E+01  0.12802514667E+02  0.96139825132E+02  0.91677441890E+02 0.  0.
         13    1    3    3    0    0  0.23906149039E+02 -0.18393727316E+02  0.27330197869E+02  0.40703612199E+02  0.10566000000E+00 0.  1.
         22    1    1    0    0    0  0.25945442892E+02 -0.10208997246E+01 -0.12802514667E+02  0.28950174868E+02  0.00000000000E+00 0.  1.
</event>
<event>
 5    1  0.1254496E-009  0.9118800E+02  0.7815553E-02  0.1125453E+00
         25   -1    0    0    0    0  0.00000000000E+00  0.00000000000E+00  0.99999998245E-14  0.12509000000E+03  0.12509000000E+03 0.  0.
        -13    1    3    3    0    0 -0.19251207026E+02  0.35151665421E+02 -0.12730192444E+02  0.42051367606E+02  0.10566000000E+00 0.  1.
         23    2    1    0    0    0 -0.17403223166E+02 -0.14416400044E+02  0.14107913856E+02  0.98449091604E+02  0.94775976057E+02 0.  0.
         13    1    3    3    0    0  0.18479838604E+01 -0.49568065466E+02  0.26838106300E+02  0.56397723998E+02  0.10566000000E+00 0. -1.
         22    1    1    0    0    0  0.17403223166E+02  0.14416400044E+02 -0.14107913856E+02  0.26640908396E+02  0.00000000000E+00 0. -1.
</event>
<event>
 5    1  0.1254496E-009  0.9118800E+02  0.7815553E-02  0.1125453E+00
         25   -1    0    0    0    0  0.00000000000E+00  0.00000000000E+00  0.99999998245E-14  0.12509000000E+03  0.12509000000E+03 0.  0.
        -13    1    3    3    0    0  0.19393039507E+02  0.68984061489E+01 -0.12890619186E+02  0.24286976258E+02  0.10566000000E+00 0. -1.
         23    2    1    0    0    0 -0.25080979931E+01 -0.25891232923E+02  0.31878564312E+02  0.83945263272E+02  0.73170471266E+02 0.  0.
         13    1    3    3    0    0 -0.21901137500E+02 -0.32789639072E+02  0.44769183499E+02  0.59658287014E+02  0.10566000000E+00 0.  1.
         22    1    1    0    0    0  0.25080979931E+01  0.25891232923E+02 -0.31878564312E+02  0.41144736728E+02  0.00000000000E+00 0.  1.
</event>
<event>
 5    1  0.1254496E-009  0.9118800E+02  0.7815553E-02  0.1125453E+00
         25   -1    0    0    0    0  0.00000000000E+00  0.00000000000E+00  0.99999998245E-14  0.12509000000E+03  0.12509000000E+03 0.  0.
        -13    1    3    3    0    0  0.34575322167E+02 -0.17032114546E+02  0.45764711868E-01  0.38542951202E+02  0.10566000000E+00 0.  1.
         23    2    1    0    0    0 -0.16420791563E+02 -0.13026422353E+02 -0.22407654685E+02  0.94407218781E+02  0.89282080479E+02 0.  0.
         13    1    3    3    0    0 -0.50996113730E+02  0.40056921934E+01 -0.22453419397E+02  0.55864267579E+02  0.10566000000E+00 0. -1.
         22    1    1    0    0    0  0.16420791563E+02  0.13026422353E+02  0.22407654685E+02  0.30682781219E+02  0.00000000000E+00 0. -1.
</event>
<event>
 5    1  0.1254496E-009  0.9118800E+02  0.7815553E-02  0.1125453E+00
         25   -1    0    0    0    0  0.00000000000E+00  0.00000000000E+00  0.99999998245E-14  0.12509000000E+03  0.12509000000E+03 0.  0.
        -13    1    3    3    0    0  0.31825623162E+02  0.35378477668E+01  0.43225914093E+02  0.53794771769E+02  0.10566000000E+00 0. -1.
         23    2    1    0    0    0  0.55086398665E+01 -0.20076524907E+02  0.20775251331E+02  0.95678726083E+02  0.91046117938E+02 0.  0.
         13    1    3    3    0    0 -0.26316983296E+02 -0.23614372674E+02 -0.22450662762E+02  0.41883954315E+02  0.10566000000E+00 0.  1.
         22    1    1    0    0    0 -0.55086398665E+01  0.20076524907E+02 -0.20775251331E+02  0.29411273917E+02  0.00000000000E+00 0. -1.
</event>
<event>
 5    1  0.1254496E-009  0.9118800E+02  0.7815553E-02  0.1125453E+00
         25   -1    0    0    0    0  0.00000000000E+00  0.00000000000E+00  0.99999998245E-14  0.12509000000E+03  0.12509000000E+03 0.  0.
        -13    1    3    3    0    0 -0.23525282747E+02 -0.19147890080E+02 -0.32858831748E+02  0.44719063168E+02  0.10566000000E+00 0. -1.
         23    2    1    0    0    0  0.13134257583E+02  0.12483643847E+02 -0.25668464263E+02  0.93669940427E+02  0.88243059761E+02 0.  0.
         13    1    3    3    0    0  0.36659540330E+02  0.31631533927E+02  0.71903674843E+01  0.48950877258E+02  0.10566000000E+00 0.  1.
         22    1    1    0    0    0 -0.13134257583E+02 -0.12483643847E+02  0.25668464263E+02  0.31420059573E+02  0.00000000000E+00 0. -1.
</event>
<event>
 5    1  0.1254496E-009  0.9118800E+02  0.7815553E-02  0.1125453E+00
         25   -1    0    0    0    0  0.00000000000E+00  0.00000000000E+00  0.99999998245E-14  0.12509000000E+03  0.12509000000E+03 0.  0.
        -13    1    3    3    0    0 -0.39992041297E+02  0.49685752789E+01 -0.43639841723E+02  0.59401153668E+02  0.10566000000E+00 0. -1.
         23    2    1    0    0    0 -0.79720598176E+01  0.72774018591E+01 -0.27939251742E+02  0.95138103508E+02  0.90300291448E+02 0.  0.
         13    1    3    3    0    0  0.32019981479E+02  0.23088265802E+01  0.15700589981E+02  0.35736949840E+02  0.10566000000E+00 0.  1.
         22    1    1    0    0    0  0.79720598176E+01 -0.72774018591E+01  0.27939251742E+02  0.29951896492E+02  0.00000000000E+00 0. -1.
</event>
<event>
 5    1  0.1254496E-009  0.9118800E+02  0.7815553E-02  0.1125453E+00
         25   -1    0    0    0    0  0.00000000000E+00  0.00000000000E+00  0.99999998245E-14  0.12509000000E+03  0.12509000000E+03 0.  0.
        -13    1    3    3    0    0  0.31371737930E+01  0.37417764651E+02  0.52574528482E+00  0.37552876628E+02  0.10566000000E+00 0. -1.
         23    2    1    0    0    0 -0.17805420301E+02 -0.10912137532E+02  0.22290953349E+02  0.94545043971E+02  0.89474974159E+02 0.  0.
         13    1    3    3    0    0 -0.20942594094E+02 -0.48329902183E+02  0.21765208064E+02  0.56992167343E+02  0.10566000000E+00 0.  1.
         22    1    1    0    0    0  0.17805420301E+02  0.10912137532E+02 -0.22290953349E+02  0.30544956029E+02  0.00000000000E+00 0.  1.
</event>
<event>
 5    1  0.1254496E-009  0.9118800E+02  0.7815553E-02  0.1125453E+00
         25   -1    0    0    0    0  0.00000000000E+00  0.00000000000E+00  0.99999998245E-14  0.12509000000E+03  0.12509000000E+03 0.  0.
        -13    1    3    3    0    0 -0.43777962999E+02 -0.37651389270E+02  0.23727504130E+01  0.57790814727E+02  0.10566000000E+00 0. -1.
         23    2    1    0    0    0 -0.18962189636E+02 -0.10534740844E+02 -0.15268806238E+02  0.98562997825E+02  0.94926196047E+02 0.  0.
         13    1    3    3    0    0  0.24815773363E+02  0.27116648426E+02 -0.17641556651E+02  0.40772183098E+02  0.10566000000E+00 0.  1.
         22    1    1    0    0    0  0.18962189636E+02  0.10534740844E+02  0.15268806238E+02  0.26527002175E+02  0.00000000000E+00 0. -1.
</event>
<event>
 5    1  0.1254496E-009  0.9118800E+02  0.7815553E-02  0.1125453E+00
         25   -1    0    0    0    0  0.00000000000E+00  0.00000000000E+00  0.99999998245E-14  0.12509000000E+03  0.12509000000E+03 0.  0.
        -13    1    3    3    0    0 -0.14514395140E+02  0.41219139981E+02  0.93579935427E+01  0.44690808610E+02  0.10566000000E+00 0.  1.
         23    2    1    0    0    0 -0.11685197790E+02  0.47892983688E+01 -0.26405622314E+02  0.95819910898E+02  0.91239888253E+02 0.  0.
         13    1    3    3    0    0  0.28291973495E+01 -0.36429841612E+02 -0.35763615857E+02  0.51129102288E+02  0.10566000000E+00 0. -1.
         22    1    1    0    0    0  0.11685197790E+02 -0.47892983688E+01  0.26405622314E+02  0.29270089102E+02  0.00000000000E+00 0. -1.
</event>
<event>
 5    1  0.1254496E-009  0.9118800E+02  0.7815553E-02  0.1125453E+00
         25   -1    0    0    0    0  0.00000000000E+00  0.00000000000E+00  0.99999998245E-14  0.12509000000E+03  0.12509000000E+03 0.  0.
        -13    1    3    3    0    0 -0.43635488424E+02 -0.55434292855E+01 -0.11363696634E+02  0.45430498825E+02  0.10566000000E+00 0. -1.
         23    2    1    0    0    0  0.11490595169E+02  0.13111045571E+02  0.67711912209E+01  0.10638753161E+03  0.10473072404E+03 0.  0.
         13    1    3    3    0    0  0.55126083593E+02  0.18654474857E+02  0.18134887855E+02  0.60957032786E+02  0.10566000000E+00 0.  1.
         22    1    1    0    0    0 -0.11490595169E+02 -0.13111045571E+02 -0.67711912209E+01  0.18702468390E+02  0.00000000000E+00 0.  1.
</event>
<event>
 5    1  0.1254496E-009  0.9118800E+02  0.7815553E-02  0.1125453E+00
         25   -1    0    0    0    0  0.00000000000E+00  0.00000000000E+00  0.99999998245E-14  0.12509000000E+03  0.12509000000E+03 0.  0.
        -13    1    3    3    0    0  0.39397199666E+02  0.35368871946E+02 -0.22437162535E+02  0.57502468389E+02  0.10566000000E+00 0. -1.
         23    2    1    0    0    0  0.12668420886E+02  0.29450798257E+02  0.20576058231E+00  0.93029420729E+02  0.87330363437E+02 0.  0.
         13    1    3    3    0    0 -0.26728778779E+02 -0.59180736884E+01  0.22642923118E+02  0.35526952340E+02  0.10566000000E+00 0.  1.
         22    1    1    0    0    0 -0.12668420886E+02 -0.29450798257E+02 -0.20576058231E+00  0.32060579271E+02  0.00000000000E+00 0. -1.
</event>
<event>
 5    1  0.1254496E-009  0.9118800E+02  0.7815553E-02  0.1125453E+00
         25   -1    0    0    0    0  0.00000000000E+00  0.00000000000E+00  0.99999998245E-14  0.12509000000E+03  0.12509000000E+03 0.  0.
        -13    1    3    3    0    0 -0.26811757791E+02  0.37906866664E+02  0.15374129700E+02  0.48909875528E+02  0.10566000000E+00 0. -1.
         23    2    1    0    0    0 -0.14872408883E+02  0.93881241699E+01 -0.21683098470E+02  0.97170791904E+02  0.93073522651E+02 0.  0.
         13    1    3    3    0    0  0.11939348907E+02 -0.28518742494E+02 -0.37057228170E+02  0.48260916376E+02  0.10566000000E+00 0.  1.
         22    1    1    0    0    0  0.14872408883E+02 -0.93881241699E+01  0.21683098470E+02  0.27919208096E+02  0.00000000000E+00 0.  1.
</event>
<event>
 5    1  0.1254496E-009  0.9118800E+02  0.7815553E-02  0.1125453E+00
         25   -1    0    0    0    0  0.00000000000E+00  0.00000000000E+00  0.99999998245E-14  0.12509000000E+03  0.12509000000E+03 0.  0.
        -13    1    3    3    0    0 -0.11482392997E+02 -0.24974133884E+02 -0.29214397233E+01  0.27642335037E+02  0.10566000000E+00 0. -1.
         23    2    1    0    0    0  0.18022707799E+02  0.28778513494E+02  0.86654619685E+01  0.90045584375E+02  0.82946345303E+02 0.  0.
         13    1    3    3    0    0  0.29505100796E+02  0.53752647378E+02  0.11586901692E+02  0.62403249339E+02  0.10566000000E+00 0.  1.
         22    1    1    0    0    0 -0.18022707799E+02 -0.28778513494E+02 -0.86654619685E+01  0.35044415625E+02  0.00000000000E+00 0.  1.
</event>
<event>
 5    1  0.1254496E-009  0.9118800E+02  0.7815553E-02  0.1125453E+00
         25   -1    0    0    0    0  0.00000000000E+00  0.00000000000E+00  0.99999998245E-14  0.12509000000E+03  0.12509000000E+03 0.  0.
        -13    1    3    3    0    0 -0.20625431799E+02  0.18718929095E+01  0.32420821578E+02  0.38471200342E+02  0.10566000000E+00 0.  1.
         23    2    1    0    0    0 -0.93642430444E+01 -0.22096484422E+02 -0.17775655524E+02  0.95225010448E+02  0.90420600606E+02 0.  0.
         13    1    3    3    0    0  0.11261188754E+02 -0.23968377332E+02 -0.50196477102E+02  0.56753810106E+02  0.10566000000E+00 0. -1.
         22    1    1    0    0    0  0.93642430444E+01  0.22096484422E+02  0.17775655524E+02  0.29864989552E+02  0.00000000000E+00 0. -1.
</event>
<event>
 5    1  0.1254496E-009  0.9118800E+02  0.7815553E-02  0.1125453E+00
         25   -1    0    0    0    0  0.00000000000E+00  0.00000000000E+00  0.99999998245E-14  0.12509000000E+03  0.12509000000E+03 0.  0.
        -13    1    3    3    0    0 -0.14700088429E+02 -0.23355757755E+02 -0.25552386205E+02  0.37610100039E+02  0.10566000000E+00 0.  1.
         23    2    1    0    0    0 -0.61958725585E+01  0.19263321964E+02  0.17169854032E+02  0.98551946241E+02  0.94911631587E+02 0.  0.
         13    1    3    3    0    0  0.85042158707E+01  0.42619079719E+02  0.42722240237E+02  0.60941846202E+02  0.10566000000E+00 0. -1.
         22    1    1    0    0    0  0.61958725585E+01 -0.19263321964E+02 -0.17169854032E+02  0.26538053759E+02  0.00000000000E+00 0. -1.
</event>
<event>
 5    1  0.1254496E-009  0.9118800E+02  0.7815553E-02  0.1125453E+00
         25   -1    0    0    0    0  0.00000000000E+00  0.00000000000E+00  0.99999998245E-14  0.12509000000E+03  0.12509000000E+03 0.  0.
        -13    1    3    3    0    0  0.43690772802E+01 -0.38338078586E+02 -0.11653966474E+02  0.40307855370E+02  0.10566000000E+00 0. -1.
         23    2    1    0    0    0 -0.28027578041E+02  0.29353087980E+01  0.71004833914E+01  0.96028375252E+02  0.91525246902E+02 0.  0.
         13    1    3    3    0    0 -0.32396655322E+02  0.41273387384E+02  0.18754449865E+02  0.55720519882E+02  0.10566000000E+00 0.  1.
         22    1    1    0    0    0  0.28027578041E+02 -0.29353087980E+01 -0.71004833914E+01  0.29061624748E+02  0.00000000000E+00 0.  1.
</event>
<event>
 5    1  0.1254496E-009  0.9118800E+02  0.7815553E-02  0.1125453E+00
         25   -1    0    0    0    0  0.00000000000E+00  0.00000000000E+00  0.99999998245E-14  0.12509000000E+03  0.12509000000E+03 0.  0.
        -13    1    3    3    0    0 -0.12540556979E+02 -0.35190310333E+02 -0.15678212701E+02  0.40514701383E+02  0.10566000000E+00 0. -1.
         23    2    1    0    0    0  0.28822871181E+02 -0.87834958678E+01  0.63347726963E+01  0.94299789739E+02  0.89131438320E+02 0.  0.
         13    1    3    3    0    0  0.41363428160E+02  0.26406814465E+02  0.22012985397E+02  0.53785088356E+02  0.10566000000E+00 0.  1.
         22    1    1    0    0    0 -0.28822871181E+02  0.87834958678E+01 -0.63347726963E+01  0.30790210261E+02  0.00000000000E+00 0.  1.
</event>
<event>
 5    1  0.1254496E-009  0.9118800E+02  0.7815553E-02  0.1125453E+00
         25   -1    0    0    0    0  0.00000000000E+00  0.00000000000E+00  0.99999998245E-14  0.12509000000E+03  0.12509000000E+03 0.  0.
        -13    1    3    3    0    0 -0.37694065466E+02 -0.19581274816E+02 -0.29263517961E+02  0.51581329397E+02  0.10566000000E+00 0.  1.
         23    2    1    0    0    0  0.63508782155E+01 -0.20432239637E+02 -0.18193427036E+02  0.97004223208E+02  0.92849385901E+02 0.  0.
         13    1    3    3    0    0  0.44044943682E+02 -0.85096482094E+00  0.11070090925E+02  0.45422893811E+02  0.10566000000E+00 0. -1.
         22    1    1    0    0    0 -0.63508782155E+01  0.20432239637E+02  0.18193427036E+02  0.28085776792E+02  0.00000000000E+00 0.  1.
</event>
<event>
 5    1  0.1254496E-009  0.9118800E+02  0.7815553E-02  0.1125453E+00
         25   -1    0    0    0    0  0.00000000000E+00  0.00000000000E+00  0.99999998245E-14  0.12509000000E+03  0.12509000000E+03 0.  0.
        -13    1    3    3    0    0 -0.15422613195E+02 -0.13615759552E+02 -0.30742515276E+02  0.36991341088E+02  0.10566000000E+00 0. -1.
         23    2    1    0    0    0  0.25351963007E+02 -0.97642134358E+01  0.11282731763E+02  0.95672965338E+02  0.91038202795E+02 0.  0.
         13    1    3    3    0    0  0.40774576201E+02  0.38515461163E+01  0.42025247039E+02  0.58681624250E+02  0.10566000000E+00 0.  1.
         22    1    1    0    0    0 -0.25351963007E+02  0.97642134358E+01 -0.11282731763E+02  0.29417034662E+02  0.00000000000E+00 0.  1.
</event>
<event>
 5    1  0.1254496E-009  0.9118800E+02  0.7815553E-02  0.1125453E+00
         25   -1    0    0    0    0  0.00000000000E+00  0.00000000000E+00  0.99999998245E-14  0.12509000000E+03  0.12509000000E+03 0.  0.
        -13    1    3    3    0    0 -0.24476453401E+02  0.24100310943E+02 -0.43807630201E+02  0.55669034360E+02  0.10566000000E+00 0. -1.
         23    2    1    0    0    0 -0.12826480187E+02 -0.88834778583E+01 -0.25613440991E+02  0.95098615700E+02  0.90245573718E+02 0.  0.
         13    1    3    3    0    0  0.11649973214E+02 -0.32983788802E+02  0.18194189210E+02  0.39429581340E+02  0.10566000000E+00 0.  1.
         22    1    1    0    0    0  0.12826480187E+02  0.88834778583E+01  0.25613440991E+02  0.29991384300E+02  0.00000000000E+00 0. -1.
</event>
<event>
 5    1  0.1254496E-009  0.9118800E+02  0.7815553E-02  0.1125453E+00
         25   -1    0    0    0    0  0.00000000000E+00  0.00000000000E+00  0.99999998245E-14  0.12509000000E+03  0.12509000000E+03 0.  0.
        -13    1    3    3    0    0 -0.12925612217E+02  0.20339055847E+02  0.60525651416E+01  0.24847401328E+02  0.10566000000E+00 0. -1.
         23    2    1    0    0    0  0.11512888998E+02 -0.45394056732E+01 -0.40344882521E+02  0.82889735041E+02  0.71343155331E+02 0.  0.
         13    1    3    3    0    0  0.24438501215E+02 -0.24878461520E+02 -0.46397447663E+02  0.58042333713E+02  0.10566000000E+00 0.  1.
         22    1    1    0    0    0 -0.11512888998E+02  0.45394056732E+01  0.40344882521E+02  0.42200264959E+02  0.00000000000E+00 0.  1.
</event>
<event>
 5    1  0.1254496E-009  0.9118800E+02  0.7815553E-02  0.1125453E+00
         25   -1    0    0    0    0  0.00000000000E+00  0.00000000000E+00  0.99999998245E-14  0.12509000000E+03  0.12509000000E+03 0.  0.
        -13    1    3    3    0    0 -0.50891891872E+02  0.10414284662E+01 -0.31867606253E+02  0.60055180658E+02  0.10566000000E+00 0.  1.
         23    2    1    0    0    0 -0.15445913347E+02 -0.24041660948E+00 -0.24256946700E+02  0.96331809819E+02  0.91939023709E+02 0.  0.
         13    1    3    3    0    0  0.35445978525E+02 -0.12818450757E+01  0.76106595533E+01  0.36276629161E+02  0.10566000000E+00 0. -1.
         22    1    1    0    0    0  0.15445913347E+02  0.24041660948E+00  0.24256946700E+02  0.28758190181E+02  0.00000000000E+00 0.  1.
</event>
<event>
 5    1  0.1254496E-009  0.9118800E+02  0.7815553E-02  0.1125453E+00
         25   -1    0    0    0    0  0.00000000000E+00  0.00000000000E+00  0.99999998245E-14  0.12509000000E+03  0.12509000000E+03 0.  0.
        -13    1    3    3    0    0 -0.38394697682E+02 -0.43824456000E+02  0.22146726140E+02  0.62331568218E+02  0.10566000000E+00 0. -1.
         23    2    1    0    0    0 -0.21374983532E+02 -0.20457501810E+02  0.84547042507E+01  0.94318563159E+02  0.89157781663E+02 0.  0.
         13    1    3    3    0    0  0.17019714150E+02  0.23366954190E+02 -0.13692021890E+02  0.31986994941E+02  0.10566000000E+00 0.  1.
         22    1    1    0    0    0  0.21374983532E+02  0.20457501810E+02 -0.84547042507E+01  0.30771436841E+02  0.00000000000E+00 0. -1.
</event>
<event>
 5    1  0.1254496E-009  0.9118800E+02  0.7815553E-02  0.1125453E+00
         25   -1    0    0    0    0  0.00000000000E+00  0.00000000000E+00  0.99999998245E-14  0.12509000000E+03  0.12509000000E+03 0.  0.
        -13    1    3    3    0    0 -0.34568379083E+02  0.37427197832E-01 -0.45659749415E+01  0.34868804460E+02  0.10566000000E+00 0.  1.
         23    2    1    0    0    0  0.20846563185E+02 -0.93255399839E+01  0.18580219229E+02  0.95649051659E+02  0.91005338547E+02 0.  0.
         13    1    3    3    0    0  0.55414942268E+02 -0.93629671817E+01  0.23146194171E+02  0.60780247199E+02  0.10566000000E+00 0. -1.
         22    1    1    0    0    0 -0.20846563185E+02  0.93255399839E+01 -0.18580219229E+02  0.29440948341E+02  0.00000000000E+00 0. -1.
</event>
<event>
 5    1  0.1254496E-009  0.9118800E+02  0.7815553E-02  0.1125453E+00
         25   -1    0    0    0    0  0.00000000000E+00  0.00000000000E+00  0.99999998245E-14  0.12509000000E+03  0.12509000000E+03 0.  0.
        -13    1    3    3    0    0  0.72158495274E+00  0.19899082174E+02  0.27074991910E+02  0.33608934931E+02  0.10566000000E+00 0. -1.
         23    2    1    0    0    0 -0.94951275182E+01 -0.14960888717E+02 -0.23363363470E+02  0.95767101262E+02  0.91167457427E+02 0.  0.
         13    1    3    3    0    0 -0.10216712471E+02 -0.34859970891E+02 -0.50438355380E+02  0.62158166331E+02  0.10566000000E+00 0.  1.
         22    1    1    0    0    0  0.94951275182E+01  0.14960888717E+02  0.23363363470E+02  0.29322898738E+02  0.00000000000E+00 0.  1.
</event>
<event>
 5    1  0.1254496E-009  0.9118800E+02  0.7815553E-02  0.1125453E+00
         25   -1    0    0    0    0  0.00000000000E+00  0.00000000000E+00  0.99999998245E-14  0.12509000000E+03  0.12509000000E+03 0.  0.
        -13    1    3    3    0    0  0.33885892186E+02  0.27862500418E+02  0.32491902352E+02  0.54592192677E+02  0.10566000000E+00 0.  1.
         23    2    1    0    0    0  0.26936303337E+02 -0.61680244086E+01  0.11629931793E+02  0.95108934707E+02  0.90259875831E+02 0.  0.
         13    1    3    3    0    0 -0.69495888489E+01 -0.34030524826E+02 -0.20861970558E+02  0.40516742030E+02  0.10566000000E+00 0. -1.
         22    1    1    0    0    0 -0.26936303337E+02  0.61680244086E+01 -0.11629931793E+02  0.29981065293E+02  0.00000000000E+00 0.  1.
</event>
<event>
 5    1  0.1254496E-009  0.9118800E+02  0.7815553E-02  0.1125453E+00
         25   -1    0    0    0    0  0.00000000000E+00  0.00000000000E+00  0.99999998245E-14  0.12509000000E+03  0.12509000000E+03 0.  0.
        -13    1    3    3    0    0 -0.35795596958E+02 -0.35587478198E+02 -0.70936839837E+01  0.50971804781E+02  0.10566000000E+00 0.  1.
         23    2    1    0    0    0 -0.76916651685E+01 -0.80045636703E+01 -0.27579482347E+02  0.95360173240E+02  0.90607395069E+02 0.  0.
         13    1    3    3    0    0  0.28103931790E+02  0.27582914527E+02 -0.20485798364E+02  0.44388368460E+02  0.10566000000E+00 0. -1.
         22    1    1    0    0    0  0.76916651685E+01  0.80045636703E+01  0.27579482347E+02  0.29729826760E+02  0.00000000000E+00 0.  1.
</event>
<event>
 5    1  0.1254496E-009  0.9118800E+02  0.7815553E-02  0.1125453E+00
         25   -1    0    0    0    0  0.00000000000E+00  0.00000000000E+00  0.99999998245E-14  0.12509000000E+03  0.12509000000E+03 0.  0.
        -13    1    3    3    0    0  0.28037055809E+02  0.54363237552E+02  0.98829215558E+01  0.61960643945E+02  0.10566000000E+00 0.  1.
         23    2    1    0    0    0  0.16679112188E+02  0.28849736477E+02  0.11240178120E+02  0.89921239966E+02  0.82758611121E+02 0.  0.
         13    1    3    3    0    0 -0.11357943622E+02 -0.25513501075E+02  0.13572565639E+01  0.27960596021E+02  0.10566000000E+00 0. -1.
         22    1    1    0    0    0 -0.16679112188E+02 -0.28849736477E+02 -0.11240178120E+02  0.35168760034E+02  0.00000000000E+00 0.  1.
</event>
<event>
 5    1  0.1254496E-009  0.9118800E+02  0.7815553E-02  0.1125453E+00
         25   -1    0    0    0    0  0.00000000000E+00  0.00000000000E+00  0.99999998245E-14  0.12509000000E+03  0.12509000000E+03 0.  0.
        -13    1    3    3    0    0 -0.27511449530E+02 -0.76834914376E+01  0.20291898735E+02  0.35038382015E+02  0.10566000000E+00 0. -1.
         23    2    1    0    0    0  0.10934282135E+02 -0.10553713346E+02 -0.25811579263E+02  0.95137086698E+02  0.90298882884E+02 0.  0.
         13    1    3    3    0    0  0.38445731665E+02 -0.28702219079E+01 -0.46103477998E+02  0.60098704684E+02  0.10566000000E+00 0.  1.
         22    1    1    0    0    0 -0.10934282135E+02  0.10553713346E+02  0.25811579263E+02  0.29952913302E+02  0.00000000000E+00 0. -1.
</event>
<event>
 5    1  0.1254496E-009  0.9118800E+02  0.7815553E-02  0.1125453E+00
         25   -1    0    0    0    0  0.00000000000E+00  0.00000000000E+00  0.99999998245E-14  0.12509000000E+03  0.12509000000E+03 0.  0.
        -13    1    3    3    0    0 -0.38829049674E+02  0.96894764600E+00 -0.10453700824E+01  0.38855346103E+02  0.10566000000E+00 0.  1.
         23    2    1    0    0    0  0.15093209654E+02 -0.20766008031E+02 -0.97257589535E+01  0.97637815125E+02  0.93699095449E+02 0.  0.
         13    1    3    3    0    0  0.53922259328E+02 -0.21734955677E+02 -0.86803888711E+01  0.58782469022E+02  0.10566000000E+00 0. -1.
         22    1    1    0    0    0 -0.15093209654E+02  0.20766008031E+02  0.97257589535E+01  0.27452184875E+02  0.00000000000E+00 0. -1.
</event>
<event>
 5    1  0.1254496E-009  0.9118800E+02  0.7815553E-02  0.1125453E+00
         25   -1    0    0    0    0  0.00000000000E+00  0.00000000000E+00  0.99999998245E-14  0.12509000000E+03  0.12509000000E+03 0.  0.
        -13    1    3    3    0    0  0.16057933923E+02  0.35686257078E+02 -0.26590919133E+02  0.47312306332E+02  0.10566000000E+00 0.  1.
         23    2    1    0    0    0 -0.14805289297E+02  0.19549025981E+02  0.10697423114E+02  0.98335638314E+02  0.94626116339E+02 0.  0.
         13    1    3    3    0    0 -0.30863223219E+02 -0.16137231098E+02  0.37288342247E+02  0.51023331982E+02  0.10566000000E+00 0. -1.
         22    1    1    0    0    0  0.14805289297E+02 -0.19549025981E+02 -0.10697423114E+02  0.26754361686E+02  0.00000000000E+00 0. -1.
</event>
<event>
 5    1  0.1254496E-009  0.9118800E+02  0.7815553E-02  0.1125453E+00
         25   -1    0    0    0    0  0.00000000000E+00  0.00000000000E+00  0.99999998245E-14  0.12509000000E+03  0.12509000000E+03 0.  0.
        -13    1    3    3    0    0 -0.14765009040E+01  0.40958286935E+02 -0.13816763474E+02  0.43251305651E+02  0.10566000000E+00 0.  1.
         23    2    1    0    0    0  0.11346283193E+02  0.85734391636E+01  0.25570783105E+02  0.95830694643E+02  0.91254671583E+02 0.  0.
         13    1    3    3    0    0  0.12822784097E+02 -0.32384847772E+02  0.39387546579E+02  0.52579388992E+02  0.10566000000E+00 0. -1.
         22    1    1    0    0    0 -0.11346283193E+02 -0.85734391636E+01 -0.25570783105E+02  0.29259305357E+02  0.00000000000E+00 0. -1.
</event>
<event>
 5    1  0.1254496E-009  0.9118800E+02  0.7815553E-02  0.1125453E+00
         25   -1    0    0    0    0  0.00000000000E+00  0.00000000000E+00  0.99999998245E-14  0.12509000000E+03  0.12509000000E+03 0.  0.
        -13    1    3    3    0    0 -0.12324366608E+02  0.60009836108E+02  0.10130728313E+02  0.62094389942E+02  0.10566000000E+00 0. -1.
         23    2    1    0    0    0 -0.10222108511E+02  0.26167997083E+02  0.69426106142E+01  0.96151178049E+02  0.91692931158E+02 0.  0.
         13    1    3    3    0    0  0.21022580970E+01 -0.33841839025E+02 -0.31881176991E+01  0.34056788108E+02  0.10566000000E+00 0.  1.
         22    1    1    0    0    0  0.10222108511E+02 -0.26167997083E+02 -0.69426106142E+01  0.28938821951E+02  0.00000000000E+00 0. -1.
</event>
<event>
 5    1  0.1254496E-009  0.9118800E+02  0.7815553E-02  0.1125453E+00
         25   -1    0    0    0    0  0.00000000000E+00  0.00000000000E+00  0.99999998245E-14  0.12509000000E+03  0.12509000000E+03 0.  0.
        -13    1    3    3    0    0  0.76203427607E+01  0.39706395687E+02  0.30366366150E+02  0.50564758869E+02  0.10566000000E+00 0. -1.
         23    2    1    0    0    0  0.22038474117E+02 -0.16271586800E+01  0.19377241108E+02  0.95699194299E+02  0.91074235268E+02 0.  0.
         13    1    3    3    0    0  0.14418131357E+02 -0.41333554367E+02 -0.10989125042E+02  0.45134435430E+02  0.10566000000E+00 0.  1.
         22    1    1    0    0    0 -0.22038474117E+02  0.16271586800E+01 -0.19377241108E+02  0.29390805701E+02  0.00000000000E+00 0. -1.
</event>
<event>
 5    1  0.1254496E-009  0.9118800E+02  0.7815553E-02  0.1125453E+00
         25   -1    0    0    0    0  0.00000000000E+00  0.00000000000E+00  0.99999998245E-14  0.12509000000E+03  0.12509000000E+03 0.  0.
        -13    1    3    3    0    0  0.26459683255E+02  0.33101906281E+02  0.85591951741E+01  0.43233343884E+02  0.10566000000E+00 0.  1.
         23    2    1    0    0    0  0.52009427791E+01 -0.17859652078E+02  0.17945227802E+02  0.99243371999E+02  0.95818571826E+02 0.  0.
         13    1    3    3    0    0 -0.21258740475E+02 -0.50961558358E+02  0.93860326284E+01  0.56010028115E+02  0.10566000000E+00 0. -1.
         22    1    1    0    0    0 -0.52009427791E+01  0.17859652078E+02 -0.17945227802E+02  0.25846628001E+02  0.00000000000E+00 0. -1.
</event>
<event>
 5    1  0.1254496E-009  0.9118800E+02  0.7815553E-02  0.1125453E+00
         25   -1    0    0    0    0  0.00000000000E+00  0.00000000000E+00  0.99999998245E-14  0.12509000000E+03  0.12509000000E+03 0.  0.
        -13    1    3    3    0    0  0.22661848756E+02  0.46013847787E+01 -0.28596246845E+02  0.36776196495E+02  0.10566000000E+00 0.  1.
         23    2    1    0    0    0  0.11880981437E+02 -0.12110433145E+02  0.25528063228E+02  0.94438697858E+02  0.89326173824E+02 0.  0.
         13    1    3    3    0    0 -0.10780867320E+02 -0.16711817924E+02  0.54124310073E+02  0.57662501363E+02  0.10566000000E+00 0. -1.
         22    1    1    0    0    0 -0.11880981437E+02  0.12110433145E+02 -0.25528063228E+02  0.30651302142E+02  0.00000000000E+00 0. -1.
</event>
<event>
 5    1  0.1254496E-009  0.9118800E+02  0.7815553E-02  0.1125453E+00
         25   -1    0    0    0    0  0.00000000000E+00  0.00000000000E+00  0.99999998245E-14  0.12509000000E+03  0.12509000000E+03 0.  0.
        -13    1    3    3    0    0  0.54590543261E+02 -0.96513122621E+01  0.23340202625E+02  0.60150240769E+02  0.10566000000E+00 0.  1.
         23    2    1    0    0    0  0.26274598038E+02  0.37983767575E+01  0.12250196224E+01  0.98514017588E+02  0.94861629863E+02 0.  0.
         13    1    3    3    0    0 -0.28315945223E+02  0.13449689020E+02 -0.22115183003E+02  0.38363776820E+02  0.10566000000E+00 0. -1.
         22    1    1    0    0    0 -0.26274598038E+02 -0.37983767575E+01 -0.12250196224E+01  0.26575982412E+02  0.00000000000E+00 0. -1.
</event>
<event>
 5    1  0.1254496E-009  0.9118800E+02  0.7815553E-02  0.1125453E+00
         25   -1    0    0    0    0  0.00000000000E+00  0.00000000000E+00  0.99999998245E-14  0.12509000000E+03  0.12509000000E+03 0.  0.
        -13    1    3    3    0    0 -0.17159595582E+02  0.51911058246E+02  0.25590468331E+01  0.54733623792E+02  0.10566000000E+00 0. -1.
         23    2    1    0    0    0 -0.22568615689E+02  0.13702282410E+02  0.14291555307E+02  0.95067616510E+02  0.90202595297E+02 0.  0.
         13    1    3    3    0    0 -0.54090201070E+01 -0.38208775836E+02  0.11732508474E+02  0.40333992717E+02  0.10566000000E+00 0.  1.
         22    1    1    0    0    0  0.22568615689E+02 -0.13702282410E+02 -0.14291555307E+02  0.30022383490E+02  0.00000000000E+00 0.  1.
</event>
<event>
 5    1  0.1254496E-009  0.9118800E+02  0.7815553E-02  0.1125453E+00
         25   -1    0    0    0    0  0.00000000000E+00  0.00000000000E+00  0.99999998245E-14  0.12509000000E+03  0.12509000000E+03 0.  0.
        -13    1    3    3    0    0  0.44245095724E+02 -0.14867794509E+02 -0.31270108969E+02  0.56182832682E+02  0.10566000000E+00 0. -1.
         23    2    1    0    0    0  0.10866184591E+02 -0.24211128002E+02 -0.16351618300E+02  0.93919050260E+02  0.88595484614E+02 0.  0.
         13    1    3    3    0    0 -0.33378911133E+02 -0.93433334930E+01  0.14918490670E+02  0.37736217578E+02  0.10566000000E+00 0.  1.
         22    1    1    0    0    0 -0.10866184591E+02  0.24211128002E+02  0.16351618300E+02  0.31170949740E+02  0.00000000000E+00 0. -1.
</event>
<event>
 5    1  0.1254496E-009  0.9118800E+02  0.7815553E-02  0.1125453E+00
         25   -1    0    0    0    0  0.00000000000E+00  0.00000000000E+00  0.99999998245E-14  0.12509000000E+03  0.12509000000E+03 0.  0.
        -13    1    3    3    0    0  0.24919198171E+02  0.30948135880E+02 -0.81811977092E+01  0.40567187627E+02  0.10566000000E+00 0. -1.
         23    2    1    0    0    0 -0.22345115676E+02  0.64197995605E+01 -0.19190999074E+02  0.94943483345E+02  0.90030286923E+02 0.  0.
         13    1    3    3    0    0 -0.47264313846E+02 -0.24528336320E+02 -0.11009801365E+02  0.54376295719E+02  0.10566000000E+00 0.  1.
         22    1    1    0    0    0  0.22345115676E+02 -0.64197995605E+01  0.19190999074E+02  0.30146516655E+02  0.00000000000E+00 0.  1.
</event>
<event>
 5    1  0.1254496E-009  0.9118800E+02  0.7815553E-02  0.1125453E+00
         25   -1    0    0    0    0  0.00000000000E+00  0.00000000000E+00  0.99999998245E-14  0.12509000000E+03  0.12509000000E+03 0.  0.
        -13    1    3    3    0    0 -0.14827264496E+02  0.25324253164E+01 -0.55613162700E+02  0.57611595881E+02  0.10566000000E+00 0. -1.
         23    2    1    0    0    0  0.46962473111E+01 -0.12513904869E+02 -0.22947010798E+02  0.98534061710E+02  0.94888057513E+02 0.  0.
         13    1    3    3    0    0  0.19523511808E+02 -0.15046330186E+02  0.32666151902E+02  0.40922465829E+02  0.10566000000E+00 0.  1.
         22    1    1    0    0    0 -0.46962473111E+01  0.12513904869E+02  0.22947010798E+02  0.26555938290E+02  0.00000000000E+00 0. -1.
</event>
<event>
 5    1  0.1254496E-009  0.9118800E+02  0.7815553E-02  0.1125453E+00
         25   -1    0    0    0    0  0.00000000000E+00  0.00000000000E+00  0.99999998245E-14  0.12509000000E+03  0.12509000000E+03 0.  0.
        -13    1    3    3    0    0 -0.45995611070E+02 -0.45184363032E+00  0.31067318933E+02  0.55506665096E+02  0.10566000000E+00 0. -1.
         23    2    1    0    0    0 -0.18309400634E+02  0.19271078342E+02  0.57465598124E+01  0.97893831856E+02  0.94040261345E+02 0.  0.
         13    1    3    3    0    0  0.27686210437E+02  0.19722921972E+02 -0.25320759121E+02  0.42387166760E+02  0.10566000000E+00 0.  1.
         22    1    1    0    0    0  0.18309400634E+02 -0.19271078342E+02 -0.57465598124E+01  0.27196168144E+02  0.00000000000E+00 0. -1.
</event>
<event>
 5    1  0.1254496E-009  0.9118800E+02  0.7815553E-02  0.1125453E+00
         25   -1    0    0    0    0  0.00000000000E+00  0.00000000000E+00  0.99999998245E-14  0.12509000000E+03  0.12509000000E+03 0.  0.
        -13    1    3    3    0    0 -0.22848190367E+02  0.80487052329E+01  0.26188563365E+02  0.35674549390E+02  0.10566000000E+00 0.  1.
         23    2    1    0    0    0  0.19906908793E+02 -0.11884849580E+02 -0.14307455106E+02  0.97845955902E+02  0.93976556372E+02 0.  0.
         13    1    3    3    0    0  0.42755099161E+02 -0.19933554813E+02 -0.40496018470E+02  0.62171406512E+02  0.10566000000E+00 0. -1.
         22    1    1    0    0    0 -0.19906908793E+02  0.11884849580E+02  0.14307455106E+02  0.27244044098E+02  0.00000000000E+00 0. -1.
</event>
<event>
 5    1  0.1254496E-009  0.9118800E+02  0.7815553E-02  0.1125453E+00
         25   -1    0    0    0    0  0.00000000000E+00  0.00000000000E+00  0.99999998245E-14  0.12509000000E+03  0.12509000000E+03 0.  0.
        -13    1    3    3    0    0  0.27631431451E+02  0.22013743797E+02 -0.27853326790E+02  0.44987997258E+02  0.10566000000E+00 0. -1.
         23    2    1    0    0    0 -0.18231843993E+02  0.18055924745E+02 -0.21803948121E+02  0.91417626940E+02  0.84990315966E+02 0.  0.
         13    1    3    3    0    0 -0.45863275444E+02 -0.39578190520E+01  0.60493786692E+01  0.46429629682E+02  0.10566000000E+00 0.  1.
         22    1    1    0    0    0  0.18231843993E+02 -0.18055924745E+02  0.21803948121E+02  0.33672373060E+02  0.00000000000E+00 0. -1.
</event>
<event>
 5    1  0.1254496E-009  0.9118800E+02  0.7815553E-02  0.1125453E+00
         25   -1    0    0    0    0  0.00000000000E+00  0.00000000000E+00  0.99999998245E-14  0.12509000000E+03  0.12509000000E+03 0.  0.
        -13    1    3    3    0    0 -0.37373900277E+02  0.30942722374E+02 -0.97338640258E+01  0.49487571801E+02  0.10566000000E+00 0. -1.
         23    2    1    0    0    0  0.82589189769E+00  0.29215811588E+02  0.12026938918E+02  0.93484731390E+02  0.87980122750E+02 0.  0.
         13    1    3    3    0    0  0.38199792175E+02 -0.17269107862E+01  0.21760802944E+02  0.43997159589E+02  0.10566000000E+00 0.  1.
         22    1    1    0    0    0 -0.82589189769E+00 -0.29215811588E+02 -0.12026938918E+02  0.31605268610E+02  0.00000000000E+00 0.  1.
</event>
<event>
 5    1  0.1254496E-009  0.9118800E+02  0.7815553E-02  0.1125453E+00
         25   -1    0    0    0    0  0.00000000000E+00  0.00000000000E+00  0.99999998245E-14  0.12509000000E+03  0.12509000000E+03 0.  0.
        -13    1    3    3    0    0  0.37678121752E+02 -0.33316970236E+02  0.26090036809E+02  0.56660061324E+02  0.10566000000E+00 0. -1.
         23    2    1    0    0    0  0.24833086402E+02  0.18038277948E+01  0.16347418473E+02  0.95304532643E+02  0.90530546649E+02 0.  0.
         13    1    3    3    0    0 -0.12845035350E+02  0.35120798031E+02 -0.97426183362E+01  0.38644471319E+02  0.10566000000E+00 0.  1.
         22    1    1    0    0    0 -0.24833086402E+02 -0.18038277948E+01 -0.16347418473E+02  0.29785467357E+02  0.00000000000E+00 0. -1.
</event>
<event>
 5    1  0.1254496E-009  0.9118800E+02  0.7815553E-02  0.1125453E+00
         25   -1    0    0    0    0  0.00000000000E+00  0.00000000000E+00  0.99999998245E-14  0.12509000000E+03  0.12509000000E+03 0.  0.
        -13    1    3    3    0    0  0.43178836646E+02 -0.33504397170E+02 -0.27693191326E+02  0.61268920128E+02  0.10566000000E+00 0.  1.
         23    2    1    0    0    0  0.14253329171E+02 -0.22309887423E+02 -0.12187668950E+02  0.95945056292E+02  0.91411301726E+02 0.  0.
         13    1    3    3    0    0 -0.28925507475E+02  0.11194509747E+02  0.15505522375E+02  0.34676136165E+02  0.10566000000E+00 0. -1.
         22    1    1    0    0    0 -0.14253329171E+02  0.22309887423E+02  0.12187668950E+02  0.29144943708E+02  0.00000000000E+00 0.  1.
</event>
<event>
 5    1  0.1254496E-009  0.9118800E+02  0.7815553E-02  0.1125453E+00
         25   -1    0    0    0    0  0.00000000000E+00  0.00000000000E+00  0.99999998245E-14  0.12509000000E+03  0.12509000000E+03 0.  0.
        -13    1    3    3    0    0  0.16435617621E+02  0.15966738023E+02 -0.57149108384E+02  0.61571892961E+02  0.10566000000E+00 0.  1.
         23    2    1    0    0    0  0.93672498738E+01  0.15362296826E+02 -0.26315206071E+02  0.93211549527E+02  0.87590852038E+02 0.  0.
         13    1    3    3    0    0 -0.70683677468E+01 -0.60444119723E+00  0.30833902313E+02  0.31639656566E+02  0.10566000000E+00 0. -1.
         22    1    1    0    0    0 -0.93672498738E+01 -0.15362296826E+02  0.26315206071E+02  0.31878450473E+02  0.00000000000E+00 0.  1.
</event>
<event>
 5    1  0.1254496E-009  0.9118800E+02  0.7815553E-02  0.1125453E+00
         25   -1    0    0    0    0  0.00000000000E+00  0.00000000000E+00  0.99999998245E-14  0.12509000000E+03  0.12509000000E+03 0.  0.
        -13    1    3    3    0    0  0.13544135968E+01  0.28463187675E+02 -0.19487589629E+02  0.34521946677E+02  0.10566000000E+00 0.  1.
         23    2    1    0    0    0  0.47521750645E+01 -0.19766238462E+01  0.31049809752E+02  0.93616504876E+02  0.88167279021E+02 0.  0.
         13    1    3    3    0    0  0.33977614676E+01 -0.30439811521E+02  0.50537399381E+02  0.59094558199E+02  0.10566000000E+00 0. -1.
         22    1    1    0    0    0 -0.47521750645E+01  0.19766238462E+01 -0.31049809752E+02  0.31473495124E+02  0.00000000000E+00 0. -1.
</event>
<event>
 5    1  0.1254496E-009  0.9118800E+02  0.7815553E-02  0.1125453E+00
         25   -1    0    0    0    0  0.00000000000E+00  0.00000000000E+00  0.99999998245E-14  0.12509000000E+03  0.12509000000E+03 0.  0.
        -13    1    3    3    0    0  0.52282112841E+02 -0.16860853250E+00  0.33199031705E+02  0.61932500532E+02  0.10566000000E+00 0. -1.
         23    2    1    0    0    0  0.20131538493E+02 -0.23695857449E+01  0.19544195485E+02  0.96932064069E+02  0.92752119592E+02 0.  0.
         13    1    3    3    0    0 -0.32150574348E+02 -0.22009772124E+01 -0.13654836219E+02  0.34999563537E+02  0.10566000000E+00 0.  1.
         22    1    1    0    0    0 -0.20131538493E+02  0.23695857449E+01 -0.19544195485E+02  0.28157935931E+02  0.00000000000E+00 0. -1.
</event>
<event>
 5    1  0.1254496E-009  0.9118800E+02  0.7815553E-02  0.1125453E+00
         25   -1    0    0    0    0  0.00000000000E+00  0.00000000000E+00  0.99999998245E-14  0.12509000000E+03  0.12509000000E+03 0.  0.
        -13    1    3    3    0    0  0.11272512039E+02  0.16811486563E+02 -0.29060782661E+02  0.35415192517E+02  0.10566000000E+00 0.  1.
         23    2    1    0    0    0  0.12531573831E+02 -0.25591775269E+02  0.11737441858E+02  0.94272036967E+02  0.89092480650E+02 0.  0.
         13    1    3    3    0    0  0.12590617917E+01 -0.42403261833E+02  0.40798224519E+02  0.58856844450E+02  0.10566000000E+00 0. -1.
         22    1    1    0    0    0 -0.12531573831E+02  0.25591775269E+02 -0.11737441858E+02  0.30817963033E+02  0.00000000000E+00 0. -1.
</event>
<event>
 5    1  0.1254496E-009  0.9118800E+02  0.7815553E-02  0.1125453E+00
         25   -1    0    0    0    0  0.00000000000E+00  0.00000000000E+00  0.99999998245E-14  0.12509000000E+03  0.12509000000E+03 0.  0.
        -13    1    3    3    0    0 -0.71890950276E+01 -0.29001243550E+02 -0.23048194812E+02  0.37735734562E+02  0.10566000000E+00 0.  1.
         23    2    1    0    0    0  0.97403253323E+01  0.25381290032E+02 -0.96005978864E+01  0.96258501581E+02  0.91839228141E+02 0.  0.
         13    1    3    3    0    0  0.16929420360E+02  0.54382533582E+02  0.13447596926E+02  0.58522767020E+02  0.10566000000E+00 0. -1.
         22    1    1    0    0    0 -0.97403253323E+01 -0.25381290032E+02  0.96005978864E+01  0.28831498419E+02  0.00000000000E+00 0. -1.
</event>
<event>
 5    1  0.1254496E-009  0.9118800E+02  0.7815553E-02  0.1125453E+00
         25   -1    0    0    0    0  0.00000000000E+00  0.00000000000E+00  0.99999998245E-14  0.12509000000E+03  0.12509000000E+03 0.  0.
        -13    1    3    3    0    0 -0.33199389504E+02  0.47445504701E+02  0.16748589781E+02  0.60281023577E+02  0.10566000000E+00 0. -1.
         23    2    1    0    0    0 -0.20267368974E+02  0.24147868773E+02 -0.29620271842E+01  0.93425202252E+02  0.87895443564E+02 0.  0.
         13    1    3    3    0    0  0.12932020530E+02 -0.23297635928E+02 -0.19710616966E+02  0.33144178675E+02  0.10566000000E+00 0.  1.
         22    1    1    0    0    0  0.20267368974E+02 -0.24147868773E+02  0.29620271842E+01  0.31664797748E+02  0.00000000000E+00 0. -1.
</event>
<event>
 5    1  0.1254496E-009  0.9118800E+02  0.7815553E-02  0.1125453E+00
         25   -1    0    0    0    0  0.00000000000E+00  0.00000000000E+00  0.99999998245E-14  0.12509000000E+03  0.12509000000E+03 0.  0.
        -13    1    3    3    0    0  0.54512921863E+02 -0.79671053502E+01 -0.15934981556E+01  0.55115186819E+02  0.10566000000E+00 0.  1.
         23    2    1    0    0    0  0.21381212214E+02 -0.10825175382E+02  0.19239935097E+02  0.94357024870E+02  0.89211727828E+02 0.  0.
         13    1    3    3    0    0 -0.33131709649E+02 -0.28580700322E+01  0.20833433252E+02  0.39241838052E+02  0.10566000000E+00 0. -1.
         22    1    1    0    0    0 -0.21381212214E+02  0.10825175382E+02 -0.19239935097E+02  0.30732975130E+02  0.00000000000E+00 0.  1.
</event>
<event>
 5    1  0.1254496E-009  0.9118800E+02  0.7815553E-02  0.1125453E+00
         25   -1    0    0    0    0  0.00000000000E+00  0.00000000000E+00  0.99999998245E-14  0.12509000000E+03  0.12509000000E+03 0.  0.
        -13    1    3    3    0    0  0.71498677549E+00  0.31539782551E+02  0.13611237007E+02  0.34359074876E+02  0.10566000000E+00 0.  1.
         23    2    1    0    0    0  0.75957375471E+01 -0.23127010324E+02 -0.15054815672E+02  0.96468306998E+02  0.92124551259E+02 0.  0.
         13    1    3    3    0    0  0.68807507716E+01 -0.54666792875E+02 -0.28666052680E+02  0.62109232121E+02  0.10566000000E+00 0. -1.
         22    1    1    0    0    0 -0.75957375471E+01  0.23127010324E+02  0.15054815672E+02  0.28621693002E+02  0.00000000000E+00 0. -1.
</event>
<event>
 5    1  0.1254496E-009  0.9118800E+02  0.7815553E-02  0.1125453E+00
         25   -1    0    0    0    0  0.00000000000E+00  0.00000000000E+00  0.99999998245E-14  0.12509000000E+03  0.12509000000E+03 0.  0.
        -13    1    3    3    0    0 -0.49623567856E+02 -0.51065103368E+01  0.21083657655E+02  0.54158163916E+02  0.10566000000E+00 0.  1.
         23    2    1    0    0    0 -0.22751344255E+02 -0.14955149442E+02 -0.96964965246E+01  0.96188404800E+02  0.91743702852E+02 0.  0.
         13    1    3    3    0    0  0.26872223601E+02 -0.98486391050E+01 -0.30780154179E+02  0.42030240885E+02  0.10566000000E+00 0. -1.
         22    1    1    0    0    0  0.22751344255E+02  0.14955149442E+02  0.96964965246E+01  0.28901595200E+02  0.00000000000E+00 0.  1.
</event>
<event>
 5    1  0.1254496E-009  0.9118800E+02  0.7815553E-02  0.1125453E+00
         25   -1    0    0    0    0  0.00000000000E+00  0.00000000000E+00  0.99999998245E-14  0.12509000000E+03  0.12509000000E+03 0.  0.
        -13    1    3    3    0    0  0.24497865495E+02 -0.64874909570E+01  0.21172252090E+02  0.33022846263E+02  0.10566000000E+00 0.  1.
         23    2    1    0    0    0 -0.31321064155E+02  0.54216070904E+01  0.19683620540E+01  0.93242279008E+02  0.87634726349E+02 0.  0.
         13    1    3    3    0    0 -0.55818929649E+02  0.11909098047E+02 -0.19203890036E+02  0.60219432745E+02  0.10566000000E+00 0. -1.
         22    1    1    0    0    0  0.31321064155E+02 -0.54216070904E+01 -0.19683620540E+01  0.31847720992E+02  0.00000000000E+00 0. -1.
</event>
<event>
 5    1  0.1254496E-009  0.9118800E+02  0.7815553E-02  0.1125453E+00
         25   -1    0    0    0    0  0.00000000000E+00  0.00000000000E+00  0.99999998245E-14  0.12509000000E+03  0.12509000000E+03 0.  0.
        -13    1    3    3    0    0  0.48500627013E+01 -0.27678189754E+02 -0.56458302655E+01  0.28661679289E+02  0.10566000000E+00 0.  1.
         23    2    1    0    0    0 -0.95499881038E+01  0.20100769497E+02 -0.32784596611E+02  0.85465853547E+02  0.75725419381E+02 0.  0.
         13    1    3    3    0    0 -0.14400050805E+02  0.47778959251E+02 -0.27138766346E+02  0.56804174258E+02  0.10566000000E+00 0. -1.
         22    1    1    0    0    0  0.95499881038E+01 -0.20100769497E+02  0.32784596611E+02  0.39624146453E+02  0.00000000000E+00 0. -1.
</event>
<event>
 5    1  0.1254496E-009  0.9118800E+02  0.7815553E-02  0.1125453E+00
         25   -1    0    0    0    0  0.00000000000E+00  0.00000000000E+00  0.99999998245E-14  0.12509000000E+03  0.12509000000E+03 0.  0.
        -13    1    3    3    0    0  0.18828783768E+02 -0.22944487414E+02  0.14860982892E+02  0.33193863550E+02  0.10566000000E+00 0.  1.
         23    2    1    0    0    0 -0.22606073310E+02  0.60949068407E+01 -0.19718808490E+02  0.94479318071E+02  0.89383039191E+02 0.  0.
         13    1    3    3    0    0 -0.41434857078E+02  0.29039394254E+02 -0.34579791382E+02  0.61285454521E+02  0.10566000000E+00 0. -1.
         22    1    1    0    0    0  0.22606073310E+02 -0.60949068407E+01  0.19718808490E+02  0.30610681929E+02  0.00000000000E+00 0. -1.
</event>
<event>
 5    1  0.1254496E-009  0.9118800E+02  0.7815553E-02  0.1125453E+00
         25   -1    0    0    0    0  0.00000000000E+00  0.00000000000E+00  0.99999998245E-14  0.12509000000E+03  0.12509000000E+03 0.  0.
        -13    1    3    3    0    0 -0.16910460399E+02  0.15408108650E+02 -0.26603122151E+02  0.35087187908E+02  0.10566000000E+00 0. -1.
         23    2    1    0    0    0  0.72340998255E+01 -0.27469709321E+02  0.83915246687E+01  0.95470161770E+02  0.90759115089E+02 0.  0.
         13    1    3    3    0    0  0.24144560224E+02 -0.42877817971E+02  0.34994646820E+02  0.60382973862E+02  0.10566000000E+00 0.  1.
         22    1    1    0    0    0 -0.72340998255E+01  0.27469709321E+02 -0.83915246687E+01  0.29619838230E+02  0.00000000000E+00 0.  1.
</event>
<event>
 5    1  0.1254496E-009  0.9118800E+02  0.7815553E-02  0.1125453E+00
         25   -1    0    0    0    0  0.00000000000E+00  0.00000000000E+00  0.99999998245E-14  0.12509000000E+03  0.12509000000E+03 0.  0.
        -13    1    3    3    0    0 -0.62137284713E+02  0.30927995384E+01  0.19687983657E+01  0.62245440729E+02  0.10566000000E+00 0. -1.
         23    2    1    0    0    0 -0.25520874085E+02 -0.21629468815E+01  0.33285324724E+01  0.99262253647E+02  0.95843218422E+02 0.  0.
         13    1    3    3    0    0  0.36616410628E+02 -0.52557464200E+01  0.13597341067E+01  0.37016812918E+02  0.10566000000E+00 0.  1.
         22    1    1    0    0    0  0.25520874085E+02  0.21629468815E+01 -0.33285324724E+01  0.25827746353E+02  0.00000000000E+00 0. -1.
</event>
<event>
 5    1  0.1254496E-009  0.9118800E+02  0.7815553E-02  0.1125453E+00
         25   -1    0    0    0    0  0.00000000000E+00  0.00000000000E+00  0.99999998245E-14  0.12509000000E+03  0.12509000000E+03 0.  0.
        -13    1    3    3    0    0 -0.22657291221E+02  0.48937619585E+02 -0.24575416765E+02  0.59263865292E+02  0.10566000000E+00 0. -1.
         23    2    1    0    0    0  0.92592848019E+00  0.28524928325E+02 -0.49255739939E+01  0.96128125774E+02  0.91661477220E+02 0.  0.
         13    1    3    3    0    0  0.23583219701E+02 -0.20412691260E+02  0.19649842771E+02  0.36864260482E+02  0.10566000000E+00 0.  1.
         22    1    1    0    0    0 -0.92592848019E+00 -0.28524928325E+02  0.49255739939E+01  0.28961874226E+02  0.00000000000E+00 0. -1.
</event>
<event>
 5    1  0.1254496E-009  0.9118800E+02  0.7815553E-02  0.1125453E+00
         25   -1    0    0    0    0  0.00000000000E+00  0.00000000000E+00  0.99999998245E-14  0.12509000000E+03  0.12509000000E+03 0.  0.
        -13    1    3    3    0    0  0.41742432092E+02 -0.23717566779E+02 -0.29628765790E+02  0.56416562613E+02  0.10566000000E+00 0.  1.
         23    2    1    0    0    0  0.41295372927E+01 -0.79317057274E+01 -0.26262781773E+02  0.97346555000E+02  0.93309447699E+02 0.  0.
         13    1    3    3    0    0 -0.37612894799E+02  0.15785861052E+02  0.33659840163E+01  0.40929992386E+02  0.10566000000E+00 0. -1.
         22    1    1    0    0    0 -0.41295372927E+01  0.79317057274E+01  0.26262781773E+02  0.27743445000E+02  0.00000000000E+00 0.  1.
</event>
<event>
 5    1  0.1254496E-009  0.9118800E+02  0.7815553E-02  0.1125453E+00
         25   -1    0    0    0    0  0.00000000000E+00  0.00000000000E+00  0.99999998245E-14  0.12509000000E+03  0.12509000000E+03 0.  0.
        -13    1    3    3    0    0 -0.35315153457E+02  0.19257064898E+02  0.24557709419E+02  0.47128408292E+02  0.10566000000E+00 0.  1.
         23    2    1    0    0    0 -0.31099903764E+01  0.24317587985E+02 -0.13389492454E+02  0.97156227722E+02  0.93053946458E+02 0.  0.
         13    1    3    3    0    0  0.32205163080E+02  0.50605230863E+01 -0.37947201872E+02  0.50027819430E+02  0.10566000000E+00 0. -1.
         22    1    1    0    0    0  0.31099903764E+01 -0.24317587985E+02  0.13389492454E+02  0.27933772278E+02  0.00000000000E+00 0. -1.
</event>
<event>
 5    1  0.1254496E-009  0.9118800E+02  0.7815553E-02  0.1125453E+00
         25   -1    0    0    0    0  0.00000000000E+00  0.00000000000E+00  0.99999998245E-14  0.12509000000E+03  0.12509000000E+03 0.  0.
        -13    1    3    3    0    0  0.29216023736E+02 -0.36570955381E+01 -0.22066871361E+02  0.36795493833E+02  0.10566000000E+00 0.  1.
         23    2    1    0    0    0 -0.27180411105E+02  0.70259963049E+01 -0.81297080727E+01  0.95862760560E+02  0.91298616292E+02 0.  0.
         13    1    3    3    0    0 -0.56396434841E+02  0.10683091843E+02  0.13937163288E+02  0.59067266728E+02  0.10566000000E+00 0. -1.
         22    1    1    0    0    0  0.27180411105E+02 -0.70259963049E+01  0.81297080727E+01  0.29227239440E+02  0.00000000000E+00 0. -1.
</event>
<event>
 5    1  0.1254496E-009  0.9118800E+02  0.7815553E-02  0.1125453E+00
         25   -1    0    0    0    0  0.00000000000E+00  0.00000000000E+00  0.99999998245E-14  0.12509000000E+03  0.12509000000E+03 0.  0.
        -13    1    3    3    0    0 -0.77747440970E+01 -0.16379022492E+02 -0.29264633091E+02  0.34425992180E+02  0.10566000000E+00 0.  1.
         23    2    1    0    0    0  0.20200734610E+02  0.30691441713E+01  0.21413204167E+02  0.95492455551E+02  0.90789836599E+02 0.  0.
         13    1    3    3    0    0  0.27975478707E+02  0.19448166663E+02  0.50677837258E+02  0.61066463371E+02  0.10566000000E+00 0. -1.
         22    1    1    0    0    0 -0.20200734610E+02 -0.30691441713E+01 -0.21413204167E+02  0.29597544449E+02  0.00000000000E+00 0. -1.
</event>
<event>
 5    1  0.1254496E-009  0.9118800E+02  0.7815553E-02  0.1125453E+00
         25   -1    0    0    0    0  0.00000000000E+00  0.00000000000E+00  0.99999998245E-14  0.12509000000E+03  0.12509000000E+03 0.  0.
        -13    1    3    3    0    0 -0.14808293553E+02  0.67095859747E+01  0.42149074217E+02  0.45175875457E+02  0.10566000000E+00 0.  1.
         23    2    1    0    0    0  0.23758402915E+02 -0.10092666304E+02  0.15251031374E+02  0.95108045758E+02  0.90258643840E+02 0.  0.
         13    1    3    3    0    0  0.38566696468E+02 -0.16802252278E+02 -0.26898042844E+02  0.49932170301E+02  0.10566000000E+00 0. -1.
         22    1    1    0    0    0 -0.23758402915E+02  0.10092666304E+02 -0.15251031374E+02  0.29981954242E+02  0.00000000000E+00 0. -1.
</event>
<event>
 5    1  0.1254496E-009  0.9118800E+02  0.7815553E-02  0.1125453E+00
         25   -1    0    0    0    0  0.00000000000E+00  0.00000000000E+00  0.99999998245E-14  0.12509000000E+03  0.12509000000E+03 0.  0.
        -13    1    3    3    0    0  0.61540146281E+01  0.14671252662E+01  0.34287680406E+02  0.34866610737E+02  0.10566000000E+00 0.  1.
         23    2    1    0    0    0 -0.56462296099E+01  0.85933545372E+01 -0.26220597648E+02  0.96925387593E+02  0.92743114936E+02 0.  0.
         13    1    3    3    0    0 -0.11800244238E+02  0.71262292709E+01 -0.60508278055E+02  0.62058776856E+02  0.10566000000E+00 0. -1.
         22    1    1    0    0    0  0.56462296099E+01 -0.85933545372E+01  0.26220597648E+02  0.28164612407E+02  0.00000000000E+00 0. -1.
</event>
<event>
 5    1  0.1254496E-009  0.9118800E+02  0.7815553E-02  0.1125453E+00
         25   -1    0    0    0    0  0.00000000000E+00  0.00000000000E+00  0.99999998245E-14  0.12509000000E+03  0.12509000000E+03 0.  0.
        -13    1    3    3    0    0  0.28852662266E+02  0.36571516472E+01  0.48678979996E+02  0.56705424216E+02  0.10566000000E+00 0.  1.
         23    2    1    0    0    0  0.76566393321E+01 -0.16573981246E+02  0.23444140347E+02  0.95375547341E+02  0.90628617632E+02 0.  0.
         13    1    3    3    0    0 -0.21196022934E+02 -0.20231132893E+02 -0.25234839649E+02  0.38670123125E+02  0.10566000000E+00 0. -1.
         22    1    1    0    0    0 -0.76566393321E+01  0.16573981246E+02 -0.23444140347E+02  0.29714452659E+02  0.00000000000E+00 0.  1.
</event>
<event>
 5    1  0.1254496E-009  0.9118800E+02  0.7815553E-02  0.1125453E+00
         25   -1    0    0    0    0  0.00000000000E+00  0.00000000000E+00  0.99999998245E-14  0.12509000000E+03  0.12509000000E+03 0.  0.
        -13    1    3    3    0    0 -0.21140688168E+02  0.37911473590E+02 -0.59839777456E+01  0.43818120449E+02  0.10566000000E+00 0.  1.
         23    2    1    0    0    0 -0.18563236220E+02 -0.17388973040E+02 -0.48846553434E+01  0.99189614286E+02  0.95748366054E+02 0.  0.
         13    1    3    3    0    0  0.25774519480E+01 -0.55300446629E+02  0.10993224022E+01  0.55371493837E+02  0.10566000000E+00 0. -1.
         22    1    1    0    0    0  0.18563236220E+02  0.17388973040E+02  0.48846553434E+01  0.25900385714E+02  0.00000000000E+00 0.  1.
</event>
<event>
 5    1  0.1254496E-009  0.9118800E+02  0.7815553E-02  0.1125453E+00
         25   -1    0    0    0    0  0.00000000000E+00  0.00000000000E+00  0.99999998245E-14  0.12509000000E+03  0.12509000000E+03 0.  0.
        -13    1    3    3    0    0 -0.27979356236E+02 -0.16449097434E+02 -0.12182673102E+02  0.34667648748E+02  0.10566000000E+00 0.  1.
         23    2    1    0    0    0  0.11082093014E+02  0.16165658444E+02  0.21735316400E+02  0.95822863525E+02  0.91243936218E+02 0.  0.
         13    1    3    3    0    0  0.39061449250E+02  0.32614755878E+02  0.33917989501E+02  0.61155214776E+02  0.10566000000E+00 0. -1.
         22    1    1    0    0    0 -0.11082093014E+02 -0.16165658444E+02 -0.21735316400E+02  0.29267136475E+02  0.00000000000E+00 0. -1.
</event>
<event>
 5    1  0.1254496E-009  0.9118800E+02  0.7815553E-02  0.1125453E+00
         25   -1    0    0    0    0  0.00000000000E+00  0.00000000000E+00  0.99999998245E-14  0.12509000000E+03  0.12509000000E+03 0.  0.
        -13    1    3    3    0    0 -0.46388612157E+02  0.23423984428E+02  0.21664461582E+02  0.56302277432E+02  0.10566000000E+00 0.  1.
         23    2    1    0    0    0 -0.26504225404E+02 -0.83439788574E+01  0.10116076163E+02  0.95519221445E+02  0.90826707091E+02 0.  0.
         13    1    3    3    0    0  0.19884386753E+02 -0.31767963286E+02 -0.11548385419E+02  0.39216944012E+02  0.10566000000E+00 0. -1.
         22    1    1    0    0    0  0.26504225404E+02  0.83439788574E+01 -0.10116076163E+02  0.29570778555E+02  0.00000000000E+00 0.  1.
</event>
<event>
 5    1  0.1254496E-009  0.9118800E+02  0.7815553E-02  0.1125453E+00
         25   -1    0    0    0    0  0.00000000000E+00  0.00000000000E+00  0.99999998245E-14  0.12509000000E+03  0.12509000000E+03 0.  0.
        -13    1    3    3    0    0  0.32286039642E+02  0.35132147172E+02  0.86918670234E+01  0.48499647804E+02  0.10566000000E+00 0.  1.
         23    2    1    0    0    0  0.29144999992E+02 -0.83635535394E+01 -0.53221625076E+01  0.94305174743E+02  0.89138995491E+02 0.  0.
         13    1    3    3    0    0 -0.31410396496E+01 -0.43495700711E+02 -0.14014029531E+02  0.45805526939E+02  0.10566000000E+00 0. -1.
         22    1    1    0    0    0 -0.29144999992E+02  0.83635535394E+01  0.53221625076E+01  0.30784825257E+02  0.00000000000E+00 0. -1.
</event>
<event>
 5    1  0.1254496E-009  0.9118800E+02  0.7815553E-02  0.1125453E+00
         25   -1    0    0    0    0  0.00000000000E+00  0.00000000000E+00  0.99999998245E-14  0.12509000000E+03  0.12509000000E+03 0.  0.
        -13    1    3    3    0    0 -0.37075035933E+01  0.29710409691E+02  0.16433944863E+02  0.34154644409E+02  0.10566000000E+00 0.  1.
         23    2    1    0    0    0  0.25479348761E+02 -0.18666879177E+02 -0.16028562381E+01  0.93463765010E+02  0.87950307733E+02 0.  0.
         13    1    3    3    0    0  0.29186852355E+02 -0.48377288868E+02 -0.18036801101E+02  0.59309120602E+02  0.10566000000E+00 0. -1.
         22    1    1    0    0    0 -0.25479348761E+02  0.18666879177E+02  0.16028562381E+01  0.31626234990E+02  0.00000000000E+00 0. -1.
</event>
<event>
 5    1  0.1254496E-009  0.9118800E+02  0.7815553E-02  0.1125453E+00
         25   -1    0    0    0    0  0.00000000000E+00  0.00000000000E+00  0.99999998245E-14  0.12509000000E+03  0.12509000000E+03 0.  0.
        -13    1    3    3    0    0 -0.21670918480E+02 -0.53290790964E+02  0.12164101268E+02  0.58800626127E+02  0.10566000000E+00 0.  1.
         23    2    1    0    0    0 -0.26672231209E+00 -0.22933646229E+02  0.17385419596E+02  0.96310213957E+02  0.91909636207E+02 0.  0.
         13    1    3    3    0    0  0.21404196167E+02  0.30357144735E+02  0.52213183280E+01  0.37509587829E+02  0.10566000000E+00 0. -1.
         22    1    1    0    0    0  0.26672231209E+00  0.22933646229E+02 -0.17385419596E+02  0.28779786043E+02  0.00000000000E+00 0.  1.
</event>
<event>
 5    1  0.1254496E-009  0.9118800E+02  0.7815553E-02  0.1125453E+00
         25   -1    0    0    0    0  0.00000000000E+00  0.00000000000E+00  0.99999998245E-14  0.12509000000E+03  0.12509000000E+03 0.  0.
        -13    1    3    3    0    0  0.18627832311E+02 -0.23494455250E+02 -0.17818480173E+02  0.34878287857E+02  0.10566000000E+00 0.  1.
         23    2    1    0    0    0 -0.22067961697E+02  0.53012511673E+01  0.17881892306E+02  0.96196051328E+02  0.91754128089E+02 0.  0.
         13    1    3    3    0    0 -0.40695794008E+02  0.28795706418E+02  0.35700372479E+02  0.61317763472E+02  0.10566000000E+00 0. -1.
         22    1    1    0    0    0  0.22067961697E+02 -0.53012511673E+01 -0.17881892306E+02  0.28893948672E+02  0.00000000000E+00 0. -1.
</event>
<event>
 5    1  0.1254496E-009  0.9118800E+02  0.7815553E-02  0.1125453E+00
         25   -1    0    0    0    0  0.00000000000E+00  0.00000000000E+00  0.99999998245E-14  0.12509000000E+03  0.12509000000E+03 0.  0.
        -13    1    3    3    0    0  0.50865960906E+02 -0.13169480533E+02  0.33176092767E+02  0.62140530185E+02  0.10566000000E+00 0.  1.
         23    2    1    0    0    0  0.20648879057E+02 -0.10346340263E+02  0.15725026254E+02  0.97149001202E+02  0.93044231529E+02 0.  0.
         13    1    3    3    0    0 -0.30217081849E+02  0.28231402697E+01 -0.17451066513E+02  0.35008471017E+02  0.10566000000E+00 0. -1.
         22    1    1    0    0    0 -0.20648879057E+02  0.10346340263E+02 -0.15725026254E+02  0.27940998798E+02  0.00000000000E+00 0.  1.
</event>
<event>
 5    1  0.1254496E-009  0.9118800E+02  0.7815553E-02  0.1125453E+00
         25   -1    0    0    0    0  0.00000000000E+00  0.00000000000E+00  0.99999998245E-14  0.12509000000E+03  0.12509000000E+03 0.  0.
        -13    1    3    3    0    0 -0.32916304546E+02 -0.14667793934E+02  0.80768983535E+01  0.36930674715E+02  0.10566000000E+00 0.  1.
         23    2    1    0    0    0  0.74960166877E+01  0.10104186605E+02 -0.26602206823E+02  0.95662763280E+02  0.91024183696E+02 0.  0.
         13    1    3    3    0    0  0.40412321234E+02  0.24771980539E+02 -0.34679105176E+02  0.58732088565E+02  0.10566000000E+00 0. -1.
         22    1    1    0    0    0 -0.74960166877E+01 -0.10104186605E+02  0.26602206823E+02  0.29427236720E+02  0.00000000000E+00 0. -1.
</event>
<event>
 5    1  0.1254496E-009  0.9118800E+02  0.7815553E-02  0.1125453E+00
         25   -1    0    0    0    0  0.00000000000E+00  0.00000000000E+00  0.99999998245E-14  0.12509000000E+03  0.12509000000E+03 0.  0.
        -13    1    3    3    0    0  0.49576974988E+02 -0.12090103515E+01  0.16202493401E+02  0.52171545036E+02  0.10566000000E+00 0.  1.
         23    2    1    0    0    0  0.22919094143E+02 -0.64976136606E+00 -0.18284171606E+02  0.95763936550E+02  0.91163115053E+02 0.  0.
         13    1    3    3    0    0 -0.26657880845E+02  0.55924898540E+00 -0.34486665007E+02  0.43592391514E+02  0.10566000000E+00 0. -1.
         22    1    1    0    0    0 -0.22919094143E+02  0.64976136606E+00  0.18284171606E+02  0.29326063450E+02  0.00000000000E+00 0.  1.
</event>
<event>
 5    1  0.1254496E-009  0.9118800E+02  0.7815553E-02  0.1125453E+00
         25   -1    0    0    0    0  0.00000000000E+00  0.00000000000E+00  0.99999998245E-14  0.12509000000E+03  0.12509000000E+03 0.  0.
        -13    1    3    3    0    0 -0.12990029908E+02  0.34112731795E+02 -0.48087295973E+02  0.60372332617E+02  0.10566000000E+00 0. -1.
         23    2    1    0    0    0 -0.53606886129E+01  0.44867442608E+01 -0.26160953636E+02  0.98011164139E+02  0.94196204511E+02 0.  0.
         13    1    3    3    0    0  0.76293412949E+01 -0.29625987535E+02  0.21926342337E+02  0.37638831522E+02  0.10566000000E+00 0.  1.
         22    1    1    0    0    0  0.53606886129E+01 -0.44867442608E+01  0.26160953636E+02  0.27078835861E+02  0.00000000000E+00 0. -1.
</event>
<event>
 5    1  0.1254496E-009  0.9118800E+02  0.7815553E-02  0.1125453E+00
         25   -1    0    0    0    0  0.00000000000E+00  0.00000000000E+00  0.99999998245E-14  0.12509000000E+03  0.12509000000E+03 0.  0.
        -13    1    3    3    0    0 -0.17759635880E+02 -0.12917830400E+02  0.30468479751E+02  0.37558147334E+02  0.10566000000E+00 0.  1.
         23    2    1    0    0    0  0.14028617214E+02 -0.20269531417E+02 -0.16990816016E+02  0.95150998118E+02  0.90318152157E+02 0.  0.
         13    1    3    3    0    0  0.31788253094E+02 -0.73517010169E+01 -0.47459295767E+02  0.57592850783E+02  0.10566000000E+00 0. -1.
         22    1    1    0    0    0 -0.14028617214E+02  0.20269531417E+02  0.16990816016E+02  0.29939001882E+02  0.00000000000E+00 0. -1.
</event>
<event>
 5    1  0.1254496E-009  0.9118800E+02  0.7815553E-02  0.1125453E+00
         25   -1    0    0    0    0  0.00000000000E+00  0.00000000000E+00  0.99999998245E-14  0.12509000000E+03  0.12509000000E+03 0.  0.
        -13    1    3    3    0    0 -0.12683572849E+02  0.69458731094E+01  0.59362458365E+02  0.61098533540E+02  0.10566000000E+00 0. -1.
         23    2    1    0    0    0 -0.15850588766E+01  0.74590389599E+01  0.45932408245E+02  0.78528902494E+02  0.63236482554E+02 0.  0.
         13    1    3    3    0    0  0.11098513973E+02  0.51316585049E+00 -0.13430050121E+02  0.17430368954E+02  0.10566000000E+00 0.  1.
         22    1    1    0    0    0  0.15850588766E+01 -0.74590389599E+01 -0.45932408245E+02  0.46561097506E+02  0.00000000000E+00 0. -1.
</event>
<event>
 5    1  0.1254496E-009  0.9118800E+02  0.7815553E-02  0.1125453E+00
         25   -1    0    0    0    0  0.00000000000E+00  0.00000000000E+00  0.99999998245E-14  0.12509000000E+03  0.12509000000E+03 0.  0.
        -13    1    3    3    0    0 -0.48038171408E+01 -0.26543165382E+02  0.20561558651E+02  0.33917622939E+02  0.10566000000E+00 0. -1.
         23    2    1    0    0    0 -0.11041229807E+02  0.14004081694E+02 -0.24455113263E+02  0.94823258774E+02  0.89863089086E+02 0.  0.
         13    1    3    3    0    0 -0.62374126667E+01  0.40547247076E+02 -0.45016671914E+02  0.60905635835E+02  0.10566000000E+00 0.  1.
         22    1    1    0    0    0  0.11041229807E+02 -0.14004081694E+02  0.24455113263E+02  0.30266741226E+02  0.00000000000E+00 0.  1.
</event>
<event>
 5    1  0.1254496E-009  0.9118800E+02  0.7815553E-02  0.1125453E+00
         25   -1    0    0    0    0  0.00000000000E+00  0.00000000000E+00  0.99999998245E-14  0.12509000000E+03  0.12509000000E+03 0.  0.
        -13    1    3    3    0    0 -0.24172487364E+01  0.16490358265E+02 -0.55622669775E+02  0.58066062068E+02  0.10566000000E+00 0. -1.
         23    2    1    0    0    0 -0.72332424955E+01 -0.78574381953E+01 -0.27577621002E+02  0.95516628327E+02  0.90823135680E+02 0.  0.
         13    1    3    3    0    0 -0.48159937592E+01 -0.24347796461E+02  0.28045048773E+02  0.37450566259E+02  0.10566000000E+00 0.  1.
         22    1    1    0    0    0  0.72332424955E+01  0.78574381953E+01  0.27577621002E+02  0.29573371673E+02  0.00000000000E+00 0. -1.
</event>
<event>
 5    1  0.1254496E-009  0.9118800E+02  0.7815553E-02  0.1125453E+00
         25   -1    0    0    0    0  0.00000000000E+00  0.00000000000E+00  0.99999998245E-14  0.12509000000E+03  0.12509000000E+03 0.  0.
        -13    1    3    3    0    0  0.58742863446E+02 -0.20149847510E+02  0.79396138030E+00  0.62107824782E+02  0.10566000000E+00 0. -1.
         23    2    1    0    0    0  0.27948231662E+02 -0.45570427757E+01 -0.17481052314E+01  0.96718779304E+02  0.92464026012E+02 0.  0.
         13    1    3    3    0    0 -0.30794631784E+02  0.15592804734E+02 -0.25420666117E+01  0.34610954522E+02  0.10566000000E+00 0.  1.
         22    1    1    0    0    0 -0.27948231662E+02  0.45570427757E+01  0.17481052314E+01  0.28371220696E+02  0.00000000000E+00 0. -1.
</event>
<event>
 5    1  0.1254496E-009  0.9118800E+02  0.7815553E-02  0.1125453E+00
         25   -1    0    0    0    0  0.00000000000E+00  0.00000000000E+00  0.99999998245E-14  0.12509000000E+03  0.12509000000E+03 0.  0.
        -13    1    3    3    0    0 -0.33311833368E+02  0.27720987528E+02 -0.35055030721E+02  0.55740449718E+02  0.10566000000E+00 0. -1.
         23    2    1    0    0    0  0.68416376067E+00  0.70440645804E+01 -0.28072880097E+02  0.96138773380E+02  0.91676006808E+02 0.  0.
         13    1    3    3    0    0  0.33995997128E+02 -0.20676922948E+02  0.69821506246E+01  0.40398323662E+02  0.10566000000E+00 0.  1.
         22    1    1    0    0    0 -0.68416376067E+00 -0.70440645804E+01  0.28072880097E+02  0.28951226620E+02  0.00000000000E+00 0. -1.
</event>
<event>
 5    1  0.1254496E-009  0.9118800E+02  0.7815553E-02  0.1125453E+00
         25   -1    0    0    0    0  0.00000000000E+00  0.00000000000E+00  0.99999998245E-14  0.12509000000E+03  0.12509000000E+03 0.  0.
        -13    1    3    3    0    0 -0.11735373237E+02  0.57881624403E+02  0.21149219706E+01  0.59097254484E+02  0.10566000000E+00 0.  1.
         23    2    1    0    0    0 -0.14278504605E+02  0.22687844615E+02  0.11967938708E+02  0.95732794003E+02  0.91120372605E+02 0.  0.
         13    1    3    3    0    0 -0.25431313679E+01 -0.35193779788E+02  0.98530167379E+01  0.36635539519E+02  0.10566000000E+00 0. -1.
         22    1    1    0    0    0  0.14278504605E+02 -0.22687844615E+02 -0.11967938708E+02  0.29357205997E+02  0.00000000000E+00 0.  1.
</event>
<event>
 5    1  0.1254496E-009  0.9118800E+02  0.7815553E-02  0.1125453E+00
         25   -1    0    0    0    0  0.00000000000E+00  0.00000000000E+00  0.99999998245E-14  0.12509000000E+03  0.12509000000E+03 0.  0.
        -13    1    3    3    0    0 -0.58340503418E+01  0.19008778034E+02 -0.44027588746E+02  0.48309517908E+02  0.10566000000E+00 0.  1.
         23    2    1    0    0    0 -0.25946343497E+02  0.12102265461E+02 -0.84121752984E+00  0.96447632482E+02  0.92096474386E+02 0.  0.
         13    1    3    3    0    0 -0.20112293155E+02 -0.69065125734E+01  0.43186371216E+02  0.48138114574E+02  0.10566000000E+00 0. -1.
         22    1    1    0    0    0  0.25946343497E+02 -0.12102265461E+02  0.84121752984E+00  0.28642367518E+02  0.00000000000E+00 0. -1.
</event>
<event>
 5    1  0.1254496E-009  0.9118800E+02  0.7815553E-02  0.1125453E+00
         25   -1    0    0    0    0  0.00000000000E+00  0.00000000000E+00  0.99999998245E-14  0.12509000000E+03  0.12509000000E+03 0.  0.
        -13    1    3    3    0    0  0.14072284168E+02  0.53076941622E+02  0.26872042490E+02  0.61133532085E+02  0.10566000000E+00 0.  1.
         23    2    1    0    0    0  0.15460695530E+02  0.24520830781E+02  0.95127203691E+01  0.94581048899E+02  0.89525296501E+02 0.  0.
         13    1    3    3    0    0  0.13884113622E+01 -0.28556110841E+02 -0.17359322121E+02  0.33447516813E+02  0.10566000000E+00 0. -1.
         22    1    1    0    0    0 -0.15460695530E+02 -0.24520830781E+02 -0.95127203691E+01  0.30508951101E+02  0.00000000000E+00 0.  1.
</event>
<event>
 5    1  0.1254496E-009  0.9118800E+02  0.7815553E-02  0.1125453E+00
         25   -1    0    0    0    0  0.00000000000E+00  0.00000000000E+00  0.99999998245E-14  0.12509000000E+03  0.12509000000E+03 0.  0.
        -13    1    3    3    0    0 -0.15917086455E+01  0.52127415014E+02 -0.92681804297E+01  0.52968965112E+02  0.10566000000E+00 0.  1.
         23    2    1    0    0    0  0.14914489006E+02  0.31626952444E+02  0.13338877922E+02  0.87664984738E+02  0.79274950531E+02 0.  0.
         13    1    3    3    0    0  0.16506197652E+02 -0.20500462571E+02  0.22607058352E+02  0.34696019626E+02  0.10566000000E+00 0. -1.
         22    1    1    0    0    0 -0.14914489006E+02 -0.31626952444E+02 -0.13338877922E+02  0.37425015262E+02  0.00000000000E+00 0.  1.
</event>
<event>
 5    1  0.1254496E-009  0.9118800E+02  0.7815553E-02  0.1125453E+00
         25   -1    0    0    0    0  0.00000000000E+00  0.00000000000E+00  0.99999998245E-14  0.12509000000E+03  0.12509000000E+03 0.  0.
        -13    1    3    3    0    0  0.27368769273E+02 -0.17189524933E+02 -0.27004040778E+02  0.42116014547E+02  0.10566000000E+00 0.  1.
         23    2    1    0    0    0 -0.11324607996E+02 -0.25075855813E+02  0.95883844948E+01  0.95952697306E+02  0.91421757324E+02 0.  0.
         13    1    3    3    0    0 -0.38693377269E+02 -0.78863308802E+01  0.36592425273E+02  0.53836682760E+02  0.10566000000E+00 0. -1.
         22    1    1    0    0    0  0.11324607996E+02  0.25075855813E+02 -0.95883844948E+01  0.29137302694E+02  0.00000000000E+00 0. -1.
</event>
<event>
 5    1  0.1254496E-009  0.9118800E+02  0.7815553E-02  0.1125453E+00
         25   -1    0    0    0    0  0.00000000000E+00  0.00000000000E+00  0.99999998245E-14  0.12509000000E+03  0.12509000000E+03 0.  0.
        -13    1    3    3    0    0  0.49743859218E+00  0.53467377060E+02 -0.18208354537E+01  0.53500789346E+02  0.10566000000E+00 0. -1.
         23    2    1    0    0    0 -0.22509465532E+02  0.19639019250E+02  0.44451128978E+01  0.94888573803E+02  0.89953962081E+02 0.  0.
         13    1    3    3    0    0 -0.23006904124E+02 -0.33828357810E+02  0.62659483515E+01  0.41387784457E+02  0.10566000000E+00 0.  1.
         22    1    1    0    0    0  0.22509465532E+02 -0.19639019250E+02 -0.44451128978E+01  0.30201426197E+02  0.00000000000E+00 0.  1.
</event>
<event>
 5    1  0.1254496E-009  0.9118800E+02  0.7815553E-02  0.1125453E+00
         25   -1    0    0    0    0  0.00000000000E+00  0.00000000000E+00  0.99999998245E-14  0.12509000000E+03  0.12509000000E+03 0.  0.
        -13    1    3    3    0    0  0.29623552301E+02 -0.20799946481E+02 -0.37725928193E+02  0.52282400927E+02  0.10566000000E+00 0. -1.
         23    2    1    0    0    0  0.17299560725E+02  0.14243741250E+02 -0.24922129882E+02  0.91574756842E+02  0.85221268278E+02 0.  0.
         13    1    3    3    0    0 -0.12323991577E+02  0.35043687731E+02  0.12803798312E+02  0.39292355916E+02  0.10566000000E+00 0.  1.
         22    1    1    0    0    0 -0.17299560725E+02 -0.14243741250E+02  0.24922129882E+02  0.33515243158E+02  0.00000000000E+00 0. -1.
</event>
<event>
 5    1  0.1254496E-009  0.9118800E+02  0.7815553E-02  0.1125453E+00
         25   -1    0    0    0    0  0.00000000000E+00  0.00000000000E+00  0.99999998245E-14  0.12509000000E+03  0.12509000000E+03 0.  0.
        -13    1    3    3    0    0 -0.71365446440E+01 -0.20874568676E+02  0.49869197572E+02  0.54530962924E+02  0.10566000000E+00 0.  1.
         23    2    1    0    0    0 -0.24298851353E+02 -0.43808871549E+01  0.17004454125E+02  0.95110376763E+02  0.90261874336E+02 0.  0.
         13    1    3    3    0    0 -0.17162306709E+02  0.16493681521E+02 -0.32864743447E+02  0.40579413840E+02  0.10566000000E+00 0. -1.
         22    1    1    0    0    0  0.24298851353E+02  0.43808871549E+01 -0.17004454125E+02  0.29979623237E+02  0.00000000000E+00 0.  1.
</event>
<event>
 5    1  0.1254496E-009  0.9118800E+02  0.7815553E-02  0.1125453E+00
         25   -1    0    0    0    0  0.00000000000E+00  0.00000000000E+00  0.99999998245E-14  0.12509000000E+03  0.12509000000E+03 0.  0.
        -13    1    3    3    0    0 -0.22016587205E+01  0.31820836013E+02 -0.42257657663E+02  0.52944628631E+02  0.10566000000E+00 0. -1.
         23    2    1    0    0    0 -0.95398484543E+01  0.25933112101E+02  0.12222005791E+01  0.97430846252E+02  0.93422379628E+02 0.  0.
         13    1    3    3    0    0 -0.73381897337E+01 -0.58877239117E+01  0.43479858242E+02  0.44486217621E+02  0.10566000000E+00 0.  1.
         22    1    1    0    0    0  0.95398484543E+01 -0.25933112101E+02 -0.12222005791E+01  0.27659153748E+02  0.00000000000E+00 0. -1.
</event>
<event>
 5    1  0.1254496E-009  0.9118800E+02  0.7815553E-02  0.1125453E+00
         25   -1    0    0    0    0  0.00000000000E+00  0.00000000000E+00  0.99999998245E-14  0.12509000000E+03  0.12509000000E+03 0.  0.
        -13    1    3    3    0    0 -0.21214931799E+02  0.76519655389E+00 -0.11660505281E+02  0.24220598764E+02  0.10566000000E+00 0.  1.
         23    2    1    0    0    0 -0.34183785814E+01  0.24899190023E+01  0.43077757694E+02  0.81805150264E+02  0.69415447798E+02 0.  0.
         13    1    3    3    0    0  0.17796553218E+02  0.17247224485E+01  0.54738262975E+02  0.57584551500E+02  0.10566000000E+00 0. -1.
         22    1    1    0    0    0  0.34183785814E+01 -0.24899190023E+01 -0.43077757694E+02  0.43284849736E+02  0.00000000000E+00 0. -1.
</event>
<event>
 5    1  0.1254496E-009  0.9118800E+02  0.7815553E-02  0.1125453E+00
         25   -1    0    0    0    0  0.00000000000E+00  0.00000000000E+00  0.99999998245E-14  0.12509000000E+03  0.12509000000E+03 0.  0.
        -13    1    3    3    0    0 -0.30628401200E+02 -0.30207356459E+01  0.19879313388E+02  0.36639078437E+02  0.10566000000E+00 0. -1.
         23    2    1    0    0    0  0.25736040311E+02 -0.78309228061E+01 -0.37186154946E+01  0.97933136704E+02  0.94092529144E+02 0.  0.
         13    1    3    3    0    0  0.56364441510E+02 -0.48101871602E+01 -0.23597928882E+02  0.61294058267E+02  0.10566000000E+00 0.  1.
         22    1    1    0    0    0 -0.25736040311E+02  0.78309228061E+01  0.37186154946E+01  0.27156863296E+02  0.00000000000E+00 0.  1.
</event>
<event>
 5    1  0.1254496E-009  0.9118800E+02  0.7815553E-02  0.1125453E+00
         25   -1    0    0    0    0  0.00000000000E+00  0.00000000000E+00  0.99999998245E-14  0.12509000000E+03  0.12509000000E+03 0.  0.
        -13    1    3    3    0    0 -0.27287882022E+02  0.51479596064E+02  0.99772254217E+01  0.59112887828E+02  0.10566000000E+00 0.  1.
         23    2    1    0    0    0 -0.19453129867E+01  0.25629509648E+02  0.14473891341E+02  0.95591702796E+02  0.90926476372E+02 0.  0.
         13    1    3    3    0    0  0.25342569035E+02 -0.25850086417E+02  0.44966659188E+01  0.36478814968E+02  0.10566000000E+00 0. -1.
         22    1    1    0    0    0  0.19453129867E+01 -0.25629509648E+02 -0.14473891341E+02  0.29498297204E+02  0.00000000000E+00 0.  1.
</event>
<event>
 5    1  0.1254496E-009  0.9118800E+02  0.7815553E-02  0.1125453E+00
         25   -1    0    0    0    0  0.00000000000E+00  0.00000000000E+00  0.99999998245E-14  0.12509000000E+03  0.12509000000E+03 0.  0.
        -13    1    3    3    0    0  0.32557221968E+02 -0.25179523672E+02  0.66107093288E+01  0.41685654084E+02  0.10566000000E+00 0. -1.
         23    2    1    0    0    0 -0.16193144615E+02 -0.50688251956E+01  0.22634167742E+02  0.96801902312E+02  0.92576410713E+02 0.  0.
         13    1    3    3    0    0 -0.48750366583E+02  0.20110698476E+02  0.16023458413E+02  0.55116248228E+02  0.10566000000E+00 0.  1.
         22    1    1    0    0    0  0.16193144615E+02  0.50688251956E+01 -0.22634167742E+02  0.28288097688E+02  0.00000000000E+00 0.  1.
</event>
<event>
 5    1  0.1254496E-009  0.9118800E+02  0.7815553E-02  0.1125453E+00
         25   -1    0    0    0    0  0.00000000000E+00  0.00000000000E+00  0.99999998245E-14  0.12509000000E+03  0.12509000000E+03 0.  0.
        -13    1    3    3    0    0 -0.28453776911E+02  0.15266964000E+02  0.16887826645E+02  0.36440464639E+02  0.10566000000E+00 0. -1.
         23    2    1    0    0    0  0.28519582959E+02  0.27991831285E+01  0.41866043795E+01  0.96129169650E+02  0.91662901782E+02 0.  0.
         13    1    3    3    0    0  0.56973359870E+02 -0.12467780872E+02 -0.12701222266E+02  0.59688705011E+02  0.10566000000E+00 0.  1.
         22    1    1    0    0    0 -0.28519582959E+02 -0.27991831285E+01 -0.41866043795E+01  0.28960830350E+02  0.00000000000E+00 0.  1.
</event>
<event>
 5    1  0.1254496E-009  0.9118800E+02  0.7815553E-02  0.1125453E+00
         25   -1    0    0    0    0  0.00000000000E+00  0.00000000000E+00  0.99999998245E-14  0.12509000000E+03  0.12509000000E+03 0.  0.
        -13    1    3    3    0    0 -0.38357995066E+01  0.32970728036E+02  0.94655893097E+01  0.34516529520E+02  0.10566000000E+00 0. -1.
         23    2    1    0    0    0  0.56245275838E+01 -0.19023549027E+02 -0.21554744838E+02  0.95796011655E+02  0.91207116475E+02 0.  0.
         13    1    3    3    0    0  0.94603270903E+01 -0.51994277063E+02 -0.31020334148E+02  0.61279482135E+02  0.10566000000E+00 0.  1.
         22    1    1    0    0    0 -0.56245275838E+01  0.19023549027E+02  0.21554744838E+02  0.29293988345E+02  0.00000000000E+00 0.  1.
</event>
<event>
 5    1  0.1254496E-009  0.9118800E+02  0.7815553E-02  0.1125453E+00
         25   -1    0    0    0    0  0.00000000000E+00  0.00000000000E+00  0.99999998245E-14  0.12509000000E+03  0.12509000000E+03 0.  0.
        -13    1    3    3    0    0  0.36661838681E+02 -0.41752556072E+02 -0.18596739227E+02  0.58593653478E+02  0.10566000000E+00 0.  1.
         23    2    1    0    0    0  0.65707041659E+01 -0.24608865315E+02 -0.19138428472E+02  0.93230153019E+02  0.87617415975E+02 0.  0.
         13    1    3    3    0    0 -0.30091134515E+02  0.17143690757E+02 -0.54168924423E+00  0.34636499541E+02  0.10566000000E+00 0. -1.
         22    1    1    0    0    0 -0.65707041659E+01  0.24608865315E+02  0.19138428472E+02  0.31859846981E+02  0.00000000000E+00 0.  1.
</event>
<event>
 5    1  0.1254496E-009  0.9118800E+02  0.7815553E-02  0.1125453E+00
         25   -1    0    0    0    0  0.00000000000E+00  0.00000000000E+00  0.99999998245E-14  0.12509000000E+03  0.12509000000E+03 0.  0.
        -13    1    3    3    0    0  0.81442873698E+01  0.23705175399E+02 -0.28977916893E+02  0.38314430558E+02  0.10566000000E+00 0. -1.
         23    2    1    0    0    0  0.59460551251E+01 -0.28622492954E+02 -0.13208764414E+02  0.93010814664E+02  0.87303708470E+02 0.  0.
         13    1    3    3    0    0 -0.21982322447E+01 -0.52327668354E+02  0.15769152479E+02  0.54696384106E+02  0.10566000000E+00 0.  1.
         22    1    1    0    0    0 -0.59460551251E+01  0.28622492954E+02  0.13208764414E+02  0.32079185336E+02  0.00000000000E+00 0.  1.
</event>
<event>
 5    1  0.1254496E-009  0.9118800E+02  0.7815553E-02  0.1125453E+00
         25   -1    0    0    0    0  0.00000000000E+00  0.00000000000E+00  0.99999998245E-14  0.12509000000E+03  0.12509000000E+03 0.  0.
        -13    1    3    3    0    0 -0.15663298905E+01 -0.54283948682E+02 -0.23715916834E+02  0.59259230076E+02  0.10566000000E+00 0. -1.
         23    2    1    0    0    0  0.10776499712E+02 -0.16863581805E+02 -0.34121485306E+00  0.10507426207E+03  0.10315023405E+03 0.  0.
         13    1    3    3    0    0  0.12342829602E+02  0.37420366877E+02  0.23374701981E+02  0.45815031993E+02  0.10566000000E+00 0.  1.
         22    1    1    0    0    0 -0.10776499712E+02  0.16863581805E+02  0.34121485306E+00  0.20015737931E+02  0.00000000000E+00 0. -1.
</event>
<event>
 5    1  0.1254496E-009  0.9118800E+02  0.7815553E-02  0.1125453E+00
         25   -1    0    0    0    0  0.00000000000E+00  0.00000000000E+00  0.99999998245E-14  0.12509000000E+03  0.12509000000E+03 0.  0.
        -13    1    3    3    0    0  0.25900999933E+02  0.19460431908E+02  0.47237076137E+02  0.57279339500E+02  0.10566000000E+00 0.  1.
         23    2    1    0    0    0 -0.33052703773E+01  0.69907953167E+01  0.31372498890E+02  0.92778551286E+02  0.86970281480E+02 0.  0.
         13    1    3    3    0    0 -0.29206270310E+02 -0.12469636591E+02 -0.15864577247E+02  0.35499211786E+02  0.10566000000E+00 0. -1.
         22    1    1    0    0    0  0.33052703773E+01 -0.69907953167E+01 -0.31372498890E+02  0.32311448714E+02  0.00000000000E+00 0.  1.
</event>
<event>
 5    1  0.1254496E-009  0.9118800E+02  0.7815553E-02  0.1125453E+00
         25   -1    0    0    0    0  0.00000000000E+00  0.00000000000E+00  0.99999998245E-14  0.12509000000E+03  0.12509000000E+03 0.  0.
        -13    1    3    3    0    0 -0.49761720334E+02  0.24983136430E+02 -0.79437211811E+01  0.56244997882E+02  0.10566000000E+00 0. -1.
         23    2    1    0    0    0 -0.16862996113E+02  0.18888764411E+02  0.13901914439E+02  0.96203856541E+02  0.91764768454E+02 0.  0.
         13    1    3    3    0    0  0.32898724221E+02 -0.60943720193E+01  0.21845635620E+02  0.39958858659E+02  0.10566000000E+00 0.  1.
         22    1    1    0    0    0  0.16862996113E+02 -0.18888764411E+02 -0.13901914439E+02  0.28886143459E+02  0.00000000000E+00 0. -1.
</event>
<event>
 5    1  0.1254496E-009  0.9118800E+02  0.7815553E-02  0.1125453E+00
         25   -1    0    0    0    0  0.00000000000E+00  0.00000000000E+00  0.99999998245E-14  0.12509000000E+03  0.12509000000E+03 0.  0.
        -13    1    3    3    0    0  0.18145818009E+02  0.29369216657E+02 -0.26902805951E+01  0.34627595526E+02  0.10566000000E+00 0.  1.
         23    2    1    0    0    0 -0.15553521277E+02 -0.19288990092E+02 -0.16390504650E+02  0.95380981074E+02  0.90636117222E+02 0.  0.
         13    1    3    3    0    0 -0.33699339286E+02 -0.48658206748E+02 -0.13700224055E+02  0.60753385547E+02  0.10566000000E+00 0. -1.
         22    1    1    0    0    0  0.15553521277E+02  0.19288990092E+02  0.16390504650E+02  0.29709018926E+02  0.00000000000E+00 0. -1.
</event>
<event>
 5    1  0.1254496E-009  0.9118800E+02  0.7815553E-02  0.1125453E+00
         25   -1    0    0    0    0  0.00000000000E+00  0.00000000000E+00  0.99999998245E-14  0.12509000000E+03  0.12509000000E+03 0.  0.
        -13    1    3    3    0    0 -0.13217112897E+02  0.34797437733E+02 -0.29956777494E+02  0.47780471198E+02  0.10566000000E+00 0. -1.
         23    2    1    0    0    0 -0.20654073932E+02 -0.18592757051E+01 -0.33856861044E+02  0.85386918056E+02  0.75594914241E+02 0.  0.
         13    1    3    3    0    0 -0.74369610353E+01 -0.36656713438E+02 -0.39000835503E+01  0.37606446857E+02  0.10566000000E+00 0.  1.
         22    1    1    0    0    0  0.20654073932E+02  0.18592757051E+01  0.33856861044E+02  0.39703081944E+02  0.00000000000E+00 0. -1.
</event>
<event>
 5    1  0.1254496E-009  0.9118800E+02  0.7815553E-02  0.1125453E+00
         25   -1    0    0    0    0  0.00000000000E+00  0.00000000000E+00  0.99999998245E-14  0.12509000000E+03  0.12509000000E+03 0.  0.
        -13    1    3    3    0    0 -0.57495528377E+01  0.17981826913E+02 -0.37640237902E+02  0.42109406672E+02  0.10566000000E+00 0.  1.
         23    2    1    0    0    0  0.14809838251E+01  0.18754063641E+02  0.18492006435E+02  0.98710793831E+02  0.95120756413E+02 0.  0.
         13    1    3    3    0    0  0.72305366628E+01  0.77223672764E+00  0.56132244337E+02  0.56601387159E+02  0.10566000000E+00 0. -1.
         22    1    1    0    0    0 -0.14809838251E+01 -0.18754063641E+02 -0.18492006435E+02  0.26379206169E+02  0.00000000000E+00 0. -1.
</event>
<event>
 5    1  0.1254496E-009  0.9118800E+02  0.7815553E-02  0.1125453E+00
         25   -1    0    0    0    0  0.00000000000E+00  0.00000000000E+00  0.99999998245E-14  0.12509000000E+03  0.12509000000E+03 0.  0.
        -13    1    3    3    0    0 -0.48113043792E+01 -0.42400604036E+02  0.25422036768E+02  0.49671430319E+02  0.10566000000E+00 0.  1.
         23    2    1    0    0    0 -0.26693287695E+02 -0.42692203702E+01  0.10238377363E+02  0.96183560898E+02  0.91737098088E+02 0.  0.
         13    1    3    3    0    0 -0.21881983316E+02  0.38131383666E+02 -0.15183659405E+02  0.46512130580E+02  0.10566000000E+00 0. -1.
         22    1    1    0    0    0  0.26693287695E+02  0.42692203702E+01 -0.10238377363E+02  0.28906439102E+02  0.00000000000E+00 0.  1.
</event>
<event>
 5    1  0.1254496E-009  0.9118800E+02  0.7815553E-02  0.1125453E+00
         25   -1    0    0    0    0  0.00000000000E+00  0.00000000000E+00  0.99999998245E-14  0.12509000000E+03  0.12509000000E+03 0.  0.
        -13    1    3    3    0    0  0.24782844820E+02 -0.57527119645E+01  0.40885730707E+02  0.48155344790E+02  0.10566000000E+00 0. -1.
         23    2    1    0    0    0  0.15227062705E+02 -0.25270671863E+02 -0.12441944200E+01  0.95560043773E+02  0.90882911766E+02 0.  0.
         13    1    3    3    0    0 -0.95557821151E+01 -0.19517959898E+02 -0.42129925127E+02  0.47404698983E+02  0.10566000000E+00 0.  1.
         22    1    1    0    0    0 -0.15227062705E+02  0.25270671863E+02  0.12441944200E+01  0.29529956227E+02  0.00000000000E+00 0. -1.
</event>
<event>
 5    1  0.1254496E-009  0.9118800E+02  0.7815553E-02  0.1125453E+00
         25   -1    0    0    0    0  0.00000000000E+00  0.00000000000E+00  0.99999998245E-14  0.12509000000E+03  0.12509000000E+03 0.  0.
        -13    1    3    3    0    0  0.30680494866E+02  0.14965774216E+02  0.34761111886E+02  0.48719741653E+02  0.10566000000E+00 0.  1.
         23    2    1    0    0    0 -0.13239669790E+02  0.19598820517E+02  0.14835106579E+02  0.97170777070E+02  0.93073502713E+02 0.  0.
         13    1    3    3    0    0 -0.43920164656E+02  0.46330463012E+01 -0.19926005306E+02  0.48451035417E+02  0.10566000000E+00 0. -1.
         22    1    1    0    0    0  0.13239669790E+02 -0.19598820517E+02 -0.14835106579E+02  0.27919222930E+02  0.00000000000E+00 0.  1.
</event>
<event>
 5    1  0.1254496E-009  0.9118800E+02  0.7815553E-02  0.1125453E+00
         25   -1    0    0    0    0  0.00000000000E+00  0.00000000000E+00  0.99999998245E-14  0.12509000000E+03  0.12509000000E+03 0.  0.
        -13    1    3    3    0    0  0.31694889530E+01  0.31647969361E+02 -0.77656919384E+01  0.32740750759E+02  0.10566000000E+00 0.  1.
         23    2    1    0    0    0 -0.13267847527E+01 -0.24338907602E+02  0.18249502036E+02  0.94640252783E+02  0.89607981459E+02 0.  0.
         13    1    3    3    0    0 -0.44962737057E+01 -0.55986876963E+02  0.26015193975E+02  0.61899502024E+02  0.10566000000E+00 0. -1.
         22    1    1    0    0    0  0.13267847527E+01  0.24338907602E+02 -0.18249502036E+02  0.30449747217E+02  0.00000000000E+00 0. -1.
</event>
<event>
 5    1  0.1254496E-009  0.9118800E+02  0.7815553E-02  0.1125453E+00
         25   -1    0    0    0    0  0.00000000000E+00  0.00000000000E+00  0.99999998245E-14  0.12509000000E+03  0.12509000000E+03 0.  0.
        -13    1    3    3    0    0 -0.47538280578E+02  0.17965483217E+02 -0.30095320680E+02  0.59062561732E+02  0.10566000000E+00 0.  1.
         23    2    1    0    0    0 -0.28173821056E+02  0.78180061197E+01 -0.51261860252E+00  0.95847083073E+02  0.91277133736E+02 0.  0.
         13    1    3    3    0    0  0.19364459522E+02 -0.10147477097E+02  0.29582702077E+02  0.36784521340E+02  0.10566000000E+00 0. -1.
         22    1    1    0    0    0  0.28173821056E+02 -0.78180061197E+01  0.51261860252E+00  0.29242916927E+02  0.00000000000E+00 0.  1.
</event>
<event>
 5    1  0.1254496E-009  0.9118800E+02  0.7815553E-02  0.1125453E+00
         25   -1    0    0    0    0  0.00000000000E+00  0.00000000000E+00  0.99999998245E-14  0.12509000000E+03  0.12509000000E+03 0.  0.
        -13    1    3    3    0    0 -0.29627795345E+02 -0.49027370747E+02 -0.13046385638E+02  0.58751244085E+02  0.10566000000E+00 0. -1.
         23    2    1    0    0    0 -0.23522252994E+01 -0.22787039833E+02 -0.16648858509E+02  0.96770984518E+02  0.92534624908E+02 0.  0.
         13    1    3    3    0    0  0.27275570045E+02  0.26240330914E+02 -0.36024728710E+01  0.38019740433E+02  0.10566000000E+00 0.  1.
         22    1    1    0    0    0  0.23522252994E+01  0.22787039833E+02  0.16648858509E+02  0.28319015482E+02  0.00000000000E+00 0. -1.
</event>
<event>
 5    1  0.1254496E-009  0.9118800E+02  0.7815553E-02  0.1125453E+00
         25   -1    0    0    0    0  0.00000000000E+00  0.00000000000E+00  0.99999998245E-14  0.12509000000E+03  0.12509000000E+03 0.  0.
        -13    1    3    3    0    0 -0.21063202429E+01  0.27753211646E+02  0.23786356376E+02  0.36612555979E+02  0.10566000000E+00 0.  1.
         23    2    1    0    0    0  0.14373472352E+02 -0.18551154782E+02 -0.13236925185E+02  0.98146387779E+02  0.94375606989E+02 0.  0.
         13    1    3    3    0    0  0.16479792594E+02 -0.46304366428E+02 -0.37023281561E+02  0.61533831799E+02  0.10566000000E+00 0. -1.
         22    1    1    0    0    0 -0.14373472352E+02  0.18551154782E+02  0.13236925185E+02  0.26943612221E+02  0.00000000000E+00 0. -1.
</event>
<event>
 5    1  0.1254496E-009  0.9118800E+02  0.7815553E-02  0.1125453E+00
         25   -1    0    0    0    0  0.00000000000E+00  0.00000000000E+00  0.99999998245E-14  0.12509000000E+03  0.12509000000E+03 0.  0.
        -13    1    3    3    0    0 -0.14431960501E+02 -0.12481944827E+02 -0.43552608602E+02  0.47549146266E+02  0.10566000000E+00 0. -1.
         23    2    1    0    0    0  0.14603637355E+01 -0.24955952262E+02  0.45121434991E+01  0.99687408508E+02  0.96396513218E+02 0.  0.
         13    1    3    3    0    0  0.15892324237E+02 -0.12474007435E+02  0.48064752101E+02  0.52138262243E+02  0.10566000000E+00 0.  1.
         22    1    1    0    0    0 -0.14603637355E+01  0.24955952262E+02 -0.45121434991E+01  0.25402591492E+02  0.00000000000E+00 0.  1.
</event>
<event>
 5    1  0.1254496E-009  0.9118800E+02  0.7815553E-02  0.1125453E+00
         25   -1    0    0    0    0  0.00000000000E+00  0.00000000000E+00  0.99999998245E-14  0.12509000000E+03  0.12509000000E+03 0.  0.
        -13    1    3    3    0    0  0.22859237141E+02  0.17422784363E+02  0.28968753682E+02  0.40808062825E+02  0.10566000000E+00 0.  1.
         23    2    1    0    0    0  0.99565408179E+01 -0.27153348309E+02 -0.11749928818E+01  0.96144920319E+02  0.91684393794E+02 0.  0.
         13    1    3    3    0    0 -0.12902696323E+02 -0.44576132672E+02 -0.30143746563E+02  0.55336857494E+02  0.10566000000E+00 0. -1.
         22    1    1    0    0    0 -0.99565408179E+01  0.27153348309E+02  0.11749928818E+01  0.28945079681E+02  0.00000000000E+00 0. -1.
</event>
<event>
 5    1  0.1254496E-009  0.9118800E+02  0.7815553E-02  0.1125453E+00
         25   -1    0    0    0    0  0.00000000000E+00  0.00000000000E+00  0.99999998245E-14  0.12509000000E+03  0.12509000000E+03 0.  0.
        -13    1    3    3    0    0  0.38165565414E+02 -0.20303886954E+02 -0.24066967824E+02  0.49478159961E+02  0.10566000000E+00 0. -1.
         23    2    1    0    0    0  0.28712340761E+02  0.11656527965E+02  0.49989312840E+01  0.93701109129E+02  0.88287232270E+02 0.  0.
         13    1    3    3    0    0 -0.94532246534E+01  0.31960414919E+02  0.29065899108E+02  0.44222949168E+02  0.10566000000E+00 0.  1.
         22    1    1    0    0    0 -0.28712340761E+02 -0.11656527965E+02 -0.49989312840E+01  0.31388890871E+02  0.00000000000E+00 0.  1.
</event>
<event>
 5    1  0.1254496E-009  0.9118800E+02  0.7815553E-02  0.1125453E+00
         25   -1    0    0    0    0  0.00000000000E+00  0.00000000000E+00  0.99999998245E-14  0.12509000000E+03  0.12509000000E+03 0.  0.
        -13    1    3    3    0    0  0.90655648762E+00  0.28128174130E+02 -0.37997912360E+02  0.47284971527E+02  0.10566000000E+00 0.  1.
         23    2    1    0    0    0 -0.11072416365E+02 -0.74628038948E+01 -0.37972840814E+02  0.84837938120E+02  0.74680969858E+02 0.  0.
         13    1    3    3    0    0 -0.11978972852E+02 -0.35590978025E+02  0.25071546503E-01  0.37552966593E+02  0.10566000000E+00 0. -1.
         22    1    1    0    0    0  0.11072416365E+02  0.74628038948E+01  0.37972840814E+02  0.40252061880E+02  0.00000000000E+00 0.  1.
</event>
<event>
 5    1  0.1254496E-009  0.9118800E+02  0.7815553E-02  0.1125453E+00
         25   -1    0    0    0    0  0.00000000000E+00  0.00000000000E+00  0.99999998245E-14  0.12509000000E+03  0.12509000000E+03 0.  0.
        -13    1    3    3    0    0  0.28678188104E+02 -0.32007858843E+01  0.44410303724E+02  0.52961965070E+02  0.10566000000E+00 0. -1.
         23    2    1    0    0    0 -0.58230979976E+01 -0.17144422026E+02  0.22731326899E+02  0.96028807672E+02  0.91525837901E+02 0.  0.
         13    1    3    3    0    0 -0.34501286102E+02 -0.13943636142E+02 -0.21678976824E+02  0.43066842602E+02  0.10566000000E+00 0.  1.
         22    1    1    0    0    0  0.58230979976E+01  0.17144422026E+02 -0.22731326899E+02  0.29061192328E+02  0.00000000000E+00 0. -1.
</event>
<event>
 5    1  0.1254496E-009  0.9118800E+02  0.7815553E-02  0.1125453E+00
         25   -1    0    0    0    0  0.00000000000E+00  0.00000000000E+00  0.99999998245E-14  0.12509000000E+03  0.12509000000E+03 0.  0.
        -13    1    3    3    0    0  0.30451647771E+02  0.37702427993E+02 -0.20546277022E+02  0.52639686473E+02  0.10566000000E+00 0. -1.
         23    2    1    0    0    0  0.29919890138E+02 -0.79426351633E+00 -0.28136212176E+01  0.95027612457E+02  0.90147101920E+02 0.  0.
         13    1    3    3    0    0 -0.53175763262E+00 -0.38496691509E+02  0.17732655804E+02  0.42387925984E+02  0.10566000000E+00 0.  1.
         22    1    1    0    0    0 -0.29919890138E+02  0.79426351633E+00  0.28136212176E+01  0.30062387543E+02  0.00000000000E+00 0.  1.
</event>
<event>
 5    1  0.1254496E-009  0.9118800E+02  0.7815553E-02  0.1125453E+00
         25   -1    0    0    0    0  0.00000000000E+00  0.00000000000E+00  0.99999998245E-14  0.12509000000E+03  0.12509000000E+03 0.  0.
        -13    1    3    3    0    0 -0.30137309567E+02 -0.68496793818E+01 -0.33279240249E+02  0.45416896978E+02  0.10566000000E+00 0.  1.
         23    2    1    0    0    0 -0.25369377938E+02 -0.11272699699E+02  0.14591662970E+02  0.93727670308E+02  0.88324857530E+02 0.  0.
         13    1    3    3    0    0  0.47679316287E+01 -0.44230203175E+01  0.47870903219E+02  0.48310773330E+02  0.10566000000E+00 0. -1.
         22    1    1    0    0    0  0.25369377938E+02  0.11272699699E+02 -0.14591662970E+02  0.31362329692E+02  0.00000000000E+00 0. -1.
</event>
<event>
 5    1  0.1254496E-009  0.9118800E+02  0.7815553E-02  0.1125453E+00
         25   -1    0    0    0    0  0.00000000000E+00  0.00000000000E+00  0.99999998245E-14  0.12509000000E+03  0.12509000000E+03 0.  0.
        -13    1    3    3    0    0 -0.59431292940E+01  0.59869037559E+01  0.33693823389E+02  0.34733970418E+02  0.10566000000E+00 0.  1.
         23    2    1    0    0    0  0.18264313186E+02 -0.64103503573E+01 -0.21436171058E+02  0.96207701659E+02  0.91770009813E+02 0.  0.
         13    1    3    3    0    0  0.24207442480E+02 -0.12397254113E+02 -0.55129994446E+02  0.61473731241E+02  0.10566000000E+00 0. -1.
         22    1    1    0    0    0 -0.18264313186E+02  0.64103503573E+01  0.21436171058E+02  0.28882298341E+02  0.00000000000E+00 0. -1.
</event>
<event>
 5    1  0.1254496E-009  0.9118800E+02  0.7815553E-02  0.1125453E+00
         25   -1    0    0    0    0  0.00000000000E+00  0.00000000000E+00  0.99999998245E-14  0.12509000000E+03  0.12509000000E+03 0.  0.
        -13    1    3    3    0    0  0.72746632019E+01 -0.31113861182E+02  0.27633633718E+02  0.42244786174E+02  0.10566000000E+00 0. -1.
         23    2    1    0    0    0  0.33359060534E+02  0.15609801944E+01  0.12743334616E+01  0.91670133085E+02  0.85361149214E+02 0.  0.
         13    1    3    3    0    0  0.26084397332E+02  0.32674841377E+02 -0.26359300257E+02  0.49425346911E+02  0.10566000000E+00 0.  1.
         22    1    1    0    0    0 -0.33359060534E+02 -0.15609801944E+01 -0.12743334616E+01  0.33419866915E+02  0.00000000000E+00 0. -1.
</event>
<event>
 5    1  0.1254496E-009  0.9118800E+02  0.7815553E-02  0.1125453E+00
         25   -1    0    0    0    0  0.00000000000E+00  0.00000000000E+00  0.99999998245E-14  0.12509000000E+03  0.12509000000E+03 0.  0.
        -13    1    3    3    0    0 -0.17095832915E+02 -0.29057596640E+02  0.21479666648E+02  0.39974975533E+02  0.10566000000E+00 0.  1.
         23    2    1    0    0    0 -0.11275493384E+02  0.25295076263E+02  0.69259384660E+01  0.96542736421E+02  0.92225558810E+02 0.  0.
         13    1    3    3    0    0  0.58203395305E+01  0.54352672902E+02 -0.14553728182E+02  0.56567760888E+02  0.10566000000E+00 0. -1.
         22    1    1    0    0    0  0.11275493384E+02 -0.25295076263E+02 -0.69259384660E+01  0.28547263579E+02  0.00000000000E+00 0. -1.
</event>
<event>
 5    1  0.1254496E-009  0.9118800E+02  0.7815553E-02  0.1125453E+00
         25   -1    0    0    0    0  0.00000000000E+00  0.00000000000E+00  0.99999998245E-14  0.12509000000E+03  0.12509000000E+03 0.  0.
        -13    1    3    3    0    0 -0.31600887810E+02 -0.40755334724E+02  0.16621712081E+01  0.51598327453E+02  0.10566000000E+00 0.  1.
         23    2    1    0    0    0 -0.70184801933E+01 -0.66998937779E+01  0.24023521634E+02  0.99180981636E+02  0.95737087306E+02 0.  0.
         13    1    3    3    0    0  0.24582407616E+02  0.34055440946E+02  0.22361350426E+02  0.47582654183E+02  0.10566000000E+00 0. -1.
         22    1    1    0    0    0  0.70184801933E+01  0.66998937779E+01 -0.24023521634E+02  0.25909018364E+02  0.00000000000E+00 0.  1.
</event>
<event>
 5    1  0.1254496E-009  0.9118800E+02  0.7815553E-02  0.1125453E+00
         25   -1    0    0    0    0  0.00000000000E+00  0.00000000000E+00  0.99999998245E-14  0.12509000000E+03  0.12509000000E+03 0.  0.
        -13    1    3    3    0    0 -0.69989982385E+01  0.38059708481E+02  0.13107401558E+02  0.40857588348E+02  0.10566000000E+00 0.  1.
         23    2    1    0    0    0 -0.26972071835E+02 -0.10901238353E+02 -0.22234339498E+01  0.95913411521E+02  0.91367987799E+02 0.  0.
         13    1    3    3    0    0 -0.19973073597E+02 -0.48960946834E+02 -0.15330835508E+02  0.55055823173E+02  0.10566000000E+00 0. -1.
         22    1    1    0    0    0  0.26972071835E+02  0.10901238353E+02  0.22234339498E+01  0.29176588479E+02  0.00000000000E+00 0. -1.
</event>
<event>
 5    1  0.1254496E-009  0.9118800E+02  0.7815553E-02  0.1125453E+00
         25   -1    0    0    0    0  0.00000000000E+00  0.00000000000E+00  0.99999998245E-14  0.12509000000E+03  0.12509000000E+03 0.  0.
        -13    1    3    3    0    0  0.12531632072E+02  0.11511015286E+02 -0.37696346741E+02  0.41359049759E+02  0.10566000000E+00 0. -1.
         23    2    1    0    0    0 -0.27458107025E+02 -0.55981708440E+01 -0.31785947037E+01  0.96887329515E+02  0.92691768772E+02 0.  0.
         13    1    3    3    0    0 -0.39989739096E+02 -0.17109186130E+02  0.34517752037E+02  0.55528279757E+02  0.10566000000E+00 0.  1.
         22    1    1    0    0    0  0.27458107025E+02  0.55981708440E+01  0.31785947037E+01  0.28202670485E+02  0.00000000000E+00 0.  1.
</event>
<event>
 5    1  0.1254496E-009  0.9118800E+02  0.7815553E-02  0.1125453E+00
         25   -1    0    0    0    0  0.00000000000E+00  0.00000000000E+00  0.99999998245E-14  0.12509000000E+03  0.12509000000E+03 0.  0.
        -13    1    3    3    0    0 -0.69819211441E+01 -0.29893280889E+02  0.20102468100E+02  0.36694357235E+02  0.10566000000E+00 0.  1.
         23    2    1    0    0    0  0.18228065647E+02  0.64806337131E+01 -0.20605928511E+02  0.96825795070E+02  0.92608689174E+02 0.  0.
         13    1    3    3    0    0  0.25209986791E+02  0.36373914602E+02 -0.40708396611E+02  0.60131437835E+02  0.10566000000E+00 0. -1.
         22    1    1    0    0    0 -0.18228065647E+02 -0.64806337131E+01  0.20605928511E+02  0.28264204930E+02  0.00000000000E+00 0. -1.
</event>
<event>
 5    1  0.1254496E-009  0.9118800E+02  0.7815553E-02  0.1125453E+00
         25   -1    0    0    0    0  0.00000000000E+00  0.00000000000E+00  0.99999998245E-14  0.12509000000E+03  0.12509000000E+03 0.  0.
        -13    1    3    3    0    0 -0.38497829639E+01  0.24775901361E+01  0.42131860833E+02  0.42379996968E+02  0.10566000000E+00 0. -1.
         23    2    1    0    0    0 -0.30759555747E+02 -0.83576832219E+01  0.38945348449E+00  0.93212848110E+02  0.87592706547E+02 0.  0.
         13    1    3    3    0    0 -0.26909772783E+02 -0.10835273358E+02 -0.41742407348E+02  0.50832851142E+02  0.10566000000E+00 0.  1.
         22    1    1    0    0    0  0.30759555747E+02  0.83576832219E+01 -0.38945348449E+00  0.31877151890E+02  0.00000000000E+00 0.  1.
</event>
<event>
 5    1  0.1254496E-009  0.9118800E+02  0.7815553E-02  0.1125453E+00
         25   -1    0    0    0    0  0.00000000000E+00  0.00000000000E+00  0.99999998245E-14  0.12509000000E+03  0.12509000000E+03 0.  0.
        -13    1    3    3    0    0  0.33610644500E+02 -0.14757000444E+02  0.25838108738E+02  0.44889458818E+02  0.10566000000E+00 0.  1.
         23    2    1    0    0    0  0.20377278187E+02 -0.15960883800E+02 -0.19850051215E+02  0.92470867405E+02  0.86526605778E+02 0.  0.
         13    1    3    3    0    0 -0.13233366313E+02 -0.12038833564E+01 -0.45688159954E+02  0.47581408587E+02  0.10566000000E+00 0. -1.
         22    1    1    0    0    0 -0.20377278187E+02  0.15960883800E+02  0.19850051215E+02  0.32619132595E+02  0.00000000000E+00 0. -1.
</event>
<event>
 5    1  0.1254496E-009  0.9118800E+02  0.7815553E-02  0.1125453E+00
         25   -1    0    0    0    0  0.00000000000E+00  0.00000000000E+00  0.99999998245E-14  0.12509000000E+03  0.12509000000E+03 0.  0.
        -13    1    3    3    0    0  0.40607194690E+02 -0.37454291479E+02  0.16442210797E+02  0.57637883989E+02  0.10566000000E+00 0.  1.
         23    2    1    0    0    0  0.27219817309E+02 -0.31227340352E+01  0.13336789259E+02  0.94618047815E+02  0.89576978640E+02 0.  0.
         13    1    3    3    0    0 -0.13387377381E+02  0.34331557444E+02 -0.31054215374E+01  0.36980163826E+02  0.10566000000E+00 0. -1.
         22    1    1    0    0    0 -0.27219817309E+02  0.31227340352E+01 -0.13336789259E+02  0.30471952185E+02  0.00000000000E+00 0.  1.
</event>
<event>
 5    1  0.1254496E-009  0.9118800E+02  0.7815553E-02  0.1125453E+00
         25   -1    0    0    0    0  0.00000000000E+00  0.00000000000E+00  0.99999998245E-14  0.12509000000E+03  0.12509000000E+03 0.  0.
        -13    1    3    3    0    0  0.38701545560E+02 -0.21431732189E+02 -0.25685205038E+02  0.51155348647E+02  0.10566000000E+00 0. -1.
         23    2    1    0    0    0  0.36321874508E+00 -0.43108837264E+01 -0.31278357345E+02  0.93513881103E+02  0.88021558009E+02 0.  0.
         13    1    3    3    0    0 -0.38338326815E+02  0.17120848462E+02 -0.55931523070E+01  0.42358532456E+02  0.10566000000E+00 0.  1.
         22    1    1    0    0    0 -0.36321874508E+00  0.43108837264E+01  0.31278357345E+02  0.31576118897E+02  0.00000000000E+00 0. -1.
</event>
<event>
 5    1  0.1254496E-009  0.9118800E+02  0.7815553E-02  0.1125453E+00
         25   -1    0    0    0    0  0.00000000000E+00  0.00000000000E+00  0.99999998245E-14  0.12509000000E+03  0.12509000000E+03 0.  0.
        -13    1    3    3    0    0  0.35693848097E+02 -0.35432364981E+02  0.10909402442E+02  0.51463866021E+02  0.10566000000E+00 0.  1.
         23    2    1    0    0    0 -0.46237719781E+01 -0.31550055640E+02  0.88263716868E+00  0.93190715893E+02  0.87561094112E+02 0.  0.
         13    1    3    3    0    0 -0.40317620075E+02  0.38823093414E+01 -0.10026765273E+02  0.41726849872E+02  0.10566000000E+00 0. -1.
         22    1    1    0    0    0  0.46237719781E+01  0.31550055640E+02 -0.88263716868E+00  0.31899284107E+02  0.00000000000E+00 0.  1.
</event>
<event>
 5    1  0.1254496E-009  0.9118800E+02  0.7815553E-02  0.1125453E+00
         25   -1    0    0    0    0  0.00000000000E+00  0.00000000000E+00  0.99999998245E-14  0.12509000000E+03  0.12509000000E+03 0.  0.
        -13    1    3    3    0    0 -0.58743139507E+01  0.39986339803E+02  0.29343495827E+02  0.49944637816E+02  0.10566000000E+00 0. -1.
         23    2    1    0    0    0  0.22609930061E+02  0.80751938227E+01  0.20264541571E+02  0.93672340352E+02  0.88246461738E+02 0.  0.
         13    1    3    3    0    0  0.28484244012E+02 -0.31911145980E+02 -0.90789542559E+01  0.43727702536E+02  0.10566000000E+00 0.  1.
         22    1    1    0    0    0 -0.22609930061E+02 -0.80751938227E+01 -0.20264541571E+02  0.31417659648E+02  0.00000000000E+00 0. -1.
</event>
<event>
 5    1  0.1254496E-009  0.9118800E+02  0.7815553E-02  0.1125453E+00
         25   -1    0    0    0    0  0.00000000000E+00  0.00000000000E+00  0.99999998245E-14  0.12509000000E+03  0.12509000000E+03 0.  0.
        -13    1    3    3    0    0 -0.57364422415E+02 -0.15536382661E+02  0.12857465487E+02  0.60806099431E+02  0.10566000000E+00 0. -1.
         23    2    1    0    0    0 -0.24211915890E+02 -0.56697726758E+01  0.15971581235E+02  0.95535734649E+02  0.90849446858E+02 0.  0.
         13    1    3    3    0    0  0.33152506525E+02  0.98666099849E+01  0.31141157479E+01  0.34729635218E+02  0.10566000000E+00 0.  1.
         22    1    1    0    0    0  0.24211915890E+02  0.56697726758E+01 -0.15971581235E+02  0.29554265351E+02  0.00000000000E+00 0. -1.
</event>
<event>
 5    1  0.1254496E-009  0.9118800E+02  0.7815553E-02  0.1125453E+00
         25   -1    0    0    0    0  0.00000000000E+00  0.00000000000E+00  0.99999998245E-14  0.12509000000E+03  0.12509000000E+03 0.  0.
        -13    1    3    3    0    0 -0.27749053907E+02  0.44981016966E+02 -0.11111961960E+02  0.54007302679E+02  0.10566000000E+00 0. -1.
         23    2    1    0    0    0 -0.12957104138E+02  0.19013464519E+02  0.18113098925E+02  0.95807193896E+02  0.91222451562E+02 0.  0.
         13    1    3    3    0    0  0.14791949768E+02 -0.25967552447E+02  0.29225060885E+02  0.41799891218E+02  0.10566000000E+00 0.  1.
         22    1    1    0    0    0  0.12957104138E+02 -0.19013464519E+02 -0.18113098925E+02  0.29282806104E+02  0.00000000000E+00 0.  1.
</event>
<event>
 5    1  0.1254496E-009  0.9118800E+02  0.7815553E-02  0.1125453E+00
         25   -1    0    0    0    0  0.00000000000E+00  0.00000000000E+00  0.99999998245E-14  0.12509000000E+03  0.12509000000E+03 0.  0.
        -13    1    3    3    0    0 -0.39252944307E+02 -0.15853664310E+02 -0.30903854651E+02  0.52413659528E+02  0.10566000000E+00 0.  1.
         23    2    1    0    0    0 -0.22954274412E+02  0.17070545740E+02 -0.17693128185E+02  0.91454467737E+02  0.85044521507E+02 0.  0.
         13    1    3    3    0    0  0.16298669895E+02  0.32924210051E+02  0.13210726466E+02  0.39040808209E+02  0.10566000000E+00 0. -1.
         22    1    1    0    0    0  0.22954274412E+02 -0.17070545740E+02  0.17693128185E+02  0.33635532263E+02  0.00000000000E+00 0.  1.
</event>
<event>
 5    1  0.1254496E-009  0.9118800E+02  0.7815553E-02  0.1125453E+00
         25   -1    0    0    0    0  0.00000000000E+00  0.00000000000E+00  0.99999998245E-14  0.12509000000E+03  0.12509000000E+03 0.  0.
        -13    1    3    3    0    0  0.18965036650E+02  0.37717379083E+02  0.66357632243E+01  0.42735439832E+02  0.10566000000E+00 0. -1.
         23    2    1    0    0    0 -0.83811648663E+01  0.18072332524E+02  0.33704709878E+02  0.85938236370E+02  0.76501763868E+02 0.  0.
         13    1    3    3    0    0 -0.27346201516E+02 -0.19645046559E+02  0.27068946654E+02  0.43202796537E+02  0.10566000000E+00 0.  1.
         22    1    1    0    0    0  0.83811648663E+01 -0.18072332524E+02 -0.33704709878E+02  0.39151763630E+02  0.00000000000E+00 0.  1.
</event>
<event>
 5    1  0.1254496E-009  0.9118800E+02  0.7815553E-02  0.1125453E+00
         25   -1    0    0    0    0  0.00000000000E+00  0.00000000000E+00  0.99999998245E-14  0.12509000000E+03  0.12509000000E+03 0.  0.
        -13    1    3    3    0    0  0.17467748685E+02 -0.17926393335E+02 -0.16499553061E+02  0.29978729749E+02  0.10566000000E+00 0. -1.
         23    2    1    0    0    0 -0.24702663048E+02 -0.30980703566E+02  0.13361098680E+02  0.83274398689E+02  0.72014449689E+02 0.  0.
         13    1    3    3    0    0 -0.42170411733E+02 -0.13054310230E+02  0.29860651741E+02  0.53295668940E+02  0.10566000000E+00 0.  1.
         22    1    1    0    0    0  0.24702663048E+02  0.30980703566E+02 -0.13361098680E+02  0.41815601311E+02  0.00000000000E+00 0.  1.
</event>
<event>
 5    1  0.1254496E-009  0.9118800E+02  0.7815553E-02  0.1125453E+00
         25   -1    0    0    0    0  0.00000000000E+00  0.00000000000E+00  0.99999998245E-14  0.12509000000E+03  0.12509000000E+03 0.  0.
        -13    1    3    3    0    0  0.55537352849E+02 -0.12363324932E+00 -0.16648168452E+02  0.57979181811E+02  0.10566000000E+00 0.  1.
         23    2    1    0    0    0  0.19203097528E+02 -0.98741790993E+01 -0.19881866903E+02  0.95737879138E+02  0.91127353208E+02 0.  0.
         13    1    3    3    0    0 -0.36334255321E+02 -0.97505458500E+01 -0.32336984504E+01  0.37758697327E+02  0.10566000000E+00 0. -1.
         22    1    1    0    0    0 -0.19203097528E+02  0.98741790993E+01  0.19881866903E+02  0.29352120862E+02  0.00000000000E+00 0.  1.
</event>
<event>
 5    1  0.1254496E-009  0.9118800E+02  0.7815553E-02  0.1125453E+00
         25   -1    0    0    0    0  0.00000000000E+00  0.00000000000E+00  0.99999998245E-14  0.12509000000E+03  0.12509000000E+03 0.  0.
        -13    1    3    3    0    0 -0.24636499892E+02  0.35693144298E+02  0.31038541993E+02  0.53332541003E+02  0.10566000000E+00 0.  1.
         23    2    1    0    0    0 -0.24609434246E+02  0.24981792719E+01 -0.21347898770E+01  0.10026214304E+03  0.97139460802E+02 0.  0.
         13    1    3    3    0    0  0.27065646249E-01 -0.33194965026E+02 -0.33173331870E+02  0.46929602033E+02  0.10566000000E+00 0. -1.
         22    1    1    0    0    0  0.24609434246E+02 -0.24981792719E+01  0.21347898770E+01  0.24827856963E+02  0.00000000000E+00 0.  1.
</event>
<event>
 5    1  0.1254496E-009  0.9118800E+02  0.7815553E-02  0.1125453E+00
         25   -1    0    0    0    0  0.00000000000E+00  0.00000000000E+00  0.99999998245E-14  0.12509000000E+03  0.12509000000E+03 0.  0.
        -13    1    3    3    0    0 -0.25500615259E+02 -0.31944876292E+02  0.43225590754E+02  0.59491338529E+02  0.10566000000E+00 0.  1.
         23    2    1    0    0    0 -0.87061401215E+01 -0.36506054301E+01  0.27606987637E+02  0.95913475837E+02  0.91368075852E+02 0.  0.
         13    1    3    3    0    0  0.16794475138E+02  0.28294270862E+02 -0.15618603117E+02  0.36422137308E+02  0.10566000000E+00 0. -1.
         22    1    1    0    0    0  0.87061401215E+01  0.36506054301E+01 -0.27606987637E+02  0.29176524163E+02  0.00000000000E+00 0.  1.
</event>
<event>
 5    1  0.1254496E-009  0.9118800E+02  0.7815553E-02  0.1125453E+00
         25   -1    0    0    0    0  0.00000000000E+00  0.00000000000E+00  0.99999998245E-14  0.12509000000E+03  0.12509000000E+03 0.  0.
        -13    1    3    3    0    0  0.31575331431E+02 -0.21547919711E+02  0.11277934960E+02  0.39856208799E+02  0.10566000000E+00 0. -1.
         23    2    1    0    0    0 -0.85323961833E+01 -0.74663068452E+00 -0.25548226512E+02  0.98144293107E+02  0.94372830569E+02 0.  0.
         13    1    3    3    0    0 -0.40107727614E+02  0.20801289026E+02 -0.36826161473E+02  0.58288084308E+02  0.10566000000E+00 0.  1.
         22    1    1    0    0    0  0.85323961833E+01  0.74663068452E+00  0.25548226512E+02  0.26945706893E+02  0.00000000000E+00 0.  1.
</event>
<event>
 5    1  0.1254496E-009  0.9118800E+02  0.7815553E-02  0.1125453E+00
         25   -1    0    0    0    0  0.00000000000E+00  0.00000000000E+00  0.99999998245E-14  0.12509000000E+03  0.12509000000E+03 0.  0.
        -13    1    3    3    0    0 -0.15255486473E+02  0.62463013456E+01  0.34695245810E+02  0.38412464043E+02  0.10566000000E+00 0. -1.
         23    2    1    0    0    0  0.21652619064E+02 -0.18392577948E+02 -0.28451588216E+01  0.96537981426E+02  0.92219109155E+02 0.  0.
         13    1    3    3    0    0  0.36908105536E+02 -0.24638879294E+02 -0.37540404631E+02  0.58125517383E+02  0.10566000000E+00 0.  1.
         22    1    1    0    0    0 -0.21652619064E+02  0.18392577948E+02  0.28451588216E+01  0.28552018574E+02  0.00000000000E+00 0.  1.
</event>
<event>
 5    1  0.1254496E-009  0.9118800E+02  0.7815553E-02  0.1125453E+00
         25   -1    0    0    0    0  0.00000000000E+00  0.00000000000E+00  0.99999998245E-14  0.12509000000E+03  0.12509000000E+03 0.  0.
        -13    1    3    3    0    0  0.15302729139E+02 -0.26863562339E+02  0.10834018722E+02  0.32759908827E+02  0.10566000000E+00 0. -1.
         23    2    1    0    0    0 -0.54170314888E+01  0.30315989134E+02  0.18441429305E+01  0.94238674413E+02  0.89045625747E+02 0.  0.
         13    1    3    3    0    0 -0.20719760628E+02  0.57179551473E+02 -0.89898757913E+01  0.61478765586E+02  0.10566000000E+00 0.  1.
         22    1    1    0    0    0  0.54170314888E+01 -0.30315989134E+02 -0.18441429305E+01  0.30851325587E+02  0.00000000000E+00 0.  1.
</event>
<event>
 5    1  0.1254496E-009  0.9118800E+02  0.7815553E-02  0.1125453E+00
         25   -1    0    0    0    0  0.00000000000E+00  0.00000000000E+00  0.99999998245E-14  0.12509000000E+03  0.12509000000E+03 0.  0.
        -13    1    3    3    0    0 -0.19704519444E+01  0.11372530811E+02 -0.35515314311E+02  0.37343886415E+02  0.10566000000E+00 0.  1.
         23    2    1    0    0    0 -0.99707766005E+01 -0.26642068392E+02  0.78650405563E+01  0.95576019293E+02  0.90904897595E+02 0.  0.
         13    1    3    3    0    0 -0.80003246561E+01 -0.38014599203E+02  0.43380354867E+02  0.58232132879E+02  0.10566000000E+00 0. -1.
         22    1    1    0    0    0  0.99707766005E+01  0.26642068392E+02 -0.78650405563E+01  0.29513980707E+02  0.00000000000E+00 0. -1.
</event>
<event>
 5    1  0.1254496E-009  0.9118800E+02  0.7815553E-02  0.1125453E+00
         25   -1    0    0    0    0  0.00000000000E+00  0.00000000000E+00  0.99999998245E-14  0.12509000000E+03  0.12509000000E+03 0.  0.
        -13    1    3    3    0    0  0.60337496288E+02 -0.55138194562E+01 -0.92272822276E+01  0.61287597152E+02  0.10566000000E+00 0.  1.
         23    2    1    0    0    0  0.31902738123E+02  0.47132867344E+01 -0.14686046705E+00  0.92840638152E+02  0.87059535680E+02 0.  0.
         13    1    3    3    0    0 -0.28434758165E+02  0.10227106191E+02  0.90804217605E+01  0.31553041000E+02  0.10566000000E+00 0. -1.
         22    1    1    0    0    0 -0.31902738123E+02 -0.47132867344E+01  0.14686046705E+00  0.32249361848E+02  0.00000000000E+00 0.  1.
</event>
<event>
 5    1  0.1254496E-009  0.9118800E+02  0.7815553E-02  0.1125453E+00
         25   -1    0    0    0    0  0.00000000000E+00  0.00000000000E+00  0.99999998245E-14  0.12509000000E+03  0.12509000000E+03 0.  0.
        -13    1    3    3    0    0 -0.32419768576E+02  0.37307161365E+02  0.23698133909E+02  0.54813122502E+02  0.10566000000E+00 0. -1.
         23    2    1    0    0    0 -0.21084636284E+01  0.28117165715E+02 -0.36482150064E+01  0.96658853357E+02  0.92382919594E+02 0.  0.
         13    1    3    3    0    0  0.30311304948E+02 -0.91899956496E+01 -0.27346348916E+02  0.41845730854E+02  0.10566000000E+00 0.  1.
         22    1    1    0    0    0  0.21084636284E+01 -0.28117165715E+02  0.36482150064E+01  0.28431146643E+02  0.00000000000E+00 0. -1.
</event>
<event>
 5    1  0.1254496E-009  0.9118800E+02  0.7815553E-02  0.1125453E+00
         25   -1    0    0    0    0  0.00000000000E+00  0.00000000000E+00  0.99999998245E-14  0.12509000000E+03  0.12509000000E+03 0.  0.
        -13    1    3    3    0    0 -0.21562732023E+02  0.45819641298E+02  0.28699193425E+02  0.58206922340E+02  0.10566000000E+00 0.  1.
         23    2    1    0    0    0 -0.26142983521E+02  0.16986956466E+02  0.13585366224E+02  0.91081553214E+02  0.84494229881E+02 0.  0.
         13    1    3    3    0    0 -0.45802514978E+01 -0.28832684833E+02 -0.15113827201E+02  0.32874630874E+02  0.10566000000E+00 0. -1.
         22    1    1    0    0    0  0.26142983521E+02 -0.16986956466E+02 -0.13585366224E+02  0.34008446786E+02  0.00000000000E+00 0.  1.
</event>
<event>
 5    1  0.1254496E-009  0.9118800E+02  0.7815553E-02  0.1125453E+00
         25   -1    0    0    0    0  0.00000000000E+00  0.00000000000E+00  0.99999998245E-14  0.12509000000E+03  0.12509000000E+03 0.  0.
        -13    1    3    3    0    0 -0.18113278382E+02  0.12837925960E+02  0.57627893474E+02  0.61756687630E+02  0.10566000000E+00 0.  1.
         23    2    1    0    0    0 -0.37891122008E+01  0.14808164672E+01  0.29551232051E+02  0.95260056916E+02  0.90469071727E+02 0.  0.
         13    1    3    3    0    0  0.14324166181E+02 -0.11357109492E+02 -0.28076661423E+02  0.33503369286E+02  0.10566000000E+00 0. -1.
         22    1    1    0    0    0  0.37891122008E+01 -0.14808164672E+01 -0.29551232051E+02  0.29829943084E+02  0.00000000000E+00 0.  1.
</event>
<event>
 5    1  0.1254496E-009  0.9118800E+02  0.7815553E-02  0.1125453E+00
         25   -1    0    0    0    0  0.00000000000E+00  0.00000000000E+00  0.99999998245E-14  0.12509000000E+03  0.12509000000E+03 0.  0.
        -13    1    3    3    0    0  0.27517947975E+02 -0.29254922077E+02  0.43378453081E+02  0.59116742825E+02  0.10566000000E+00 0. -1.
         23    2    1    0    0    0  0.22126100465E+02 -0.16242655946E+02  0.91056432163E+01  0.96171131897E+02  0.91720148703E+02 0.  0.
         13    1    3    3    0    0 -0.53918475098E+01  0.13012266131E+02 -0.34272809865E+02  0.37054389072E+02  0.10566000000E+00 0.  1.
         22    1    1    0    0    0 -0.22126100465E+02  0.16242655946E+02 -0.91056432163E+01  0.28918868103E+02  0.00000000000E+00 0. -1.
</event>
<event>
 5    1  0.1254496E-009  0.9118800E+02  0.7815553E-02  0.1125453E+00
         25   -1    0    0    0    0  0.00000000000E+00  0.00000000000E+00  0.99999998245E-14  0.12509000000E+03  0.12509000000E+03 0.  0.
        -13    1    3    3    0    0  0.17707931172E+02 -0.43412116741E+02  0.25357379936E+02  0.53302819696E+02  0.10566000000E+00 0.  1.
         23    2    1    0    0    0  0.81939725417E+01 -0.23597758777E+02 -0.12559812691E+02  0.97130309370E+02  0.93019098566E+02 0.  0.
         13    1    3    3    0    0 -0.95139586300E+01  0.19814357964E+02 -0.37917192626E+02  0.43827489673E+02  0.10566000000E+00 0. -1.
         22    1    1    0    0    0 -0.81939725417E+01  0.23597758777E+02  0.12559812691E+02  0.27959690630E+02  0.00000000000E+00 0.  1.
</event>
<event>
 5    1  0.1254496E-009  0.9118800E+02  0.7815553E-02  0.1125453E+00
         25   -1    0    0    0    0  0.00000000000E+00  0.00000000000E+00  0.99999998245E-14  0.12509000000E+03  0.12509000000E+03 0.  0.
        -13    1    3    3    0    0  0.94068969711E+01 -0.39355562674E+02  0.20367293764E+01  0.40515545839E+02  0.10566000000E+00 0.  1.
         23    2    1    0    0    0  0.98146159206E+01  0.81284948946E+01 -0.26336468381E+02  0.95832373956E+02  0.91256973522E+02 0.  0.
         13    1    3    3    0    0  0.40771894949E+00  0.47484057569E+02 -0.28373197758E+02  0.55316828117E+02  0.10566000000E+00 0. -1.
         22    1    1    0    0    0 -0.98146159206E+01 -0.81284948946E+01  0.26336468381E+02  0.29257626044E+02  0.00000000000E+00 0. -1.
</event>
<event>
 5    1  0.1254496E-009  0.9118800E+02  0.7815553E-02  0.1125453E+00
         25   -1    0    0    0    0  0.00000000000E+00  0.00000000000E+00  0.99999998245E-14  0.12509000000E+03  0.12509000000E+03 0.  0.
        -13    1    3    3    0    0 -0.33222795314E+02  0.46442381320E+02  0.16998584285E+02  0.59578619847E+02  0.10566000000E+00 0. -1.
         23    2    1    0    0    0 -0.16382994849E+02  0.22104481044E+02 -0.58413620825E+01  0.96962929171E+02  0.92793736426E+02 0.  0.
         13    1    3    3    0    0  0.16839800465E+02 -0.24337900276E+02 -0.22839946367E+02  0.37384309324E+02  0.10566000000E+00 0.  1.
         22    1    1    0    0    0  0.16382994849E+02 -0.22104481044E+02  0.58413620825E+01  0.28127070829E+02  0.00000000000E+00 0. -1.
</event>
<event>
 5    1  0.1254496E-009  0.9118800E+02  0.7815553E-02  0.1125453E+00
         25   -1    0    0    0    0  0.00000000000E+00  0.00000000000E+00  0.99999998245E-14  0.12509000000E+03  0.12509000000E+03 0.  0.
        -13    1    3    3    0    0  0.18625470700E+02  0.38130760095E+02 -0.80884250725E+01  0.43200657499E+02  0.10566000000E+00 0.  1.
         23    2    1    0    0    0  0.16927744950E+02 -0.56599935642E+01  0.22297671058E+02  0.96528308683E+02  0.92205987693E+02 0.  0.
         13    1    3    3    0    0 -0.16977257492E+01 -0.43790753659E+02  0.30386096131E+02  0.53327651184E+02  0.10566000000E+00 0. -1.
         22    1    1    0    0    0 -0.16927744950E+02  0.56599935642E+01 -0.22297671058E+02  0.28561691317E+02  0.00000000000E+00 0. -1.
</event>
<event>
 5    1  0.1254496E-009  0.9118800E+02  0.7815553E-02  0.1125453E+00
         25   -1    0    0    0    0  0.00000000000E+00  0.00000000000E+00  0.99999998245E-14  0.12509000000E+03  0.12509000000E+03 0.  0.
        -13    1    3    3    0    0 -0.31603961342E+02 -0.25531077929E+02  0.33354501501E+00  0.40629653322E+02  0.10566000000E+00 0.  1.
         23    2    1    0    0    0  0.62901064743E+01  0.75810216823E+00 -0.29077838153E+02  0.95329945732E+02  0.90565654214E+02 0.  0.
         13    1    3    3    0    0  0.37894067817E+02  0.26289180097E+02 -0.29411383168E+02  0.54700292410E+02  0.10566000000E+00 0. -1.
         22    1    1    0    0    0 -0.62901064743E+01 -0.75810216823E+00  0.29077838153E+02  0.29760054268E+02  0.00000000000E+00 0. -1.
</event>
<event>
 5    1  0.1254496E-009  0.9118800E+02  0.7815553E-02  0.1125453E+00
         25   -1    0    0    0    0  0.00000000000E+00  0.00000000000E+00  0.99999998245E-14  0.12509000000E+03  0.12509000000E+03 0.  0.
        -13    1    3    3    0    0  0.17264524265E+02  0.15847451352E+02  0.51409312281E+02  0.56498974023E+02  0.10566000000E+00 0.  1.
         23    2    1    0    0    0  0.18797305594E+02  0.18710369129E+02  0.12107091290E+02  0.95935270194E+02  0.91397909151E+02 0.  0.
         13    1    3    3    0    0  0.15327813297E+01  0.28629177771E+01 -0.39302220991E+02  0.39436296171E+02  0.10566000000E+00 0. -1.
         22    1    1    0    0    0 -0.18797305594E+02 -0.18710369129E+02 -0.12107091290E+02  0.29154729806E+02  0.00000000000E+00 0.  1.
</event>
<event>
 5    1  0.1254496E-009  0.9118800E+02  0.7815553E-02  0.1125453E+00
         25   -1    0    0    0    0  0.00000000000E+00  0.00000000000E+00  0.99999998245E-14  0.12509000000E+03  0.12509000000E+03 0.  0.
        -13    1    3    3    0    0 -0.10654286117E+02 -0.41693696733E+02  0.12621515321E+02  0.44846315043E+02  0.10566000000E+00 0. -1.
         23    2    1    0    0    0 -0.54006071568E+01  0.13744365319E+02  0.19142503642E+02  0.10091336704E+03  0.97974476603E+02 0.  0.
         13    1    3    3    0    0  0.52536789597E+01  0.55438062052E+02  0.65209883208E+01  0.56067051995E+02  0.10566000000E+00 0.  1.
         22    1    1    0    0    0  0.54006071568E+01 -0.13744365319E+02 -0.19142503642E+02  0.24176632962E+02  0.00000000000E+00 0.  1.
</event>
<event>
 5    1  0.1254496E-009  0.9118800E+02  0.7815553E-02  0.1125453E+00
         25   -1    0    0    0    0  0.00000000000E+00  0.00000000000E+00  0.99999998245E-14  0.12509000000E+03  0.12509000000E+03 0.  0.
        -13    1    3    3    0    0 -0.12248316703E+02  0.26913451630E+02 -0.33025311193E+02  0.44328743318E+02  0.10566000000E+00 0.  1.
         23    2    1    0    0    0  0.18698059485E+02  0.23393654503E+02  0.62924277087E+01  0.94488118587E+02  0.89395354511E+02 0.  0.
         13    1    3    3    0    0  0.30946376188E+02 -0.35197971271E+01  0.39317738902E+02  0.50159375269E+02  0.10566000000E+00 0. -1.
         22    1    1    0    0    0 -0.18698059485E+02 -0.23393654503E+02 -0.62924277087E+01  0.30601881413E+02  0.00000000000E+00 0. -1.
</event>
<event>
 5    1  0.1254496E-009  0.9118800E+02  0.7815553E-02  0.1125453E+00
         25   -1    0    0    0    0  0.00000000000E+00  0.00000000000E+00  0.99999998245E-14  0.12509000000E+03  0.12509000000E+03 0.  0.
        -13    1    3    3    0    0  0.10629331688E+02 -0.36387136856E+02 -0.59352302685E+01  0.38369838976E+02  0.10566000000E+00 0. -1.
         23    2    1    0    0    0 -0.21981172120E+02  0.13468956771E+02 -0.83469303611E+01  0.97992842018E+02  0.94171870089E+02 0.  0.
         13    1    3    3    0    0 -0.32610503808E+02  0.49856093627E+02 -0.24117000926E+01  0.59623003042E+02  0.10566000000E+00 0.  1.
         22    1    1    0    0    0  0.21981172120E+02 -0.13468956771E+02  0.83469303611E+01  0.27097157982E+02  0.00000000000E+00 0.  1.
</event>
<event>
 5    1  0.1254496E-009  0.9118800E+02  0.7815553E-02  0.1125453E+00
         25   -1    0    0    0    0  0.00000000000E+00  0.00000000000E+00  0.99999998245E-14  0.12509000000E+03  0.12509000000E+03 0.  0.
        -13    1    3    3    0    0 -0.29759547330E+02 -0.39240446651E+01  0.99231901832E+01  0.31615022557E+02  0.10566000000E+00 0.  1.
         23    2    1    0    0    0  0.25723915040E+02  0.78505554408E+01  0.22861606710E+02  0.89791216918E+02  0.82561846810E+02 0.  0.
         13    1    3    3    0    0  0.55483462370E+02  0.11774600106E+02  0.12938416526E+02  0.58176194362E+02  0.10566000000E+00 0. -1.
         22    1    1    0    0    0 -0.25723915040E+02 -0.78505554408E+01 -0.22861606710E+02  0.35298783082E+02  0.00000000000E+00 0. -1.
</event>
<event>
 5    1  0.1254496E-009  0.9118800E+02  0.7815553E-02  0.1125453E+00
         25   -1    0    0    0    0  0.00000000000E+00  0.00000000000E+00  0.99999998245E-14  0.12509000000E+03  0.12509000000E+03 0.  0.
        -13    1    3    3    0    0  0.26985614295E+02 -0.29012617959E+02 -0.46481343944E+02  0.61077670867E+02  0.10566000000E+00 0.  1.
         23    2    1    0    0    0  0.70259819459E+01 -0.18917095146E+02 -0.13945868994E+02  0.10056025942E+03  0.97522600463E+02 0.  0.
         13    1    3    3    0    0 -0.19959632349E+02  0.10095522813E+02  0.32535474950E+02  0.39482588550E+02  0.10566000000E+00 0. -1.
         22    1    1    0    0    0 -0.70259819459E+01  0.18917095146E+02  0.13945868994E+02  0.24529740583E+02  0.00000000000E+00 0.  1.
</event>
<event>
 5    1  0.1254496E-009  0.9118800E+02  0.7815553E-02  0.1125453E+00
         25   -1    0    0    0    0  0.00000000000E+00  0.00000000000E+00  0.99999998245E-14  0.12509000000E+03  0.12509000000E+03 0.  0.
        -13    1    3    3    0    0  0.20473005577E+02  0.27320891574E+02 -0.13232291564E+02  0.36615294316E+02  0.10566000000E+00 0. -1.
         23    2    1    0    0    0 -0.18147087500E+02 -0.17136955906E+02 -0.15780079150E+02  0.95560304092E+02  0.90883270064E+02 0.  0.
         13    1    3    3    0    0 -0.38620093077E+02 -0.44457847480E+02 -0.25477875862E+01  0.58945009776E+02  0.10566000000E+00 0.  1.
         22    1    1    0    0    0  0.18147087500E+02  0.17136955906E+02  0.15780079150E+02  0.29529695908E+02  0.00000000000E+00 0.  1.
</event>
<event>
 5    1  0.1254496E-009  0.9118800E+02  0.7815553E-02  0.1125453E+00
         25   -1    0    0    0    0  0.00000000000E+00  0.00000000000E+00  0.99999998245E-14  0.12509000000E+03  0.12509000000E+03 0.  0.
        -13    1    3    3    0    0 -0.55424256815E+02 -0.25497990132E+02 -0.59847477559E+01  0.61301093905E+02  0.10566000000E+00 0. -1.
         23    2    1    0    0    0 -0.28721655716E+02 -0.42925564941E+01 -0.61746925622E+01  0.95400163750E+02  0.90662588022E+02 0.  0.
         13    1    3    3    0    0  0.26702601098E+02  0.21205433638E+02 -0.18994480628E+00  0.34099069844E+02  0.10566000000E+00 0.  1.
         22    1    1    0    0    0  0.28721655716E+02  0.42925564941E+01  0.61746925622E+01  0.29689836250E+02  0.00000000000E+00 0. -1.
</event>
<event>
 5    1  0.1254496E-009  0.9118800E+02  0.7815553E-02  0.1125453E+00
         25   -1    0    0    0    0  0.00000000000E+00  0.00000000000E+00  0.99999998245E-14  0.12509000000E+03  0.12509000000E+03 0.  0.
        -13    1    3    3    0    0  0.24040626807E+02  0.46147862527E+02 -0.17720407539E+02  0.54969090955E+02  0.10566000000E+00 0. -1.
         23    2    1    0    0    0  0.12814577550E+02  0.75608976471E+01 -0.25180063704E+02  0.95842501318E+02  0.91270854493E+02 0.  0.
         13    1    3    3    0    0 -0.11226049257E+02 -0.38586964880E+02 -0.74596561648E+01  0.40873410363E+02  0.10566000000E+00 0.  1.
         22    1    1    0    0    0 -0.12814577550E+02 -0.75608976471E+01  0.25180063704E+02  0.29247498682E+02  0.00000000000E+00 0. -1.
</event>
<event>
 5    1  0.1254496E-009  0.9118800E+02  0.7815553E-02  0.1125453E+00
         25   -1    0    0    0    0  0.00000000000E+00  0.00000000000E+00  0.99999998245E-14  0.12509000000E+03  0.12509000000E+03 0.  0.
        -13    1    3    3    0    0 -0.26299861767E+02  0.79299776941E+01  0.58883124200E+01  0.28093605365E+02  0.10566000000E+00 0. -1.
         23    2    1    0    0    0  0.27995026054E+02  0.22467562795E+02 -0.12259721368E+02  0.87158303100E+02  0.78471371655E+02 0.  0.
         13    1    3    3    0    0  0.54294887822E+02  0.14537585101E+02 -0.18148033788E+02  0.59064697735E+02  0.10566000000E+00 0.  1.
         22    1    1    0    0    0 -0.27995026054E+02 -0.22467562795E+02  0.12259721368E+02  0.37931696900E+02  0.00000000000E+00 0.  1.
</event>
<event>
 5    1  0.1254496E-009  0.9118800E+02  0.7815553E-02  0.1125453E+00
         25   -1    0    0    0    0  0.00000000000E+00  0.00000000000E+00  0.99999998245E-14  0.12509000000E+03  0.12509000000E+03 0.  0.
        -13    1    3    3    0    0 -0.10459539249E+01 -0.28826005520E+02  0.22160563963E+02  0.36374914062E+02  0.10566000000E+00 0. -1.
         23    2    1    0    0    0  0.22097858725E+02  0.19301661655E+02 -0.33503637790E+01  0.95558754846E+02  0.90881137688E+02 0.  0.
         13    1    3    3    0    0  0.23143812650E+02  0.48127667174E+02 -0.25510927742E+02  0.59183840784E+02  0.10566000000E+00 0.  1.
         22    1    1    0    0    0 -0.22097858725E+02 -0.19301661655E+02  0.33503637790E+01  0.29531245154E+02  0.00000000000E+00 0.  1.
</event>
<event>
 5    1  0.1254496E-009  0.9118800E+02  0.7815553E-02  0.1125453E+00
         25   -1    0    0    0    0  0.00000000000E+00  0.00000000000E+00  0.99999998245E-14  0.12509000000E+03  0.12509000000E+03 0.  0.
        -13    1    3    3    0    0  0.28278038596E+02  0.41827140558E+02  0.17464289909E+02  0.53424430181E+02  0.10566000000E+00 0.  1.
         23    2    1    0    0    0 -0.29845368497E+00  0.13255176902E+02  0.27058343977E+02  0.94957911323E+02  0.90050331231E+02 0.  0.
         13    1    3    3    0    0 -0.28576492281E+02 -0.28571963656E+02  0.95940540678E+01  0.41533481142E+02  0.10566000000E+00 0. -1.
         22    1    1    0    0    0  0.29845368497E+00 -0.13255176902E+02 -0.27058343977E+02  0.30132088677E+02  0.00000000000E+00 0.  1.
</event>
<event>
 5    1  0.1254496E-009  0.9118800E+02  0.7815553E-02  0.1125453E+00
         25   -1    0    0    0    0  0.00000000000E+00  0.00000000000E+00  0.99999998245E-14  0.12509000000E+03  0.12509000000E+03 0.  0.
        -13    1    3    3    0    0 -0.12974984558E+02  0.18384219513E+02 -0.14048507788E+02  0.26527372401E+02  0.10566000000E+00 0.  1.
         23    2    1    0    0    0  0.75607147050E+01 -0.36122396952E+02  0.50845997418E+01  0.87836206597E+02  0.79544667115E+02 0.  0.
         13    1    3    3    0    0  0.20535699263E+02 -0.54506616465E+02  0.19133107530E+02  0.61308834196E+02  0.10566000000E+00 0. -1.
         22    1    1    0    0    0 -0.75607147050E+01  0.36122396952E+02 -0.50845997418E+01  0.37253793403E+02  0.00000000000E+00 0. -1.
</event>
<event>
 5    1  0.1254496E-009  0.9118800E+02  0.7815553E-02  0.1125453E+00
         25   -1    0    0    0    0  0.00000000000E+00  0.00000000000E+00  0.99999998245E-14  0.12509000000E+03  0.12509000000E+03 0.  0.
        -13    1    3    3    0    0  0.29093410355E+02 -0.24823086454E+01 -0.31552125615E+02  0.42989954375E+02  0.10566000000E+00 0.  1.
         23    2    1    0    0    0 -0.19317496028E+02  0.72151167535E+01 -0.24823078379E+02  0.92819134149E+02  0.87028632538E+02 0.  0.
         13    1    3    3    0    0 -0.48410906383E+02  0.96974253990E+01  0.67290472357E+01  0.49829179774E+02  0.10566000000E+00 0. -1.
         22    1    1    0    0    0  0.19317496028E+02 -0.72151167535E+01  0.24823078379E+02  0.32270865851E+02  0.00000000000E+00 0. -1.
</event>
<event>
 5    1  0.1254496E-009  0.9118800E+02  0.7815553E-02  0.1125453E+00
         25   -1    0    0    0    0  0.00000000000E+00  0.00000000000E+00  0.99999998245E-14  0.12509000000E+03  0.12509000000E+03 0.  0.
        -13    1    3    3    0    0  0.25572800991E+02 -0.28789267532E+02  0.12133484879E+02  0.40373539539E+02  0.10566000000E+00 0. -1.
         23    2    1    0    0    0 -0.15444857974E+02 -0.10159549411E+02 -0.21603807115E+02  0.96656137021E+02  0.92379241499E+02 0.  0.
         13    1    3    3    0    0 -0.41017658965E+02  0.18629718122E+02 -0.33737291994E+02  0.56282597482E+02  0.10566000000E+00 0.  1.
         22    1    1    0    0    0  0.15444857974E+02  0.10159549411E+02  0.21603807115E+02  0.28433862979E+02  0.00000000000E+00 0.  1.
</event>
<event>
 5    1  0.1254496E-009  0.9118800E+02  0.7815553E-02  0.1125453E+00
         25   -1    0    0    0    0  0.00000000000E+00  0.00000000000E+00  0.99999998245E-14  0.12509000000E+03  0.12509000000E+03 0.  0.
        -13    1    3    3    0    0 -0.30145837286E+02  0.11603862739E+02 -0.26158795756E+02  0.41565789967E+02  0.10566000000E+00 0.  1.
         23    2    1    0    0    0  0.50863131493E+01  0.25747935597E+02  0.12735498028E+02  0.95917758417E+02  0.91373938848E+02 0.  0.
         13    1    3    3    0    0  0.35232150435E+02  0.14144072858E+02  0.38894293785E+02  0.54351968450E+02  0.10566000000E+00 0. -1.
         22    1    1    0    0    0 -0.50863131493E+01 -0.25747935597E+02 -0.12735498028E+02  0.29172241583E+02  0.00000000000E+00 0. -1.
</event>
<event>
 5    1  0.1254496E-009  0.9118800E+02  0.7815553E-02  0.1125453E+00
         25   -1    0    0    0    0  0.00000000000E+00  0.00000000000E+00  0.99999998245E-14  0.12509000000E+03  0.12509000000E+03 0.  0.
        -13    1    3    3    0    0  0.34587903585E+01  0.43714933281E+02  0.31101036780E+02  0.53760992135E+02  0.10566000000E+00 0.  1.
         23    2    1    0    0    0 -0.60749116566E+00  0.34388036717E+01  0.30647143077E+02  0.94244549849E+02  0.89053879092E+02 0.  0.
         13    1    3    3    0    0 -0.40662815241E+01 -0.40276129609E+02 -0.45389370256E+00  0.40483557715E+02  0.10566000000E+00 0. -1.
         22    1    1    0    0    0  0.60749116566E+00 -0.34388036717E+01 -0.30647143077E+02  0.30845450151E+02  0.00000000000E+00 0.  1.
</event>
<event>
 5    1  0.1254496E-009  0.9118800E+02  0.7815553E-02  0.1125453E+00
         25   -1    0    0    0    0  0.00000000000E+00  0.00000000000E+00  0.99999998245E-14  0.12509000000E+03  0.12509000000E+03 0.  0.
        -13    1    3    3    0    0 -0.15130444326E+01 -0.15700197749E+02  0.39420314979E+01  0.16258422100E+02  0.10566000000E+00 0.  1.
         23    2    1    0    0    0 -0.75262734906E+01  0.44331135816E+02  0.15186622309E+02  0.77629196251E+02  0.61430971162E+02 0.  0.
         13    1    3    3    0    0 -0.60132290580E+01  0.60031333565E+02  0.11244590811E+02  0.61370774151E+02  0.10566000000E+00 0. -1.
         22    1    1    0    0    0  0.75262734906E+01 -0.44331135816E+02 -0.15186622309E+02  0.47460803749E+02  0.00000000000E+00 0. -1.
</event>
<event>
 5    1  0.1254496E-009  0.9118800E+02  0.7815553E-02  0.1125453E+00
         25   -1    0    0    0    0  0.00000000000E+00  0.00000000000E+00  0.99999998245E-14  0.12509000000E+03  0.12509000000E+03 0.  0.
        -13    1    3    3    0    0  0.33879331319E+02  0.24285660174E+02  0.26473007051E+01  0.41768669427E+02  0.10566000000E+00 0.  1.
         23    2    1    0    0    0 -0.18864529874E+01 -0.76875201390E+01  0.27974153471E+02  0.96017505557E+02  0.91510389794E+02 0.  0.
         13    1    3    3    0    0 -0.35765784306E+02 -0.31973180313E+02  0.25326852765E+02  0.54248836129E+02  0.10566000000E+00 0. -1.
         22    1    1    0    0    0  0.18864529874E+01  0.76875201390E+01 -0.27974153471E+02  0.29072494443E+02  0.00000000000E+00 0. -1.
</event>
<event>
 5    1  0.1254496E-009  0.9118800E+02  0.7815553E-02  0.1125453E+00
         25   -1    0    0    0    0  0.00000000000E+00  0.00000000000E+00  0.99999998245E-14  0.12509000000E+03  0.12509000000E+03 0.  0.
        -13    1    3    3    0    0  0.42214791270E+02 -0.12520865724E+02  0.24754177091E+02  0.50513771666E+02  0.10566000000E+00 0.  1.
         23    2    1    0    0    0  0.46443778690E+00 -0.25894610411E+02  0.13982044079E+02  0.95657974799E+02  0.91017602887E+02 0.  0.
         13    1    3    3    0    0 -0.41750353483E+02 -0.13373744687E+02 -0.10772133011E+02  0.45144203134E+02  0.10566000000E+00 0. -1.
         22    1    1    0    0    0 -0.46443778690E+00  0.25894610411E+02 -0.13982044079E+02  0.29432025201E+02  0.00000000000E+00 0.  1.
</event>
<event>
 5    1  0.1254496E-009  0.9118800E+02  0.7815553E-02  0.1125453E+00
         25   -1    0    0    0    0  0.00000000000E+00  0.00000000000E+00  0.99999998245E-14  0.12509000000E+03  0.12509000000E+03 0.  0.
        -13    1    3    3    0    0 -0.31792896876E+02  0.96614585712E+01 -0.20923105112E+02  0.39267283648E+02  0.10566000000E+00 0.  1.
         23    2    1    0    0    0  0.58435168184E+01 -0.28182882426E+02 -0.83528831792E+00  0.96295568989E+02  0.91889702087E+02 0.  0.
         13    1    3    3    0    0  0.37636413695E+02 -0.37844340998E+02  0.20087816794E+02  0.57028285341E+02  0.10566000000E+00 0. -1.
         22    1    1    0    0    0 -0.58435168184E+01  0.28182882426E+02  0.83528831792E+00  0.28794431011E+02  0.00000000000E+00 0. -1.
</event>
<event>
 5    1  0.1254496E-009  0.9118800E+02  0.7815553E-02  0.1125453E+00
         25   -1    0    0    0    0  0.00000000000E+00  0.00000000000E+00  0.99999998245E-14  0.12509000000E+03  0.12509000000E+03 0.  0.
        -13    1    3    3    0    0 -0.32495434718E+02 -0.26195075962E+02  0.27406187603E+02  0.49932409967E+02  0.10566000000E+00 0.  1.
         23    2    1    0    0    0 -0.24571056990E+02  0.14336087744E+02  0.81615197329E+01  0.95494887941E+02  0.90793187878E+02 0.  0.
         13    1    3    3    0    0  0.79243777274E+01  0.40531163705E+02 -0.19244667870E+02  0.45562477974E+02  0.10566000000E+00 0. -1.
         22    1    1    0    0    0  0.24571056990E+02 -0.14336087744E+02 -0.81615197329E+01  0.29595112059E+02  0.00000000000E+00 0.  1.
</event>
<event>
 5    1  0.1254496E-009  0.9118800E+02  0.7815553E-02  0.1125453E+00
         25   -1    0    0    0    0  0.00000000000E+00  0.00000000000E+00  0.99999998245E-14  0.12509000000E+03  0.12509000000E+03 0.  0.
        -13    1    3    3    0    0 -0.41584566656E+02  0.15316573954E+00 -0.43472513544E+02  0.60159539905E+02  0.10566000000E+00 0.  1.
         23    2    1    0    0    0 -0.10073575067E+02  0.58325272180E+01 -0.25925388255E+02  0.96671325778E+02  0.92399806185E+02 0.  0.
         13    1    3    3    0    0  0.31510991589E+02  0.56793614784E+01  0.17547125289E+02  0.36511785873E+02  0.10566000000E+00 0. -1.
         22    1    1    0    0    0  0.10073575067E+02 -0.58325272180E+01  0.25925388255E+02  0.28418674222E+02  0.00000000000E+00 0.  1.
</event>
<event>
 5    1  0.1254496E-009  0.9118800E+02  0.7815553E-02  0.1125453E+00
         25   -1    0    0    0    0  0.00000000000E+00  0.00000000000E+00  0.99999998245E-14  0.12509000000E+03  0.12509000000E+03 0.  0.
        -13    1    3    3    0    0 -0.31082946158E+02  0.67200543322E+01 -0.53757427989E+02  0.62459434036E+02  0.10566000000E+00 0.  1.
         23    2    1    0    0    0 -0.14755322352E+02  0.54176402114E+01 -0.24808775548E+02  0.95720871526E+02  0.91104003964E+02 0.  0.
         13    1    3    3    0    0  0.16327623806E+02 -0.13024141207E+01  0.28948652441E+02  0.33261437490E+02  0.10566000000E+00 0. -1.
         22    1    1    0    0    0  0.14755322352E+02 -0.54176402114E+01  0.24808775548E+02  0.29369128474E+02  0.00000000000E+00 0.  1.
</event>
<event>
 5    1  0.1254496E-009  0.9118800E+02  0.7815553E-02  0.1125453E+00
         25   -1    0    0    0    0  0.00000000000E+00  0.00000000000E+00  0.99999998245E-14  0.12509000000E+03  0.12509000000E+03 0.  0.
        -13    1    3    3    0    0  0.25864046330E+02  0.20103739832E+02 -0.12784984454E+02  0.35164985985E+02  0.10566000000E+00 0.  1.
         23    2    1    0    0    0 -0.40556235063E+01 -0.26235622853E+02  0.12385447246E+02  0.95795712298E+02  0.91206705908E+02 0.  0.
         13    1    3    3    0    0 -0.29919669836E+02 -0.46339362685E+02  0.25170431700E+02  0.60630726313E+02  0.10566000000E+00 0. -1.
         22    1    1    0    0    0  0.40556235063E+01  0.26235622853E+02 -0.12385447246E+02  0.29294287702E+02  0.00000000000E+00 0. -1.
</event>
<event>
 5    1  0.1254496E-009  0.9118800E+02  0.7815553E-02  0.1125453E+00
         25   -1    0    0    0    0  0.00000000000E+00  0.00000000000E+00  0.99999998245E-14  0.12509000000E+03  0.12509000000E+03 0.  0.
        -13    1    3    3    0    0 -0.41565162065E+02  0.30275485187E+02  0.32558361201E+02  0.60863172353E+02  0.10566000000E+00 0.  1.
         23    2    1    0    0    0 -0.24103975771E+02  0.16103793432E+02  0.63194762504E+01  0.95420662445E+02  0.90690866302E+02 0.  0.
         13    1    3    3    0    0  0.17461186294E+02 -0.14171691755E+02 -0.26238884951E+02  0.34557490092E+02  0.10566000000E+00 0. -1.
         22    1    1    0    0    0  0.24103975771E+02 -0.16103793432E+02 -0.63194762504E+01  0.29669337555E+02  0.00000000000E+00 0.  1.
</event>
<event>
 5    1  0.1254496E-009  0.9118800E+02  0.7815553E-02  0.1125453E+00
         25   -1    0    0    0    0  0.00000000000E+00  0.00000000000E+00  0.99999998245E-14  0.12509000000E+03  0.12509000000E+03 0.  0.
        -13    1    3    3    0    0  0.25999484100E+02  0.42389012075E+02 -0.17723021195E+02  0.52791269756E+02  0.10566000000E+00 0.  1.
         23    2    1    0    0    0  0.29240033155E+02  0.24963362433E+01 -0.24100333615E+01  0.95644805242E+02  0.90999501512E+02 0.  0.
         13    1    3    3    0    0  0.32405490546E+01 -0.39892675832E+02  0.15312987833E+02  0.42853535486E+02  0.10566000000E+00 0. -1.
         22    1    1    0    0    0 -0.29240033155E+02 -0.24963362433E+01  0.24100333615E+01  0.29445194758E+02  0.00000000000E+00 0.  1.
</event>
<event>
 5    1  0.1254496E-009  0.9118800E+02  0.7815553E-02  0.1125453E+00
         25   -1    0    0    0    0  0.00000000000E+00  0.00000000000E+00  0.99999998245E-14  0.12509000000E+03  0.12509000000E+03 0.  0.
        -13    1    3    3    0    0 -0.31601336750E+02  0.49113852216E+01 -0.51623620893E+02  0.60727058115E+02  0.10566000000E+00 0.  1.
         23    2    1    0    0    0 -0.21267817107E+02 -0.36358109927E+01 -0.17777260974E+02  0.97133423425E+02  0.93023286184E+02 0.  0.
         13    1    3    3    0    0  0.10333519643E+02 -0.85471962143E+01  0.33846359919E+02  0.36406365310E+02  0.10566000000E+00 0. -1.
         22    1    1    0    0    0  0.21267817107E+02  0.36358109927E+01  0.17777260974E+02  0.27956576575E+02  0.00000000000E+00 0.  1.
</event>
<event>
 5    1  0.1254496E-009  0.9118800E+02  0.7815553E-02  0.1125453E+00
         25   -1    0    0    0    0  0.00000000000E+00  0.00000000000E+00  0.99999998245E-14  0.12509000000E+03  0.12509000000E+03 0.  0.
        -13    1    3    3    0    0  0.18041543114E+02 -0.45938563428E+02 -0.15768890787E+02  0.51812334134E+02  0.10566000000E+00 0. -1.
         23    2    1    0    0    0  0.83958214575E+00 -0.45663981166E+02  0.54104642093E+01  0.79098944379E+02  0.64354221344E+02 0.  0.
         13    1    3    3    0    0 -0.17201960969E+02  0.27458226161E+00  0.21179354996E+02  0.27286610245E+02  0.10566000000E+00 0.  1.
         22    1    1    0    0    0 -0.83958214575E+00  0.45663981166E+02 -0.54104642093E+01  0.45991055621E+02  0.00000000000E+00 0. -1.
</event>
<event>
 5    1  0.1254496E-009  0.9118800E+02  0.7815553E-02  0.1125453E+00
         25   -1    0    0    0    0  0.00000000000E+00  0.00000000000E+00  0.99999998245E-14  0.12509000000E+03  0.12509000000E+03 0.  0.
        -13    1    3    3    0    0  0.16755152707E+02 -0.26273931200E+02 -0.32459704748E+02  0.44996646534E+02  0.10566000000E+00 0.  1.
         23    2    1    0    0    0  0.27796805056E+02 -0.15201579582E+01  0.10118127038E+02  0.95469909752E+02  0.90758767740E+02 0.  0.
         13    1    3    3    0    0  0.11041652349E+02  0.24753773241E+02  0.42577831786E+02  0.50473263218E+02  0.10566000000E+00 0. -1.
         22    1    1    0    0    0 -0.27796805056E+02  0.15201579582E+01 -0.10118127038E+02  0.29620090248E+02  0.00000000000E+00 0. -1.
</event>
<event>
 5    1  0.1254496E-009  0.9118800E+02  0.7815553E-02  0.1125453E+00
         25   -1    0    0    0    0  0.00000000000E+00  0.00000000000E+00  0.99999998245E-14  0.12509000000E+03  0.12509000000E+03 0.  0.
        -13    1    3    3    0    0  0.44510264064E+02  0.33983584770E+02  0.20355925228E+02  0.59585421848E+02  0.10566000000E+00 0. -1.
         23    2    1    0    0    0  0.12250883618E+02  0.26042542924E+02  0.64798063745E+01  0.95589388446E+02  0.90923292403E+02 0.  0.
         13    1    3    3    0    0 -0.32259380446E+02 -0.79410418457E+01 -0.13876118853E+02  0.36003966598E+02  0.10566000000E+00 0.  1.
         22    1    1    0    0    0 -0.12250883618E+02 -0.26042542924E+02 -0.64798063745E+01  0.29500611554E+02  0.00000000000E+00 0. -1.
</event>
<event>
 5    1  0.1254496E-009  0.9118800E+02  0.7815553E-02  0.1125453E+00
         25   -1    0    0    0    0  0.00000000000E+00  0.00000000000E+00  0.99999998245E-14  0.12509000000E+03  0.12509000000E+03 0.  0.
        -13    1    3    3    0    0 -0.31575389777E+02  0.27316401860E+02  0.45099759914E+01  0.41994548427E+02  0.10566000000E+00 0.  1.
         23    2    1    0    0    0  0.21218373650E+02  0.19621232413E+02 -0.36270896480E+01  0.95963243898E+02  0.91436186810E+02 0.  0.
         13    1    3    3    0    0  0.52793763426E+02 -0.76951694471E+01 -0.81370656394E+01  0.53968695470E+02  0.10566000000E+00 0. -1.
         22    1    1    0    0    0 -0.21218373650E+02 -0.19621232413E+02  0.36270896480E+01  0.29126756102E+02  0.00000000000E+00 0. -1.
</event>
<event>
 5    1  0.1254496E-009  0.9118800E+02  0.7815553E-02  0.1125453E+00
         25   -1    0    0    0    0  0.00000000000E+00  0.00000000000E+00  0.99999998245E-14  0.12509000000E+03  0.12509000000E+03 0.  0.
        -13    1    3    3    0    0 -0.70270751555E+01 -0.48960231195E+02 -0.27286046209E+02  0.56489145025E+02  0.10566000000E+00 0.  1.
         23    2    1    0    0    0 -0.12980573772E+02 -0.22517126774E+02  0.49770900389E+01  0.98627050072E+02  0.95010564081E+02 0.  0.
         13    1    3    3    0    0 -0.59534986169E+01  0.26443104421E+02  0.32263136248E+02  0.42137905047E+02  0.10566000000E+00 0. -1.
         22    1    1    0    0    0  0.12980573772E+02  0.22517126774E+02 -0.49770900389E+01  0.26462949928E+02  0.00000000000E+00 0.  1.
</event>
<event>
 5    1  0.1254496E-009  0.9118800E+02  0.7815553E-02  0.1125453E+00
         25   -1    0    0    0    0  0.00000000000E+00  0.00000000000E+00  0.99999998245E-14  0.12509000000E+03  0.12509000000E+03 0.  0.
        -13    1    3    3    0    0  0.38336154209E+01  0.68646695277E+01  0.40975366903E+02  0.41723041018E+02  0.10566000000E+00 0. -1.
         23    2    1    0    0    0 -0.24012625651E+02 -0.16998237928E+02  0.14596681832E+01  0.95633643903E+02  0.90984157587E+02 0.  0.
         13    1    3    3    0    0 -0.27846241071E+02 -0.23862907455E+02 -0.39515698720E+02  0.53910602885E+02  0.10566000000E+00 0.  1.
         22    1    1    0    0    0  0.24012625651E+02  0.16998237928E+02 -0.14596681832E+01  0.29456356097E+02  0.00000000000E+00 0.  1.
</event>
<event>
 5    1  0.1254496E-009  0.9118800E+02  0.7815553E-02  0.1125453E+00
         25   -1    0    0    0    0  0.00000000000E+00  0.00000000000E+00  0.99999998245E-14  0.12509000000E+03  0.12509000000E+03 0.  0.
        -13    1    3    3    0    0  0.13279671206E+02  0.56828531667E+02 -0.22443442223E+02  0.62526401957E+02  0.10566000000E+00 0.  1.
         23    2    1    0    0    0  0.69200175897E+01  0.30513874305E+02 -0.10901685104E+02  0.91956483636E+02  0.85779746887E+02 0.  0.
         13    1    3    3    0    0 -0.63596536166E+01 -0.26314657362E+02  0.11541757119E+02  0.29430081679E+02  0.10566000000E+00 0. -1.
         22    1    1    0    0    0 -0.69200175897E+01 -0.30513874305E+02  0.10901685104E+02  0.33133516364E+02  0.00000000000E+00 0.  1.
</event>
<event>
 5    1  0.1254496E-009  0.9118800E+02  0.7815553E-02  0.1125453E+00
         25   -1    0    0    0    0  0.00000000000E+00  0.00000000000E+00  0.99999998245E-14  0.12509000000E+03  0.12509000000E+03 0.  0.
        -13    1    3    3    0    0 -0.22561292650E+02  0.56335828427E+02  0.78069612162E+01  0.61185760582E+02  0.10566000000E+00 0. -1.
         23    2    1    0    0    0 -0.13742430665E+02  0.23236879504E+02  0.11714046064E+02  0.95661682942E+02  0.91022699029E+02 0.  0.
         13    1    3    3    0    0  0.88188619850E+01 -0.33098948923E+02  0.39070848475E+01  0.34475922360E+02  0.10566000000E+00 0.  1.
         22    1    1    0    0    0  0.13742430665E+02 -0.23236879504E+02 -0.11714046064E+02  0.29428317058E+02  0.00000000000E+00 0. -1.
</event>
<event>
 5    1  0.1254496E-009  0.9118800E+02  0.7815553E-02  0.1125453E+00
         25   -1    0    0    0    0  0.00000000000E+00  0.00000000000E+00  0.99999998245E-14  0.12509000000E+03  0.12509000000E+03 0.  0.
        -13    1    3    3    0    0  0.45278039583E+02  0.62804253089E+01  0.17580291225E+02  0.48975732910E+02  0.10566000000E+00 0. -1.
         23    2    1    0    0    0  0.18665806257E+02  0.13082475467E+02 -0.19480418770E+02  0.95105834128E+02  0.90255578676E+02 0.  0.
         13    1    3    3    0    0 -0.26612233326E+02  0.68020501582E+01 -0.37060709995E+02  0.46130101218E+02  0.10566000000E+00 0.  1.
         22    1    1    0    0    0 -0.18665806257E+02 -0.13082475467E+02  0.19480418770E+02  0.29984165872E+02  0.00000000000E+00 0.  1.
</event>
<event>
 5    1  0.1254496E-009  0.9118800E+02  0.7815553E-02  0.1125453E+00
         25   -1    0    0    0    0  0.00000000000E+00  0.00000000000E+00  0.99999998245E-14  0.12509000000E+03  0.12509000000E+03 0.  0.
        -13    1    3    3    0    0  0.31890541553E+02  0.76660365640E+01  0.37373635991E+01  0.33011419355E+02  0.10566000000E+00 0. -1.
         23    2    1    0    0    0 -0.27775173979E+02  0.13492372367E+02  0.82422375546E+01  0.93130042529E+02  0.87474373046E+02 0.  0.
         13    1    3    3    0    0 -0.59665715532E+02  0.58263358030E+01  0.45048739555E+01  0.60118623173E+02  0.10566000000E+00 0.  1.
         22    1    1    0    0    0  0.27775173979E+02 -0.13492372367E+02 -0.82422375546E+01  0.31959957471E+02  0.00000000000E+00 0.  1.
</event>
<event>
 5    1  0.1254496E-009  0.9118800E+02  0.7815553E-02  0.1125453E+00
         25   -1    0    0    0    0  0.00000000000E+00  0.00000000000E+00  0.99999998245E-14  0.12509000000E+03  0.12509000000E+03 0.  0.
        -13    1    3    3    0    0  0.54295128089E+01 -0.43227862369E+02  0.18247470884E+02  0.47234617094E+02  0.10566000000E+00 0. -1.
         23    2    1    0    0    0  0.27537036697E+02 -0.16223983691E+01  0.12855985475E+02  0.94656516318E+02  0.89630681981E+02 0.  0.
         13    1    3    3    0    0  0.22107523888E+02  0.41605463999E+02 -0.53914854095E+01  0.47421899224E+02  0.10566000000E+00 0.  1.
         22    1    1    0    0    0 -0.27537036697E+02  0.16223983691E+01 -0.12855985475E+02  0.30433483682E+02  0.00000000000E+00 0. -1.
</event>
<event>
 5    1  0.1254496E-009  0.9118800E+02  0.7815553E-02  0.1125453E+00
         25   -1    0    0    0    0  0.00000000000E+00  0.00000000000E+00  0.99999998245E-14  0.12509000000E+03  0.12509000000E+03 0.  0.
        -13    1    3    3    0    0 -0.27842656469E+02 -0.25513142466E+01  0.27670623633E+02  0.39336971158E+02  0.10566000000E+00 0.  1.
         23    2    1    0    0    0  0.22479448237E+02 -0.17698666020E+02  0.94118514135E+01  0.94971047180E+02  0.90068576560E+02 0.  0.
         13    1    3    3    0    0  0.50322104706E+02 -0.15147351773E+02 -0.18258772220E+02  0.55634076022E+02  0.10566000000E+00 0. -1.
         22    1    1    0    0    0 -0.22479448237E+02  0.17698666020E+02 -0.94118514135E+01  0.30118952820E+02  0.00000000000E+00 0. -1.
</event>
<event>
 5    1  0.1254496E-009  0.9118800E+02  0.7815553E-02  0.1125453E+00
         25   -1    0    0    0    0  0.00000000000E+00  0.00000000000E+00  0.99999998245E-14  0.12509000000E+03  0.12509000000E+03 0.  0.
        -13    1    3    3    0    0  0.28574731589E+02  0.24360783837E+02 -0.37341904630E+02  0.52956511215E+02  0.10566000000E+00 0. -1.
         23    2    1    0    0    0 -0.12443168148E+01 -0.44093697162E+01 -0.29635236840E+02  0.95102700552E+02  0.90251235582E+02 0.  0.
         13    1    3    3    0    0 -0.29819048404E+02 -0.28770153553E+02  0.77066677906E+01  0.42146189338E+02  0.10566000000E+00 0.  1.
         22    1    1    0    0    0  0.12443168148E+01  0.44093697162E+01  0.29635236840E+02  0.29987299448E+02  0.00000000000E+00 0. -1.
</event>
<event>
 5    1  0.1254496E-009  0.9118800E+02  0.7815553E-02  0.1125453E+00
         25   -1    0    0    0    0  0.00000000000E+00  0.00000000000E+00  0.99999998245E-14  0.12509000000E+03  0.12509000000E+03 0.  0.
        -13    1    3    3    0    0 -0.11646576423E+02 -0.17808466038E+01 -0.44519153992E+02  0.46051931482E+02  0.10566000000E+00 0. -1.
         23    2    1    0    0    0 -0.35294524233E+01  0.27276931257E+02 -0.29327686665E+01  0.97429755148E+02  0.93420918658E+02 0.  0.
         13    1    3    3    0    0  0.81171240001E+01  0.29057777861E+02  0.41586385325E+02  0.51377823666E+02  0.10566000000E+00 0.  1.
         22    1    1    0    0    0  0.35294524233E+01 -0.27276931257E+02  0.29327686665E+01  0.27660244852E+02  0.00000000000E+00 0. -1.
</event>
<event>
 5    1  0.1254496E-009  0.9118800E+02  0.7815553E-02  0.1125453E+00
         25   -1    0    0    0    0  0.00000000000E+00  0.00000000000E+00  0.99999998245E-14  0.12509000000E+03  0.12509000000E+03 0.  0.
        -13    1    3    3    0    0  0.20274607690E+02 -0.39739733822E+02 -0.27967336842E+02  0.52654432438E+02  0.10566000000E+00 0. -1.
         23    2    1    0    0    0  0.35432358492E+02 -0.25528073901E+02 -0.96235672798E+01  0.80371462092E+02  0.66781915862E+02 0.  0.
         13    1    3    3    0    0  0.15157750802E+02  0.14211659921E+02  0.18343769562E+02  0.27717029655E+02  0.10566000000E+00 0.  1.
         22    1    1    0    0    0 -0.35432358492E+02  0.25528073901E+02  0.96235672798E+01  0.44718537908E+02  0.00000000000E+00 0. -1.
</event>
<event>
 5    1  0.1254496E-009  0.9118800E+02  0.7815553E-02  0.1125453E+00
         25   -1    0    0    0    0  0.00000000000E+00  0.00000000000E+00  0.99999998245E-14  0.12509000000E+03  0.12509000000E+03 0.  0.
        -13    1    3    3    0    0  0.24012570914E+02  0.11177741176E+02 -0.18893726557E+02  0.32535050745E+02  0.10566000000E+00 0. -1.
         23    2    1    0    0    0 -0.24644753113E+02 -0.16405145429E+02  0.77472891219E+01  0.94487497794E+02  0.89394485837E+02 0.  0.
         13    1    3    3    0    0 -0.48657324027E+02 -0.27582886605E+02  0.26641015679E+02  0.61952447049E+02  0.10566000000E+00 0.  1.
         22    1    1    0    0    0  0.24644753113E+02  0.16405145429E+02 -0.77472891219E+01  0.30602502206E+02  0.00000000000E+00 0.  1.
</event>
<event>
 5    1  0.1254496E-009  0.9118800E+02  0.7815553E-02  0.1125453E+00
         25   -1    0    0    0    0  0.00000000000E+00  0.00000000000E+00  0.99999998245E-14  0.12509000000E+03  0.12509000000E+03 0.  0.
        -13    1    3    3    0    0 -0.15126159620E+02 -0.40759296720E+01  0.32132146026E+02  0.35747725519E+02  0.10566000000E+00 0. -1.
         23    2    1    0    0    0 -0.29149599801E+01  0.17239125554E+02 -0.23054983404E+02  0.96155302813E+02  0.91698558101E+02 0.  0.
         13    1    3    3    0    0  0.12211199639E+02  0.21315055226E+02 -0.55187129429E+02  0.60407577294E+02  0.10566000000E+00 0.  1.
         22    1    1    0    0    0  0.29149599801E+01 -0.17239125554E+02  0.23054983404E+02  0.28934697187E+02  0.00000000000E+00 0.  1.
</event>
<event>
 5    1  0.1254496E-009  0.9118800E+02  0.7815553E-02  0.1125453E+00
         25   -1    0    0    0    0  0.00000000000E+00  0.00000000000E+00  0.99999998245E-14  0.12509000000E+03  0.12509000000E+03 0.  0.
        -13    1    3    3    0    0 -0.83922842084E+01  0.59394972719E+02  0.91274142474E+01  0.60675481650E+02  0.10566000000E+00 0.  1.
         23    2    1    0    0    0 -0.11954728089E+02  0.24303180883E+02  0.10665610596E+02  0.95981317891E+02  0.91460909738E+02 0.  0.
         13    1    3    3    0    0 -0.35624438804E+01 -0.35091791836E+02  0.15381963486E+01  0.35305836241E+02  0.10566000000E+00 0. -1.
         22    1    1    0    0    0  0.11954728089E+02 -0.24303180883E+02 -0.10665610596E+02  0.29108682109E+02  0.00000000000E+00 0.  1.
</event>
<event>
 5    1  0.1254496E-009  0.9118800E+02  0.7815553E-02  0.1125453E+00
         25   -1    0    0    0    0  0.00000000000E+00  0.00000000000E+00  0.99999998245E-14  0.12509000000E+03  0.12509000000E+03 0.  0.
        -13    1    3    3    0    0  0.25571061257E+02 -0.18175518487E+02 -0.53575892407E+02  0.62085554337E+02  0.10566000000E+00 0. -1.
         23    2    1    0    0    0  0.15962337886E+02 -0.10480240397E+02 -0.22101033193E+02  0.95882341111E+02  0.91325440044E+02 0.  0.
         13    1    3    3    0    0 -0.96087233714E+01  0.76952780894E+01  0.31474859214E+02  0.33796786775E+02  0.10566000000E+00 0.  1.
         22    1    1    0    0    0 -0.15962337886E+02  0.10480240397E+02  0.22101033193E+02  0.29207658889E+02  0.00000000000E+00 0. -1.
</event>
<event>
 5    1  0.1254496E-009  0.9118800E+02  0.7815553E-02  0.1125453E+00
         25   -1    0    0    0    0  0.00000000000E+00  0.00000000000E+00  0.99999998245E-14  0.12509000000E+03  0.12509000000E+03 0.  0.
        -13    1    3    3    0    0 -0.58964086447E+02 -0.11832706661E+01  0.89854091313E+01  0.59656620432E+02  0.10566000000E+00 0.  1.
         23    2    1    0    0    0 -0.24533339247E+02  0.12657835550E+02  0.56179328033E+01  0.96917909122E+02  0.92733027580E+02 0.  0.
         13    1    3    3    0    0  0.34430747200E+02  0.13841106216E+02 -0.33674763280E+01  0.37261288691E+02  0.10566000000E+00 0. -1.
         22    1    1    0    0    0  0.24533339247E+02 -0.12657835550E+02 -0.56179328033E+01  0.28172090878E+02  0.00000000000E+00 0.  1.
</event>
<event>
 5    1  0.1254496E-009  0.9118800E+02  0.7815553E-02  0.1125453E+00
         25   -1    0    0    0    0  0.00000000000E+00  0.00000000000E+00  0.99999998245E-14  0.12509000000E+03  0.12509000000E+03 0.  0.
        -13    1    3    3    0    0  0.30959047177E+02  0.56020864294E+01  0.11969727977E+02  0.33662019048E+02  0.10566000000E+00 0.  1.
         23    2    1    0    0    0 -0.24705760132E+02 -0.11050210917E+02 -0.10641030599E+02  0.96008850139E+02  0.91498557517E+02 0.  0.
         13    1    3    3    0    0 -0.55664807310E+02 -0.16652297347E+02 -0.22610758575E+02  0.62346831091E+02  0.10566000000E+00 0. -1.
         22    1    1    0    0    0  0.24705760132E+02  0.11050210917E+02  0.10641030599E+02  0.29081149861E+02  0.00000000000E+00 0. -1.
</event>
<event>
 5    1  0.1254496E-009  0.9118800E+02  0.7815553E-02  0.1125453E+00
         25   -1    0    0    0    0  0.00000000000E+00  0.00000000000E+00  0.99999998245E-14  0.12509000000E+03  0.12509000000E+03 0.  0.
        -13    1    3    3    0    0 -0.35921991685E+02  0.30732787861E+02 -0.32314439077E+02  0.57263669750E+02  0.10566000000E+00 0.  1.
         23    2    1    0    0    0 -0.20821719243E+02  0.15273468184E+02  0.34372790330E+01  0.99039324198E+02  0.95551818548E+02 0.  0.
         13    1    3    3    0    0  0.15100272441E+02 -0.15459319677E+02  0.35751718110E+02  0.41775654448E+02  0.10566000000E+00 0. -1.
         22    1    1    0    0    0  0.20821719243E+02 -0.15273468184E+02 -0.34372790330E+01  0.26050675802E+02  0.00000000000E+00 0.  1.
</event>
<event>
 5    1  0.1254496E-009  0.9118800E+02  0.7815553E-02  0.1125453E+00
         25   -1    0    0    0    0  0.00000000000E+00  0.00000000000E+00  0.99999998245E-14  0.12509000000E+03  0.12509000000E+03 0.  0.
        -13    1    3    3    0    0 -0.41302563829E+02 -0.12772382917E+02 -0.31903316515E+02  0.53729585081E+02  0.10566000000E+00 0.  1.
         23    2    1    0    0    0  0.17726331758E+01 -0.15249358868E+02 -0.22438984033E+02  0.97901892698E+02  0.94050983063E+02 0.  0.
         13    1    3    3    0    0  0.43075197005E+02 -0.24769759510E+01  0.94643324827E+01  0.44172307617E+02  0.10566000000E+00 0. -1.
         22    1    1    0    0    0 -0.17726331758E+01  0.15249358868E+02  0.22438984033E+02  0.27188107302E+02  0.00000000000E+00 0.  1.
</event>
<event>
 5    1  0.1254496E-009  0.9118800E+02  0.7815553E-02  0.1125453E+00
         25   -1    0    0    0    0  0.00000000000E+00  0.00000000000E+00  0.99999998245E-14  0.12509000000E+03  0.12509000000E+03 0.  0.
        -13    1    3    3    0    0 -0.39492456553E+01  0.31325364781E+02  0.19912761116E+02  0.37328330249E+02  0.10566000000E+00 0. -1.
         23    2    1    0    0    0 -0.19010695419E+02 -0.40187589188E+01 -0.23035930079E+02  0.94953460083E+02  0.90044147748E+02 0.  0.
         13    1    3    3    0    0 -0.15061449764E+02 -0.35344123700E+02 -0.42948691194E+02  0.57625129834E+02  0.10566000000E+00 0.  1.
         22    1    1    0    0    0  0.19010695419E+02  0.40187589188E+01  0.23035930079E+02  0.30136539917E+02  0.00000000000E+00 0.  1.
</event>
<event>
 5    1  0.1254496E-009  0.9118800E+02  0.7815553E-02  0.1125453E+00
         25   -1    0    0    0    0  0.00000000000E+00  0.00000000000E+00  0.99999998245E-14  0.12509000000E+03  0.12509000000E+03 0.  0.
        -13    1    3    3    0    0  0.33449860341E+02 -0.26081636979E+02 -0.29604921198E+02  0.51726274441E+02  0.10566000000E+00 0. -1.
         23    2    1    0    0    0  0.16808909552E+02  0.13630806956E+02 -0.19511651152E+02  0.95951659806E+02  0.91420337727E+02 0.  0.
         13    1    3    3    0    0 -0.16640950789E+02  0.39712443934E+02  0.10093270046E+02  0.44225385365E+02  0.10566000000E+00 0.  1.
         22    1    1    0    0    0 -0.16808909552E+02 -0.13630806956E+02  0.19511651152E+02  0.29138340194E+02  0.00000000000E+00 0. -1.
</event>
<event>
 5    1  0.1254496E-009  0.9118800E+02  0.7815553E-02  0.1125453E+00
         25   -1    0    0    0    0  0.00000000000E+00  0.00000000000E+00  0.99999998245E-14  0.12509000000E+03  0.12509000000E+03 0.  0.
        -13    1    3    3    0    0  0.14860709586E+02  0.34227473601E+02  0.25658378927E+02  0.45284922565E+02  0.10566000000E+00 0.  1.
         23    2    1    0    0    0 -0.22317202135E+02  0.21034190527E+02 -0.33332521345E+01  0.94241900350E+02  0.89050157381E+02 0.  0.
         13    1    3    3    0    0 -0.37177911721E+02 -0.13193283075E+02 -0.28991631061E+02  0.48956977785E+02  0.10566000000E+00 0. -1.
         22    1    1    0    0    0  0.22317202135E+02 -0.21034190527E+02  0.33332521345E+01  0.30848099650E+02  0.00000000000E+00 0.  1.
</event>
<event>
 5    1  0.1254496E-009  0.9118800E+02  0.7815553E-02  0.1125453E+00
         25   -1    0    0    0    0  0.00000000000E+00  0.00000000000E+00  0.99999998245E-14  0.12509000000E+03  0.12509000000E+03 0.  0.
        -13    1    3    3    0    0 -0.31636533366E+02  0.17603199834E+02 -0.39728391474E+02  0.53750340845E+02  0.10566000000E+00 0. -1.
         23    2    1    0    0    0 -0.22302256218E+02  0.19041388043E+02  0.11860993225E+01  0.95740861638E+02  0.91131447177E+02 0.  0.
         13    1    3    3    0    0  0.93342771483E+01  0.14381882090E+01  0.40914490797E+02  0.41990520792E+02  0.10566000000E+00 0.  1.
         22    1    1    0    0    0  0.22302256218E+02 -0.19041388043E+02 -0.11860993225E+01  0.29349138362E+02  0.00000000000E+00 0. -1.
</event>
<event>
 5    1  0.1254496E-009  0.9118800E+02  0.7815553E-02  0.1125453E+00
         25   -1    0    0    0    0  0.00000000000E+00  0.00000000000E+00  0.99999998245E-14  0.12509000000E+03  0.12509000000E+03 0.  0.
        -13    1    3    3    0    0 -0.71762751391E+00  0.56012798335E+02 -0.83164983330E+01  0.56631474244E+02  0.10566000000E+00 0.  1.
         23    2    1    0    0    0  0.10455546436E+02  0.24029546639E+02  0.12141698336E+02  0.96208199477E+02  0.91770688377E+02 0.  0.
         13    1    3    3    0    0  0.11173173950E+02 -0.31983251696E+02  0.20458196669E+02  0.39576725233E+02  0.10566000000E+00 0. -1.
         22    1    1    0    0    0 -0.10455546436E+02 -0.24029546639E+02 -0.12141698336E+02  0.28881800523E+02  0.00000000000E+00 0.  1.
</event>
<event>
 5    1  0.1254496E-009  0.9118800E+02  0.7815553E-02  0.1125453E+00
         25   -1    0    0    0    0  0.00000000000E+00  0.00000000000E+00  0.99999998245E-14  0.12509000000E+03  0.12509000000E+03 0.  0.
        -13    1    3    3    0    0  0.30617942594E+01  0.24827505142E+02  0.22552463133E+02  0.33680919718E+02  0.10566000000E+00 0.  1.
         23    2    1    0    0    0  0.86713165274E+01 -0.14160617643E+02 -0.24781040837E+02  0.95260236217E+02  0.90469319644E+02 0.  0.
         13    1    3    3    0    0  0.56095222680E+01 -0.38988122785E+02 -0.47333503970E+02  0.61579316499E+02  0.10566000000E+00 0. -1.
         22    1    1    0    0    0 -0.86713165274E+01  0.14160617643E+02  0.24781040837E+02  0.29829763783E+02  0.00000000000E+00 0. -1.
</event>
<event>
 5    1  0.1254496E-009  0.9118800E+02  0.7815553E-02  0.1125453E+00
         25   -1    0    0    0    0  0.00000000000E+00  0.00000000000E+00  0.99999998245E-14  0.12509000000E+03  0.12509000000E+03 0.  0.
        -13    1    3    3    0    0  0.14679502565E+02  0.24047577937E+02  0.54857105766E+02  0.61669173963E+02  0.10566000000E+00 0. -1.
         23    2    1    0    0    0  0.58846818338E+01  0.17412655291E+02  0.21470044248E+02  0.96827076503E+02  0.92610420038E+02 0.  0.
         13    1    3    3    0    0 -0.87948207308E+01 -0.66349226462E+01 -0.33387061518E+02  0.35157902541E+02  0.10566000000E+00 0.  1.
         22    1    1    0    0    0 -0.58846818338E+01 -0.17412655291E+02 -0.21470044248E+02  0.28262923497E+02  0.00000000000E+00 0. -1.
</event>
<event>
 5    1  0.1254496E-009  0.9118800E+02  0.7815553E-02  0.1125453E+00
         25   -1    0    0    0    0  0.00000000000E+00  0.00000000000E+00  0.99999998245E-14  0.12509000000E+03  0.12509000000E+03 0.  0.
        -13    1    3    3    0    0  0.32733401471E+02 -0.85511523442E+01 -0.75002497301E+01  0.34653465747E+02  0.10566000000E+00 0.  1.
         23    2    1    0    0    0 -0.25792984979E+02  0.11515976616E+02 -0.28660911133E+01  0.96697918889E+02  0.92435800682E+02 0.  0.
         13    1    3    3    0    0 -0.58526386450E+02  0.20067128960E+02  0.46341586168E+01  0.62044453142E+02  0.10566000000E+00 0. -1.
         22    1    1    0    0    0  0.25792984979E+02 -0.11515976616E+02  0.28660911133E+01  0.28392081111E+02  0.00000000000E+00 0. -1.
</event>
<event>
 5    1  0.1254496E-009  0.9118800E+02  0.7815553E-02  0.1125453E+00
         25   -1    0    0    0    0  0.00000000000E+00  0.00000000000E+00  0.99999998245E-14  0.12509000000E+03  0.12509000000E+03 0.  0.
        -13    1    3    3    0    0 -0.54138051730E+01 -0.52859072892E+02 -0.25693622642E+02  0.59021727202E+02  0.10566000000E+00 0. -1.
         23    2    1    0    0    0 -0.16370260778E+02 -0.20203570017E+02 -0.72428774380E+01  0.98096872116E+02  0.94309953695E+02 0.  0.
         13    1    3    3    0    0 -0.10956455605E+02  0.32655502875E+02  0.18450745205E+02  0.39075144914E+02  0.10566000000E+00 0.  1.
         22    1    1    0    0    0  0.16370260778E+02  0.20203570017E+02  0.72428774380E+01  0.26993127884E+02  0.00000000000E+00 0. -1.
</event>
<event>
 5    1  0.1254496E-009  0.9118800E+02  0.7815553E-02  0.1125453E+00
         25   -1    0    0    0    0  0.00000000000E+00  0.00000000000E+00  0.99999998245E-14  0.12509000000E+03  0.12509000000E+03 0.  0.
        -13    1    3    3    0    0  0.26255953804E+02 -0.36645904248E+02 -0.40821284249E+02  0.60816821851E+02  0.10566000000E+00 0. -1.
         23    2    1    0    0    0  0.80643538990E+01 -0.99810841246E+01 -0.25490708330E+02  0.96551744005E+02  0.92237775423E+02 0.  0.
         13    1    3    3    0    0 -0.18191599905E+02  0.26664820123E+02  0.15330575919E+02  0.35734922154E+02  0.10566000000E+00 0.  1.
         22    1    1    0    0    0 -0.80643538990E+01  0.99810841246E+01  0.25490708330E+02  0.28538255995E+02  0.00000000000E+00 0. -1.
</event>
<event>
 5    1  0.1254496E-009  0.9118800E+02  0.7815553E-02  0.1125453E+00
         25   -1    0    0    0    0  0.00000000000E+00  0.00000000000E+00  0.99999998245E-14  0.12509000000E+03  0.12509000000E+03 0.  0.
        -13    1    3    3    0    0 -0.28411613014E+02  0.31755607068E+02  0.74286185310E+01  0.43253137130E+02  0.10566000000E+00 0. -1.
         23    2    1    0    0    0  0.20900573607E+02  0.17018313042E+02 -0.79853137311E+01  0.96979109027E+02  0.92815545015E+02 0.  0.
         13    1    3    3    0    0  0.49312186621E+02 -0.14737294026E+02 -0.15413932262E+02  0.53725971897E+02  0.10566000000E+00 0.  1.
         22    1    1    0    0    0 -0.20900573607E+02 -0.17018313042E+02  0.79853137311E+01  0.28110890973E+02  0.00000000000E+00 0.  1.
</event>
<event>
 5    1  0.1254496E-009  0.9118800E+02  0.7815553E-02  0.1125453E+00
         25   -1    0    0    0    0  0.00000000000E+00  0.00000000000E+00  0.99999998245E-14  0.12509000000E+03  0.12509000000E+03 0.  0.
        -13    1    3    3    0    0 -0.42867053661E+02  0.12430472527E+02  0.39841518611E+02  0.59828577670E+02  0.10566000000E+00 0.  1.
         23    2    1    0    0    0 -0.19071660579E+02  0.17214489380E+02  0.12093282521E+02  0.96694324907E+02  0.92430936948E+02 0.  0.
         13    1    3    3    0    0  0.23795393081E+02  0.47840168534E+01 -0.27748236090E+02  0.36865747236E+02  0.10566000000E+00 0. -1.
         22    1    1    0    0    0  0.19071660579E+02 -0.17214489380E+02 -0.12093282521E+02  0.28395675093E+02  0.00000000000E+00 0.  1.
</event>
<event>
 5    1  0.1254496E-009  0.9118800E+02  0.7815553E-02  0.1125453E+00
         25   -1    0    0    0    0  0.00000000000E+00  0.00000000000E+00  0.99999998245E-14  0.12509000000E+03  0.12509000000E+03 0.  0.
        -13    1    3    3    0    0 -0.37776901521E+02 -0.21736971309E+02  0.11036145649E+02  0.44959958686E+02  0.10566000000E+00 0. -1.
         23    2    1    0    0    0 -0.79845714482E+01  0.19767128582E+02  0.18836156820E+02  0.96641914698E+02  0.92359981156E+02 0.  0.
         13    1    3    3    0    0  0.29792330073E+02  0.41504099891E+02  0.78000111715E+01  0.51681956012E+02  0.10566000000E+00 0.  1.
         22    1    1    0    0    0  0.79845714482E+01 -0.19767128582E+02 -0.18836156820E+02  0.28448085302E+02  0.00000000000E+00 0.  1.
</event>
<event>
 5    1  0.1254496E-009  0.9118800E+02  0.7815553E-02  0.1125453E+00
         25   -1    0    0    0    0  0.00000000000E+00  0.00000000000E+00  0.99999998245E-14  0.12509000000E+03  0.12509000000E+03 0.  0.
        -13    1    3    3    0    0 -0.63645863255E+00  0.23689238621E+02 -0.46136395665E+02  0.51866783928E+02  0.10566000000E+00 0.  1.
         23    2    1    0    0    0  0.19033180291E+02 -0.64884262014E+01 -0.22305915629E+02  0.95058091992E+02  0.90189386042E+02 0.  0.
         13    1    3    3    0    0  0.19669638923E+02 -0.30177664822E+02  0.23830480036E+02  0.43191308064E+02  0.10566000000E+00 0. -1.
         22    1    1    0    0    0 -0.19033180291E+02  0.64884262014E+01  0.22305915629E+02  0.30031908008E+02  0.00000000000E+00 0.  1.
</event>
<event>
 5    1  0.1254496E-009  0.9118800E+02  0.7815553E-02  0.1125453E+00
         25   -1    0    0    0    0  0.00000000000E+00  0.00000000000E+00  0.99999998245E-14  0.12509000000E+03  0.12509000000E+03 0.  0.
        -13    1    3    3    0    0 -0.43866820028E+02 -0.17839354014E+02  0.39162505722E+02  0.61451228381E+02  0.10566000000E+00 0. -1.
         23    2    1    0    0    0 -0.21679697683E+02 -0.87412766587E-01  0.18582351485E+02  0.96536178551E+02  0.92216663624E+02 0.  0.
         13    1    3    3    0    0  0.22187122345E+02  0.17751941248E+02 -0.20580154237E+02  0.35084950171E+02  0.10566000000E+00 0.  1.
         22    1    1    0    0    0  0.21679697683E+02  0.87412766587E-01 -0.18582351485E+02  0.28553821449E+02  0.00000000000E+00 0. -1.
</event>
<event>
 5    1  0.1254496E-009  0.9118800E+02  0.7815553E-02  0.1125453E+00
         25   -1    0    0    0    0  0.00000000000E+00  0.00000000000E+00  0.99999998245E-14  0.12509000000E+03  0.12509000000E+03 0.  0.
        -13    1    3    3    0    0  0.35675906786E+02  0.13396460179E+01  0.37717185625E+02  0.51934210612E+02  0.10566000000E+00 0.  1.
         23    2    1    0    0    0  0.33886175367E+01 -0.21508688266E+02  0.20878904622E+02  0.94923212668E+02  0.90002118004E+02 0.  0.
         13    1    3    3    0    0 -0.32287289249E+02 -0.22848334284E+02 -0.16838281003E+02  0.42989002056E+02  0.10566000000E+00 0. -1.
         22    1    1    0    0    0 -0.33886175367E+01  0.21508688266E+02 -0.20878904622E+02  0.30166787332E+02  0.00000000000E+00 0.  1.
</event>
<event>
 5    1  0.1254496E-009  0.9118800E+02  0.7815553E-02  0.1125453E+00
         25   -1    0    0    0    0  0.00000000000E+00  0.00000000000E+00  0.99999998245E-14  0.12509000000E+03  0.12509000000E+03 0.  0.
        -13    1    3    3    0    0 -0.12264620502E+02 -0.22922246882E+02  0.43769384964E+02  0.50907961483E+02  0.10566000000E+00 0. -1.
         23    2    1    0    0    0  0.56829418817E+01 -0.27130167583E+02  0.11456283954E+01  0.97347356184E+02  0.93310521754E+02 0.  0.
         13    1    3    3    0    0  0.17947562384E+02 -0.42079207003E+01 -0.42623756568E+02  0.46439394701E+02  0.10566000000E+00 0.  1.
         22    1    1    0    0    0 -0.56829418817E+01  0.27130167583E+02 -0.11456283954E+01  0.27742643816E+02  0.00000000000E+00 0. -1.
</event>
<event>
 5    1  0.1254496E-009  0.9118800E+02  0.7815553E-02  0.1125453E+00
         25   -1    0    0    0    0  0.00000000000E+00  0.00000000000E+00  0.99999998245E-14  0.12509000000E+03  0.12509000000E+03 0.  0.
        -13    1    3    3    0    0  0.27173676747E+02  0.11953959370E+02  0.47507336268E+02  0.56020210781E+02  0.10566000000E+00 0. -1.
         23    2    1    0    0    0  0.13132605124E+02  0.21997833833E+02  0.94982559197E+01  0.97766258013E+02  0.93870412429E+02 0.  0.
         13    1    3    3    0    0 -0.14041071623E+02  0.10043874462E+02 -0.38009080348E+02  0.41746047232E+02  0.10566000000E+00 0.  1.
         22    1    1    0    0    0 -0.13132605124E+02 -0.21997833833E+02 -0.94982559197E+01  0.27323741987E+02  0.00000000000E+00 0. -1.
</event>
<event>
 5    1  0.1254496E-009  0.9118800E+02  0.7815553E-02  0.1125453E+00
         25   -1    0    0    0    0  0.00000000000E+00  0.00000000000E+00  0.99999998245E-14  0.12509000000E+03  0.12509000000E+03 0.  0.
        -13    1    3    3    0    0 -0.32054787059E+02  0.12532333409E+02 -0.98466533154E+01  0.35798554434E+02  0.10566000000E+00 0.  1.
         23    2    1    0    0    0  0.26507865890E+02 -0.57562080590E+01 -0.62364653098E+01  0.97256667738E+02  0.93188867547E+02 0.  0.
         13    1    3    3    0    0  0.58562652948E+02 -0.18288541468E+02  0.36101880056E+01  0.61458113304E+02  0.10566000000E+00 0. -1.
         22    1    1    0    0    0 -0.26507865890E+02  0.57562080590E+01  0.62364653098E+01  0.27833332262E+02  0.00000000000E+00 0. -1.
</event>
<event>
 5    1  0.1254496E-009  0.9118800E+02  0.7815553E-02  0.1125453E+00
         25   -1    0    0    0    0  0.00000000000E+00  0.00000000000E+00  0.99999998245E-14  0.12509000000E+03  0.12509000000E+03 0.  0.
        -13    1    3    3    0    0  0.31789149620E+02  0.36251386680E+01  0.11866544177E+02  0.34125030383E+02  0.10566000000E+00 0.  1.
         23    2    1    0    0    0 -0.18286467716E+02 -0.45611018420E+01 -0.22748888280E+02  0.95548326562E+02  0.90866782925E+02 0.  0.
         13    1    3    3    0    0 -0.50075617336E+02 -0.81862405100E+01 -0.34615432457E+02  0.61423296179E+02  0.10566000000E+00 0. -1.
         22    1    1    0    0    0  0.18286467716E+02  0.45611018420E+01  0.22748888280E+02  0.29541673438E+02  0.00000000000E+00 0. -1.
</event>
<event>
 5    1  0.1254496E-009  0.9118800E+02  0.7815553E-02  0.1125453E+00
         25   -1    0    0    0    0  0.00000000000E+00  0.00000000000E+00  0.99999998245E-14  0.12509000000E+03  0.12509000000E+03 0.  0.
        -13    1    3    3    0    0  0.42705280572E+02  0.25255463386E+02 -0.26107582355E+02  0.56064217109E+02  0.10566000000E+00 0. -1.
         23    2    1    0    0    0  0.22462842122E+02 -0.74605862110E+01 -0.17930673735E+02  0.95395746627E+02  0.90656493376E+02 0.  0.
         13    1    3    3    0    0 -0.20242438450E+02 -0.32716049597E+02  0.81769086204E+01  0.39331529519E+02  0.10566000000E+00 0.  1.
         22    1    1    0    0    0 -0.22462842122E+02  0.74605862110E+01  0.17930673735E+02  0.29694253373E+02  0.00000000000E+00 0. -1.
</event>
<event>
 5    1  0.1254496E-009  0.9118800E+02  0.7815553E-02  0.1125453E+00
         25   -1    0    0    0    0  0.00000000000E+00  0.00000000000E+00  0.99999998245E-14  0.12509000000E+03  0.12509000000E+03 0.  0.
        -13    1    3    3    0    0 -0.29612752231E+02 -0.11492364450E+01  0.15170232736E+02  0.33292385982E+02  0.10566000000E+00 0.  1.
         23    2    1    0    0    0  0.27502924577E+02  0.11365976630E+02 -0.45202391733E+01  0.94989686925E+02  0.90094460290E+02 0.  0.
         13    1    3    3    0    0  0.57115676808E+02  0.12515213075E+02 -0.19690471909E+02  0.61697300943E+02  0.10566000000E+00 0. -1.
         22    1    1    0    0    0 -0.27502924577E+02 -0.11365976630E+02  0.45202391733E+01  0.30100313075E+02  0.00000000000E+00 0. -1.
</event>
<event>
 5    1  0.1254496E-009  0.9118800E+02  0.7815553E-02  0.1125453E+00
         25   -1    0    0    0    0  0.00000000000E+00  0.00000000000E+00  0.99999998245E-14  0.12509000000E+03  0.12509000000E+03 0.  0.
        -13    1    3    3    0    0  0.26233024845E+02 -0.20633538570E+02 -0.29992771596E+02  0.44871951356E+02  0.10566000000E+00 0. -1.
         23    2    1    0    0    0 -0.12330927791E+02  0.10607613901E+02 -0.25683210259E+02  0.94689333197E+02  0.89676470042E+02 0.  0.
         13    1    3    3    0    0 -0.38563952636E+02  0.31241152471E+02  0.43095613373E+01  0.49817381842E+02  0.10566000000E+00 0.  1.
         22    1    1    0    0    0  0.12330927791E+02 -0.10607613901E+02  0.25683210259E+02  0.30400666803E+02  0.00000000000E+00 0.  1.
</event>
<event>
 5    1  0.1254496E-009  0.9118800E+02  0.7815553E-02  0.1125453E+00
         25   -1    0    0    0    0  0.00000000000E+00  0.00000000000E+00  0.99999998245E-14  0.12509000000E+03  0.12509000000E+03 0.  0.
        -13    1    3    3    0    0 -0.43746567733E+02 -0.99882135043E+01 -0.20551957649E+02  0.49355047611E+02  0.10566000000E+00 0. -1.
         23    2    1    0    0    0 -0.18770363242E+02 -0.12943092723E+02  0.18447856397E+02  0.95761283848E+02  0.91159475059E+02 0.  0.
         13    1    3    3    0    0  0.24976204491E+02 -0.29548792191E+01  0.38999814047E+02  0.46406236237E+02  0.10566000000E+00 0.  1.
         22    1    1    0    0    0  0.18770363242E+02  0.12943092723E+02 -0.18447856397E+02  0.29328716152E+02  0.00000000000E+00 0. -1.
</event>
<event>
 5    1  0.1254496E-009  0.9118800E+02  0.7815553E-02  0.1125453E+00
         25   -1    0    0    0    0  0.00000000000E+00  0.00000000000E+00  0.99999998245E-14  0.12509000000E+03  0.12509000000E+03 0.  0.
        -13    1    3    3    0    0  0.63664272679E+01  0.12629696095E+02  0.36871523295E+02  0.39491277692E+02  0.10566000000E+00 0. -1.
         23    2    1    0    0    0 -0.27444449386E+02 -0.86589725250E+01 -0.32683184312E+01  0.96126962993E+02  0.91659890365E+02 0.  0.
         13    1    3    3    0    0 -0.33810876654E+02 -0.21288668620E+02 -0.40139841726E+02  0.56635685301E+02  0.10566000000E+00 0.  1.
         22    1    1    0    0    0  0.27444449386E+02  0.86589725250E+01  0.32683184312E+01  0.28963037007E+02  0.00000000000E+00 0.  1.
</event>
<event>
 5    1  0.1254496E-009  0.9118800E+02  0.7815553E-02  0.1125453E+00
         25   -1    0    0    0    0  0.00000000000E+00  0.00000000000E+00  0.99999998245E-14  0.12509000000E+03  0.12509000000E+03 0.  0.
        -13    1    3    3    0    0 -0.16530074060E+02 -0.41198712511E+01 -0.28771318274E+02  0.33436755327E+02  0.10566000000E+00 0.  1.
         23    2    1    0    0    0  0.17250422822E+01  0.22144302362E+01  0.29823077351E+02  0.95135110335E+02  0.90296145010E+02 0.  0.
         13    1    3    3    0    0  0.18255116342E+02  0.63343014873E+01  0.58594395625E+02  0.61698355008E+02  0.10566000000E+00 0. -1.
         22    1    1    0    0    0 -0.17250422822E+01 -0.22144302362E+01 -0.29823077351E+02  0.29954889665E+02  0.00000000000E+00 0. -1.
</event>
<event>
 5    1  0.1254496E-009  0.9118800E+02  0.7815553E-02  0.1125453E+00
         25   -1    0    0    0    0  0.00000000000E+00  0.00000000000E+00  0.99999998245E-14  0.12509000000E+03  0.12509000000E+03 0.  0.
        -13    1    3    3    0    0 -0.15396240419E+02 -0.19341119035E+02 -0.24205378574E+02  0.34598188110E+02  0.10566000000E+00 0. -1.
         23    2    1    0    0    0  0.14653612647E+02  0.40251073604E+01  0.24405784620E+02  0.96339831726E+02  0.91949937473E+02 0.  0.
         13    1    3    3    0    0  0.30049853066E+02  0.23366226395E+02  0.48611163194E+02  0.61741643616E+02  0.10566000000E+00 0.  1.
         22    1    1    0    0    0 -0.14653612647E+02 -0.40251073604E+01 -0.24405784620E+02  0.28750168274E+02  0.00000000000E+00 0.  1.
</event>
<event>
 5    1  0.1254496E-009  0.9118800E+02  0.7815553E-02  0.1125453E+00
         25   -1    0    0    0    0  0.00000000000E+00  0.00000000000E+00  0.99999998245E-14  0.12509000000E+03  0.12509000000E+03 0.  0.
        -13    1    3    3    0    0 -0.16927981130E+02  0.39982360164E+02  0.28187852948E+02  0.51765933656E+02  0.10566000000E+00 0. -1.
         23    2    1    0    0    0 -0.27950826797E+02  0.10016238286E+02 -0.14947199134E+01  0.95361092593E+02  0.90608664292E+02 0.  0.
         13    1    3    3    0    0 -0.11022845666E+02 -0.29966121878E+02 -0.29682572861E+02  0.43595158936E+02  0.10566000000E+00 0.  1.
         22    1    1    0    0    0  0.27950826797E+02 -0.10016238286E+02  0.14947199134E+01  0.29728907407E+02  0.00000000000E+00 0. -1.
</event>
<event>
 5    1  0.1254496E-009  0.9118800E+02  0.7815553E-02  0.1125453E+00
         25   -1    0    0    0    0  0.00000000000E+00  0.00000000000E+00  0.99999998245E-14  0.12509000000E+03  0.12509000000E+03 0.  0.
        -13    1    3    3    0    0 -0.55071617341E+02 -0.12550176985E+02  0.77653291355E+01  0.57014923306E+02  0.10566000000E+00 0.  1.
         23    2    1    0    0    0 -0.23629354337E+02  0.94783918634E+01  0.14194743850E+02  0.95940779570E+02  0.91405449142E+02 0.  0.
         13    1    3    3    0    0  0.31442263004E+02  0.22028568849E+02  0.64294147143E+01  0.38925856265E+02  0.10566000000E+00 0. -1.
         22    1    1    0    0    0  0.23629354337E+02 -0.94783918634E+01 -0.14194743850E+02  0.29149220430E+02  0.00000000000E+00 0.  1.
</event>
<event>
 5    1  0.1254496E-009  0.9118800E+02  0.7815553E-02  0.1125453E+00
         25   -1    0    0    0    0  0.00000000000E+00  0.00000000000E+00  0.99999998245E-14  0.12509000000E+03  0.12509000000E+03 0.  0.
        -13    1    3    3    0    0  0.48325778002E+02  0.83688867787E+01  0.33551179848E+02  0.59423159784E+02  0.10566000000E+00 0. -1.
         23    2    1    0    0    0  0.16038243375E+02 -0.56017745418E+01  0.23650541770E+02  0.95970363076E+02  0.91445925739E+02 0.  0.
         13    1    3    3    0    0 -0.32287534628E+02 -0.13970661321E+02 -0.99006380780E+01  0.36547203292E+02  0.10566000000E+00 0.  1.
         22    1    1    0    0    0 -0.16038243375E+02  0.56017745418E+01 -0.23650541770E+02  0.29119636924E+02  0.00000000000E+00 0. -1.
</event>
<event>
 5    1  0.1254496E-009  0.9118800E+02  0.7815553E-02  0.1125453E+00
         25   -1    0    0    0    0  0.00000000000E+00  0.00000000000E+00  0.99999998245E-14  0.12509000000E+03  0.12509000000E+03 0.  0.
        -13    1    3    3    0    0  0.23854528124E+02  0.39064712646E+02  0.19071669910E+02  0.49586591367E+02  0.10566000000E+00 0. -1.
         23    2    1    0    0    0  0.13906617926E+02  0.17968540326E+02 -0.19821748542E+02  0.94937650525E+02  0.90022182313E+02 0.  0.
         13    1    3    3    0    0 -0.99479101983E+01 -0.21096172320E+02 -0.38893418452E+02  0.45351059159E+02  0.10566000000E+00 0.  1.
         22    1    1    0    0    0 -0.13906617926E+02 -0.17968540326E+02  0.19821748542E+02  0.30152349475E+02  0.00000000000E+00 0. -1.
</event>
<event>
 5    1  0.1254496E-009  0.9118800E+02  0.7815553E-02  0.1125453E+00
         25   -1    0    0    0    0  0.00000000000E+00  0.00000000000E+00  0.99999998245E-14  0.12509000000E+03  0.12509000000E+03 0.  0.
        -13    1    3    3    0    0  0.52815259416E+01  0.17742548502E+02 -0.11098574045E+02  0.21584301088E+02  0.10566000000E+00 0.  1.
         23    2    1    0    0    0 -0.32057100821E+02 -0.24216179993E+02  0.13227626520E+02  0.82792822909E+02  0.71173030955E+02 0.  0.
         13    1    3    3    0    0 -0.37338626763E+02 -0.41958728495E+02  0.24326200565E+02  0.61208521820E+02  0.10566000000E+00 0. -1.
         22    1    1    0    0    0  0.32057100821E+02  0.24216179993E+02 -0.13227626520E+02  0.42297177091E+02  0.00000000000E+00 0. -1.
</event>
<event>
 5    1  0.1254496E-009  0.9118800E+02  0.7815553E-02  0.1125453E+00
         25   -1    0    0    0    0  0.00000000000E+00  0.00000000000E+00  0.99999998245E-14  0.12509000000E+03  0.12509000000E+03 0.  0.
        -13    1    3    3    0    0 -0.28296406212E+01 -0.27560474331E+02 -0.21609587005E+02  0.35136477142E+02  0.10566000000E+00 0.  1.
         23    2    1    0    0    0  0.13261487544E+02  0.27185776403E+02 -0.68622916050E+01  0.94073479618E+02  0.88813259318E+02 0.  0.
         13    1    3    3    0    0  0.16091128166E+02  0.54746250735E+02  0.14747295400E+02  0.58937002476E+02  0.10566000000E+00 0. -1.
         22    1    1    0    0    0 -0.13261487544E+02 -0.27185776403E+02  0.68622916050E+01  0.31016520382E+02  0.00000000000E+00 0. -1.
</event>
<event>
 5    1  0.1254496E-009  0.9118800E+02  0.7815553E-02  0.1125453E+00
         25   -1    0    0    0    0  0.00000000000E+00  0.00000000000E+00  0.99999998245E-14  0.12509000000E+03  0.12509000000E+03 0.  0.
        -13    1    3    3    0    0 -0.27215403401E+02  0.13672583079E+02  0.84878344504E+01  0.31617593330E+02  0.10566000000E+00 0.  1.
         23    2    1    0    0    0  0.31120211362E+02 -0.33632964364E+01 -0.36058574067E+01  0.93581564212E+02  0.88117691950E+02 0.  0.
         13    1    3    3    0    0  0.58335614763E+02 -0.17035879515E+02 -0.12093691857E+02  0.61963970882E+02  0.10566000000E+00 0. -1.
         22    1    1    0    0    0 -0.31120211362E+02  0.33632964364E+01  0.36058574067E+01  0.31508435788E+02  0.00000000000E+00 0. -1.
</event>
<event>
 5    1  0.1254496E-009  0.9118800E+02  0.7815553E-02  0.1125453E+00
         25   -1    0    0    0    0  0.00000000000E+00  0.00000000000E+00  0.99999998245E-14  0.12509000000E+03  0.12509000000E+03 0.  0.
        -13    1    3    3    0    0  0.33065017020E+02 -0.39387812698E+02  0.29782171234E+02  0.59427973440E+02  0.10566000000E+00 0.  1.
         23    2    1    0    0    0  0.56793686583E+01 -0.17445874796E+02  0.23821047100E+02  0.95022474983E+02  0.90139972771E+02 0.  0.
         13    1    3    3    0    0 -0.27385648362E+02  0.21941937902E+02 -0.59611241345E+01  0.35594501543E+02  0.10566000000E+00 0. -1.
         22    1    1    0    0    0 -0.56793686583E+01  0.17445874796E+02 -0.23821047100E+02  0.30067525017E+02  0.00000000000E+00 0.  1.
</event>
<event>
 5    1  0.1254496E-009  0.9118800E+02  0.7815553E-02  0.1125453E+00
         25   -1    0    0    0    0  0.00000000000E+00  0.00000000000E+00  0.99999998245E-14  0.12509000000E+03  0.12509000000E+03 0.  0.
        -13    1    3    3    0    0 -0.81415958022E+01 -0.11298651633E+02 -0.59219367819E+02  0.60834938973E+02  0.10566000000E+00 0. -1.
         23    2    1    0    0    0 -0.40374073350E+01  0.50924274695E+01 -0.28124863278E+02  0.96224078744E+02  0.91792330400E+02 0.  0.
         13    1    3    3    0    0  0.41041884672E+01  0.16391079102E+02  0.31094504541E+02  0.35389139772E+02  0.10566000000E+00 0.  1.
         22    1    1    0    0    0  0.40374073350E+01 -0.50924274695E+01  0.28124863278E+02  0.28865921256E+02  0.00000000000E+00 0. -1.
</event>
<event>
 5    1  0.1254496E-009  0.9118800E+02  0.7815553E-02  0.1125453E+00
         25   -1    0    0    0    0  0.00000000000E+00  0.00000000000E+00  0.99999998245E-14  0.12509000000E+03  0.12509000000E+03 0.  0.
        -13    1    3    3    0    0 -0.21143142522E+02  0.54158853749E+02 -0.30393760414E+01  0.58219093826E+02  0.10566000000E+00 0. -1.
         23    2    1    0    0    0 -0.40715705707E+01  0.23353716116E+02 -0.16803575577E+02  0.96032575897E+02  0.91530987856E+02 0.  0.
         13    1    3    3    0    0  0.17071571951E+02 -0.30805137633E+02 -0.13764199535E+02  0.37813482071E+02  0.10566000000E+00 0.  1.
         22    1    1    0    0    0  0.40715705707E+01 -0.23353716116E+02  0.16803575577E+02  0.29057424103E+02  0.00000000000E+00 0. -1.
</event>
<event>
 5    1  0.1254496E-009  0.9118800E+02  0.7815553E-02  0.1125453E+00
         25   -1    0    0    0    0  0.00000000000E+00  0.00000000000E+00  0.99999998245E-14  0.12509000000E+03  0.12509000000E+03 0.  0.
        -13    1    3    3    0    0  0.10060799541E+02 -0.26409373420E+01 -0.50829547671E+02  0.51883025335E+02  0.10566000000E+00 0.  1.
         23    2    1    0    0    0  0.65596950593E+01 -0.26097901453E+02 -0.16784094468E+02  0.93375084162E+02  0.87824088129E+02 0.  0.
         13    1    3    3    0    0 -0.35011044818E+01 -0.23456964111E+02  0.34045453203E+02  0.41492058827E+02  0.10566000000E+00 0. -1.
         22    1    1    0    0    0 -0.65596950593E+01  0.26097901453E+02  0.16784094468E+02  0.31714915838E+02  0.00000000000E+00 0.  1.
</event>
<event>
 5    1  0.1254496E-009  0.9118800E+02  0.7815553E-02  0.1125453E+00
         25   -1    0    0    0    0  0.00000000000E+00  0.00000000000E+00  0.99999998245E-14  0.12509000000E+03  0.12509000000E+03 0.  0.
        -13    1    3    3    0    0  0.10815386324E+02  0.19027429236E+02  0.29096547904E+02  0.36409283275E+02  0.10566000000E+00 0. -1.
         23    2    1    0    0    0 -0.20350478822E+02  0.71148197626E+00 -0.19445952335E+02  0.96933415386E+02  0.92753942026E+02 0.  0.
         13    1    3    3    0    0 -0.31165865146E+02 -0.18315947260E+02 -0.48542500239E+02  0.60524132111E+02  0.10566000000E+00 0.  1.
         22    1    1    0    0    0  0.20350478822E+02 -0.71148197626E+00  0.19445952335E+02  0.28156584614E+02  0.00000000000E+00 0.  1.
</event>
<event>
 5    1  0.1254496E-009  0.9118800E+02  0.7815553E-02  0.1125453E+00
         25   -1    0    0    0    0  0.00000000000E+00  0.00000000000E+00  0.99999998245E-14  0.12509000000E+03  0.12509000000E+03 0.  0.
        -13    1    3    3    0    0 -0.34562005580E+02 -0.11055709910E+02 -0.32843797122E+02  0.48943713843E+02  0.10566000000E+00 0.  1.
         23    2    1    0    0    0  0.56696647814E+01  0.12196922838E+02 -0.25870249324E+02  0.95932156706E+02  0.91393647836E+02 0.  0.
         13    1    3    3    0    0  0.40231670361E+02  0.23252632748E+02  0.69735477981E+01  0.46988442863E+02  0.10566000000E+00 0. -1.
         22    1    1    0    0    0 -0.56696647814E+01 -0.12196922838E+02  0.25870249324E+02  0.29157843294E+02  0.00000000000E+00 0.  1.
</event>
<event>
 5    1  0.1254496E-009  0.9118800E+02  0.7815553E-02  0.1125453E+00
         25   -1    0    0    0    0  0.00000000000E+00  0.00000000000E+00  0.99999998245E-14  0.12509000000E+03  0.12509000000E+03 0.  0.
        -13    1    3    3    0    0 -0.16150567245E+02 -0.27719146402E+02  0.53659380591E+02  0.62518254846E+02  0.10566000000E+00 0. -1.
         23    2    1    0    0    0 -0.88547035005E+01 -0.13366239544E+02  0.25012361594E+02  0.95380062838E+02  0.90634849925E+02 0.  0.
         13    1    3    3    0    0  0.72958637442E+01  0.14352906858E+02 -0.28647018997E+02  0.32861807992E+02  0.10566000000E+00 0.  1.
         22    1    1    0    0    0  0.88547035005E+01  0.13366239544E+02 -0.25012361594E+02  0.29709937162E+02  0.00000000000E+00 0. -1.
</event>
<event>
 5    1  0.1254496E-009  0.9118800E+02  0.7815553E-02  0.1125453E+00
         25   -1    0    0    0    0  0.00000000000E+00  0.00000000000E+00  0.99999998245E-14  0.12509000000E+03  0.12509000000E+03 0.  0.
        -13    1    3    3    0    0  0.53800403810E+02 -0.13055082182E+02 -0.39756929510E+01  0.55504377479E+02  0.10566000000E+00 0. -1.
         23    2    1    0    0    0  0.28140538218E+02  0.14631175699E+02 -0.13482253601E+01  0.93344466375E+02  0.87780467632E+02 0.  0.
         13    1    3    3    0    0 -0.25659865592E+02  0.27686257881E+02  0.26274675909E+01  0.37840088896E+02  0.10566000000E+00 0.  1.
         22    1    1    0    0    0 -0.28140538218E+02 -0.14631175699E+02  0.13482253601E+01  0.31745533625E+02  0.00000000000E+00 0. -1.
</event>
<event>
 5    1  0.1254496E-009  0.9118800E+02  0.7815553E-02  0.1125453E+00
         25   -1    0    0    0    0  0.00000000000E+00  0.00000000000E+00  0.99999998245E-14  0.12509000000E+03  0.12509000000E+03 0.  0.
        -13    1    3    3    0    0  0.22100447414E+02 -0.10054861276E+02  0.23316145989E+01  0.24392162714E+02  0.10566000000E+00 0. -1.
         23    2    1    0    0    0 -0.37210376879E+02  0.51856926307E+00  0.13187556604E+02  0.85608451009E+02  0.75960609353E+02 0.  0.
         13    1    3    3    0    0 -0.59310824294E+02  0.10573430539E+02  0.10855942005E+02  0.61216288295E+02  0.10566000000E+00 0.  1.
         22    1    1    0    0    0  0.37210376879E+02 -0.51856926307E+00 -0.13187556604E+02  0.39481548991E+02  0.00000000000E+00 0.  1.
</event>
<event>
 5    1  0.1254496E-009  0.9118800E+02  0.7815553E-02  0.1125453E+00
         25   -1    0    0    0    0  0.00000000000E+00  0.00000000000E+00  0.99999998245E-14  0.12509000000E+03  0.12509000000E+03 0.  0.
        -13    1    3    3    0    0  0.47072578037E+02 -0.29720350026E+02  0.14391139246E+02  0.57499937926E+02  0.10566000000E+00 0. -1.
         23    2    1    0    0    0  0.11581864733E+02 -0.28220750708E+02  0.73115046179E+01  0.93721090854E+02  0.88315538893E+02 0.  0.
         13    1    3    3    0    0 -0.35490713304E+02  0.14995993180E+01 -0.70796346284E+01  0.36221152928E+02  0.10566000000E+00 0.  1.
         22    1    1    0    0    0 -0.11581864733E+02  0.28220750708E+02 -0.73115046179E+01  0.31368909146E+02  0.00000000000E+00 0. -1.
</event>
<event>
 5    1  0.1254496E-009  0.9118800E+02  0.7815553E-02  0.1125453E+00
         25   -1    0    0    0    0  0.00000000000E+00  0.00000000000E+00  0.99999998245E-14  0.12509000000E+03  0.12509000000E+03 0.  0.
        -13    1    3    3    0    0 -0.28858136452E+02 -0.49099748928E+02 -0.54394029984E+01  0.57211674100E+02  0.10566000000E+00 0.  1.
         23    2    1    0    0    0 -0.20813544357E+02 -0.17374864919E+02  0.13262769717E+02  0.94907378838E+02  0.89980108567E+02 0.  0.
         13    1    3    3    0    0  0.80445920952E+01  0.31724884009E+02  0.18702172716E+02  0.37695704738E+02  0.10566000000E+00 0. -1.
         22    1    1    0    0    0  0.20813544357E+02  0.17374864919E+02 -0.13262769717E+02  0.30182621162E+02  0.00000000000E+00 0.  1.
</event>
<event>
 5    1  0.1254496E-009  0.9118800E+02  0.7815553E-02  0.1125453E+00
         25   -1    0    0    0    0  0.00000000000E+00  0.00000000000E+00  0.99999998245E-14  0.12509000000E+03  0.12509000000E+03 0.  0.
        -13    1    3    3    0    0  0.19603779421E+02  0.13197069652E+02 -0.54153963435E+02  0.59085816697E+02  0.10566000000E+00 0.  1.
         23    2    1    0    0    0 -0.40174863704E+01  0.12352321568E+02 -0.27279970171E+02  0.94875486643E+02  0.89935761232E+02 0.  0.
         13    1    3    3    0    0 -0.23621265791E+02 -0.84474808370E+00  0.26873993264E+02  0.35789669947E+02  0.10566000000E+00 0. -1.
         22    1    1    0    0    0  0.40174863704E+01 -0.12352321568E+02  0.27279970171E+02  0.30214513357E+02  0.00000000000E+00 0.  1.
</event>
<event>
 5    1  0.1254496E-009  0.9118800E+02  0.7815553E-02  0.1125453E+00
         25   -1    0    0    0    0  0.00000000000E+00  0.00000000000E+00  0.99999998245E-14  0.12509000000E+03  0.12509000000E+03 0.  0.
        -13    1    3    3    0    0 -0.74924360503E+01  0.33260024103E+02  0.11980774917E+02  0.36137458862E+02  0.10566000000E+00 0.  1.
         23    2    1    0    0    0 -0.51008058614E+01 -0.19610597595E+02 -0.18873028218E+02  0.97399117880E+02  0.93379886545E+02 0.  0.
         13    1    3    3    0    0  0.23916301889E+01 -0.52870621699E+02 -0.30853803135E+02  0.61261659018E+02  0.10566000000E+00 0. -1.
         22    1    1    0    0    0  0.51008058614E+01  0.19610597595E+02  0.18873028218E+02  0.27690882120E+02  0.00000000000E+00 0. -1.
</event>
<event>
 5    1  0.1254496E-009  0.9118800E+02  0.7815553E-02  0.1125453E+00
         25   -1    0    0    0    0  0.00000000000E+00  0.00000000000E+00  0.99999998245E-14  0.12509000000E+03  0.12509000000E+03 0.  0.
        -13    1    3    3    0    0  0.14422222157E+02  0.34043074922E+02 -0.49314928922E+02  0.61635256312E+02  0.10566000000E+00 0.  1.
         23    2    1    0    0    0  0.31676170468E+00  0.12216651437E+02 -0.25177576683E+02  0.97103266036E+02  0.92982724186E+02 0.  0.
         13    1    3    3    0    0 -0.14105460452E+02 -0.21826423484E+02  0.24137352239E+02  0.35468009724E+02  0.10566000000E+00 0. -1.
         22    1    1    0    0    0 -0.31676170468E+00 -0.12216651437E+02  0.25177576683E+02  0.27986733964E+02  0.00000000000E+00 0.  1.
</event>
<event>
 5    1  0.1254496E-009  0.9118800E+02  0.7815553E-02  0.1125453E+00
         25   -1    0    0    0    0  0.00000000000E+00  0.00000000000E+00  0.99999998245E-14  0.12509000000E+03  0.12509000000E+03 0.  0.
        -13    1    3    3    0    0 -0.59456218698E+02  0.40224252900E+01  0.12479853462E+02  0.60884971492E+02  0.10566000000E+00 0.  1.
         23    2    1    0    0    0 -0.28214312846E+02  0.47324766718E+01 -0.39818241767E+01  0.96205770590E+02  0.91767377571E+02 0.  0.
         13    1    3    3    0    0  0.31241905852E+02  0.71005138188E+00 -0.16461677638E+02  0.35320799098E+02  0.10566000000E+00 0. -1.
         22    1    1    0    0    0  0.28214312846E+02 -0.47324766718E+01  0.39818241767E+01  0.28884229410E+02  0.00000000000E+00 0.  1.
</event>
<event>
 5    1  0.1254496E-009  0.9118800E+02  0.7815553E-02  0.1125453E+00
         25   -1    0    0    0    0  0.00000000000E+00  0.00000000000E+00  0.99999998245E-14  0.12509000000E+03  0.12509000000E+03 0.  0.
        -13    1    3    3    0    0 -0.31346648177E+02  0.27840084079E+02 -0.18962279673E+02  0.46013713694E+02  0.10566000000E+00 0. -1.
         23    2    1    0    0    0  0.13144917860E+02  0.95708067151E+01 -0.25799747038E+02  0.94593833783E+02  0.89543158509E+02 0.  0.
         13    1    3    3    0    0  0.44491566037E+02 -0.18269277364E+02 -0.68374673651E+01  0.48580120089E+02  0.10566000000E+00 0.  1.
         22    1    1    0    0    0 -0.13144917860E+02 -0.95708067151E+01  0.25799747038E+02  0.30496166217E+02  0.00000000000E+00 0. -1.
</event>
<event>
 5    1  0.1254496E-009  0.9118800E+02  0.7815553E-02  0.1125453E+00
         25   -1    0    0    0    0  0.00000000000E+00  0.00000000000E+00  0.99999998245E-14  0.12509000000E+03  0.12509000000E+03 0.  0.
        -13    1    3    3    0    0 -0.12351774165E+02 -0.33035179919E+02  0.14713752746E+02  0.38215116397E+02  0.10566000000E+00 0. -1.
         23    2    1    0    0    0 -0.85519374141E+01  0.19917309278E+02 -0.14692515361E+02  0.98904033338E+02  0.95374540421E+02 0.  0.
         13    1    3    3    0    0  0.37998367507E+01  0.52952489197E+02 -0.29406268106E+02  0.60688916941E+02  0.10566000000E+00 0.  1.
         22    1    1    0    0    0  0.85519374141E+01 -0.19917309278E+02  0.14692515361E+02  0.26185966662E+02  0.00000000000E+00 0.  1.
</event>
<event>
 5    1  0.1254496E-009  0.9118800E+02  0.7815553E-02  0.1125453E+00
         25   -1    0    0    0    0  0.00000000000E+00  0.00000000000E+00  0.99999998245E-14  0.12509000000E+03  0.12509000000E+03 0.  0.
        -13    1    3    3    0    0  0.30016354635E+02 -0.20061974356E+02 -0.33541127688E+02  0.49279638506E+02  0.10566000000E+00 0.  1.
         23    2    1    0    0    0  0.19192486972E+02 -0.25200520473E+02  0.79205672119E+01  0.92437998940E+02  0.86479075358E+02 0.  0.
         13    1    3    3    0    0 -0.10823867663E+02 -0.51385461168E+01  0.41461694899E+02  0.43158360434E+02  0.10566000000E+00 0. -1.
         22    1    1    0    0    0 -0.19192486972E+02  0.25200520473E+02 -0.79205672119E+01  0.32652001060E+02  0.00000000000E+00 0. -1.
</event>
<event>
 5    1  0.1254496E-009  0.9118800E+02  0.7815553E-02  0.1125453E+00
         25   -1    0    0    0    0  0.00000000000E+00  0.00000000000E+00  0.99999998245E-14  0.12509000000E+03  0.12509000000E+03 0.  0.
        -13    1    3    3    0    0 -0.44012225185E+02  0.55464804851E+01  0.42029630178E+02  0.61109249614E+02  0.10566000000E+00 0.  1.
         23    2    1    0    0    0 -0.17809092427E+02 -0.66888299384E+01  0.20196788956E+02  0.97344468772E+02  0.93306650874E+02 0.  0.
         13    1    3    3    0    0  0.26203132759E+02 -0.12235310424E+02 -0.21832841222E+02  0.36235219157E+02  0.10566000000E+00 0. -1.
         22    1    1    0    0    0  0.17809092427E+02  0.66888299384E+01 -0.20196788956E+02  0.27745531228E+02  0.00000000000E+00 0.  1.
</event>
<event>
 5    1  0.1254496E-009  0.9118800E+02  0.7815553E-02  0.1125453E+00
         25   -1    0    0    0    0  0.00000000000E+00  0.00000000000E+00  0.99999998245E-14  0.12509000000E+03  0.12509000000E+03 0.  0.
        -13    1    3    3    0    0 -0.25541480989E+02 -0.24104658479E+02 -0.87791059437E+01  0.36200630888E+02  0.10566000000E+00 0. -1.
         23    2    1    0    0    0  0.14067663735E+02 -0.48840298603E+01  0.27874095117E+02  0.93487498687E+02  0.87984057201E+02 0.  0.
         13    1    3    3    0    0  0.39609144724E+02  0.19220628619E+02  0.36653201060E+02  0.57286867799E+02  0.10566000000E+00 0.  1.
         22    1    1    0    0    0 -0.14067663735E+02  0.48840298603E+01 -0.27874095117E+02  0.31602501313E+02  0.00000000000E+00 0.  1.
</event>
<event>
 5    1  0.1254496E-009  0.9118800E+02  0.7815553E-02  0.1125453E+00
         25   -1    0    0    0    0  0.00000000000E+00  0.00000000000E+00  0.99999998245E-14  0.12509000000E+03  0.12509000000E+03 0.  0.
        -13    1    3    3    0    0 -0.15030073507E+02 -0.30015388927E+02 -0.49035721968E+02  0.59425077829E+02  0.10566000000E+00 0.  1.
         23    2    1    0    0    0 -0.10238934014E+02 -0.18797038883E+02 -0.79944165375E+01  0.10224103643E+03  0.99655177456E+02 0.  0.
         13    1    3    3    0    0  0.47911394933E+01  0.11218350044E+02  0.41041305430E+02  0.42815958600E+02  0.10566000000E+00 0. -1.
         22    1    1    0    0    0  0.10238934014E+02  0.18797038883E+02  0.79944165375E+01  0.22848963571E+02  0.00000000000E+00 0.  1.
</event>
<event>
 5    1  0.1254496E-009  0.9118800E+02  0.7815553E-02  0.1125453E+00
         25   -1    0    0    0    0  0.00000000000E+00  0.00000000000E+00  0.99999998245E-14  0.12509000000E+03  0.12509000000E+03 0.  0.
        -13    1    3    3    0    0 -0.17438705504E+01 -0.45708232075E+02  0.25487043678E+02  0.52363003384E+02  0.10566000000E+00 0. -1.
         23    2    1    0    0    0 -0.23520613870E+02 -0.13210733325E+02  0.19185665205E+02  0.91986639126E+02  0.85823710456E+02 0.  0.
         13    1    3    3    0    0 -0.21776743320E+02  0.32497498751E+02 -0.63013784732E+01  0.39623635741E+02  0.10566000000E+00 0.  1.
         22    1    1    0    0    0  0.23520613870E+02  0.13210733325E+02 -0.19185665205E+02  0.33103360874E+02  0.00000000000E+00 0.  1.
</event>
<event>
 5    1  0.1254496E-009  0.9118800E+02  0.7815553E-02  0.1125453E+00
         25   -1    0    0    0    0  0.00000000000E+00  0.00000000000E+00  0.99999998245E-14  0.12509000000E+03  0.12509000000E+03 0.  0.
        -13    1    3    3    0    0  0.12696053411E+02 -0.35254282040E+02 -0.22661897126E+02  0.43790717279E+02  0.10566000000E+00 0.  1.
         23    2    1    0    0    0 -0.25560456099E+02 -0.42454324003E+00 -0.12957594126E+02  0.96429637153E+02  0.92072028993E+02 0.  0.
         13    1    3    3    0    0 -0.38256509510E+02  0.34829738800E+02  0.97043029994E+01  0.52638919875E+02  0.10566000000E+00 0. -1.
         22    1    1    0    0    0  0.25560456099E+02  0.42454324003E+00  0.12957594126E+02  0.28660362847E+02  0.00000000000E+00 0. -1.
</event>
<event>
 5    1  0.1254496E-009  0.9118800E+02  0.7815553E-02  0.1125453E+00
         25   -1    0    0    0    0  0.00000000000E+00  0.00000000000E+00  0.99999998245E-14  0.12509000000E+03  0.12509000000E+03 0.  0.
        -13    1    3    3    0    0  0.33076836984E+02  0.18374371580E+02 -0.19417560273E+02  0.42529372049E+02  0.10566000000E+00 0. -1.
         23    2    1    0    0    0  0.96256986321E+01 -0.23920802364E+02  0.79623821777E+01  0.98103737016E+02  0.94319058661E+02 0.  0.
         13    1    3    3    0    0 -0.23451138352E+02 -0.42295173944E+02  0.27379942451E+02  0.55574364968E+02  0.10566000000E+00 0.  1.
         22    1    1    0    0    0 -0.96256986321E+01  0.23920802364E+02 -0.79623821777E+01  0.26986262984E+02  0.00000000000E+00 0.  1.
</event>
<event>
 5    1  0.1254496E-009  0.9118800E+02  0.7815553E-02  0.1125453E+00
         25   -1    0    0    0    0  0.00000000000E+00  0.00000000000E+00  0.99999998245E-14  0.12509000000E+03  0.12509000000E+03 0.  0.
        -13    1    3    3    0    0  0.22953582807E+02 -0.39917042959E+02  0.14390699042E+02  0.48242519267E+02  0.10566000000E+00 0.  1.
         23    2    1    0    0    0 -0.87556315021E+01 -0.25689717100E+02 -0.15283186850E+02  0.93941991268E+02  0.88627869632E+02 0.  0.
         13    1    3    3    0    0 -0.31709214309E+02  0.14227325859E+02 -0.29673885892E+02  0.45699472001E+02  0.10566000000E+00 0. -1.
         22    1    1    0    0    0  0.87556315021E+01  0.25689717100E+02  0.15283186850E+02  0.31148008732E+02  0.00000000000E+00 0. -1.
</event>
<event>
 5    1  0.1254496E-009  0.9118800E+02  0.7815553E-02  0.1125453E+00
         25   -1    0    0    0    0  0.00000000000E+00  0.00000000000E+00  0.99999998245E-14  0.12509000000E+03  0.12509000000E+03 0.  0.
        -13    1    3    3    0    0  0.46974991610E+02 -0.62389557479E+01 -0.24173763536E+02  0.53197334643E+02  0.10566000000E+00 0.  1.
         23    2    1    0    0    0  0.49619367669E+01 -0.49725104757E+01 -0.28765046378E+02  0.95479620569E+02  0.90772150872E+02 0.  0.
         13    1    3    3    0    0 -0.42013054843E+02  0.12664452722E+01 -0.45912828427E+01  0.42282285926E+02  0.10566000000E+00 0. -1.
         22    1    1    0    0    0 -0.49619367669E+01  0.49725104757E+01  0.28765046378E+02  0.29610379431E+02  0.00000000000E+00 0.  1.
</event>
<event>
 4    1  0.1254496E-009  0.9118800E+02  0.7815553E-02  0.1125453E+00
         25   -1    0    0    0    0  0.00000000000E+00  0.00000000000E+00  0.99999998245E-14  0.12509000000E+03  0.12509000000E+03 0.  0.
        -13    1    1    0    0    0 -0.31372980393E+02  0.43447292911E+02 -0.55303020426E+01  0.53875101529E+02  0.10566000000E+00 0. -1.
         13    1    1    0    0    0  0.76932960030E+01  0.29927336180E+01  0.16037655274E+02  0.18037760632E+02  0.10566000000E+00 0.  1.
         22    1    1    0    0    0  0.23679684390E+02 -0.46440026529E+02 -0.10507353231E+02  0.53177137839E+02  0.00000000000E+00 0. -1.
</event>
<event>
 5    1  0.1254496E-009  0.9118800E+02  0.7815553E-02  0.1125453E+00
         25   -1    0    0    0    0  0.00000000000E+00  0.00000000000E+00  0.99999998245E-14  0.12509000000E+03  0.12509000000E+03 0.  0.
        -13    1    3    3    0    0 -0.23076067589E+02 -0.14986000526E+02  0.55945340912E+02  0.62345628884E+02  0.10566000000E+00 0. -1.
         23    2    1    0    0    0 -0.75668634742E+01 -0.75660571286E+01  0.27476706534E+02  0.95603188621E+02  0.90942276359E+02 0.  0.
         13    1    3    3    0    0  0.15509204115E+02  0.74199433977E+01 -0.28468634378E+02  0.33257559737E+02  0.10566000000E+00 0.  1.
         22    1    1    0    0    0  0.75668634742E+01  0.75660571286E+01 -0.27476706534E+02  0.29486811379E+02  0.00000000000E+00 0. -1.
</event>
<event>
 5    1  0.1254496E-009  0.9118800E+02  0.7815553E-02  0.1125453E+00
         25   -1    0    0    0    0  0.00000000000E+00  0.00000000000E+00  0.99999998245E-14  0.12509000000E+03  0.12509000000E+03 0.  0.
        -13    1    3    3    0    0  0.24518180986E+02  0.19065049948E+02 -0.16328953306E+02  0.35089360331E+02  0.10566000000E+00 0.  1.
         23    2    1    0    0    0 -0.13067460657E+01 -0.13881774377E+02  0.26604222959E+02  0.95053423557E+02  0.90182910829E+02 0.  0.
         13    1    3    3    0    0 -0.25824927051E+02 -0.32946824325E+02  0.42933176265E+02  0.59964063226E+02  0.10566000000E+00 0. -1.
         22    1    1    0    0    0  0.13067460657E+01  0.13881774377E+02 -0.26604222959E+02  0.30036576443E+02  0.00000000000E+00 0. -1.
</event>
<event>
 5    1  0.1254496E-009  0.9118800E+02  0.7815553E-02  0.1125453E+00
         25   -1    0    0    0    0  0.00000000000E+00  0.00000000000E+00  0.99999998245E-14  0.12509000000E+03  0.12509000000E+03 0.  0.
        -13    1    3    3    0    0  0.16594723571E+02 -0.21598413666E+02 -0.30513622384E+02  0.40901939298E+02  0.10566000000E+00 0.  1.
         23    2    1    0    0    0  0.19003221105E+02  0.89603804474E+01  0.17419101055E+02  0.97798317903E+02  0.93913125137E+02 0.  0.
         13    1    3    3    0    0  0.24084975340E+01  0.30558794113E+02  0.47932723439E+02  0.56896378605E+02  0.10566000000E+00 0. -1.
         22    1    1    0    0    0 -0.19003221105E+02 -0.89603804474E+01 -0.17419101055E+02  0.27291682097E+02  0.00000000000E+00 0. -1.
</event>
<event>
 5    1  0.1254496E-009  0.9118800E+02  0.7815553E-02  0.1125453E+00
         25   -1    0    0    0    0  0.00000000000E+00  0.00000000000E+00  0.99999998245E-14  0.12509000000E+03  0.12509000000E+03 0.  0.
        -13    1    3    3    0    0 -0.26248708535E+02 -0.18655261161E+02 -0.18551236096E+02  0.37164135850E+02  0.10566000000E+00 0. -1.
         23    2    1    0    0    0 -0.23689007883E+01  0.28649451894E+02  0.62497850680E+01  0.95671254307E+02  0.91035851742E+02 0.  0.
         13    1    3    3    0    0  0.23879807747E+02  0.47304713055E+02  0.24801021164E+02  0.58507118456E+02  0.10566000000E+00 0.  1.
         22    1    1    0    0    0  0.23689007883E+01 -0.28649451894E+02 -0.62497850680E+01  0.29418745693E+02  0.00000000000E+00 0.  1.
</event>
<event>
 5    1  0.1254496E-009  0.9118800E+02  0.7815553E-02  0.1125453E+00
         25   -1    0    0    0    0  0.00000000000E+00  0.00000000000E+00  0.99999998245E-14  0.12509000000E+03  0.12509000000E+03 0.  0.
        -13    1    3    3    0    0 -0.77973150288E+00  0.38908251810E+02  0.23249014446E+02  0.45331974112E+02  0.10566000000E+00 0.  1.
         23    2    1    0    0    0 -0.28954304355E+02  0.26882157667E+01  0.18830979625E+01  0.95950262482E+02  0.91418425756E+02 0.  0.
         13    1    3    3    0    0 -0.28174572852E+02 -0.36220036043E+02 -0.21365916484E+02  0.50618288371E+02  0.10566000000E+00 0. -1.
         22    1    1    0    0    0  0.28954304355E+02 -0.26882157667E+01 -0.18830979625E+01  0.29139737518E+02  0.00000000000E+00 0. -1.
</event>
<event>
 5    1  0.1254496E-009  0.9118800E+02  0.7815553E-02  0.1125453E+00
         25   -1    0    0    0    0  0.00000000000E+00  0.00000000000E+00  0.99999998245E-14  0.12509000000E+03  0.12509000000E+03 0.  0.
        -13    1    3    3    0    0 -0.14328941558E+02 -0.92535367488E+01 -0.28731030913E+02  0.33413018569E+02  0.10566000000E+00 0. -1.
         23    2    1    0    0    0  0.28309029512E+02 -0.46478034394E+01  0.13306554461E+02  0.93466154245E+02  0.87953705829E+02 0.  0.
         13    1    3    3    0    0  0.42637971070E+02  0.46057333094E+01  0.42037585375E+02  0.60053135675E+02  0.10566000000E+00 0.  1.
         22    1    1    0    0    0 -0.28309029512E+02  0.46478034394E+01 -0.13306554461E+02  0.31623845755E+02  0.00000000000E+00 0.  1.
</event>
<event>
 5    1  0.1254496E-009  0.9118800E+02  0.7815553E-02  0.1125453E+00
         25   -1    0    0    0    0  0.00000000000E+00  0.00000000000E+00  0.99999998245E-14  0.12509000000E+03  0.12509000000E+03 0.  0.
        -13    1    3    3    0    0  0.36757703671E+02  0.30507739469E+02 -0.28874405652E+02  0.55817500952E+02  0.10566000000E+00 0.  1.
         23    2    1    0    0    0 -0.94182921611E+00  0.20989094889E+02 -0.20791083068E+02  0.95531612330E+02  0.90843770688E+02 0.  0.
         13    1    3    3    0    0 -0.37699532887E+02 -0.95186445800E+01  0.80833225848E+01  0.39714111379E+02  0.10566000000E+00 0. -1.
         22    1    1    0    0    0  0.94182921611E+00 -0.20989094889E+02  0.20791083068E+02  0.29558387670E+02  0.00000000000E+00 0.  1.
</event>
<event>
 5    1  0.1254496E-009  0.9118800E+02  0.7815553E-02  0.1125453E+00
         25   -1    0    0    0    0  0.00000000000E+00  0.00000000000E+00  0.99999998245E-14  0.12509000000E+03  0.12509000000E+03 0.  0.
        -13    1    3    3    0    0  0.28787929605E+02  0.16336969044E+02  0.50971144882E+01  0.33490792594E+02  0.10566000000E+00 0. -1.
         23    2    1    0    0    0 -0.18968780653E+02 -0.18604054599E+02 -0.13190750822E+02  0.95426530981E+02  0.90698960418E+02 0.  0.
         13    1    3    3    0    0 -0.47756710258E+02 -0.34941023642E+02 -0.18287865311E+02  0.61935738387E+02  0.10566000000E+00 0.  1.
         22    1    1    0    0    0  0.18968780653E+02  0.18604054599E+02  0.13190750822E+02  0.29663469019E+02  0.00000000000E+00 0.  1.
</event>
<event>
 5    1  0.1254496E-009  0.9118800E+02  0.7815553E-02  0.1125453E+00
         25   -1    0    0    0    0  0.00000000000E+00  0.00000000000E+00  0.99999998245E-14  0.12509000000E+03  0.12509000000E+03 0.  0.
        -13    1    3    3    0    0 -0.29086656101E+02 -0.50574444516E+02 -0.14017874621E+02  0.60002666392E+02  0.10566000000E+00 0. -1.
         23    2    1    0    0    0 -0.23534114125E+02 -0.21451779947E+02  0.98675781322E+00  0.93230824218E+02  0.87618374231E+02 0.  0.
         13    1    3    3    0    0  0.55525419769E+01  0.29122664568E+02  0.15004632435E+02  0.33228157826E+02  0.10566000000E+00 0.  1.
         22    1    1    0    0    0  0.23534114125E+02  0.21451779947E+02 -0.98675781322E+00  0.31859175782E+02  0.00000000000E+00 0. -1.
</event>
<event>
 5    1  0.1254496E-009  0.9118800E+02  0.7815553E-02  0.1125453E+00
         25   -1    0    0    0    0  0.00000000000E+00  0.00000000000E+00  0.99999998245E-14  0.12509000000E+03  0.12509000000E+03 0.  0.
        -13    1    3    3    0    0  0.14210708653E+02 -0.15333352925E+02  0.30066819853E+02  0.36620769687E+02  0.10566000000E+00 0. -1.
         23    2    1    0    0    0 -0.99087415694E+01 -0.15187650798E+02 -0.23522982139E+02  0.95388508709E+02  0.90646505772E+02 0.  0.
         13    1    3    3    0    0 -0.24119450222E+02  0.14570212777E+00 -0.53589801992E+02  0.58767739021E+02  0.10566000000E+00 0.  1.
         22    1    1    0    0    0  0.99087415694E+01  0.15187650798E+02  0.23522982139E+02  0.29701491291E+02  0.00000000000E+00 0.  1.
</event>
<event>
 5    1  0.1254496E-009  0.9118800E+02  0.7815553E-02  0.1125453E+00
         25   -1    0    0    0    0  0.00000000000E+00  0.00000000000E+00  0.99999998245E-14  0.12509000000E+03  0.12509000000E+03 0.  0.
        -13    1    3    3    0    0 -0.49127109033E+02 -0.21308283255E+01 -0.89638021311E+01  0.49983739196E+02  0.10566000000E+00 0. -1.
         23    2    1    0    0    0 -0.11481821665E+02 -0.26449228365E+02  0.22064145583E+01  0.96171802009E+02  0.91721062611E+02 0.  0.
         13    1    3    3    0    0  0.37645287368E+02 -0.24318400040E+02  0.11170216689E+02  0.46188062813E+02  0.10566000000E+00 0.  1.
         22    1    1    0    0    0  0.11481821665E+02  0.26449228365E+02 -0.22064145583E+01  0.28918197991E+02  0.00000000000E+00 0. -1.
</event>
<event>
 5    1  0.1254496E-009  0.9118800E+02  0.7815553E-02  0.1125453E+00
         25   -1    0    0    0    0  0.00000000000E+00  0.00000000000E+00  0.99999998245E-14  0.12509000000E+03  0.12509000000E+03 0.  0.
        -13    1    3    3    0    0 -0.29149231330E+02  0.40015678272E+02  0.36816973767E+02  0.61696295805E+02  0.10566000000E+00 0.  1.
         23    2    1    0    0    0 -0.10135601462E+02  0.25004275076E+02  0.15445360255E+02  0.94001363129E+02  0.88711627917E+02 0.  0.
         13    1    3    3    0    0  0.19013629868E+02 -0.15011403196E+02 -0.21371613513E+02  0.32305067324E+02  0.10566000000E+00 0. -1.
         22    1    1    0    0    0  0.10135601462E+02 -0.25004275076E+02 -0.15445360255E+02  0.31088636871E+02  0.00000000000E+00 0.  1.
</event>
<event>
 5    1  0.1254496E-009  0.9118800E+02  0.7815553E-02  0.1125453E+00
         25   -1    0    0    0    0  0.00000000000E+00  0.00000000000E+00  0.99999998245E-14  0.12509000000E+03  0.12509000000E+03 0.  0.
        -13    1    3    3    0    0  0.39823457163E+02 -0.26063031552E+01  0.41557634713E+02  0.57617260639E+02  0.10566000000E+00 0.  1.
         23    2    1    0    0    0  0.10769484507E+02 -0.17429337744E+02  0.17475571475E+02  0.98161219687E+02  0.94395263872E+02 0.  0.
         13    1    3    3    0    0 -0.29053972656E+02 -0.14823034589E+02 -0.24082063238E+02  0.40543959049E+02  0.10566000000E+00 0. -1.
         22    1    1    0    0    0 -0.10769484507E+02  0.17429337744E+02 -0.17475571475E+02  0.26928780313E+02  0.00000000000E+00 0.  1.
</event>
<event>
 5    1  0.1254496E-009  0.9118800E+02  0.7815553E-02  0.1125453E+00
         25   -1    0    0    0    0  0.00000000000E+00  0.00000000000E+00  0.99999998245E-14  0.12509000000E+03  0.12509000000E+03 0.  0.
        -13    1    3    3    0    0  0.14858446010E+02  0.20948207759E+02  0.25334341834E+02  0.36075488442E+02  0.10566000000E+00 0.  1.
         23    2    1    0    0    0 -0.67889309422E+01  0.43192896873E+01 -0.27982293689E+02  0.95973774166E+02  0.91450591692E+02 0.  0.
         13    1    3    3    0    0 -0.21647376952E+02 -0.16628918072E+02 -0.53316635523E+02  0.59898285724E+02  0.10566000000E+00 0. -1.
         22    1    1    0    0    0  0.67889309422E+01 -0.43192896873E+01  0.27982293689E+02  0.29116225834E+02  0.00000000000E+00 0. -1.
</event>
<event>
 5    1  0.1254496E-009  0.9118800E+02  0.7815553E-02  0.1125453E+00
         25   -1    0    0    0    0  0.00000000000E+00  0.00000000000E+00  0.99999998245E-14  0.12509000000E+03  0.12509000000E+03 0.  0.
        -13    1    3    3    0    0  0.48704117891E+02  0.10409379139E+02  0.28426945134E+00  0.49805002227E+02  0.10566000000E+00 0.  1.
         23    2    1    0    0    0  0.13406939112E+02 -0.52222022640E+01 -0.25206989163E+02  0.96065704737E+02  0.91576251895E+02 0.  0.
         13    1    3    3    0    0 -0.35297178780E+02 -0.15631581403E+02 -0.25491258615E+02  0.46260702510E+02  0.10566000000E+00 0. -1.
         22    1    1    0    0    0 -0.13406939112E+02  0.52222022640E+01  0.25206989163E+02  0.29024295263E+02  0.00000000000E+00 0.  1.
</event>
<event>
 5    1  0.1254496E-009  0.9118800E+02  0.7815553E-02  0.1125453E+00
         25   -1    0    0    0    0  0.00000000000E+00  0.00000000000E+00  0.99999998245E-14  0.12509000000E+03  0.12509000000E+03 0.  0.
        -13    1    3    3    0    0  0.19583650743E+02 -0.26166595227E+01  0.52885998203E+02  0.56456233079E+02  0.10566000000E+00 0.  1.
         23    2    1    0    0    0 -0.32226853965E+01 -0.16620523269E+02  0.22145281775E+02  0.97214544851E+02  0.93132307664E+02 0.  0.
         13    1    3    3    0    0 -0.22806336140E+02 -0.14003863746E+02 -0.30740716428E+02  0.40758311772E+02  0.10566000000E+00 0. -1.
         22    1    1    0    0    0  0.32226853965E+01  0.16620523269E+02 -0.22145281775E+02  0.27875455149E+02  0.00000000000E+00 0. -1.
</event>
<event>
 5    1  0.1254496E-009  0.9118800E+02  0.7815553E-02  0.1125453E+00
         25   -1    0    0    0    0  0.00000000000E+00  0.00000000000E+00  0.99999998245E-14  0.12509000000E+03  0.12509000000E+03 0.  0.
        -13    1    3    3    0    0  0.51817041317E+02  0.13255417191E+01  0.22374652141E+02  0.56457054955E+02  0.10566000000E+00 0. -1.
         23    2    1    0    0    0  0.26082590754E+02  0.10499174209E+02 -0.65247220202E+01  0.96226420926E+02  0.91795522152E+02 0.  0.
         13    1    3    3    0    0 -0.25734450563E+02  0.91736324898E+01 -0.28899374161E+02  0.39769365971E+02  0.10566000000E+00 0.  1.
         22    1    1    0    0    0 -0.26082590754E+02 -0.10499174209E+02  0.65247220202E+01  0.28863579074E+02  0.00000000000E+00 0. -1.
</event>
<event>
 5    1  0.1254496E-009  0.9118800E+02  0.7815553E-02  0.1125453E+00
         25   -1    0    0    0    0  0.00000000000E+00  0.00000000000E+00  0.99999998245E-14  0.12509000000E+03  0.12509000000E+03 0.  0.
        -13    1    3    3    0    0 -0.15114621637E+02  0.33787040007E+02  0.37730986754E+02  0.52855031786E+02  0.10566000000E+00 0. -1.
         23    2    1    0    0    0  0.13402087608E+02  0.24522398467E+02  0.60082484043E+01  0.96505685635E+02  0.92175291333E+02 0.  0.
         13    1    3    3    0    0  0.28516709244E+02 -0.92646415398E+01 -0.31722738350E+02  0.43650653849E+02  0.10566000000E+00 0.  1.
         22    1    1    0    0    0 -0.13402087608E+02 -0.24522398467E+02 -0.60082484043E+01  0.28584314365E+02  0.00000000000E+00 0. -1.
</event>
<event>
 5    1  0.1254496E-009  0.9118800E+02  0.7815553E-02  0.1125453E+00
         25   -1    0    0    0    0  0.00000000000E+00  0.00000000000E+00  0.99999998245E-14  0.12509000000E+03  0.12509000000E+03 0.  0.
        -13    1    3    3    0    0  0.29403565359E+02 -0.34089056120E+02 -0.12792997852E+02  0.46800698297E+02  0.10566000000E+00 0.  1.
         23    2    1    0    0    0  0.15415114010E+02 -0.11832133311E+01  0.22989153747E+02  0.97385723728E+02  0.93361942259E+02 0.  0.
         13    1    3    3    0    0 -0.13988451349E+02  0.32905842789E+02  0.35782151599E+02  0.50585025431E+02  0.10566000000E+00 0. -1.
         22    1    1    0    0    0 -0.15415114010E+02  0.11832133311E+01 -0.22989153747E+02  0.27704276272E+02  0.00000000000E+00 0. -1.
</event>
<event>
 5    1  0.1254496E-009  0.9118800E+02  0.7815553E-02  0.1125453E+00
         25   -1    0    0    0    0  0.00000000000E+00  0.00000000000E+00  0.99999998245E-14  0.12509000000E+03  0.12509000000E+03 0.  0.
        -13    1    3    3    0    0 -0.21251975860E+02  0.40113957275E+02  0.60823092808E+01  0.45801546878E+02  0.10566000000E+00 0. -1.
         23    2    1    0    0    0  0.20704105540E+01  0.10903815591E+02 -0.27113459979E+02  0.95792909592E+02  0.91202861917E+02 0.  0.
         13    1    3    3    0    0  0.23322386414E+02 -0.29210141684E+02 -0.33195769260E+02  0.49991362714E+02  0.10566000000E+00 0.  1.
         22    1    1    0    0    0 -0.20704105540E+01 -0.10903815591E+02  0.27113459979E+02  0.29297090408E+02  0.00000000000E+00 0. -1.
</event>
<event>
 5    1  0.1254496E-009  0.9118800E+02  0.7815553E-02  0.1125453E+00
         25   -1    0    0    0    0  0.00000000000E+00  0.00000000000E+00  0.99999998245E-14  0.12509000000E+03  0.12509000000E+03 0.  0.
        -13    1    3    3    0    0  0.51980522493E+02  0.32965874442E+02  0.63412285500E+01  0.61878477194E+02  0.10566000000E+00 0.  1.
         23    2    1    0    0    0  0.28810940256E+02  0.10884521843E+02  0.14429646846E+01  0.94257788901E+02  0.89072473454E+02 0.  0.
         13    1    3    3    0    0 -0.23169582236E+02 -0.22081352600E+02 -0.48982638654E+01  0.32379311706E+02  0.10566000000E+00 0. -1.
         22    1    1    0    0    0 -0.28810940256E+02 -0.10884521843E+02 -0.14429646846E+01  0.30832211099E+02  0.00000000000E+00 0.  1.
</event>
<event>
 5    1  0.1254496E-009  0.9118800E+02  0.7815553E-02  0.1125453E+00
         25   -1    0    0    0    0  0.00000000000E+00  0.00000000000E+00  0.99999998245E-14  0.12509000000E+03  0.12509000000E+03 0.  0.
        -13    1    3    3    0    0 -0.14001284365E+02  0.24351447003E+02  0.31345639881E+02  0.42090251112E+02  0.10566000000E+00 0. -1.
         23    2    1    0    0    0  0.28270494176E+02  0.16755809413E+01  0.68468051739E+01  0.95953988716E+02  0.91423524309E+02 0.  0.
         13    1    3    3    0    0  0.42271778541E+02 -0.22675866062E+02 -0.24498834707E+02  0.53863737605E+02  0.10566000000E+00 0.  1.
         22    1    1    0    0    0 -0.28270494176E+02 -0.16755809413E+01 -0.68468051739E+01  0.29136011284E+02  0.00000000000E+00 0. -1.
</event>
<event>
 5    1  0.1254496E-009  0.9118800E+02  0.7815553E-02  0.1125453E+00
         25   -1    0    0    0    0  0.00000000000E+00  0.00000000000E+00  0.99999998245E-14  0.12509000000E+03  0.12509000000E+03 0.  0.
        -13    1    3    3    0    0 -0.41181458351E+02 -0.26638510572E+02 -0.42659350523E+01  0.49231413989E+02  0.10566000000E+00 0.  1.
         23    2    1    0    0    0 -0.17889029951E+01 -0.30471371220E+02  0.12357707660E+02  0.92159503852E+02  0.86075295954E+02 0.  0.
         13    1    3    3    0    0  0.39392555356E+02 -0.38328606482E+01  0.16623642712E+02  0.42928089863E+02  0.10566000000E+00 0. -1.
         22    1    1    0    0    0  0.17889029951E+01  0.30471371220E+02 -0.12357707660E+02  0.32930496148E+02  0.00000000000E+00 0. -1.
</event>
<event>
 5    1  0.1254496E-009  0.9118800E+02  0.7815553E-02  0.1125453E+00
         25   -1    0    0    0    0  0.00000000000E+00  0.00000000000E+00  0.99999998245E-14  0.12509000000E+03  0.12509000000E+03 0.  0.
        -13    1    3    3    0    0 -0.18362955247E+02 -0.46989402464E+01  0.34672666465E+02  0.39515606140E+02  0.10566000000E+00 0. -1.
         23    2    1    0    0    0 -0.18880415311E+02 -0.86444827126E+01 -0.21132547841E+02  0.95462618375E+02  0.90748717705E+02 0.  0.
         13    1    3    3    0    0 -0.51746006387E+00 -0.39455424662E+01 -0.55805214306E+02  0.55947012235E+02  0.10566000000E+00 0.  1.
         22    1    1    0    0    0  0.18880415311E+02  0.86444827126E+01  0.21132547841E+02  0.29627381625E+02  0.00000000000E+00 0.  1.
</event>
<event>
 5    1  0.1254496E-009  0.9118800E+02  0.7815553E-02  0.1125453E+00
         25   -1    0    0    0    0  0.00000000000E+00  0.00000000000E+00  0.99999998245E-14  0.12509000000E+03  0.12509000000E+03 0.  0.
        -13    1    3    3    0    0  0.30902820269E+02 -0.19114490272E+01  0.51037925615E+02  0.59695217170E+02  0.10566000000E+00 0. -1.
         23    2    1    0    0    0  0.40051939501E+01 -0.66245035820E+01  0.29832666806E+02  0.94269331042E+02  0.89088681324E+02 0.  0.
         13    1    3    3    0    0 -0.26897626319E+02 -0.47130545548E+01 -0.21205258809E+02  0.34574113872E+02  0.10566000000E+00 0.  1.
         22    1    1    0    0    0 -0.40051939501E+01  0.66245035820E+01 -0.29832666806E+02  0.30820668958E+02  0.00000000000E+00 0. -1.
</event>
<event>
 5    1  0.1254496E-009  0.9118800E+02  0.7815553E-02  0.1125453E+00
         25   -1    0    0    0    0  0.00000000000E+00  0.00000000000E+00  0.99999998245E-14  0.12509000000E+03  0.12509000000E+03 0.  0.
        -13    1    3    3    0    0 -0.30927789193E+02 -0.17686963534E+02  0.89189262678E+01  0.36727581369E+02  0.10566000000E+00 0.  1.
         23    2    1    0    0    0  0.26469507586E+02 -0.15594756677E+00  0.10111703364E+02  0.96754409369E+02  0.92512215604E+02 0.  0.
         13    1    3    3    0    0  0.57397296779E+02  0.17531015967E+02  0.11927770964E+01  0.60026827999E+02  0.10566000000E+00 0. -1.
         22    1    1    0    0    0 -0.26469507586E+02  0.15594756677E+00 -0.10111703364E+02  0.28335590631E+02  0.00000000000E+00 0. -1.
</event>
<event>
 5    1  0.1254496E-009  0.9118800E+02  0.7815553E-02  0.1125453E+00
         25   -1    0    0    0    0  0.00000000000E+00  0.00000000000E+00  0.99999998245E-14  0.12509000000E+03  0.12509000000E+03 0.  0.
        -13    1    3    3    0    0 -0.11812864208E+02 -0.41932978846E+02  0.37047644921E+02  0.57187915104E+02  0.10566000000E+00 0.  1.
         23    2    1    0    0    0  0.46195182331E+01 -0.27785105298E+02  0.41060493638E+01  0.96625782700E+02  0.92338129805E+02 0.  0.
         13    1    3    3    0    0  0.16432382441E+02  0.14147873548E+02 -0.32941595558E+02  0.39437867596E+02  0.10566000000E+00 0. -1.
         22    1    1    0    0    0 -0.46195182331E+01  0.27785105298E+02 -0.41060493638E+01  0.28464217300E+02  0.00000000000E+00 0.  1.
</event>
<event>
 5    1  0.1254496E-009  0.9118800E+02  0.7815553E-02  0.1125453E+00
         25   -1    0    0    0    0  0.00000000000E+00  0.00000000000E+00  0.99999998245E-14  0.12509000000E+03  0.12509000000E+03 0.  0.
        -13    1    3    3    0    0  0.10611066670E+02  0.32899275580E+02  0.31012726094E+02  0.46440902375E+02  0.10566000000E+00 0.  1.
         23    2    1    0    0    0  0.17012707508E+02  0.20102453395E+02 -0.15107035494E+02  0.94729443835E+02  0.89732403058E+02 0.  0.
         13    1    3    3    0    0  0.64016408376E+01 -0.12796822185E+02 -0.46119761587E+02  0.48288541460E+02  0.10566000000E+00 0. -1.
         22    1    1    0    0    0 -0.17012707508E+02 -0.20102453395E+02  0.15107035494E+02  0.30360556165E+02  0.00000000000E+00 0. -1.
</event>
<event>
 5    1  0.1254496E-009  0.9118800E+02  0.7815553E-02  0.1125453E+00
         25   -1    0    0    0    0  0.00000000000E+00  0.00000000000E+00  0.99999998245E-14  0.12509000000E+03  0.12509000000E+03 0.  0.
        -13    1    3    3    0    0 -0.43959228481E+02 -0.23706198857E+02 -0.29668921565E+02  0.58091769674E+02  0.10566000000E+00 0. -1.
         23    2    1    0    0    0 -0.74137786553E+01 -0.19101245647E+02 -0.20618816438E+02  0.96021850927E+02  0.91516329499E+02 0.  0.
         13    1    3    3    0    0  0.36545449826E+02  0.46049532101E+01  0.90501051274E+01  0.37930081254E+02  0.10566000000E+00 0.  1.
         22    1    1    0    0    0  0.74137786553E+01  0.19101245647E+02  0.20618816438E+02  0.29068149073E+02  0.00000000000E+00 0. -1.
</event>
<event>
 5    1  0.1254496E-009  0.9118800E+02  0.7815553E-02  0.1125453E+00
         25   -1    0    0    0    0  0.00000000000E+00  0.00000000000E+00  0.99999998245E-14  0.12509000000E+03  0.12509000000E+03 0.  0.
        -13    1    3    3    0    0 -0.22484007138E+02  0.24318426639E+02  0.33279977650E+02  0.46951938486E+02  0.10566000000E+00 0.  1.
         23    2    1    0    0    0  0.14552834421E+02  0.29465763902E+02  0.11237549615E+02  0.90358188165E+02  0.83416445712E+02 0.  0.
         13    1    3    3    0    0  0.37036841558E+02  0.51473372624E+01 -0.22042428035E+02  0.43406249679E+02  0.10566000000E+00 0. -1.
         22    1    1    0    0    0 -0.14552834421E+02 -0.29465763902E+02 -0.11237549615E+02  0.34731811835E+02  0.00000000000E+00 0.  1.
</event>
<event>
 5    1  0.1254496E-009  0.9118800E+02  0.7815553E-02  0.1125453E+00
         25   -1    0    0    0    0  0.00000000000E+00  0.00000000000E+00  0.99999998245E-14  0.12509000000E+03  0.12509000000E+03 0.  0.
        -13    1    3    3    0    0 -0.50599302322E+02  0.23453542643E+02  0.97312815763E+01  0.56613311714E+02  0.10566000000E+00 0. -1.
         23    2    1    0    0    0 -0.11261600071E+02  0.22774408668E+02  0.13818218386E+02  0.96168719156E+02  0.91716858092E+02 0.  0.
         13    1    3    3    0    0  0.39337702252E+02 -0.67913397518E+00  0.40869368092E+01  0.39555407442E+02  0.10566000000E+00 0.  1.
         22    1    1    0    0    0  0.11261600071E+02 -0.22774408668E+02 -0.13818218386E+02  0.28921280844E+02  0.00000000000E+00 0. -1.
</event>
<event>
 5    1  0.1254496E-009  0.9118800E+02  0.7815553E-02  0.1125453E+00
         25   -1    0    0    0    0  0.00000000000E+00  0.00000000000E+00  0.99999998245E-14  0.12509000000E+03  0.12509000000E+03 0.  0.
        -13    1    3    3    0    0  0.21902839364E+02 -0.55410179547E+01 -0.25933045657E+02  0.34394349439E+02  0.10566000000E+00 0. -1.
         23    2    1    0    0    0 -0.18456496499E+02  0.28287826456E+02 -0.14764909155E+02  0.88227472537E+02  0.80157600883E+02 0.  0.
         13    1    3    3    0    0 -0.40359335864E+02  0.33828844411E+02  0.11168136503E+02  0.53833123098E+02  0.10566000000E+00 0.  1.
         22    1    1    0    0    0  0.18456496499E+02 -0.28287826456E+02  0.14764909155E+02  0.36862527463E+02  0.00000000000E+00 0.  1.
</event>
<event>
 5    1  0.1254496E-009  0.9118800E+02  0.7815553E-02  0.1125453E+00
         25   -1    0    0    0    0  0.00000000000E+00  0.00000000000E+00  0.99999998245E-14  0.12509000000E+03  0.12509000000E+03 0.  0.
        -13    1    3    3    0    0  0.20036064244E+01  0.25647928329E+02 -0.36390621473E+02  0.44565896844E+02  0.10566000000E+00 0.  1.
         23    2    1    0    0    0 -0.13474980336E+01 -0.22867964587E+02 -0.15097134605E+02  0.97654930680E+02  0.93721942241E+02 0.  0.
         13    1    3    3    0    0 -0.33511044580E+01 -0.48515892917E+02  0.21293486868E+02  0.53089033836E+02  0.10566000000E+00 0. -1.
         22    1    1    0    0    0  0.13474980336E+01  0.22867964587E+02  0.15097134605E+02  0.27435069320E+02  0.00000000000E+00 0.  1.
</event>
<event>
 5    1  0.1254496E-009  0.9118800E+02  0.7815553E-02  0.1125453E+00
         25   -1    0    0    0    0  0.00000000000E+00  0.00000000000E+00  0.99999998245E-14  0.12509000000E+03  0.12509000000E+03 0.  0.
        -13    1    3    3    0    0  0.56278208499E+02  0.27635990479E+01 -0.15730475391E+02  0.58500711548E+02  0.10566000000E+00 0. -1.
         23    2    1    0    0    0  0.30211662899E+02 -0.14422861081E+02 -0.85185489957E+01  0.90545403116E+02  0.83696719479E+02 0.  0.
         13    1    3    3    0    0 -0.26066545601E+02 -0.17186460129E+02  0.72119263952E+01  0.32044691568E+02  0.10566000000E+00 0.  1.
         22    1    1    0    0    0 -0.30211662899E+02  0.14422861081E+02  0.85185489957E+01  0.34544596884E+02  0.00000000000E+00 0. -1.
</event>
<event>
 5    1  0.1254496E-009  0.9118800E+02  0.7815553E-02  0.1125453E+00
         25   -1    0    0    0    0  0.00000000000E+00  0.00000000000E+00  0.99999998245E-14  0.12509000000E+03  0.12509000000E+03 0.  0.
        -13    1    3    3    0    0 -0.42841074107E+02 -0.16665601285E+02 -0.37637847143E+02  0.59411434913E+02  0.10566000000E+00 0.  1.
         23    2    1    0    0    0 -0.98180980315E+01 -0.16168500748E+02 -0.22363507282E+02  0.95799354337E+02  0.91211700829E+02 0.  0.
         13    1    3    3    0    0  0.33022976075E+02  0.49710053704E+00  0.15274339861E+02  0.36387919424E+02  0.10566000000E+00 0. -1.
         22    1    1    0    0    0  0.98180980315E+01  0.16168500748E+02  0.22363507282E+02  0.29290645663E+02  0.00000000000E+00 0.  1.
</event>
<event>
 5    1  0.1254496E-009  0.9118800E+02  0.7815553E-02  0.1125453E+00
         25   -1    0    0    0    0  0.00000000000E+00  0.00000000000E+00  0.99999998245E-14  0.12509000000E+03  0.12509000000E+03 0.  0.
        -13    1    3    3    0    0  0.51088060578E+01 -0.98807461768E+01 -0.51908557478E+02  0.53087084567E+02  0.10566000000E+00 0.  1.
         23    2    1    0    0    0  0.24177076018E+02  0.26387427752E+01 -0.14878699158E+02  0.96579130899E+02  0.92274909203E+02 0.  0.
         13    1    3    3    0    0  0.19068269960E+02  0.12519488952E+02  0.37029858320E+02  0.43492046332E+02  0.10566000000E+00 0. -1.
         22    1    1    0    0    0 -0.24177076018E+02 -0.26387427752E+01  0.14878699158E+02  0.28510869101E+02  0.00000000000E+00 0.  1.
</event>
<event>
 5    1  0.1254496E-009  0.9118800E+02  0.7815553E-02  0.1125453E+00
         25   -1    0    0    0    0  0.00000000000E+00  0.00000000000E+00  0.99999998245E-14  0.12509000000E+03  0.12509000000E+03 0.  0.
        -13    1    3    3    0    0  0.27460616853E+02  0.88021026697E+01 -0.17624230648E+02  0.33796259546E+02  0.10566000000E+00 0.  1.
         23    2    1    0    0    0 -0.48937084274E+01 -0.23052974819E+02  0.21089620746E+02  0.93464691568E+02  0.87951625548E+02 0.  0.
         13    1    3    3    0    0 -0.32354325280E+02 -0.31855077489E+02  0.38713851394E+02  0.59668432022E+02  0.10566000000E+00 0. -1.
         22    1    1    0    0    0  0.48937084274E+01  0.23052974819E+02 -0.21089620746E+02  0.31625308432E+02  0.00000000000E+00 0. -1.
</event>
<event>
 5    1  0.1254496E-009  0.9118800E+02  0.7815553E-02  0.1125453E+00
         25   -1    0    0    0    0  0.00000000000E+00  0.00000000000E+00  0.99999998245E-14  0.12509000000E+03  0.12509000000E+03 0.  0.
        -13    1    3    3    0    0 -0.12305891188E+02  0.41447443276E+02  0.41428805890E+02  0.59880569750E+02  0.10566000000E+00 0. -1.
         23    2    1    0    0    0 -0.10356249403E+02  0.25301016921E+02  0.87459026410E+01  0.96386617413E+02  0.92013563371E+02 0.  0.
         13    1    3    3    0    0  0.19496417846E+01 -0.16146426355E+02 -0.32682903249E+02  0.36506047663E+02  0.10566000000E+00 0.  1.
         22    1    1    0    0    0  0.10356249403E+02 -0.25301016921E+02 -0.87459026410E+01  0.28703382587E+02  0.00000000000E+00 0. -1.
</event>
<event>
 5    1  0.1254496E-009  0.9118800E+02  0.7815553E-02  0.1125453E+00
         25   -1    0    0    0    0  0.00000000000E+00  0.00000000000E+00  0.99999998245E-14  0.12509000000E+03  0.12509000000E+03 0.  0.
        -13    1    3    3    0    0 -0.36001014345E+02  0.22837078765E+02  0.20477609467E+02  0.47296393667E+02  0.10566000000E+00 0.  1.
         23    2    1    0    0    0  0.75289545651E+01  0.29976073218E+02  0.73318173812E+01  0.93325150425E+02  0.87752937462E+02 0.  0.
         13    1    3    3    0    0  0.43529968910E+02  0.71389944531E+01 -0.13145792086E+02  0.46028756758E+02  0.10566000000E+00 0. -1.
         22    1    1    0    0    0 -0.75289545651E+01 -0.29976073218E+02 -0.73318173812E+01  0.31764849575E+02  0.00000000000E+00 0. -1.
</event>
<event>
 5    1  0.1254496E-009  0.9118800E+02  0.7815553E-02  0.1125453E+00
         25   -1    0    0    0    0  0.00000000000E+00  0.00000000000E+00  0.99999998245E-14  0.12509000000E+03  0.12509000000E+03 0.  0.
        -13    1    3    3    0    0 -0.29066263014E+02  0.26930142228E+02  0.20908976458E+00  0.39624930140E+02  0.10566000000E+00 0.  1.
         23    2    1    0    0    0 -0.27251540729E+01 -0.12705321185E+02  0.27635074523E+02  0.94552334813E+02  0.89485166501E+02 0.  0.
         13    1    3    3    0    0  0.26341108941E+02 -0.39635463413E+02  0.27425984759E+02  0.54927404674E+02  0.10566000000E+00 0. -1.
         22    1    1    0    0    0  0.27251540729E+01  0.12705321185E+02 -0.27635074523E+02  0.30537665187E+02  0.00000000000E+00 0. -1.
</event>
<event>
 5    1  0.1254496E-009  0.9118800E+02  0.7815553E-02  0.1125453E+00
         25   -1    0    0    0    0  0.00000000000E+00  0.00000000000E+00  0.99999998245E-14  0.12509000000E+03  0.12509000000E+03 0.  0.
        -13    1    3    3    0    0 -0.57239208739E+01 -0.12694161242E+02  0.41027187484E+02  0.43326046169E+02  0.10566000000E+00 0. -1.
         23    2    1    0    0    0 -0.70153391706E+01  0.27028403155E+02  0.55095778321E+01  0.96627656304E+02  0.92340667932E+02 0.  0.
         13    1    3    3    0    0 -0.12914182966E+01  0.39722564397E+02 -0.35517609652E+02  0.53301610134E+02  0.10566000000E+00 0.  1.
         22    1    1    0    0    0  0.70153391706E+01 -0.27028403155E+02 -0.55095778321E+01  0.28462343696E+02  0.00000000000E+00 0. -1.
</event>
<event>
 5    1  0.1254496E-009  0.9118800E+02  0.7815553E-02  0.1125453E+00
         25   -1    0    0    0    0  0.00000000000E+00  0.00000000000E+00  0.99999998245E-14  0.12509000000E+03  0.12509000000E+03 0.  0.
        -13    1    3    3    0    0 -0.12307489897E+02 -0.16964391426E+02  0.26927052706E+02  0.34122459107E+02  0.10566000000E+00 0. -1.
         23    2    1    0    0    0 -0.58235143313E+01  0.95019050375E+01 -0.27734874214E+02  0.95199821577E+02  0.90385747007E+02 0.  0.
         13    1    3    3    0    0  0.64839755652E+01  0.26466296463E+02 -0.54661926921E+02  0.61077362470E+02  0.10566000000E+00 0.  1.
         22    1    1    0    0    0  0.58235143313E+01 -0.95019050375E+01  0.27734874214E+02  0.29890178423E+02  0.00000000000E+00 0.  1.
</event>
<event>
 5    1  0.1254496E-009  0.9118800E+02  0.7815553E-02  0.1125453E+00
         25   -1    0    0    0    0  0.00000000000E+00  0.00000000000E+00  0.99999998245E-14  0.12509000000E+03  0.12509000000E+03 0.  0.
        -13    1    3    3    0    0 -0.47657395781E+02 -0.11296393863E+02  0.33185499978E+02  0.59161849699E+02  0.10566000000E+00 0.  1.
         23    2    1    0    0    0 -0.13206303315E+02 -0.11262931850E+02  0.25140470336E+02  0.94539986419E+02  0.89467903195E+02 0.  0.
         13    1    3    3    0    0  0.34451092466E+02  0.33462012768E-01 -0.80450296419E+01  0.35378136720E+02  0.10566000000E+00 0. -1.
         22    1    1    0    0    0  0.13206303315E+02  0.11262931850E+02 -0.25140470336E+02  0.30550013581E+02  0.00000000000E+00 0.  1.
</event>
<event>
 5    1  0.1254496E-009  0.9118800E+02  0.7815553E-02  0.1125453E+00
         25   -1    0    0    0    0  0.00000000000E+00  0.00000000000E+00  0.99999998245E-14  0.12509000000E+03  0.12509000000E+03 0.  0.
        -13    1    3    3    0    0 -0.40164651896E+02  0.19042620056E+02  0.29877375363E+02  0.53558280061E+02  0.10566000000E+00 0.  1.
         23    2    1    0    0    0  0.17032247776E+01  0.17728848656E+02  0.22988134632E+02  0.96009639219E+02  0.91499636282E+02 0.  0.
         13    1    3    3    0    0  0.41867876673E+02 -0.13137714009E+01 -0.68892407306E+01  0.42451359157E+02  0.10566000000E+00 0. -1.
         22    1    1    0    0    0 -0.17032247776E+01 -0.17728848656E+02 -0.22988134632E+02  0.29080360781E+02  0.00000000000E+00 0.  1.
</event>
<event>
 5    1  0.1254496E-009  0.9118800E+02  0.7815553E-02  0.1125453E+00
         25   -1    0    0    0    0  0.00000000000E+00  0.00000000000E+00  0.99999998245E-14  0.12509000000E+03  0.12509000000E+03 0.  0.
        -13    1    3    3    0    0  0.55711816122E+01  0.34281550232E+02 -0.68561101475E+01  0.35401697152E+02  0.10566000000E+00 0.  1.
         23    2    1    0    0    0  0.40477452354E+01 -0.21508629443E+02 -0.22840109665E+02  0.93456536840E+02  0.87940026646E+02 0.  0.
         13    1    3    3    0    0 -0.15234363768E+01 -0.55790179675E+02 -0.15983999518E+02  0.58054839688E+02  0.10566000000E+00 0. -1.
         22    1    1    0    0    0 -0.40477452354E+01  0.21508629443E+02  0.22840109665E+02  0.31633463160E+02  0.00000000000E+00 0. -1.
</event>
<event>
 5    1  0.1254496E-009  0.9118800E+02  0.7815553E-02  0.1125453E+00
         25   -1    0    0    0    0  0.00000000000E+00  0.00000000000E+00  0.99999998245E-14  0.12509000000E+03  0.12509000000E+03 0.  0.
        -13    1    3    3    0    0  0.33496936512E+02 -0.13328715740E+02 -0.24123932193E+02  0.43378274372E+02  0.10566000000E+00 0.  1.
         23    2    1    0    0    0  0.18244809006E+02  0.89766006804E+01  0.20926850199E+02  0.95911489505E+02  0.91365356369E+02 0.  0.
         13    1    3    3    0    0 -0.15252127507E+02  0.22305316420E+02  0.45050782392E+02  0.52533215133E+02  0.10566000000E+00 0. -1.
         22    1    1    0    0    0 -0.18244809006E+02 -0.89766006804E+01 -0.20926850199E+02  0.29178510495E+02  0.00000000000E+00 0. -1.
</event>
<event>
 5    1  0.1254496E-009  0.9118800E+02  0.7815553E-02  0.1125453E+00
         25   -1    0    0    0    0  0.00000000000E+00  0.00000000000E+00  0.99999998245E-14  0.12509000000E+03  0.12509000000E+03 0.  0.
        -13    1    3    3    0    0  0.12719211452E+00 -0.13287372145E+02 -0.31361219261E+02  0.34060353402E+02  0.10566000000E+00 0.  1.
         23    2    1    0    0    0 -0.48743756092E+00  0.17990743682E+02  0.22457260982E+02  0.96310962066E+02  0.91910654386E+02 0.  0.
         13    1    3    3    0    0 -0.61462967545E+00  0.31278115826E+02  0.53818480243E+02  0.62250608663E+02  0.10566000000E+00 0. -1.
         22    1    1    0    0    0  0.48743756092E+00 -0.17990743682E+02 -0.22457260982E+02  0.28779037934E+02  0.00000000000E+00 0. -1.
</event>
<event>
 5    1  0.1254496E-009  0.9118800E+02  0.7815553E-02  0.1125453E+00
         25   -1    0    0    0    0  0.00000000000E+00  0.00000000000E+00  0.99999998245E-14  0.12509000000E+03  0.12509000000E+03 0.  0.
        -13    1    3    3    0    0 -0.46887724204E+02  0.22633690687E+02 -0.26405514059E+02  0.58378120661E+02  0.10566000000E+00 0.  1.
         23    2    1    0    0    0 -0.14960970110E+02  0.40329277958E+01 -0.25393664616E+02  0.95342170905E+02  0.90582538146E+02 0.  0.
         13    1    3    3    0    0  0.31926754094E+02 -0.18600762891E+02  0.10118494431E+01  0.36964050244E+02  0.10566000000E+00 0. -1.
         22    1    1    0    0    0  0.14960970110E+02 -0.40329277958E+01  0.25393664616E+02  0.29747829095E+02  0.00000000000E+00 0.  1.
</event>
<event>
 5    1  0.1254496E-009  0.9118800E+02  0.7815553E-02  0.1125453E+00
         25   -1    0    0    0    0  0.00000000000E+00  0.00000000000E+00  0.99999998245E-14  0.12509000000E+03  0.12509000000E+03 0.  0.
        -13    1    3    3    0    0  0.33670989742E+02 -0.15548716117E+01  0.14868957861E+02  0.36840877403E+02  0.10566000000E+00 0.  1.
         23    2    1    0    0    0 -0.10068469800E+02  0.16151430753E+02 -0.21469522607E+02  0.96398830619E+02  0.92030165404E+02 0.  0.
         13    1    3    3    0    0 -0.43739459542E+02  0.17706302365E+02 -0.36338480468E+02  0.59557953215E+02  0.10566000000E+00 0. -1.
         22    1    1    0    0    0  0.10068469800E+02 -0.16151430753E+02  0.21469522607E+02  0.28691169381E+02  0.00000000000E+00 0. -1.
</event>
<event>
 5    1  0.1254496E-009  0.9118800E+02  0.7815553E-02  0.1125453E+00
         25   -1    0    0    0    0  0.00000000000E+00  0.00000000000E+00  0.99999998245E-14  0.12509000000E+03  0.12509000000E+03 0.  0.
        -13    1    3    3    0    0 -0.25223137398E+02  0.20935418581E+02  0.30329878779E+00  0.32781115990E+02  0.10566000000E+00 0.  1.
         23    2    1    0    0    0  0.58940101217E+01 -0.25734590729E+02 -0.19501691284E+02  0.92267378559E+02  0.86231923717E+02 0.  0.
         13    1    3    3    0    0  0.31117147519E+02 -0.46670009310E+02 -0.19804990071E+02  0.59486262570E+02  0.10566000000E+00 0. -1.
         22    1    1    0    0    0 -0.58940101217E+01  0.25734590729E+02  0.19501691284E+02  0.32822621441E+02  0.00000000000E+00 0. -1.
</event>
<event>
 5    1  0.1254496E-009  0.9118800E+02  0.7815553E-02  0.1125453E+00
         25   -1    0    0    0    0  0.00000000000E+00  0.00000000000E+00  0.99999998245E-14  0.12509000000E+03  0.12509000000E+03 0.  0.
        -13    1    3    3    0    0  0.23841086776E+02 -0.42218929241E+02 -0.82185184074E+01  0.49177135070E+02  0.10566000000E+00 0. -1.
         23    2    1    0    0    0  0.34877155192E+01 -0.15784946289E+01 -0.26607534536E+02  0.98208469186E+02  0.94457856851E+02 0.  0.
         13    1    3    3    0    0 -0.20353371257E+02  0.40640434612E+02 -0.18389016128E+02  0.49031334115E+02  0.10566000000E+00 0.  1.
         22    1    1    0    0    0 -0.34877155192E+01  0.15784946289E+01  0.26607534536E+02  0.26881530814E+02  0.00000000000E+00 0. -1.
</event>
<event>
 5    1  0.1254496E-009  0.9118800E+02  0.7815553E-02  0.1125453E+00
         25   -1    0    0    0    0  0.00000000000E+00  0.00000000000E+00  0.99999998245E-14  0.12509000000E+03  0.12509000000E+03 0.  0.
        -13    1    3    3    0    0 -0.22820446865E+02  0.48656637420E+02  0.29206676626E+01  0.53821767193E+02  0.10566000000E+00 0.  1.
         23    2    1    0    0    0  0.65797296278E+01  0.23697633625E+02  0.17342715867E+02  0.94996138915E+02  0.90103417991E+02 0.  0.
         13    1    3    3    0    0  0.29400176493E+02 -0.24959003795E+02  0.14422048204E+02  0.41174371722E+02  0.10566000000E+00 0. -1.
         22    1    1    0    0    0 -0.65797296278E+01 -0.23697633625E+02 -0.17342715867E+02  0.30093861085E+02  0.00000000000E+00 0.  1.
</event>
<event>
 5    1  0.1254496E-009  0.9118800E+02  0.7815553E-02  0.1125453E+00
         25   -1    0    0    0    0  0.00000000000E+00  0.00000000000E+00  0.99999998245E-14  0.12509000000E+03  0.12509000000E+03 0.  0.
        -13    1    3    3    0    0  0.12140530514E+01  0.77564032404E+01 -0.53025752084E+02  0.53603892248E+02  0.10566000000E+00 0.  1.
         23    2    1    0    0    0 -0.17615040232E+02  0.17029750828E+02 -0.17099580558E+02  0.95211952693E+02  0.90402534393E+02 0.  0.
         13    1    3    3    0    0 -0.18829093284E+02  0.92733475875E+01  0.35926171526E+02  0.41608060444E+02  0.10566000000E+00 0. -1.
         22    1    1    0    0    0  0.17615040232E+02 -0.17029750828E+02  0.17099580558E+02  0.29878047307E+02  0.00000000000E+00 0.  1.
</event>
<event>
 5    1  0.1254496E-009  0.9118800E+02  0.7815553E-02  0.1125453E+00
         25   -1    0    0    0    0  0.00000000000E+00  0.00000000000E+00  0.99999998245E-14  0.12509000000E+03  0.12509000000E+03 0.  0.
        -13    1    3    3    0    0 -0.23727026325E+02 -0.55836061635E+02  0.17770410209E+01  0.60694370382E+02  0.10566000000E+00 0. -1.
         23    2    1    0    0    0 -0.20360733223E+02 -0.22606462564E+02  0.50333964988E+01  0.94252576513E+02  0.89065153073E+02 0.  0.
         13    1    3    3    0    0  0.33662931028E+01  0.33229599072E+02  0.32563554779E+01  0.33558206131E+02  0.10566000000E+00 0.  1.
         22    1    1    0    0    0  0.20360733223E+02  0.22606462564E+02 -0.50333964988E+01  0.30837423487E+02  0.00000000000E+00 0. -1.
</event>
<event>
 5    1  0.1254496E-009  0.9118800E+02  0.7815553E-02  0.1125453E+00
         25   -1    0    0    0    0  0.00000000000E+00  0.00000000000E+00  0.99999998245E-14  0.12509000000E+03  0.12509000000E+03 0.  0.
        -13    1    3    3    0    0  0.15747232127E+02  0.14059405426E+02 -0.41124850769E+02  0.46226688346E+02  0.10566000000E+00 0.  1.
         23    2    1    0    0    0 -0.21816307843E+02 -0.83925903996E+01 -0.16893077545E+02  0.96249699543E+02  0.91827238506E+02 0.  0.
         13    1    3    3    0    0 -0.37563539970E+02 -0.22451995826E+02  0.24231773224E+02  0.50023011197E+02  0.10566000000E+00 0. -1.
         22    1    1    0    0    0  0.21816307843E+02  0.83925903996E+01  0.16893077545E+02  0.28840300457E+02  0.00000000000E+00 0. -1.
</event>
<event>
 5    1  0.1254496E-009  0.9118800E+02  0.7815553E-02  0.1125453E+00
         25   -1    0    0    0    0  0.00000000000E+00  0.00000000000E+00  0.99999998245E-14  0.12509000000E+03  0.12509000000E+03 0.  0.
        -13    1    3    3    0    0  0.40352664244E+02  0.21067609879E+01 -0.17184410367E+02  0.43910033901E+02  0.10566000000E+00 0.  1.
         23    2    1    0    0    0 -0.85767200033E+01  0.86109948821E+01 -0.28110439167E+02  0.94464746547E+02  0.89362644272E+02 0.  0.
         13    1    3    3    0    0 -0.48929384248E+02  0.65042338943E+01 -0.10926028800E+02  0.50554712647E+02  0.10566000000E+00 0. -1.
         22    1    1    0    0    0  0.85767200033E+01 -0.86109948821E+01  0.28110439167E+02  0.30625253453E+02  0.00000000000E+00 0.  1.
</event>
<event>
 5    1  0.1254496E-009  0.9118800E+02  0.7815553E-02  0.1125453E+00
         25   -1    0    0    0    0  0.00000000000E+00  0.00000000000E+00  0.99999998245E-14  0.12509000000E+03  0.12509000000E+03 0.  0.
        -13    1    3    3    0    0  0.34436445473E+02  0.44769046659E+02 -0.19694324193E+02  0.59816501779E+02  0.10566000000E+00 0. -1.
         23    2    1    0    0    0  0.87606250603E+01  0.28256512584E+02 -0.12564372827E+01  0.95479905615E+02  0.90772543683E+02 0.  0.
         13    1    3    3    0    0 -0.25675820412E+02 -0.16512534076E+02  0.18437886910E+02  0.35663403836E+02  0.10566000000E+00 0.  1.
         22    1    1    0    0    0 -0.87606250603E+01 -0.28256512584E+02  0.12564372827E+01  0.29610094385E+02  0.00000000000E+00 0. -1.
</event>
<event>
 5    1  0.1254496E-009  0.9118800E+02  0.7815553E-02  0.1125453E+00
         25   -1    0    0    0    0  0.00000000000E+00  0.00000000000E+00  0.99999998245E-14  0.12509000000E+03  0.12509000000E+03 0.  0.
        -13    1    3    3    0    0  0.50658305579E+02  0.24777020459E+02  0.11885130395E+02  0.57631867534E+02  0.10566000000E+00 0. -1.
         23    2    1    0    0    0  0.12373009107E+02  0.24503095544E+02  0.96859508038E+01  0.95981398375E+02  0.91461019814E+02 0.  0.
         13    1    3    3    0    0 -0.38285296472E+02 -0.27392491477E+00 -0.21991795909E+01  0.38349530841E+02  0.10566000000E+00 0.  1.
         22    1    1    0    0    0 -0.12373009107E+02 -0.24503095544E+02 -0.96859508038E+01  0.29108601625E+02  0.00000000000E+00 0. -1.
</event>
<event>
 5    1  0.1254496E-009  0.9118800E+02  0.7815553E-02  0.1125453E+00
         25   -1    0    0    0    0  0.00000000000E+00  0.00000000000E+00  0.99999998245E-14  0.12509000000E+03  0.12509000000E+03 0.  0.
        -13    1    3    3    0    0 -0.14031841354E+01 -0.72179486481E+01  0.34471109210E+02  0.35246790529E+02  0.10566000000E+00 0.  1.
         23    2    1    0    0    0 -0.16376915209E+02  0.42275587497E+01 -0.23461073104E+02  0.96167732524E+02  0.91715512444E+02 0.  0.
         13    1    3    3    0    0 -0.14973731074E+02  0.11445507398E+02 -0.57932182314E+02  0.60920941995E+02  0.10566000000E+00 0. -1.
         22    1    1    0    0    0  0.16376915209E+02 -0.42275587497E+01  0.23461073104E+02  0.28922267476E+02  0.00000000000E+00 0. -1.
</event>
<event>
 5    1  0.1254496E-009  0.9118800E+02  0.7815553E-02  0.1125453E+00
         25   -1    0    0    0    0  0.00000000000E+00  0.00000000000E+00  0.99999998245E-14  0.12509000000E+03  0.12509000000E+03 0.  0.
        -13    1    3    3    0    0  0.14979809414E+01  0.10201333852E+02  0.14668095712E+02  0.17929733827E+02  0.10566000000E+00 0. -1.
         23    2    1    0    0    0 -0.45106796292E+02 -0.87050726393E+01 -0.15534500226E+02  0.76595443000E+02  0.59288614672E+02 0.  0.
         13    1    3    3    0    0 -0.46604777233E+02 -0.18906406491E+02 -0.30202595937E+02  0.58665709173E+02  0.10566000000E+00 0.  1.
         22    1    1    0    0    0  0.45106796292E+02  0.87050726393E+01  0.15534500226E+02  0.48494557000E+02  0.00000000000E+00 0.  1.
</event>
<event>
 5    1  0.1254496E-009  0.9118800E+02  0.7815553E-02  0.1125453E+00
         25   -1    0    0    0    0  0.00000000000E+00  0.00000000000E+00  0.99999998245E-14  0.12509000000E+03  0.12509000000E+03 0.  0.
        -13    1    3    3    0    0  0.49751527360E+02  0.91461708660E+01  0.76756240642E+01  0.51164375155E+02  0.10566000000E+00 0.  1.
         23    2    1    0    0    0  0.11352008323E+02  0.25653934135E+02 -0.81800718512E+01  0.95868329872E+02  0.91306246596E+02 0.  0.
         13    1    3    3    0    0 -0.38399519037E+02  0.16507763269E+02 -0.15855695915E+02  0.44703954717E+02  0.10566000000E+00 0. -1.
         22    1    1    0    0    0 -0.11352008323E+02 -0.25653934135E+02  0.81800718512E+01  0.29221670128E+02  0.00000000000E+00 0.  1.
</event>
<event>
 5    1  0.1254496E-009  0.9118800E+02  0.7815553E-02  0.1125453E+00
         25   -1    0    0    0    0  0.00000000000E+00  0.00000000000E+00  0.99999998245E-14  0.12509000000E+03  0.12509000000E+03 0.  0.
        -13    1    3    3    0    0 -0.13288581819E+02  0.26130572346E+02  0.44944353232E+02  0.53660034191E+02  0.10566000000E+00 0. -1.
         23    2    1    0    0    0 -0.28322951770E+01  0.29171750608E+02  0.46321383212E+01  0.95417291412E+02  0.90686216513E+02 0.  0.
         13    1    3    3    0    0  0.10456286642E+02  0.30411782624E+01 -0.40312214911E+02  0.41757257221E+02  0.10566000000E+00 0.  1.
         22    1    1    0    0    0  0.28322951770E+01 -0.29171750608E+02 -0.46321383212E+01  0.29672708588E+02  0.00000000000E+00 0. -1.
</event>
<event>
 5    1  0.1254496E-009  0.9118800E+02  0.7815553E-02  0.1125453E+00
         25   -1    0    0    0    0  0.00000000000E+00  0.00000000000E+00  0.99999998245E-14  0.12509000000E+03  0.12509000000E+03 0.  0.
        -13    1    3    3    0    0 -0.26456397546E+02  0.35205386253E+02  0.13352816220E+02  0.46018138352E+02  0.10566000000E+00 0. -1.
         23    2    1    0    0    0 -0.31370041077E+02 -0.95407612704E+01  0.79042215004E+01  0.91361935717E+02  0.84908309237E+02 0.  0.
         13    1    3    3    0    0 -0.49136435312E+01 -0.44746147524E+02 -0.54485947196E+01  0.45343797364E+02  0.10566000000E+00 0.  1.
         22    1    1    0    0    0  0.31370041077E+02  0.95407612704E+01 -0.79042215004E+01  0.33728064283E+02  0.00000000000E+00 0. -1.
</event>
<event>
 5    1  0.1254496E-009  0.9118800E+02  0.7815553E-02  0.1125453E+00
         25   -1    0    0    0    0  0.00000000000E+00  0.00000000000E+00  0.99999998245E-14  0.12509000000E+03  0.12509000000E+03 0.  0.
        -13    1    3    3    0    0  0.35207232092E+02  0.23485939441E+02  0.15133353077E+02  0.44946279962E+02  0.10566000000E+00 0.  1.
         23    2    1    0    0    0 -0.14567751338E+02  0.25327126889E+00  0.20281997403E+02  0.10011715587E+03  0.96952575805E+02 0.  0.
         13    1    3    3    0    0 -0.49774983430E+02 -0.23232668172E+02  0.51486443256E+01  0.55170875907E+02  0.10566000000E+00 0. -1.
         22    1    1    0    0    0  0.14567751338E+02 -0.25327126889E+00 -0.20281997403E+02  0.24972844131E+02  0.00000000000E+00 0. -1.
</event>
<event>
 5    1  0.1254496E-009  0.9118800E+02  0.7815553E-02  0.1125453E+00
         25   -1    0    0    0    0  0.00000000000E+00  0.00000000000E+00  0.99999998245E-14  0.12509000000E+03  0.12509000000E+03 0.  0.
        -13    1    3    3    0    0 -0.42684937465E+02 -0.57578196761E+01  0.38040489043E+02  0.57465175059E+02  0.10566000000E+00 0.  1.
         23    2    1    0    0    0 -0.89414341487E+01 -0.15826241494E+02  0.23044988744E+02  0.95738838683E+02  0.91128670360E+02 0.  0.
         13    1    3    3    0    0  0.33743503317E+02 -0.10068421817E+02 -0.14995500299E+02  0.38273663624E+02  0.10566000000E+00 0. -1.
         22    1    1    0    0    0  0.89414341487E+01  0.15826241494E+02 -0.23044988744E+02  0.29351161317E+02  0.00000000000E+00 0.  1.
</event>
<event>
 5    1  0.1254496E-009  0.9118800E+02  0.7815553E-02  0.1125453E+00
         25   -1    0    0    0    0  0.00000000000E+00  0.00000000000E+00  0.99999998245E-14  0.12509000000E+03  0.12509000000E+03 0.  0.
        -13    1    3    3    0    0 -0.19845087673E+02 -0.19752809171E+02  0.19776349420E+02  0.34279966967E+02  0.10566000000E+00 0.  1.
         23    2    1    0    0    0  0.10601212824E+02  0.23825013840E+02 -0.12182809864E+02  0.96307403626E+02  0.91905811237E+02 0.  0.
         13    1    3    3    0    0  0.30446300497E+02  0.43577823011E+02 -0.31959159284E+02  0.62027436659E+02  0.10566000000E+00 0. -1.
         22    1    1    0    0    0 -0.10601212824E+02 -0.23825013840E+02  0.12182809864E+02  0.28782596374E+02  0.00000000000E+00 0. -1.
</event>
<event>
 5    1  0.1254496E-009  0.9118800E+02  0.7815553E-02  0.1125453E+00
         25   -1    0    0    0    0  0.00000000000E+00  0.00000000000E+00  0.99999998245E-14  0.12509000000E+03  0.12509000000E+03 0.  0.
        -13    1    3    3    0    0 -0.34229669765E+02  0.44228654154E+01 -0.14979440575E+02  0.37624816739E+02  0.10566000000E+00 0.  1.
         23    2    1    0    0    0  0.14632096311E+02  0.19738442797E+02  0.14350508928E+02  0.96635800433E+02  0.92351699780E+02 0.  0.
         13    1    3    3    0    0  0.48861766076E+02  0.15315577382E+02  0.29329949503E+02  0.59010983693E+02  0.10566000000E+00 0. -1.
         22    1    1    0    0    0 -0.14632096311E+02 -0.19738442797E+02 -0.14350508928E+02  0.28454199567E+02  0.00000000000E+00 0. -1.
</event>
<event>
 5    1  0.1254496E-009  0.9118800E+02  0.7815553E-02  0.1125453E+00
         25   -1    0    0    0    0  0.00000000000E+00  0.00000000000E+00  0.99999998245E-14  0.12509000000E+03  0.12509000000E+03 0.  0.
        -13    1    3    3    0    0 -0.34486229787E+02  0.28330777895E+02  0.30643102415E+02  0.54138192718E+02  0.10566000000E+00 0. -1.
         23    2    1    0    0    0 -0.15030627511E+02 -0.80885771504E+01  0.23505236643E+02  0.96041058654E+02  0.91542580005E+02 0.  0.
         13    1    3    3    0    0  0.19455602276E+02 -0.36419355046E+02 -0.71378657723E+01  0.41902865936E+02  0.10566000000E+00 0.  1.
         22    1    1    0    0    0  0.15030627511E+02  0.80885771504E+01 -0.23505236643E+02  0.29048941346E+02  0.00000000000E+00 0. -1.
</event>
<event>
 5    1  0.1254496E-009  0.9118800E+02  0.7815553E-02  0.1125453E+00
         25   -1    0    0    0    0  0.00000000000E+00  0.00000000000E+00  0.99999998245E-14  0.12509000000E+03  0.12509000000E+03 0.  0.
        -13    1    3    3    0    0 -0.15581977041E+02 -0.29762645502E+02 -0.35599343966E+02  0.48948314890E+02  0.10566000000E+00 0. -1.
         23    2    1    0    0    0 -0.30456384607E+02  0.26306488408E+01 -0.96685724151E+01  0.93027670558E+02  0.87327856497E+02 0.  0.
         13    1    3    3    0    0 -0.14874407567E+02  0.32393294342E+02  0.25930771551E+02  0.44079355668E+02  0.10566000000E+00 0.  1.
         22    1    1    0    0    0  0.30456384607E+02 -0.26306488408E+01  0.96685724151E+01  0.32062329442E+02  0.00000000000E+00 0.  1.
</event>
<event>
 5    1  0.1254496E-009  0.9118800E+02  0.7815553E-02  0.1125453E+00
         25   -1    0    0    0    0  0.00000000000E+00  0.00000000000E+00  0.99999998245E-14  0.12509000000E+03  0.12509000000E+03 0.  0.
        -13    1    3    3    0    0  0.17325741863E+02 -0.10493807190E+02 -0.33260172869E+02  0.38942927262E+02  0.10566000000E+00 0.  1.
         23    2    1    0    0    0 -0.85430779704E+01  0.28281253727E+02 -0.11890939379E+01  0.95522662650E+02  0.90831446327E+02 0.  0.
         13    1    3    3    0    0 -0.25868819833E+02  0.38775060917E+02  0.32071078931E+02  0.56579735388E+02  0.10566000000E+00 0. -1.
         22    1    1    0    0    0  0.85430779704E+01 -0.28281253727E+02  0.11890939379E+01  0.29567337350E+02  0.00000000000E+00 0. -1.
</event>
<event>
 5    1  0.1254496E-009  0.9118800E+02  0.7815553E-02  0.1125453E+00
         25   -1    0    0    0    0  0.00000000000E+00  0.00000000000E+00  0.99999998245E-14  0.12509000000E+03  0.12509000000E+03 0.  0.
        -13    1    3    3    0    0  0.56500517070E+02  0.18088335598E+02  0.15166791385E+02  0.61233479721E+02  0.10566000000E+00 0.  1.
         23    2    1    0    0    0  0.28383910478E+02 -0.21438741581E+00  0.87165954703E+01  0.95397048436E+02  0.90658289625E+02 0.  0.
         13    1    3    3    0    0 -0.28116606592E+02 -0.18302723013E+02 -0.64501959146E+01  0.34163568714E+02  0.10566000000E+00 0. -1.
         22    1    1    0    0    0 -0.28383910478E+02  0.21438741581E+00 -0.87165954703E+01  0.29692951564E+02  0.00000000000E+00 0.  1.
</event>
<event>
 5    1  0.1254496E-009  0.9118800E+02  0.7815553E-02  0.1125453E+00
         25   -1    0    0    0    0  0.00000000000E+00  0.00000000000E+00  0.99999998245E-14  0.12509000000E+03  0.12509000000E+03 0.  0.
        -13    1    3    3    0    0 -0.12645450757E+02  0.39244471890E+02 -0.42592641223E+02  0.59280521668E+02  0.10566000000E+00 0.  1.
         23    2    1    0    0    0 -0.51536104785E+01  0.62245229681E+01 -0.27637022668E+02  0.96295739997E+02  0.91889934881E+02 0.  0.
         13    1    3    3    0    0  0.74918402790E+01 -0.33019948922E+02  0.14955618554E+02  0.37015218329E+02  0.10566000000E+00 0. -1.
         22    1    1    0    0    0  0.51536104785E+01 -0.62245229681E+01  0.27637022668E+02  0.28794260003E+02  0.00000000000E+00 0.  1.
</event>
<event>
 5    1  0.1254496E-009  0.9118800E+02  0.7815553E-02  0.1125453E+00
         25   -1    0    0    0    0  0.00000000000E+00  0.00000000000E+00  0.99999998245E-14  0.12509000000E+03  0.12509000000E+03 0.  0.
        -13    1    3    3    0    0  0.43363991581E+02 -0.40774608220E+01  0.21800962952E+02  0.48706822954E+02  0.10566000000E+00 0.  1.
         23    2    1    0    0    0  0.21111054027E+01 -0.23926826067E+02  0.18804762807E+02  0.94584772974E+02  0.89530499846E+02 0.  0.
         13    1    3    3    0    0 -0.41252886179E+02 -0.19849365245E+02 -0.29962001449E+01  0.45877950020E+02  0.10566000000E+00 0. -1.
         22    1    1    0    0    0 -0.21111054027E+01  0.23926826067E+02 -0.18804762807E+02  0.30505227026E+02  0.00000000000E+00 0. -1.
</event>
<event>
 5    1  0.1254496E-009  0.9118800E+02  0.7815553E-02  0.1125453E+00
         25   -1    0    0    0    0  0.00000000000E+00  0.00000000000E+00  0.99999998245E-14  0.12509000000E+03  0.12509000000E+03 0.  0.
        -13    1    3    3    0    0  0.28978993091E+02  0.18488078336E+02 -0.35248007184E+02  0.49234380828E+02  0.10566000000E+00 0.  1.
         23    2    1    0    0    0  0.24928636757E+02 -0.16109726403E+02 -0.58009704001E+01  0.94847455912E+02  0.89896765348E+02 0.  0.
         13    1    3    3    0    0 -0.40503563335E+01 -0.34597804739E+02  0.29447036784E+02  0.45613075083E+02  0.10566000000E+00 0. -1.
         22    1    1    0    0    0 -0.24928636757E+02  0.16109726403E+02  0.58009704001E+01  0.30242544088E+02  0.00000000000E+00 0.  1.
</event>
<event>
 5    1  0.1254496E-009  0.9118800E+02  0.7815553E-02  0.1125453E+00
         25   -1    0    0    0    0  0.00000000000E+00  0.00000000000E+00  0.99999998245E-14  0.12509000000E+03  0.12509000000E+03 0.  0.
        -13    1    3    3    0    0  0.16323137053E+02  0.45918037666E+02 -0.21565672643E+02  0.53291654008E+02  0.10566000000E+00 0. -1.
         23    2    1    0    0    0 -0.14999288694E+02  0.26489003334E+02 -0.31749818712E+01  0.94484012533E+02  0.89389608766E+02 0.  0.
         13    1    3    3    0    0 -0.31322425746E+02 -0.19429034332E+02  0.18390690772E+02  0.41192358524E+02  0.10566000000E+00 0.  1.
         22    1    1    0    0    0  0.14999288694E+02 -0.26489003334E+02  0.31749818712E+01  0.30605987467E+02  0.00000000000E+00 0. -1.
</event>
<event>
 5    1  0.1254496E-009  0.9118800E+02  0.7815553E-02  0.1125453E+00
         25   -1    0    0    0    0  0.00000000000E+00  0.00000000000E+00  0.99999998245E-14  0.12509000000E+03  0.12509000000E+03 0.  0.
        -13    1    3    3    0    0 -0.55827979534E+01  0.29795871032E+02 -0.30180686805E+02  0.42776706086E+02  0.10566000000E+00 0. -1.
         23    2    1    0    0    0  0.22538013401E+02  0.66548936555E+01  0.12164375164E+02  0.98628297848E+02  0.95012206877E+02 0.  0.
         13    1    3    3    0    0  0.28120811354E+02 -0.23140977376E+02  0.42345061969E+02  0.55851591762E+02  0.10566000000E+00 0.  1.
         22    1    1    0    0    0 -0.22538013401E+02 -0.66548936555E+01 -0.12164375164E+02  0.26461702152E+02  0.00000000000E+00 0.  1.
</event>
<event>
 5    1  0.1254496E-009  0.9118800E+02  0.7815553E-02  0.1125453E+00
         25   -1    0    0    0    0  0.00000000000E+00  0.00000000000E+00  0.99999998245E-14  0.12509000000E+03  0.12509000000E+03 0.  0.
        -13    1    3    3    0    0 -0.21445830233E+02 -0.34006065704E+02  0.43000400111E+02  0.58867492836E+02  0.10566000000E+00 0. -1.
         23    2    1    0    0    0  0.35203233333E+01 -0.10954241865E+02  0.25553245349E+02  0.97065788342E+02  0.92932291629E+02 0.  0.
         13    1    3    3    0    0  0.24966153566E+02  0.23051823839E+02 -0.17447154763E+02  0.38198295506E+02  0.10566000000E+00 0.  1.
         22    1    1    0    0    0 -0.35203233333E+01  0.10954241865E+02 -0.25553245349E+02  0.28024211658E+02  0.00000000000E+00 0. -1.
</event>
<event>
 5    1  0.1254496E-009  0.9118800E+02  0.7815553E-02  0.1125453E+00
         25   -1    0    0    0    0  0.00000000000E+00  0.00000000000E+00  0.99999998245E-14  0.12509000000E+03  0.12509000000E+03 0.  0.
        -13    1    3    3    0    0 -0.26672510690E+02  0.17118184641E+02  0.11845854663E+02  0.33834752972E+02  0.10566000000E+00 0. -1.
         23    2    1    0    0    0  0.12617254747E+02 -0.23811961880E+02 -0.12265740343E+02  0.95481672927E+02  0.90774979113E+02 0.  0.
         13    1    3    3    0    0  0.39289765437E+02 -0.40930146520E+02 -0.24111595006E+02  0.61646919956E+02  0.10566000000E+00 0.  1.
         22    1    1    0    0    0 -0.12617254747E+02  0.23811961880E+02  0.12265740343E+02  0.29608327073E+02  0.00000000000E+00 0.  1.
</event>
<event>
 5    1  0.1254496E-009  0.9118800E+02  0.7815553E-02  0.1125453E+00
         25   -1    0    0    0    0  0.00000000000E+00  0.00000000000E+00  0.99999998245E-14  0.12509000000E+03  0.12509000000E+03 0.  0.
        -13    1    3    3    0    0  0.40049625039E+02  0.21697705105E+02  0.42813403862E+02  0.62512091525E+02  0.10566000000E+00 0.  1.
         23    2    1    0    0    0  0.25244004092E+02  0.15138931426E+02  0.26963919003E+02  0.85171333748E+02  0.75237332337E+02 0.  0.
         13    1    3    3    0    0 -0.14805620947E+02 -0.65587736785E+01 -0.15849484859E+02  0.22659242223E+02  0.10566000000E+00 0. -1.
         22    1    1    0    0    0 -0.25244004092E+02 -0.15138931426E+02 -0.26963919003E+02  0.39918666252E+02  0.00000000000E+00 0.  1.
</event>
<event>
 5    1  0.1254496E-009  0.9118800E+02  0.7815553E-02  0.1125453E+00
         25   -1    0    0    0    0  0.00000000000E+00  0.00000000000E+00  0.99999998245E-14  0.12509000000E+03  0.12509000000E+03 0.  0.
        -13    1    3    3    0    0 -0.12692689146E+02 -0.23791405596E+02 -0.22524127507E+02  0.35135207727E+02  0.10566000000E+00 0. -1.
         23    2    1    0    0    0 -0.11497205755E+02  0.24380711549E+02  0.13157142836E+02  0.95094746319E+02  0.90240210184E+02 0.  0.
         13    1    3    3    0    0  0.11954833910E+01  0.48172117145E+02  0.35681270343E+02  0.59959538592E+02  0.10566000000E+00 0.  1.
         22    1    1    0    0    0  0.11497205755E+02 -0.24380711549E+02 -0.13157142836E+02  0.29995253681E+02  0.00000000000E+00 0.  1.
</event>
<event>
 5    1  0.1254496E-009  0.9118800E+02  0.7815553E-02  0.1125453E+00
         25   -1    0    0    0    0  0.00000000000E+00  0.00000000000E+00  0.99999998245E-14  0.12509000000E+03  0.12509000000E+03 0.  0.
        -13    1    3    3    0    0 -0.84132089539E+01 -0.35560194620E+02  0.74273986323E+01  0.37289233577E+02  0.10566000000E+00 0. -1.
         23    2    1    0    0    0 -0.23396940949E+02  0.15865770782E+02 -0.12151635362E+02  0.94319855862E+02  0.89159595331E+02 0.  0.
         13    1    3    3    0    0 -0.14983731995E+02  0.51425965402E+02 -0.19579033994E+02  0.57030622285E+02  0.10566000000E+00 0.  1.
         22    1    1    0    0    0  0.23396940949E+02 -0.15865770782E+02  0.12151635362E+02  0.30770144138E+02  0.00000000000E+00 0.  1.
</event>
<event>
 5    1  0.1254496E-009  0.9118800E+02  0.7815553E-02  0.1125453E+00
         25   -1    0    0    0    0  0.00000000000E+00  0.00000000000E+00  0.99999998245E-14  0.12509000000E+03  0.12509000000E+03 0.  0.
        -13    1    3    3    0    0 -0.17224799218E+02  0.28029161767E+02 -0.23726997970E+02  0.40562411346E+02  0.10566000000E+00 0.  1.
         23    2    1    0    0    0  0.27565329978E+02  0.77864422701E+01  0.26125468735E+01  0.96327150677E+02  0.91932684375E+02 0.  0.
         13    1    3    3    0    0  0.44790129196E+02 -0.20242719497E+02  0.26339544844E+02  0.55764739331E+02  0.10566000000E+00 0. -1.
         22    1    1    0    0    0 -0.27565329978E+02 -0.77864422701E+01 -0.26125468735E+01  0.28762849323E+02  0.00000000000E+00 0. -1.
</event>
<event>
 5    1  0.1254496E-009  0.9118800E+02  0.7815553E-02  0.1125453E+00
         25   -1    0    0    0    0  0.00000000000E+00  0.00000000000E+00  0.99999998245E-14  0.12509000000E+03  0.12509000000E+03 0.  0.
        -13    1    3    3    0    0  0.22578531886E+02 -0.20036090488E+02 -0.49258321545E+02  0.57772211570E+02  0.10566000000E+00 0. -1.
         23    2    1    0    0    0 -0.46316469656E+01 -0.17842675172E+02 -0.22562715175E+02  0.95954294638E+02  0.91423942884E+02 0.  0.
         13    1    3    3    0    0 -0.27210178852E+02  0.21934153158E+01  0.26695606371E+02  0.38182083068E+02  0.10566000000E+00 0.  1.
         22    1    1    0    0    0  0.46316469656E+01  0.17842675172E+02  0.22562715175E+02  0.29135705362E+02  0.00000000000E+00 0. -1.
</event>
<event>
 5    1  0.1254496E-009  0.9118800E+02  0.7815553E-02  0.1125453E+00
         25   -1    0    0    0    0  0.00000000000E+00  0.00000000000E+00  0.99999998245E-14  0.12509000000E+03  0.12509000000E+03 0.  0.
        -13    1    3    3    0    0 -0.17292447893E+02 -0.57097298649E+02  0.81668066687E-01  0.59658596202E+02  0.10566000000E+00 0.  1.
         23    2    1    0    0    0 -0.18098901384E+02 -0.21513605477E+02 -0.73757592022E+01  0.96024431440E+02  0.91519856631E+02 0.  0.
         13    1    3    3    0    0 -0.80645349102E+00  0.35583693173E+02 -0.74574272689E+01  0.36365835238E+02  0.10566000000E+00 0. -1.
         22    1    1    0    0    0  0.18098901384E+02  0.21513605477E+02  0.73757592022E+01  0.29065568560E+02  0.00000000000E+00 0.  1.
</event>
<event>
 5    1  0.1254496E-009  0.9118800E+02  0.7815553E-02  0.1125453E+00
         25   -1    0    0    0    0  0.00000000000E+00  0.00000000000E+00  0.99999998245E-14  0.12509000000E+03  0.12509000000E+03 0.  0.
        -13    1    3    3    0    0  0.32580560553E+02  0.19806479396E+02 -0.22265563390E+02  0.44153777066E+02  0.10566000000E+00 0. -1.
         23    2    1    0    0    0  0.10118856313E+02  0.27853101897E+02  0.17606880622E+02  0.90619885646E+02  0.83807964364E+02 0.  0.
         13    1    3    3    0    0 -0.22461704240E+02  0.80466225006E+01  0.39872444012E+02  0.46466108580E+02  0.10566000000E+00 0.  1.
         22    1    1    0    0    0 -0.10118856313E+02 -0.27853101897E+02 -0.17606880622E+02  0.34470114354E+02  0.00000000000E+00 0. -1.
</event>
<event>
 5    1  0.1254496E-009  0.9118800E+02  0.7815553E-02  0.1125453E+00
         25   -1    0    0    0    0  0.00000000000E+00  0.00000000000E+00  0.99999998245E-14  0.12509000000E+03  0.12509000000E+03 0.  0.
        -13    1    3    3    0    0  0.31503943615E+01 -0.34277227582E+02 -0.49274569569E+02  0.60106968694E+02  0.10566000000E+00 0. -1.
         23    2    1    0    0    0  0.11829970432E+02 -0.98329868025E+01 -0.25586960259E+02  0.95234877070E+02  0.90434249294E+02 0.  0.
         13    1    3    3    0    0  0.86795760705E+01  0.24444240779E+02  0.23687609310E+02  0.35127908376E+02  0.10566000000E+00 0.  1.
         22    1    1    0    0    0 -0.11829970432E+02  0.98329868025E+01  0.25586960259E+02  0.29855122930E+02  0.00000000000E+00 0. -1.
</event>
<event>
 5    1  0.1254496E-009  0.9118800E+02  0.7815553E-02  0.1125453E+00
         25   -1    0    0    0    0  0.00000000000E+00  0.00000000000E+00  0.99999998245E-14  0.12509000000E+03  0.12509000000E+03 0.  0.
        -13    1    3    3    0    0 -0.25532003241E+02 -0.32355051787E+02  0.42548591528E+02  0.59237879526E+02  0.10566000000E+00 0.  1.
         23    2    1    0    0    0 -0.22307058667E+02 -0.52013592431E+01  0.18730277663E+02  0.95501449754E+02  0.90802227943E+02 0.  0.
         13    1    3    3    0    0  0.32249445737E+01  0.27153692544E+02 -0.23818313865E+02  0.36263570228E+02  0.10566000000E+00 0. -1.
         22    1    1    0    0    0  0.22307058667E+02  0.52013592431E+01 -0.18730277663E+02  0.29588550246E+02  0.00000000000E+00 0.  1.
</event>
<event>
 5    1  0.1254496E-009  0.9118800E+02  0.7815553E-02  0.1125453E+00
         25   -1    0    0    0    0  0.00000000000E+00  0.00000000000E+00  0.99999998245E-14  0.12509000000E+03  0.12509000000E+03 0.  0.
        -13    1    3    3    0    0  0.48756873283E+02 -0.26694774819E+02  0.22968872252E+02  0.60145024329E+02  0.10566000000E+00 0. -1.
         23    2    1    0    0    0  0.17210346132E+02 -0.21579776348E+02  0.17047784312E+02  0.92647593937E+02  0.86781720143E+02 0.  0.
         13    1    3    3    0    0 -0.31546527151E+02  0.51149984713E+01 -0.59210879392E+01  0.32502569607E+02  0.10566000000E+00 0.  1.
         22    1    1    0    0    0 -0.17210346132E+02  0.21579776348E+02 -0.17047784312E+02  0.32442406063E+02  0.00000000000E+00 0. -1.
</event>
<event>
 5    1  0.1254496E-009  0.9118800E+02  0.7815553E-02  0.1125453E+00
         25   -1    0    0    0    0  0.00000000000E+00  0.00000000000E+00  0.99999998245E-14  0.12509000000E+03  0.12509000000E+03 0.  0.
        -13    1    3    3    0    0 -0.21621655185E+02 -0.33634674404E+02  0.27595739375E+02  0.48583158511E+02  0.10566000000E+00 0.  1.
         23    2    1    0    0    0  0.86295164993E+01 -0.25157349789E+02 -0.91826249214E+01  0.96953166421E+02  0.92780574881E+02 0.  0.
         13    1    3    3    0    0  0.30251171684E+02  0.84773246159E+01 -0.36778364296E+02  0.48370007910E+02  0.10566000000E+00 0. -1.
         22    1    1    0    0    0 -0.86295164993E+01  0.25157349789E+02  0.91826249214E+01  0.28136833579E+02  0.00000000000E+00 0. -1.
</event>
<event>
 5    1  0.1254496E-009  0.9118800E+02  0.7815553E-02  0.1125453E+00
         25   -1    0    0    0    0  0.00000000000E+00  0.00000000000E+00  0.99999998245E-14  0.12509000000E+03  0.12509000000E+03 0.  0.
        -13    1    3    3    0    0  0.33412506978E+02 -0.17179966058E+02 -0.16560132563E+02  0.41058446279E+02  0.10566000000E+00 0.  1.
         23    2    1    0    0    0  0.32475300864E+02  0.23305189805E+02  0.77830498753E+00  0.85110220152E+02  0.75135655834E+02 0.  0.
         13    1    3    3    0    0 -0.93720611441E+00  0.40485155864E+02  0.17338437551E+02  0.44051773873E+02  0.10566000000E+00 0. -1.
         22    1    1    0    0    0 -0.32475300864E+02 -0.23305189805E+02 -0.77830498753E+00  0.39979779848E+02  0.00000000000E+00 0. -1.
</event>
<event>
 5    1  0.1254496E-009  0.9118800E+02  0.7815553E-02  0.1125453E+00
         25   -1    0    0    0    0  0.00000000000E+00  0.00000000000E+00  0.99999998245E-14  0.12509000000E+03  0.12509000000E+03 0.  0.
        -13    1    3    3    0    0 -0.30586171800E+02 -0.19929046688E+02 -0.97553450524E+01  0.37787017988E+02  0.10566000000E+00 0.  1.
         23    2    1    0    0    0  0.13440762512E+02 -0.72359025706E+01  0.25342753815E+02  0.95505078945E+02  0.90807227413E+02 0.  0.
         13    1    3    3    0    0  0.44026934312E+02  0.12693144118E+02  0.35098098867E+02  0.57718060957E+02  0.10566000000E+00 0. -1.
         22    1    1    0    0    0 -0.13440762512E+02  0.72359025706E+01 -0.25342753815E+02  0.29584921055E+02  0.00000000000E+00 0. -1.
</event>
<event>
 5    1  0.1254496E-009  0.9118800E+02  0.7815553E-02  0.1125453E+00
         25   -1    0    0    0    0  0.00000000000E+00  0.00000000000E+00  0.99999998245E-14  0.12509000000E+03  0.12509000000E+03 0.  0.
        -13    1    3    3    0    0 -0.29345295754E+02 -0.31483719264E+02  0.44365856232E+00  0.43041595678E+02  0.10566000000E+00 0. -1.
         23    2    1    0    0    0 -0.13376658603E+02  0.19210215260E+02  0.13896330439E+02  0.97867300549E+02  0.94004963441E+02 0.  0.
         13    1    3    3    0    0  0.15968637151E+02  0.50693934524E+02  0.13452671876E+02  0.54825704871E+02  0.10566000000E+00 0.  1.
         22    1    1    0    0    0  0.13376658603E+02 -0.19210215260E+02 -0.13896330439E+02  0.27222699451E+02  0.00000000000E+00 0.  1.
</event>
<event>
 5    1  0.1254496E-009  0.9118800E+02  0.7815553E-02  0.1125453E+00
         25   -1    0    0    0    0  0.00000000000E+00  0.00000000000E+00  0.99999998245E-14  0.12509000000E+03  0.12509000000E+03 0.  0.
        -13    1    3    3    0    0  0.53301174392E+02 -0.18118369144E+02  0.21200753037E+01  0.56336456893E+02  0.10566000000E+00 0.  1.
         23    2    1    0    0    0  0.13929629124E+02 -0.24783999924E+02 -0.25743555810E+01  0.96543397287E+02  0.92226455170E+02 0.  0.
         13    1    3    3    0    0 -0.39371545267E+02 -0.66656307804E+01 -0.46944308847E+01  0.40206940394E+02  0.10566000000E+00 0. -1.
         22    1    1    0    0    0 -0.13929629124E+02  0.24783999924E+02  0.25743555810E+01  0.28546602713E+02  0.00000000000E+00 0.  1.
</event>
<event>
 5    1  0.1254496E-009  0.9118800E+02  0.7815553E-02  0.1125453E+00
         25   -1    0    0    0    0  0.00000000000E+00  0.00000000000E+00  0.99999998245E-14  0.12509000000E+03  0.12509000000E+03 0.  0.
        -13    1    3    3    0    0 -0.10037495881E+02  0.11296499138E+02 -0.46100220493E+02  0.48513953765E+02  0.10566000000E+00 0.  1.
         23    2    1    0    0    0  0.93136559524E+01  0.21043228810E+02  0.27114539079E+01  0.10191860280E+03  0.99249624424E+02 0.  0.
         13    1    3    3    0    0  0.19351151834E+02  0.97467296720E+01  0.48811674401E+02  0.53404649034E+02  0.10566000000E+00 0. -1.
         22    1    1    0    0    0 -0.93136559524E+01 -0.21043228810E+02 -0.27114539079E+01  0.23171397201E+02  0.00000000000E+00 0. -1.
</event>
<event>
 5    1  0.1254496E-009  0.9118800E+02  0.7815553E-02  0.1125453E+00
         25   -1    0    0    0    0  0.00000000000E+00  0.00000000000E+00  0.99999998245E-14  0.12509000000E+03  0.12509000000E+03 0.  0.
        -13    1    3    3    0    0  0.27101245997E+02  0.24382827124E+02 -0.13495638395E+02  0.38873425535E+02  0.10566000000E+00 0. -1.
         23    2    1    0    0    0 -0.23814693917E+02  0.14827109362E+01 -0.18459180964E+02  0.94922477067E+02  0.90001095619E+02 0.  0.
         13    1    3    3    0    0 -0.50915939914E+02 -0.22900116187E+02 -0.49635425690E+01  0.56049051531E+02  0.10566000000E+00 0.  1.
         22    1    1    0    0    0  0.23814693917E+02 -0.14827109362E+01  0.18459180964E+02  0.30167522933E+02  0.00000000000E+00 0.  1.
</event>
<event>
 5    1  0.1254496E-009  0.9118800E+02  0.7815553E-02  0.1125453E+00
         25   -1    0    0    0    0  0.00000000000E+00  0.00000000000E+00  0.99999998245E-14  0.12509000000E+03  0.12509000000E+03 0.  0.
        -13    1    3    3    0    0 -0.91277542686E+01 -0.41767248750E+02  0.94039975645E-01  0.42753233488E+02  0.10566000000E+00 0.  1.
         23    2    1    0    0    0 -0.21418159727E+02  0.55046120744E+01  0.19785443120E+02  0.95416744708E+02  0.90685462402E+02 0.  0.
         13    1    3    3    0    0 -0.12290405458E+02  0.47271860824E+02  0.19691403145E+02  0.52663511220E+02  0.10566000000E+00 0. -1.
         22    1    1    0    0    0  0.21418159727E+02 -0.55046120744E+01 -0.19785443120E+02  0.29673255292E+02  0.00000000000E+00 0. -1.
</event>
<event>
 5    1  0.1254496E-009  0.9118800E+02  0.7815553E-02  0.1125453E+00
         25   -1    0    0    0    0  0.00000000000E+00  0.00000000000E+00  0.99999998245E-14  0.12509000000E+03  0.12509000000E+03 0.  0.
        -13    1    3    3    0    0 -0.17439939308E+02  0.85460019576E+01 -0.26648232988E+02  0.32974613234E+02  0.10566000000E+00 0.  1.
         23    2    1    0    0    0  0.18673659390E+02 -0.12952438261E+02  0.19321180729E+02  0.95260832450E+02  0.90470144039E+02 0.  0.
         13    1    3    3    0    0  0.36113598698E+02 -0.21498440218E+02  0.45969413717E+02  0.62286219217E+02  0.10566000000E+00 0. -1.
         22    1    1    0    0    0 -0.18673659390E+02  0.12952438261E+02 -0.19321180729E+02  0.29829167550E+02  0.00000000000E+00 0. -1.
</event>
<event>
 5    1  0.1254496E-009  0.9118800E+02  0.7815553E-02  0.1125453E+00
         25   -1    0    0    0    0  0.00000000000E+00  0.00000000000E+00  0.99999998245E-14  0.12509000000E+03  0.12509000000E+03 0.  0.
        -13    1    3    3    0    0 -0.39253281480E+02  0.64525162221E+01 -0.43346695141E+02  0.58833682668E+02  0.10566000000E+00 0. -1.
         23    2    1    0    0    0 -0.58702139586E+01  0.10602949818E+02 -0.25365225015E+02  0.96978141349E+02  0.92814240840E+02 0.  0.
         13    1    3    3    0    0  0.33383067521E+02  0.41504335956E+01  0.17981470127E+02  0.38144458682E+02  0.10566000000E+00 0.  1.
         22    1    1    0    0    0  0.58702139586E+01 -0.10602949818E+02  0.25365225015E+02  0.28111858651E+02  0.00000000000E+00 0. -1.
</event>
<event>
 5    1  0.1254496E-009  0.9118800E+02  0.7815553E-02  0.1125453E+00
         25   -1    0    0    0    0  0.00000000000E+00  0.00000000000E+00  0.99999998245E-14  0.12509000000E+03  0.12509000000E+03 0.  0.
        -13    1    3    3    0    0 -0.77600974145E+01 -0.25619489654E+02 -0.26574744780E+02  0.37720095257E+02  0.10566000000E+00 0.  1.
         23    2    1    0    0    0  0.18362665119E+02  0.22115452707E+02 -0.74909689979E+01  0.95384860120E+02  0.90641470668E+02 0.  0.
         13    1    3    3    0    0  0.26122762534E+02  0.47734942361E+02  0.19083775782E+02  0.57664764864E+02  0.10566000000E+00 0. -1.
         22    1    1    0    0    0 -0.18362665119E+02 -0.22115452707E+02  0.74909689979E+01  0.29705139880E+02  0.00000000000E+00 0. -1.
</event>
<event>
 5    1  0.1254496E-009  0.9118800E+02  0.7815553E-02  0.1125453E+00
         25   -1    0    0    0    0  0.00000000000E+00  0.00000000000E+00  0.99999998245E-14  0.12509000000E+03  0.12509000000E+03 0.  0.
        -13    1    3    3    0    0  0.35377457881E+02  0.28936042599E+02 -0.89185369209E+01  0.46566195381E+02  0.10566000000E+00 0.  1.
         23    2    1    0    0    0 -0.77437851752E-01  0.34197344971E+00 -0.28816453688E+02  0.96271413192E+02  0.91856812770E+02 0.  0.
         13    1    3    3    0    0 -0.35454895733E+02 -0.28594069149E+02 -0.19897916767E+02  0.49705217811E+02  0.10566000000E+00 0. -1.
         22    1    1    0    0    0  0.77437851752E-01 -0.34197344971E+00  0.28816453688E+02  0.28818586808E+02  0.00000000000E+00 0. -1.
</event>
<event>
 5    1  0.1254496E-009  0.9118800E+02  0.7815553E-02  0.1125453E+00
         25   -1    0    0    0    0  0.00000000000E+00  0.00000000000E+00  0.99999998245E-14  0.12509000000E+03  0.12509000000E+03 0.  0.
        -13    1    3    3    0    0 -0.28934066174E+02 -0.32672957063E+02 -0.19062679872E+02  0.47624565473E+02  0.10566000000E+00 0. -1.
         23    2    1    0    0    0 -0.26259909937E+02  0.12942432898E+02 -0.95270061628E+01  0.94302773986E+02  0.89135626412E+02 0.  0.
         13    1    3    3    0    0  0.26741562367E+01  0.45615389961E+02  0.95356737090E+01  0.46678208513E+02  0.10566000000E+00 0.  1.
         22    1    1    0    0    0  0.26259909937E+02 -0.12942432898E+02  0.95270061628E+01  0.30787226014E+02  0.00000000000E+00 0.  1.
</event>
<event>
 5    1  0.1254496E-009  0.9118800E+02  0.7815553E-02  0.1125453E+00
         25   -1    0    0    0    0  0.00000000000E+00  0.00000000000E+00  0.99999998245E-14  0.12509000000E+03  0.12509000000E+03 0.  0.
        -13    1    3    3    0    0 -0.21400421102E+01 -0.40407254771E+02  0.38681247131E+02  0.55978353513E+02  0.10566000000E+00 0. -1.
         23    2    1    0    0    0  0.86119837388E+01 -0.47094043661E+01  0.28966910800E+02  0.94505254216E+02  0.89419329005E+02 0.  0.
         13    1    3    3    0    0  0.10752025849E+02  0.35697850405E+02 -0.97143363316E+01  0.38526900703E+02  0.10566000000E+00 0.  1.
         22    1    1    0    0    0 -0.86119837388E+01  0.47094043661E+01 -0.28966910800E+02  0.30584745784E+02  0.00000000000E+00 0. -1.
</event>
<event>
 5    1  0.1254496E-009  0.9118800E+02  0.7815553E-02  0.1125453E+00
         25   -1    0    0    0    0  0.00000000000E+00  0.00000000000E+00  0.99999998245E-14  0.12509000000E+03  0.12509000000E+03 0.  0.
        -13    1    3    3    0    0 -0.20537916030E+01 -0.89605638212E+01 -0.35874376581E+02  0.37033657976E+02  0.10566000000E+00 0. -1.
         23    2    1    0    0    0  0.23181528076E+02  0.14375548298E+02  0.11436786448E+02  0.95512310485E+02  0.90817188555E+02 0.  0.
         13    1    3    3    0    0  0.25235319679E+02  0.23336112119E+02  0.47311163029E+02  0.58478652509E+02  0.10566000000E+00 0.  1.
         22    1    1    0    0    0 -0.23181528076E+02 -0.14375548298E+02 -0.11436786448E+02  0.29577689515E+02  0.00000000000E+00 0.  1.
</event>
<event>
 5    1  0.1254496E-009  0.9118800E+02  0.7815553E-02  0.1125453E+00
         25   -1    0    0    0    0  0.00000000000E+00  0.00000000000E+00  0.99999998245E-14  0.12509000000E+03  0.12509000000E+03 0.  0.
        -13    1    3    3    0    0  0.15521745823E+02  0.56196639334E+02 -0.20578052815E+02  0.61826000093E+02  0.10566000000E+00 0.  1.
         23    2    1    0    0    0  0.13887763931E+02  0.25213303156E+02 -0.92686353686E+01  0.94849493314E+02  0.89899600317E+02 0.  0.
         13    1    3    3    0    0 -0.16339818923E+01 -0.30983336177E+02  0.11309417446E+02  0.33023493221E+02  0.10566000000E+00 0. -1.
         22    1    1    0    0    0 -0.13887763931E+02 -0.25213303156E+02  0.92686353686E+01  0.30240506686E+02  0.00000000000E+00 0.  1.
</event>
<event>
 5    1  0.1254496E-009  0.9118800E+02  0.7815553E-02  0.1125453E+00
         25   -1    0    0    0    0  0.00000000000E+00  0.00000000000E+00  0.99999998245E-14  0.12509000000E+03  0.12509000000E+03 0.  0.
        -13    1    3    3    0    0 -0.98367392877E+01 -0.47829499990E+02  0.25040968217E+02  0.54876987548E+02  0.10566000000E+00 0.  1.
         23    2    1    0    0    0  0.16783102423E+02 -0.24681130669E+02  0.73021058493E+01  0.94362951852E+02  0.89220038077E+02 0.  0.
         13    1    3    3    0    0  0.26619841710E+02  0.23148369321E+02 -0.17738862368E+02  0.39485964304E+02  0.10566000000E+00 0. -1.
         22    1    1    0    0    0 -0.16783102423E+02  0.24681130669E+02 -0.73021058493E+01  0.30727048148E+02  0.00000000000E+00 0.  1.
</event>
<event>
 5    1  0.1254496E-009  0.9118800E+02  0.7815553E-02  0.1125453E+00
         25   -1    0    0    0    0  0.00000000000E+00  0.00000000000E+00  0.99999998245E-14  0.12509000000E+03  0.12509000000E+03 0.  0.
        -13    1    3    3    0    0  0.31977905024E+02 -0.13478444195E+02  0.49488626861E+02  0.60443281018E+02  0.10566000000E+00 0. -1.
         23    2    1    0    0    0  0.47779931680E+01 -0.49223877377E+01  0.28306305748E+02  0.95964305762E+02  0.91437639490E+02 0.  0.
         13    1    3    3    0    0 -0.27199911856E+02  0.85560564572E+01 -0.21182321113E+02  0.35521024744E+02  0.10566000000E+00 0.  1.
         22    1    1    0    0    0 -0.47779931680E+01  0.49223877377E+01 -0.28306305748E+02  0.29125694238E+02  0.00000000000E+00 0. -1.
</event>
<event>
 5    1  0.1254496E-009  0.9118800E+02  0.7815553E-02  0.1125453E+00
         25   -1    0    0    0    0  0.00000000000E+00  0.00000000000E+00  0.99999998245E-14  0.12509000000E+03  0.12509000000E+03 0.  0.
        -13    1    3    3    0    0 -0.43022710047E+02 -0.15444325846E+02 -0.13923371460E+02  0.47784434887E+02  0.10566000000E+00 0. -1.
         23    2    1    0    0    0  0.48864759474E+00 -0.15811628205E+02 -0.27498577397E+02  0.93365906289E+02  0.87811014886E+02 0.  0.
         13    1    3    3    0    0  0.43511357642E+02 -0.36730235828E+00 -0.13575205936E+02  0.45581471401E+02  0.10566000000E+00 0.  1.
         22    1    1    0    0    0 -0.48864759474E+00  0.15811628205E+02  0.27498577397E+02  0.31724093711E+02  0.00000000000E+00 0.  1.
</event>
<event>
 5    1  0.1254496E-009  0.9118800E+02  0.7815553E-02  0.1125453E+00
         25   -1    0    0    0    0  0.00000000000E+00  0.00000000000E+00  0.99999998245E-14  0.12509000000E+03  0.12509000000E+03 0.  0.
        -13    1    3    3    0    0  0.22016664361E+02  0.44303972200E+01 -0.27172258823E+02  0.35252017569E+02  0.10566000000E+00 0. -1.
         23    2    1    0    0    0 -0.22753821172E+02 -0.21384599048E+02  0.47143597215E+00  0.93860851657E+02  0.88513274527E+02 0.  0.
         13    1    3    3    0    0 -0.44770485533E+02 -0.25814996268E+02  0.27643694795E+02  0.58608834088E+02  0.10566000000E+00 0.  1.
         22    1    1    0    0    0  0.22753821172E+02  0.21384599048E+02 -0.47143597215E+00  0.31229148343E+02  0.00000000000E+00 0.  1.
</event>
<event>
 5    1  0.1254496E-009  0.9118800E+02  0.7815553E-02  0.1125453E+00
         25   -1    0    0    0    0  0.00000000000E+00  0.00000000000E+00  0.99999998245E-14  0.12509000000E+03  0.12509000000E+03 0.  0.
        -13    1    3    3    0    0 -0.36933515239E+02  0.99368166598E+01  0.17995091433E+02  0.42268893443E+02  0.10566000000E+00 0.  1.
         23    2    1    0    0    0 -0.38841731420E+01 -0.21230628621E+02 -0.15336325261E+02  0.98613042751E+02  0.94992120386E+02 0.  0.
         13    1    3    3    0    0  0.33049342097E+02 -0.31167445281E+02 -0.33331416694E+02  0.56344149308E+02  0.10566000000E+00 0. -1.
         22    1    1    0    0    0  0.38841731420E+01  0.21230628621E+02  0.15336325261E+02  0.26476957249E+02  0.00000000000E+00 0. -1.
</event>
<event>
 5    1  0.1254496E-009  0.9118800E+02  0.7815553E-02  0.1125453E+00
         25   -1    0    0    0    0  0.00000000000E+00  0.00000000000E+00  0.99999998245E-14  0.12509000000E+03  0.12509000000E+03 0.  0.
        -13    1    3    3    0    0  0.54991130876E+02  0.18321399975E+02 -0.23277669634E+02  0.62462462645E+02  0.10566000000E+00 0.  1.
         23    2    1    0    0    0  0.22470691021E+02  0.96315927134E+01 -0.87800104366E+01  0.99113315908E+02  0.95648634459E+02 0.  0.
         13    1    3    3    0    0 -0.32520439855E+02 -0.86898072618E+01  0.14497659198E+02  0.36650853263E+02  0.10566000000E+00 0. -1.
         22    1    1    0    0    0 -0.22470691021E+02 -0.96315927134E+01  0.87800104366E+01  0.25976684092E+02  0.00000000000E+00 0.  1.
</event>
<event>
 5    1  0.1254496E-009  0.9118800E+02  0.7815553E-02  0.1125453E+00
         25   -1    0    0    0    0  0.00000000000E+00  0.00000000000E+00  0.99999998245E-14  0.12509000000E+03  0.12509000000E+03 0.  0.
        -13    1    3    3    0    0  0.76241628874E+01  0.38903983034E+02  0.30921322155E+02  0.50277102974E+02  0.10566000000E+00 0.  1.
         23    2    1    0    0    0 -0.13952505312E+02  0.33133280571E+01  0.29921457920E+02  0.91909520929E+02  0.85711235238E+02 0.  0.
         13    1    3    3    0    0 -0.21576668199E+02 -0.35590654977E+02 -0.99986423507E+00  0.41632417955E+02  0.10566000000E+00 0. -1.
         22    1    1    0    0    0  0.13952505312E+02 -0.33133280571E+01 -0.29921457920E+02  0.33180479071E+02  0.00000000000E+00 0.  1.
</event>
<event>
 5    1  0.1254496E-009  0.9118800E+02  0.7815553E-02  0.1125453E+00
         25   -1    0    0    0    0  0.00000000000E+00  0.00000000000E+00  0.99999998245E-14  0.12509000000E+03  0.12509000000E+03 0.  0.
        -13    1    3    3    0    0  0.20229668374E+01  0.47313371555E+02 -0.39709448442E+02  0.61802095291E+02  0.10566000000E+00 0.  1.
         23    2    1    0    0    0  0.29918280614E+01  0.20069638234E+02 -0.25366424906E+02  0.92606205170E+02  0.86722040506E+02 0.  0.
         13    1    3    3    0    0  0.96886122406E+00 -0.27243733321E+02  0.14343023535E+02  0.30804109880E+02  0.10566000000E+00 0. -1.
         22    1    1    0    0    0 -0.29918280614E+01 -0.20069638234E+02  0.25366424906E+02  0.32483794830E+02  0.00000000000E+00 0.  1.
</event>
<event>
 5    1  0.1254496E-009  0.9118800E+02  0.7815553E-02  0.1125453E+00
         25   -1    0    0    0    0  0.00000000000E+00  0.00000000000E+00  0.99999998245E-14  0.12509000000E+03  0.12509000000E+03 0.  0.
        -13    1    3    3    0    0  0.32901928579E+02 -0.70585628912E+01 -0.26305643066E+02  0.42712506781E+02  0.10566000000E+00 0. -1.
         23    2    1    0    0    0 -0.15540638809E+02 -0.22357285259E+02 -0.10367614492E+02  0.95955019495E+02  0.91424934659E+02 0.  0.
         13    1    3    3    0    0 -0.48442567389E+02 -0.15298722368E+02  0.15938028574E+02  0.53242512714E+02  0.10566000000E+00 0.  1.
         22    1    1    0    0    0  0.15540638809E+02  0.22357285259E+02  0.10367614492E+02  0.29134980505E+02  0.00000000000E+00 0. -1.
</event>
<event>
 5    1  0.1254496E-009  0.9118800E+02  0.7815553E-02  0.1125453E+00
         25   -1    0    0    0    0  0.00000000000E+00  0.00000000000E+00  0.99999998245E-14  0.12509000000E+03  0.12509000000E+03 0.  0.
        -13    1    3    3    0    0 -0.28829285112E+02  0.10988023387E+02 -0.14448293758E+02  0.34068001036E+02  0.10566000000E+00 0. -1.
         23    2    1    0    0    0  0.19921762386E+02 -0.13409308557E+02  0.15733614234E+02  0.96380545296E+02  0.92005308120E+02 0.  0.
         13    1    3    3    0    0  0.48751047498E+02 -0.24397331944E+02  0.30181907992E+02  0.62312544260E+02  0.10566000000E+00 0.  1.
         22    1    1    0    0    0 -0.19921762386E+02  0.13409308557E+02 -0.15733614234E+02  0.28709454704E+02  0.00000000000E+00 0.  1.
</event>
<event>
 5    1  0.1254496E-009  0.9118800E+02  0.7815553E-02  0.1125453E+00
         25   -1    0    0    0    0  0.00000000000E+00  0.00000000000E+00  0.99999998245E-14  0.12509000000E+03  0.12509000000E+03 0.  0.
        -13    1    3    3    0    0 -0.30049607216E+02  0.14267197909E+02  0.18189171342E+02  0.37912912683E+02  0.10566000000E+00 0.  1.
         23    2    1    0    0    0  0.46814423355E+00 -0.11838191353E+02 -0.25327253833E+02  0.97128746090E+02  0.93016996279E+02 0.  0.
         13    1    3    3    0    0  0.30517751449E+02 -0.26105389261E+02 -0.43516425175E+02  0.59215833406E+02  0.10566000000E+00 0. -1.
         22    1    1    0    0    0 -0.46814423355E+00  0.11838191353E+02  0.25327253833E+02  0.27961253910E+02  0.00000000000E+00 0. -1.
</event>
<event>
 5    1  0.1254496E-009  0.9118800E+02  0.7815553E-02  0.1125453E+00
         25   -1    0    0    0    0  0.00000000000E+00  0.00000000000E+00  0.99999998245E-14  0.12509000000E+03  0.12509000000E+03 0.  0.
        -13    1    3    3    0    0 -0.57902690079E+01 -0.39197693335E+01  0.35072333761E+02  0.35762711954E+02  0.10566000000E+00 0. -1.
         23    2    1    0    0    0  0.23635362330E+02  0.31371635494E+01 -0.16874166166E+02  0.95880247666E+02  0.91322572571E+02 0.  0.
         13    1    3    3    0    0  0.29425631338E+02  0.70569328829E+01 -0.51946499927E+02  0.60117535712E+02  0.10566000000E+00 0.  1.
         22    1    1    0    0    0 -0.23635362330E+02 -0.31371635494E+01  0.16874166166E+02  0.29209752334E+02  0.00000000000E+00 0.  1.
</event>
<event>
 5    1  0.1254496E-009  0.9118800E+02  0.7815553E-02  0.1125453E+00
         25   -1    0    0    0    0  0.00000000000E+00  0.00000000000E+00  0.99999998245E-14  0.12509000000E+03  0.12509000000E+03 0.  0.
        -13    1    3    3    0    0 -0.28648053253E+02 -0.29687491428E+02 -0.95791935811E+01  0.42353632857E+02  0.10566000000E+00 0.  1.
         23    2    1    0    0    0 -0.67664677787E+01 -0.58686946708E+01  0.30180899232E+02  0.93608047363E+02  0.88155278851E+02 0.  0.
         13    1    3    3    0    0  0.21881585474E+02  0.23818796757E+02  0.39760092814E+02  0.51254414507E+02  0.10566000000E+00 0. -1.
         22    1    1    0    0    0  0.67664677787E+01  0.58686946708E+01 -0.30180899232E+02  0.31481952637E+02  0.00000000000E+00 0. -1.
</event>
<event>
 5    1  0.1254496E-009  0.9118800E+02  0.7815553E-02  0.1125453E+00
         25   -1    0    0    0    0  0.00000000000E+00  0.00000000000E+00  0.99999998245E-14  0.12509000000E+03  0.12509000000E+03 0.  0.
        -13    1    3    3    0    0  0.16281007907E+02  0.18426224487E+02 -0.32376080110E+02  0.40654872950E+02  0.10566000000E+00 0. -1.
         23    2    1    0    0    0 -0.28565095087E+02 -0.20076743482E+01 -0.10261803407E+02  0.94671255404E+02  0.89651249724E+02 0.  0.
         13    1    3    3    0    0 -0.44846102994E+02 -0.20433898835E+02  0.22114276702E+02  0.54016382454E+02  0.10566000000E+00 0.  1.
         22    1    1    0    0    0  0.28565095087E+02  0.20076743482E+01  0.10261803407E+02  0.30418744596E+02  0.00000000000E+00 0.  1.
</event>
<event>
 5    1  0.1254496E-009  0.9118800E+02  0.7815553E-02  0.1125453E+00
         25   -1    0    0    0    0  0.00000000000E+00  0.00000000000E+00  0.99999998245E-14  0.12509000000E+03  0.12509000000E+03 0.  0.
        -13    1    3    3    0    0 -0.27112035842E+02  0.22458607143E+02  0.36485067189E+01  0.35394551666E+02  0.10566000000E+00 0.  1.
         23    2    1    0    0    0  0.74184652080E+01 -0.26515199916E+02  0.10315622340E+02  0.95687593349E+02  0.91058300028E+02 0.  0.
         13    1    3    3    0    0  0.34530501050E+02 -0.48973807059E+02  0.66671156207E+01  0.60293041683E+02  0.10566000000E+00 0. -1.
         22    1    1    0    0    0 -0.74184652080E+01  0.26515199916E+02 -0.10315622340E+02  0.29402406651E+02  0.00000000000E+00 0. -1.
</event>
<event>
 5    1  0.1254496E-009  0.9118800E+02  0.7815553E-02  0.1125453E+00
         25   -1    0    0    0    0  0.00000000000E+00  0.00000000000E+00  0.99999998245E-14  0.12509000000E+03  0.12509000000E+03 0.  0.
        -13    1    3    3    0    0 -0.34140987562E+02  0.35498755562E+02 -0.24019414403E+02  0.54797008226E+02  0.10566000000E+00 0. -1.
         23    2    1    0    0    0 -0.82577654197E+01  0.27014058701E+02  0.69083574743E+01  0.96009500345E+02  0.91499446426E+02 0.  0.
         13    1    3    3    0    0  0.25883222142E+02 -0.84846968612E+01  0.30927771878E+02  0.41212492119E+02  0.10566000000E+00 0.  1.
         22    1    1    0    0    0  0.82577654197E+01 -0.27014058701E+02 -0.69083574743E+01  0.29080499655E+02  0.00000000000E+00 0.  1.
</event>
<event>
 5    1  0.1254496E-009  0.9118800E+02  0.7815553E-02  0.1125453E+00
         25   -1    0    0    0    0  0.00000000000E+00  0.00000000000E+00  0.99999998245E-14  0.12509000000E+03  0.12509000000E+03 0.  0.
        -13    1    3    3    0    0 -0.14828069477E+02 -0.23295345098E+02  0.22521658638E+02  0.35633986859E+02  0.10566000000E+00 0. -1.
         23    2    1    0    0    0 -0.13549283805E+01  0.30789474791E+02  0.71600386285E+01  0.93449934545E+02  0.87930634732E+02 0.  0.
         13    1    3    3    0    0  0.13473141097E+02  0.54084819889E+02 -0.15361620010E+02  0.57815947686E+02  0.10566000000E+00 0.  1.
         22    1    1    0    0    0  0.13549283805E+01 -0.30789474791E+02 -0.71600386285E+01  0.31640065455E+02  0.00000000000E+00 0.  1.
</event>
<event>
 5    1  0.1254496E-009  0.9118800E+02  0.7815553E-02  0.1125453E+00
         25   -1    0    0    0    0  0.00000000000E+00  0.00000000000E+00  0.99999998245E-14  0.12509000000E+03  0.12509000000E+03 0.  0.
        -13    1    3    3    0    0  0.31349910149E+02 -0.46735591722E+02 -0.23410527972E+02  0.60951590495E+02  0.10566000000E+00 0. -1.
         23    2    1    0    0    0  0.21150477059E+02 -0.19159053931E+02 -0.37850601905E+01  0.96302177783E+02  0.91898698238E+02 0.  0.
         13    1    3    3    0    0 -0.10199433090E+02  0.27576537791E+02  0.19625467782E+02  0.35350587288E+02  0.10566000000E+00 0.  1.
         22    1    1    0    0    0 -0.21150477059E+02  0.19159053931E+02  0.37850601905E+01  0.28787822217E+02  0.00000000000E+00 0. -1.
</event>
<event>
 5    1  0.1254496E-009  0.9118800E+02  0.7815553E-02  0.1125453E+00
         25   -1    0    0    0    0  0.00000000000E+00  0.00000000000E+00  0.99999998245E-14  0.12509000000E+03  0.12509000000E+03 0.  0.
        -13    1    3    3    0    0 -0.23744569135E+02  0.48233205792E+02 -0.40364201177E+01  0.53912434148E+02  0.10566000000E+00 0. -1.
         23    2    1    0    0    0  0.81479769832E+01  0.34247676474E+02  0.40229714074E+01  0.89657286701E+02  0.82358678273E+02 0.  0.
         13    1    3    3    0    0  0.31892546119E+02 -0.13985529318E+02  0.80593915250E+01  0.35744852553E+02  0.10566000000E+00 0.  1.
         22    1    1    0    0    0 -0.81479769832E+01 -0.34247676474E+02 -0.40229714074E+01  0.35432713299E+02  0.00000000000E+00 0. -1.
</event>
<event>
 5    1  0.1254496E-009  0.9118800E+02  0.7815553E-02  0.1125453E+00
         25   -1    0    0    0    0  0.00000000000E+00  0.00000000000E+00  0.99999998245E-14  0.12509000000E+03  0.12509000000E+03 0.  0.
        -13    1    3    3    0    0  0.17279038409E+02  0.50033832860E+02 -0.10113802547E+02  0.53891091703E+02  0.10566000000E+00 0. -1.
         23    2    1    0    0    0 -0.15377000440E+02  0.24739920329E+02 -0.53842755545E+01  0.95467268464E+02  0.90755127261E+02 0.  0.
         13    1    3    3    0    0 -0.32656038849E+02 -0.25293912531E+02  0.47295269924E+01  0.41576176761E+02  0.10566000000E+00 0.  1.
         22    1    1    0    0    0  0.15377000440E+02 -0.24739920329E+02  0.53842755545E+01  0.29622731536E+02  0.00000000000E+00 0. -1.
</event>
<event>
 5    1  0.1254496E-009  0.9118800E+02  0.7815553E-02  0.1125453E+00
         25   -1    0    0    0    0  0.00000000000E+00  0.00000000000E+00  0.99999998245E-14  0.12509000000E+03  0.12509000000E+03 0.  0.
        -13    1    3    3    0    0  0.15468847812E+01 -0.46062013505E+02  0.27250740979E+02  0.53541721942E+02  0.10566000000E+00 0.  1.
         23    2    1    0    0    0 -0.22431491548E+02 -0.19914817209E+02  0.74026164507E+01  0.94193875844E+02  0.88982671114E+02 0.  0.
         13    1    3    3    0    0 -0.23978376330E+02  0.26147196296E+02 -0.19848124528E+02  0.40652153902E+02  0.10566000000E+00 0. -1.
         22    1    1    0    0    0  0.22431491548E+02  0.19914817209E+02 -0.74026164507E+01  0.30896124156E+02  0.00000000000E+00 0.  1.
</event>
<event>
 5    1  0.1254496E-009  0.9118800E+02  0.7815553E-02  0.1125453E+00
         25   -1    0    0    0    0  0.00000000000E+00  0.00000000000E+00  0.99999998245E-14  0.12509000000E+03  0.12509000000E+03 0.  0.
        -13    1    3    3    0    0 -0.52697193393E+02 -0.53970849132E+01  0.62703365591E+01  0.53342768972E+02  0.10566000000E+00 0. -1.
         23    2    1    0    0    0 -0.19955312958E+02  0.12552519695E+02 -0.15793432865E+02  0.96713728441E+02  0.92457192696E+02 0.  0.
         13    1    3    3    0    0  0.32741880435E+02  0.17949604608E+02 -0.22063769424E+02  0.43370959468E+02  0.10566000000E+00 0.  1.
         22    1    1    0    0    0  0.19955312958E+02 -0.12552519695E+02  0.15793432865E+02  0.28376271559E+02  0.00000000000E+00 0.  1.
</event>
<event>
 5    1  0.1254496E-009  0.9118800E+02  0.7815553E-02  0.1125453E+00
         25   -1    0    0    0    0  0.00000000000E+00  0.00000000000E+00  0.99999998245E-14  0.12509000000E+03  0.12509000000E+03 0.  0.
        -13    1    3    3    0    0 -0.23041926246E+02  0.34125491816E+02 -0.13443572516E+02  0.43315359433E+02  0.10566000000E+00 0.  1.
         23    2    1    0    0    0 -0.19802352979E+02 -0.18816988647E+02 -0.79448280820E+01  0.96641229579E+02  0.92359053244E+02 0.  0.
         13    1    3    3    0    0  0.32395732671E+01 -0.52942480462E+02  0.54987444337E+01  0.53325870146E+02  0.10566000000E+00 0. -1.
         22    1    1    0    0    0  0.19802352979E+02  0.18816988647E+02  0.79448280820E+01  0.28448770421E+02  0.00000000000E+00 0.  1.
</event>
<event>
 5    1  0.1254496E-009  0.9118800E+02  0.7815553E-02  0.1125453E+00
         25   -1    0    0    0    0  0.00000000000E+00  0.00000000000E+00  0.99999998245E-14  0.12509000000E+03  0.12509000000E+03 0.  0.
        -13    1    3    3    0    0  0.86132472818E+00  0.33495285824E+02 -0.52239972083E+02  0.62062081016E+02  0.10566000000E+00 0.  1.
         23    2    1    0    0    0  0.26281727054E+01  0.12454092846E+02 -0.28754823796E+02  0.93643988935E+02  0.88206264243E+02 0.  0.
         13    1    3    3    0    0  0.17668479773E+01 -0.21041192978E+02  0.23485148287E+02  0.31581907919E+02  0.10566000000E+00 0. -1.
         22    1    1    0    0    0 -0.26281727054E+01 -0.12454092846E+02  0.28754823796E+02  0.31446011065E+02  0.00000000000E+00 0.  1.
</event>
<event>
 5    1  0.1254496E-009  0.9118800E+02  0.7815553E-02  0.1125453E+00
         25   -1    0    0    0    0  0.00000000000E+00  0.00000000000E+00  0.99999998245E-14  0.12509000000E+03  0.12509000000E+03 0.  0.
        -13    1    3    3    0    0 -0.37738892567E+02  0.45742855396E+00  0.46157548775E+01  0.38023014218E+02  0.10566000000E+00 0. -1.
         23    2    1    0    0    0  0.14040270235E+02 -0.20271397118E+02 -0.13891153231E+02  0.96787652616E+02  0.92557154404E+02 0.  0.
         13    1    3    3    0    0  0.51779162803E+02 -0.20728825672E+02 -0.18506908108E+02  0.58764638398E+02  0.10566000000E+00 0.  1.
         22    1    1    0    0    0 -0.14040270235E+02  0.20271397118E+02  0.13891153231E+02  0.28302347384E+02  0.00000000000E+00 0.  1.
</event>
<event>
 5    1  0.1254496E-009  0.9118800E+02  0.7815553E-02  0.1125453E+00
         25   -1    0    0    0    0  0.00000000000E+00  0.00000000000E+00  0.99999998245E-14  0.12509000000E+03  0.12509000000E+03 0.  0.
        -13    1    3    3    0    0  0.31731583249E+02  0.62152571060E+01  0.22725956359E+02  0.39522184312E+02  0.10566000000E+00 0.  1.
         23    2    1    0    0    0 -0.23895056240E+02  0.56357595839E+01  0.16523688531E+02  0.95496626055E+02  0.90795582527E+02 0.  0.
         13    1    3    3    0    0 -0.55626639488E+02 -0.57949752203E+00 -0.62022678278E+01  0.55974441743E+02  0.10566000000E+00 0. -1.
         22    1    1    0    0    0  0.23895056240E+02 -0.56357595839E+01 -0.16523688531E+02  0.29593373945E+02  0.00000000000E+00 0. -1.
</event>
<event>
 5    1  0.1254496E-009  0.9118800E+02  0.7815553E-02  0.1125453E+00
         25   -1    0    0    0    0  0.00000000000E+00  0.00000000000E+00  0.99999998245E-14  0.12509000000E+03  0.12509000000E+03 0.  0.
        -13    1    3    3    0    0  0.46249731483E+02  0.19025341877E+00 -0.37563179203E+02  0.59582526419E+02  0.10566000000E+00 0. -1.
         23    2    1    0    0    0  0.34534747339E+02  0.12439835784E+02 -0.26306904651E+02  0.79929713017E+02  0.65949279773E+02 0.  0.
         13    1    3    3    0    0 -0.11714984144E+02  0.12249582365E+02  0.11256274552E+02  0.20347186598E+02  0.10566000000E+00 0.  1.
         22    1    1    0    0    0 -0.34534747339E+02 -0.12439835784E+02  0.26306904651E+02  0.45160286983E+02  0.00000000000E+00 0. -1.
</event>
<event>
 5    1  0.1254496E-009  0.9118800E+02  0.7815553E-02  0.1125453E+00
         25   -1    0    0    0    0  0.00000000000E+00  0.00000000000E+00  0.99999998245E-14  0.12509000000E+03  0.12509000000E+03 0.  0.
        -13    1    3    3    0    0  0.52573186417E+02  0.28928126106E+02 -0.24110831808E+00  0.60007047147E+02  0.10566000000E+00 0.  1.
         23    2    1    0    0    0  0.18229065453E+02  0.22804352082E+02  0.55554834862E+01  0.95371307264E+02  0.90622765083E+02 0.  0.
         13    1    3    3    0    0 -0.34344120964E+02 -0.61237740238E+01  0.57965918042E+01  0.35364260118E+02  0.10566000000E+00 0. -1.
         22    1    1    0    0    0 -0.18229065453E+02 -0.22804352082E+02 -0.55554834862E+01  0.29718692736E+02  0.00000000000E+00 0.  1.
</event>
<event>
 5    1  0.1254496E-009  0.9118800E+02  0.7815553E-02  0.1125453E+00
         25   -1    0    0    0    0  0.00000000000E+00  0.00000000000E+00  0.99999998245E-14  0.12509000000E+03  0.12509000000E+03 0.  0.
        -13    1    3    3    0    0  0.59236772493E+02  0.42139240412E+00 -0.15250601399E+02  0.61169966438E+02  0.10566000000E+00 0.  1.
         23    2    1    0    0    0  0.28839192115E+02 -0.18137209987E+01  0.18778901808E+01  0.96132875536E+02  0.91667958969E+02 0.  0.
         13    1    3    3    0    0 -0.30397580378E+02 -0.22351134029E+01  0.17128491580E+02  0.34962909098E+02  0.10566000000E+00 0. -1.
         22    1    1    0    0    0 -0.28839192115E+02  0.18137209987E+01 -0.18778901808E+01  0.28957124464E+02  0.00000000000E+00 0.  1.
</event>
<event>
 5    1  0.1254496E-009  0.9118800E+02  0.7815553E-02  0.1125453E+00
         25   -1    0    0    0    0  0.00000000000E+00  0.00000000000E+00  0.99999998245E-14  0.12509000000E+03  0.12509000000E+03 0.  0.
        -13    1    3    3    0    0 -0.67886645518E+01 -0.36076607586E+02 -0.18769926940E+01  0.36757881426E+02  0.10566000000E+00 0.  1.
         23    2    1    0    0    0  0.38812240231E+01  0.24549186976E+02 -0.88456391359E+01  0.98708722305E+02  0.95118032183E+02 0.  0.
         13    1    3    3    0    0  0.10669888575E+02  0.60625794562E+02 -0.69686464419E+01  0.61950840880E+02  0.10566000000E+00 0. -1.
         22    1    1    0    0    0 -0.38812240231E+01 -0.24549186976E+02  0.88456391359E+01  0.26381277695E+02  0.00000000000E+00 0. -1.
</event>
<event>
 5    1  0.1254496E-009  0.9118800E+02  0.7815553E-02  0.1125453E+00
         25   -1    0    0    0    0  0.00000000000E+00  0.00000000000E+00  0.99999998245E-14  0.12509000000E+03  0.12509000000E+03 0.  0.
        -13    1    3    3    0    0 -0.35343050326E+02  0.33216255832E+02 -0.33274472928E+02  0.58818811366E+02  0.10566000000E+00 0. -1.
         23    2    1    0    0    0 -0.75473891835E+01  0.26779126726E+02 -0.22468323511E+02  0.89328144999E+02  0.81857236795E+02 0.  0.
         13    1    3    3    0    0  0.27795661143E+02 -0.64371291051E+01  0.10806149416E+02  0.30509333633E+02  0.10566000000E+00 0.  1.
         22    1    1    0    0    0  0.75473891835E+01 -0.26779126726E+02  0.22468323511E+02  0.35761855001E+02  0.00000000000E+00 0. -1.
</event>
<event>
 5    1  0.1254496E-009  0.9118800E+02  0.7815553E-02  0.1125453E+00
         25   -1    0    0    0    0  0.00000000000E+00  0.00000000000E+00  0.99999998245E-14  0.12509000000E+03  0.12509000000E+03 0.  0.
        -13    1    3    3    0    0  0.42892585731E+02  0.16150475943E+02 -0.17961122341E+01  0.45867733398E+02  0.10566000000E+00 0.  1.
         23    2    1    0    0    0  0.83706852151E+01  0.20098134671E+02  0.26581631258E+02  0.90730336024E+02  0.83972658446E+02 0.  0.
         13    1    3    3    0    0 -0.34521900516E+02  0.39476587274E+01  0.28377743492E+02  0.44862602626E+02  0.10566000000E+00 0. -1.
         22    1    1    0    0    0 -0.83706852151E+01 -0.20098134671E+02 -0.26581631258E+02  0.34359663976E+02  0.00000000000E+00 0.  1.
</event>
<event>
 5    1  0.1254496E-009  0.9118800E+02  0.7815553E-02  0.1125453E+00
         25   -1    0    0    0    0  0.00000000000E+00  0.00000000000E+00  0.99999998245E-14  0.12509000000E+03  0.12509000000E+03 0.  0.
        -13    1    3    3    0    0  0.15516732591E+01  0.12664596721E+02  0.45138547903E+02  0.46907348793E+02  0.10566000000E+00 0. -1.
         23    2    1    0    0    0  0.23892868516E+02 -0.14813425479E+02  0.16182475932E+02  0.92652687108E+02  0.86789061297E+02 0.  0.
         13    1    3    3    0    0  0.22341195257E+02 -0.27478022199E+02 -0.28956071971E+02  0.45745338315E+02  0.10566000000E+00 0.  1.
         22    1    1    0    0    0 -0.23892868516E+02  0.14813425479E+02 -0.16182475932E+02  0.32437312892E+02  0.00000000000E+00 0. -1.
</event>
<event>
 5    1  0.1254496E-009  0.9118800E+02  0.7815553E-02  0.1125453E+00
         25   -1    0    0    0    0  0.00000000000E+00  0.00000000000E+00  0.99999998245E-14  0.12509000000E+03  0.12509000000E+03 0.  0.
        -13    1    3    3    0    0  0.34245111051E+02  0.39521218562E+02  0.13851749564E+02  0.54097472007E+02  0.10566000000E+00 0.  1.
         23    2    1    0    0    0  0.22067403797E+02  0.11646186370E+02 -0.14961233095E+02  0.95996315754E+02  0.91481419837E+02 0.  0.
         13    1    3    3    0    0 -0.12177707254E+02 -0.27875032192E+02 -0.28812982658E+02  0.41898843748E+02  0.10566000000E+00 0. -1.
         22    1    1    0    0    0 -0.22067403797E+02 -0.11646186370E+02  0.14961233095E+02  0.29093684246E+02  0.00000000000E+00 0.  1.
</event>
<event>
 5    1  0.1254496E-009  0.9118800E+02  0.7815553E-02  0.1125453E+00
         25   -1    0    0    0    0  0.00000000000E+00  0.00000000000E+00  0.99999998245E-14  0.12509000000E+03  0.12509000000E+03 0.  0.
        -13    1    3    3    0    0 -0.13839242014E+02  0.24246940777E+02  0.23074845477E+02  0.36220138244E+02  0.10566000000E+00 0. -1.
         23    2    1    0    0    0 -0.14489258761E+02 -0.16649522422E+02 -0.19773664219E+02  0.95456522091E+02  0.90740314066E+02 0.  0.
         13    1    3    3    0    0 -0.65001674661E+00 -0.40896463200E+02 -0.42848509697E+02  0.59236383847E+02  0.10566000000E+00 0.  1.
         22    1    1    0    0    0  0.14489258761E+02  0.16649522422E+02  0.19773664219E+02  0.29633477909E+02  0.00000000000E+00 0.  1.
</event>
<event>
 5    1  0.1254496E-009  0.9118800E+02  0.7815553E-02  0.1125453E+00
         25   -1    0    0    0    0  0.00000000000E+00  0.00000000000E+00  0.99999998245E-14  0.12509000000E+03  0.12509000000E+03 0.  0.
        -13    1    3    3    0    0 -0.14810182490E+02 -0.36385504673E+02  0.27724688702E+02  0.48082387455E+02  0.10566000000E+00 0.  1.
         23    2    1    0    0    0 -0.23873380038E+02  0.86101320806E+01  0.14555194060E+02  0.95833781464E+02  0.91258902836E+02 0.  0.
         13    1    3    3    0    0 -0.90631975481E+01  0.44995636754E+02 -0.13169494642E+02  0.47751394009E+02  0.10566000000E+00 0. -1.
         22    1    1    0    0    0  0.23873380038E+02 -0.86101320806E+01 -0.14555194060E+02  0.29256218536E+02  0.00000000000E+00 0.  1.
</event>
<event>
 5    1  0.1254496E-009  0.9118800E+02  0.7815553E-02  0.1125453E+00
         25   -1    0    0    0    0  0.00000000000E+00  0.00000000000E+00  0.99999998245E-14  0.12509000000E+03  0.12509000000E+03 0.  0.
        -13    1    3    3    0    0  0.25621767354E+02 -0.40659444919E+01  0.28105233936E+02  0.38248166042E+02  0.10566000000E+00 0.  1.
         23    2    1    0    0    0  0.90147625655E+01  0.70592307520E+00 -0.27324212872E+02  0.96308462852E+02  0.91907252904E+02 0.  0.
         13    1    3    3    0    0 -0.16607004789E+02  0.47718675671E+01 -0.55429446808E+02  0.58060296810E+02  0.10566000000E+00 0. -1.
         22    1    1    0    0    0 -0.90147625655E+01 -0.70592307520E+00  0.27324212872E+02  0.28781537148E+02  0.00000000000E+00 0. -1.
</event>
<event>
 5    1  0.1254496E-009  0.9118800E+02  0.7815553E-02  0.1125453E+00
         25   -1    0    0    0    0  0.00000000000E+00  0.00000000000E+00  0.99999998245E-14  0.12509000000E+03  0.12509000000E+03 0.  0.
        -13    1    3    3    0    0 -0.37022156367E+02 -0.30118922803E+02  0.11458040147E+02  0.49082455327E+02  0.10566000000E+00 0.  1.
         23    2    1    0    0    0 -0.87769407772E+01 -0.19452883859E+02 -0.22198531264E+02  0.94296751225E+02  0.89127173867E+02 0.  0.
         13    1    3    3    0    0  0.28245215590E+02  0.10666038944E+02 -0.33656571411E+02  0.45214295899E+02  0.10566000000E+00 0. -1.
         22    1    1    0    0    0  0.87769407772E+01  0.19452883859E+02  0.22198531264E+02  0.30793248775E+02  0.00000000000E+00 0.  1.
</event>
<event>
 5    1  0.1254496E-009  0.9118800E+02  0.7815553E-02  0.1125453E+00
         25   -1    0    0    0    0  0.00000000000E+00  0.00000000000E+00  0.99999998245E-14  0.12509000000E+03  0.12509000000E+03 0.  0.
        -13    1    3    3    0    0 -0.49044697979E+01 -0.51326347058E+02 -0.28578047523E+02  0.58950519002E+02  0.10566000000E+00 0.  1.
         23    2    1    0    0    0 -0.16965496504E+02 -0.21647207268E+02 -0.11230694048E+02  0.95382119851E+02  0.90637688874E+02 0.  0.
         13    1    3    3    0    0 -0.12061026706E+02  0.29679139789E+02  0.17347353476E+02  0.36431600850E+02  0.10566000000E+00 0. -1.
         22    1    1    0    0    0  0.16965496504E+02  0.21647207268E+02  0.11230694048E+02  0.29707880149E+02  0.00000000000E+00 0.  1.
</event>
<event>
 5    1  0.1254496E-009  0.9118800E+02  0.7815553E-02  0.1125453E+00
         25   -1    0    0    0    0  0.00000000000E+00  0.00000000000E+00  0.99999998245E-14  0.12509000000E+03  0.12509000000E+03 0.  0.
        -13    1    3    3    0    0 -0.43083749468E+02  0.24408554705E+02  0.33755192222E+02  0.59928383734E+02  0.10566000000E+00 0. -1.
         23    2    1    0    0    0 -0.17787891288E+02  0.22536447165E+02  0.99795918360E+01  0.94694395376E+02  0.89683531014E+02 0.  0.
         13    1    3    3    0    0  0.25295858180E+02 -0.18721075397E+01 -0.23775600386E+02  0.34766011642E+02  0.10566000000E+00 0.  1.
         22    1    1    0    0    0  0.17787891288E+02 -0.22536447165E+02 -0.99795918360E+01  0.30395604624E+02  0.00000000000E+00 0. -1.
</event>
<event>
 5    1  0.1254496E-009  0.9118800E+02  0.7815553E-02  0.1125453E+00
         25   -1    0    0    0    0  0.00000000000E+00  0.00000000000E+00  0.99999998245E-14  0.12509000000E+03  0.12509000000E+03 0.  0.
        -13    1    3    3    0    0 -0.25286311483E+02 -0.37944416161E+02 -0.12710963462E+02  0.47336624535E+02  0.10566000000E+00 0.  1.
         23    2    1    0    0    0 -0.11168118572E+02 -0.22193432808E+01  0.22771582495E+02  0.99630280316E+02  0.96322351661E+02 0.  0.
         13    1    3    3    0    0  0.14118192911E+02  0.35725072880E+02  0.35482545957E+02  0.52293655781E+02  0.10566000000E+00 0. -1.
         22    1    1    0    0    0  0.11168118572E+02  0.22193432808E+01 -0.22771582495E+02  0.25459719684E+02  0.00000000000E+00 0. -1.
</event>
<event>
 5    1  0.1254496E-009  0.9118800E+02  0.7815553E-02  0.1125453E+00
         25   -1    0    0    0    0  0.00000000000E+00  0.00000000000E+00  0.99999998245E-14  0.12509000000E+03  0.12509000000E+03 0.  0.
        -13    1    3    3    0    0 -0.34304383014E+01  0.87237082987E+01 -0.59178280201E+02  0.59916199854E+02  0.10566000000E+00 0.  1.
         23    2    1    0    0    0  0.11177188044E+02  0.36734067596E+01 -0.28119196974E+02  0.94608650157E+02  0.89563854296E+02 0.  0.
         13    1    3    3    0    0  0.14607626346E+02 -0.50503015391E+01  0.31059083227E+02  0.34692450303E+02  0.10566000000E+00 0. -1.
         22    1    1    0    0    0 -0.11177188044E+02 -0.36734067596E+01  0.28119196974E+02  0.30481349843E+02  0.00000000000E+00 0.  1.
</event>
<event>
 5    1  0.1254496E-009  0.9118800E+02  0.7815553E-02  0.1125453E+00
         25   -1    0    0    0    0  0.00000000000E+00  0.00000000000E+00  0.99999998245E-14  0.12509000000E+03  0.12509000000E+03 0.  0.
        -13    1    3    3    0    0 -0.28423482753E+02 -0.45819603088E+01  0.16597747339E+02  0.33232290214E+02  0.10566000000E+00 0.  1.
         23    2    1    0    0    0  0.20967102622E+02  0.21359368881E+02 -0.78565791854E+01  0.94145406484E+02  0.88914507782E+02 0.  0.
         13    1    3    3    0    0  0.49390585376E+02  0.25941329190E+02 -0.24454326525E+02  0.60913116270E+02  0.10566000000E+00 0. -1.
         22    1    1    0    0    0 -0.20967102622E+02 -0.21359368881E+02  0.78565791854E+01  0.30944593516E+02  0.00000000000E+00 0. -1.
</event>
<event>
 5    1  0.1254496E-009  0.9118800E+02  0.7815553E-02  0.1125453E+00
         25   -1    0    0    0    0  0.00000000000E+00  0.00000000000E+00  0.99999998245E-14  0.12509000000E+03  0.12509000000E+03 0.  0.
        -13    1    3    3    0    0 -0.63988786065E+01 -0.37026386516E+01 -0.36764835096E+02  0.37500925909E+02  0.10566000000E+00 0. -1.
         23    2    1    0    0    0  0.19730102179E+02  0.14153863824E+02  0.13805560419E+02  0.97157898546E+02  0.93056192476E+02 0.  0.
         13    1    3    3    0    0  0.26128980786E+02  0.17856502476E+02  0.50570395515E+02  0.59656972636E+02  0.10566000000E+00 0.  1.
         22    1    1    0    0    0 -0.19730102179E+02 -0.14153863824E+02 -0.13805560419E+02  0.27932101454E+02  0.00000000000E+00 0. -1.
</event>
<event>
 5    1  0.1254496E-009  0.9118800E+02  0.7815553E-02  0.1125453E+00
         25   -1    0    0    0    0  0.00000000000E+00  0.00000000000E+00  0.99999998245E-14  0.12509000000E+03  0.12509000000E+03 0.  0.
        -13    1    3    3    0    0 -0.23852662349E+02 -0.25378916145E+02  0.13922093234E+02  0.37508328806E+02  0.10566000000E+00 0.  1.
         23    2    1    0    0    0  0.84251709721E+01 -0.30767896251E+01 -0.28452877047E+02  0.95256858152E+02  0.90464648744E+02 0.  0.
         13    1    3    3    0    0  0.32277833321E+02  0.22302126520E+02 -0.42374970281E+02  0.57748529345E+02  0.10566000000E+00 0. -1.
         22    1    1    0    0    0 -0.84251709721E+01  0.30767896251E+01  0.28452877047E+02  0.29833141848E+02  0.00000000000E+00 0. -1.
</event>
<event>
 5    1  0.1254496E-009  0.9118800E+02  0.7815553E-02  0.1125453E+00
         25   -1    0    0    0    0  0.00000000000E+00  0.00000000000E+00  0.99999998245E-14  0.12509000000E+03  0.12509000000E+03 0.  0.
        -13    1    3    3    0    0  0.48934737698E+02 -0.43600379703E+01  0.27716253794E+02  0.56407626905E+02  0.10566000000E+00 0. -1.
         23    2    1    0    0    0  0.27644849510E+02  0.13596350731E+01 -0.60738933363E+01  0.96753124869E+02  0.92510478756E+02 0.  0.
         13    1    3    3    0    0 -0.21289888188E+02  0.57196730434E+01 -0.33790147131E+02  0.40345497964E+02  0.10566000000E+00 0.  1.
         22    1    1    0    0    0 -0.27644849510E+02 -0.13596350731E+01  0.60738933363E+01  0.28336875131E+02  0.00000000000E+00 0. -1.
</event>
<event>
 5    1  0.1254496E-009  0.9118800E+02  0.7815553E-02  0.1125453E+00
         25   -1    0    0    0    0  0.00000000000E+00  0.00000000000E+00  0.99999998245E-14  0.12509000000E+03  0.12509000000E+03 0.  0.
        -13    1    3    3    0    0  0.12286487718E+02 -0.43555522828E+02 -0.99464883418E+00  0.45266343342E+02  0.10566000000E+00 0. -1.
         23    2    1    0    0    0 -0.42661315605E+01 -0.67657649867E+01  0.28659787957E+02  0.95335018903E+02  0.90572661048E+02 0.  0.
         13    1    3    3    0    0 -0.16552619279E+02  0.36789757841E+02  0.29654436791E+02  0.50068675561E+02  0.10566000000E+00 0.  1.
         22    1    1    0    0    0  0.42661315605E+01  0.67657649867E+01 -0.28659787957E+02  0.29754981097E+02  0.00000000000E+00 0. -1.
</event>
<event>
 5    1  0.1254496E-009  0.9118800E+02  0.7815553E-02  0.1125453E+00
         25   -1    0    0    0    0  0.00000000000E+00  0.00000000000E+00  0.99999998245E-14  0.12509000000E+03  0.12509000000E+03 0.  0.
        -13    1    3    3    0    0  0.45911814586E+01  0.56773741781E+01  0.34991789807E+02  0.35745601725E+02  0.10566000000E+00 0. -1.
         23    2    1    0    0    0 -0.16968125845E+02 -0.62511372267E+00 -0.22171468446E+02  0.97163631190E+02  0.93063898215E+02 0.  0.
         13    1    3    3    0    0 -0.21559307304E+02 -0.63024879008E+01 -0.57163258253E+02  0.61418029465E+02  0.10566000000E+00 0.  1.
         22    1    1    0    0    0  0.16968125845E+02  0.62511372267E+00  0.22171468446E+02  0.27926368810E+02  0.00000000000E+00 0.  1.
</event>
<event>
 5    1  0.1254496E-009  0.9118800E+02  0.7815553E-02  0.1125453E+00
         25   -1    0    0    0    0  0.00000000000E+00  0.00000000000E+00  0.99999998245E-14  0.12509000000E+03  0.12509000000E+03 0.  0.
        -13    1    3    3    0    0  0.10944920169E+02  0.22124800200E+02 -0.27535695460E+02  0.36980045293E+02  0.10566000000E+00 0.  1.
         23    2    1    0    0    0  0.47685525434E+01 -0.63280201161E+01  0.25993733486E+02  0.97915432617E+02  0.94068989747E+02 0.  0.
         13    1    3    3    0    0 -0.61763676258E+01 -0.28452820316E+02  0.53529428946E+02  0.60935387323E+02  0.10566000000E+00 0. -1.
         22    1    1    0    0    0 -0.47685525434E+01  0.63280201161E+01 -0.25993733486E+02  0.27174567383E+02  0.00000000000E+00 0. -1.
</event>
<event>
 5    1  0.1254496E-009  0.9118800E+02  0.7815553E-02  0.1125453E+00
         25   -1    0    0    0    0  0.00000000000E+00  0.00000000000E+00  0.99999998245E-14  0.12509000000E+03  0.12509000000E+03 0.  0.
        -13    1    3    3    0    0  0.49833989252E+02 -0.19035339668E+02  0.21523973743E+02  0.57524457849E+02  0.10566000000E+00 0. -1.
         23    2    1    0    0    0  0.30376773386E+02 -0.26707594965E+02  0.23119605780E+02  0.78500729116E+02  0.63180727363E+02 0.  0.
         13    1    3    3    0    0 -0.19457215867E+02 -0.76722552969E+01  0.15956320367E+01  0.20976271267E+02  0.10566000000E+00 0.  1.
         22    1    1    0    0    0 -0.30376773386E+02  0.26707594965E+02 -0.23119605780E+02  0.46589270884E+02  0.00000000000E+00 0. -1.
</event>
<event>
 5    1  0.1254496E-009  0.9118800E+02  0.7815553E-02  0.1125453E+00
         25   -1    0    0    0    0  0.00000000000E+00  0.00000000000E+00  0.99999998245E-14  0.12509000000E+03  0.12509000000E+03 0.  0.
        -13    1    3    3    0    0  0.17134192689E+02  0.26351183139E+02 -0.18098912332E+02  0.36270472888E+02  0.10566000000E+00 0. -1.
         23    2    1    0    0    0 -0.28507332611E+02 -0.69543628184E+01  0.46349376124E+00  0.95743006946E+02  0.91134391850E+02 0.  0.
         13    1    3    3    0    0 -0.45641525301E+02 -0.33305545957E+02  0.18562406093E+02  0.59472534058E+02  0.10566000000E+00 0.  1.
         22    1    1    0    0    0  0.28507332611E+02  0.69543628184E+01 -0.46349376124E+00  0.29346993054E+02  0.00000000000E+00 0.  1.
</event>
<event>
 5    1  0.1254496E-009  0.9118800E+02  0.7815553E-02  0.1125453E+00
         25   -1    0    0    0    0  0.00000000000E+00  0.00000000000E+00  0.99999998245E-14  0.12509000000E+03  0.12509000000E+03 0.  0.
        -13    1    3    3    0    0  0.13999213384E+02  0.58882405455E+02 -0.89852372320E+01  0.61187100763E+02  0.10566000000E+00 0.  1.
         23    2    1    0    0    0  0.63494407021E+00  0.28525655939E+02 -0.11219399188E+02  0.94430725402E+02  0.89315008712E+02 0.  0.
         13    1    3    3    0    0 -0.13364269314E+02 -0.30356749517E+02 -0.22341619562E+01  0.33243624640E+02  0.10566000000E+00 0. -1.
         22    1    1    0    0    0 -0.63494407021E+00 -0.28525655939E+02  0.11219399188E+02  0.30659274598E+02  0.00000000000E+00 0.  1.
</event>
<event>
 5    1  0.1254496E-009  0.9118800E+02  0.7815553E-02  0.1125453E+00
         25   -1    0    0    0    0  0.00000000000E+00  0.00000000000E+00  0.99999998245E-14  0.12509000000E+03  0.12509000000E+03 0.  0.
        -13    1    3    3    0    0 -0.28887478432E+02 -0.28270465662E+02  0.24266477074E+02  0.47144233078E+02  0.10566000000E+00 0.  1.
         23    2    1    0    0    0 -0.16980161731E+02 -0.10723841700E+02 -0.20322260839E+02  0.96518668935E+02  0.92192909131E+02 0.  0.
         13    1    3    3    0    0  0.11907316700E+02  0.17546623962E+02 -0.44588737913E+02  0.49374435857E+02  0.10566000000E+00 0. -1.
         22    1    1    0    0    0  0.16980161731E+02  0.10723841700E+02  0.20322260839E+02  0.28571331065E+02  0.00000000000E+00 0.  1.
</event>
<event>
 5    1  0.1254496E-009  0.9118800E+02  0.7815553E-02  0.1125453E+00
         25   -1    0    0    0    0  0.00000000000E+00  0.00000000000E+00  0.99999998245E-14  0.12509000000E+03  0.12509000000E+03 0.  0.
        -13    1    3    3    0    0 -0.68342927709E+00  0.35985854443E+02 -0.19839951342E+01  0.36047138531E+02  0.10566000000E+00 0.  1.
         23    2    1    0    0    0  0.51083820471E+01 -0.15560381246E+02  0.25526291634E+02  0.94761587641E+02  0.89777201426E+02 0.  0.
         13    1    3    3    0    0  0.57918113241E+01 -0.51546235689E+02  0.27510286768E+02  0.58714449109E+02  0.10566000000E+00 0. -1.
         22    1    1    0    0    0 -0.51083820471E+01  0.15560381246E+02 -0.25526291634E+02  0.30328412359E+02  0.00000000000E+00 0. -1.
</event>
<event>
 4    1  0.1254496E-009  0.9118800E+02  0.7815553E-02  0.1125453E+00
         25   -1    0    0    0    0  0.00000000000E+00  0.00000000000E+00  0.99999998245E-14  0.12509000000E+03  0.12509000000E+03 0.  0.
        -13    1    1    0    0    0 -0.57982028519E+01 -0.61410386635E+01  0.14499627310E+02  0.16780401317E+02  0.10566000000E+00 0.  1.
         13    1    1    0    0    0  0.54259082152E+02 -0.91153099387E+01  0.15129558392E+01  0.55040322225E+02  0.10566000000E+00 0. -1.
         22    1    1    0    0    0 -0.48460879300E+02  0.15256348602E+02 -0.16012583150E+02  0.53269276458E+02  0.00000000000E+00 0. -1.
</event>
<event>
 5    1  0.1254496E-009  0.9118800E+02  0.7815553E-02  0.1125453E+00
         25   -1    0    0    0    0  0.00000000000E+00  0.00000000000E+00  0.99999998245E-14  0.12509000000E+03  0.12509000000E+03 0.  0.
        -13    1    3    3    0    0  0.25435595571E+02 -0.16303726584E+02  0.16556292366E+02  0.34451458656E+02  0.10566000000E+00 0. -1.
         23    2    1    0    0    0 -0.22044865277E+02 -0.34229460413E+01 -0.19510852251E+02  0.95452759909E+02  0.90735127564E+02 0.  0.
         13    1    3    3    0    0 -0.47480460848E+02  0.12880780543E+02 -0.36067144617E+02  0.61001301253E+02  0.10566000000E+00 0.  1.
         22    1    1    0    0    0  0.22044865277E+02  0.34229460413E+01  0.19510852251E+02  0.29637240091E+02  0.00000000000E+00 0.  1.
</event>
<event>
 5    1  0.1254496E-009  0.9118800E+02  0.7815553E-02  0.1125453E+00
         25   -1    0    0    0    0  0.00000000000E+00  0.00000000000E+00  0.99999998245E-14  0.12509000000E+03  0.12509000000E+03 0.  0.
        -13    1    3    3    0    0  0.10011002757E+02  0.18002827059E+01 -0.35799519674E+02  0.37216635621E+02  0.10566000000E+00 0.  1.
         23    2    1    0    0    0 -0.22498406645E+02  0.17584276554E+02  0.93454869775E+01  0.95044647442E+02  0.90170736921E+02 0.  0.
         13    1    3    3    0    0 -0.32509409403E+02  0.15783993848E+02  0.45145006652E+02  0.57828011821E+02  0.10566000000E+00 0. -1.
         22    1    1    0    0    0  0.22498406645E+02 -0.17584276554E+02 -0.93454869775E+01  0.30045352558E+02  0.00000000000E+00 0. -1.
</event>
<event>
 5    1  0.1254496E-009  0.9118800E+02  0.7815553E-02  0.1125453E+00
         25   -1    0    0    0    0  0.00000000000E+00  0.00000000000E+00  0.99999998245E-14  0.12509000000E+03  0.12509000000E+03 0.  0.
        -13    1    3    3    0    0 -0.22172864778E+02 -0.24119435803E+02 -0.20621321789E+02  0.38712184029E+02  0.10566000000E+00 0.  1.
         23    2    1    0    0    0  0.17890812394E+01 -0.31494643012E+01  0.28013287872E+02  0.96843509342E+02  0.92632613411E+02 0.  0.
         13    1    3    3    0    0  0.23961946018E+02  0.20969971502E+02  0.48634609661E+02  0.58131325313E+02  0.10566000000E+00 0. -1.
         22    1    1    0    0    0 -0.17890812394E+01  0.31494643012E+01 -0.28013287872E+02  0.28246490658E+02  0.00000000000E+00 0. -1.
</event>
<event>
 5    1  0.1254496E-009  0.9118800E+02  0.7815553E-02  0.1125453E+00
         25   -1    0    0    0    0  0.00000000000E+00  0.00000000000E+00  0.99999998245E-14  0.12509000000E+03  0.12509000000E+03 0.  0.
        -13    1    3    3    0    0  0.40435543295E+01  0.35907695212E+02  0.44155199942E+02  0.57056163146E+02  0.10566000000E+00 0. -1.
         23    2    1    0    0    0 -0.15194092224E+02  0.87220014247E+01  0.21595312955E+02  0.97281884477E+02  0.93222710529E+02 0.  0.
         13    1    3    3    0    0 -0.19237646554E+02 -0.27185693787E+02 -0.22559886987E+02  0.40225721330E+02  0.10566000000E+00 0.  1.
         22    1    1    0    0    0  0.15194092224E+02 -0.87220014247E+01 -0.21595312955E+02  0.27808115523E+02  0.00000000000E+00 0. -1.
</event>
<event>
 5    1  0.1254496E-009  0.9118800E+02  0.7815553E-02  0.1125453E+00
         25   -1    0    0    0    0  0.00000000000E+00  0.00000000000E+00  0.99999998245E-14  0.12509000000E+03  0.12509000000E+03 0.  0.
        -13    1    3    3    0    0  0.42199153622E+00 -0.12849942820E+02 -0.27413105415E+02  0.30278517464E+02  0.10566000000E+00 0.  1.
         23    2    1    0    0    0 -0.11018836872E+02 -0.25079304051E+02  0.26647604514E+02  0.86873758897E+02  0.78016465575E+02 0.  0.
         13    1    3    3    0    0 -0.11440828409E+02 -0.12229361231E+02  0.54060709929E+02  0.56595241433E+02  0.10566000000E+00 0. -1.
         22    1    1    0    0    0  0.11018836872E+02  0.25079304051E+02 -0.26647604514E+02  0.38216241103E+02  0.00000000000E+00 0. -1.
</event>
<event>
 5    1  0.1254496E-009  0.9118800E+02  0.7815553E-02  0.1125453E+00
         25   -1    0    0    0    0  0.00000000000E+00  0.00000000000E+00  0.99999998245E-14  0.12509000000E+03  0.12509000000E+03 0.  0.
        -13    1    3    3    0    0 -0.35684404983E+01  0.11501061388E+02 -0.35469019067E+02  0.37457584789E+02  0.10566000000E+00 0. -1.
         23    2    1    0    0    0  0.16646243793E+02 -0.24431618581E+02  0.48583716589E+01  0.95129940018E+02  0.90288982128E+02 0.  0.
         13    1    3    3    0    0  0.20214684292E+02 -0.35932679970E+02  0.40327390726E+02  0.57672355229E+02  0.10566000000E+00 0.  1.
         22    1    1    0    0    0 -0.16646243793E+02  0.24431618581E+02 -0.48583716589E+01  0.29960059982E+02  0.00000000000E+00 0.  1.
</event>
<event>
 5    1  0.1254496E-009  0.9118800E+02  0.7815553E-02  0.1125453E+00
         25   -1    0    0    0    0  0.00000000000E+00  0.00000000000E+00  0.99999998245E-14  0.12509000000E+03  0.12509000000E+03 0.  0.
        -13    1    3    3    0    0 -0.21669318290E+02  0.32436357146E+02 -0.15484235158E+01  0.39039536363E+02  0.10566000000E+00 0. -1.
         23    2    1    0    0    0  0.15443720890E+02 -0.26992271144E+01 -0.25245175788E+02  0.95372778688E+02  0.90624796122E+02 0.  0.
         13    1    3    3    0    0  0.37113039180E+02 -0.35135584260E+02 -0.23696752272E+02  0.56333242324E+02  0.10566000000E+00 0.  1.
         22    1    1    0    0    0 -0.15443720890E+02  0.26992271144E+01  0.25245175788E+02  0.29717221312E+02  0.00000000000E+00 0.  1.
</event>
<event>
 5    1  0.1254496E-009  0.9118800E+02  0.7815553E-02  0.1125453E+00
         25   -1    0    0    0    0  0.00000000000E+00  0.00000000000E+00  0.99999998245E-14  0.12509000000E+03  0.12509000000E+03 0.  0.
        -13    1    3    3    0    0 -0.68696524881E+01  0.23390754257E+02 -0.47801174508E+02  0.53658950404E+02  0.10566000000E+00 0.  1.
         23    2    1    0    0    0  0.17786379783E+02  0.17475717295E+02 -0.12297128215E+02  0.97287565518E+02  0.93230333269E+02 0.  0.
         13    1    3    3    0    0  0.24656032271E+02 -0.59150369619E+01  0.35504046293E+02  0.43628615115E+02  0.10566000000E+00 0. -1.
         22    1    1    0    0    0 -0.17786379783E+02 -0.17475717295E+02  0.12297128215E+02  0.27802434482E+02  0.00000000000E+00 0. -1.
</event>
<event>
 5    1  0.1254496E-009  0.9118800E+02  0.7815553E-02  0.1125453E+00
         25   -1    0    0    0    0  0.00000000000E+00  0.00000000000E+00  0.99999998245E-14  0.12509000000E+03  0.12509000000E+03 0.  0.
        -13    1    3    3    0    0 -0.23481719163E+02  0.14189739842E+02  0.26344246805E+02  0.38036434578E+02  0.10566000000E+00 0.  1.
         23    2    1    0    0    0 -0.15779048774E+02 -0.26164043337E+02 -0.10054922690E+02  0.92924226043E+02  0.87179554779E+02 0.  0.
         13    1    3    3    0    0  0.77026703897E+01 -0.40353783179E+02 -0.36399169495E+02  0.54887791465E+02  0.10566000000E+00 0. -1.
         22    1    1    0    0    0  0.15779048774E+02  0.26164043337E+02  0.10054922690E+02  0.32165773957E+02  0.00000000000E+00 0. -1.
</event>
<event>
 5    1  0.1254496E-009  0.9118800E+02  0.7815553E-02  0.1125453E+00
         25   -1    0    0    0    0  0.00000000000E+00  0.00000000000E+00  0.99999998245E-14  0.12509000000E+03  0.12509000000E+03 0.  0.
        -13    1    3    3    0    0  0.29803810435E+02  0.19610127266E+02  0.46100393845E+02  0.58293067209E+02  0.10566000000E+00 0.  1.
         23    2    1    0    0    0  0.59083015414E+01  0.22803492247E+02  0.17235014321E+02  0.95901765994E+02  0.91352042759E+02 0.  0.
         13    1    3    3    0    0 -0.23895508894E+02  0.31933649809E+01 -0.28865379525E+02  0.37608698785E+02  0.10566000000E+00 0. -1.
         22    1    1    0    0    0 -0.59083015414E+01 -0.22803492247E+02 -0.17235014321E+02  0.29188234006E+02  0.00000000000E+00 0.  1.
</event>
<event>
 5    1  0.1254496E-009  0.9118800E+02  0.7815553E-02  0.1125453E+00
         25   -1    0    0    0    0  0.00000000000E+00  0.00000000000E+00  0.99999998245E-14  0.12509000000E+03  0.12509000000E+03 0.  0.
        -13    1    3    3    0    0  0.47836669632E+02 -0.10979937683E+02  0.11441301648E+02  0.50396632233E+02  0.10566000000E+00 0.  1.
         23    2    1    0    0    0  0.19350682181E+02  0.21162843406E+02 -0.42058398442E+01  0.96107178697E+02  0.91632886381E+02 0.  0.
         13    1    3    3    0    0 -0.28485987451E+02  0.32142781089E+02 -0.15647141492E+02  0.45710546464E+02  0.10566000000E+00 0. -1.
         22    1    1    0    0    0 -0.19350682181E+02 -0.21162843406E+02  0.42058398442E+01  0.28982821303E+02  0.00000000000E+00 0.  1.
</event>
<event>
 5    1  0.1254496E-009  0.9118800E+02  0.7815553E-02  0.1125453E+00
         25   -1    0    0    0    0  0.00000000000E+00  0.00000000000E+00  0.99999998245E-14  0.12509000000E+03  0.12509000000E+03 0.  0.
        -13    1    3    3    0    0  0.28468097492E+00 -0.22942827945E+02  0.28571234845E+02  0.36643976613E+02  0.10566000000E+00 0.  1.
         23    2    1    0    0    0 -0.34125060977E+01  0.28909310238E+02 -0.37043691878E-01  0.95979953821E+02  0.91459044096E+02 0.  0.
         13    1    3    3    0    0 -0.36971870726E+01  0.51852138183E+02 -0.28608278537E+02  0.59335977209E+02  0.10566000000E+00 0. -1.
         22    1    1    0    0    0  0.34125060977E+01 -0.28909310238E+02  0.37043691878E-01  0.29110046179E+02  0.00000000000E+00 0. -1.
</event>
<event>
 5    1  0.1254496E-009  0.9118800E+02  0.7815553E-02  0.1125453E+00
         25   -1    0    0    0    0  0.00000000000E+00  0.00000000000E+00  0.99999998245E-14  0.12509000000E+03  0.12509000000E+03 0.  0.
        -13    1    3    3    0    0  0.26955517029E+02  0.67805784644E+01 -0.20909265976E+02  0.34781959552E+02  0.10566000000E+00 0. -1.
         23    2    1    0    0    0 -0.40507884428E+01 -0.26365788915E+02  0.16606893298E+02  0.93667832393E+02  0.88240071442E+02 0.  0.
         13    1    3    3    0    0 -0.31006305472E+02 -0.33146367379E+02  0.37516159275E+02  0.58885872841E+02  0.10566000000E+00 0.  1.
         22    1    1    0    0    0  0.40507884428E+01  0.26365788915E+02 -0.16606893298E+02  0.31422167607E+02  0.00000000000E+00 0.  1.
</event>
<event>
 5    1  0.1254496E-009  0.9118800E+02  0.7815553E-02  0.1125453E+00
         25   -1    0    0    0    0  0.00000000000E+00  0.00000000000E+00  0.99999998245E-14  0.12509000000E+03  0.12509000000E+03 0.  0.
        -13    1    3    3    0    0 -0.31584927792E+02  0.24638964570E+02 -0.33695281657E+02  0.52345672301E+02  0.10566000000E+00 0. -1.
         23    2    1    0    0    0 -0.11950871193E+00  0.28904961105E+02 -0.38390371370E+01  0.95930965980E+02  0.91392018081E+02 0.  0.
         13    1    3    3    0    0  0.31465419080E+02  0.42659965350E+01  0.29856244520E+02  0.43585293680E+02  0.10566000000E+00 0.  1.
         22    1    1    0    0    0  0.11950871193E+00 -0.28904961105E+02  0.38390371370E+01  0.29159034020E+02  0.00000000000E+00 0. -1.
</event>
<event>
 5    1  0.1254496E-009  0.9118800E+02  0.7815553E-02  0.1125453E+00
         25   -1    0    0    0    0  0.00000000000E+00  0.00000000000E+00  0.99999998245E-14  0.12509000000E+03  0.12509000000E+03 0.  0.
        -13    1    3    3    0    0  0.44894033267E+02 -0.12485350668E+02 -0.46223707245E+01  0.46826655651E+02  0.10566000000E+00 0.  1.
         23    2    1    0    0    0  0.91953942066E+01  0.24819096547E+02 -0.62274158529E+00  0.98614905381E+02  0.94994573151E+02 0.  0.
         13    1    3    3    0    0 -0.35698639060E+02  0.37304447215E+02  0.39996291392E+01  0.51788249730E+02  0.10566000000E+00 0. -1.
         22    1    1    0    0    0 -0.91953942066E+01 -0.24819096547E+02  0.62274158529E+00  0.26475094619E+02  0.00000000000E+00 0. -1.
</event>
<event>
 5    1  0.1254496E-009  0.9118800E+02  0.7815553E-02  0.1125453E+00
         25   -1    0    0    0    0  0.00000000000E+00  0.00000000000E+00  0.99999998245E-14  0.12509000000E+03  0.12509000000E+03 0.  0.
        -13    1    3    3    0    0  0.30103156593E+02  0.12836686402E+02  0.43701002839E+02  0.54596422665E+02  0.10566000000E+00 0.  1.
         23    2    1    0    0    0  0.22855422186E+02 -0.13281934155E+02  0.12741660544E+02  0.95744983190E+02  0.91137104378E+02 0.  0.
         13    1    3    3    0    0 -0.72477344069E+01 -0.26118620557E+02 -0.30959342295E+02  0.41148560524E+02  0.10566000000E+00 0. -1.
         22    1    1    0    0    0 -0.22855422186E+02  0.13281934155E+02 -0.12741660544E+02  0.29345016810E+02  0.00000000000E+00 0.  1.
</event>
<event>
 5    1  0.1254496E-009  0.9118800E+02  0.7815553E-02  0.1125453E+00
         25   -1    0    0    0    0  0.00000000000E+00  0.00000000000E+00  0.99999998245E-14  0.12509000000E+03  0.12509000000E+03 0.  0.
        -13    1    3    3    0    0 -0.47601543172E+02 -0.35649302964E+02 -0.34054249223E+01  0.59568345596E+02  0.10566000000E+00 0.  1.
         23    2    1    0    0    0 -0.13540008901E+02 -0.21484039118E+02 -0.11301935036E+02  0.97293785987E+02  0.93238679089E+02 0.  0.
         13    1    3    3    0    0  0.34061534270E+02  0.14165263846E+02 -0.78965101140E+01  0.37725440391E+02  0.10566000000E+00 0. -1.
         22    1    1    0    0    0  0.13540008901E+02  0.21484039118E+02  0.11301935036E+02  0.27796214013E+02  0.00000000000E+00 0.  1.
</event>
<event>
 5    1  0.1254496E-009  0.9118800E+02  0.7815553E-02  0.1125453E+00
         25   -1    0    0    0    0  0.00000000000E+00  0.00000000000E+00  0.99999998245E-14  0.12509000000E+03  0.12509000000E+03 0.  0.
        -13    1    3    3    0    0 -0.34709980574E+01  0.22993496058E+02  0.34210922912E+02  0.41366013816E+02  0.10566000000E+00 0. -1.
         23    2    1    0    0    0  0.33906328924E+01  0.19470278372E+02 -0.20498068026E+02  0.96616171243E+02  0.92325108294E+02 0.  0.
         13    1    3    3    0    0  0.68616309498E+01 -0.35232176860E+01 -0.54708990939E+02  0.55250157427E+02  0.10566000000E+00 0.  1.
         22    1    1    0    0    0 -0.33906328924E+01 -0.19470278372E+02  0.20498068026E+02  0.28473828757E+02  0.00000000000E+00 0.  1.
</event>
<event>
 5    1  0.1254496E-009  0.9118800E+02  0.7815553E-02  0.1125453E+00
         25   -1    0    0    0    0  0.00000000000E+00  0.00000000000E+00  0.99999998245E-14  0.12509000000E+03  0.12509000000E+03 0.  0.
        -13    1    3    3    0    0  0.41655762023E+02 -0.35894357443E+02 -0.15122807587E+02  0.57029096778E+02  0.10566000000E+00 0. -1.
         23    2    1    0    0    0  0.60050113672E+01 -0.28426482463E+02 -0.12399868482E+01  0.96009720872E+02  0.91499747911E+02 0.  0.
         13    1    3    3    0    0 -0.35650750656E+02  0.74678749792E+01  0.13882820739E+02  0.38980624094E+02  0.10566000000E+00 0.  1.
         22    1    1    0    0    0 -0.60050113672E+01  0.28426482463E+02  0.12399868482E+01  0.29080279128E+02  0.00000000000E+00 0. -1.
</event>
<event>
 5    1  0.1254496E-009  0.9118800E+02  0.7815553E-02  0.1125453E+00
         25   -1    0    0    0    0  0.00000000000E+00  0.00000000000E+00  0.99999998245E-14  0.12509000000E+03  0.12509000000E+03 0.  0.
        -13    1    3    3    0    0  0.38087405158E+02 -0.22918291398E+02  0.44259223544E+00  0.44453408915E+02  0.10566000000E+00 0. -1.
         23    2    1    0    0    0  0.13667518792E+02  0.15858570137E+02 -0.21342369310E+02  0.95193644963E+02  0.90377198434E+02 0.  0.
         13    1    3    3    0    0 -0.24419886366E+02  0.38776861535E+02 -0.21784961546E+02  0.50740236048E+02  0.10566000000E+00 0.  1.
         22    1    1    0    0    0 -0.13667518792E+02 -0.15858570137E+02  0.21342369310E+02  0.29896355037E+02  0.00000000000E+00 0.  1.
</event>
<event>
 5    1  0.1254496E-009  0.9118800E+02  0.7815553E-02  0.1125453E+00
         25   -1    0    0    0    0  0.00000000000E+00  0.00000000000E+00  0.99999998245E-14  0.12509000000E+03  0.12509000000E+03 0.  0.
        -13    1    3    3    0    0  0.94284401193E-02  0.39827430223E+02  0.27324882655E+02  0.48299944754E+02  0.10566000000E+00 0.  1.
         23    2    1    0    0    0 -0.16348979487E+02  0.20424881802E+02 -0.12945520082E+02  0.95900080214E+02  0.91349734362E+02 0.  0.
         13    1    3    3    0    0 -0.16358407927E+02 -0.19402548421E+02 -0.40270402738E+02  0.47600135460E+02  0.10566000000E+00 0. -1.
         22    1    1    0    0    0  0.16348979487E+02 -0.20424881802E+02  0.12945520082E+02  0.29189919786E+02  0.00000000000E+00 0.  1.
</event>
<event>
 5    1  0.1254496E-009  0.9118800E+02  0.7815553E-02  0.1125453E+00
         25   -1    0    0    0    0  0.00000000000E+00  0.00000000000E+00  0.99999998245E-14  0.12509000000E+03  0.12509000000E+03 0.  0.
        -13    1    3    3    0    0  0.47315120385E+02 -0.32007241901E+00 -0.31073736744E+02  0.56607520196E+02  0.10566000000E+00 0.  1.
         23    2    1    0    0    0  0.29742570037E+02  0.16856848228E+02 -0.87647671446E+01  0.89797012769E+02  0.82570627675E+02 0.  0.
         13    1    3    3    0    0 -0.17572550348E+02  0.17176920647E+02  0.22308969600E+02  0.33189492574E+02  0.10566000000E+00 0. -1.
         22    1    1    0    0    0 -0.29742570037E+02 -0.16856848228E+02  0.87647671446E+01  0.35292987231E+02  0.00000000000E+00 0.  1.
</event>
<event>
 5    1  0.1254496E-009  0.9118800E+02  0.7815553E-02  0.1125453E+00
         25   -1    0    0    0    0  0.00000000000E+00  0.00000000000E+00  0.99999998245E-14  0.12509000000E+03  0.12509000000E+03 0.  0.
        -13    1    3    3    0    0  0.25432905960E+02 -0.32852616289E+02  0.29151539615E-01  0.41546830402E+02  0.10566000000E+00 0. -1.
         23    2    1    0    0    0  0.31176217683E+01  0.15918675314E+02  0.20494528043E+02  0.98952871831E+02  0.95438573830E+02 0.  0.
         13    1    3    3    0    0 -0.22315284191E+02  0.48771291603E+02  0.20465376503E+02  0.57406041429E+02  0.10566000000E+00 0.  1.
         22    1    1    0    0    0 -0.31176217683E+01 -0.15918675314E+02 -0.20494528043E+02  0.26137128169E+02  0.00000000000E+00 0.  1.
</event>
<event>
 5    1  0.1254496E-009  0.9118800E+02  0.7815553E-02  0.1125453E+00
         25   -1    0    0    0    0  0.00000000000E+00  0.00000000000E+00  0.99999998245E-14  0.12509000000E+03  0.12509000000E+03 0.  0.
        -13    1    3    3    0    0 -0.17193530837E+02 -0.18394656752E+02  0.27732410284E+02  0.37457691385E+02  0.10566000000E+00 0.  1.
         23    2    1    0    0    0 -0.49562248069E+01  0.27944554825E+02 -0.60201825631E+01  0.96077848980E+02  0.91592839009E+02 0.  0.
         13    1    3    3    0    0  0.12237306030E+02  0.46339211578E+02 -0.33752592847E+02  0.58620157595E+02  0.10566000000E+00 0. -1.
         22    1    1    0    0    0  0.49562248069E+01 -0.27944554825E+02  0.60201825631E+01  0.29012151020E+02  0.00000000000E+00 0. -1.
</event>
<event>
 5    1  0.1254496E-009  0.9118800E+02  0.7815553E-02  0.1125453E+00
         25   -1    0    0    0    0  0.00000000000E+00  0.00000000000E+00  0.99999998245E-14  0.12509000000E+03  0.12509000000E+03 0.  0.
        -13    1    3    3    0    0  0.40964105473E+02  0.84138378608E+01  0.39266392371E+02  0.57364722074E+02  0.10566000000E+00 0.  1.
         23    2    1    0    0    0  0.13360125645E+02  0.20954338047E+02  0.17047673781E+02  0.94953636225E+02  0.90044392445E+02 0.  0.
         13    1    3    3    0    0 -0.27603979828E+02  0.12540500186E+02 -0.22218718590E+02  0.37588914151E+02  0.10566000000E+00 0. -1.
         22    1    1    0    0    0 -0.13360125645E+02 -0.20954338047E+02 -0.17047673781E+02  0.30136363775E+02  0.00000000000E+00 0.  1.
</event>
<event>
 5    1  0.1254496E-009  0.9118800E+02  0.7815553E-02  0.1125453E+00
         25   -1    0    0    0    0  0.00000000000E+00  0.00000000000E+00  0.99999998245E-14  0.12509000000E+03  0.12509000000E+03 0.  0.
        -13    1    3    3    0    0  0.12236019326E+02  0.94297159460E+01  0.26444338855E+02  0.30626033587E+02  0.10566000000E+00 0.  1.
         23    2    1    0    0    0 -0.24462353121E+02  0.44577719383E+01 -0.22195339890E+02  0.91759660012E+02  0.85492243168E+02 0.  0.
         13    1    3    3    0    0 -0.36698372447E+02 -0.49719440077E+01 -0.48639678745E+02  0.61133626425E+02  0.10566000000E+00 0. -1.
         22    1    1    0    0    0  0.24462353121E+02 -0.44577719383E+01  0.22195339890E+02  0.33330339988E+02  0.00000000000E+00 0. -1.
</event>
<event>
 5    1  0.1254496E-009  0.9118800E+02  0.7815553E-02  0.1125453E+00
         25   -1    0    0    0    0  0.00000000000E+00  0.00000000000E+00  0.99999998245E-14  0.12509000000E+03  0.12509000000E+03 0.  0.
        -13    1    3    3    0    0 -0.11794072832E+00 -0.62743616707E+01  0.45178776482E+02  0.45612657594E+02  0.10566000000E+00 0. -1.
         23    2    1    0    0    0  0.10468692058E+02 -0.28222960159E+02  0.23402901133E+01  0.94897187091E+02  0.89965938924E+02 0.  0.
         13    1    3    3    0    0  0.10586632786E+02 -0.21948598489E+02 -0.42838486368E+02  0.49284529497E+02  0.10566000000E+00 0.  1.
         22    1    1    0    0    0 -0.10468692058E+02  0.28222960159E+02 -0.23402901133E+01  0.30192812909E+02  0.00000000000E+00 0.  1.
</event>
<event>
 5    1  0.1254496E-009  0.9118800E+02  0.7815553E-02  0.1125453E+00
         25   -1    0    0    0    0  0.00000000000E+00  0.00000000000E+00  0.99999998245E-14  0.12509000000E+03  0.12509000000E+03 0.  0.
        -13    1    3    3    0    0  0.27795684987E+02  0.33447182911E+01 -0.53515453672E+01  0.28503288340E+02  0.10566000000E+00 0.  1.
         23    2    1    0    0    0 -0.16588611293E+02 -0.16034959109E+02  0.29111612355E+02  0.87944503474E+02  0.79714790215E+02 0.  0.
         13    1    3    3    0    0 -0.44384296280E+02 -0.19379677400E+02  0.34463157722E+02  0.59441215134E+02  0.10566000000E+00 0. -1.
         22    1    1    0    0    0  0.16588611293E+02  0.16034959109E+02 -0.29111612355E+02  0.37145496526E+02  0.00000000000E+00 0. -1.
</event>
<event>
 5    1  0.1254496E-009  0.9118800E+02  0.7815553E-02  0.1125453E+00
         25   -1    0    0    0    0  0.00000000000E+00  0.00000000000E+00  0.99999998245E-14  0.12509000000E+03  0.12509000000E+03 0.  0.
        -13    1    3    3    0    0  0.63239951462E+01  0.74783290456E+01  0.50652120178E+02  0.51590374708E+02  0.10566000000E+00 0. -1.
         23    2    1    0    0    0 -0.12457610635E+02  0.22305126850E+02  0.12445934255E+02  0.96671484451E+02  0.92400020995E+02 0.  0.
         13    1    3    3    0    0 -0.18781605782E+02  0.14826797804E+02 -0.38206185923E+02  0.45081109743E+02  0.10566000000E+00 0.  1.
         22    1    1    0    0    0  0.12457610635E+02 -0.22305126850E+02 -0.12445934255E+02  0.28418515549E+02  0.00000000000E+00 0. -1.
</event>
<event>
 5    1  0.1254496E-009  0.9118800E+02  0.7815553E-02  0.1125453E+00
         25   -1    0    0    0    0  0.00000000000E+00  0.00000000000E+00  0.99999998245E-14  0.12509000000E+03  0.12509000000E+03 0.  0.
        -13    1    3    3    0    0  0.22862356118E+02  0.38121354716E+02 -0.27419219451E+01  0.44535988960E+02  0.10566000000E+00 0. -1.
         23    2    1    0    0    0  0.27121494108E+02  0.34942253659E+01  0.24166862475E+02  0.88595859437E+02  0.80730440442E+02 0.  0.
         13    1    3    3    0    0  0.42591379895E+01 -0.34627129350E+02  0.26908784420E+02  0.44059870477E+02  0.10566000000E+00 0.  1.
         22    1    1    0    0    0 -0.27121494108E+02 -0.34942253659E+01 -0.24166862475E+02  0.36494140563E+02  0.00000000000E+00 0.  1.
</event>
<event>
 5    1  0.1254496E-009  0.9118800E+02  0.7815553E-02  0.1125453E+00
         25   -1    0    0    0    0  0.00000000000E+00  0.00000000000E+00  0.99999998245E-14  0.12509000000E+03  0.12509000000E+03 0.  0.
        -13    1    3    3    0    0  0.25439478611E+02  0.22748437162E+02 -0.14299009986E+02  0.37001774497E+02  0.10566000000E+00 0. -1.
         23    2    1    0    0    0 -0.73027981892E+00 -0.28743665536E+02 -0.87840974101E+01  0.95025203570E+02  0.90143759235E+02 0.  0.
         13    1    3    3    0    0 -0.26169758430E+02 -0.51492102699E+02  0.55149125754E+01  0.58023429073E+02  0.10566000000E+00 0.  1.
         22    1    1    0    0    0  0.73027981892E+00  0.28743665536E+02  0.87840974101E+01  0.30064796430E+02  0.00000000000E+00 0.  1.
</event>
<event>
 5    1  0.1254496E-009  0.9118800E+02  0.7815553E-02  0.1125453E+00
         25   -1    0    0    0    0  0.00000000000E+00  0.00000000000E+00  0.99999998245E-14  0.12509000000E+03  0.12509000000E+03 0.  0.
        -13    1    3    3    0    0  0.22970937362E+02  0.46096698971E+02  0.17100367031E+02  0.54267884941E+02  0.10566000000E+00 0.  1.
         23    2    1    0    0    0 -0.10009648107E+02  0.23570170141E+02  0.17261556249E+02  0.94207848199E+02  0.89002310995E+02 0.  0.
         13    1    3    3    0    0 -0.32980585469E+02 -0.22526528830E+02  0.16118921743E+00  0.39939963258E+02  0.10566000000E+00 0. -1.
         22    1    1    0    0    0  0.10009648107E+02 -0.23570170141E+02 -0.17261556249E+02  0.30882151801E+02  0.00000000000E+00 0.  1.
</event>
<event>
 5    1  0.1254496E-009  0.9118800E+02  0.7815553E-02  0.1125453E+00
         25   -1    0    0    0    0  0.00000000000E+00  0.00000000000E+00  0.99999998245E-14  0.12509000000E+03  0.12509000000E+03 0.  0.
        -13    1    3    3    0    0 -0.32480402718E+02 -0.24166675934E+01 -0.46430764790E+02  0.56715464611E+02  0.10566000000E+00 0.  1.
         23    2    1    0    0    0  0.10295855415E+01 -0.30731662237E+01 -0.31527925034E+02  0.93395923992E+02  0.87853765795E+02 0.  0.
         13    1    3    3    0    0  0.33509988259E+02 -0.65649863027E+00  0.14902839756E+02  0.36680459381E+02  0.10566000000E+00 0. -1.
         22    1    1    0    0    0 -0.10295855415E+01  0.30731662237E+01  0.31527925034E+02  0.31694076008E+02  0.00000000000E+00 0.  1.
</event>
<event>
 5    1  0.1254496E-009  0.9118800E+02  0.7815553E-02  0.1125453E+00
         25   -1    0    0    0    0  0.00000000000E+00  0.00000000000E+00  0.99999998245E-14  0.12509000000E+03  0.12509000000E+03 0.  0.
        -13    1    3    3    0    0 -0.37740428385E+02  0.64439164479E+01 -0.35398922743E+02  0.52143637093E+02  0.10566000000E+00 0.  1.
         23    2    1    0    0    0 -0.29442885349E+02  0.78154697448E+00  0.62448260167E+01  0.94981991675E+02  0.90083775327E+02 0.  0.
         13    1    3    3    0    0  0.82975430360E+01 -0.56623694734E+01  0.41643748760E+02  0.42838354582E+02  0.10566000000E+00 0. -1.
         22    1    1    0    0    0  0.29442885349E+02 -0.78154697448E+00 -0.62448260167E+01  0.30108008325E+02  0.00000000000E+00 0.  1.
</event>
<event>
 5    1  0.1254496E-009  0.9118800E+02  0.7815553E-02  0.1125453E+00
         25   -1    0    0    0    0  0.00000000000E+00  0.00000000000E+00  0.99999998245E-14  0.12509000000E+03  0.12509000000E+03 0.  0.
        -13    1    3    3    0    0  0.60982078958E+02  0.86769589242E+01 -0.78969001780E+01  0.62100529520E+02  0.10566000000E+00 0. -1.
         23    2    1    0    0    0  0.35006032118E+02  0.14116852360E+01 -0.83368113231E+01  0.89077258326E+02  0.81472942674E+02 0.  0.
         13    1    3    3    0    0 -0.25976046840E+02 -0.72652736882E+01 -0.43991114509E+00  0.26976728805E+02  0.10566000000E+00 0.  1.
         22    1    1    0    0    0 -0.35006032118E+02 -0.14116852360E+01  0.83368113231E+01  0.36012741674E+02  0.00000000000E+00 0. -1.
</event>
<event>
 5    1  0.1254496E-009  0.9118800E+02  0.7815553E-02  0.1125453E+00
         25   -1    0    0    0    0  0.00000000000E+00  0.00000000000E+00  0.99999998245E-14  0.12509000000E+03  0.12509000000E+03 0.  0.
        -13    1    3    3    0    0 -0.80491503071E+01 -0.38544859444E+02  0.41672338745E+02  0.57333149144E+02  0.10566000000E+00 0. -1.
         23    2    1    0    0    0  0.13740707977E+02 -0.21797054087E+02  0.17412461799E+02  0.93991568392E+02  0.88697815533E+02 0.  0.
         13    1    3    3    0    0  0.21789858284E+02  0.16747805357E+02 -0.24259876946E+02  0.36658419248E+02  0.10566000000E+00 0.  1.
         22    1    1    0    0    0 -0.13740707977E+02  0.21797054087E+02 -0.17412461799E+02  0.31098431608E+02  0.00000000000E+00 0. -1.
</event>
<event>
 5    1  0.1254496E-009  0.9118800E+02  0.7815553E-02  0.1125453E+00
         25   -1    0    0    0    0  0.00000000000E+00  0.00000000000E+00  0.99999998245E-14  0.12509000000E+03  0.12509000000E+03 0.  0.
        -13    1    3    3    0    0  0.44088671358E+02  0.24450438729E+02  0.22433693029E+02  0.55180763343E+02  0.10566000000E+00 0.  1.
         23    2    1    0    0    0  0.40364180431E+01  0.23724629082E+02  0.17042905428E+02  0.95600827053E+02  0.90939027992E+02 0.  0.
         13    1    3    3    0    0 -0.40052253315E+02 -0.72580964685E+00 -0.53907876015E+01  0.40420063710E+02  0.10566000000E+00 0. -1.
         22    1    1    0    0    0 -0.40364180431E+01 -0.23724629082E+02 -0.17042905428E+02  0.29489172947E+02  0.00000000000E+00 0.  1.
</event>
<event>
 5    1  0.1254496E-009  0.9118800E+02  0.7815553E-02  0.1125453E+00
         25   -1    0    0    0    0  0.00000000000E+00  0.00000000000E+00  0.99999998245E-14  0.12509000000E+03  0.12509000000E+03 0.  0.
        -13    1    3    3    0    0  0.34530474868E+01  0.11125019580E+02  0.56291404590E+02  0.57484110781E+02  0.10566000000E+00 0.  1.
         23    2    1    0    0    0  0.95889355047E+01  0.19731617314E+02  0.19587183183E+02  0.95680101139E+02  0.91048007134E+02 0.  0.
         13    1    3    3    0    0  0.61358880179E+01  0.86065977341E+01 -0.36704221407E+02  0.38195990358E+02  0.10566000000E+00 0. -1.
         22    1    1    0    0    0 -0.95889355047E+01 -0.19731617314E+02 -0.19587183183E+02  0.29409898861E+02  0.00000000000E+00 0.  1.
</event>
<event>
 5    1  0.1254496E-009  0.9118800E+02  0.7815553E-02  0.1125453E+00
         25   -1    0    0    0    0  0.00000000000E+00  0.00000000000E+00  0.99999998245E-14  0.12509000000E+03  0.12509000000E+03 0.  0.
        -13    1    3    3    0    0 -0.25996564039E+02  0.50511373681E+02 -0.23299867069E+02  0.61401263688E+02  0.10566000000E+00 0. -1.
         23    2    1    0    0    0 -0.77915701516E+01  0.13467257545E+02 -0.14948961986E+02  0.10351346053E+03  0.10123976222E+03 0.  0.
         13    1    3    3    0    0  0.18204993888E+02 -0.37044116137E+02  0.83509050832E+01  0.42112196838E+02  0.10566000000E+00 0.  1.
         22    1    1    0    0    0  0.77915701516E+01 -0.13467257545E+02  0.14948961986E+02  0.21576539474E+02  0.00000000000E+00 0. -1.
</event>
<event>
 5    1  0.1254496E-009  0.9118800E+02  0.7815553E-02  0.1125453E+00
         25   -1    0    0    0    0  0.00000000000E+00  0.00000000000E+00  0.99999998245E-14  0.12509000000E+03  0.12509000000E+03 0.  0.
        -13    1    3    3    0    0  0.26446852379E+02 -0.29448968361E+02 -0.70753470791E+01  0.40208822895E+02  0.10566000000E+00 0.  1.
         23    2    1    0    0    0 -0.22906414628E+02 -0.11658994857E+02  0.12883509084E+02  0.96338986131E+02  0.91948787106E+02 0.  0.
         13    1    3    3    0    0 -0.49353267007E+02  0.17789973504E+02  0.19958856163E+02  0.56130163236E+02  0.10566000000E+00 0. -1.
         22    1    1    0    0    0  0.22906414628E+02  0.11658994857E+02 -0.12883509084E+02  0.28751013869E+02  0.00000000000E+00 0. -1.
</event>
<event>
 5    1  0.1254496E-009  0.9118800E+02  0.7815553E-02  0.1125453E+00
         25   -1    0    0    0    0  0.00000000000E+00  0.00000000000E+00  0.99999998245E-14  0.12509000000E+03  0.12509000000E+03 0.  0.
        -13    1    3    3    0    0 -0.25267273423E+02 -0.40087297340E+02  0.25536659858E+02  0.53828976165E+02  0.10566000000E+00 0.  1.
         23    2    1    0    0    0 -0.59862376328E+01  0.68310680200E-01  0.26033953000E+02  0.98376587336E+02  0.94680232994E+02 0.  0.
         13    1    3    3    0    0  0.19281035790E+02  0.40155608020E+02  0.49729314226E+00  0.44547611171E+02  0.10566000000E+00 0. -1.
         22    1    1    0    0    0  0.59862376328E+01 -0.68310680200E-01 -0.26033953000E+02  0.26713412664E+02  0.00000000000E+00 0.  1.
</event>
<event>
 5    1  0.1254496E-009  0.9118800E+02  0.7815553E-02  0.1125453E+00
         25   -1    0    0    0    0  0.00000000000E+00  0.00000000000E+00  0.99999998245E-14  0.12509000000E+03  0.12509000000E+03 0.  0.
        -13    1    3    3    0    0 -0.63938853491E+00 -0.14290747615E+02 -0.39340854023E+02  0.41861058807E+02  0.10566000000E+00 0. -1.
         23    2    1    0    0    0 -0.27288689506E+02  0.10679656113E+02  0.33246831425E+00  0.95784059223E+02  0.91190722315E+02 0.  0.
         13    1    3    3    0    0 -0.26649300971E+02  0.24970403728E+02  0.39673322338E+02  0.53923000416E+02  0.10566000000E+00 0.  1.
         22    1    1    0    0    0  0.27288689506E+02 -0.10679656113E+02 -0.33246831425E+00  0.29305940777E+02  0.00000000000E+00 0.  1.
</event>
<event>
 5    1  0.1254496E-009  0.9118800E+02  0.7815553E-02  0.1125453E+00
         25   -1    0    0    0    0  0.00000000000E+00  0.00000000000E+00  0.99999998245E-14  0.12509000000E+03  0.12509000000E+03 0.  0.
        -13    1    3    3    0    0  0.11920756740E+01 -0.52374388453E+02  0.27968603691E+02  0.59386459456E+02  0.10566000000E+00 0.  1.
         23    2    1    0    0    0  0.83725610640E+00 -0.35744069589E+02  0.32395436072E+01  0.89189663631E+02  0.81645342472E+02 0.  0.
         13    1    3    3    0    0 -0.35481956763E+00  0.16630318864E+02 -0.24729060084E+02  0.29803204175E+02  0.10566000000E+00 0. -1.
         22    1    1    0    0    0 -0.83725610640E+00  0.35744069589E+02 -0.32395436072E+01  0.35900336369E+02  0.00000000000E+00 0.  1.
</event>
<event>
 5    1  0.1254496E-009  0.9118800E+02  0.7815553E-02  0.1125453E+00
         25   -1    0    0    0    0  0.00000000000E+00  0.00000000000E+00  0.99999998245E-14  0.12509000000E+03  0.12509000000E+03 0.  0.
        -13    1    3    3    0    0 -0.35286400904E+02  0.15645062137E+02  0.28999662209E+02  0.48279287798E+02  0.10566000000E+00 0. -1.
         23    2    1    0    0    0  0.16002410470E+01  0.28373893268E+02  0.38411428280E+00  0.96668421325E+02  0.92395874081E+02 0.  0.
         13    1    3    3    0    0  0.36886641951E+02  0.12728831131E+02 -0.28615547926E+02  0.48389133527E+02  0.10566000000E+00 0.  1.
         22    1    1    0    0    0 -0.16002410470E+01 -0.28373893268E+02 -0.38411428280E+00  0.28421578675E+02  0.00000000000E+00 0. -1.
</event>
<event>
 5    1  0.1254496E-009  0.9118800E+02  0.7815553E-02  0.1125453E+00
         25   -1    0    0    0    0  0.00000000000E+00  0.00000000000E+00  0.99999998245E-14  0.12509000000E+03  0.12509000000E+03 0.  0.
        -13    1    3    3    0    0 -0.13308430408E+02  0.33962587813E+02 -0.10273719823E+02  0.37896334571E+02  0.10566000000E+00 0.  1.
         23    2    1    0    0    0 -0.14317946239E+02 -0.24269053593E+02 -0.59021905534E+01  0.96300654747E+02  0.91896625099E+02 0.  0.
         13    1    3    3    0    0 -0.10095158307E+01 -0.58231641405E+02  0.43715292696E+01  0.58404320176E+02  0.10566000000E+00 0. -1.
         22    1    1    0    0    0  0.14317946239E+02  0.24269053593E+02  0.59021905534E+01  0.28789345253E+02  0.00000000000E+00 0. -1.
</event>
<event>
 5    1  0.1254496E-009  0.9118800E+02  0.7815553E-02  0.1125453E+00
         25   -1    0    0    0    0  0.00000000000E+00  0.00000000000E+00  0.99999998245E-14  0.12509000000E+03  0.12509000000E+03 0.  0.
        -13    1    3    3    0    0 -0.20180072462E+02 -0.21912324671E+02 -0.45847781900E+02  0.54675548157E+02  0.10566000000E+00 0.  1.
         23    2    1    0    0    0  0.47547796316E+01 -0.27449803095E+02 -0.22520797206E+02  0.89267019581E+02  0.81763774734E+02 0.  0.
         13    1    3    3    0    0  0.24934852094E+02 -0.55374784242E+01  0.23326984695E+02  0.34591471423E+02  0.10566000000E+00 0. -1.
         22    1    1    0    0    0 -0.47547796316E+01  0.27449803095E+02  0.22520797206E+02  0.35822980419E+02  0.00000000000E+00 0.  1.
</event>
<event>
 5    1  0.1254496E-009  0.9118800E+02  0.7815553E-02  0.1125453E+00
         25   -1    0    0    0    0  0.00000000000E+00  0.00000000000E+00  0.99999998245E-14  0.12509000000E+03  0.12509000000E+03 0.  0.
        -13    1    3    3    0    0 -0.24232134989E+02 -0.28874987430E+02 -0.22740047788E+02  0.44023655036E+02  0.10566000000E+00 0.  1.
         23    2    1    0    0    0 -0.12227622123E+02 -0.98447644573E+01  0.24295601313E+02  0.96164053634E+02  0.91710494700E+02 0.  0.
         13    1    3    3    0    0  0.12004512866E+02  0.19030222973E+02  0.47035649102E+02  0.52140398598E+02  0.10566000000E+00 0. -1.
         22    1    1    0    0    0  0.12227622123E+02  0.98447644573E+01 -0.24295601313E+02  0.28925946366E+02  0.00000000000E+00 0. -1.
</event>
<event>
 5    1  0.1254496E-009  0.9118800E+02  0.7815553E-02  0.1125453E+00
         25   -1    0    0    0    0  0.00000000000E+00  0.00000000000E+00  0.99999998245E-14  0.12509000000E+03  0.12509000000E+03 0.  0.
        -13    1    3    3    0    0 -0.23939584529E+00  0.42423707992E+02 -0.21832766746E+02  0.47712777932E+02  0.10566000000E+00 0.  1.
         23    2    1    0    0    0  0.23969963184E+02  0.13391182159E+02  0.86809740019E+01  0.96293434158E+02  0.91886795883E+02 0.  0.
         13    1    3    3    0    0  0.24209359030E+02 -0.29032525833E+02  0.30513740747E+02  0.48580656226E+02  0.10566000000E+00 0. -1.
         22    1    1    0    0    0 -0.23969963184E+02 -0.13391182159E+02 -0.86809740019E+01  0.28796565842E+02  0.00000000000E+00 0.  1.
</event>
<event>
 5    1  0.1254496E-009  0.9118800E+02  0.7815553E-02  0.1125453E+00
         25   -1    0    0    0    0  0.00000000000E+00  0.00000000000E+00  0.99999998245E-14  0.12509000000E+03  0.12509000000E+03 0.  0.
        -13    1    3    3    0    0 -0.15944417010E+02 -0.15003709601E+01 -0.16615927494E+02  0.23077602937E+02  0.10566000000E+00 0. -1.
         23    2    1    0    0    0  0.30839655997E+02  0.43623623267E+01  0.24362916957E+02  0.85546779219E+02  0.75858981835E+02 0.  0.
         13    1    3    3    0    0  0.46784073007E+02  0.58627332868E+01  0.40978844452E+02  0.62469176282E+02  0.10566000000E+00 0.  1.
         22    1    1    0    0    0 -0.30839655997E+02 -0.43623623267E+01 -0.24362916957E+02  0.39543220781E+02  0.00000000000E+00 0.  1.
</event>
<event>
 5    1  0.1254496E-009  0.9118800E+02  0.7815553E-02  0.1125453E+00
         25   -1    0    0    0    0  0.00000000000E+00  0.00000000000E+00  0.99999998245E-14  0.12509000000E+03  0.12509000000E+03 0.  0.
        -13    1    3    3    0    0  0.32527472303E+02  0.19021988182E+02  0.13914390151E+02  0.40168319682E+02  0.10566000000E+00 0.  1.
         23    2    1    0    0    0  0.87781090382E+01 -0.28657490096E+02  0.43201124513E+00  0.95115117672E+02  0.90268444315E+02 0.  0.
         13    1    3    3    0    0 -0.23749363265E+02 -0.47679478278E+02 -0.13482378906E+02  0.54946797989E+02  0.10566000000E+00 0. -1.
         22    1    1    0    0    0 -0.87781090382E+01  0.28657490096E+02 -0.43201124513E+00  0.29974882328E+02  0.00000000000E+00 0. -1.
</event>
<event>
 5    1  0.1254496E-009  0.9118800E+02  0.7815553E-02  0.1125453E+00
         25   -1    0    0    0    0  0.00000000000E+00  0.00000000000E+00  0.99999998245E-14  0.12509000000E+03  0.12509000000E+03 0.  0.
        -13    1    3    3    0    0 -0.15421788416E+02 -0.52061451682E+02  0.19855438370E+02  0.57814149705E+02  0.10566000000E+00 0.  1.
         23    2    1    0    0    0 -0.18917645544E+02 -0.16984825968E+02 -0.24808978031E+01  0.99545597874E+02  0.96212315096E+02 0.  0.
         13    1    3    3    0    0 -0.34958571277E+01  0.35076625715E+02 -0.22336336173E+02  0.41731448169E+02  0.10566000000E+00 0. -1.
         22    1    1    0    0    0  0.18917645544E+02  0.16984825968E+02  0.24808978031E+01  0.25544402126E+02  0.00000000000E+00 0.  1.
</event>
<event>
 5    1  0.1254496E-009  0.9118800E+02  0.7815553E-02  0.1125453E+00
         25   -1    0    0    0    0  0.00000000000E+00  0.00000000000E+00  0.99999998245E-14  0.12509000000E+03  0.12509000000E+03 0.  0.
        -13    1    3    3    0    0 -0.45397681416E+02 -0.12991606134E+02 -0.46782067906E+01  0.47451323382E+02  0.10566000000E+00 0. -1.
         23    2    1    0    0    0 -0.15915600361E+02  0.15823174067E+02  0.19599410321E+02  0.95293757664E+02  0.90515657166E+02 0.  0.
         13    1    3    3    0    0  0.29482081054E+02  0.28814780202E+02  0.24277617112E+02  0.47842434282E+02  0.10566000000E+00 0.  1.
         22    1    1    0    0    0  0.15915600361E+02 -0.15823174067E+02 -0.19599410321E+02  0.29796242336E+02  0.00000000000E+00 0.  1.
</event>
<event>
 5    1  0.1254496E-009  0.9118800E+02  0.7815553E-02  0.1125453E+00
         25   -1    0    0    0    0  0.00000000000E+00  0.00000000000E+00  0.99999998245E-14  0.12509000000E+03  0.12509000000E+03 0.  0.
        -13    1    3    3    0    0 -0.10072567852E+02 -0.91300869862E+01  0.40870782971E+02  0.43072580330E+02  0.10566000000E+00 0.  1.
         23    2    1    0    0    0 -0.30341931676E+02  0.93841420637E+01 -0.11994240804E+01  0.93307401645E+02  0.87727633294E+02 0.  0.
         13    1    3    3    0    0 -0.20269363824E+02  0.18514229050E+02 -0.42070207052E+02  0.50234821315E+02  0.10566000000E+00 0. -1.
         22    1    1    0    0    0  0.30341931676E+02 -0.93841420637E+01  0.11994240804E+01  0.31782598355E+02  0.00000000000E+00 0. -1.
</event>
<event>
 5    1  0.1254496E-009  0.9118800E+02  0.7815553E-02  0.1125453E+00
         25   -1    0    0    0    0  0.00000000000E+00  0.00000000000E+00  0.99999998245E-14  0.12509000000E+03  0.12509000000E+03 0.  0.
        -13    1    3    3    0    0  0.28521335216E+02  0.17593875385E+02 -0.46280209796E+01  0.33829584032E+02  0.10566000000E+00 0. -1.
         23    2    1    0    0    0 -0.12444016654E+02 -0.24707516889E+02  0.11875203056E+02  0.94984595354E+02  0.90087390714E+02 0.  0.
         13    1    3    3    0    0 -0.40965351870E+02 -0.42301392274E+02  0.16503224036E+02  0.61155011322E+02  0.10566000000E+00 0.  1.
         22    1    1    0    0    0  0.12444016654E+02  0.24707516889E+02 -0.11875203056E+02  0.30105404646E+02  0.00000000000E+00 0.  1.
</event>
<event>
 5    1  0.1254496E-009  0.9118800E+02  0.7815553E-02  0.1125453E+00
         25   -1    0    0    0    0  0.00000000000E+00  0.00000000000E+00  0.99999998245E-14  0.12509000000E+03  0.12509000000E+03 0.  0.
        -13    1    3    3    0    0  0.57406989057E+01  0.54445604866E+02 -0.84482132091E+01  0.55395514111E+02  0.10566000000E+00 0. -1.
         23    2    1    0    0    0  0.16125207555E+02  0.17085594155E+02 -0.18190872113E+02  0.95377247274E+02  0.90630963931E+02 0.  0.
         13    1    3    3    0    0  0.10384508650E+02 -0.37360010711E+02 -0.97426589039E+01  0.39981733164E+02  0.10566000000E+00 0.  1.
         22    1    1    0    0    0 -0.16125207555E+02 -0.17085594155E+02  0.18190872113E+02  0.29712752726E+02  0.00000000000E+00 0. -1.
</event>
<event>
 5    1  0.1254496E-009  0.9118800E+02  0.7815553E-02  0.1125453E+00
         25   -1    0    0    0    0  0.00000000000E+00  0.00000000000E+00  0.99999998245E-14  0.12509000000E+03  0.12509000000E+03 0.  0.
        -13    1    3    3    0    0 -0.13788248786E+02  0.11323721666E+02  0.38864064221E+02  0.42764110289E+02  0.10566000000E+00 0.  1.
         23    2    1    0    0    0  0.42827261175E+01 -0.28117258309E+02  0.96980739380E+01  0.95040464298E+02  0.90164933639E+02 0.  0.
         13    1    3    3    0    0  0.18070974904E+02 -0.39440979974E+02 -0.29165990283E+02  0.52276354010E+02  0.10566000000E+00 0. -1.
         22    1    1    0    0    0 -0.42827261175E+01  0.28117258309E+02 -0.96980739380E+01  0.30049535702E+02  0.00000000000E+00 0. -1.
</event>
<event>
 5    1  0.1254496E-009  0.9118800E+02  0.7815553E-02  0.1125453E+00
         25   -1    0    0    0    0  0.00000000000E+00  0.00000000000E+00  0.99999998245E-14  0.12509000000E+03  0.12509000000E+03 0.  0.
        -13    1    3    3    0    0  0.49822903164E+02 -0.79916872902E+00 -0.11559638482E+02  0.51152680831E+02  0.10566000000E+00 0. -1.
         23    2    1    0    0    0  0.23134008475E+02  0.12997779648E+02  0.17781695875E+02  0.93147656127E+02  0.87499557198E+02 0.  0.
         13    1    3    3    0    0 -0.26688894689E+02  0.13796948377E+02  0.29341334357E+02  0.41994975296E+02  0.10566000000E+00 0.  1.
         22    1    1    0    0    0 -0.23134008475E+02 -0.12997779648E+02 -0.17781695875E+02  0.31942343873E+02  0.00000000000E+00 0. -1.
</event>
<event>
 5    1  0.1254496E-009  0.9118800E+02  0.7815553E-02  0.1125453E+00
         25   -1    0    0    0    0  0.00000000000E+00  0.00000000000E+00  0.99999998245E-14  0.12509000000E+03  0.12509000000E+03 0.  0.
        -13    1    3    3    0    0 -0.21036543661E+02  0.37992160055E+02 -0.15388645045E+02  0.46073440887E+02  0.10566000000E+00 0. -1.
         23    2    1    0    0    0 -0.22092216012E+02  0.59375605741E+01  0.20618553236E+02  0.94293159717E+02  0.89122133042E+02 0.  0.
         13    1    3    3    0    0 -0.10556723510E+01 -0.32054599480E+02  0.36007198281E+02  0.48219718830E+02  0.10566000000E+00 0.  1.
         22    1    1    0    0    0  0.22092216012E+02 -0.59375605741E+01 -0.20618553236E+02  0.30796840283E+02  0.00000000000E+00 0.  1.
</event>
<event>
 5    1  0.1254496E-009  0.9118800E+02  0.7815553E-02  0.1125453E+00
         25   -1    0    0    0    0  0.00000000000E+00  0.00000000000E+00  0.99999998245E-14  0.12509000000E+03  0.12509000000E+03 0.  0.
        -13    1    3    3    0    0  0.33010061645E+01  0.93814808029E+01  0.43486840569E+02  0.44609699511E+02  0.10566000000E+00 0.  1.
         23    2    1    0    0    0 -0.16520553011E+02  0.22508412479E+02 -0.31854073544E+01  0.96988325244E+02  0.92827965126E+02 0.  0.
         13    1    3    3    0    0 -0.19821559175E+02  0.13126931676E+02 -0.46672247923E+02  0.52378625732E+02  0.10566000000E+00 0. -1.
         22    1    1    0    0    0  0.16520553011E+02 -0.22508412479E+02  0.31854073544E+01  0.28101674756E+02  0.00000000000E+00 0.  1.
</event>
<event>
 5    1  0.1254496E-009  0.9118800E+02  0.7815553E-02  0.1125453E+00
         25   -1    0    0    0    0  0.00000000000E+00  0.00000000000E+00  0.99999998245E-14  0.12509000000E+03  0.12509000000E+03 0.  0.
        -13    1    3    3    0    0 -0.27098731840E+02 -0.29071228571E+02  0.47007042830E+02  0.61556078803E+02  0.10566000000E+00 0.  1.
         23    2    1    0    0    0 -0.94901876747E+01 -0.21326083350E+02  0.22994120773E+02  0.92324239162E+02  0.86314367597E+02 0.  0.
         13    1    3    3    0    0  0.17608544165E+02  0.77451452213E+01 -0.24012922057E+02  0.30768160359E+02  0.10566000000E+00 0. -1.
         22    1    1    0    0    0  0.94901876747E+01  0.21326083350E+02 -0.22994120773E+02  0.32765760838E+02  0.00000000000E+00 0.  1.
</event>
<event>
 5    1  0.1254496E-009  0.9118800E+02  0.7815553E-02  0.1125453E+00
         25   -1    0    0    0    0  0.00000000000E+00  0.00000000000E+00  0.99999998245E-14  0.12509000000E+03  0.12509000000E+03 0.  0.
        -13    1    3    3    0    0  0.29881267228E+02 -0.45817670956E+00  0.15716761462E+02  0.33765778711E+02  0.10566000000E+00 0. -1.
         23    2    1    0    0    0 -0.25147170008E+02 -0.75277423033E+01 -0.12507151165E+02  0.96012931821E+02  0.91504137519E+02 0.  0.
         13    1    3    3    0    0 -0.55028437236E+02 -0.70695655938E+01 -0.28223912627E+02  0.62247153111E+02  0.10566000000E+00 0.  1.
         22    1    1    0    0    0  0.25147170008E+02  0.75277423033E+01  0.12507151165E+02  0.29077068179E+02  0.00000000000E+00 0.  1.
</event>
<event>
 5    1  0.1254496E-009  0.9118800E+02  0.7815553E-02  0.1125453E+00
         25   -1    0    0    0    0  0.00000000000E+00  0.00000000000E+00  0.99999998245E-14  0.12509000000E+03  0.12509000000E+03 0.  0.
        -13    1    3    3    0    0 -0.25295667734E+02 -0.38173804693E+02  0.36040134458E+02  0.58275317473E+02  0.10566000000E+00 0.  1.
         23    2    1    0    0    0  0.39244020169E+01 -0.22354283127E+02  0.18254848099E+02  0.95963476273E+02  0.91436504712E+02 0.  0.
         13    1    3    3    0    0  0.29220069751E+02  0.15819521566E+02 -0.17785286359E+02  0.37688158800E+02  0.10566000000E+00 0. -1.
         22    1    1    0    0    0 -0.39244020169E+01  0.22354283127E+02 -0.18254848099E+02  0.29126523727E+02  0.00000000000E+00 0.  1.
</event>
<event>
 5    1  0.1254496E-009  0.9118800E+02  0.7815553E-02  0.1125453E+00
         25   -1    0    0    0    0  0.00000000000E+00  0.00000000000E+00  0.99999998245E-14  0.12509000000E+03  0.12509000000E+03 0.  0.
        -13    1    3    3    0    0  0.18392163629E+02 -0.22212150723E+01  0.36756833793E+02  0.41161650524E+02  0.10566000000E+00 0.  1.
         23    2    1    0    0    0 -0.38818090197E+01 -0.29983012637E+02 -0.32180773737E+01  0.94685962274E+02  0.89671767808E+02 0.  0.
         13    1    3    3    0    0 -0.22273972648E+02 -0.27761797565E+02 -0.39974911166E+02  0.53524311750E+02  0.10566000000E+00 0. -1.
         22    1    1    0    0    0  0.38818090197E+01  0.29983012637E+02  0.32180773737E+01  0.30404037726E+02  0.00000000000E+00 0. -1.
</event>
<event>
 5    1  0.1254496E-009  0.9118800E+02  0.7815553E-02  0.1125453E+00
         25   -1    0    0    0    0  0.00000000000E+00  0.00000000000E+00  0.99999998245E-14  0.12509000000E+03  0.12509000000E+03 0.  0.
        -13    1    3    3    0    0 -0.10180311866E+02 -0.11408731558E+01 -0.34359512518E+02  0.35854255058E+02  0.10566000000E+00 0. -1.
         23    2    1    0    0    0  0.26403167028E+02 -0.62131109978E+01  0.12253926889E+02  0.95326117498E+02  0.90560366473E+02 0.  0.
         13    1    3    3    0    0  0.36583478894E+02 -0.50722378420E+01  0.46613439407E+02  0.59471862440E+02  0.10566000000E+00 0.  1.
         22    1    1    0    0    0 -0.26403167028E+02  0.62131109978E+01 -0.12253926889E+02  0.29763882502E+02  0.00000000000E+00 0.  1.
</event>
<event>
 5    1  0.1254496E-009  0.9118800E+02  0.7815553E-02  0.1125453E+00
         25   -1    0    0    0    0  0.00000000000E+00  0.00000000000E+00  0.99999998245E-14  0.12509000000E+03  0.12509000000E+03 0.  0.
        -13    1    3    3    0    0 -0.38871322586E+02 -0.24622475181E+02 -0.19817152746E+02  0.50099667770E+02  0.10566000000E+00 0. -1.
         23    2    1    0    0    0  0.93603248617E+01 -0.20411019416E+02 -0.13406127717E+02  0.98937568842E+02  0.95418514308E+02 0.  0.
         13    1    3    3    0    0  0.48231647448E+02  0.42114557653E+01  0.64110250286E+01  0.48837901072E+02  0.10566000000E+00 0.  1.
         22    1    1    0    0    0 -0.93603248617E+01  0.20411019416E+02  0.13406127717E+02  0.26152431158E+02  0.00000000000E+00 0. -1.
</event>
<event>
 5    1  0.1254496E-009  0.9118800E+02  0.7815553E-02  0.1125453E+00
         25   -1    0    0    0    0  0.00000000000E+00  0.00000000000E+00  0.99999998245E-14  0.12509000000E+03  0.12509000000E+03 0.  0.
        -13    1    3    3    0    0  0.54440662081E+00 -0.50099026614E+02  0.36102038158E+02  0.61754167223E+02  0.10566000000E+00 0.  1.
         23    2    1    0    0    0 -0.25097321098E+01 -0.19079811177E+02  0.21688039066E+02  0.96095017877E+02  0.91616283882E+02 0.  0.
         13    1    3    3    0    0 -0.30541387306E+01  0.31019215437E+02 -0.14413999092E+02  0.34340850653E+02  0.10566000000E+00 0. -1.
         22    1    1    0    0    0  0.25097321098E+01  0.19079811177E+02 -0.21688039066E+02  0.28994982123E+02  0.00000000000E+00 0.  1.
</event>
<event>
 5    1  0.1254496E-009  0.9118800E+02  0.7815553E-02  0.1125453E+00
         25   -1    0    0    0    0  0.00000000000E+00  0.00000000000E+00  0.99999998245E-14  0.12509000000E+03  0.12509000000E+03 0.  0.
        -13    1    3    3    0    0 -0.13294445921E+02  0.17595694735E+02 -0.37260522258E+02  0.43297903512E+02  0.10566000000E+00 0.  1.
         23    2    1    0    0    0  0.19690671007E+02 -0.15680510499E+02 -0.18864053289E+02  0.93634421151E+02  0.88192694616E+02 0.  0.
         13    1    3    3    0    0  0.32985116928E+02 -0.33276205234E+02  0.18396468969E+02  0.50336517639E+02  0.10566000000E+00 0. -1.
         22    1    1    0    0    0 -0.19690671007E+02  0.15680510499E+02  0.18864053289E+02  0.31455578849E+02  0.00000000000E+00 0.  1.
</event>
<event>
 5    1  0.1254496E-009  0.9118800E+02  0.7815553E-02  0.1125453E+00
         25   -1    0    0    0    0  0.00000000000E+00  0.00000000000E+00  0.99999998245E-14  0.12509000000E+03  0.12509000000E+03 0.  0.
        -13    1    3    3    0    0  0.14508214915E+02  0.63340271652E+01  0.11684651376E+02  0.19676138899E+02  0.10566000000E+00 0. -1.
         23    2    1    0    0    0  0.37182604302E+01 -0.35771228447E+02 -0.28754110682E+02  0.79044314791E+02  0.64247946071E+02 0.  0.
         13    1    3    3    0    0 -0.10789954485E+02 -0.42105255612E+02 -0.40438762058E+02  0.59368175892E+02  0.10566000000E+00 0.  1.
         22    1    1    0    0    0 -0.37182604302E+01  0.35771228447E+02  0.28754110682E+02  0.46045685209E+02  0.00000000000E+00 0.  1.
</event>
<event>
 5    1  0.1254496E-009  0.9118800E+02  0.7815553E-02  0.1125453E+00
         25   -1    0    0    0    0  0.00000000000E+00  0.00000000000E+00  0.99999998245E-14  0.12509000000E+03  0.12509000000E+03 0.  0.
        -13    1    3    3    0    0  0.39516792615E+02  0.40279363611E+01 -0.11958532321E+02  0.41482753395E+02  0.10566000000E+00 0.  1.
         23    2    1    0    0    0  0.35329328337E+01  0.11584155398E+02  0.27271531336E+02  0.95250249798E+02  0.90455510581E+02 0.  0.
         13    1    3    3    0    0 -0.35983859781E+02  0.75562190368E+01  0.39230063657E+02  0.53767496403E+02  0.10566000000E+00 0. -1.
         22    1    1    0    0    0 -0.35329328337E+01 -0.11584155398E+02 -0.27271531336E+02  0.29839750202E+02  0.00000000000E+00 0. -1.
</event>
<event>
 5    1  0.1254496E-009  0.9118800E+02  0.7815553E-02  0.1125453E+00
         25   -1    0    0    0    0  0.00000000000E+00  0.00000000000E+00  0.99999998245E-14  0.12509000000E+03  0.12509000000E+03 0.  0.
        -13    1    3    3    0    0 -0.10241240771E+02 -0.30629109145E+02  0.49837578413E+02  0.59387041732E+02  0.10566000000E+00 0.  1.
         23    2    1    0    0    0 -0.17110224104E+02 -0.76512777226E+01  0.23974362420E+02  0.94658570965E+02  0.89633549434E+02 0.  0.
         13    1    3    3    0    0 -0.68689833329E+01  0.22977831422E+02 -0.25863215994E+02  0.35271529233E+02  0.10566000000E+00 0. -1.
         22    1    1    0    0    0  0.17110224104E+02  0.76512777226E+01 -0.23974362420E+02  0.30431429035E+02  0.00000000000E+00 0.  1.
</event>
<event>
 5    1  0.1254496E-009  0.9118800E+02  0.7815553E-02  0.1125453E+00
         25   -1    0    0    0    0  0.00000000000E+00  0.00000000000E+00  0.99999998245E-14  0.12509000000E+03  0.12509000000E+03 0.  0.
        -13    1    3    3    0    0 -0.41458681726E+02 -0.27980681138E+02  0.26829621095E+02  0.56758968803E+02  0.10566000000E+00 0. -1.
         23    2    1    0    0    0 -0.57798205138E+01 -0.15456867914E+02  0.25649431481E+02  0.94590583183E+02  0.89538617371E+02 0.  0.
         13    1    3    3    0    0  0.35678861212E+02  0.12523813224E+02 -0.11801896138E+01  0.37831614380E+02  0.10566000000E+00 0.  1.
         22    1    1    0    0    0  0.57798205138E+01  0.15456867914E+02 -0.25649431481E+02  0.30499416817E+02  0.00000000000E+00 0. -1.
</event>
<event>
 5    1  0.1254496E-009  0.9118800E+02  0.7815553E-02  0.1125453E+00
         25   -1    0    0    0    0  0.00000000000E+00  0.00000000000E+00  0.99999998245E-14  0.12509000000E+03  0.12509000000E+03 0.  0.
        -13    1    3    3    0    0  0.13399444674E+02 -0.28693512679E+02 -0.18806254656E+02  0.36831361170E+02  0.10566000000E+00 0.  1.
         23    2    1    0    0    0  0.21750219461E+02  0.23926643207E+02 -0.20202120744E+01  0.92691889583E+02  0.86845545861E+02 0.  0.
         13    1    3    3    0    0  0.83507747868E+01  0.52620155886E+02  0.16786042581E+02  0.55860528413E+02  0.10566000000E+00 0. -1.
         22    1    1    0    0    0 -0.21750219461E+02 -0.23926643207E+02  0.20202120744E+01  0.32398110417E+02  0.00000000000E+00 0. -1.
</event>
<event>
 5    1  0.1254496E-009  0.9118800E+02  0.7815553E-02  0.1125453E+00
         25   -1    0    0    0    0  0.00000000000E+00  0.00000000000E+00  0.99999998245E-14  0.12509000000E+03  0.12509000000E+03 0.  0.
        -13    1    3    3    0    0 -0.26563733372E+02  0.29604238764E+02 -0.40438915963E+02  0.56721776874E+02  0.10566000000E+00 0.  1.
         23    2    1    0    0    0 -0.25270391176E+02  0.27204350690E+00 -0.14181604238E+02  0.96110963152E+02  0.91638052475E+02 0.  0.
         13    1    3    3    0    0  0.12933421957E+01 -0.29332195257E+02  0.26257311725E+02  0.39389186278E+02  0.10566000000E+00 0. -1.
         22    1    1    0    0    0  0.25270391176E+02 -0.27204350690E+00  0.14181604238E+02  0.28979036848E+02  0.00000000000E+00 0.  1.
</event>
<event>
 5    1  0.1254496E-009  0.9118800E+02  0.7815553E-02  0.1125453E+00
         25   -1    0    0    0    0  0.00000000000E+00  0.00000000000E+00  0.99999998245E-14  0.12509000000E+03  0.12509000000E+03 0.  0.
        -13    1    3    3    0    0 -0.26553623049E+02 -0.10333708463E+02 -0.54765426630E+02  0.61734459953E+02  0.10566000000E+00 0.  1.
         23    2    1    0    0    0 -0.12617072999E+02 -0.11828286789E+02 -0.24361252376E+02  0.95214098059E+02  0.90405502888E+02 0.  0.
         13    1    3    3    0    0  0.13936550050E+02 -0.14945783261E+01  0.30404174254E+02  0.33479638107E+02  0.10566000000E+00 0. -1.
         22    1    1    0    0    0  0.12617072999E+02  0.11828286789E+02  0.24361252376E+02  0.29875901941E+02  0.00000000000E+00 0.  1.
</event>
<event>
 5    1  0.1254496E-009  0.9118800E+02  0.7815553E-02  0.1125453E+00
         25   -1    0    0    0    0  0.00000000000E+00  0.00000000000E+00  0.99999998245E-14  0.12509000000E+03  0.12509000000E+03 0.  0.
        -13    1    3    3    0    0 -0.23672573551E+02 -0.26299605407E+02  0.13826417996E+02  0.37990011604E+02  0.10566000000E+00 0. -1.
         23    2    1    0    0    0 -0.16073588051E+02  0.26815531417E+02  0.11765074700E+02  0.91685659851E+02  0.85383899429E+02 0.  0.
         13    1    3    3    0    0  0.75989854994E+01  0.53115136824E+02 -0.20613432950E+01  0.53695648247E+02  0.10566000000E+00 0.  1.
         22    1    1    0    0    0  0.16073588051E+02 -0.26815531417E+02 -0.11765074700E+02  0.33404340149E+02  0.00000000000E+00 0.  1.
</event>
<event>
 5    1  0.1254496E-009  0.9118800E+02  0.7815553E-02  0.1125453E+00
         25   -1    0    0    0    0  0.00000000000E+00  0.00000000000E+00  0.99999998245E-14  0.12509000000E+03  0.12509000000E+03 0.  0.
        -13    1    3    3    0    0  0.20283280498E+02 -0.16746149102E+02 -0.22050238463E+02  0.34323012074E+02  0.10566000000E+00 0.  1.
         23    2    1    0    0    0 -0.16130006876E+02 -0.33128073000E+01  0.24899370399E+02  0.95238191674E+02  0.90438833988E+02 0.  0.
         13    1    3    3    0    0 -0.36413287374E+02  0.13433341802E+02  0.46949608863E+02  0.60915179600E+02  0.10566000000E+00 0. -1.
         22    1    1    0    0    0  0.16130006876E+02  0.33128073000E+01 -0.24899370399E+02  0.29851808326E+02  0.00000000000E+00 0. -1.
</event>
<event>
 5    1  0.1254496E-009  0.9118800E+02  0.7815553E-02  0.1125453E+00
         25   -1    0    0    0    0  0.00000000000E+00  0.00000000000E+00  0.99999998245E-14  0.12509000000E+03  0.12509000000E+03 0.  0.
        -13    1    3    3    0    0  0.15180671045E+02 -0.33924741430E+02 -0.24840887591E+02  0.44703710303E+02  0.10566000000E+00 0. -1.
         23    2    1    0    0    0  0.21771508911E+02  0.32060588074E+01  0.14133416322E+02  0.98936016169E+02  0.95416478792E+02 0.  0.
         13    1    3    3    0    0  0.65908378658E+01  0.37130800238E+02  0.38974303912E+02  0.54232305866E+02  0.10566000000E+00 0.  1.
         22    1    1    0    0    0 -0.21771508911E+02 -0.32060588074E+01 -0.14133416322E+02  0.26153983831E+02  0.00000000000E+00 0. -1.
</event>
<event>
 5    1  0.1254496E-009  0.9118800E+02  0.7815553E-02  0.1125453E+00
         25   -1    0    0    0    0  0.00000000000E+00  0.00000000000E+00  0.99999998245E-14  0.12509000000E+03  0.12509000000E+03 0.  0.
        -13    1    3    3    0    0 -0.42291287551E+01  0.86325488428E+01 -0.33364891239E+02  0.34722234389E+02  0.10566000000E+00 0.  1.
         23    2    1    0    0    0  0.17226329672E+02  0.93535110698E+01  0.22901610224E+02  0.94945044300E+02  0.90032455721E+02 0.  0.
         13    1    3    3    0    0  0.21455458427E+02  0.72096222704E+00  0.56266501462E+02  0.60222809912E+02  0.10566000000E+00 0. -1.
         22    1    1    0    0    0 -0.17226329672E+02 -0.93535110698E+01 -0.22901610224E+02  0.30144955700E+02  0.00000000000E+00 0. -1.
</event>
<event>
 5    1  0.1254496E-009  0.9118800E+02  0.7815553E-02  0.1125453E+00
         25   -1    0    0    0    0  0.00000000000E+00  0.00000000000E+00  0.99999998245E-14  0.12509000000E+03  0.12509000000E+03 0.  0.
        -13    1    3    3    0    0  0.27473186647E+02 -0.55711093950E+02  0.29743144328E+01  0.62188099215E+02  0.10566000000E+00 0. -1.
         23    2    1    0    0    0  0.12618696351E+02 -0.24546883901E+02 -0.33530794228E+01  0.97286688175E+02  0.93229156103E+02 0.  0.
         13    1    3    3    0    0 -0.14854490296E+02  0.31164210049E+02 -0.63273938557E+01  0.35098588960E+02  0.10566000000E+00 0.  1.
         22    1    1    0    0    0 -0.12618696351E+02  0.24546883901E+02  0.33530794228E+01  0.27803311825E+02  0.00000000000E+00 0. -1.
</event>
<event>
 5    1  0.1254496E-009  0.9118800E+02  0.7815553E-02  0.1125453E+00
         25   -1    0    0    0    0  0.00000000000E+00  0.00000000000E+00  0.99999998245E-14  0.12509000000E+03  0.12509000000E+03 0.  0.
        -13    1    3    3    0    0 -0.16487533561E+02  0.10399722638E+02 -0.31022064169E+02  0.36638403666E+02  0.10566000000E+00 0. -1.
         23    2    1    0    0    0  0.12296497001E+02 -0.27156045447E+02  0.33061956691E+01  0.95096907918E+02  0.90243206520E+02 0.  0.
         13    1    3    3    0    0  0.28784030562E+02 -0.37555768085E+02  0.34328259838E+02  0.58458504252E+02  0.10566000000E+00 0.  1.
         22    1    1    0    0    0 -0.12296497001E+02  0.27156045447E+02 -0.33061956691E+01  0.29993092082E+02  0.00000000000E+00 0.  1.
</event>
<event>
 5    1  0.1254496E-009  0.9118800E+02  0.7815553E-02  0.1125453E+00
         25   -1    0    0    0    0  0.00000000000E+00  0.00000000000E+00  0.99999998245E-14  0.12509000000E+03  0.12509000000E+03 0.  0.
        -13    1    3    3    0    0  0.10486086708E+02 -0.14418435816E+02  0.27459283927E+02  0.32739467675E+02  0.10566000000E+00 0. -1.
         23    2    1    0    0    0 -0.11400089671E+02 -0.13844309375E+02 -0.27703538497E+02  0.92088288047E+02  0.85971738401E+02 0.  0.
         13    1    3    3    0    0 -0.21886176379E+02  0.57412644066E+00 -0.55162822424E+02  0.59348820372E+02  0.10566000000E+00 0.  1.
         22    1    1    0    0    0  0.11400089671E+02  0.13844309375E+02  0.27703538497E+02  0.33001711953E+02  0.00000000000E+00 0.  1.
</event>
<event>
 5    1  0.1254496E-009  0.9118800E+02  0.7815553E-02  0.1125453E+00
         25   -1    0    0    0    0  0.00000000000E+00  0.00000000000E+00  0.99999998245E-14  0.12509000000E+03  0.12509000000E+03 0.  0.
        -13    1    3    3    0    0  0.73182292080E+01  0.26916861948E+02  0.36568305256E+02  0.45992673865E+02  0.10566000000E+00 0.  1.
         23    2    1    0    0    0  0.23076722737E+02  0.15253725578E+02 -0.93248889840E+01  0.95898137592E+02  0.91347074189E+02 0.  0.
         13    1    3    3    0    0  0.15758493528E+02 -0.11663136370E+02 -0.45893194240E+02  0.49905463728E+02  0.10566000000E+00 0. -1.
         22    1    1    0    0    0 -0.23076722737E+02 -0.15253725578E+02  0.93248889840E+01  0.29191862408E+02  0.00000000000E+00 0.  1.
</event>
<event>
 5    1  0.1254496E-009  0.9118800E+02  0.7815553E-02  0.1125453E+00
         25   -1    0    0    0    0  0.00000000000E+00  0.00000000000E+00  0.99999998245E-14  0.12509000000E+03  0.12509000000E+03 0.  0.
        -13    1    3    3    0    0  0.22081539464E+02 -0.36871026573E+02  0.38243163673E+02  0.57529277046E+02  0.10566000000E+00 0. -1.
         23    2    1    0    0    0  0.94359539828E+01 -0.26684264174E+02  0.26365193224E+01  0.96663983462E+02  0.92389865691E+02 0.  0.
         13    1    3    3    0    0 -0.12645585481E+02  0.10186762398E+02 -0.35606644351E+02  0.39134706416E+02  0.10566000000E+00 0.  1.
         22    1    1    0    0    0 -0.94359539828E+01  0.26684264174E+02 -0.26365193224E+01  0.28426016538E+02  0.00000000000E+00 0. -1.
</event>
<event>
 5    1  0.1254496E-009  0.9118800E+02  0.7815553E-02  0.1125453E+00
         25   -1    0    0    0    0  0.00000000000E+00  0.00000000000E+00  0.99999998245E-14  0.12509000000E+03  0.12509000000E+03 0.  0.
        -13    1    3    3    0    0  0.33493252142E+02  0.63213449918E+01 -0.49603564955E+02  0.60185398244E+02  0.10566000000E+00 0.  1.
         23    2    1    0    0    0  0.18479427750E+02  0.13740160030E+02 -0.18342452092E+02  0.95649775878E+02  0.91006334005E+02 0.  0.
         13    1    3    3    0    0 -0.15013824391E+02  0.74188150382E+01  0.31261112863E+02  0.35464377633E+02  0.10566000000E+00 0. -1.
         22    1    1    0    0    0 -0.18479427750E+02 -0.13740160030E+02  0.18342452092E+02  0.29440224122E+02  0.00000000000E+00 0.  1.
</event>
<event>
 5    1  0.1254496E-009  0.9118800E+02  0.7815553E-02  0.1125453E+00
         25   -1    0    0    0    0  0.00000000000E+00  0.00000000000E+00  0.99999998245E-14  0.12509000000E+03  0.12509000000E+03 0.  0.
        -13    1    3    3    0    0 -0.33108714670E+02  0.43757889614E+02 -0.29947196859E+01  0.54953793323E+02  0.10566000000E+00 0. -1.
         23    2    1    0    0    0 -0.22336970444E+02  0.97685876332E+01  0.16558536007E+02  0.95618816317E+02  0.90963769525E+02 0.  0.
         13    1    3    3    0    0  0.10771744226E+02 -0.33989301981E+02  0.19553255693E+02  0.40665022994E+02  0.10566000000E+00 0.  1.
         22    1    1    0    0    0  0.22336970444E+02 -0.97685876332E+01 -0.16558536007E+02  0.29471183683E+02  0.00000000000E+00 0. -1.
</event>
<event>
 5    1  0.1254496E-009  0.9118800E+02  0.7815553E-02  0.1125453E+00
         25   -1    0    0    0    0  0.00000000000E+00  0.00000000000E+00  0.99999998245E-14  0.12509000000E+03  0.12509000000E+03 0.  0.
        -13    1    3    3    0    0  0.31662854699E+02  0.26466504507E+02  0.39818866582E+02  0.57346015802E+02  0.10566000000E+00 0.  1.
         23    2    1    0    0    0  0.57093049630E+01  0.26868098279E+02  0.12890997402E+02  0.94747477325E+02  0.89757538831E+02 0.  0.
         13    1    3    3    0    0 -0.25953549736E+02  0.40159377219E+00 -0.26927869180E+02  0.37401461523E+02  0.10566000000E+00 0. -1.
         22    1    1    0    0    0 -0.57093049630E+01 -0.26868098279E+02 -0.12890997402E+02  0.30342522675E+02  0.00000000000E+00 0.  1.
</event>
<event>
 5    1  0.1254496E-009  0.9118800E+02  0.7815553E-02  0.1125453E+00
         25   -1    0    0    0    0  0.00000000000E+00  0.00000000000E+00  0.99999998245E-14  0.12509000000E+03  0.12509000000E+03 0.  0.
        -13    1    3    3    0    0  0.14237744512E+02 -0.45574264758E+02 -0.17811796660E+02  0.50960751970E+02  0.10566000000E+00 0.  1.
         23    2    1    0    0    0  0.17785139581E+02 -0.17698886727E+02  0.16309827609E+02  0.95163886689E+02  0.90336000973E+02 0.  0.
         13    1    3    3    0    0  0.35473950687E+01  0.27875378031E+02  0.34121624269E+02  0.44203134719E+02  0.10566000000E+00 0. -1.
         22    1    1    0    0    0 -0.17785139581E+02  0.17698886727E+02 -0.16309827609E+02  0.29926113311E+02  0.00000000000E+00 0.  1.
</event>
<event>
 5    1  0.1254496E-009  0.9118800E+02  0.7815553E-02  0.1125453E+00
         25   -1    0    0    0    0  0.00000000000E+00  0.00000000000E+00  0.99999998245E-14  0.12509000000E+03  0.12509000000E+03 0.  0.
        -13    1    3    3    0    0  0.55675459954E+01 -0.13054965259E+01 -0.56800994474E+02  0.57088230195E+02  0.10566000000E+00 0.  1.
         23    2    1    0    0    0  0.37997986625E+01 -0.18580485464E+02 -0.21558047068E+02  0.96377244936E+02  0.92000820856E+02 0.  0.
         13    1    3    3    0    0 -0.17677473329E+01 -0.17274988939E+02  0.35242947405E+02  0.39289014741E+02  0.10566000000E+00 0. -1.
         22    1    1    0    0    0 -0.37997986625E+01  0.18580485464E+02  0.21558047068E+02  0.28712755064E+02  0.00000000000E+00 0.  1.
</event>
<event>
 5    1  0.1254496E-009  0.9118800E+02  0.7815553E-02  0.1125453E+00
         25   -1    0    0    0    0  0.00000000000E+00  0.00000000000E+00  0.99999998245E-14  0.12509000000E+03  0.12509000000E+03 0.  0.
        -13    1    3    3    0    0 -0.37390274979E+02  0.50192675584E+01  0.13513516053E+01  0.37750006954E+02  0.10566000000E+00 0. -1.
         23    2    1    0    0    0  0.16745582171E+02  0.12932914466E+02  0.20416017029E+02  0.95687813854E+02  0.91058602943E+02 0.  0.
         13    1    3    3    0    0  0.54135857149E+02  0.79136469077E+01  0.19064665424E+02  0.57937806900E+02  0.10566000000E+00 0.  1.
         22    1    1    0    0    0 -0.16745582171E+02 -0.12932914466E+02 -0.20416017029E+02  0.29402186146E+02  0.00000000000E+00 0.  1.
</event>
<event>
 5    1  0.1254496E-009  0.9118800E+02  0.7815553E-02  0.1125453E+00
         25   -1    0    0    0    0  0.00000000000E+00  0.00000000000E+00  0.99999998245E-14  0.12509000000E+03  0.12509000000E+03 0.  0.
        -13    1    3    3    0    0 -0.28207892255E+02  0.37538613582E+02 -0.62368434223E+01  0.47368154651E+02  0.10566000000E+00 0. -1.
         23    2    1    0    0    0 -0.11909076072E+02 -0.16619657078E+02 -0.54446660971E+01  0.10393146784E+03  0.10175493366E+03 0.  0.
         13    1    3    3    0    0  0.16298816183E+02 -0.54158270660E+02  0.79217732519E+00  0.56563313188E+02  0.10566000000E+00 0.  1.
         22    1    1    0    0    0  0.11909076072E+02  0.16619657078E+02  0.54446660971E+01  0.21158532161E+02  0.00000000000E+00 0. -1.
</event>
<event>
 5    1  0.1254496E-009  0.9118800E+02  0.7815553E-02  0.1125453E+00
         25   -1    0    0    0    0  0.00000000000E+00  0.00000000000E+00  0.99999998245E-14  0.12509000000E+03  0.12509000000E+03 0.  0.
        -13    1    3    3    0    0  0.15281264334E+02 -0.49678021873E+02  0.21834631276E+01  0.52021164655E+02  0.10566000000E+00 0.  1.
         23    2    1    0    0    0 -0.18851883001E+02 -0.22543549277E+02  0.21291158438E+01  0.95625814267E+02  0.90973392337E+02 0.  0.
         13    1    3    3    0    0 -0.34133147335E+02  0.27134472596E+02 -0.54347283879E-01  0.43604649611E+02  0.10566000000E+00 0. -1.
         22    1    1    0    0    0  0.18851883001E+02  0.22543549277E+02 -0.21291158438E+01  0.29464185733E+02  0.00000000000E+00 0. -1.
</event>
<event>
 5    1  0.1254496E-009  0.9118800E+02  0.7815553E-02  0.1125453E+00
         25   -1    0    0    0    0  0.00000000000E+00  0.00000000000E+00  0.99999998245E-14  0.12509000000E+03  0.12509000000E+03 0.  0.
        -13    1    3    3    0    0 -0.34681234728E+02 -0.19575200855E+02  0.31839627874E+02  0.50987739682E+02  0.10566000000E+00 0. -1.
         23    2    1    0    0    0 -0.20664642709E+02  0.17617693956E+02  0.12252812350E+02  0.95298356724E+02  0.90522012710E+02 0.  0.
         13    1    3    3    0    0  0.14016592018E+02  0.37192894810E+02 -0.19586815524E+02  0.44310617041E+02  0.10566000000E+00 0.  1.
         22    1    1    0    0    0  0.20664642709E+02 -0.17617693956E+02 -0.12252812350E+02  0.29791643276E+02  0.00000000000E+00 0.  1.
</event>
<event>
 5    1  0.1254496E-009  0.9118800E+02  0.7815553E-02  0.1125453E+00
         25   -1    0    0    0    0  0.00000000000E+00  0.00000000000E+00  0.99999998245E-14  0.12509000000E+03  0.12509000000E+03 0.  0.
        -13    1    3    3    0    0 -0.26851136236E+00  0.58193315718E+02  0.14094756814E+02  0.59876601659E+02  0.10566000000E+00 0.  1.
         23    2    1    0    0    0  0.12563822888E+02  0.27388765817E+02  0.43229766226E+01  0.94648543638E+02  0.89619554493E+02 0.  0.
         13    1    3    3    0    0  0.12832334250E+02 -0.30804549901E+02 -0.97717801912E+01  0.34771941979E+02  0.10566000000E+00 0. -1.
         22    1    1    0    0    0 -0.12563822888E+02 -0.27388765817E+02 -0.43229766226E+01  0.30441456362E+02  0.00000000000E+00 0.  1.
</event>
<event>
 5    1  0.1254496E-009  0.9118800E+02  0.7815553E-02  0.1125453E+00
         25   -1    0    0    0    0  0.00000000000E+00  0.00000000000E+00  0.99999998245E-14  0.12509000000E+03  0.12509000000E+03 0.  0.
        -13    1    3    3    0    0 -0.31086578559E+02  0.25866100017E+02 -0.31607241934E+02  0.51326985138E+02  0.10566000000E+00 0. -1.
         23    2    1    0    0    0 -0.15553472724E+02 -0.15768979885E+02 -0.12008143421E+02  0.99895422233E+02  0.96666067647E+02 0.  0.
         13    1    3    3    0    0  0.15533105835E+02 -0.41635079903E+02  0.19599098513E+02  0.48568437096E+02  0.10566000000E+00 0.  1.
         22    1    1    0    0    0  0.15553472724E+02  0.15768979885E+02  0.12008143421E+02  0.25194577767E+02  0.00000000000E+00 0. -1.
</event>
<event>
 5    1  0.1254496E-009  0.9118800E+02  0.7815553E-02  0.1125453E+00
         25   -1    0    0    0    0  0.00000000000E+00  0.00000000000E+00  0.99999998245E-14  0.12509000000E+03  0.12509000000E+03 0.  0.
        -13    1    3    3    0    0  0.32904151675E+02 -0.17519299212E+02 -0.14622798080E+02  0.40043057201E+02  0.10566000000E+00 0. -1.
         23    2    1    0    0    0  0.25757116154E+00 -0.16826604643E+02  0.27200758480E+02  0.93104343393E+02  0.87437615075E+02 0.  0.
         13    1    3    3    0    0 -0.32646580513E+02  0.69269456911E+00  0.41823556560E+02  0.53061286191E+02  0.10566000000E+00 0.  1.
         22    1    1    0    0    0 -0.25757116154E+00  0.16826604643E+02 -0.27200758480E+02  0.31985656607E+02  0.00000000000E+00 0.  1.
</event>
<event>
 5    1  0.1254496E-009  0.9118800E+02  0.7815553E-02  0.1125453E+00
         25   -1    0    0    0    0  0.00000000000E+00  0.00000000000E+00  0.99999998245E-14  0.12509000000E+03  0.12509000000E+03 0.  0.
        -13    1    3    3    0    0  0.15938750558E+02  0.76281937027E+00  0.27353179745E+02  0.31667542831E+02  0.10566000000E+00 0.  1.
         23    2    1    0    0    0 -0.13528496018E+02  0.32702036444E+00 -0.27783495003E+02  0.94186120933E+02  0.88971768753E+02 0.  0.
         13    1    3    3    0    0 -0.29467246576E+02 -0.43579900582E+00 -0.55136674748E+02  0.62518578102E+02  0.10566000000E+00 0. -1.
         22    1    1    0    0    0  0.13528496018E+02 -0.32702036444E+00  0.27783495003E+02  0.30903879067E+02  0.00000000000E+00 0. -1.
</event>
<event>
 5    1  0.1254496E-009  0.9118800E+02  0.7815553E-02  0.1125453E+00
         25   -1    0    0    0    0  0.00000000000E+00  0.00000000000E+00  0.99999998245E-14  0.12509000000E+03  0.12509000000E+03 0.  0.
        -13    1    3    3    0    0 -0.95779023422E+01 -0.13812905676E+02 -0.38339843655E+02  0.41862720313E+02  0.10566000000E+00 0.  1.
         23    2    1    0    0    0  0.13323881767E+02  0.21961094275E+02  0.46896663176E+00  0.99398845554E+02  0.96021326176E+02 0.  0.
         13    1    3    3    0    0  0.22901784109E+02  0.35773999950E+02  0.38808810287E+02  0.57536125241E+02  0.10566000000E+00 0. -1.
         22    1    1    0    0    0 -0.13323881767E+02 -0.21961094275E+02 -0.46896663176E+00  0.25691154446E+02  0.00000000000E+00 0. -1.
</event>
<event>
 5    1  0.1254496E-009  0.9118800E+02  0.7815553E-02  0.1125453E+00
         25   -1    0    0    0    0  0.00000000000E+00  0.00000000000E+00  0.99999998245E-14  0.12509000000E+03  0.12509000000E+03 0.  0.
        -13    1    3    3    0    0  0.20072306423E+02  0.28281840463E+02 -0.26435002714E+02  0.43607115447E+02  0.10566000000E+00 0.  1.
         23    2    1    0    0    0  0.20428290465E+02 -0.54499291929E+00  0.18848860224E+02  0.97289071952E+02  0.93232354474E+02 0.  0.
         13    1    3    3    0    0  0.35598404205E+00 -0.28826833382E+02  0.45283862939E+02  0.53681956504E+02  0.10566000000E+00 0. -1.
         22    1    1    0    0    0 -0.20428290465E+02  0.54499291929E+00 -0.18848860224E+02  0.27800928048E+02  0.00000000000E+00 0. -1.
</event>
<event>
 5    1  0.1254496E-009  0.9118800E+02  0.7815553E-02  0.1125453E+00
         25   -1    0    0    0    0  0.00000000000E+00  0.00000000000E+00  0.99999998245E-14  0.12509000000E+03  0.12509000000E+03 0.  0.
        -13    1    3    3    0    0  0.92652313960E+01  0.42283777487E+02 -0.31577278418E+02  0.53580761731E+02  0.10566000000E+00 0. -1.
         23    2    1    0    0    0 -0.18056651633E+02  0.22770517679E+02 -0.69771921658E+01  0.95203207698E+02  0.90390433133E+02 0.  0.
         13    1    3    3    0    0 -0.27321883029E+02 -0.19513259808E+02  0.24600086252E+02  0.41622445967E+02  0.10566000000E+00 0.  1.
         22    1    1    0    0    0  0.18056651633E+02 -0.22770517679E+02  0.69771921658E+01  0.29886792302E+02  0.00000000000E+00 0. -1.
</event>
<event>
 5    1  0.1254496E-009  0.9118800E+02  0.7815553E-02  0.1125453E+00
         25   -1    0    0    0    0  0.00000000000E+00  0.00000000000E+00  0.99999998245E-14  0.12509000000E+03  0.12509000000E+03 0.  0.
        -13    1    3    3    0    0 -0.23265823669E+01  0.15760450484E+02 -0.59564010000E+02  0.61657823805E+02  0.10566000000E+00 0. -1.
         23    2    1    0    0    0  0.24288649203E+01  0.13313200809E+02 -0.24737483771E+02  0.96892769570E+02  0.92699109979E+02 0.  0.
         13    1    3    3    0    0  0.47554472872E+01 -0.24472496748E+01  0.34826526229E+02  0.35234945765E+02  0.10566000000E+00 0.  1.
         22    1    1    0    0    0 -0.24288649203E+01 -0.13313200809E+02  0.24737483771E+02  0.28197230430E+02  0.00000000000E+00 0. -1.
</event>
<event>
 5    1  0.1254496E-009  0.9118800E+02  0.7815553E-02  0.1125453E+00
         25   -1    0    0    0    0  0.00000000000E+00  0.00000000000E+00  0.99999998245E-14  0.12509000000E+03  0.12509000000E+03 0.  0.
        -13    1    3    3    0    0 -0.15335916769E+02  0.19710312258E+02  0.28705984708E+02  0.38049066671E+02  0.10566000000E+00 0. -1.
         23    2    1    0    0    0 -0.12307347923E+01 -0.28867351445E+02  0.29220487389E-01  0.96196410029E+02  0.91754617111E+02 0.  0.
         13    1    3    3    0    0  0.14105181977E+02 -0.48577663703E+02 -0.28676764221E+02  0.58147343358E+02  0.10566000000E+00 0.  1.
         22    1    1    0    0    0  0.12307347923E+01  0.28867351445E+02 -0.29220487389E-01  0.28893589971E+02  0.00000000000E+00 0.  1.
</event>
<event>
 5    1  0.1254496E-009  0.9118800E+02  0.7815553E-02  0.1125453E+00
         25   -1    0    0    0    0  0.00000000000E+00  0.00000000000E+00  0.99999998245E-14  0.12509000000E+03  0.12509000000E+03 0.  0.
        -13    1    3    3    0    0 -0.10452686779E+02  0.59408442914E+02  0.11669199788E+02  0.61439426577E+02  0.10566000000E+00 0. -1.
         23    2    1    0    0    0 -0.10869835034E+02  0.24657397804E+02  0.10367248780E+02  0.96217514353E+02  0.91783384340E+02 0.  0.
         13    1    3    3    0    0 -0.41714825516E+00 -0.34751045110E+02 -0.13019510077E+01  0.34778087776E+02  0.10566000000E+00 0.  1.
         22    1    1    0    0    0  0.10869835034E+02 -0.24657397804E+02 -0.10367248780E+02  0.28872485647E+02  0.00000000000E+00 0. -1.
</event>
<event>
 5    1  0.1254496E-009  0.9118800E+02  0.7815553E-02  0.1125453E+00
         25   -1    0    0    0    0  0.00000000000E+00  0.00000000000E+00  0.99999998245E-14  0.12509000000E+03  0.12509000000E+03 0.  0.
        -13    1    3    3    0    0  0.16381221360E+02 -0.36157738202E+02  0.23253734143E+01  0.39763613652E+02  0.10566000000E+00 0.  1.
         23    2    1    0    0    0 -0.25456204210E+02  0.26978021837E+01  0.10457862525E+02  0.97437452956E+02  0.93431225404E+02 0.  0.
         13    1    3    3    0    0 -0.41837425570E+02  0.38855540385E+02  0.81324891106E+01  0.57673839305E+02  0.10566000000E+00 0. -1.
         22    1    1    0    0    0  0.25456204210E+02 -0.26978021837E+01 -0.10457862525E+02  0.27652547044E+02  0.00000000000E+00 0. -1.
</event>
<event>
 5    1  0.1254496E-009  0.9118800E+02  0.7815553E-02  0.1125453E+00
         25   -1    0    0    0    0  0.00000000000E+00  0.00000000000E+00  0.99999998245E-14  0.12509000000E+03  0.12509000000E+03 0.  0.
        -13    1    3    3    0    0  0.55352974565E+02 -0.11184584037E+02 -0.67792278629E+01  0.56877199366E+02  0.10566000000E+00 0. -1.
         23    2    1    0    0    0  0.24472799865E+02 -0.36234277643E+01  0.15677607019E+02  0.95801187736E+02  0.91214215163E+02 0.  0.
         13    1    3    3    0    0 -0.30880174700E+02  0.75611562722E+01  0.22456834882E+02  0.38923988370E+02  0.10566000000E+00 0.  1.
         22    1    1    0    0    0 -0.24472799865E+02  0.36234277643E+01 -0.15677607019E+02  0.29288812264E+02  0.00000000000E+00 0. -1.
</event>
<event>
 5    1  0.1254496E-009  0.9118800E+02  0.7815553E-02  0.1125453E+00
         25   -1    0    0    0    0  0.00000000000E+00  0.00000000000E+00  0.99999998245E-14  0.12509000000E+03  0.12509000000E+03 0.  0.
        -13    1    3    3    0    0  0.19837247241E+02  0.33794721531E+02  0.61646126213E+01  0.39668793708E+02  0.10566000000E+00 0.  1.
         23    2    1    0    0    0  0.89279261200E+01 -0.18752193063E+02  0.21209321073E+02  0.95405190588E+02  0.90669523442E+02 0.  0.
         13    1    3    3    0    0 -0.10909321121E+02 -0.52546914594E+02  0.15044708452E+02  0.55736396879E+02  0.10566000000E+00 0. -1.
         22    1    1    0    0    0 -0.89279261200E+01  0.18752193063E+02 -0.21209321073E+02  0.29684809412E+02  0.00000000000E+00 0. -1.
</event>
<event>
 5    1  0.1254496E-009  0.9118800E+02  0.7815553E-02  0.1125453E+00
         25   -1    0    0    0    0  0.00000000000E+00  0.00000000000E+00  0.99999998245E-14  0.12509000000E+03  0.12509000000E+03 0.  0.
        -13    1    3    3    0    0 -0.24886677243E+02  0.36956035563E+02  0.12245378960E+02  0.46206663357E+02  0.10566000000E+00 0. -1.
         23    2    1    0    0    0 -0.28957093168E+02 -0.99969919480E+01  0.23324322677E+01  0.94367152914E+02  0.89225927936E+02 0.  0.
         13    1    3    3    0    0 -0.40704159257E+01 -0.46953027511E+02 -0.99129466922E+01  0.48160489557E+02  0.10566000000E+00 0.  1.
         22    1    1    0    0    0  0.28957093168E+02  0.99969919480E+01 -0.23324322677E+01  0.30722847086E+02  0.00000000000E+00 0. -1.
</event>
<event>
 5    1  0.1254496E-009  0.9118800E+02  0.7815553E-02  0.1125453E+00
         25   -1    0    0    0    0  0.00000000000E+00  0.00000000000E+00  0.99999998245E-14  0.12509000000E+03  0.12509000000E+03 0.  0.
        -13    1    3    3    0    0 -0.62555460762E+01 -0.31769323900E+02 -0.24935676203E+02  0.40868336270E+02  0.10566000000E+00 0. -1.
         23    2    1    0    0    0 -0.22148854692E+02  0.23581656446E+01  0.16886120508E+02  0.97138724980E+02  0.93030415003E+02 0.  0.
         13    1    3    3    0    0 -0.15893308616E+02  0.34127489545E+02  0.41821796711E+02  0.56270388710E+02  0.10566000000E+00 0.  1.
         22    1    1    0    0    0  0.22148854692E+02 -0.23581656446E+01 -0.16886120508E+02  0.27951275020E+02  0.00000000000E+00 0.  1.
</event>
<event>
 5    1  0.1254496E-009  0.9118800E+02  0.7815553E-02  0.1125453E+00
         25   -1    0    0    0    0  0.00000000000E+00  0.00000000000E+00  0.99999998245E-14  0.12509000000E+03  0.12509000000E+03 0.  0.
        -13    1    3    3    0    0 -0.40740230600E+01  0.26071377198E+02 -0.28934822634E+02  0.39160560489E+02  0.10566000000E+00 0.  1.
         23    2    1    0    0    0  0.11738387381E+02  0.91206287519E+01  0.23949351456E+02  0.96902289161E+02  0.92711955013E+02 0.  0.
         13    1    3    3    0    0  0.15812410441E+02 -0.16950748447E+02  0.52884174090E+02  0.57741728673E+02  0.10566000000E+00 0. -1.
         22    1    1    0    0    0 -0.11738387381E+02 -0.91206287519E+01 -0.23949351456E+02  0.28187710839E+02  0.00000000000E+00 0. -1.
</event>
<event>
 5    1  0.1254496E-009  0.9118800E+02  0.7815553E-02  0.1125453E+00
         25   -1    0    0    0    0  0.00000000000E+00  0.00000000000E+00  0.99999998245E-14  0.12509000000E+03  0.12509000000E+03 0.  0.
        -13    1    3    3    0    0 -0.29953106399E+02 -0.29879989431E+02  0.54143144374E+01  0.42653585034E+02  0.10566000000E+00 0.  1.
         23    2    1    0    0    0  0.36837090067E+01  0.78048459254E+01 -0.22939609230E+02  0.10058059357E+03  0.97548679126E+02 0.  0.
         13    1    3    3    0    0  0.33636815406E+02  0.37684835357E+02 -0.28353923667E+02  0.57927008536E+02  0.10566000000E+00 0. -1.
         22    1    1    0    0    0 -0.36837090067E+01 -0.78048459254E+01  0.22939609230E+02  0.24509406431E+02  0.00000000000E+00 0. -1.
</event>
<event>
 5    1  0.1254496E-009  0.9118800E+02  0.7815553E-02  0.1125453E+00
         25   -1    0    0    0    0  0.00000000000E+00  0.00000000000E+00  0.99999998245E-14  0.12509000000E+03  0.12509000000E+03 0.  0.
        -13    1    3    3    0    0 -0.42791300107E+02 -0.17196728637E+02  0.37539618565E+02  0.59464753987E+02  0.10566000000E+00 0. -1.
         23    2    1    0    0    0 -0.97127380393E+01 -0.75198579817E+01  0.26872916012E+02  0.95542763932E+02  0.90859124916E+02 0.  0.
         13    1    3    3    0    0  0.33078562068E+02  0.96768706551E+01 -0.10666702553E+02  0.36078009945E+02  0.10566000000E+00 0.  1.
         22    1    1    0    0    0  0.97127380393E+01  0.75198579817E+01 -0.26872916012E+02  0.29547236068E+02  0.00000000000E+00 0. -1.
</event>
<event>
 5    1  0.1254496E-009  0.9118800E+02  0.7815553E-02  0.1125453E+00
         25   -1    0    0    0    0  0.00000000000E+00  0.00000000000E+00  0.99999998245E-14  0.12509000000E+03  0.12509000000E+03 0.  0.
        -13    1    3    3    0    0  0.25291310329E+02 -0.51802683758E+01  0.39384187693E+02  0.47091516888E+02  0.10566000000E+00 0.  1.
         23    2    1    0    0    0  0.11476782929E+02  0.21701635178E+02 -0.42543783180E+01  0.10017459812E+03  0.97026660556E+02 0.  0.
         13    1    3    3    0    0 -0.13814527399E+02  0.26881903553E+02 -0.43638566011E+02  0.53083081235E+02  0.10566000000E+00 0. -1.
         22    1    1    0    0    0 -0.11476782929E+02 -0.21701635178E+02  0.42543783180E+01  0.24915401876E+02  0.00000000000E+00 0. -1.
</event>
<event>
 5    1  0.1254496E-009  0.9118800E+02  0.7815553E-02  0.1125453E+00
         25   -1    0    0    0    0  0.00000000000E+00  0.00000000000E+00  0.99999998245E-14  0.12509000000E+03  0.12509000000E+03 0.  0.
        -13    1    3    3    0    0 -0.51783882804E+02 -0.24863592167E+01  0.25836604897E+02  0.57924898075E+02  0.10566000000E+00 0.  1.
         23    2    1    0    0    0 -0.17878675132E+02 -0.16951570298E+02  0.62294386399E+01  0.99677234196E+02  0.96383309504E+02 0.  0.
         13    1    3    3    0    0  0.33905207671E+02 -0.14465211082E+02 -0.19607166257E+02  0.41752336121E+02  0.10566000000E+00 0. -1.
         22    1    1    0    0    0  0.17878675132E+02  0.16951570298E+02 -0.62294386399E+01  0.25412765804E+02  0.00000000000E+00 0.  1.
</event>
<event>
 5    1  0.1254496E-009  0.9118800E+02  0.7815553E-02  0.1125453E+00
         25   -1    0    0    0    0  0.00000000000E+00  0.00000000000E+00  0.99999998245E-14  0.12509000000E+03  0.12509000000E+03 0.  0.
        -13    1    3    3    0    0  0.69414888288E+01 -0.41793265580E+02  0.13400857724E+01  0.42387124329E+02  0.10566000000E+00 0.  1.
         23    2    1    0    0    0 -0.28209281715E+02 -0.65325783715E+01  0.12726077625E+02  0.93461038481E+02  0.87946429757E+02 0.  0.
         13    1    3    3    0    0 -0.35150770544E+02  0.35260687208E+02  0.11385991853E+02  0.51073914151E+02  0.10566000000E+00 0. -1.
         22    1    1    0    0    0  0.28209281715E+02  0.65325783715E+01 -0.12726077625E+02  0.31628961519E+02  0.00000000000E+00 0. -1.
</event>
<event>
 5    1  0.1254496E-009  0.9118800E+02  0.7815553E-02  0.1125453E+00
         25   -1    0    0    0    0  0.00000000000E+00  0.00000000000E+00  0.99999998245E-14  0.12509000000E+03  0.12509000000E+03 0.  0.
        -13    1    3    3    0    0  0.17768190053E+02  0.30836213203E+02 -0.37254101514E+02  0.51521450544E+02  0.10566000000E+00 0. -1.
         23    2    1    0    0    0  0.65881834148E+01  0.29891739527E+02  0.39509965501E+01  0.94226905107E+02  0.89029090862E+02 0.  0.
         13    1    3    3    0    0 -0.11180006638E+02 -0.94447367683E+00  0.41205098064E+02  0.42705454563E+02  0.10566000000E+00 0.  1.
         22    1    1    0    0    0 -0.65881834148E+01 -0.29891739527E+02 -0.39509965501E+01  0.30863094893E+02  0.00000000000E+00 0. -1.
</event>
<event>
 5    1  0.1254496E-009  0.9118800E+02  0.7815553E-02  0.1125453E+00
         25   -1    0    0    0    0  0.00000000000E+00  0.00000000000E+00  0.99999998245E-14  0.12509000000E+03  0.12509000000E+03 0.  0.
        -13    1    3    3    0    0 -0.16461308331E+02 -0.11838282853E+02 -0.27809990830E+02  0.34416948832E+02  0.10566000000E+00 0. -1.
         23    2    1    0    0    0  0.24364629893E+02  0.22484081931E+01  0.15936045915E+02  0.95889861496E+02  0.91335740261E+02 0.  0.
         13    1    3    3    0    0  0.40825938225E+02  0.14086691046E+02  0.43746036745E+02  0.61472912665E+02  0.10566000000E+00 0.  1.
         22    1    1    0    0    0 -0.24364629893E+02 -0.22484081931E+01 -0.15936045915E+02  0.29200138504E+02  0.00000000000E+00 0.  1.
</event>
<event>
 5    1  0.1254496E-009  0.9118800E+02  0.7815553E-02  0.1125453E+00
         25   -1    0    0    0    0  0.00000000000E+00  0.00000000000E+00  0.99999998245E-14  0.12509000000E+03  0.12509000000E+03 0.  0.
        -13    1    3    3    0    0  0.23664980510E+02  0.65845628016E+01  0.19378911744E+02  0.31288035321E+02  0.10566000000E+00 0.  1.
         23    2    1    0    0    0 -0.16832421014E+02 -0.31281516044E+02  0.15248396206E+01  0.89534567516E+02  0.82172075557E+02 0.  0.
         13    1    3    3    0    0 -0.40497401524E+02 -0.37866078846E+02 -0.17854072123E+02  0.58246532195E+02  0.10566000000E+00 0. -1.
         22    1    1    0    0    0  0.16832421014E+02  0.31281516044E+02 -0.15248396206E+01  0.35555432484E+02  0.00000000000E+00 0. -1.
</event>
<event>
 5    1  0.1254496E-009  0.9118800E+02  0.7815553E-02  0.1125453E+00
         25   -1    0    0    0    0  0.00000000000E+00  0.00000000000E+00  0.99999998245E-14  0.12509000000E+03  0.12509000000E+03 0.  0.
        -13    1    3    3    0    0  0.20577466776E+02 -0.41164193215E+02  0.13797771268E+02  0.48044901893E+02  0.10566000000E+00 0.  1.
         23    2    1    0    0    0  0.15035417366E+02  0.43911931904E+01  0.25279808285E+02  0.95350883336E+02  0.90594568783E+02 0.  0.
         13    1    3    3    0    0 -0.55420494100E+01  0.45555386405E+02  0.11482037018E+02  0.47305981443E+02  0.10566000000E+00 0. -1.
         22    1    1    0    0    0 -0.15035417366E+02 -0.43911931904E+01 -0.25279808285E+02  0.29739116664E+02  0.00000000000E+00 0.  1.
</event>
<event>
 5    1  0.1254496E-009  0.9118800E+02  0.7815553E-02  0.1125453E+00
         25   -1    0    0    0    0  0.00000000000E+00  0.00000000000E+00  0.99999998245E-14  0.12509000000E+03  0.12509000000E+03 0.  0.
        -13    1    3    3    0    0 -0.31095222162E+02 -0.16045128247E+02  0.75674132094E+01  0.35799942576E+02  0.10566000000E+00 0. -1.
         23    2    1    0    0    0  0.93296583040E+01  0.22180851965E+02 -0.15969274082E+02  0.96210068686E+02  0.91773236207E+02 0.  0.
         13    1    3    3    0    0  0.40424880466E+02  0.38225980212E+02 -0.23536687292E+02  0.60410126110E+02  0.10566000000E+00 0.  1.
         22    1    1    0    0    0 -0.93296583040E+01 -0.22180851965E+02  0.15969274082E+02  0.28879931314E+02  0.00000000000E+00 0.  1.
</event>
<event>
 5    1  0.1254496E-009  0.9118800E+02  0.7815553E-02  0.1125453E+00
         25   -1    0    0    0    0  0.00000000000E+00  0.00000000000E+00  0.99999998245E-14  0.12509000000E+03  0.12509000000E+03 0.  0.
        -13    1    3    3    0    0  0.10503845102E+02 -0.23065221940E+02 -0.27911005628E+02  0.37701069272E+02  0.10566000000E+00 0.  1.
         23    2    1    0    0    0 -0.22569764162E+02 -0.60760005578E+01  0.17133687906E+02  0.96109397895E+02  0.91635915804E+02 0.  0.
         13    1    3    3    0    0 -0.33073609264E+02  0.16989221382E+02  0.45044693534E+02  0.58408328623E+02  0.10566000000E+00 0. -1.
         22    1    1    0    0    0  0.22569764162E+02  0.60760005578E+01 -0.17133687906E+02  0.28980602105E+02  0.00000000000E+00 0. -1.
</event>
<event>
 5    1  0.1254496E-009  0.9118800E+02  0.7815553E-02  0.1125453E+00
         25   -1    0    0    0    0  0.00000000000E+00  0.00000000000E+00  0.99999998245E-14  0.12509000000E+03  0.12509000000E+03 0.  0.
        -13    1    3    3    0    0 -0.26643128610E+01  0.44402525840E+02 -0.31222235380E+02  0.54346315516E+02  0.10566000000E+00 0.  1.
         23    2    1    0    0    0 -0.22528605601E+02  0.12783558019E+02 -0.15812704630E+02  0.94742033781E+02  0.89749952152E+02 0.  0.
         13    1    3    3    0    0 -0.19864292740E+02 -0.31618967821E+02  0.15409530751E+02  0.40395718265E+02  0.10566000000E+00 0. -1.
         22    1    1    0    0    0  0.22528605601E+02 -0.12783558019E+02  0.15812704630E+02  0.30347966219E+02  0.00000000000E+00 0.  1.
</event>
<event>
 5    1  0.1254496E-009  0.9118800E+02  0.7815553E-02  0.1125453E+00
         25   -1    0    0    0    0  0.00000000000E+00  0.00000000000E+00  0.99999998245E-14  0.12509000000E+03  0.12509000000E+03 0.  0.
        -13    1    3    3    0    0 -0.15954282853E+02  0.36175167533E+02  0.36746229263E+02  0.53976646955E+02  0.10566000000E+00 0. -1.
         23    2    1    0    0    0  0.15782889722E+02  0.10434765131E+02  0.18146240167E+02  0.98874165786E+02  0.95335359109E+02 0.  0.
         13    1    3    3    0    0  0.31737172575E+02 -0.25740402402E+02 -0.18599989095E+02  0.44897518832E+02  0.10566000000E+00 0.  1.
         22    1    1    0    0    0 -0.15782889722E+02 -0.10434765131E+02 -0.18146240167E+02  0.26215834214E+02  0.00000000000E+00 0.  1.
</event>
<event>
 5    1  0.1254496E-009  0.9118800E+02  0.7815553E-02  0.1125453E+00
         25   -1    0    0    0    0  0.00000000000E+00  0.00000000000E+00  0.99999998245E-14  0.12509000000E+03  0.12509000000E+03 0.  0.
        -13    1    3    3    0    0 -0.27508831016E+02  0.36069120877E+02 -0.24736487924E+02  0.51668387468E+02  0.10566000000E+00 0.  1.
         23    2    1    0    0    0 -0.10996840791E+02 -0.59019908089E+01 -0.25414992012E+02  0.96775943035E+02  0.92541327678E+02 0.  0.
         13    1    3    3    0    0  0.16511990225E+02 -0.41971111686E+02 -0.67850408770E+00  0.45107555566E+02  0.10566000000E+00 0. -1.
         22    1    1    0    0    0  0.10996840791E+02  0.59019908089E+01  0.25414992012E+02  0.28314056965E+02  0.00000000000E+00 0.  1.
</event>
<event>
 5    1  0.1254496E-009  0.9118800E+02  0.7815553E-02  0.1125453E+00
         25   -1    0    0    0    0  0.00000000000E+00  0.00000000000E+00  0.99999998245E-14  0.12509000000E+03  0.12509000000E+03 0.  0.
        -13    1    3    3    0    0 -0.10624034223E+02 -0.58409701439E+02 -0.15180561648E+02  0.61278250149E+02  0.10566000000E+00 0. -1.
         23    2    1    0    0    0 -0.17318717653E+00 -0.28647084577E+02  0.35386596918E+00  0.96440206464E+02  0.92086387447E+02 0.  0.
         13    1    3    3    0    0  0.10450847046E+02  0.29762616862E+02  0.15534427617E+02  0.35161956315E+02  0.10566000000E+00 0.  1.
         22    1    1    0    0    0  0.17318717653E+00  0.28647084577E+02 -0.35386596918E+00  0.28649793536E+02  0.00000000000E+00 0. -1.
</event>
<event>
 5    1  0.1254496E-009  0.9118800E+02  0.7815553E-02  0.1125453E+00
         25   -1    0    0    0    0  0.00000000000E+00  0.00000000000E+00  0.99999998245E-14  0.12509000000E+03  0.12509000000E+03 0.  0.
        -13    1    3    3    0    0  0.15738705372E+02  0.55807849491E+01 -0.30684152809E+02  0.34933943451E+02  0.10566000000E+00 0.  1.
         23    2    1    0    0    0 -0.25121448205E+02 -0.11258343068E+02  0.10771891959E+02  0.95528689053E+02  0.90839745306E+02 0.  0.
         13    1    3    3    0    0 -0.40860153576E+02 -0.16839128017E+02  0.41456044768E+02  0.60594745602E+02  0.10566000000E+00 0. -1.
         22    1    1    0    0    0  0.25121448205E+02  0.11258343068E+02 -0.10771891959E+02  0.29561310947E+02  0.00000000000E+00 0. -1.
</event>
<event>
 5    1  0.1254496E-009  0.9118800E+02  0.7815553E-02  0.1125453E+00
         25   -1    0    0    0    0  0.00000000000E+00  0.00000000000E+00  0.99999998245E-14  0.12509000000E+03  0.12509000000E+03 0.  0.
        -13    1    3    3    0    0  0.22830362413E+02  0.39726122176E+02  0.36603559813E+02  0.58644880306E+02  0.10566000000E+00 0.  1.
         23    2    1    0    0    0  0.23086044366E+02  0.10180055707E+02  0.11740086889E+02  0.97261442387E+02  0.93195276471E+02 0.  0.
         13    1    3    3    0    0  0.25568195281E+00 -0.29546066469E+02 -0.24863472924E+02  0.38616562081E+02  0.10566000000E+00 0. -1.
         22    1    1    0    0    0 -0.23086044366E+02 -0.10180055707E+02 -0.11740086889E+02  0.27828557613E+02  0.00000000000E+00 0.  1.
</event>
<event>
 5    1  0.1254496E-009  0.9118800E+02  0.7815553E-02  0.1125453E+00
         25   -1    0    0    0    0  0.00000000000E+00  0.00000000000E+00  0.99999998245E-14  0.12509000000E+03  0.12509000000E+03 0.  0.
        -13    1    3    3    0    0  0.54118970774E+01  0.28470231105E+02  0.26834403917E+02  0.39496064193E+02  0.10566000000E+00 0.  1.
         23    2    1    0    0    0  0.32010496965E+02 -0.69137405081E+01 -0.19254912369E+01  0.92284829062E+02  0.86257234101E+02 0.  0.
         13    1    3    3    0    0  0.26598599888E+02 -0.35383971613E+02 -0.28759895153E+02  0.52788764869E+02  0.10566000000E+00 0. -1.
         22    1    1    0    0    0 -0.32010496965E+02  0.69137405081E+01  0.19254912369E+01  0.32805170938E+02  0.00000000000E+00 0. -1.
</event>
<event>
 5    1  0.1254496E-009  0.9118800E+02  0.7815553E-02  0.1125453E+00
         25   -1    0    0    0    0  0.00000000000E+00  0.00000000000E+00  0.99999998245E-14  0.12509000000E+03  0.12509000000E+03 0.  0.
        -13    1    3    3    0    0  0.24686208924E+02 -0.35939854760E+00  0.24845371218E+02  0.35026300310E+02  0.10566000000E+00 0. -1.
         23    2    1    0    0    0 -0.20828850368E+02  0.21023785680E+02 -0.71683157765E+01  0.94639625239E+02  0.89607105423E+02 0.  0.
         13    1    3    3    0    0 -0.45515059293E+02  0.21383184228E+02 -0.32013686995E+02  0.59613324930E+02  0.10566000000E+00 0.  1.
         22    1    1    0    0    0  0.20828850368E+02 -0.21023785680E+02  0.71683157765E+01  0.30450374761E+02  0.00000000000E+00 0.  1.
</event>
<event>
 5    1  0.1254496E-009  0.9118800E+02  0.7815553E-02  0.1125453E+00
         25   -1    0    0    0    0  0.00000000000E+00  0.00000000000E+00  0.99999998245E-14  0.12509000000E+03  0.12509000000E+03 0.  0.
        -13    1    3    3    0    0 -0.19054821886E+02 -0.47251218258E+01 -0.33372827356E+02  0.38719113925E+02  0.10566000000E+00 0.  1.
         23    2    1    0    0    0  0.27464783663E+02  0.11824972724E+02 -0.85167993676E+01  0.93998518963E+02  0.88707617340E+02 0.  0.
         13    1    3    3    0    0  0.46519605549E+02  0.16550094550E+02  0.24856027988E+02  0.55279405039E+02  0.10566000000E+00 0. -1.
         22    1    1    0    0    0 -0.27464783663E+02 -0.11824972724E+02  0.85167993676E+01  0.31091481037E+02  0.00000000000E+00 0. -1.
</event>
<event>
 5    1  0.1254496E-009  0.9118800E+02  0.7815553E-02  0.1125453E+00
         25   -1    0    0    0    0  0.00000000000E+00  0.00000000000E+00  0.99999998245E-14  0.12509000000E+03  0.12509000000E+03 0.  0.
        -13    1    3    3    0    0 -0.30065531433E+02 -0.27111263203E+02 -0.44385948930E+02  0.60075622337E+02  0.10566000000E+00 0.  1.
         23    2    1    0    0    0 -0.28461674420E+01 -0.16897179956E+02 -0.24071085119E+02  0.95542876648E+02  0.90859280097E+02 0.  0.
         13    1    3    3    0    0  0.27219363991E+02  0.10214083247E+02  0.20314863811E+02  0.35467254310E+02  0.10566000000E+00 0. -1.
         22    1    1    0    0    0  0.28461674420E+01  0.16897179956E+02  0.24071085119E+02  0.29547123352E+02  0.00000000000E+00 0.  1.
</event>
<event>
 5    1  0.1254496E-009  0.9118800E+02  0.7815553E-02  0.1125453E+00
         25   -1    0    0    0    0  0.00000000000E+00  0.00000000000E+00  0.99999998245E-14  0.12509000000E+03  0.12509000000E+03 0.  0.
        -13    1    3    3    0    0  0.28795121017E+02 -0.14874423876E+02 -0.19716768879E+02  0.37936389115E+02  0.10566000000E+00 0.  1.
         23    2    1    0    0    0  0.57070816581E+01  0.29400658579E+02  0.66608763230E+01  0.94408787845E+02  0.89284278812E+02 0.  0.
         13    1    3    3    0    0 -0.23088039359E+02  0.44275082455E+02  0.26377645202E+02  0.56472398729E+02  0.10566000000E+00 0. -1.
         22    1    1    0    0    0 -0.57070816581E+01 -0.29400658579E+02 -0.66608763230E+01  0.30681212155E+02  0.00000000000E+00 0. -1.
</event>
<event>
 5    1  0.1254496E-009  0.9118800E+02  0.7815553E-02  0.1125453E+00
         25   -1    0    0    0    0  0.00000000000E+00  0.00000000000E+00  0.99999998245E-14  0.12509000000E+03  0.12509000000E+03 0.  0.
        -13    1    3    3    0    0 -0.26172053320E+01 -0.15971790553E+02  0.54860354135E+02  0.57198054837E+02  0.10566000000E+00 0. -1.
         23    2    1    0    0    0 -0.12966085584E+02 -0.20052626516E+02  0.19521694942E+02  0.94246462930E+02  0.89056566271E+02 0.  0.
         13    1    3    3    0    0 -0.10348880252E+02 -0.40808359636E+01 -0.35338659194E+02  0.37048408094E+02  0.10566000000E+00 0.  1.
         22    1    1    0    0    0  0.12966085584E+02  0.20052626516E+02 -0.19521694942E+02  0.30843537070E+02  0.00000000000E+00 0. -1.
</event>
<event>
 5    1  0.1254496E-009  0.9118800E+02  0.7815553E-02  0.1125453E+00
         25   -1    0    0    0    0  0.00000000000E+00  0.00000000000E+00  0.99999998245E-14  0.12509000000E+03  0.12509000000E+03 0.  0.
        -13    1    3    3    0    0 -0.16077927077E+02 -0.11512947715E+02 -0.36774362827E+02  0.41754192958E+02  0.10566000000E+00 0. -1.
         23    2    1    0    0    0  0.23943685955E+02  0.13583253146E+02 -0.14357235668E+02  0.94042696105E+02  0.88769891358E+02 0.  0.
         13    1    3    3    0    0  0.40021613032E+02  0.25096200861E+02  0.22417127159E+02  0.52288503148E+02  0.10566000000E+00 0.  1.
         22    1    1    0    0    0 -0.23943685955E+02 -0.13583253146E+02  0.14357235668E+02  0.31047303895E+02  0.00000000000E+00 0. -1.
</event>
<event>
 5    1  0.1254496E-009  0.9118800E+02  0.7815553E-02  0.1125453E+00
         25   -1    0    0    0    0  0.00000000000E+00  0.00000000000E+00  0.99999998245E-14  0.12509000000E+03  0.12509000000E+03 0.  0.
        -13    1    3    3    0    0 -0.51831531086E+02 -0.21829676980E+02 -0.18906390977E+02  0.59333845278E+02  0.10566000000E+00 0. -1.
         23    2    1    0    0    0 -0.28071429484E+02  0.20076982922E+01 -0.23316874565E+01  0.96850439591E+02  0.92641971465E+02 0.  0.
         13    1    3    3    0    0  0.23760101602E+02  0.23837375272E+02  0.16574703520E+02  0.37516594312E+02  0.10566000000E+00 0.  1.
         22    1    1    0    0    0  0.28071429484E+02 -0.20076982922E+01  0.23316874565E+01  0.28239560409E+02  0.00000000000E+00 0. -1.
</event>
<event>
 5    1  0.1254496E-009  0.9118800E+02  0.7815553E-02  0.1125453E+00
         25   -1    0    0    0    0  0.00000000000E+00  0.00000000000E+00  0.99999998245E-14  0.12509000000E+03  0.12509000000E+03 0.  0.
        -13    1    3    3    0    0  0.27737774774E+02  0.33734260123E+02  0.13168827959E+02  0.45615936353E+02  0.10566000000E+00 0.  1.
         23    2    1    0    0    0 -0.13081892488E+02  0.22678949816E+02 -0.13520096591E+02  0.95623685543E+02  0.90970465258E+02 0.  0.
         13    1    3    3    0    0 -0.40819667262E+02 -0.11055310307E+02 -0.26688924550E+02  0.50007749190E+02  0.10566000000E+00 0. -1.
         22    1    1    0    0    0  0.13081892488E+02 -0.22678949816E+02  0.13520096591E+02  0.29466314457E+02  0.00000000000E+00 0. -1.
</event>
<event>
 5    1  0.1254496E-009  0.9118800E+02  0.7815553E-02  0.1125453E+00
         25   -1    0    0    0    0  0.00000000000E+00  0.00000000000E+00  0.99999998245E-14  0.12509000000E+03  0.12509000000E+03 0.  0.
        -13    1    3    3    0    0 -0.22094252373E+02  0.47310642066E+02 -0.28386153851E+02  0.59432631905E+02  0.10566000000E+00 0. -1.
         23    2    1    0    0    0 -0.58803904094E+01  0.26962688415E+02 -0.61624084439E+00  0.97486643127E+02  0.93497060261E+02 0.  0.
         13    1    3    3    0    0  0.16213861964E+02 -0.20347953652E+02  0.27769913007E+02  0.38054011221E+02  0.10566000000E+00 0.  1.
         22    1    1    0    0    0  0.58803904094E+01 -0.26962688415E+02  0.61624084439E+00  0.27603356873E+02  0.00000000000E+00 0. -1.
</event>
<event>
 5    1  0.1254496E-009  0.9118800E+02  0.7815553E-02  0.1125453E+00
         25   -1    0    0    0    0  0.00000000000E+00  0.00000000000E+00  0.99999998245E-14  0.12509000000E+03  0.12509000000E+03 0.  0.
        -13    1    3    3    0    0 -0.93617768412E+01  0.32258522456E+02 -0.71267374444E+01  0.34337394882E+02  0.10566000000E+00 0. -1.
         23    2    1    0    0    0  0.96405613884E+01 -0.17797835929E+02  0.21922539754E+02  0.95252085580E+02  0.90458049230E+02 0.  0.
         13    1    3    3    0    0  0.19002338230E+02 -0.50056358385E+02  0.29049277199E+02  0.60914690698E+02  0.10566000000E+00 0.  1.
         22    1    1    0    0    0 -0.96405613884E+01  0.17797835929E+02 -0.21922539754E+02  0.29837914420E+02  0.00000000000E+00 0.  1.
</event>
<event>
 5    1  0.1254496E-009  0.9118800E+02  0.7815553E-02  0.1125453E+00
         25   -1    0    0    0    0  0.00000000000E+00  0.00000000000E+00  0.99999998245E-14  0.12509000000E+03  0.12509000000E+03 0.  0.
        -13    1    3    3    0    0 -0.10183910332E+02 -0.19526792200E+01 -0.33123392227E+02  0.34708720266E+02  0.10566000000E+00 0. -1.
         23    2    1    0    0    0  0.91100289097E+00 -0.82313607426E+01  0.27351204512E+02  0.96512498111E+02  0.92184535999E+02 0.  0.
         13    1    3    3    0    0  0.11094913223E+02 -0.62786815226E+01  0.60474596740E+02  0.61803777845E+02  0.10566000000E+00 0.  1.
         22    1    1    0    0    0 -0.91100289097E+00  0.82313607426E+01 -0.27351204512E+02  0.28577501889E+02  0.00000000000E+00 0.  1.
</event>
<event>
 5    1  0.1254496E-009  0.9118800E+02  0.7815553E-02  0.1125453E+00
         25   -1    0    0    0    0  0.00000000000E+00  0.00000000000E+00  0.99999998245E-14  0.12509000000E+03  0.12509000000E+03 0.  0.
        -13    1    3    3    0    0 -0.35704410513E+02 -0.29373040909E+02 -0.17109276938E+02  0.49298265524E+02  0.10566000000E+00 0.  1.
         23    2    1    0    0    0 -0.22783125729E+02  0.14299765726E+02  0.65155123830E+00  0.98183148887E+02  0.94424319370E+02 0.  0.
         13    1    3    3    0    0  0.12921284785E+02  0.43672806635E+02  0.17760828176E+02  0.48884883363E+02  0.10566000000E+00 0. -1.
         22    1    1    0    0    0  0.22783125729E+02 -0.14299765726E+02 -0.65155123830E+00  0.26906851113E+02  0.00000000000E+00 0.  1.
</event>
<event>
 5    1  0.1254496E-009  0.9118800E+02  0.7815553E-02  0.1125453E+00
         25   -1    0    0    0    0  0.00000000000E+00  0.00000000000E+00  0.99999998245E-14  0.12509000000E+03  0.12509000000E+03 0.  0.
        -13    1    3    3    0    0  0.25662486952E+02 -0.36642913623E+02  0.17698178490E+02  0.48109282278E+02  0.10566000000E+00 0.  1.
         23    2    1    0    0    0  0.16546521854E+02  0.10015455436E+02  0.21943491982E+02  0.95839126963E+02  0.91266229700E+02 0.  0.
         13    1    3    3    0    0 -0.91159650977E+01  0.46658369060E+02  0.42453134920E+01  0.47729844685E+02  0.10566000000E+00 0. -1.
         22    1    1    0    0    0 -0.16546521854E+02 -0.10015455436E+02 -0.21943491982E+02  0.29250873037E+02  0.00000000000E+00 0.  1.
</event>
<event>
 5    1  0.1254496E-009  0.9118800E+02  0.7815553E-02  0.1125453E+00
         25   -1    0    0    0    0  0.00000000000E+00  0.00000000000E+00  0.99999998245E-14  0.12509000000E+03  0.12509000000E+03 0.  0.
        -13    1    3    3    0    0 -0.31017233297E+02 -0.31105898696E+02 -0.42129414440E+01  0.44129420285E+02  0.10566000000E+00 0.  1.
         23    2    1    0    0    0  0.17176571836E+02 -0.12150076789E+01  0.13133192836E+02  0.10343378570E+03  0.10114126955E+03 0.  0.
         13    1    3    3    0    0  0.48193805132E+02  0.29890891017E+02  0.17346134280E+02  0.59304365416E+02  0.10566000000E+00 0. -1.
         22    1    1    0    0    0 -0.17176571836E+02  0.12150076789E+01 -0.13133192836E+02  0.21656214299E+02  0.00000000000E+00 0. -1.
</event>
<event>
 5    1  0.1254496E-009  0.9118800E+02  0.7815553E-02  0.1125453E+00
         25   -1    0    0    0    0  0.00000000000E+00  0.00000000000E+00  0.99999998245E-14  0.12509000000E+03  0.12509000000E+03 0.  0.
        -13    1    3    3    0    0  0.93079197373E+01  0.53440394732E+02  0.17952786489E+02  0.57138663493E+02  0.10566000000E+00 0. -1.
         23    2    1    0    0    0 -0.11654491649E+02  0.27646276535E+02 -0.35545944715E+00  0.95085498117E+02  0.90227389516E+02 0.  0.
         13    1    3    3    0    0 -0.20962411386E+02 -0.25794118198E+02 -0.18308245936E+02  0.37946834624E+02  0.10566000000E+00 0.  1.
         22    1    1    0    0    0  0.11654491649E+02 -0.27646276535E+02  0.35545944715E+00  0.30004501883E+02  0.00000000000E+00 0. -1.
</event>
<event>
 5    1  0.1254496E-009  0.9118800E+02  0.7815553E-02  0.1125453E+00
         25   -1    0    0    0    0  0.00000000000E+00  0.00000000000E+00  0.99999998245E-14  0.12509000000E+03  0.12509000000E+03 0.  0.
        -13    1    3    3    0    0 -0.24105267634E+02  0.11673609778E+02  0.19260972807E+02  0.32989897400E+02  0.10566000000E+00 0.  1.
         23    2    1    0    0    0  0.15401850027E+02 -0.19782525620E+02 -0.16682460359E+02  0.94975721198E+02  0.90075067745E+02 0.  0.
         13    1    3    3    0    0  0.39507117661E+02 -0.31456135398E+02 -0.35943433166E+02  0.61985823798E+02  0.10566000000E+00 0. -1.
         22    1    1    0    0    0 -0.15401850027E+02  0.19782525620E+02  0.16682460359E+02  0.30114278802E+02  0.00000000000E+00 0. -1.
</event>
<event>
 5    1  0.1254496E-009  0.9118800E+02  0.7815553E-02  0.1125453E+00
         25   -1    0    0    0    0  0.00000000000E+00  0.00000000000E+00  0.99999998245E-14  0.12509000000E+03  0.12509000000E+03 0.  0.
        -13    1    3    3    0    0  0.23705496061E+02  0.29921607992E+02  0.12402043239E+02  0.40138198874E+02  0.10566000000E+00 0. -1.
         23    2    1    0    0    0 -0.14719213257E+02 -0.11492360471E+02  0.20669413222E+02  0.97234044963E+02  0.93158495419E+02 0.  0.
         13    1    3    3    0    0 -0.38424709318E+02 -0.41413968463E+02  0.82673699834E+01  0.57095846088E+02  0.10566000000E+00 0.  1.
         22    1    1    0    0    0  0.14719213257E+02  0.11492360471E+02 -0.20669413222E+02  0.27855955037E+02  0.00000000000E+00 0. -1.
</event>
<event>
 5    1  0.1254496E-009  0.9118800E+02  0.7815553E-02  0.1125453E+00
         25   -1    0    0    0    0  0.00000000000E+00  0.00000000000E+00  0.99999998245E-14  0.12509000000E+03  0.12509000000E+03 0.  0.
        -13    1    3    3    0    0  0.54475535422E+02  0.60545253468E+01  0.18372148573E+02  0.57808202220E+02  0.10566000000E+00 0. -1.
         23    2    1    0    0    0  0.90106363739E+01  0.15234960065E+02  0.93928725233E+01  0.10505199535E+03  0.10312322773E+03 0.  0.
         13    1    3    3    0    0 -0.45464899048E+02  0.91804347184E+01 -0.89792760500E+01  0.47243793132E+02  0.10566000000E+00 0.  1.
         22    1    1    0    0    0 -0.90106363739E+01 -0.15234960065E+02 -0.93928725233E+01  0.20038004648E+02  0.00000000000E+00 0. -1.
</event>
<event>
 5    1  0.1254496E-009  0.9118800E+02  0.7815553E-02  0.1125453E+00
         25   -1    0    0    0    0  0.00000000000E+00  0.00000000000E+00  0.99999998245E-14  0.12509000000E+03  0.12509000000E+03 0.  0.
        -13    1    3    3    0    0  0.19454786400E+02  0.66041472828E+01 -0.24564666730E+02  0.32024014283E+02  0.10566000000E+00 0. -1.
         23    2    1    0    0    0 -0.18622033671E+02 -0.92439061640E+01  0.22400786847E+02  0.94528174293E+02  0.89451386488E+02 0.  0.
         13    1    3    3    0    0 -0.38076820070E+02 -0.15848053447E+02  0.46965453577E+02  0.62504160010E+02  0.10566000000E+00 0.  1.
         22    1    1    0    0    0  0.18622033671E+02  0.92439061640E+01 -0.22400786847E+02  0.30561825707E+02  0.00000000000E+00 0.  1.
</event>
<event>
 5    1  0.1254496E-009  0.9118800E+02  0.7815553E-02  0.1125453E+00
         25   -1    0    0    0    0  0.00000000000E+00  0.00000000000E+00  0.99999998245E-14  0.12509000000E+03  0.12509000000E+03 0.  0.
        -13    1    3    3    0    0 -0.10075827965E+02  0.27375636951E+02 -0.83351678282E+01  0.30338655119E+02  0.10566000000E+00 0.  1.
         23    2    1    0    0    0  0.69438255983E+01 -0.31093400739E+02  0.54308601216E+01  0.92771111945E+02  0.86959580762E+02 0.  0.
         13    1    3    3    0    0  0.17019653564E+02 -0.58469037690E+02  0.13766027950E+02  0.62432456826E+02  0.10566000000E+00 0. -1.
         22    1    1    0    0    0 -0.69438255983E+01  0.31093400739E+02 -0.54308601216E+01  0.32318888055E+02  0.00000000000E+00 0. -1.
</event>
<event>
 5    1  0.1254496E-009  0.9118800E+02  0.7815553E-02  0.1125453E+00
         25   -1    0    0    0    0  0.00000000000E+00  0.00000000000E+00  0.99999998245E-14  0.12509000000E+03  0.12509000000E+03 0.  0.
        -13    1    3    3    0    0 -0.15116800467E+01 -0.37498685908E+02  0.13348463686E+02  0.39832515213E+02  0.10566000000E+00 0.  1.
         23    2    1    0    0    0  0.27913723672E+02  0.84373210116E+01  0.28411469470E+00  0.95927608530E+02  0.91387422559E+02 0.  0.
         13    1    3    3    0    0  0.29425403719E+02  0.45936006919E+02 -0.13064348991E+02  0.56095093317E+02  0.10566000000E+00 0. -1.
         22    1    1    0    0    0 -0.27913723672E+02 -0.84373210116E+01 -0.28411469470E+00  0.29162391470E+02  0.00000000000E+00 0. -1.
</event>
<event>
 5    1  0.1254496E-009  0.9118800E+02  0.7815553E-02  0.1125453E+00
         25   -1    0    0    0    0  0.00000000000E+00  0.00000000000E+00  0.99999998245E-14  0.12509000000E+03  0.12509000000E+03 0.  0.
        -13    1    3    3    0    0 -0.16706280104E+02 -0.28868161681E+02  0.13693592668E+02  0.36055460029E+02  0.10566000000E+00 0.  1.
         23    2    1    0    0    0  0.12733400510E+02  0.85727284003E+01 -0.23866943037E+02  0.96712859011E+02  0.92456016394E+02 0.  0.
         13    1    3    3    0    0  0.29439680614E+02  0.37440890081E+02 -0.37560535705E+02  0.60657398982E+02  0.10566000000E+00 0. -1.
         22    1    1    0    0    0 -0.12733400510E+02 -0.85727284003E+01  0.23866943037E+02  0.28377140989E+02  0.00000000000E+00 0. -1.
</event>
<event>
 5    1  0.1254496E-009  0.9118800E+02  0.7815553E-02  0.1125453E+00
         25   -1    0    0    0    0  0.00000000000E+00  0.00000000000E+00  0.99999998245E-14  0.12509000000E+03  0.12509000000E+03 0.  0.
        -13    1    3    3    0    0  0.11503918323E+02  0.36392555136E+02  0.79067677593E+00  0.38175837121E+02  0.10566000000E+00 0. -1.
         23    2    1    0    0    0 -0.34511684874E+01 -0.15188526758E+02  0.23835418371E+02  0.96616695346E+02  0.92325818391E+02 0.  0.
         13    1    3    3    0    0 -0.14955086810E+02 -0.51581081894E+02  0.23044741595E+02  0.58440858225E+02  0.10566000000E+00 0.  1.
         22    1    1    0    0    0  0.34511684874E+01  0.15188526758E+02 -0.23835418371E+02  0.28473304654E+02  0.00000000000E+00 0.  1.
</event>
<event>
 5    1  0.1254496E-009  0.9118800E+02  0.7815553E-02  0.1125453E+00
         25   -1    0    0    0    0  0.00000000000E+00  0.00000000000E+00  0.99999998245E-14  0.12509000000E+03  0.12509000000E+03 0.  0.
        -13    1    3    3    0    0 -0.29410050849E+02 -0.34993544143E+02 -0.33971906669E+02  0.56952619162E+02  0.10566000000E+00 0.  1.
         23    2    1    0    0    0  0.40623534731E+01 -0.18868440454E+02 -0.21624666304E+02  0.96104711427E+02  0.91629518196E+02 0.  0.
         13    1    3    3    0    0  0.33472404322E+02  0.16125103688E+02  0.12347240366E+02  0.39152092265E+02  0.10566000000E+00 0. -1.
         22    1    1    0    0    0 -0.40623534731E+01  0.18868440454E+02  0.21624666304E+02  0.28985288573E+02  0.00000000000E+00 0.  1.
</event>
<event>
 5    1  0.1254496E-009  0.9118800E+02  0.7815553E-02  0.1125453E+00
         25   -1    0    0    0    0  0.00000000000E+00  0.00000000000E+00  0.99999998245E-14  0.12509000000E+03  0.12509000000E+03 0.  0.
        -13    1    3    3    0    0 -0.13328432923E+01  0.92288467399E+01 -0.41277942175E+02  0.42318172901E+02  0.10566000000E+00 0. -1.
         23    2    1    0    0    0 -0.32400846726E+02 -0.79167773546E+01 -0.83974893814E+01  0.90695115786E+02  0.83920176163E+02 0.  0.
         13    1    3    3    0    0 -0.31068003433E+02 -0.17145624095E+02  0.32880452794E+02  0.48376942885E+02  0.10566000000E+00 0.  1.
         22    1    1    0    0    0  0.32400846726E+02  0.79167773546E+01  0.83974893814E+01  0.34394884214E+02  0.00000000000E+00 0.  1.
</event>
<event>
 5    1  0.1254496E-009  0.9118800E+02  0.7815553E-02  0.1125453E+00
         25   -1    0    0    0    0  0.00000000000E+00  0.00000000000E+00  0.99999998245E-14  0.12509000000E+03  0.12509000000E+03 0.  0.
        -13    1    3    3    0    0  0.32720032092E+02 -0.61374286248E+01  0.10594629581E+02  0.34936025392E+02  0.10566000000E+00 0. -1.
         23    2    1    0    0    0 -0.25017229750E+02  0.13564565167E+02  0.49719985524E+01  0.96200902019E+02  0.91760740882E+02 0.  0.
         13    1    3    3    0    0 -0.57737261842E+02  0.19701993792E+02 -0.56226310281E+01  0.61264876627E+02  0.10566000000E+00 0.  1.
         22    1    1    0    0    0  0.25017229750E+02 -0.13564565167E+02 -0.49719985524E+01  0.28889097981E+02  0.00000000000E+00 0.  1.
</event>
<event>
 5    1  0.1254496E-009  0.9118800E+02  0.7815553E-02  0.1125453E+00
         25   -1    0    0    0    0  0.00000000000E+00  0.00000000000E+00  0.99999998245E-14  0.12509000000E+03  0.12509000000E+03 0.  0.
        -13    1    3    3    0    0 -0.44310157711E+02 -0.22461951945E+02  0.26498059773E+02  0.56303531837E+02  0.10566000000E+00 0. -1.
         23    2    1    0    0    0 -0.18762788619E+02  0.82648096579E+01  0.19350664374E+02  0.96897846354E+02  0.92705960439E+02 0.  0.
         13    1    3    3    0    0  0.25547369092E+02  0.30726761603E+02 -0.71473953985E+01  0.40594314517E+02  0.10566000000E+00 0.  1.
         22    1    1    0    0    0  0.18762788619E+02 -0.82648096579E+01 -0.19350664374E+02  0.28192153646E+02  0.00000000000E+00 0. -1.
</event>
<event>
 5    1  0.1254496E-009  0.9118800E+02  0.7815553E-02  0.1125453E+00
         25   -1    0    0    0    0  0.00000000000E+00  0.00000000000E+00  0.99999998245E-14  0.12509000000E+03  0.12509000000E+03 0.  0.
        -13    1    3    3    0    0  0.11703533697E+02  0.14642646857E+02  0.35251646117E+02  0.39925800255E+02  0.10566000000E+00 0. -1.
         23    2    1    0    0    0 -0.25563534221E+02 -0.14861785260E+02  0.92403820929E+01  0.94110141959E+02  0.88864881789E+02 0.  0.
         13    1    3    3    0    0 -0.37267067918E+02 -0.29504432118E+02 -0.26011264024E+02  0.54184341704E+02  0.10566000000E+00 0.  1.
         22    1    1    0    0    0  0.25563534221E+02  0.14861785260E+02 -0.92403820929E+01  0.30979858041E+02  0.00000000000E+00 0.  1.
</event>
<event>
 5    1  0.1254496E-009  0.9118800E+02  0.7815553E-02  0.1125453E+00
         25   -1    0    0    0    0  0.00000000000E+00  0.00000000000E+00  0.99999998245E-14  0.12509000000E+03  0.12509000000E+03 0.  0.
        -13    1    3    3    0    0 -0.12707948935E+02  0.58794969451E+01 -0.30196098325E+02  0.33284770820E+02  0.10566000000E+00 0. -1.
         23    2    1    0    0    0  0.87451356232E+00 -0.55255889457E+01  0.29244587733E+02  0.95315131086E+02  0.90545189796E+02 0.  0.
         13    1    3    3    0    0  0.13582462497E+02 -0.11405085891E+02  0.59440686058E+02  0.62030360266E+02  0.10566000000E+00 0.  1.
         22    1    1    0    0    0 -0.87451356232E+00  0.55255889457E+01 -0.29244587733E+02  0.29774868914E+02  0.00000000000E+00 0.  1.
</event>
<event>
 5    1  0.1254496E-009  0.9118800E+02  0.7815553E-02  0.1125453E+00
         25   -1    0    0    0    0  0.00000000000E+00  0.00000000000E+00  0.99999998245E-14  0.12509000000E+03  0.12509000000E+03 0.  0.
        -13    1    3    3    0    0 -0.38232455957E+02 -0.90493496693E+01  0.46951258096E+01  0.39568507532E+02  0.10566000000E+00 0.  1.
         23    2    1    0    0    0  0.59131109539E+01  0.19984405991E+02 -0.18452632703E+02  0.97254033739E+02  0.93185331791E+02 0.  0.
         13    1    3    3    0    0  0.44145566911E+02  0.29033755660E+02 -0.23147758513E+02  0.57685526207E+02  0.10566000000E+00 0. -1.
         22    1    1    0    0    0 -0.59131109539E+01 -0.19984405991E+02  0.18452632703E+02  0.27835966261E+02  0.00000000000E+00 0. -1.
</event>
<event>
 5    1  0.1254496E-009  0.9118800E+02  0.7815553E-02  0.1125453E+00
         25   -1    0    0    0    0  0.00000000000E+00  0.00000000000E+00  0.99999998245E-14  0.12509000000E+03  0.12509000000E+03 0.  0.
        -13    1    3    3    0    0  0.24502614643E+02  0.41457300393E+02 -0.19763387051E+02  0.52054668494E+02  0.10566000000E+00 0.  1.
         23    2    1    0    0    0 -0.10497244160E+02  0.28265847178E+02  0.11656153533E+01  0.94915359806E+02  0.89991202994E+02 0.  0.
         13    1    3    3    0    0 -0.34999858803E+02 -0.13191453215E+02  0.20929002404E+02  0.42860691313E+02  0.10566000000E+00 0. -1.
         22    1    1    0    0    0  0.10497244160E+02 -0.28265847178E+02 -0.11656153533E+01  0.30174640194E+02  0.00000000000E+00 0.  1.
</event>
<event>
 5    1  0.1254496E-009  0.9118800E+02  0.7815553E-02  0.1125453E+00
         25   -1    0    0    0    0  0.00000000000E+00  0.00000000000E+00  0.99999998245E-14  0.12509000000E+03  0.12509000000E+03 0.  0.
        -13    1    3    3    0    0  0.35497591706E+02 -0.20572337404E+02 -0.71295250537E+01  0.41643023122E+02  0.10566000000E+00 0. -1.
         23    2    1    0    0    0  0.13554864905E+02  0.27258469981E+02 -0.90482885971E+00  0.94633846869E+02  0.89599038553E+02 0.  0.
         13    1    3    3    0    0 -0.21942726801E+02  0.47830807385E+02  0.62246961940E+01  0.52990823747E+02  0.10566000000E+00 0.  1.
         22    1    1    0    0    0 -0.13554864905E+02 -0.27258469981E+02  0.90482885971E+00  0.30456153131E+02  0.00000000000E+00 0.  1.
</event>
<event>
 5    1  0.1254496E-009  0.9118800E+02  0.7815553E-02  0.1125453E+00
         25   -1    0    0    0    0  0.00000000000E+00  0.00000000000E+00  0.99999998245E-14  0.12509000000E+03  0.12509000000E+03 0.  0.
        -13    1    3    3    0    0 -0.23811451342E+02  0.32744306562E+02  0.84395218673E+00  0.40495657132E+02  0.10566000000E+00 0.  1.
         23    2    1    0    0    0 -0.37546287183E+02 -0.94814507230E+01  0.82055090835E+01  0.85505255863E+02  0.75790479691E+02 0.  0.
         13    1    3    3    0    0 -0.13734835841E+02 -0.42225757285E+02  0.73615568967E+01  0.45009598731E+02  0.10566000000E+00 0. -1.
         22    1    1    0    0    0  0.37546287183E+02  0.94814507230E+01 -0.82055090835E+01  0.39584744137E+02  0.00000000000E+00 0.  1.
</event>
<event>
 5    1  0.1254496E-009  0.9118800E+02  0.7815553E-02  0.1125453E+00
         25   -1    0    0    0    0  0.00000000000E+00  0.00000000000E+00  0.99999998245E-14  0.12509000000E+03  0.12509000000E+03 0.  0.
        -13    1    3    3    0    0 -0.22937963892E+01 -0.57321281037E+02 -0.16780543932E+00  0.57367500244E+02  0.10566000000E+00 0. -1.
         23    2    1    0    0    0 -0.16584012798E+02 -0.23385144612E+02  0.84834481750E+01  0.95192452242E+02  0.90375547588E+02 0.  0.
         13    1    3    3    0    0 -0.14290216409E+02  0.33936136425E+02  0.86512536143E+01  0.37824951998E+02  0.10566000000E+00 0.  1.
         22    1    1    0    0    0  0.16584012798E+02  0.23385144612E+02 -0.84834481750E+01  0.29897547758E+02  0.00000000000E+00 0. -1.
</event>
<event>
 5    1  0.1254496E-009  0.9118800E+02  0.7815553E-02  0.1125453E+00
         25   -1    0    0    0    0  0.00000000000E+00  0.00000000000E+00  0.99999998245E-14  0.12509000000E+03  0.12509000000E+03 0.  0.
        -13    1    3    3    0    0  0.32307299943E+02  0.30802376289E+02  0.10030630230E+01  0.44649359616E+02  0.10566000000E+00 0.  1.
         23    2    1    0    0    0  0.12205792954E+02 -0.68513780654E+01  0.27036088704E+02  0.94645413364E+02  0.89615185183E+02 0.  0.
         13    1    3    3    0    0 -0.20101506989E+02 -0.37653754355E+02  0.26033025681E+02  0.49996053748E+02  0.10566000000E+00 0. -1.
         22    1    1    0    0    0 -0.12205792954E+02  0.68513780654E+01 -0.27036088704E+02  0.30444586636E+02  0.00000000000E+00 0. -1.
</event>
<event>
 5    1  0.1254496E-009  0.9118800E+02  0.7815553E-02  0.1125453E+00
         25   -1    0    0    0    0  0.00000000000E+00  0.00000000000E+00  0.99999998245E-14  0.12509000000E+03  0.12509000000E+03 0.  0.
        -13    1    3    3    0    0 -0.55144832237E+02 -0.17137060738E+02 -0.15605384903E+02  0.59817811522E+02  0.10566000000E+00 0.  1.
         23    2    1    0    0    0 -0.28520950187E+02  0.29664709855E+01 -0.13902239699E+02  0.93222825379E+02  0.87606953796E+02 0.  0.
         13    1    3    3    0    0  0.26623882051E+02  0.20103531723E+02  0.17031452043E+01  0.33405013858E+02  0.10566000000E+00 0. -1.
         22    1    1    0    0    0  0.28520950187E+02 -0.29664709855E+01  0.13902239699E+02  0.31867174621E+02  0.00000000000E+00 0. -1.
</event>
<event>
 5    1  0.1254496E-009  0.9118800E+02  0.7815553E-02  0.1125453E+00
         25   -1    0    0    0    0  0.00000000000E+00  0.00000000000E+00  0.99999998245E-14  0.12509000000E+03  0.12509000000E+03 0.  0.
        -13    1    3    3    0    0 -0.38518227880E+02 -0.11101271952E+02 -0.12921251474E+02  0.42117241383E+02  0.10566000000E+00 0.  1.
         23    2    1    0    0    0 -0.78332895929E+01  0.27120958127E+02  0.84990903625E+01  0.95608796962E+02  0.90949990236E+02 0.  0.
         13    1    3    3    0    0  0.30684938287E+02  0.38222230079E+02  0.21420341837E+02  0.53491555579E+02  0.10566000000E+00 0. -1.
         22    1    1    0    0    0  0.78332895929E+01 -0.27120958127E+02 -0.84990903625E+01  0.29481203038E+02  0.00000000000E+00 0. -1.
</event>
<event>
 5    1  0.1254496E-009  0.9118800E+02  0.7815553E-02  0.1125453E+00
         25   -1    0    0    0    0  0.00000000000E+00  0.00000000000E+00  0.99999998245E-14  0.12509000000E+03  0.12509000000E+03 0.  0.
        -13    1    3    3    0    0  0.33660942363E+02  0.13433886109E+02  0.12114090084E+02  0.38213749873E+02  0.10566000000E+00 0. -1.
         23    2    1    0    0    0 -0.22444380710E+02  0.15412634498E+00  0.18205047044E+02  0.96190212488E+02  0.91746167550E+02 0.  0.
         13    1    3    3    0    0 -0.56105323073E+02 -0.13279759764E+02  0.60909569601E+01  0.57976462614E+02  0.10566000000E+00 0.  1.
         22    1    1    0    0    0  0.22444380710E+02 -0.15412634498E+00 -0.18205047044E+02  0.28899787512E+02  0.00000000000E+00 0.  1.
</event>
<event>
 5    1  0.1254496E-009  0.9118800E+02  0.7815553E-02  0.1125453E+00
         25   -1    0    0    0    0  0.00000000000E+00  0.00000000000E+00  0.99999998245E-14  0.12509000000E+03  0.12509000000E+03 0.  0.
        -13    1    3    3    0    0  0.73896358177E+01  0.37323628688E+02 -0.46451012122E+02  0.60044713899E+02  0.10566000000E+00 0. -1.
         23    2    1    0    0    0  0.11212764773E+02  0.27007873269E+02 -0.17512018753E+02  0.91004488222E+02  0.84380061409E+02 0.  0.
         13    1    3    3    0    0  0.38231289552E+01 -0.10315755419E+02  0.28938993369E+02  0.30959774323E+02  0.10566000000E+00 0.  1.
         22    1    1    0    0    0 -0.11212764773E+02 -0.27007873269E+02  0.17512018753E+02  0.34085511778E+02  0.00000000000E+00 0. -1.
</event>
<event>
 5    1  0.1254496E-009  0.9118800E+02  0.7815553E-02  0.1125453E+00
         25   -1    0    0    0    0  0.00000000000E+00  0.00000000000E+00  0.99999998245E-14  0.12509000000E+03  0.12509000000E+03 0.  0.
        -13    1    3    3    0    0 -0.33974374672E+02  0.63664691344E+01  0.18716487689E+02  0.39307863578E+02  0.10566000000E+00 0.  1.
         23    2    1    0    0    0 -0.87969190860E+00 -0.59860594709E+01 -0.27191413069E+02  0.97233587623E+02  0.93157881317E+02 0.  0.
         13    1    3    3    0    0  0.33094682763E+02 -0.12352528605E+02 -0.45907900758E+02  0.57925724045E+02  0.10566000000E+00 0. -1.
         22    1    1    0    0    0  0.87969190860E+00  0.59860594709E+01  0.27191413069E+02  0.27856412377E+02  0.00000000000E+00 0. -1.
</event>
<event>
 5    1  0.1254496E-009  0.9118800E+02  0.7815553E-02  0.1125453E+00
         25   -1    0    0    0    0  0.00000000000E+00  0.00000000000E+00  0.99999998245E-14  0.12509000000E+03  0.12509000000E+03 0.  0.
        -13    1    3    3    0    0 -0.22674934213E+02 -0.11411160486E+02  0.35177888954E+02  0.43380436379E+02  0.10566000000E+00 0.  1.
         23    2    1    0    0    0 -0.34154160750E+02 -0.57310569228E+01 -0.89425849765E+01  0.89322395439E+02  0.81848450144E+02 0.  0.
         13    1    3    3    0    0 -0.11479226537E+02  0.56801035633E+01 -0.44120473930E+02  0.45941959060E+02  0.10566000000E+00 0. -1.
         22    1    1    0    0    0  0.34154160750E+02  0.57310569228E+01  0.89425849765E+01  0.35767604561E+02  0.00000000000E+00 0.  1.
</event>
<event>
 5    1  0.1254496E-009  0.9118800E+02  0.7815553E-02  0.1125453E+00
         25   -1    0    0    0    0  0.00000000000E+00  0.00000000000E+00  0.99999998245E-14  0.12509000000E+03  0.12509000000E+03 0.  0.
        -13    1    3    3    0    0  0.30209462785E+02  0.28687826639E+01  0.23571022053E+02  0.38424546847E+02  0.10566000000E+00 0. -1.
         23    2    1    0    0    0  0.10460225766E+02  0.14592339271E+02 -0.26251557051E+02  0.93285960381E+02  0.87697055071E+02 0.  0.
         13    1    3    3    0    0 -0.19749237019E+02  0.11723556607E+02 -0.49822579104E+02  0.54861413534E+02  0.10566000000E+00 0.  1.
         22    1    1    0    0    0 -0.10460225766E+02 -0.14592339271E+02  0.26251557051E+02  0.31804039619E+02  0.00000000000E+00 0.  1.
</event>
<event>
 5    1  0.1254496E-009  0.9118800E+02  0.7815553E-02  0.1125453E+00
         25   -1    0    0    0    0  0.00000000000E+00  0.00000000000E+00  0.99999998245E-14  0.12509000000E+03  0.12509000000E+03 0.  0.
        -13    1    3    3    0    0  0.29884458933E+02  0.45696265600E+02  0.17479271656E+00  0.54601019148E+02  0.10566000000E+00 0.  1.
         23    2    1    0    0    0 -0.68152086970E+01  0.25556521082E+02  0.85489868641E+01  0.97293093413E+02  0.93237749920E+02 0.  0.
         13    1    3    3    0    0 -0.36699667630E+02 -0.20139744518E+02  0.83741941475E+01  0.42692074265E+02  0.10566000000E+00 0. -1.
         22    1    1    0    0    0  0.68152086970E+01 -0.25556521082E+02 -0.85489868641E+01  0.27796906587E+02  0.00000000000E+00 0.  1.
</event>
<event>
 5    1  0.1254496E-009  0.9118800E+02  0.7815553E-02  0.1125453E+00
         25   -1    0    0    0    0  0.00000000000E+00  0.00000000000E+00  0.99999998245E-14  0.12509000000E+03  0.12509000000E+03 0.  0.
        -13    1    3    3    0    0  0.22963021799E+02 -0.10191431938E+01  0.50432041061E+02  0.55423288901E+02  0.10566000000E+00 0. -1.
         23    2    1    0    0    0  0.26431825270E+02  0.16112909726E+01  0.89436749725E+01  0.97139562298E+02  0.93031540865E+02 0.  0.
         13    1    3    3    0    0  0.34688034712E+01  0.26304341665E+01 -0.41488366088E+02  0.41716273397E+02  0.10566000000E+00 0.  1.
         22    1    1    0    0    0 -0.26431825270E+02 -0.16112909726E+01 -0.89436749725E+01  0.27950437702E+02  0.00000000000E+00 0. -1.
</event>
<event>
 5    1  0.1254496E-009  0.9118800E+02  0.7815553E-02  0.1125453E+00
         25   -1    0    0    0    0  0.00000000000E+00  0.00000000000E+00  0.99999998245E-14  0.12509000000E+03  0.12509000000E+03 0.  0.
        -13    1    3    3    0    0  0.19146805277E+01  0.17094785044E+02  0.39455355659E+02  0.43042234276E+02  0.10566000000E+00 0.  1.
         23    2    1    0    0    0  0.17778340361E+01  0.26186030835E+02 -0.12663540576E+02  0.95948377453E+02  0.91415846389E+02 0.  0.
         13    1    3    3    0    0 -0.13684649157E+00  0.90912457912E+01 -0.52118896235E+02  0.52906143177E+02  0.10566000000E+00 0. -1.
         22    1    1    0    0    0 -0.17778340361E+01 -0.26186030835E+02  0.12663540576E+02  0.29141622547E+02  0.00000000000E+00 0. -1.
</event>
<event>
 5    1  0.1254496E-009  0.9118800E+02  0.7815553E-02  0.1125453E+00
         25   -1    0    0    0    0  0.00000000000E+00  0.00000000000E+00  0.99999998245E-14  0.12509000000E+03  0.12509000000E+03 0.  0.
        -13    1    3    3    0    0 -0.29811450189E+02 -0.27290265386E+02 -0.26662213956E+02  0.48418653061E+02  0.10566000000E+00 0.  1.
         23    2    1    0    0    0 -0.28846543852E+02 -0.54127287616E+01  0.12421770504E+02  0.93219620220E+02  0.87602377175E+02 0.  0.
         13    1    3    3    0    0  0.96490633656E+00  0.21877536625E+02  0.39083984461E+02  0.44800967159E+02  0.10566000000E+00 0. -1.
         22    1    1    0    0    0  0.28846543852E+02  0.54127287616E+01 -0.12421770504E+02  0.31870379780E+02  0.00000000000E+00 0.  1.
</event>
<event>
 5    1  0.1254496E-009  0.9118800E+02  0.7815553E-02  0.1125453E+00
         25   -1    0    0    0    0  0.00000000000E+00  0.00000000000E+00  0.99999998245E-14  0.12509000000E+03  0.12509000000E+03 0.  0.
        -13    1    3    3    0    0  0.59872744736E+01  0.60209165617E+00  0.35880099323E+02  0.36381350462E+02  0.10566000000E+00 0. -1.
         23    2    1    0    0    0  0.21434107701E+02 -0.13485770445E+02 -0.17897751293E+02  0.94080058388E+02  0.88822524776E+02 0.  0.
         13    1    3    3    0    0  0.15446833227E+02 -0.14087862101E+02 -0.53777850617E+02  0.57698707926E+02  0.10566000000E+00 0.  1.
         22    1    1    0    0    0 -0.21434107701E+02  0.13485770445E+02  0.17897751293E+02  0.31009941612E+02  0.00000000000E+00 0.  1.
</event>
<event>
 5    1  0.1254496E-009  0.9118800E+02  0.7815553E-02  0.1125453E+00
         25   -1    0    0    0    0  0.00000000000E+00  0.00000000000E+00  0.99999998245E-14  0.12509000000E+03  0.12509000000E+03 0.  0.
        -13    1    3    3    0    0 -0.34857963193E+02  0.86704256045E+01  0.34196817837E+02  0.49595235581E+02  0.10566000000E+00 0.  1.
         23    2    1    0    0    0  0.73838253186E+01  0.18111052631E+02  0.24119979033E+02  0.94036747477E+02  0.88761508458E+02 0.  0.
         13    1    3    3    0    0  0.42241788511E+02  0.94406270266E+01 -0.10076838804E+02  0.44441511896E+02  0.10566000000E+00 0. -1.
         22    1    1    0    0    0 -0.73838253186E+01 -0.18111052631E+02 -0.24119979033E+02  0.31053252523E+02  0.00000000000E+00 0. -1.
</event>
<event>
 5    1  0.1254496E-009  0.9118800E+02  0.7815553E-02  0.1125453E+00
         25   -1    0    0    0    0  0.00000000000E+00  0.00000000000E+00  0.99999998245E-14  0.12509000000E+03  0.12509000000E+03 0.  0.
        -13    1    3    3    0    0 -0.26287354749E+01  0.32327906852E+02 -0.39818944225E+02  0.51357212686E+02  0.10566000000E+00 0. -1.
         23    2    1    0    0    0  0.16665058785E+02  0.25509000329E+02 -0.17597614176E+01  0.94569022913E+02  0.89508491510E+02 0.  0.
         13    1    3    3    0    0  0.19293794260E+02 -0.68189065223E+01  0.38059182808E+02  0.43211810227E+02  0.10566000000E+00 0.  1.
         22    1    1    0    0    0 -0.16665058785E+02 -0.25509000329E+02  0.17597614176E+01  0.30520977087E+02  0.00000000000E+00 0. -1.
</event>
<event>
 5    1  0.1254496E-009  0.9118800E+02  0.7815553E-02  0.1125453E+00
         25   -1    0    0    0    0  0.00000000000E+00  0.00000000000E+00  0.99999998245E-14  0.12509000000E+03  0.12509000000E+03 0.  0.
        -13    1    3    3    0    0  0.12868286460E+02  0.22277747689E+02 -0.31428259135E+02  0.40615729401E+02  0.10566000000E+00 0.  1.
         23    2    1    0    0    0  0.77959642982E+01  0.17508984949E+02  0.22808671226E+02  0.95297767852E+02  0.90521198960E+02 0.  0.
         13    1    3    3    0    0 -0.50723221617E+01 -0.47687627396E+01  0.54236930360E+02  0.54682038451E+02  0.10566000000E+00 0. -1.
         22    1    1    0    0    0 -0.77959642982E+01 -0.17508984949E+02 -0.22808671226E+02  0.29792232148E+02  0.00000000000E+00 0. -1.
</event>
<event>
 5    1  0.1254496E-009  0.9118800E+02  0.7815553E-02  0.1125453E+00
         25   -1    0    0    0    0  0.00000000000E+00  0.00000000000E+00  0.99999998245E-14  0.12509000000E+03  0.12509000000E+03 0.  0.
        -13    1    3    3    0    0 -0.78500313759E+01  0.22052553287E+01  0.41277810609E+02  0.42075586228E+02  0.10566000000E+00 0. -1.
         23    2    1    0    0    0  0.29513542285E+02  0.25190438716E+01  0.34115396593E+01  0.95273337493E+02  0.90487432685E+02 0.  0.
         13    1    3    3    0    0  0.37363573661E+02  0.31378854288E+00 -0.37866270950E+02  0.53197751265E+02  0.10566000000E+00 0.  1.
         22    1    1    0    0    0 -0.29513542285E+02 -0.25190438716E+01 -0.34115396593E+01  0.29816662507E+02  0.00000000000E+00 0.  1.
</event>
<event>
 5    1  0.1254496E-009  0.9118800E+02  0.7815553E-02  0.1125453E+00
         25   -1    0    0    0    0  0.00000000000E+00  0.00000000000E+00  0.99999998245E-14  0.12509000000E+03  0.12509000000E+03 0.  0.
        -13    1    3    3    0    0  0.28268216890E+02  0.25429317603E+02 -0.60445070064E+01  0.38500513099E+02  0.10566000000E+00 0. -1.
         23    2    1    0    0    0 -0.14567300529E+02 -0.90297081083E+01 -0.23340572161E+02  0.96132717980E+02  0.91667743968E+02 0.  0.
         13    1    3    3    0    0 -0.42835517419E+02 -0.34459025711E+02 -0.17296065154E+02  0.57632204881E+02  0.10566000000E+00 0.  1.
         22    1    1    0    0    0  0.14567300529E+02  0.90297081083E+01  0.23340572161E+02  0.28957282020E+02  0.00000000000E+00 0.  1.
</event>
<event>
 5    1  0.1254496E-009  0.9118800E+02  0.7815553E-02  0.1125453E+00
         25   -1    0    0    0    0  0.00000000000E+00  0.00000000000E+00  0.99999998245E-14  0.12509000000E+03  0.12509000000E+03 0.  0.
        -13    1    3    3    0    0 -0.14395795856E+02  0.42099343295E+02  0.40453165013E+02  0.60133712407E+02  0.10566000000E+00 0.  1.
         23    2    1    0    0    0 -0.15725462125E+02  0.12136627203E+02  0.22445621226E+02  0.95116782102E+02  0.90270750780E+02 0.  0.
         13    1    3    3    0    0 -0.13296662691E+01 -0.29962716093E+02 -0.18007543787E+02  0.34983069695E+02  0.10566000000E+00 0. -1.
         22    1    1    0    0    0  0.15725462125E+02 -0.12136627203E+02 -0.22445621226E+02  0.29973217898E+02  0.00000000000E+00 0.  1.
</event>
<event>
 5    1  0.1254496E-009  0.9118800E+02  0.7815553E-02  0.1125453E+00
         25   -1    0    0    0    0  0.00000000000E+00  0.00000000000E+00  0.99999998245E-14  0.12509000000E+03  0.12509000000E+03 0.  0.
        -13    1    3    3    0    0 -0.24387403876E+02  0.37890778177E+02 -0.42629240074E+02  0.62029991230E+02  0.10566000000E+00 0.  1.
         23    2    1    0    0    0 -0.10562989690E+02  0.22034812988E+02 -0.16364713175E+02  0.95680587019E+02  0.91048674677E+02 0.  0.
         13    1    3    3    0    0  0.13824414186E+02 -0.15855965189E+02  0.26264526899E+02  0.33650595789E+02  0.10566000000E+00 0. -1.
         22    1    1    0    0    0  0.10562989690E+02 -0.22034812988E+02  0.16364713175E+02  0.29409412981E+02  0.00000000000E+00 0.  1.
</event>
<event>
 5    1  0.1254496E-009  0.9118800E+02  0.7815553E-02  0.1125453E+00
         25   -1    0    0    0    0  0.00000000000E+00  0.00000000000E+00  0.99999998245E-14  0.12509000000E+03  0.12509000000E+03 0.  0.
        -13    1    3    3    0    0  0.32745155566E+02 -0.20508193333E+02  0.36462718072E+02  0.53126002862E+02  0.10566000000E+00 0. -1.
         23    2    1    0    0    0 -0.62803204865E+01 -0.42991268985E+01  0.27805626900E+02  0.96261579912E+02  0.91843420899E+02 0.  0.
         13    1    3    3    0    0 -0.39025476053E+02  0.16209066434E+02 -0.86570911724E+01  0.43135577050E+02  0.10566000000E+00 0.  1.
         22    1    1    0    0    0  0.62803204865E+01  0.42991268985E+01 -0.27805626900E+02  0.28828420088E+02  0.00000000000E+00 0. -1.
</event>
<event>
 5    1  0.1254496E-009  0.9118800E+02  0.7815553E-02  0.1125453E+00
         25   -1    0    0    0    0  0.00000000000E+00  0.00000000000E+00  0.99999998245E-14  0.12509000000E+03  0.12509000000E+03 0.  0.
        -13    1    3    3    0    0  0.24821353317E+02  0.23418090341E+02 -0.13952069992E+02  0.36867030756E+02  0.10566000000E+00 0. -1.
         23    2    1    0    0    0 -0.56327594874E+01 -0.26905105461E+02 -0.10067578808E+02  0.95815970172E+02  0.91234485353E+02 0.  0.
         13    1    3    3    0    0 -0.30454112804E+02 -0.50323195802E+02  0.38844911832E+01  0.58948939416E+02  0.10566000000E+00 0.  1.
         22    1    1    0    0    0  0.56327594874E+01  0.26905105461E+02  0.10067578808E+02  0.29274029828E+02  0.00000000000E+00 0.  1.
</event>
<event>
 5    1  0.1254496E-009  0.9118800E+02  0.7815553E-02  0.1125453E+00
         25   -1    0    0    0    0  0.00000000000E+00  0.00000000000E+00  0.99999998245E-14  0.12509000000E+03  0.12509000000E+03 0.  0.
        -13    1    3    3    0    0  0.19948145824E+01 -0.13403767103E+01 -0.45899145013E+02  0.45962142812E+02  0.10566000000E+00 0. -1.
         23    2    1    0    0    0  0.18570874410E+02 -0.25878402251E+02 -0.11805688927E+02  0.91120258016E+02  0.84551511225E+02 0.  0.
         13    1    3    3    0    0  0.16576059828E+02 -0.24538025541E+02  0.34093456086E+02  0.45158115204E+02  0.10566000000E+00 0.  1.
         22    1    1    0    0    0 -0.18570874410E+02  0.25878402251E+02  0.11805688927E+02  0.33969741984E+02  0.00000000000E+00 0. -1.
</event>
<event>
 5    1  0.1254496E-009  0.9118800E+02  0.7815553E-02  0.1125453E+00
         25   -1    0    0    0    0  0.00000000000E+00  0.00000000000E+00  0.99999998245E-14  0.12509000000E+03  0.12509000000E+03 0.  0.
        -13    1    3    3    0    0 -0.69368293073E+01  0.43312798913E+02 -0.76028599300E+01  0.44518903779E+02  0.10566000000E+00 0.  1.
         23    2    1    0    0    0  0.21304343776E+02  0.34445943528E+02  0.15143432891E+02  0.81849721914E+02  0.69495721655E+02 0.  0.
         13    1    3    3    0    0  0.28241173083E+02 -0.88668553846E+01  0.22746292821E+02  0.37330818135E+02  0.10566000000E+00 0. -1.
         22    1    1    0    0    0 -0.21304343776E+02 -0.34445943528E+02 -0.15143432891E+02  0.43240278086E+02  0.00000000000E+00 0. -1.
</event>
<event>
 5    1  0.1254496E-009  0.9118800E+02  0.7815553E-02  0.1125453E+00
         25   -1    0    0    0    0  0.00000000000E+00  0.00000000000E+00  0.99999998245E-14  0.12509000000E+03  0.12509000000E+03 0.  0.
        -13    1    3    3    0    0  0.13021490205E+02  0.69080534915E+01  0.43376181758E+02  0.45812495219E+02  0.10566000000E+00 0. -1.
         23    2    1    0    0    0 -0.11909988439E+02  0.26328319454E+02  0.46104769387E+01  0.95827656836E+02  0.91250507325E+02 0.  0.
         13    1    3    3    0    0 -0.24931478644E+02  0.19420265962E+02 -0.38765704820E+02  0.50015161617E+02  0.10566000000E+00 0.  1.
         22    1    1    0    0    0  0.11909988439E+02 -0.26328319454E+02 -0.46104769387E+01  0.29262343164E+02  0.00000000000E+00 0.  1.
</event>
<event>
 5    1  0.1254496E-009  0.9118800E+02  0.7815553E-02  0.1125453E+00
         25   -1    0    0    0    0  0.00000000000E+00  0.00000000000E+00  0.99999998245E-14  0.12509000000E+03  0.12509000000E+03 0.  0.
        -13    1    3    3    0    0  0.59631131117E+01  0.47387326604E+01 -0.43421611033E+02  0.44084711340E+02  0.10566000000E+00 0.  1.
         23    2    1    0    0    0  0.26121133912E+02  0.13103973011E+02  0.33274405456E+01  0.95677424355E+02  0.91044329451E+02 0.  0.
         13    1    3    3    0    0  0.20158020800E+02  0.83652403503E+01  0.46749051579E+02  0.51592713015E+02  0.10566000000E+00 0. -1.
         22    1    1    0    0    0 -0.26121133912E+02 -0.13103973011E+02 -0.33274405456E+01  0.29412575645E+02  0.00000000000E+00 0. -1.
</event>
<event>
 5    1  0.1254496E-009  0.9118800E+02  0.7815553E-02  0.1125453E+00
         25   -1    0    0    0    0  0.00000000000E+00  0.00000000000E+00  0.99999998245E-14  0.12509000000E+03  0.12509000000E+03 0.  0.
        -13    1    3    3    0    0  0.65897278982E+01  0.54431500155E+02  0.71569908141E+01  0.55294180566E+02  0.10566000000E+00 0.  1.
         23    2    1    0    0    0  0.16598453045E+02  0.19205650702E+02  0.18554829205E+02  0.93647236934E+02  0.88210870284E+02 0.  0.
         13    1    3    3    0    0  0.10008725147E+02 -0.35225849453E+02  0.11397838391E+02  0.38353056368E+02  0.10566000000E+00 0. -1.
         22    1    1    0    0    0 -0.16598453045E+02 -0.19205650702E+02 -0.18554829205E+02  0.31442763066E+02  0.00000000000E+00 0.  1.
</event>
<event>
 5    1  0.1254496E-009  0.9118800E+02  0.7815553E-02  0.1125453E+00
         25   -1    0    0    0    0  0.00000000000E+00  0.00000000000E+00  0.99999998245E-14  0.12509000000E+03  0.12509000000E+03 0.  0.
        -13    1    3    3    0    0  0.58890958080E+01  0.12619117957E+02  0.28483956237E+02  0.31706001236E+02  0.10566000000E+00 0.  1.
         23    2    1    0    0    0  0.30222219261E+01 -0.60624428668E+01 -0.30605061056E+02  0.93744237908E+02  0.88348318262E+02 0.  0.
         13    1    3    3    0    0 -0.28668738819E+01 -0.18681560824E+02 -0.59089017293E+02  0.62038236672E+02  0.10566000000E+00 0. -1.
         22    1    1    0    0    0 -0.30222219261E+01  0.60624428668E+01  0.30605061056E+02  0.31345762092E+02  0.00000000000E+00 0. -1.
</event>
<event>
 5    1  0.1254496E-009  0.9118800E+02  0.7815553E-02  0.1125453E+00
         25   -1    0    0    0    0  0.00000000000E+00  0.00000000000E+00  0.99999998245E-14  0.12509000000E+03  0.12509000000E+03 0.  0.
        -13    1    3    3    0    0 -0.29993187021E+02  0.44984614867E-01  0.17735952567E+02  0.34844920272E+02  0.10566000000E+00 0.  1.
         23    2    1    0    0    0  0.16213650771E+02  0.12868589105E+02 -0.20334589319E+02  0.96073132842E+02  0.91586397868E+02 0.  0.
         13    1    3    3    0    0  0.46206837792E+02  0.12823604490E+02 -0.38070541886E+02  0.61228212569E+02  0.10566000000E+00 0. -1.
         22    1    1    0    0    0 -0.16213650771E+02 -0.12868589105E+02  0.20334589319E+02  0.29016867158E+02  0.00000000000E+00 0. -1.
</event>
<event>
 5    1  0.1254496E-009  0.9118800E+02  0.7815553E-02  0.1125453E+00
         25   -1    0    0    0    0  0.00000000000E+00  0.00000000000E+00  0.99999998245E-14  0.12509000000E+03  0.12509000000E+03 0.  0.
        -13    1    3    3    0    0 -0.19340852876E+02  0.29630636729E+02  0.30450145480E+01  0.35515158743E+02  0.10566000000E+00 0.  1.
         23    2    1    0    0    0  0.18173212495E+02 -0.12433237427E+02 -0.18971820066E+02  0.96024883418E+02  0.91520474395E+02 0.  0.
         13    1    3    3    0    0  0.37514065371E+02 -0.42063874156E+02 -0.22016834614E+02  0.60509724674E+02  0.10566000000E+00 0. -1.
         22    1    1    0    0    0 -0.18173212495E+02  0.12433237427E+02  0.18971820066E+02  0.29065116582E+02  0.00000000000E+00 0. -1.
</event>
<event>
 5    1  0.1254496E-009  0.9118800E+02  0.7815553E-02  0.1125453E+00
         25   -1    0    0    0    0  0.00000000000E+00  0.00000000000E+00  0.99999998245E-14  0.12509000000E+03  0.12509000000E+03 0.  0.
        -13    1    3    3    0    0  0.21996131342E+02  0.27177248928E+02 -0.43313452257E+01  0.35230730461E+02  0.10566000000E+00 0.  1.
         23    2    1    0    0    0 -0.94146091250E+01 -0.15551522484E+02 -0.26701201958E+02  0.92787695090E+02  0.86983432086E+02 0.  0.
         13    1    3    3    0    0 -0.31410740467E+02 -0.42728771412E+02 -0.22369856732E+02  0.57556964629E+02  0.10566000000E+00 0. -1.
         22    1    1    0    0    0  0.94146091250E+01  0.15551522484E+02  0.26701201958E+02  0.32302304910E+02  0.00000000000E+00 0. -1.
</event>
<event>
 5    1  0.1254496E-009  0.9118800E+02  0.7815553E-02  0.1125453E+00
         25   -1    0    0    0    0  0.00000000000E+00  0.00000000000E+00  0.99999998245E-14  0.12509000000E+03  0.12509000000E+03 0.  0.
        -13    1    3    3    0    0 -0.40200937010E+02  0.45428388182E+02 -0.46040878198E+01  0.60836359014E+02  0.10566000000E+00 0. -1.
         23    2    1    0    0    0 -0.12423163485E+02  0.24935950821E+02  0.52633833753E+01  0.96737930607E+02  0.92489931232E+02 0.  0.
         13    1    3    3    0    0  0.27777773526E+02 -0.20492437361E+02  0.98674711951E+01  0.35901571593E+02  0.10566000000E+00 0.  1.
         22    1    1    0    0    0  0.12423163485E+02 -0.24935950821E+02 -0.52633833753E+01  0.28352069393E+02  0.00000000000E+00 0. -1.
</event>
<event>
 5    1  0.1254496E-009  0.9118800E+02  0.7815553E-02  0.1125453E+00
         25   -1    0    0    0    0  0.00000000000E+00  0.00000000000E+00  0.99999998245E-14  0.12509000000E+03  0.12509000000E+03 0.  0.
        -13    1    3    3    0    0 -0.15122496889E+02 -0.31239429099E+02 -0.48215215024E+02  0.59407995812E+02  0.10566000000E+00 0.  1.
         23    2    1    0    0    0 -0.16132950481E+02 -0.31471819209E+01 -0.16229055129E+02  0.10199110228E+03  0.99340957664E+02 0.  0.
         13    1    3    3    0    0 -0.10104535926E+01  0.28092247178E+02  0.31986159895E+02  0.42583106473E+02  0.10566000000E+00 0. -1.
         22    1    1    0    0    0  0.16132950481E+02  0.31471819209E+01  0.16229055129E+02  0.23098897715E+02  0.00000000000E+00 0.  1.
</event>
<event>
 5    1  0.1254496E-009  0.9118800E+02  0.7815553E-02  0.1125453E+00
         25   -1    0    0    0    0  0.00000000000E+00  0.00000000000E+00  0.99999998245E-14  0.12509000000E+03  0.12509000000E+03 0.  0.
        -13    1    3    3    0    0  0.13883905876E+02 -0.28199886250E+02  0.28278486413E+02  0.42280969534E+02  0.10566000000E+00 0.  1.
         23    2    1    0    0    0  0.28363461823E+00  0.22022276266E+02  0.20707064576E+02  0.94860153426E+02  0.89914432012E+02 0.  0.
         13    1    3    3    0    0 -0.13600271257E+02  0.50222162516E+02 -0.75714218372E+01  0.52579183892E+02  0.10566000000E+00 0. -1.
         22    1    1    0    0    0 -0.28363461823E+00 -0.22022276266E+02 -0.20707064576E+02  0.30229846574E+02  0.00000000000E+00 0. -1.
</event>
<event>
 5    1  0.1254496E-009  0.9118800E+02  0.7815553E-02  0.1125453E+00
         25   -1    0    0    0    0  0.00000000000E+00  0.00000000000E+00  0.99999998245E-14  0.12509000000E+03  0.12509000000E+03 0.  0.
        -13    1    3    3    0    0 -0.32773749790E+02 -0.14686759812E+01 -0.36515173842E+02  0.49088132672E+02  0.10566000000E+00 0.  1.
         23    2    1    0    0    0 -0.16355675525E+02 -0.24302975627E+02  0.76375601327E+00  0.95785971788E+02  0.91193345820E+02 0.  0.
         13    1    3    3    0    0  0.16418074265E+02 -0.22834299646E+02  0.37278929856E+02  0.46697839116E+02  0.10566000000E+00 0. -1.
         22    1    1    0    0    0  0.16355675525E+02  0.24302975627E+02 -0.76375601327E+00  0.29304028212E+02  0.00000000000E+00 0. -1.
</event>
<event>
 5    1  0.1254496E-009  0.9118800E+02  0.7815553E-02  0.1125453E+00
         25   -1    0    0    0    0  0.00000000000E+00  0.00000000000E+00  0.99999998245E-14  0.12509000000E+03  0.12509000000E+03 0.  0.
        -13    1    3    3    0    0  0.41586107889E+02  0.14255041413E+01 -0.15115298749E+02  0.44270982051E+02  0.10566000000E+00 0. -1.
         23    2    1    0    0    0  0.10754389727E+01 -0.28369355747E+02 -0.10694703880E+02  0.94752669769E+02  0.89764774955E+02 0.  0.
         13    1    3    3    0    0 -0.40510668916E+02 -0.29794859888E+02  0.44205948696E+01  0.50481687718E+02  0.10566000000E+00 0.  1.
         22    1    1    0    0    0 -0.10754389727E+01  0.28369355747E+02  0.10694703880E+02  0.30337330231E+02  0.00000000000E+00 0.  1.
</event>
<event>
 5    1  0.1254496E-009  0.9118800E+02  0.7815553E-02  0.1125453E+00
         25   -1    0    0    0    0  0.00000000000E+00  0.00000000000E+00  0.99999998245E-14  0.12509000000E+03  0.12509000000E+03 0.  0.
        -13    1    3    3    0    0 -0.19693056514E+02  0.10415847231E+02  0.37309841602E+02  0.43455054859E+02  0.10566000000E+00 0.  1.
         23    2    1    0    0    0  0.14002010125E+02 -0.21816126235E+02  0.14905235881E+02  0.95187396299E+02  0.90368549319E+02 0.  0.
         13    1    3    3    0    0  0.33695066639E+02 -0.32231973466E+02 -0.22404605721E+02  0.51732341440E+02  0.10566000000E+00 0. -1.
         22    1    1    0    0    0 -0.14002010125E+02  0.21816126235E+02 -0.14905235881E+02  0.29902603701E+02  0.00000000000E+00 0. -1.
</event>
<event>
 5    1  0.1254496E-009  0.9118800E+02  0.7815553E-02  0.1125453E+00
         25   -1    0    0    0    0  0.00000000000E+00  0.00000000000E+00  0.99999998245E-14  0.12509000000E+03  0.12509000000E+03 0.  0.
        -13    1    3    3    0    0  0.95207400183E+01  0.34426364151E+02  0.10482399376E+02  0.37225138010E+02  0.10566000000E+00 0.  1.
         23    2    1    0    0    0 -0.24445654602E+02 -0.13476456856E+02  0.82150192007E+01  0.95992036862E+02  0.91475568772E+02 0.  0.
         13    1    3    3    0    0 -0.33966394620E+02 -0.47902821007E+02 -0.22673801754E+01  0.58766898853E+02  0.10566000000E+00 0. -1.
         22    1    1    0    0    0  0.24445654602E+02  0.13476456856E+02 -0.82150192007E+01  0.29097963138E+02  0.00000000000E+00 0. -1.
</event>
<event>
 5    1  0.1254496E-009  0.9118800E+02  0.7815553E-02  0.1125453E+00
         25   -1    0    0    0    0  0.00000000000E+00  0.00000000000E+00  0.99999998245E-14  0.12509000000E+03  0.12509000000E+03 0.  0.
        -13    1    3    3    0    0  0.13965714629E+00 -0.40641861966E+02 -0.23528623485E+01  0.40710288299E+02  0.10566000000E+00 0. -1.
         23    2    1    0    0    0 -0.48359041213E+01  0.58837538062E+01  0.27727144590E+02  0.96335885953E+02  0.91944569430E+02 0.  0.
         13    1    3    3    0    0 -0.49755612676E+01  0.46525615772E+02  0.30080006938E+02  0.55625597654E+02  0.10566000000E+00 0.  1.
         22    1    1    0    0    0  0.48359041213E+01 -0.58837538062E+01 -0.27727144590E+02  0.28754114047E+02  0.00000000000E+00 0.  1.
</event>
<event>
 5    1  0.1254496E-009  0.9118800E+02  0.7815553E-02  0.1125453E+00
         25   -1    0    0    0    0  0.00000000000E+00  0.00000000000E+00  0.99999998245E-14  0.12509000000E+03  0.12509000000E+03 0.  0.
        -13    1    3    3    0    0  0.30493751954E+02  0.11242131971E+02 -0.17384881193E+02  0.36857830886E+02  0.10566000000E+00 0. -1.
         23    2    1    0    0    0 -0.25183498041E+02  0.14923570296E+02  0.15335103869E+01  0.95776638233E+02  0.91180542076E+02 0.  0.
         13    1    3    3    0    0 -0.55677249995E+02  0.36814383248E+01  0.18918391580E+02  0.58918807347E+02  0.10566000000E+00 0.  1.
         22    1    1    0    0    0  0.25183498041E+02 -0.14923570296E+02 -0.15335103869E+01  0.29313361767E+02  0.00000000000E+00 0.  1.
</event>
<event>
 5    1  0.1254496E-009  0.9118800E+02  0.7815553E-02  0.1125453E+00
         25   -1    0    0    0    0  0.00000000000E+00  0.00000000000E+00  0.99999998245E-14  0.12509000000E+03  0.12509000000E+03 0.  0.
        -13    1    3    3    0    0  0.37772477629E+01 -0.36665310875E+02 -0.15707775068E+02  0.40066918822E+02  0.10566000000E+00 0.  1.
         23    2    1    0    0    0  0.20118228453E+00  0.18617036425E+02 -0.22506800358E+02  0.95880573749E+02  0.91323019226E+02 0.  0.
         13    1    3    3    0    0 -0.35760654783E+01  0.55282347301E+02 -0.67990252895E+01  0.55813654927E+02  0.10566000000E+00 0. -1.
         22    1    1    0    0    0 -0.20118228453E+00 -0.18617036425E+02  0.22506800358E+02  0.29209426251E+02  0.00000000000E+00 0. -1.
</event>
<event>
 5    1  0.1254496E-009  0.9118800E+02  0.7815553E-02  0.1125453E+00
         25   -1    0    0    0    0  0.00000000000E+00  0.00000000000E+00  0.99999998245E-14  0.12509000000E+03  0.12509000000E+03 0.  0.
        -13    1    3    3    0    0 -0.47643812213E+02  0.83070468595E+01  0.28053806577E+02  0.55910348749E+02  0.10566000000E+00 0.  1.
         23    2    1    0    0    0 -0.84404681562E+01  0.12669206010E+02  0.25440921699E+02  0.95442221322E+02  0.90720597608E+02 0.  0.
         13    1    3    3    0    0  0.39203344057E+02  0.43621591510E+01 -0.26128848783E+01  0.39531872573E+02  0.10566000000E+00 0. -1.
         22    1    1    0    0    0  0.84404681562E+01 -0.12669206010E+02 -0.25440921699E+02  0.29647778678E+02  0.00000000000E+00 0.  1.
</event>
<event>
 5    1  0.1254496E-009  0.9118800E+02  0.7815553E-02  0.1125453E+00
         25   -1    0    0    0    0  0.00000000000E+00  0.00000000000E+00  0.99999998245E-14  0.12509000000E+03  0.12509000000E+03 0.  0.
        -13    1    3    3    0    0 -0.24842960315E+02  0.23397256549E+02 -0.30629056034E+02  0.45855801474E+02  0.10566000000E+00 0. -1.
         23    2    1    0    0    0  0.97728827080E+00  0.28027094480E+02  0.10921581672E+02  0.94994251736E+02  0.90100797994E+02 0.  0.
         13    1    3    3    0    0  0.25820248586E+02  0.46298379313E+01  0.41550637706E+02  0.49138450262E+02  0.10566000000E+00 0.  1.
         22    1    1    0    0    0 -0.97728827080E+00 -0.28027094480E+02 -0.10921581672E+02  0.30095748264E+02  0.00000000000E+00 0. -1.
</event>
<event>
 5    1  0.1254496E-009  0.9118800E+02  0.7815553E-02  0.1125453E+00
         25   -1    0    0    0    0  0.00000000000E+00  0.00000000000E+00  0.99999998245E-14  0.12509000000E+03  0.12509000000E+03 0.  0.
        -13    1    3    3    0    0  0.57019747022E+01 -0.64145377058E+01 -0.39820437897E+02  0.40734963457E+02  0.10566000000E+00 0. -1.
         23    2    1    0    0    0 -0.24487364652E+02 -0.10231756687E+02  0.79603423194E+01  0.97382836264E+02  0.93358073440E+02 0.  0.
         13    1    3    3    0    0 -0.30189339354E+02 -0.38172189810E+01  0.47780780217E+02  0.56647872807E+02  0.10566000000E+00 0.  1.
         22    1    1    0    0    0  0.24487364652E+02  0.10231756687E+02 -0.79603423194E+01  0.27707163736E+02  0.00000000000E+00 0.  1.
</event>
<event>
 5    1  0.1254496E-009  0.9118800E+02  0.7815553E-02  0.1125453E+00
         25   -1    0    0    0    0  0.00000000000E+00  0.00000000000E+00  0.99999998245E-14  0.12509000000E+03  0.12509000000E+03 0.  0.
        -13    1    3    3    0    0 -0.32712688692E+02  0.42925448075E+02 -0.20558796549E+02  0.57752830004E+02  0.10566000000E+00 0. -1.
         23    2    1    0    0    0 -0.18632471574E+01  0.26993889432E+02 -0.18050175390E+02  0.92563847626E+02  0.86660921407E+02 0.  0.
         13    1    3    3    0    0  0.30849441534E+02 -0.15931558642E+02  0.25086211597E+01  0.34811017622E+02  0.10566000000E+00 0.  1.
         22    1    1    0    0    0  0.18632471574E+01 -0.26993889432E+02  0.18050175390E+02  0.32526152374E+02  0.00000000000E+00 0. -1.
</event>
<event>
 5    1  0.1254496E-009  0.9118800E+02  0.7815553E-02  0.1125453E+00
         25   -1    0    0    0    0  0.00000000000E+00  0.00000000000E+00  0.99999998245E-14  0.12509000000E+03  0.12509000000E+03 0.  0.
        -13    1    3    3    0    0  0.11703785989E+02 -0.36026934619E+02 -0.24770267475E+01  0.37961367863E+02  0.10566000000E+00 0. -1.
         23    2    1    0    0    0  0.15044214711E+02  0.17268372209E+02 -0.20532406683E+02  0.94331183390E+02  0.89175486321E+02 0.  0.
         13    1    3    3    0    0  0.33404287219E+01  0.53295306828E+02 -0.18055379935E+02  0.56369815527E+02  0.10566000000E+00 0.  1.
         22    1    1    0    0    0 -0.15044214711E+02 -0.17268372209E+02  0.20532406683E+02  0.30758816610E+02  0.00000000000E+00 0.  1.
</event>
<event>
 5    1  0.1254496E-009  0.9118800E+02  0.7815553E-02  0.1125453E+00
         25   -1    0    0    0    0  0.00000000000E+00  0.00000000000E+00  0.99999998245E-14  0.12509000000E+03  0.12509000000E+03 0.  0.
        -13    1    3    3    0    0  0.13301355664E+02 -0.19086469313E+02  0.55886299630E+02  0.60535188310E+02  0.10566000000E+00 0. -1.
         23    2    1    0    0    0  0.14193784295E+02 -0.13288828641E+02  0.18933430688E+02  0.97950890271E+02  0.94116128416E+02 0.  0.
         13    1    3    3    0    0  0.89242863023E+00  0.57976406715E+01 -0.36952868942E+02  0.37415701961E+02  0.10566000000E+00 0.  1.
         22    1    1    0    0    0 -0.14193784295E+02  0.13288828641E+02 -0.18933430688E+02  0.27139109729E+02  0.00000000000E+00 0. -1.
</event>
<event>
 5    1  0.1254496E-009  0.9118800E+02  0.7815553E-02  0.1125453E+00
         25   -1    0    0    0    0  0.00000000000E+00  0.00000000000E+00  0.99999998245E-14  0.12509000000E+03  0.12509000000E+03 0.  0.
        -13    1    3    3    0    0 -0.42732835739E+02 -0.82080095504E+01  0.13188296299E+02  0.45468769440E+02  0.10566000000E+00 0.  1.
         23    2    1    0    0    0 -0.14232647943E+02  0.16758319129E+02 -0.19645583407E+02  0.95605114467E+02  0.90944925298E+02 0.  0.
         13    1    3    3    0    0  0.28500187796E+02  0.24966328679E+02 -0.32833879706E+02  0.50136345027E+02  0.10566000000E+00 0. -1.
         22    1    1    0    0    0  0.14232647943E+02 -0.16758319129E+02  0.19645583407E+02  0.29484885533E+02  0.00000000000E+00 0. -1.
</event>
<event>
 5    1  0.1254496E-009  0.9118800E+02  0.7815553E-02  0.1125453E+00
         25   -1    0    0    0    0  0.00000000000E+00  0.00000000000E+00  0.99999998245E-14  0.12509000000E+03  0.12509000000E+03 0.  0.
        -13    1    3    3    0    0  0.22092284469E+02  0.45733545056E+02  0.28375659975E+01  0.50869333800E+02  0.10566000000E+00 0. -1.
         23    2    1    0    0    0  0.33436776106E+02  0.76680196098E+01  0.36002408419E+01  0.90596837559E+02  0.83773556212E+02 0.  0.
         13    1    3    3    0    0  0.11344491636E+02 -0.38065525446E+02  0.76267484448E+00  0.39727503759E+02  0.10566000000E+00 0.  1.
         22    1    1    0    0    0 -0.33436776106E+02 -0.76680196098E+01 -0.36002408419E+01  0.34493162441E+02  0.00000000000E+00 0. -1.
</event>
<event>
 5    1  0.1254496E-009  0.9118800E+02  0.7815553E-02  0.1125453E+00
         25   -1    0    0    0    0  0.00000000000E+00  0.00000000000E+00  0.99999998245E-14  0.12509000000E+03  0.12509000000E+03 0.  0.
        -13    1    3    3    0    0 -0.13175168280E+02 -0.55849951599E+02  0.47907662874E+00  0.57385040135E+02  0.10566000000E+00 0. -1.
         23    2    1    0    0    0 -0.11114437342E+02 -0.20642171548E+02  0.16801276108E+02  0.96247100657E+02  0.91823698152E+02 0.  0.
         13    1    3    3    0    0  0.20607309382E+01  0.35207780051E+02  0.16322199480E+02  0.38862060522E+02  0.10566000000E+00 0.  1.
         22    1    1    0    0    0  0.11114437342E+02  0.20642171548E+02 -0.16801276108E+02  0.28842899343E+02  0.00000000000E+00 0. -1.
</event>
<event>
 5    1  0.1254496E-009  0.9118800E+02  0.7815553E-02  0.1125453E+00
         25   -1    0    0    0    0  0.00000000000E+00  0.00000000000E+00  0.99999998245E-14  0.12509000000E+03  0.12509000000E+03 0.  0.
        -13    1    3    3    0    0 -0.31316637452E+02  0.36841029436E+02 -0.80562580511E+01  0.49019462349E+02  0.10566000000E+00 0.  1.
         23    2    1    0    0    0 -0.27404225568E+02 -0.47326262986E+01  0.11333842908E+02  0.95059260320E+02  0.90191006463E+02 0.  0.
         13    1    3    3    0    0  0.39124118836E+01 -0.41573655735E+02  0.19390100959E+02  0.46039797970E+02  0.10566000000E+00 0. -1.
         22    1    1    0    0    0  0.27404225568E+02  0.47326262986E+01 -0.11333842908E+02  0.30030739680E+02  0.00000000000E+00 0.  1.
</event>
<event>
 5    1  0.1254496E-009  0.9118800E+02  0.7815553E-02  0.1125453E+00
         25   -1    0    0    0    0  0.00000000000E+00  0.00000000000E+00  0.99999998245E-14  0.12509000000E+03  0.12509000000E+03 0.  0.
        -13    1    3    3    0    0  0.21550207472E+02  0.34447173568E+02 -0.76521867831E+01  0.41347144224E+02  0.10566000000E+00 0.  1.
         23    2    1    0    0    0 -0.76452153116E+01 -0.10973456798E+02 -0.23873365317E+02  0.97725723236E+02  0.93816380975E+02 0.  0.
         13    1    3    3    0    0 -0.29195422784E+02 -0.45420630365E+02 -0.16221178534E+02  0.56378579012E+02  0.10566000000E+00 0. -1.
         22    1    1    0    0    0  0.76452153116E+01  0.10973456798E+02  0.23873365317E+02  0.27364276764E+02  0.00000000000E+00 0. -1.
</event>
<event>
 5    1  0.1254496E-009  0.9118800E+02  0.7815553E-02  0.1125453E+00
         25   -1    0    0    0    0  0.00000000000E+00  0.00000000000E+00  0.99999998245E-14  0.12509000000E+03  0.12509000000E+03 0.  0.
        -13    1    3    3    0    0 -0.18110803659E+02 -0.48833301271E+02 -0.29373651504E+01  0.52166385731E+02  0.10566000000E+00 0.  1.
         23    2    1    0    0    0 -0.22365276861E+00 -0.14857967924E+02 -0.24672812136E+02  0.96287970730E+02  0.91879357949E+02 0.  0.
         13    1    3    3    0    0  0.17887150891E+02  0.33975333347E+02 -0.21735446986E+02  0.44121584998E+02  0.10566000000E+00 0. -1.
         22    1    1    0    0    0  0.22365276861E+00  0.14857967924E+02  0.24672812136E+02  0.28802029270E+02  0.00000000000E+00 0. -1.
</event>
<event>
 5    1  0.1254496E-009  0.9118800E+02  0.7815553E-02  0.1125453E+00
         25   -1    0    0    0    0  0.00000000000E+00  0.00000000000E+00  0.99999998245E-14  0.12509000000E+03  0.12509000000E+03 0.  0.
        -13    1    3    3    0    0  0.31288223654E+02  0.12276655317E+02  0.19518502490E+02  0.38867110887E+02  0.10566000000E+00 0.  1.
         23    2    1    0    0    0 -0.21988074575E+02  0.18041973446E+02 -0.19170117337E+01  0.96582752442E+02  0.92279818520E+02 0.  0.
         13    1    3    3    0    0 -0.53276298229E+02  0.57653181290E+01 -0.21435514223E+02  0.57715641556E+02  0.10566000000E+00 0. -1.
         22    1    1    0    0    0  0.21988074575E+02 -0.18041973446E+02  0.19170117337E+01  0.28507247558E+02  0.00000000000E+00 0.  1.
</event>
<event>
 5    1  0.1254496E-009  0.9118800E+02  0.7815553E-02  0.1125453E+00
         25   -1    0    0    0    0  0.00000000000E+00  0.00000000000E+00  0.99999998245E-14  0.12509000000E+03  0.12509000000E+03 0.  0.
        -13    1    3    3    0    0 -0.39305229945E+01  0.15101863997E+02  0.43695554149E+02  0.46398576742E+02  0.10566000000E+00 0.  1.
         23    2    1    0    0    0 -0.21981952643E+02  0.19271722116E+02 -0.20811520497E+01  0.95782377968E+02  0.91188416041E+02 0.  0.
         13    1    3    3    0    0 -0.18051429649E+02  0.41698581189E+01 -0.45776706199E+02  0.49383801226E+02  0.10566000000E+00 0. -1.
         22    1    1    0    0    0  0.21981952643E+02 -0.19271722116E+02  0.20811520497E+01  0.29307622032E+02  0.00000000000E+00 0. -1.
</event>
<event>
 5    1  0.1254496E-009  0.9118800E+02  0.7815553E-02  0.1125453E+00
         25   -1    0    0    0    0  0.00000000000E+00  0.00000000000E+00  0.99999998245E-14  0.12509000000E+03  0.12509000000E+03 0.  0.
        -13    1    3    3    0    0  0.40866584068E+02  0.16657591957E+01 -0.11346807232E+02  0.42445419605E+02  0.10566000000E+00 0.  1.
         23    2    1    0    0    0  0.22199043399E+01  0.26839819079E+02  0.13639750904E+02  0.94901481186E+02  0.89971909300E+02 0.  0.
         13    1    3    3    0    0 -0.38646679728E+02  0.25174059883E+02  0.24986558136E+02  0.52456061580E+02  0.10566000000E+00 0. -1.
         22    1    1    0    0    0 -0.22199043399E+01 -0.26839819079E+02 -0.13639750904E+02  0.30188518814E+02  0.00000000000E+00 0. -1.
</event>
<event>
 5    1  0.1254496E-009  0.9118800E+02  0.7815553E-02  0.1125453E+00
         25   -1    0    0    0    0  0.00000000000E+00  0.00000000000E+00  0.99999998245E-14  0.12509000000E+03  0.12509000000E+03 0.  0.
        -13    1    3    3    0    0  0.16779596272E+02  0.22922132852E+01 -0.29701463841E+02  0.34190601211E+02  0.10566000000E+00 0.  1.
         23    2    1    0    0    0 -0.31322238165E+02 -0.11708832243E+02 -0.16442434192E+01  0.91610410806E+02  0.85273586036E+02 0.  0.
         13    1    3    3    0    0 -0.48101834437E+02 -0.14001045528E+02  0.28057220422E+02  0.57419809595E+02  0.10566000000E+00 0. -1.
         22    1    1    0    0    0  0.31322238165E+02  0.11708832243E+02  0.16442434192E+01  0.33479589194E+02  0.00000000000E+00 0. -1.
</event>
<event>
 5    1  0.1254496E-009  0.9118800E+02  0.7815553E-02  0.1125453E+00
         25   -1    0    0    0    0  0.00000000000E+00  0.00000000000E+00  0.99999998245E-14  0.12509000000E+03  0.12509000000E+03 0.  0.
        -13    1    3    3    0    0 -0.18465925100E+02 -0.11256714584E+02  0.38397723595E+02  0.44069267685E+02  0.10566000000E+00 0. -1.
         23    2    1    0    0    0 -0.26063590031E+02 -0.17229721451E+02 -0.91060421555E+01  0.92546275101E+02  0.86635552775E+02 0.  0.
         13    1    3    3    0    0 -0.75976649304E+01 -0.59730068677E+01 -0.47503765750E+02  0.48477007415E+02  0.10566000000E+00 0.  1.
         22    1    1    0    0    0  0.26063590031E+02  0.17229721451E+02  0.91060421555E+01  0.32543724899E+02  0.00000000000E+00 0.  1.
</event>
<event>
 5    1  0.1254496E-009  0.9118800E+02  0.7815553E-02  0.1125453E+00
         25   -1    0    0    0    0  0.00000000000E+00  0.00000000000E+00  0.99999998245E-14  0.12509000000E+03  0.12509000000E+03 0.  0.
        -13    1    3    3    0    0 -0.15226195687E+01  0.57158801408E+02 -0.22523467831E+02  0.61455388014E+02  0.10566000000E+00 0. -1.
         23    2    1    0    0    0  0.62333609540E+01  0.21279475603E+02 -0.13029880445E+02  0.99371355885E+02  0.95985507839E+02 0.  0.
         13    1    3    3    0    0  0.77559805228E+01 -0.35879325805E+02  0.94935873860E+01  0.37915967871E+02  0.10566000000E+00 0.  1.
         22    1    1    0    0    0 -0.62333609540E+01 -0.21279475603E+02  0.13029880445E+02  0.25718644115E+02  0.00000000000E+00 0. -1.
</event>
<event>
 5    1  0.1254496E-009  0.9118800E+02  0.7815553E-02  0.1125453E+00
         25   -1    0    0    0    0  0.00000000000E+00  0.00000000000E+00  0.99999998245E-14  0.12509000000E+03  0.12509000000E+03 0.  0.
        -13    1    3    3    0    0 -0.34070927774E+01 -0.38465575575E+02  0.11999434144E+02  0.40437685015E+02  0.10566000000E+00 0.  1.
         23    2    1    0    0    0 -0.20709564954E+02  0.13132190241E+02  0.17244418833E+02  0.95111499671E+02  0.90263430511E+02 0.  0.
         13    1    3    3    0    0 -0.17302472176E+02  0.51597765816E+02  0.52449846895E+01  0.54673814656E+02  0.10566000000E+00 0. -1.
         22    1    1    0    0    0  0.20709564954E+02 -0.13132190241E+02 -0.17244418833E+02  0.29978500329E+02  0.00000000000E+00 0. -1.
</event>
<event>
 5    1  0.1254496E-009  0.9118800E+02  0.7815553E-02  0.1125453E+00
         25   -1    0    0    0    0  0.00000000000E+00  0.00000000000E+00  0.99999998245E-14  0.12509000000E+03  0.12509000000E+03 0.  0.
        -13    1    3    3    0    0  0.22105623260E+02  0.19821537014E+02 -0.20174993365E+02  0.35896983587E+02  0.10566000000E+00 0.  1.
         23    2    1    0    0    0 -0.29871390269E+01 -0.16819630901E+02  0.22063758762E+02  0.97186014013E+02  0.93093978784E+02 0.  0.
         13    1    3    3    0    0 -0.25092762287E+02 -0.36641167915E+02  0.42238752127E+02  0.61289030427E+02  0.10566000000E+00 0. -1.
         22    1    1    0    0    0  0.29871390269E+01  0.16819630901E+02 -0.22063758762E+02  0.27903985987E+02  0.00000000000E+00 0. -1.
</event>
<event>
 5    1  0.1254496E-009  0.9118800E+02  0.7815553E-02  0.1125453E+00
         25   -1    0    0    0    0  0.00000000000E+00  0.00000000000E+00  0.99999998245E-14  0.12509000000E+03  0.12509000000E+03 0.  0.
        -13    1    3    3    0    0 -0.28607575232E+02  0.62466897627E+01  0.31271919434E+02  0.42841085453E+02  0.10566000000E+00 0. -1.
         23    2    1    0    0    0  0.12728788034E+02  0.26867505787E+02  0.14756556485E+02  0.91899024249E+02  0.85695914643E+02 0.  0.
         13    1    3    3    0    0  0.41336363265E+02  0.20620816025E+02 -0.16515362949E+02  0.49057938796E+02  0.10566000000E+00 0.  1.
         22    1    1    0    0    0 -0.12728788034E+02 -0.26867505787E+02 -0.14756556485E+02  0.33190975751E+02  0.00000000000E+00 0. -1.
</event>
<event>
 5    1  0.1254496E-009  0.9118800E+02  0.7815553E-02  0.1125453E+00
         25   -1    0    0    0    0  0.00000000000E+00  0.00000000000E+00  0.99999998245E-14  0.12509000000E+03  0.12509000000E+03 0.  0.
        -13    1    3    3    0    0 -0.10557362695E+02 -0.53326154838E+01 -0.32726722474E+02  0.34798623865E+02  0.10566000000E+00 0.  1.
         23    2    1    0    0    0 -0.11925150530E+02  0.94490650277E+01  0.25777642517E+02  0.95157059971E+02  0.90326547391E+02 0.  0.
         13    1    3    3    0    0 -0.13677878348E+01  0.14781680512E+02  0.58504364990E+02  0.60358436107E+02  0.10566000000E+00 0. -1.
         22    1    1    0    0    0  0.11925150530E+02 -0.94490650277E+01 -0.25777642517E+02  0.29932940029E+02  0.00000000000E+00 0. -1.
</event>
<event>
 5    1  0.1254496E-009  0.9118800E+02  0.7815553E-02  0.1125453E+00
         25   -1    0    0    0    0  0.00000000000E+00  0.00000000000E+00  0.99999998245E-14  0.12509000000E+03  0.12509000000E+03 0.  0.
        -13    1    3    3    0    0 -0.24856186569E+02 -0.25314842475E+02 -0.12806610690E+02  0.37718585627E+02  0.10566000000E+00 0. -1.
         23    2    1    0    0    0  0.28689771327E+02 -0.57040558157E+01 -0.68032328019E+01  0.95057963637E+02  0.90189208016E+02 0.  0.
         13    1    3    3    0    0  0.53545957896E+02  0.19610786660E+02  0.60033778886E+01  0.57339378010E+02  0.10566000000E+00 0.  1.
         22    1    1    0    0    0 -0.28689771327E+02  0.57040558157E+01  0.68032328019E+01  0.30032036363E+02  0.00000000000E+00 0. -1.
</event>
<event>
 5    1  0.1254496E-009  0.9118800E+02  0.7815553E-02  0.1125453E+00
         25   -1    0    0    0    0  0.00000000000E+00  0.00000000000E+00  0.99999998245E-14  0.12509000000E+03  0.12509000000E+03 0.  0.
        -13    1    3    3    0    0 -0.31348140728E+01  0.42160331596E+02  0.11552992126E+02  0.43826971270E+02  0.10566000000E+00 0. -1.
         23    2    1    0    0    0 -0.26111269628E+02 -0.41947182928E+01  0.13079095295E+02  0.95586495176E+02  0.90919311828E+02 0.  0.
         13    1    3    3    0    0 -0.22976455555E+02 -0.46355049889E+02  0.15261031682E+01  0.51759523906E+02  0.10566000000E+00 0.  1.
         22    1    1    0    0    0  0.26111269628E+02  0.41947182928E+01 -0.13079095295E+02  0.29503504824E+02  0.00000000000E+00 0. -1.
</event>
<event>
 5    1  0.1254496E-009  0.9118800E+02  0.7815553E-02  0.1125453E+00
         25   -1    0    0    0    0  0.00000000000E+00  0.00000000000E+00  0.99999998245E-14  0.12509000000E+03  0.12509000000E+03 0.  0.
        -13    1    3    3    0    0 -0.14752900057E+02 -0.34265206307E+02  0.65823697214E+00  0.37312154364E+02  0.10566000000E+00 0.  1.
         23    2    1    0    0    0 -0.12773993886E+02  0.23280774932E+02  0.11918530949E+02  0.95982942759E+02  0.91463132023E+02 0.  0.
         13    1    3    3    0    0  0.19789061710E+01  0.57545981239E+02  0.11260293976E+02  0.58670788395E+02  0.10566000000E+00 0. -1.
         22    1    1    0    0    0  0.12773993886E+02 -0.23280774932E+02 -0.11918530949E+02  0.29107057241E+02  0.00000000000E+00 0.  1.
</event>
<event>
 5    1  0.1254496E-009  0.9118800E+02  0.7815553E-02  0.1125453E+00
         25   -1    0    0    0    0  0.00000000000E+00  0.00000000000E+00  0.99999998245E-14  0.12509000000E+03  0.12509000000E+03 0.  0.
        -13    1    3    3    0    0  0.27864919990E+02  0.23522364209E+02 -0.46838647159E+02  0.59360133218E+02  0.10566000000E+00 0. -1.
         23    2    1    0    0    0  0.20644593251E+01  0.18749497843E+02 -0.26519623505E+02  0.92546243417E+02  0.86635507029E+02 0.  0.
         13    1    3    3    0    0 -0.25800460665E+02 -0.47728663667E+01  0.20319023653E+02  0.33186110199E+02  0.10566000000E+00 0.  1.
         22    1    1    0    0    0 -0.20644593251E+01 -0.18749497843E+02  0.26519623505E+02  0.32543756583E+02  0.00000000000E+00 0. -1.
</event>
<event>
 5    1  0.1254496E-009  0.9118800E+02  0.7815553E-02  0.1125453E+00
         25   -1    0    0    0    0  0.00000000000E+00  0.00000000000E+00  0.99999998245E-14  0.12509000000E+03  0.12509000000E+03 0.  0.
        -13    1    3    3    0    0  0.28738300432E+02  0.53508547877E+01 -0.24873204299E+02  0.38382405016E+02  0.10566000000E+00 0. -1.
         23    2    1    0    0    0 -0.59711552289E+00 -0.24828381312E+02  0.14764757022E+02  0.96197040383E+02  0.91755476474E+02 0.  0.
         13    1    3    3    0    0 -0.29335415955E+02 -0.30179236099E+02  0.39637961321E+02  0.57814635367E+02  0.10566000000E+00 0.  1.
         22    1    1    0    0    0  0.59711552289E+00  0.24828381312E+02 -0.14764757022E+02  0.28892959617E+02  0.00000000000E+00 0.  1.
</event>
<event>
 5    1  0.1254496E-009  0.9118800E+02  0.7815553E-02  0.1125453E+00
         25   -1    0    0    0    0  0.00000000000E+00  0.00000000000E+00  0.99999998245E-14  0.12509000000E+03  0.12509000000E+03 0.  0.
        -13    1    3    3    0    0  0.60809016705E+01  0.28241396873E+02  0.17808535363E+02  0.33936837777E+02  0.10566000000E+00 0. -1.
         23    2    1    0    0    0 -0.55421621744E+01 -0.29584793171E+02  0.24235300814E+01  0.94893161646E+02  0.89960341710E+02 0.  0.
         13    1    3    3    0    0 -0.11623063845E+02 -0.57826190044E+02 -0.15385005282E+02  0.60956323869E+02  0.10566000000E+00 0.  1.
         22    1    1    0    0    0  0.55421621744E+01  0.29584793171E+02 -0.24235300814E+01  0.30196838354E+02  0.00000000000E+00 0.  1.
</event>
<event>
 5    1  0.1254496E-009  0.9118800E+02  0.7815553E-02  0.1125453E+00
         25   -1    0    0    0    0  0.00000000000E+00  0.00000000000E+00  0.99999998245E-14  0.12509000000E+03  0.12509000000E+03 0.  0.
        -13    1    3    3    0    0 -0.64317456923E+01  0.33390832931E+02 -0.19449916144E+02  0.39174296146E+02  0.10566000000E+00 0.  1.
         23    2    1    0    0    0  0.14671152561E+02  0.44870694436E+01  0.24703584877E+02  0.96010047878E+02  0.91500194962E+02 0.  0.
         13    1    3    3    0    0  0.21102898253E+02 -0.28903763488E+02  0.44153501021E+02  0.56835751732E+02  0.10566000000E+00 0. -1.
         22    1    1    0    0    0 -0.14671152561E+02 -0.44870694436E+01 -0.24703584877E+02  0.29079952122E+02  0.00000000000E+00 0. -1.
</event>
<event>
 5    1  0.1254496E-009  0.9118800E+02  0.7815553E-02  0.1125453E+00
         25   -1    0    0    0    0  0.00000000000E+00  0.00000000000E+00  0.99999998245E-14  0.12509000000E+03  0.12509000000E+03 0.  0.
        -13    1    3    3    0    0  0.58310895200E+02  0.51671211959E+01 -0.16910608895E+02  0.60933073923E+02  0.10566000000E+00 0. -1.
         23    2    1    0    0    0  0.22930640717E+02  0.10329743654E+02 -0.12640297975E+02  0.96942264379E+02  0.92765875204E+02 0.  0.
         13    1    3    3    0    0 -0.35380254483E+02  0.51626224582E+01  0.42703109198E+01  0.36009190456E+02  0.10566000000E+00 0.  1.
         22    1    1    0    0    0 -0.22930640717E+02 -0.10329743654E+02  0.12640297975E+02  0.28147735621E+02  0.00000000000E+00 0. -1.
</event>
<event>
 5    1  0.1254496E-009  0.9118800E+02  0.7815553E-02  0.1125453E+00
         25   -1    0    0    0    0  0.00000000000E+00  0.00000000000E+00  0.99999998245E-14  0.12509000000E+03  0.12509000000E+03 0.  0.
        -13    1    3    3    0    0  0.35259951779E+02 -0.31241642521E+02  0.22412316722E+02  0.52169220157E+02  0.10566000000E+00 0.  1.
         23    2    1    0    0    0  0.22465184960E+01 -0.27731120130E+02 -0.68643863324E+01  0.96433732470E+02  0.92077592765E+02 0.  0.
         13    1    3    3    0    0 -0.33013433283E+02  0.35105223908E+01 -0.29276703054E+02  0.44264512314E+02  0.10566000000E+00 0. -1.
         22    1    1    0    0    0 -0.22465184960E+01  0.27731120130E+02  0.68643863324E+01  0.28656267530E+02  0.00000000000E+00 0.  1.
</event>
<event>
 5    1  0.1254496E-009  0.9118800E+02  0.7815553E-02  0.1125453E+00
         25   -1    0    0    0    0  0.00000000000E+00  0.00000000000E+00  0.99999998245E-14  0.12509000000E+03  0.12509000000E+03 0.  0.
        -13    1    3    3    0    0  0.49213635411E+02  0.29406550301E+02  0.79560349146E+01  0.57879502128E+02  0.10566000000E+00 0.  1.
         23    2    1    0    0    0  0.28274038095E+02 -0.23703130780E+01  0.65988104859E+01  0.95959536322E+02  0.91431114490E+02 0.  0.
         13    1    3    3    0    0 -0.20939597316E+02 -0.31776863379E+02 -0.13572244287E+01  0.38080034193E+02  0.10566000000E+00 0. -1.
         22    1    1    0    0    0 -0.28274038095E+02  0.23703130780E+01 -0.65988104859E+01  0.29130463678E+02  0.00000000000E+00 0.  1.
</event>
<event>
 5    1  0.1254496E-009  0.9118800E+02  0.7815553E-02  0.1125453E+00
         25   -1    0    0    0    0  0.00000000000E+00  0.00000000000E+00  0.99999998245E-14  0.12509000000E+03  0.12509000000E+03 0.  0.
        -13    1    3    3    0    0 -0.23271508654E+02  0.42956763377E+02  0.27109264971E+02  0.55872802384E+02  0.10566000000E+00 0. -1.
         23    2    1    0    0    0  0.68075503532E+01  0.19170788960E+02  0.22912698907E+02  0.94449280975E+02  0.89340992911E+02 0.  0.
         13    1    3    3    0    0  0.30079059007E+02 -0.23785974417E+02 -0.41965660644E+01  0.38576478592E+02  0.10566000000E+00 0.  1.
         22    1    1    0    0    0 -0.68075503532E+01 -0.19170788960E+02 -0.22912698907E+02  0.30640719025E+02  0.00000000000E+00 0.  1.
</event>
<event>
 5    1  0.1254496E-009  0.9118800E+02  0.7815553E-02  0.1125453E+00
         25   -1    0    0    0    0  0.00000000000E+00  0.00000000000E+00  0.99999998245E-14  0.12509000000E+03  0.12509000000E+03 0.  0.
        -13    1    3    3    0    0 -0.20210821709E+02  0.20966666551E+01  0.41569338847E+02  0.46269800317E+02  0.10566000000E+00 0. -1.
         23    2    1    0    0    0  0.22625546584E+02  0.71799592513E+01  0.12787466059E+02  0.98127313538E+02  0.94350321678E+02 0.  0.
         13    1    3    3    0    0  0.42836368293E+02  0.50832925962E+01 -0.28781872788E+02  0.51857513220E+02  0.10566000000E+00 0.  1.
         22    1    1    0    0    0 -0.22625546584E+02 -0.71799592513E+01 -0.12787466059E+02  0.26962686462E+02  0.00000000000E+00 0.  1.
</event>
<event>
 5    1  0.1254496E-009  0.9118800E+02  0.7815553E-02  0.1125453E+00
         25   -1    0    0    0    0  0.00000000000E+00  0.00000000000E+00  0.99999998245E-14  0.12509000000E+03  0.12509000000E+03 0.  0.
        -13    1    3    3    0    0  0.17692276589E+02 -0.43135416912E+01 -0.48148327565E+02  0.51477139627E+02  0.10566000000E+00 0. -1.
         23    2    1    0    0    0 -0.18333001594E+01 -0.25451318891E+02 -0.14543057624E+02  0.95719416965E+02  0.91102006763E+02 0.  0.
         13    1    3    3    0    0 -0.19525576748E+02 -0.21137777199E+02  0.33605269941E+02  0.44242277338E+02  0.10566000000E+00 0.  1.
         22    1    1    0    0    0  0.18333001594E+01  0.25451318891E+02  0.14543057624E+02  0.29370583035E+02  0.00000000000E+00 0. -1.
</event>
<event>
 5    1  0.1254496E-009  0.9118800E+02  0.7815553E-02  0.1125453E+00
         25   -1    0    0    0    0  0.00000000000E+00  0.00000000000E+00  0.99999998245E-14  0.12509000000E+03  0.12509000000E+03 0.  0.
        -13    1    3    3    0    0 -0.22250437496E+02 -0.46733657732E+02  0.23298594652E+01  0.51812702525E+02  0.10566000000E+00 0.  1.
         23    2    1    0    0    0 -0.26546419623E+02 -0.48073654910E+01 -0.10909941161E+02  0.95989313171E+02  0.91471844133E+02 0.  0.
         13    1    3    3    0    0 -0.42959821273E+01  0.41926292241E+02 -0.13239800626E+02  0.44176610646E+02  0.10566000000E+00 0. -1.
         22    1    1    0    0    0  0.26546419623E+02  0.48073654910E+01  0.10909941161E+02  0.29100686829E+02  0.00000000000E+00 0.  1.
</event>
<event>
 5    1  0.1254496E-009  0.9118800E+02  0.7815553E-02  0.1125453E+00
         25   -1    0    0    0    0  0.00000000000E+00  0.00000000000E+00  0.99999998245E-14  0.12509000000E+03  0.12509000000E+03 0.  0.
        -13    1    3    3    0    0 -0.37308220261E+02 -0.71804460894E+01 -0.96818256297E+01  0.39207282699E+02  0.10566000000E+00 0. -1.
         23    2    1    0    0    0  0.39289724097E+01 -0.79633082731E+01  0.28393828516E+02  0.95340031922E+02  0.90579584268E+02 0.  0.
         13    1    3    3    0    0  0.41237192671E+02 -0.78286218371E+00  0.38075654146E+02  0.56132749222E+02  0.10566000000E+00 0.  1.
         22    1    1    0    0    0 -0.39289724097E+01  0.79633082731E+01 -0.28393828516E+02  0.29749968078E+02  0.00000000000E+00 0.  1.
</event>
<event>
 5    1  0.1254496E-009  0.9118800E+02  0.7815553E-02  0.1125453E+00
         25   -1    0    0    0    0  0.00000000000E+00  0.00000000000E+00  0.99999998245E-14  0.12509000000E+03  0.12509000000E+03 0.  0.
        -13    1    3    3    0    0 -0.21326178057E+02 -0.49877136858E+02  0.14616850352E+01  0.54264927337E+02  0.10566000000E+00 0.  1.
         23    2    1    0    0    0 -0.14545951268E+02 -0.88296018588E+01  0.19149444963E+02  0.99472665836E+02  0.96117446069E+02 0.  0.
         13    1    3    3    0    0  0.67802267892E+01  0.41047535000E+02  0.17687759928E+02  0.45207738499E+02  0.10566000000E+00 0. -1.
         22    1    1    0    0    0  0.14545951268E+02  0.88296018588E+01 -0.19149444963E+02  0.25617334164E+02  0.00000000000E+00 0.  1.
</event>
<event>
 5    1  0.1254496E-009  0.9118800E+02  0.7815553E-02  0.1125453E+00
         25   -1    0    0    0    0  0.00000000000E+00  0.00000000000E+00  0.99999998245E-14  0.12509000000E+03  0.12509000000E+03 0.  0.
        -13    1    3    3    0    0  0.15668615307E+02 -0.16709536362E+02  0.34563858921E+02  0.41465475020E+02  0.10566000000E+00 0.  1.
         23    2    1    0    0    0 -0.99869554843E+01  0.24962416574E+02  0.86066726678E+01  0.96859939152E+02  0.92654797377E+02 0.  0.
         13    1    3    3    0    0 -0.25655570792E+02  0.41671952937E+02 -0.25957186254E+02  0.55394464132E+02  0.10566000000E+00 0. -1.
         22    1    1    0    0    0  0.99869554843E+01 -0.24962416574E+02 -0.86066726678E+01  0.28230060848E+02  0.00000000000E+00 0. -1.
</event>
<event>
 5    1  0.1254496E-009  0.9118800E+02  0.7815553E-02  0.1125453E+00
         25   -1    0    0    0    0  0.00000000000E+00  0.00000000000E+00  0.99999998245E-14  0.12509000000E+03  0.12509000000E+03 0.  0.
        -13    1    3    3    0    0  0.13107846373E+02 -0.69490914252E+01  0.59481748382E+02  0.61304119460E+02  0.10566000000E+00 0. -1.
         23    2    1    0    0    0  0.13993452534E+02 -0.94181032805E-01  0.25300534603E+02  0.96177327431E+02  0.91728597922E+02 0.  0.
         13    1    3    3    0    0  0.88560616080E+00  0.68549103924E+01 -0.34181213779E+02  0.34873207971E+02  0.10566000000E+00 0.  1.
         22    1    1    0    0    0 -0.13993452534E+02  0.94181032805E-01 -0.25300534603E+02  0.28912672569E+02  0.00000000000E+00 0. -1.
</event>
<event>
 5    1  0.1254496E-009  0.9118800E+02  0.7815553E-02  0.1125453E+00
         25   -1    0    0    0    0  0.00000000000E+00  0.00000000000E+00  0.99999998245E-14  0.12509000000E+03  0.12509000000E+03 0.  0.
        -13    1    3    3    0    0  0.18481282316E+02 -0.29836799599E+01 -0.28341774145E+02  0.33966563969E+02  0.10566000000E+00 0. -1.
         23    2    1    0    0    0 -0.18302506736E+02 -0.10302715343E+02  0.20629793906E+02  0.95649957662E+02  0.91006583871E+02 0.  0.
         13    1    3    3    0    0 -0.36783789052E+02 -0.73190353828E+01  0.48971568052E+02  0.61683393693E+02  0.10566000000E+00 0.  1.
         22    1    1    0    0    0  0.18302506736E+02  0.10302715343E+02 -0.20629793906E+02  0.29440042338E+02  0.00000000000E+00 0.  1.
</event>
<event>
 5    1  0.1254496E-009  0.9118800E+02  0.7815553E-02  0.1125453E+00
         25   -1    0    0    0    0  0.00000000000E+00  0.00000000000E+00  0.99999998245E-14  0.12509000000E+03  0.12509000000E+03 0.  0.
        -13    1    3    3    0    0 -0.48274318720E+01 -0.89853548957E+01  0.37404190602E+02  0.38770160429E+02  0.10566000000E+00 0. -1.
         23    2    1    0    0    0 -0.22453325135E+02 -0.10999382963E+02 -0.16242776299E+02  0.95274466849E+02  0.90488993896E+02 0.  0.
         13    1    3    3    0    0 -0.17625893263E+02 -0.20140280675E+01 -0.53646966900E+02  0.56504306420E+02  0.10566000000E+00 0.  1.
         22    1    1    0    0    0  0.22453325135E+02  0.10999382963E+02  0.16242776299E+02  0.29815533151E+02  0.00000000000E+00 0. -1.
</event>
<event>
 5    1  0.1254496E-009  0.9118800E+02  0.7815553E-02  0.1125453E+00
         25   -1    0    0    0    0  0.00000000000E+00  0.00000000000E+00  0.99999998245E-14  0.12509000000E+03  0.12509000000E+03 0.  0.
        -13    1    3    3    0    0 -0.18835298082E+02  0.13345642781E+02  0.26064627072E+02  0.34817389097E+02  0.10566000000E+00 0.  1.
         23    2    1    0    0    0  0.80659289466E+01 -0.24037354820E+02 -0.14232377605E+02  0.96013992558E+02  0.91505587578E+02 0.  0.
         13    1    3    3    0    0  0.26901227029E+02 -0.37382997600E+02 -0.40297004677E+02  0.61196603461E+02  0.10566000000E+00 0. -1.
         22    1    1    0    0    0 -0.80659289466E+01  0.24037354820E+02  0.14232377605E+02  0.29076007442E+02  0.00000000000E+00 0. -1.
</event>
<event>
 5    1  0.1254496E-009  0.9118800E+02  0.7815553E-02  0.1125453E+00
         25   -1    0    0    0    0  0.00000000000E+00  0.00000000000E+00  0.99999998245E-14  0.12509000000E+03  0.12509000000E+03 0.  0.
        -13    1    3    3    0    0 -0.30112859643E+01  0.13579214297E+02 -0.38027967642E+02  0.40491979343E+02  0.10566000000E+00 0. -1.
         23    2    1    0    0    0  0.25142271456E+02 -0.25952810921E+01  0.95303799439E+01  0.98077087536E+02  0.94283708348E+02 0.  0.
         13    1    3    3    0    0  0.28153557420E+02 -0.16174495389E+02  0.47558347586E+02  0.57585108193E+02  0.10566000000E+00 0.  1.
         22    1    1    0    0    0 -0.25142271456E+02  0.25952810921E+01 -0.95303799439E+01  0.27012912464E+02  0.00000000000E+00 0.  1.
</event>
<event>
 5    1  0.1254496E-009  0.9118800E+02  0.7815553E-02  0.1125453E+00
         25   -1    0    0    0    0  0.00000000000E+00  0.00000000000E+00  0.99999998245E-14  0.12509000000E+03  0.12509000000E+03 0.  0.
        -13    1    3    3    0    0 -0.57290059577E+02 -0.14510568297E+02 -0.94555119426E+01  0.59850859549E+02  0.10566000000E+00 0.  1.
         23    2    1    0    0    0 -0.30041298006E+02  0.48854143185E+01 -0.91822815393E+01  0.93299102667E+02  0.87715799063E+02 0.  0.
         13    1    3    3    0    0  0.27248761571E+02  0.19395982616E+02  0.27323040329E+00  0.33448243118E+02  0.10566000000E+00 0. -1.
         22    1    1    0    0    0  0.30041298006E+02 -0.48854143185E+01  0.91822815393E+01  0.31790897333E+02  0.00000000000E+00 0.  1.
</event>
<event>
 5    1  0.1254496E-009  0.9118800E+02  0.7815553E-02  0.1125453E+00
         25   -1    0    0    0    0  0.00000000000E+00  0.00000000000E+00  0.99999998245E-14  0.12509000000E+03  0.12509000000E+03 0.  0.
        -13    1    3    3    0    0  0.19632859185E+02  0.40313868785E+02 -0.42694290658E+02  0.61915028830E+02  0.10566000000E+00 0. -1.
         23    2    1    0    0    0  0.33998427237E+01  0.21154967400E+02 -0.20727941497E+02  0.95278271856E+02  0.90494253701E+02 0.  0.
         13    1    3    3    0    0 -0.16233016461E+02 -0.19158901386E+02  0.21966349160E+02  0.33363243026E+02  0.10566000000E+00 0.  1.
         22    1    1    0    0    0 -0.33998427237E+01 -0.21154967400E+02  0.20727941497E+02  0.29811728144E+02  0.00000000000E+00 0. -1.
</event>
<event>
 5    1  0.1254496E-009  0.9118800E+02  0.7815553E-02  0.1125453E+00
         25   -1    0    0    0    0  0.00000000000E+00  0.00000000000E+00  0.99999998245E-14  0.12509000000E+03  0.12509000000E+03 0.  0.
        -13    1    3    3    0    0 -0.35483429835E+02 -0.29583193899E+02 -0.38856025723E+02  0.60365893128E+02  0.10566000000E+00 0.  1.
         23    2    1    0    0    0 -0.22510642688E+02 -0.39577343484E+01 -0.19949583249E+02  0.94752258371E+02  0.89764201657E+02 0.  0.
         13    1    3    3    0    0  0.12972787147E+02  0.25625459551E+02  0.18906442474E+02  0.34386365243E+02  0.10566000000E+00 0. -1.
         22    1    1    0    0    0  0.22510642688E+02  0.39577343484E+01  0.19949583249E+02  0.30337741629E+02  0.00000000000E+00 0.  1.
</event>
<event>
 5    1  0.1254496E-009  0.9118800E+02  0.7815553E-02  0.1125453E+00
         25   -1    0    0    0    0  0.00000000000E+00  0.00000000000E+00  0.99999998245E-14  0.12509000000E+03  0.12509000000E+03 0.  0.
        -13    1    3    3    0    0  0.16233255445E+01  0.34200170231E+02 -0.58525978871E+01  0.34735441493E+02  0.10566000000E+00 0.  1.
         23    2    1    0    0    0  0.28025241162E+02 -0.16586214877E+02 -0.60078697293E+01  0.91974880117E+02  0.85806569724E+02 0.  0.
         13    1    3    3    0    0  0.26401915618E+02 -0.50786385108E+02 -0.15527184220E+00  0.57239438624E+02  0.10566000000E+00 0. -1.
         22    1    1    0    0    0 -0.28025241162E+02  0.16586214877E+02  0.60078697293E+01  0.33115119883E+02  0.00000000000E+00 0. -1.
</event>
<event>
 5    1  0.1254496E-009  0.9118800E+02  0.7815553E-02  0.1125453E+00
         25   -1    0    0    0    0  0.00000000000E+00  0.00000000000E+00  0.99999998245E-14  0.12509000000E+03  0.12509000000E+03 0.  0.
        -13    1    3    3    0    0  0.17401863797E+01  0.40807580632E+02 -0.21933467272E+02  0.46361352831E+02  0.10566000000E+00 0. -1.
         23    2    1    0    0    0  0.19371926814E+02 -0.32372564475E+01 -0.24278010773E+02  0.93862236953E+02  0.88515232253E+02 0.  0.
         13    1    3    3    0    0  0.17631740435E+02 -0.44044837080E+02 -0.23445435018E+01  0.47500884122E+02  0.10566000000E+00 0.  1.
         22    1    1    0    0    0 -0.19371926814E+02  0.32372564475E+01  0.24278010773E+02  0.31227763047E+02  0.00000000000E+00 0. -1.
</event>
<event>
 5    1  0.1254496E-009  0.9118800E+02  0.7815553E-02  0.1125453E+00
         25   -1    0    0    0    0  0.00000000000E+00  0.00000000000E+00  0.99999998245E-14  0.12509000000E+03  0.12509000000E+03 0.  0.
        -13    1    3    3    0    0  0.44882606952E+02 -0.17243244560E+02  0.13851358050E+02  0.50036478430E+02  0.10566000000E+00 0. -1.
         23    2    1    0    0    0  0.13306063122E+02 -0.20352059768E+02 -0.17878473229E+02  0.94908922193E+02  0.89982254107E+02 0.  0.
         13    1    3    3    0    0 -0.31576543830E+02 -0.31088152078E+01 -0.31729831279E+02  0.44872443763E+02  0.10566000000E+00 0.  1.
         22    1    1    0    0    0 -0.13306063122E+02  0.20352059768E+02  0.17878473229E+02  0.30181077807E+02  0.00000000000E+00 0. -1.
</event>
<event>
 5    1  0.1254496E-009  0.9118800E+02  0.7815553E-02  0.1125453E+00
         25   -1    0    0    0    0  0.00000000000E+00  0.00000000000E+00  0.99999998245E-14  0.12509000000E+03  0.12509000000E+03 0.  0.
        -13    1    3    3    0    0 -0.29584724945E+02  0.40693993710E+01  0.48237341159E+02  0.56733307743E+02  0.10566000000E+00 0. -1.
         23    2    1    0    0    0 -0.26833853556E+02  0.68800839743E+01  0.93002234410E+01  0.95868682298E+02  0.91306729420E+02 0.  0.
         13    1    3    3    0    0  0.27508713891E+01  0.28106846033E+01 -0.38937117718E+02  0.39135374555E+02  0.10566000000E+00 0.  1.
         22    1    1    0    0    0  0.26833853556E+02 -0.68800839743E+01 -0.93002234410E+01  0.29221317702E+02  0.00000000000E+00 0. -1.
</event>
<event>
 5    1  0.1254496E-009  0.9118800E+02  0.7815553E-02  0.1125453E+00
         25   -1    0    0    0    0  0.00000000000E+00  0.00000000000E+00  0.99999998245E-14  0.12509000000E+03  0.12509000000E+03 0.  0.
        -13    1    3    3    0    0  0.38936506096E+02 -0.41398570794E+01  0.47636729697E+02  0.61664082770E+02  0.10566000000E+00 0.  1.
         23    2    1    0    0    0  0.19609472769E+02  0.48088052142E+01  0.27493618860E+02  0.90979076414E+02  0.84342381026E+02 0.  0.
         13    1    3    3    0    0 -0.19327033327E+02  0.89486622936E+01 -0.20143110837E+02  0.29314993643E+02  0.10566000000E+00 0. -1.
         22    1    1    0    0    0 -0.19609472769E+02 -0.48088052142E+01 -0.27493618860E+02  0.34110923586E+02  0.00000000000E+00 0.  1.
</event>
<event>
 5    1  0.1254496E-009  0.9118800E+02  0.7815553E-02  0.1125453E+00
         25   -1    0    0    0    0  0.00000000000E+00  0.00000000000E+00  0.99999998245E-14  0.12509000000E+03  0.12509000000E+03 0.  0.
        -13    1    3    3    0    0 -0.42169190754E+02  0.45739876838E+02 -0.14466177146E+01  0.62229260391E+02  0.10566000000E+00 0.  1.
         23    2    1    0    0    0 -0.22101022004E+02  0.30145437933E+02 -0.20888282960E+01  0.87652508024E+02  0.79255260755E+02 0.  0.
         13    1    3    3    0    0  0.20068168749E+02 -0.15594438905E+02 -0.64221058143E+00  0.25423247633E+02  0.10566000000E+00 0. -1.
         22    1    1    0    0    0  0.22101022004E+02 -0.30145437933E+02  0.20888282960E+01  0.37437491976E+02  0.00000000000E+00 0.  1.
</event>
