<event>
 5    1  0.1325686E-009  0.9118800E+02  0.7818608E-02  0.1130116E+00
         25   -1    0    0    0    0  0.00000000000E+00  0.00000000000E+00  0.99999998245E-14  0.12500000000E+03  0.12500000000E+03 0.  0.
        -13    1    3    3    0    0 -0.14028064620E+02  0.12820593682E+02 -0.26709326044E+02  0.32780382565E+02  0.10566000000E+00 0. -1.
         23    2    1    0    0    0  0.67964967767E+01 -0.16169398803E+02  0.24295633815E+02  0.95034692583E+02  0.90186879011E+02 0.  0.
         13    1    3    3    0    0  0.20824561397E+02 -0.28989992485E+02  0.51004959859E+02  0.62254310019E+02  0.10566000000E+00 0.  1.
         22    1    1    0    0    0 -0.67964967767E+01  0.16169398803E+02 -0.24295633815E+02  0.29965307417E+02  0.00000000000E+00 0.  1.
</event>
<event>
 5    1  0.1325686E-009  0.9118800E+02  0.7818608E-02  0.1130116E+00
         25   -1    0    0    0    0  0.00000000000E+00  0.00000000000E+00  0.99999998245E-14  0.12500000000E+03  0.12500000000E+03 0.  0.
        -13    1    3    3    0    0  0.29784522933E+02 -0.19260545919E+02  0.37261149550E+02  0.51444055684E+02  0.10566000000E+00 0. -1.
         23    2    1    0    0    0 -0.23817149144E+01 -0.28245534369E+02  0.88122001848E+01  0.95316037161E+02  0.90575986278E+02 0.  0.
         13    1    3    3    0    0 -0.32166237847E+02 -0.89849884502E+01 -0.28448949365E+02  0.43871981477E+02  0.10566000000E+00 0.  1.
         22    1    1    0    0    0  0.23817149144E+01  0.28245534369E+02 -0.88122001848E+01  0.29683962839E+02  0.00000000000E+00 0. -1.
</event>
<event>
 5    1  0.1325686E-009  0.9118800E+02  0.7818608E-02  0.1130116E+00
         25   -1    0    0    0    0  0.00000000000E+00  0.00000000000E+00  0.99999998245E-14  0.12500000000E+03  0.12500000000E+03 0.  0.
        -13    1    3    3    0    0  0.21580069874E+02 -0.24756282109E+02  0.20051186607E+02  0.38479009447E+02  0.10566000000E+00 0. -1.
         23    2    1    0    0    0  0.34143221723E+01  0.14574293547E+01 -0.28330750767E+02  0.96427055888E+02  0.92096492724E+02 0.  0.
         13    1    3    3    0    0 -0.18165747702E+02  0.26213711464E+02 -0.48381937374E+02  0.57948046441E+02  0.10566000000E+00 0.  1.
         22    1    1    0    0    0 -0.34143221723E+01 -0.14574293547E+01  0.28330750767E+02  0.28572944112E+02  0.00000000000E+00 0.  1.
</event>
<event>
 5    1  0.1325686E-009  0.9118800E+02  0.7818608E-02  0.1130116E+00
         25   -1    0    0    0    0  0.00000000000E+00  0.00000000000E+00  0.99999998245E-14  0.12500000000E+03  0.12500000000E+03 0.  0.
        -13    1    3    3    0    0  0.24293079483E+02  0.14104445957E+02  0.46725938117E+02  0.54519845593E+02  0.10566000000E+00 0.  1.
         23    2    1    0    0    0  0.29802813062E+02 -0.33134911526E+01  0.14208815522E+02  0.91817514732E+02  0.85611790560E+02 0.  0.
         13    1    3    3    0    0  0.55097335787E+01 -0.17417937109E+02 -0.32517122595E+02  0.37297669139E+02  0.10566000000E+00 0. -1.
         22    1    1    0    0    0 -0.29802813062E+02  0.33134911526E+01 -0.14208815522E+02  0.33182485268E+02  0.00000000000E+00 0.  1.
</event>
<event>
 5    1  0.1325686E-009  0.9118800E+02  0.7818608E-02  0.1130116E+00
         25   -1    0    0    0    0  0.00000000000E+00  0.00000000000E+00  0.99999998245E-14  0.12500000000E+03  0.12500000000E+03 0.  0.
        -13    1    3    3    0    0 -0.24801552020E+02  0.14016976600E+02  0.36976434462E+02  0.46678265662E+02  0.10566000000E+00 0.  1.
         23    2    1    0    0    0 -0.13337972361E+02  0.22804045310E+02 -0.10701772077E+02  0.96496422773E+02  0.92190594386E+02 0.  0.
         13    1    3    3    0    0  0.11463579659E+02  0.87870687099E+01 -0.47678206539E+02  0.49818157111E+02  0.10566000000E+00 0. -1.
         22    1    1    0    0    0  0.13337972361E+02 -0.22804045310E+02  0.10701772077E+02  0.28503577227E+02  0.00000000000E+00 0.  1.
</event>
<event>
 5    1  0.1325686E-009  0.9118800E+02  0.7818608E-02  0.1130116E+00
         25   -1    0    0    0    0  0.00000000000E+00  0.00000000000E+00  0.99999998245E-14  0.12500000000E+03  0.12500000000E+03 0.  0.
        -13    1    3    3    0    0 -0.16284812437E+01  0.15566233473E+02 -0.34872414278E+02  0.38223762469E+02  0.10566000000E+00 0.  1.
         23    2    1    0    0    0  0.21471801233E+02 -0.20052635438E+02  0.34535986152E+01  0.95418354008E+02  0.90717079440E+02 0.  0.
         13    1    3    3    0    0  0.23100282476E+02 -0.35618868911E+02  0.38326012893E+02  0.57194591539E+02  0.10566000000E+00 0. -1.
         22    1    1    0    0    0 -0.21471801233E+02  0.20052635438E+02 -0.34535986152E+01  0.29581645992E+02  0.00000000000E+00 0. -1.
</event>
<event>
 5    1  0.1325686E-009  0.9118800E+02  0.7818608E-02  0.1130116E+00
         25   -1    0    0    0    0  0.00000000000E+00  0.00000000000E+00  0.99999998245E-14  0.12500000000E+03  0.12500000000E+03 0.  0.
        -13    1    3    3    0    0  0.12294764385E+02  0.22269578820E+01  0.30686078961E+02  0.33132569757E+02  0.10566000000E+00 0. -1.
         23    2    1    0    0    0  0.36099884709E+00 -0.85114634095E+01 -0.28914033587E+02  0.94857062721E+02  0.89940345119E+02 0.  0.
         13    1    3    3    0    0 -0.11933765538E+02 -0.10738421291E+02 -0.59600112548E+02  0.61724492963E+02  0.10566000000E+00 0.  1.
         22    1    1    0    0    0 -0.36099884709E+00  0.85114634095E+01  0.28914033587E+02  0.30142937279E+02  0.00000000000E+00 0.  1.
</event>
<event>
 5    1  0.1325686E-009  0.9118800E+02  0.7818608E-02  0.1130116E+00
         25   -1    0    0    0    0  0.00000000000E+00  0.00000000000E+00  0.99999998245E-14  0.12500000000E+03  0.12500000000E+03 0.  0.
        -13    1    3    3    0    0 -0.32860193109E+02 -0.24423555609E+02  0.53971587370E+01  0.41297007715E+02  0.10566000000E+00 0.  1.
         23    2    1    0    0    0  0.20831211203E+02 -0.17910311069E+02 -0.67091116934E+01  0.96720488292E+02  0.92493902896E+02 0.  0.
         13    1    3    3    0    0  0.53691404312E+02  0.65132445405E+01 -0.12106270430E+02  0.55423480576E+02  0.10566000000E+00 0. -1.
         22    1    1    0    0    0 -0.20831211203E+02  0.17910311069E+02  0.67091116934E+01  0.28279511708E+02  0.00000000000E+00 0. -1.
</event>
<event>
 5    1  0.1325686E-009  0.9118800E+02  0.7818608E-02  0.1130116E+00
         25   -1    0    0    0    0  0.00000000000E+00  0.00000000000E+00  0.99999998245E-14  0.12500000000E+03  0.12500000000E+03 0.  0.
        -13    1    3    3    0    0  0.35307412808E+02 -0.84470414178E+01 -0.62624170872E+01  0.36840126760E+02  0.10566000000E+00 0.  1.
         23    2    1    0    0    0 -0.81773257461E+01  0.21164413024E+02  0.19190446945E+02  0.95283434099E+02  0.90530981022E+02 0.  0.
         13    1    3    3    0    0 -0.43484738554E+02  0.29611454442E+02  0.25452864032E+02  0.58443307339E+02  0.10566000000E+00 0. -1.
         22    1    1    0    0    0  0.81773257461E+01 -0.21164413024E+02 -0.19190446945E+02  0.29716565901E+02  0.00000000000E+00 0. -1.
</event>
<event>
 5    1  0.1325686E-009  0.9118800E+02  0.7818608E-02  0.1130116E+00
         25   -1    0    0    0    0  0.00000000000E+00  0.00000000000E+00  0.99999998245E-14  0.12500000000E+03  0.12500000000E+03 0.  0.
        -13    1    3    3    0    0 -0.43116133286E+02 -0.11743490449E+02  0.39304674958E+02  0.59512848655E+02  0.10566000000E+00 0.  1.
         23    2    1    0    0    0 -0.21164836031E+02 -0.19185284777E+02  0.16590668407E+02  0.91965537474E+02  0.85827643382E+02 0.  0.
         13    1    3    3    0    0  0.21951297255E+02 -0.74417943272E+01 -0.22714006550E+02  0.32452688819E+02  0.10566000000E+00 0. -1.
         22    1    1    0    0    0  0.21164836031E+02  0.19185284777E+02 -0.16590668407E+02  0.33034462526E+02  0.00000000000E+00 0.  1.
</event>
<event>
 5    1  0.1325686E-009  0.9118800E+02  0.7818608E-02  0.1130116E+00
         25   -1    0    0    0    0  0.00000000000E+00  0.00000000000E+00  0.99999998245E-14  0.12500000000E+03  0.12500000000E+03 0.  0.
        -13    1    3    3    0    0 -0.54496773221E+02 -0.14914834859E+02  0.86854734503E+01  0.57164667440E+02  0.10566000000E+00 0.  1.
         23    2    1    0    0    0 -0.18872616037E+02 -0.23397974771E+02 -0.56003684040E+00  0.94934163895E+02  0.90047437352E+02 0.  0.
         13    1    3    3    0    0  0.35624157185E+02 -0.84831399118E+01 -0.92455102907E+01  0.37769496455E+02  0.10566000000E+00 0. -1.
         22    1    1    0    0    0  0.18872616037E+02  0.23397974771E+02  0.56003684040E+00  0.30065836105E+02  0.00000000000E+00 0.  1.
</event>
<event>
 5    1  0.1325686E-009  0.9118800E+02  0.7818608E-02  0.1130116E+00
         25   -1    0    0    0    0  0.00000000000E+00  0.00000000000E+00  0.99999998245E-14  0.12500000000E+03  0.12500000000E+03 0.  0.
        -13    1    3    3    0    0  0.77536164775E+01 -0.53852527730E+02 -0.21957635801E+02  0.58671647714E+02  0.10566000000E+00 0.  1.
         23    2    1    0    0    0  0.66453330200E+01 -0.28004981973E+02  0.47189248517E+01  0.95833105787E+02  0.91286781337E+02 0.  0.
         13    1    3    3    0    0 -0.11082834575E+01  0.25847545757E+02  0.26676560652E+02  0.37161458074E+02  0.10566000000E+00 0. -1.
         22    1    1    0    0    0 -0.66453330200E+01  0.28004981973E+02 -0.47189248517E+01  0.29166894213E+02  0.00000000000E+00 0.  1.
</event>
<event>
 5    1  0.1325686E-009  0.9118800E+02  0.7818608E-02  0.1130116E+00
         25   -1    0    0    0    0  0.00000000000E+00  0.00000000000E+00  0.99999998245E-14  0.12500000000E+03  0.12500000000E+03 0.  0.
        -13    1    3    3    0    0 -0.45008289645E+02  0.16580513478E+02  0.31759365942E+01  0.48070337020E+02  0.10566000000E+00 0. -1.
         23    2    1    0    0    0 -0.26500196224E+02  0.36782234528E+01  0.31103683738E+02  0.83972827665E+02  0.73268048400E+02 0.  0.
         13    1    3    3    0    0  0.18508093421E+02 -0.12902290025E+02  0.27927747144E+02  0.35902490645E+02  0.10566000000E+00 0.  1.
         22    1    1    0    0    0  0.26500196224E+02 -0.36782234528E+01 -0.31103683738E+02  0.41027172335E+02  0.00000000000E+00 0. -1.
</event>
<event>
 5    1  0.1325686E-009  0.9118800E+02  0.7818608E-02  0.1130116E+00
         25   -1    0    0    0    0  0.00000000000E+00  0.00000000000E+00  0.99999998245E-14  0.12500000000E+03  0.12500000000E+03 0.  0.
        -13    1    3    3    0    0 -0.46622265029E+01  0.49215010603E+02 -0.33573931383E+02  0.59758460967E+02  0.10566000000E+00 0.  1.
         23    2    1    0    0    0 -0.13756277525E+02  0.17381288034E+02 -0.18464581330E+02  0.96150648036E+02  0.91720564809E+02 0.  0.
         13    1    3    3    0    0 -0.90940510223E+01 -0.31833722569E+02  0.15109350053E+02  0.36392187069E+02  0.10566000000E+00 0. -1.
         22    1    1    0    0    0  0.13756277525E+02 -0.17381288034E+02  0.18464581330E+02  0.28849351964E+02  0.00000000000E+00 0.  1.
</event>
<event>
 5    1  0.1325686E-009  0.9118800E+02  0.7818608E-02  0.1130116E+00
         25   -1    0    0    0    0  0.00000000000E+00  0.00000000000E+00  0.99999998245E-14  0.12500000000E+03  0.12500000000E+03 0.  0.
        -13    1    3    3    0    0  0.58510927573E+02  0.13467938842E+02 -0.12432935907E+02  0.61314786808E+02  0.10566000000E+00 0. -1.
         23    2    1    0    0    0  0.24325825832E+02  0.13782983899E+02 -0.87723128811E+01  0.95696929839E+02  0.91100123270E+02 0.  0.
         13    1    3    3    0    0 -0.34185101741E+02  0.31504505776E+00  0.36606230255E+01  0.34382143031E+02  0.10566000000E+00 0.  1.
         22    1    1    0    0    0 -0.24325825832E+02 -0.13782983899E+02  0.87723128811E+01  0.29303070161E+02  0.00000000000E+00 0. -1.
</event>
<event>
 5    1  0.1325686E-009  0.9118800E+02  0.7818608E-02  0.1130116E+00
         25   -1    0    0    0    0  0.00000000000E+00  0.00000000000E+00  0.99999998245E-14  0.12500000000E+03  0.12500000000E+03 0.  0.
        -13    1    3    3    0    0  0.94763852381E+00 -0.35493084496E+02  0.17385314120E+02  0.39533749846E+02  0.10566000000E+00 0.  1.
         23    2    1    0    0    0  0.30813533987E+02  0.71360334026E+01  0.65175917845E+01  0.92706411594E+02  0.86899959140E+02 0.  0.
         13    1    3    3    0    0  0.29865895463E+02  0.42629117898E+02 -0.10867722335E+02  0.53172661748E+02  0.10566000000E+00 0. -1.
         22    1    1    0    0    0 -0.30813533987E+02 -0.71360334026E+01 -0.65175917845E+01  0.32293588406E+02  0.00000000000E+00 0. -1.
</event>
<event>
 5    1  0.1325686E-009  0.9118800E+02  0.7818608E-02  0.1130116E+00
         25   -1    0    0    0    0  0.00000000000E+00  0.00000000000E+00  0.99999998245E-14  0.12500000000E+03  0.12500000000E+03 0.  0.
        -13    1    3    3    0    0  0.58144110629E+01 -0.57132844455E+02 -0.22503845323E+02  0.61679846869E+02  0.10566000000E+00 0.  1.
         23    2    1    0    0    0 -0.33514063845E+01 -0.25123231393E+02 -0.13999377115E+02  0.96045013556E+02  0.91576489281E+02 0.  0.
         13    1    3    3    0    0 -0.91658174474E+01  0.32009613062E+02  0.85044682073E+01  0.34365166686E+02  0.10566000000E+00 0. -1.
         22    1    1    0    0    0  0.33514063845E+01  0.25123231393E+02  0.13999377115E+02  0.28954986444E+02  0.00000000000E+00 0.  1.
</event>
<event>
 5    1  0.1325686E-009  0.9118800E+02  0.7818608E-02  0.1130116E+00
         25   -1    0    0    0    0  0.00000000000E+00  0.00000000000E+00  0.99999998245E-14  0.12500000000E+03  0.12500000000E+03 0.  0.
        -13    1    3    3    0    0 -0.29957373589E+02 -0.59644517860E+01 -0.30977107418E+02  0.43504152279E+02  0.10566000000E+00 0.  1.
         23    2    1    0    0    0  0.18323694023E+02 -0.13733296892E+02 -0.22042437124E+02  0.93215880687E+02  0.87629733377E+02 0.  0.
         13    1    3    3    0    0  0.48281067612E+02 -0.77688451062E+01  0.89346702941E+01  0.49711728408E+02  0.10566000000E+00 0. -1.
         22    1    1    0    0    0 -0.18323694023E+02  0.13733296892E+02  0.22042437124E+02  0.31784119313E+02  0.00000000000E+00 0.  1.
</event>
<event>
 5    1  0.1325686E-009  0.9118800E+02  0.7818608E-02  0.1130116E+00
         25   -1    0    0    0    0  0.00000000000E+00  0.00000000000E+00  0.99999998245E-14  0.12500000000E+03  0.12500000000E+03 0.  0.
        -13    1    3    3    0    0  0.18101145788E+02  0.41269050635E+02 -0.42613901159E+02  0.62022106988E+02  0.10566000000E+00 0. -1.
         23    2    1    0    0    0  0.39633696228E+01  0.18510374217E+02 -0.22916285581E+02  0.95276299065E+02  0.90521128839E+02 0.  0.
         13    1    3    3    0    0 -0.14137776166E+02 -0.22758676418E+02  0.19697615578E+02  0.33254192077E+02  0.10566000000E+00 0.  1.
         22    1    1    0    0    0 -0.39633696228E+01 -0.18510374217E+02  0.22916285581E+02  0.29723700935E+02  0.00000000000E+00 0. -1.
</event>
<event>
 5    1  0.1325686E-009  0.9118800E+02  0.7818608E-02  0.1130116E+00
         25   -1    0    0    0    0  0.00000000000E+00  0.00000000000E+00  0.99999998245E-14  0.12500000000E+03  0.12500000000E+03 0.  0.
        -13    1    3    3    0    0  0.28511517087E+02  0.32102477556E+02 -0.16098976613E+02  0.45854813093E+02  0.10566000000E+00 0.  1.
         23    2    1    0    0    0 -0.17724835292E+02  0.16118524665E+02 -0.18341262593E+02  0.94827520204E+02  0.89899277255E+02 0.  0.
         13    1    3    3    0    0 -0.46236352379E+02 -0.15983952891E+02 -0.22422859808E+01  0.48972707111E+02  0.10566000000E+00 0. -1.
         22    1    1    0    0    0  0.17724835292E+02 -0.16118524665E+02  0.18341262593E+02  0.30172479796E+02  0.00000000000E+00 0. -1.
</event>
<event>
 5    1  0.1325686E-009  0.9118800E+02  0.7818608E-02  0.1130116E+00
         25   -1    0    0    0    0  0.00000000000E+00  0.00000000000E+00  0.99999998245E-14  0.12500000000E+03  0.12500000000E+03 0.  0.
        -13    1    3    3    0    0 -0.36200369009E+02  0.30683829201E+01  0.49791319052E+02  0.61636582539E+02  0.10566000000E+00 0. -1.
         23    2    1    0    0    0 -0.22276595387E+02 -0.29803347868E+01  0.20728771247E+02  0.94425320036E+02  0.89338289714E+02 0.  0.
         13    1    3    3    0    0  0.13923773622E+02 -0.60487177068E+01 -0.29062547804E+02  0.32788737497E+02  0.10566000000E+00 0.  1.
         22    1    1    0    0    0  0.22276595387E+02  0.29803347868E+01 -0.20728771247E+02  0.30574679964E+02  0.00000000000E+00 0. -1.
</event>
<event>
 5    1  0.1325686E-009  0.9118800E+02  0.7818608E-02  0.1130116E+00
         25   -1    0    0    0    0  0.00000000000E+00  0.00000000000E+00  0.99999998245E-14  0.12500000000E+03  0.12500000000E+03 0.  0.
        -13    1    3    3    0    0  0.33591059271E+02 -0.38977473530E+02  0.11370674099E+02  0.52696357551E+02  0.10566000000E+00 0. -1.
         23    2    1    0    0    0  0.40279043507E+01 -0.63407752752E+01  0.25081924861E+02  0.98817326354E+02  0.95285526647E+02 0.  0.
         13    1    3    3    0    0 -0.29563154920E+02  0.32636698255E+02  0.13711250762E+02  0.46120968802E+02  0.10566000000E+00 0.  1.
         22    1    1    0    0    0 -0.40279043507E+01  0.63407752752E+01 -0.25081924861E+02  0.26182673646E+02  0.00000000000E+00 0. -1.
</event>
<event>
 5    1  0.1325686E-009  0.9118800E+02  0.7818608E-02  0.1130116E+00
         25   -1    0    0    0    0  0.00000000000E+00  0.00000000000E+00  0.99999998245E-14  0.12500000000E+03  0.12500000000E+03 0.  0.
        -13    1    3    3    0    0 -0.45945044606E+02  0.32014349283E+02 -0.15197138749E+02  0.58024390337E+02  0.10566000000E+00 0.  1.
         23    2    1    0    0    0 -0.11537152219E+02  0.16378538621E+02 -0.20671992768E+02  0.96212959622E+02  0.91805445947E+02 0.  0.
         13    1    3    3    0    0  0.34407892386E+02 -0.15635810661E+02 -0.54748540191E+01  0.38188569285E+02  0.10566000000E+00 0. -1.
         22    1    1    0    0    0  0.11537152219E+02 -0.16378538621E+02  0.20671992768E+02  0.28787040378E+02  0.00000000000E+00 0.  1.
</event>
<event>
 5    1  0.1325686E-009  0.9118800E+02  0.7818608E-02  0.1130116E+00
         25   -1    0    0    0    0  0.00000000000E+00  0.00000000000E+00  0.99999998245E-14  0.12500000000E+03  0.12500000000E+03 0.  0.
        -13    1    3    3    0    0 -0.16852403428E+02  0.20450081030E+02  0.51361482329E+02  0.57794656730E+02  0.10566000000E+00 0. -1.
         23    2    1    0    0    0 -0.39788074801E+01 -0.61910856225E+01  0.29532977127E+02  0.94563883491E+02  0.89531954479E+02 0.  0.
         13    1    3    3    0    0  0.12873595948E+02 -0.26641166653E+02 -0.21828505202E+02  0.36769226762E+02  0.10566000000E+00 0.  1.
         22    1    1    0    0    0  0.39788074801E+01  0.61910856225E+01 -0.29532977127E+02  0.30436116509E+02  0.00000000000E+00 0. -1.
</event>
<event>
 5    1  0.1325686E-009  0.9118800E+02  0.7818608E-02  0.1130116E+00
         25   -1    0    0    0    0  0.00000000000E+00  0.00000000000E+00  0.99999998245E-14  0.12500000000E+03  0.12500000000E+03 0.  0.
        -13    1    3    3    0    0 -0.67554391530E+00 -0.30883099590E+02  0.12524832891E+02  0.33333238709E+02  0.10566000000E+00 0. -1.
         23    2    1    0    0    0  0.30547717530E+02  0.95420487750E+01 -0.13026773965E+02  0.90446988828E+02  0.83586764544E+02 0.  0.
         13    1    3    3    0    0  0.31223261445E+02  0.40425148365E+02 -0.25551606857E+02  0.57113750119E+02  0.10566000000E+00 0.  1.
         22    1    1    0    0    0 -0.30547717530E+02 -0.95420487750E+01  0.13026773965E+02  0.34553011172E+02  0.00000000000E+00 0.  1.
</event>
<event>
 5    1  0.1325686E-009  0.9118800E+02  0.7818608E-02  0.1130116E+00
         25   -1    0    0    0    0  0.00000000000E+00  0.00000000000E+00  0.99999998245E-14  0.12500000000E+03  0.12500000000E+03 0.  0.
        -13    1    3    3    0    0 -0.47816083810E+01  0.37543607140E+02  0.12845050696E+02  0.39967395552E+02  0.10566000000E+00 0. -1.
         23    2    1    0    0    0  0.40813311256E+00 -0.14571678634E+02  0.27084459734E+02  0.94241775897E+02  0.89081108964E+02 0.  0.
         13    1    3    3    0    0  0.51897414935E+01 -0.52115285774E+02  0.14239409038E+02  0.54274380345E+02  0.10566000000E+00 0.  1.
         22    1    1    0    0    0 -0.40813311256E+00  0.14571678634E+02 -0.27084459734E+02  0.30758224103E+02  0.00000000000E+00 0.  1.
</event>
<event>
 5    1  0.1325686E-009  0.9118800E+02  0.7818608E-02  0.1130116E+00
         25   -1    0    0    0    0  0.00000000000E+00  0.00000000000E+00  0.99999998245E-14  0.12500000000E+03  0.12500000000E+03 0.  0.
        -13    1    3    3    0    0  0.32863307931E+02  0.12721068211E+02 -0.26378173127E+02  0.44018652480E+02  0.10566000000E+00 0.  1.
         23    2    1    0    0    0  0.28064897947E+01 -0.26739946718E+02 -0.10974611368E+02  0.95959627583E+02  0.91459864945E+02 0.  0.
         13    1    3    3    0    0 -0.30056818136E+02 -0.39461014929E+02  0.15403561759E+02  0.51940975103E+02  0.10566000000E+00 0. -1.
         22    1    1    0    0    0 -0.28064897947E+01  0.26739946718E+02  0.10974611368E+02  0.29040372417E+02  0.00000000000E+00 0. -1.
</event>
<event>
 5    1  0.1325686E-009  0.9118800E+02  0.7818608E-02  0.1130116E+00
         25   -1    0    0    0    0  0.00000000000E+00  0.00000000000E+00  0.99999998245E-14  0.12500000000E+03  0.12500000000E+03 0.  0.
        -13    1    3    3    0    0  0.36533759434E+00  0.88874019914E+01 -0.57740425131E+02  0.58421633356E+02  0.10566000000E+00 0.  1.
         23    2    1    0    0    0  0.12261174418E+02  0.13399356788E+02 -0.21363873582E+02  0.96959061091E+02  0.92815759830E+02 0.  0.
         13    1    3    3    0    0  0.11895836824E+02  0.45119547970E+01  0.36376551548E+02  0.38537427735E+02  0.10566000000E+00 0. -1.
         22    1    1    0    0    0 -0.12261174418E+02 -0.13399356788E+02  0.21363873582E+02  0.28040938909E+02  0.00000000000E+00 0.  1.
</event>
<event>
 5    1  0.1325686E-009  0.9118800E+02  0.7818608E-02  0.1130116E+00
         25   -1    0    0    0    0  0.00000000000E+00  0.00000000000E+00  0.99999998245E-14  0.12500000000E+03  0.12500000000E+03 0.  0.
        -13    1    3    3    0    0 -0.36900848691E+01  0.30725906059E+02  0.23351790149E+02  0.38768741231E+02  0.10566000000E+00 0.  1.
         23    2    1    0    0    0  0.29887299554E+02 -0.11788132297E+01 -0.71740206322E+01  0.94241150098E+02  0.89080230829E+02 0.  0.
         13    1    3    3    0    0  0.33577384423E+02 -0.31904719288E+02 -0.30525810781E+02  0.55472408867E+02  0.10566000000E+00 0. -1.
         22    1    1    0    0    0 -0.29887299554E+02  0.11788132297E+01  0.71740206322E+01  0.30758849902E+02  0.00000000000E+00 0. -1.
</event>
<event>
 5    1  0.1325686E-009  0.9118800E+02  0.7818608E-02  0.1130116E+00
         25   -1    0    0    0    0  0.00000000000E+00  0.00000000000E+00  0.99999998245E-14  0.12500000000E+03  0.12500000000E+03 0.  0.
        -13    1    3    3    0    0 -0.35458589174E+02 -0.47742798492E+02 -0.44748245221E+01  0.59638255949E+02  0.10566000000E+00 0.  1.
         23    2    1    0    0    0 -0.81737718010E+01 -0.21423480469E+01 -0.86065708046E+01  0.11293877031E+03  0.11229288748E+03 0.  0.
         13    1    3    3    0    0  0.27284817373E+02  0.45600450445E+02 -0.41317462824E+01  0.53300514362E+02  0.10566000000E+00 0. -1.
         22    1    1    0    0    0  0.81737718010E+01  0.21423480469E+01  0.86065708046E+01  0.12061229690E+02  0.00000000000E+00 0.  1.
</event>
<event>
 5    1  0.1325686E-009  0.9118800E+02  0.7818608E-02  0.1130116E+00
         25   -1    0    0    0    0  0.00000000000E+00  0.00000000000E+00  0.99999998245E-14  0.12500000000E+03  0.12500000000E+03 0.  0.
        -13    1    3    3    0    0 -0.36072086004E+02 -0.46233907558E+01  0.72930615009E+00  0.36374636524E+02  0.10566000000E+00 0. -1.
         23    2    1    0    0    0  0.17881963694E+02 -0.14855243917E+01  0.23846648310E+02  0.95156507512E+02  0.90355558091E+02 0.  0.
         13    1    3    3    0    0  0.53954049698E+02  0.31378663641E+01  0.23117342160E+02  0.58781870987E+02  0.10566000000E+00 0.  1.
         22    1    1    0    0    0 -0.17881963694E+02  0.14855243917E+01 -0.23846648310E+02  0.29843492488E+02  0.00000000000E+00 0.  1.
</event>
<event>
 5    1  0.1325686E-009  0.9118800E+02  0.7818608E-02  0.1130116E+00
         25   -1    0    0    0    0  0.00000000000E+00  0.00000000000E+00  0.99999998245E-14  0.12500000000E+03  0.12500000000E+03 0.  0.
        -13    1    3    3    0    0 -0.15194968730E+02  0.27453160574E+02 -0.14131317270E+02  0.34413200840E+02  0.10566000000E+00 0.  1.
         23    2    1    0    0    0  0.22152212066E+02 -0.13923516981E+02  0.12284572655E+02  0.96095060113E+02  0.91644776329E+02 0.  0.
         13    1    3    3    0    0  0.37347180796E+02 -0.41376677554E+02  0.26415889925E+02  0.61681859274E+02  0.10566000000E+00 0. -1.
         22    1    1    0    0    0 -0.22152212066E+02  0.13923516981E+02 -0.12284572655E+02  0.28904939887E+02  0.00000000000E+00 0. -1.
</event>
<event>
 5    1  0.1325686E-009  0.9118800E+02  0.7818608E-02  0.1130116E+00
         25   -1    0    0    0    0  0.00000000000E+00  0.00000000000E+00  0.99999998245E-14  0.12500000000E+03  0.12500000000E+03 0.  0.
        -13    1    3    3    0    0 -0.28656771268E+02  0.96094491007E+01  0.45614065133E+02  0.54719339849E+02  0.10566000000E+00 0. -1.
         23    2    1    0    0    0  0.61080723886E+01  0.12891104921E+02  0.27412686595E+02  0.94097823366E+02  0.88878882990E+02 0.  0.
         13    1    3    3    0    0  0.34764843656E+02  0.32816558199E+01 -0.18201378538E+02  0.39378483517E+02  0.10566000000E+00 0.  1.
         22    1    1    0    0    0 -0.61080723886E+01 -0.12891104921E+02 -0.27412686595E+02  0.30902176634E+02  0.00000000000E+00 0. -1.
</event>
<event>
 5    1  0.1325686E-009  0.9118800E+02  0.7818608E-02  0.1130116E+00
         25   -1    0    0    0    0  0.00000000000E+00  0.00000000000E+00  0.99999998245E-14  0.12500000000E+03  0.12500000000E+03 0.  0.
        -13    1    3    3    0    0 -0.24739810826E+01 -0.25027191394E+02  0.27281773936E+02  0.37105083811E+02  0.10566000000E+00 0. -1.
         23    2    1    0    0    0 -0.14229048848E+02  0.24232092816E+02 -0.39787019850E+01  0.96618840354E+02  0.92356429600E+02 0.  0.
         13    1    3    3    0    0 -0.11755067765E+02  0.49259284210E+02 -0.31260475921E+02  0.59513756543E+02  0.10566000000E+00 0.  1.
         22    1    1    0    0    0  0.14229048848E+02 -0.24232092816E+02  0.39787019850E+01  0.28381159646E+02  0.00000000000E+00 0.  1.
</event>
<event>
 5    1  0.1325686E-009  0.9118800E+02  0.7818608E-02  0.1130116E+00
         25   -1    0    0    0    0  0.00000000000E+00  0.00000000000E+00  0.99999998245E-14  0.12500000000E+03  0.12500000000E+03 0.  0.
        -13    1    3    3    0    0 -0.25678458118E+02 -0.40443464425E+02 -0.22958390086E+02  0.53123966958E+02  0.10566000000E+00 0. -1.
         23    2    1    0    0    0 -0.68390986442E+01 -0.28333462986E+02  0.11036635130E+02  0.93833259554E+02  0.88506016115E+02 0.  0.
         13    1    3    3    0    0  0.18839359474E+02  0.12110001439E+02  0.33995025215E+02  0.40709292596E+02  0.10566000000E+00 0.  1.
         22    1    1    0    0    0  0.68390986442E+01  0.28333462986E+02 -0.11036635130E+02  0.31166740446E+02  0.00000000000E+00 0. -1.
</event>
<event>
 5    1  0.1325686E-009  0.9118800E+02  0.7818608E-02  0.1130116E+00
         25   -1    0    0    0    0  0.00000000000E+00  0.00000000000E+00  0.99999998245E-14  0.12500000000E+03  0.12500000000E+03 0.  0.
        -13    1    3    3    0    0 -0.44675432684E+02 -0.53863557908E+01 -0.37750155341E+02  0.58736636834E+02  0.10566000000E+00 0.  1.
         23    2    1    0    0    0 -0.10437183482E+02  0.17505466508E+00 -0.28518308640E+02  0.94631276437E+02  0.89625995722E+02 0.  0.
         13    1    3    3    0    0  0.34238249202E+02  0.55614104558E+01  0.92318467010E+01  0.35894639603E+02  0.10566000000E+00 0. -1.
         22    1    1    0    0    0  0.10437183482E+02 -0.17505466508E+00  0.28518308640E+02  0.30368723563E+02  0.00000000000E+00 0.  1.
</event>
<event>
 5    1  0.1325686E-009  0.9118800E+02  0.7818608E-02  0.1130116E+00
         25   -1    0    0    0    0  0.00000000000E+00  0.00000000000E+00  0.99999998245E-14  0.12500000000E+03  0.12500000000E+03 0.  0.
        -13    1    3    3    0    0 -0.46254714116E+02 -0.18147948192E+02  0.35500565317E+02  0.61066749573E+02  0.10566000000E+00 0.  1.
         23    2    1    0    0    0 -0.16818039393E+02 -0.16615905523E+02  0.17217766595E+02  0.95753012943E+02  0.91177043360E+02 0.  0.
         13    1    3    3    0    0  0.29436674722E+02  0.15320426689E+01 -0.18282798723E+02  0.34686263370E+02  0.10566000000E+00 0. -1.
         22    1    1    0    0    0  0.16818039393E+02  0.16615905523E+02 -0.17217766595E+02  0.29246987057E+02  0.00000000000E+00 0.  1.
</event>
<event>
 5    1  0.1325686E-009  0.9118800E+02  0.7818608E-02  0.1130116E+00
         25   -1    0    0    0    0  0.00000000000E+00  0.00000000000E+00  0.99999998245E-14  0.12500000000E+03  0.12500000000E+03 0.  0.
        -13    1    3    3    0    0  0.44356356988E+01 -0.44257705929E+02  0.37730846015E+02  0.58327071786E+02  0.10566000000E+00 0. -1.
         23    2    1    0    0    0 -0.73156349315E+01 -0.10583749068E+02  0.26201711405E+02  0.95809865719E+02  0.91254952906E+02 0.  0.
         13    1    3    3    0    0 -0.11751270630E+02  0.33673956861E+02 -0.11529134610E+02  0.37482793933E+02  0.10566000000E+00 0.  1.
         22    1    1    0    0    0  0.73156349315E+01  0.10583749068E+02 -0.26201711405E+02  0.29190134281E+02  0.00000000000E+00 0. -1.
</event>
<event>
 5    1  0.1325686E-009  0.9118800E+02  0.7818608E-02  0.1130116E+00
         25   -1    0    0    0    0  0.00000000000E+00  0.00000000000E+00  0.99999998245E-14  0.12500000000E+03  0.12500000000E+03 0.  0.
        -13    1    3    3    0    0  0.30254858164E+02 -0.40527344301E+02 -0.20373134928E+02  0.54524286969E+02  0.10566000000E+00 0.  1.
         23    2    1    0    0    0  0.16475915362E+02 -0.20824511329E+02  0.12822340250E+02  0.95512231882E+02  0.90846342636E+02 0.  0.
         13    1    3    3    0    0 -0.13778942802E+02  0.19702832971E+02  0.33195475178E+02  0.40987944913E+02  0.10566000000E+00 0. -1.
         22    1    1    0    0    0 -0.16475915362E+02  0.20824511329E+02 -0.12822340250E+02  0.29487768118E+02  0.00000000000E+00 0.  1.
</event>
<event>
 5    1  0.1325686E-009  0.9118800E+02  0.7818608E-02  0.1130116E+00
         25   -1    0    0    0    0  0.00000000000E+00  0.00000000000E+00  0.99999998245E-14  0.12500000000E+03  0.12500000000E+03 0.  0.
        -13    1    3    3    0    0  0.29633540569E+01  0.22130467962E+01 -0.31089368953E+02  0.31308769847E+02  0.10566000000E+00 0. -1.
         23    2    1    0    0    0 -0.95809768886E+01  0.15475554442E+02  0.27133846592E+02  0.92326868312E+02  0.86352284729E+02 0.  0.
         13    1    3    3    0    0 -0.12544330945E+02  0.13262507646E+02  0.58223215545E+02  0.61018098465E+02  0.10566000000E+00 0.  1.
         22    1    1    0    0    0  0.95809768886E+01 -0.15475554442E+02 -0.27133846592E+02  0.32673131688E+02  0.00000000000E+00 0.  1.
</event>
<event>
 5    1  0.1325686E-009  0.9118800E+02  0.7818608E-02  0.1130116E+00
         25   -1    0    0    0    0  0.00000000000E+00  0.00000000000E+00  0.99999998245E-14  0.12500000000E+03  0.12500000000E+03 0.  0.
        -13    1    3    3    0    0 -0.50459296486E+02 -0.21509161511E+02 -0.49505158619E+01  0.55075433745E+02  0.10566000000E+00 0.  1.
         23    2    1    0    0    0 -0.13340111068E+02 -0.22323779396E+02  0.12553168062E+02  0.96122816650E+02  0.91682627376E+02 0.  0.
         13    1    3    3    0    0  0.37119185419E+02 -0.81461788456E+00  0.17503683924E+02  0.41047382906E+02  0.10566000000E+00 0. -1.
         22    1    1    0    0    0  0.13340111068E+02  0.22323779396E+02 -0.12553168062E+02  0.28877183350E+02  0.00000000000E+00 0.  1.
</event>
<event>
 5    1  0.1325686E-009  0.9118800E+02  0.7818608E-02  0.1130116E+00
         25   -1    0    0    0    0  0.00000000000E+00  0.00000000000E+00  0.99999998245E-14  0.12500000000E+03  0.12500000000E+03 0.  0.
        -13    1    3    3    0    0 -0.16059567894E+02  0.35306910752E+02 -0.11110074102E+02  0.40347646504E+02  0.10566000000E+00 0. -1.
         23    2    1    0    0    0 -0.92360544220E+01 -0.16416779915E+02 -0.24389796210E+02  0.94183161693E+02  0.88998822595E+02 0.  0.
         13    1    3    3    0    0  0.68235134719E+01 -0.51723690668E+02 -0.13279722108E+02  0.53835515189E+02  0.10566000000E+00 0.  1.
         22    1    1    0    0    0  0.92360544220E+01  0.16416779915E+02  0.24389796210E+02  0.30816838307E+02  0.00000000000E+00 0.  1.
</event>
<event>
 5    1  0.1325686E-009  0.9118800E+02  0.7818608E-02  0.1130116E+00
         25   -1    0    0    0    0  0.00000000000E+00  0.00000000000E+00  0.99999998245E-14  0.12500000000E+03  0.12500000000E+03 0.  0.
        -13    1    3    3    0    0 -0.18176357925E+02 -0.43432065067E+02 -0.44886509847E+00  0.47084359477E+02  0.10566000000E+00 0.  1.
         23    2    1    0    0    0 -0.18499628745E+02 -0.39740563748E+01  0.24706582794E+02  0.93880157116E+02  0.88572226341E+02 0.  0.
         13    1    3    3    0    0 -0.32327082007E+00  0.39458008692E+02  0.25155447893E+02  0.46795797639E+02  0.10566000000E+00 0. -1.
         22    1    1    0    0    0  0.18499628745E+02  0.39740563748E+01 -0.24706582794E+02  0.31119842884E+02  0.00000000000E+00 0. -1.
</event>
<event>
 5    1  0.1325686E-009  0.9118800E+02  0.7818608E-02  0.1130116E+00
         25   -1    0    0    0    0  0.00000000000E+00  0.00000000000E+00  0.99999998245E-14  0.12500000000E+03  0.12500000000E+03 0.  0.
        -13    1    3    3    0    0 -0.11154222196E+02 -0.46033422549E+02 -0.37770889959E+02  0.60581713056E+02  0.10566000000E+00 0.  1.
         23    2    1    0    0    0 -0.15221973528E+02 -0.16876804002E+02 -0.17260251111E+02  0.96461407536E+02  0.92143105461E+02 0.  0.
         13    1    3    3    0    0 -0.40677513317E+01  0.29156618547E+02  0.20510638848E+02  0.35879694480E+02  0.10566000000E+00 0. -1.
         22    1    1    0    0    0  0.15221973528E+02  0.16876804002E+02  0.17260251111E+02  0.28538592464E+02  0.00000000000E+00 0.  1.
</event>
<event>
 5    1  0.1325686E-009  0.9118800E+02  0.7818608E-02  0.1130116E+00
         25   -1    0    0    0    0  0.00000000000E+00  0.00000000000E+00  0.99999998245E-14  0.12500000000E+03  0.12500000000E+03 0.  0.
        -13    1    3    3    0    0  0.24452890044E+02  0.10999611711E+01 -0.13692085879E+02  0.28047069826E+02  0.10566000000E+00 0. -1.
         23    2    1    0    0    0 -0.27681457077E+02 -0.11339806960E+02  0.17778796059E+02  0.90201438578E+02  0.83218745751E+02 0.  0.
         13    1    3    3    0    0 -0.52134347121E+02 -0.12439768131E+02  0.31470881938E+02  0.62154368751E+02  0.10566000000E+00 0.  1.
         22    1    1    0    0    0  0.27681457077E+02  0.11339806960E+02 -0.17778796059E+02  0.34798561422E+02  0.00000000000E+00 0.  1.
</event>
<event>
 5    1  0.1325686E-009  0.9118800E+02  0.7818608E-02  0.1130116E+00
         25   -1    0    0    0    0  0.00000000000E+00  0.00000000000E+00  0.99999998245E-14  0.12500000000E+03  0.12500000000E+03 0.  0.
        -13    1    3    3    0    0  0.51518692051E+01  0.27422146289E+02 -0.32628138155E+02  0.42931601727E+02  0.10566000000E+00 0. -1.
         23    2    1    0    0    0  0.27445212178E+02  0.82684893103E+01  0.99407724494E+01  0.94661467671E+02  0.89668093087E+02 0.  0.
         13    1    3    3    0    0  0.22293342973E+02 -0.19153656979E+02  0.42568910604E+02  0.51729865944E+02  0.10566000000E+00 0.  1.
         22    1    1    0    0    0 -0.27445212178E+02 -0.82684893103E+01 -0.99407724494E+01  0.30338532329E+02  0.00000000000E+00 0.  1.
</event>
<event>
 5    1  0.1325686E-009  0.9118800E+02  0.7818608E-02  0.1130116E+00
         25   -1    0    0    0    0  0.00000000000E+00  0.00000000000E+00  0.99999998245E-14  0.12500000000E+03  0.12500000000E+03 0.  0.
        -13    1    3    3    0    0  0.67779514782E+01 -0.16086496669E+01  0.41910809661E+02  0.42485944858E+02  0.10566000000E+00 0.  1.
         23    2    1    0    0    0 -0.24565114013E+02 -0.13676659870E+02 -0.86412141694E+00  0.96870965934E+02  0.92697041395E+02 0.  0.
         13    1    3    3    0    0 -0.31343065491E+02 -0.12068010203E+02 -0.42774931078E+02  0.54385021076E+02  0.10566000000E+00 0. -1.
         22    1    1    0    0    0  0.24565114013E+02  0.13676659870E+02  0.86412141694E+00  0.28129034066E+02  0.00000000000E+00 0. -1.
</event>
<event>
 5    1  0.1325686E-009  0.9118800E+02  0.7818608E-02  0.1130116E+00
         25   -1    0    0    0    0  0.00000000000E+00  0.00000000000E+00  0.99999998245E-14  0.12500000000E+03  0.12500000000E+03 0.  0.
        -13    1    3    3    0    0  0.13194337282E+02 -0.20033207390E+02  0.47476584283E+02  0.53192641915E+02  0.10566000000E+00 0.  1.
         23    2    1    0    0    0  0.29210890632E+02 -0.54027123336E+01  0.16472917079E+02  0.91032038196E+02  0.84457146227E+02 0.  0.
         13    1    3    3    0    0  0.16016553349E+02  0.14630495057E+02 -0.31003667204E+02  0.37839396281E+02  0.10566000000E+00 0. -1.
         22    1    1    0    0    0 -0.29210890632E+02  0.54027123336E+01 -0.16472917079E+02  0.33967961804E+02  0.00000000000E+00 0.  1.
</event>
<event>
 5    1  0.1325686E-009  0.9118800E+02  0.7818608E-02  0.1130116E+00
         25   -1    0    0    0    0  0.00000000000E+00  0.00000000000E+00  0.99999998245E-14  0.12500000000E+03  0.12500000000E+03 0.  0.
        -13    1    3    3    0    0  0.15836835581E+02 -0.49906011352E+02 -0.17917703346E+02  0.55339593308E+02  0.10566000000E+00 0. -1.
         23    2    1    0    0    0 -0.11824278194E+02 -0.27419846946E+02 -0.22094053979E+00  0.95138480011E+02  0.90330614980E+02 0.  0.
         13    1    3    3    0    0 -0.27661113774E+02  0.22486164406E+02  0.17696762806E+02  0.39798886703E+02  0.10566000000E+00 0.  1.
         22    1    1    0    0    0  0.11824278194E+02  0.27419846946E+02  0.22094053979E+00  0.29861519989E+02  0.00000000000E+00 0. -1.
</event>
<event>
 5    1  0.1325686E-009  0.9118800E+02  0.7818608E-02  0.1130116E+00
         25   -1    0    0    0    0  0.00000000000E+00  0.00000000000E+00  0.99999998245E-14  0.12500000000E+03  0.12500000000E+03 0.  0.
        -13    1    3    3    0    0 -0.33671020250E+02  0.88748291241E+01  0.24197838729E+02  0.42403381467E+02  0.10566000000E+00 0. -1.
         23    2    1    0    0    0  0.30236594785E+01  0.27814055141E+02 -0.92375548256E+01  0.95536520925E+02  0.90879756994E+02 0.  0.
         13    1    3    3    0    0  0.36694679729E+02  0.18939226017E+02 -0.33435393554E+02  0.53133139458E+02  0.10566000000E+00 0.  1.
         22    1    1    0    0    0 -0.30236594785E+01 -0.27814055141E+02  0.92375548256E+01  0.29463479075E+02  0.00000000000E+00 0. -1.
</event>
<event>
 5    1  0.1325686E-009  0.9118800E+02  0.7818608E-02  0.1130116E+00
         25   -1    0    0    0    0  0.00000000000E+00  0.00000000000E+00  0.99999998245E-14  0.12500000000E+03  0.12500000000E+03 0.  0.
        -13    1    3    3    0    0 -0.47358849300E+02 -0.31451468962E+02 -0.23796017935E+02  0.61630488725E+02  0.10566000000E+00 0.  1.
         23    2    1    0    0    0 -0.26087197483E+02 -0.85034452443E+01 -0.11446577407E+02  0.95269971614E+02  0.90512390883E+02 0.  0.
         13    1    3    3    0    0  0.21271651817E+02  0.22948023718E+02  0.12349440528E+02  0.33639482888E+02  0.10566000000E+00 0. -1.
         22    1    1    0    0    0  0.26087197483E+02  0.85034452443E+01  0.11446577407E+02  0.29730028386E+02  0.00000000000E+00 0.  1.
</event>
<event>
 5    1  0.1325686E-009  0.9118800E+02  0.7818608E-02  0.1130116E+00
         25   -1    0    0    0    0  0.00000000000E+00  0.00000000000E+00  0.99999998245E-14  0.12500000000E+03  0.12500000000E+03 0.  0.
        -13    1    3    3    0    0 -0.67570095785E+01  0.33324974201E+02  0.13832678396E+02  0.36709198297E+02  0.10566000000E+00 0.  1.
         23    2    1    0    0    0  0.31763515051E+02 -0.11961399285E+01 -0.69656089330E+01  0.92459696576E+02  0.86544347845E+02 0.  0.
         13    1    3    3    0    0  0.38520524630E+02 -0.34521114130E+02 -0.20798287329E+02  0.55750498279E+02  0.10566000000E+00 0. -1.
         22    1    1    0    0    0 -0.31763515051E+02  0.11961399285E+01  0.69656089330E+01  0.32540303424E+02  0.00000000000E+00 0. -1.
</event>
<event>
 5    1  0.1325686E-009  0.9118800E+02  0.7818608E-02  0.1130116E+00
         25   -1    0    0    0    0  0.00000000000E+00  0.00000000000E+00  0.99999998245E-14  0.12500000000E+03  0.12500000000E+03 0.  0.
        -13    1    3    3    0    0 -0.12484479811E+02 -0.26251331662E+02  0.52509721998E+02  0.60018969656E+02  0.10566000000E+00 0.  1.
         23    2    1    0    0    0 -0.13939000550E+02 -0.30595155971E+01  0.26533285723E+02  0.94872410928E+02  0.89961673684E+02 0.  0.
         13    1    3    3    0    0 -0.14545207388E+01  0.23191816065E+02 -0.25976436275E+02  0.34853441273E+02  0.10566000000E+00 0. -1.
         22    1    1    0    0    0  0.13939000550E+02  0.30595155971E+01 -0.26533285723E+02  0.30127589072E+02  0.00000000000E+00 0.  1.
</event>
<event>
 5    1  0.1325686E-009  0.9118800E+02  0.7818608E-02  0.1130116E+00
         25   -1    0    0    0    0  0.00000000000E+00  0.00000000000E+00  0.99999998245E-14  0.12500000000E+03  0.12500000000E+03 0.  0.
        -13    1    3    3    0    0 -0.20636594481E+02 -0.23307740966E+02 -0.35646948570E+02  0.47326904896E+02  0.10566000000E+00 0.  1.
         23    2    1    0    0    0 -0.54012175929E+01  0.20229843284E+02 -0.20025805605E+02  0.96026691578E+02  0.91551476746E+02 0.  0.
         13    1    3    3    0    0  0.15235376888E+02  0.43537584250E+02  0.15621142964E+02  0.48699786681E+02  0.10566000000E+00 0. -1.
         22    1    1    0    0    0  0.54012175929E+01 -0.20229843284E+02  0.20025805605E+02  0.28973308422E+02  0.00000000000E+00 0. -1.
</event>
<event>
 5    1  0.1325686E-009  0.9118800E+02  0.7818608E-02  0.1130116E+00
         25   -1    0    0    0    0  0.00000000000E+00  0.00000000000E+00  0.99999998245E-14  0.12500000000E+03  0.12500000000E+03 0.  0.
        -13    1    3    3    0    0 -0.16057807716E+02 -0.38067317957E+02 -0.38733472025E+02  0.56632737037E+02  0.10566000000E+00 0. -1.
         23    2    1    0    0    0 -0.18941779013E+02 -0.25048843037E+01 -0.21438509637E+02  0.96282842533E+02  0.91900547513E+02 0.  0.
         13    1    3    3    0    0 -0.28839712969E+01  0.35562433654E+02  0.17294962388E+02  0.39650105496E+02  0.10566000000E+00 0.  1.
         22    1    1    0    0    0  0.18941779013E+02  0.25048843037E+01  0.21438509637E+02  0.28717157467E+02  0.00000000000E+00 0. -1.
</event>
<event>
 5    1  0.1325686E-009  0.9118800E+02  0.7818608E-02  0.1130116E+00
         25   -1    0    0    0    0  0.00000000000E+00  0.00000000000E+00  0.99999998245E-14  0.12500000000E+03  0.12500000000E+03 0.  0.
        -13    1    3    3    0    0 -0.13908569647E+02  0.96658628646E+01 -0.45828121264E+02  0.48858009345E+02  0.10566000000E+00 0. -1.
         23    2    1    0    0    0  0.86391005027E+01  0.25044428135E+02 -0.40404297853E+02  0.76684736127E+02  0.59549844934E+02 0.  0.
         13    1    3    3    0    0  0.22547670150E+02  0.15378565271E+02  0.54238234106E+01  0.27826726782E+02  0.10566000000E+00 0.  1.
         22    1    1    0    0    0 -0.86391005027E+01 -0.25044428135E+02  0.40404297853E+02  0.48315263873E+02  0.00000000000E+00 0. -1.
</event>
<event>
 5    1  0.1325686E-009  0.9118800E+02  0.7818608E-02  0.1130116E+00
         25   -1    0    0    0    0  0.00000000000E+00  0.00000000000E+00  0.99999998245E-14  0.12500000000E+03  0.12500000000E+03 0.  0.
        -13    1    3    3    0    0  0.24447448697E+02  0.53195175403E+01  0.29522746885E+02  0.38698562794E+02  0.10566000000E+00 0. -1.
         23    2    1    0    0    0  0.29379515702E+01 -0.26695107162E+02 -0.12186948666E+02  0.95507932870E+02  0.90840427220E+02 0.  0.
         13    1    3    3    0    0 -0.21509497127E+02 -0.32014624702E+02 -0.41709695550E+02  0.56809370076E+02  0.10566000000E+00 0.  1.
         22    1    1    0    0    0 -0.29379515702E+01  0.26695107162E+02  0.12186948666E+02  0.29492067130E+02  0.00000000000E+00 0.  1.
</event>
<event>
 5    1  0.1325686E-009  0.9118800E+02  0.7818608E-02  0.1130116E+00
         25   -1    0    0    0    0  0.00000000000E+00  0.00000000000E+00  0.99999998245E-14  0.12500000000E+03  0.12500000000E+03 0.  0.
        -13    1    3    3    0    0 -0.26696818178E+02  0.42457343675E+02 -0.83158104956E+01  0.50838076291E+02  0.10566000000E+00 0.  1.
         23    2    1    0    0    0 -0.27375094132E+02 -0.28827555183E+01  0.21968036419E+01  0.97386017955E+02  0.93388995544E+02 0.  0.
         13    1    3    3    0    0 -0.67827595467E+00 -0.45340099193E+02  0.10512614138E+02  0.46547941664E+02  0.10566000000E+00 0. -1.
         22    1    1    0    0    0  0.27375094132E+02  0.28827555183E+01 -0.21968036419E+01  0.27613982045E+02  0.00000000000E+00 0. -1.
</event>
<event>
 5    1  0.1325686E-009  0.9118800E+02  0.7818608E-02  0.1130116E+00
         25   -1    0    0    0    0  0.00000000000E+00  0.00000000000E+00  0.99999998245E-14  0.12500000000E+03  0.12500000000E+03 0.  0.
        -13    1    3    3    0    0 -0.25133413424E+02  0.42781130846E+01 -0.20446503121E+02  0.32681208298E+02  0.10566000000E+00 0. -1.
         23    2    1    0    0    0  0.18240039044E+02  0.67648085646E+01  0.23510272010E+02  0.94484519515E+02  0.89421081847E+02 0.  0.
         13    1    3    3    0    0  0.43373452468E+02  0.24866954800E+01  0.43956775132E+02  0.61803311217E+02  0.10566000000E+00 0.  1.
         22    1    1    0    0    0 -0.18240039044E+02 -0.67648085646E+01 -0.23510272010E+02  0.30515480485E+02  0.00000000000E+00 0.  1.
</event>
<event>
 5    1  0.1325686E-009  0.9118800E+02  0.7818608E-02  0.1130116E+00
         25   -1    0    0    0    0  0.00000000000E+00  0.00000000000E+00  0.99999998245E-14  0.12500000000E+03  0.12500000000E+03 0.  0.
        -13    1    3    3    0    0 -0.15436337239E+02  0.20567723800E+02  0.27250192248E+02  0.37468599003E+02  0.10566000000E+00 0. -1.
         23    2    1    0    0    0 -0.14462678409E+02 -0.16504100998E+02 -0.18455396871E+02  0.96326735621E+02  0.91960230020E+02 0.  0.
         13    1    3    3    0    0  0.97365883056E+00 -0.37071824798E+02 -0.45705589119E+02  0.58858136618E+02  0.10566000000E+00 0.  1.
         22    1    1    0    0    0  0.14462678409E+02  0.16504100998E+02  0.18455396871E+02  0.28673264379E+02  0.00000000000E+00 0.  1.
</event>
<event>
 5    1  0.1325686E-009  0.9118800E+02  0.7818608E-02  0.1130116E+00
         25   -1    0    0    0    0  0.00000000000E+00  0.00000000000E+00  0.99999998245E-14  0.12500000000E+03  0.12500000000E+03 0.  0.
        -13    1    3    3    0    0  0.19421302247E+02  0.39519222434E+02 -0.77886973574E+01  0.44717232621E+02  0.10566000000E+00 0.  1.
         23    2    1    0    0    0 -0.21904880982E+02  0.14186512007E+01 -0.97958134833E+01  0.10096264690E+03  0.98059480551E+02 0.  0.
         13    1    3    3    0    0 -0.41326183230E+02 -0.38100571233E+02 -0.20071161259E+01  0.56245414282E+02  0.10566000000E+00 0. -1.
         22    1    1    0    0    0  0.21904880982E+02 -0.14186512007E+01  0.97958134833E+01  0.24037353096E+02  0.00000000000E+00 0.  1.
</event>
<event>
 5    1  0.1325686E-009  0.9118800E+02  0.7818608E-02  0.1130116E+00
         25   -1    0    0    0    0  0.00000000000E+00  0.00000000000E+00  0.99999998245E-14  0.12500000000E+03  0.12500000000E+03 0.  0.
        -13    1    3    3    0    0  0.21338749878E+02 -0.11405825186E+02  0.36225571611E+02  0.43563038199E+02  0.10566000000E+00 0. -1.
         23    2    1    0    0    0  0.24330351891E+02 -0.77911806914E+01 -0.15246718237E+02  0.95248849826E+02  0.90483216435E+02 0.  0.
         13    1    3    3    0    0  0.29916020125E+01  0.36146444944E+01 -0.51472289847E+02  0.51685811627E+02  0.10566000000E+00 0.  1.
         22    1    1    0    0    0 -0.24330351891E+02  0.77911806914E+01  0.15246718237E+02  0.29751150174E+02  0.00000000000E+00 0.  1.
</event>
<event>
 5    1  0.1325686E-009  0.9118800E+02  0.7818608E-02  0.1130116E+00
         25   -1    0    0    0    0  0.00000000000E+00  0.00000000000E+00  0.99999998245E-14  0.12500000000E+03  0.12500000000E+03 0.  0.
        -13    1    3    3    0    0  0.27129168690E+02 -0.20878399632E+02 -0.55517447579E+01  0.34680432507E+02  0.10566000000E+00 0. -1.
         23    2    1    0    0    0 -0.16970766554E+02  0.66649371234E+01  0.24288595776E+02  0.94629550727E+02  0.89623588869E+02 0.  0.
         13    1    3    3    0    0 -0.44099935244E+02  0.27543336756E+02  0.29840340534E+02  0.59949118220E+02  0.10566000000E+00 0.  1.
         22    1    1    0    0    0  0.16970766554E+02 -0.66649371234E+01 -0.24288595776E+02  0.30370449273E+02  0.00000000000E+00 0.  1.
</event>
<event>
 5    1  0.1325686E-009  0.9118800E+02  0.7818608E-02  0.1130116E+00
         25   -1    0    0    0    0  0.00000000000E+00  0.00000000000E+00  0.99999998245E-14  0.12500000000E+03  0.12500000000E+03 0.  0.
        -13    1    3    3    0    0  0.21505984582E+01  0.37993572663E+02  0.12950878643E+02  0.40197923567E+02  0.10566000000E+00 0.  1.
         23    2    1    0    0    0  0.20541927960E+02  0.27636064464E+00 -0.22065658808E+02  0.94851360260E+02  0.89932419433E+02 0.  0.
         13    1    3    3    0    0  0.18391329502E+02 -0.37717212018E+02 -0.35016537451E+02  0.54653436693E+02  0.10566000000E+00 0. -1.
         22    1    1    0    0    0 -0.20541927960E+02 -0.27636064464E+00  0.22065658808E+02  0.30148639740E+02  0.00000000000E+00 0. -1.
</event>
<event>
 5    1  0.1325686E-009  0.9118800E+02  0.7818608E-02  0.1130116E+00
         25   -1    0    0    0    0  0.00000000000E+00  0.00000000000E+00  0.99999998245E-14  0.12500000000E+03  0.12500000000E+03 0.  0.
        -13    1    3    3    0    0  0.22859883278E+02  0.55786508651E+02 -0.11757810188E+02  0.61424474564E+02  0.10566000000E+00 0.  1.
         23    2    1    0    0    0  0.15136314056E+02  0.23724289200E+02 -0.12004477256E+02  0.94404945245E+02  0.89309777244E+02 0.  0.
         13    1    3    3    0    0 -0.77235692222E+01 -0.32062219451E+02 -0.24666706733E+00  0.32980470681E+02  0.10566000000E+00 0. -1.
         22    1    1    0    0    0 -0.15136314056E+02 -0.23724289200E+02  0.12004477256E+02  0.30595054755E+02  0.00000000000E+00 0.  1.
</event>
<event>
 5    1  0.1325686E-009  0.9118800E+02  0.7818608E-02  0.1130116E+00
         25   -1    0    0    0    0  0.00000000000E+00  0.00000000000E+00  0.99999998245E-14  0.12500000000E+03  0.12500000000E+03 0.  0.
        -13    1    3    3    0    0  0.44266174943E+00 -0.88549352637E+01 -0.36499414797E+02  0.37560940783E+02  0.10566000000E+00 0. -1.
         23    2    1    0    0    0  0.31462613644E+02  0.13990282668E+02 -0.92161359157E-01  0.90566984446E+02  0.83766020029E+02 0.  0.
         13    1    3    3    0    0  0.31019951894E+02  0.22845217932E+02  0.36407253438E+02  0.53006043663E+02  0.10566000000E+00 0.  1.
         22    1    1    0    0    0 -0.31462613644E+02 -0.13990282668E+02  0.92161359157E-01  0.34433015554E+02  0.00000000000E+00 0.  1.
</event>
<event>
 5    1  0.1325686E-009  0.9118800E+02  0.7818608E-02  0.1130116E+00
         25   -1    0    0    0    0  0.00000000000E+00  0.00000000000E+00  0.99999998245E-14  0.12500000000E+03  0.12500000000E+03 0.  0.
        -13    1    3    3    0    0 -0.45142713715E+02 -0.21709108117E+02 -0.33757355220E+02  0.60404637010E+02  0.10566000000E+00 0. -1.
         23    2    1    0    0    0 -0.25377664132E+02  0.35626906558E+00 -0.13967518662E+02  0.96030285779E+02  0.91556383965E+02 0.  0.
         13    1    3    3    0    0  0.19765049583E+02  0.22065377183E+02  0.19789836558E+02  0.35625648770E+02  0.10566000000E+00 0.  1.
         22    1    1    0    0    0  0.25377664132E+02 -0.35626906558E+00  0.13967518662E+02  0.28969714221E+02  0.00000000000E+00 0. -1.
</event>
<event>
 5    1  0.1325686E-009  0.9118800E+02  0.7818608E-02  0.1130116E+00
         25   -1    0    0    0    0  0.00000000000E+00  0.00000000000E+00  0.99999998245E-14  0.12500000000E+03  0.12500000000E+03 0.  0.
        -13    1    3    3    0    0 -0.30916462461E+02 -0.90379919332E+01  0.38764879888E+02  0.50400793903E+02  0.10566000000E+00 0. -1.
         23    2    1    0    0    0  0.93974624578E+01 -0.19276662441E+02  0.18541707174E+02  0.96650451142E+02  0.92399203381E+02 0.  0.
         13    1    3    3    0    0  0.40313924919E+02 -0.10238670508E+02 -0.20223172714E+02  0.46249657239E+02  0.10566000000E+00 0.  1.
         22    1    1    0    0    0 -0.93974624578E+01  0.19276662441E+02 -0.18541707174E+02  0.28349548858E+02  0.00000000000E+00 0.  1.
</event>
<event>
 5    1  0.1325686E-009  0.9118800E+02  0.7818608E-02  0.1130116E+00
         25   -1    0    0    0    0  0.00000000000E+00  0.00000000000E+00  0.99999998245E-14  0.12500000000E+03  0.12500000000E+03 0.  0.
        -13    1    3    3    0    0  0.11435590405E+02  0.20556951359E+02 -0.27431654965E+02  0.36136793372E+02  0.10566000000E+00 0. -1.
         23    2    1    0    0    0 -0.23009827556E+02 -0.22581055158E+01  0.16615387333E+02  0.96528570445E+02  0.92234172687E+02 0.  0.
         13    1    3    3    0    0 -0.34445417962E+02 -0.22815056875E+02  0.44047042298E+02  0.60391777072E+02  0.10566000000E+00 0.  1.
         22    1    1    0    0    0  0.23009827556E+02  0.22581055158E+01 -0.16615387333E+02  0.28471429555E+02  0.00000000000E+00 0.  1.
</event>
<event>
 5    1  0.1325686E-009  0.9118800E+02  0.7818608E-02  0.1130116E+00
         25   -1    0    0    0    0  0.00000000000E+00  0.00000000000E+00  0.99999998245E-14  0.12500000000E+03  0.12500000000E+03 0.  0.
        -13    1    3    3    0    0 -0.11355582572E+02  0.21055126458E+02 -0.11099655798E+02  0.26371976198E+02  0.10566000000E+00 0. -1.
         23    2    1    0    0    0  0.37265310502E+02  0.13593276221E+02 -0.25762467847E+02  0.77701107045E+02  0.61646384818E+02 0.  0.
         13    1    3    3    0    0  0.48620893074E+02 -0.74618502368E+01 -0.14662812050E+02  0.51329130847E+02  0.10566000000E+00 0.  1.
         22    1    1    0    0    0 -0.37265310502E+02 -0.13593276221E+02  0.25762467847E+02  0.47298892955E+02  0.00000000000E+00 0.  1.
</event>
<event>
 5    1  0.1325686E-009  0.9118800E+02  0.7818608E-02  0.1130116E+00
         25   -1    0    0    0    0  0.00000000000E+00  0.00000000000E+00  0.99999998245E-14  0.12500000000E+03  0.12500000000E+03 0.  0.
        -13    1    3    3    0    0  0.16282194546E+02 -0.10074216243E+02  0.56274469414E+02  0.59442634229E+02  0.10566000000E+00 0.  1.
         23    2    1    0    0    0  0.14666293711E+02 -0.16260959187E+02  0.23326333963E+02  0.93005675174E+02  0.87329369593E+02 0.  0.
         13    1    3    3    0    0 -0.16159008345E+01 -0.61867429441E+01 -0.32948135451E+02  0.33563040945E+02  0.10566000000E+00 0. -1.
         22    1    1    0    0    0 -0.14666293711E+02  0.16260959187E+02 -0.23326333963E+02  0.31994324826E+02  0.00000000000E+00 0.  1.
</event>
<event>
 5    1  0.1325686E-009  0.9118800E+02  0.7818608E-02  0.1130116E+00
         25   -1    0    0    0    0  0.00000000000E+00  0.00000000000E+00  0.99999998245E-14  0.12500000000E+03  0.12500000000E+03 0.  0.
        -13    1    3    3    0    0 -0.45845074634E+02  0.32474457333E+02  0.61404861980E+01  0.56516174518E+02  0.10566000000E+00 0.  1.
         23    2    1    0    0    0 -0.97928906700E+01  0.18214785612E+02  0.18545175197E+02  0.97222263489E+02  0.93169554428E+02 0.  0.
         13    1    3    3    0    0  0.36052183964E+02 -0.14259671721E+02  0.12404688999E+02  0.40706088972E+02  0.10566000000E+00 0. -1.
         22    1    1    0    0    0  0.97928906700E+01 -0.18214785612E+02 -0.18545175197E+02  0.27777736511E+02  0.00000000000E+00 0.  1.
</event>
<event>
 5    1  0.1325686E-009  0.9118800E+02  0.7818608E-02  0.1130116E+00
         25   -1    0    0    0    0  0.00000000000E+00  0.00000000000E+00  0.99999998245E-14  0.12500000000E+03  0.12500000000E+03 0.  0.
        -13    1    3    3    0    0 -0.16499756933E+02 -0.10637594047E+01 -0.41912906387E+02  0.45056369681E+02  0.10566000000E+00 0. -1.
         23    2    1    0    0    0  0.21508783888E+02 -0.15222580323E+02 -0.94565737563E+01  0.97003901643E+02  0.92876129391E+02 0.  0.
         13    1    3    3    0    0  0.38008540820E+02 -0.14158820918E+02  0.32456332631E+02  0.51947531962E+02  0.10566000000E+00 0.  1.
         22    1    1    0    0    0 -0.21508783888E+02  0.15222580323E+02  0.94565737563E+01  0.27996098357E+02  0.00000000000E+00 0.  1.
</event>
<event>
 5    1  0.1325686E-009  0.9118800E+02  0.7818608E-02  0.1130116E+00
         25   -1    0    0    0    0  0.00000000000E+00  0.00000000000E+00  0.99999998245E-14  0.12500000000E+03  0.12500000000E+03 0.  0.
        -13    1    3    3    0    0 -0.14264557217E+01  0.13268585310E+02 -0.37532035887E+02  0.39834093613E+02  0.10566000000E+00 0.  1.
         23    2    1    0    0    0 -0.26731545304E+02  0.40789319836E+01  0.11376886848E+02  0.95663218397E+02  0.91053855488E+02 0.  0.
         13    1    3    3    0    0 -0.25305089582E+02 -0.91896533263E+01  0.48908922735E+02  0.55829124784E+02  0.10566000000E+00 0. -1.
         22    1    1    0    0    0  0.26731545304E+02 -0.40789319836E+01 -0.11376886848E+02  0.29336781603E+02  0.00000000000E+00 0. -1.
</event>
<event>
 5    1  0.1325686E-009  0.9118800E+02  0.7818608E-02  0.1130116E+00
         25   -1    0    0    0    0  0.00000000000E+00  0.00000000000E+00  0.99999998245E-14  0.12500000000E+03  0.12500000000E+03 0.  0.
        -13    1    3    3    0    0  0.16169869862E+02  0.28403767755E+02 -0.68067640414E+01  0.33385354795E+02  0.10566000000E+00 0.  1.
         23    2    1    0    0    0 -0.11036534122E+02 -0.26805960080E+02  0.35308159959E+01  0.95796725477E+02  0.91236951776E+02 0.  0.
         13    1    3    3    0    0 -0.27206403985E+02 -0.55209727835E+02  0.10337580037E+02  0.62411370682E+02  0.10566000000E+00 0. -1.
         22    1    1    0    0    0  0.11036534122E+02  0.26805960080E+02 -0.35308159959E+01  0.29203274523E+02  0.00000000000E+00 0. -1.
</event>
<event>
 5    1  0.1325686E-009  0.9118800E+02  0.7818608E-02  0.1130116E+00
         25   -1    0    0    0    0  0.00000000000E+00  0.00000000000E+00  0.99999998245E-14  0.12500000000E+03  0.12500000000E+03 0.  0.
        -13    1    3    3    0    0 -0.31709495177E+02  0.41027143934E+02  0.14293156551E+01  0.51872658801E+02  0.10566000000E+00 0.  1.
         23    2    1    0    0    0 -0.14589792998E+02  0.71428253693E+01  0.23985168010E+02  0.96031563756E+02  0.91558128743E+02 0.  0.
         13    1    3    3    0    0  0.17119702179E+02 -0.33884318565E+02  0.22555852355E+02  0.44158904955E+02  0.10566000000E+00 0. -1.
         22    1    1    0    0    0  0.14589792998E+02 -0.71428253693E+01 -0.23985168010E+02  0.28968436244E+02  0.00000000000E+00 0.  1.
</event>
<event>
 5    1  0.1325686E-009  0.9118800E+02  0.7818608E-02  0.1130116E+00
         25   -1    0    0    0    0  0.00000000000E+00  0.00000000000E+00  0.99999998245E-14  0.12500000000E+03  0.12500000000E+03 0.  0.
        -13    1    3    3    0    0  0.28175554044E+02  0.41580587562E+02 -0.31381881790E+02  0.59225338973E+02  0.10566000000E+00 0.  1.
         23    2    1    0    0    0 -0.12734785876E+01  0.20108136308E+02 -0.17784436691E+02  0.98125382200E+02  0.94373436676E+02 0.  0.
         13    1    3    3    0    0 -0.29449032632E+02 -0.21472451255E+02  0.13597445099E+02  0.38900043228E+02  0.10566000000E+00 0. -1.
         22    1    1    0    0    0  0.12734785876E+01 -0.20108136308E+02  0.17784436691E+02  0.26874617800E+02  0.00000000000E+00 0.  1.
</event>
<event>
 5    1  0.1325686E-009  0.9118800E+02  0.7818608E-02  0.1130116E+00
         25   -1    0    0    0    0  0.00000000000E+00  0.00000000000E+00  0.99999998245E-14  0.12500000000E+03  0.12500000000E+03 0.  0.
        -13    1    3    3    0    0 -0.14243061482E+02  0.18832049309E+02  0.31463593731E+02  0.39338019473E+02  0.10566000000E+00 0.  1.
         23    2    1    0    0    0  0.22629558399E+02 -0.16751873297E+02  0.77773690673E+01  0.95790247487E+02  0.91228076115E+02 0.  0.
         13    1    3    3    0    0  0.36872619880E+02 -0.35583922605E+02 -0.23686224664E+02  0.56452228014E+02  0.10566000000E+00 0. -1.
         22    1    1    0    0    0 -0.22629558399E+02  0.16751873297E+02 -0.77773690673E+01  0.29209752513E+02  0.00000000000E+00 0. -1.
</event>
<event>
 5    1  0.1325686E-009  0.9118800E+02  0.7818608E-02  0.1130116E+00
         25   -1    0    0    0    0  0.00000000000E+00  0.00000000000E+00  0.99999998245E-14  0.12500000000E+03  0.12500000000E+03 0.  0.
        -13    1    3    3    0    0  0.33432889441E+02  0.21488244725E+00 -0.80699194206E+01  0.34393880769E+02  0.10566000000E+00 0. -1.
         23    2    1    0    0    0 -0.28170739368E+02  0.39085230396E+01 -0.44403056849E+01  0.96214874962E+02  0.91808053789E+02 0.  0.
         13    1    3    3    0    0 -0.61603628808E+02  0.36936405923E+01  0.36296137357E+01  0.61820994194E+02  0.10566000000E+00 0.  1.
         22    1    1    0    0    0  0.28170739368E+02 -0.39085230396E+01  0.44403056849E+01  0.28785125038E+02  0.00000000000E+00 0.  1.
</event>
<event>
 5    1  0.1325686E-009  0.9118800E+02  0.7818608E-02  0.1130116E+00
         25   -1    0    0    0    0  0.00000000000E+00  0.00000000000E+00  0.99999998245E-14  0.12500000000E+03  0.12500000000E+03 0.  0.
        -13    1    3    3    0    0 -0.11833745922E+02 -0.71379730996E+01  0.42322056875E+02  0.44521409060E+02  0.10566000000E+00 0.  1.
         23    2    1    0    0    0  0.21228252886E+02 -0.16468944461E+02  0.11990218866E+01  0.98105716114E+02  0.94347384852E+02 0.  0.
         13    1    3    3    0    0  0.33061998808E+02 -0.93309713616E+01 -0.41123034988E+02  0.53584307054E+02  0.10566000000E+00 0. -1.
         22    1    1    0    0    0 -0.21228252886E+02  0.16468944461E+02 -0.11990218866E+01  0.26894283886E+02  0.00000000000E+00 0. -1.
</event>
<event>
 5    1  0.1325686E-009  0.9118800E+02  0.7818608E-02  0.1130116E+00
         25   -1    0    0    0    0  0.00000000000E+00  0.00000000000E+00  0.99999998245E-14  0.12500000000E+03  0.12500000000E+03 0.  0.
        -13    1    3    3    0    0  0.34629938881E+02  0.10172383254E+02 -0.14441447345E+02  0.38875141330E+02  0.10566000000E+00 0.  1.
         23    2    1    0    0    0 -0.24935986263E+01 -0.29165244319E+02  0.26714772429E+01  0.95606696325E+02  0.90976228110E+02 0.  0.
         13    1    3    3    0    0 -0.37123537507E+02 -0.39337627572E+02  0.17112924588E+02  0.56731554995E+02  0.10566000000E+00 0. -1.
         22    1    1    0    0    0  0.24935986263E+01  0.29165244319E+02 -0.26714772429E+01  0.29393303675E+02  0.00000000000E+00 0. -1.
</event>
<event>
 5    1  0.1325686E-009  0.9118800E+02  0.7818608E-02  0.1130116E+00
         25   -1    0    0    0    0  0.00000000000E+00  0.00000000000E+00  0.99999998245E-14  0.12500000000E+03  0.12500000000E+03 0.  0.
        -13    1    3    3    0    0  0.26723601147E+02 -0.84792794592E+00 -0.23509040370E+02  0.35602752466E+02  0.10566000000E+00 0. -1.
         23    2    1    0    0    0 -0.28806255747E+02 -0.65895837196E+01 -0.21630306956E+01  0.95370594243E+02  0.90651246879E+02 0.  0.
         13    1    3    3    0    0 -0.55529856893E+02 -0.57416557736E+01  0.21346009674E+02  0.59767841777E+02  0.10566000000E+00 0.  1.
         22    1    1    0    0    0  0.28806255747E+02  0.65895837196E+01  0.21630306956E+01  0.29629405757E+02  0.00000000000E+00 0.  1.
</event>
<event>
 5    1  0.1325686E-009  0.9118800E+02  0.7818608E-02  0.1130116E+00
         25   -1    0    0    0    0  0.00000000000E+00  0.00000000000E+00  0.99999998245E-14  0.12500000000E+03  0.12500000000E+03 0.  0.
        -13    1    3    3    0    0 -0.20807582578E+02  0.41517173626E+02  0.41268256544E+02  0.62126575319E+02  0.10566000000E+00 0. -1.
         23    2    1    0    0    0 -0.59144635932E+01  0.22505020341E+02  0.19493216463E+02  0.94644731787E+02  0.89644759729E+02 0.  0.
         13    1    3    3    0    0  0.14893118985E+02 -0.19012153285E+02 -0.21775040080E+02  0.32518156469E+02  0.10566000000E+00 0.  1.
         22    1    1    0    0    0  0.59144635932E+01 -0.22505020341E+02 -0.19493216463E+02  0.30355268213E+02  0.00000000000E+00 0. -1.
</event>
<event>
 5    1  0.1325686E-009  0.9118800E+02  0.7818608E-02  0.1130116E+00
         25   -1    0    0    0    0  0.00000000000E+00  0.00000000000E+00  0.99999998245E-14  0.12500000000E+03  0.12500000000E+03 0.  0.
        -13    1    3    3    0    0 -0.21163312015E+02  0.60393807754E+01  0.28248387625E+02  0.35809809593E+02  0.10566000000E+00 0. -1.
         23    2    1    0    0    0  0.18915576651E+02 -0.17057120844E+02 -0.11738302230E+02  0.96954819474E+02  0.92810047238E+02 0.  0.
         13    1    3    3    0    0  0.40078888666E+02 -0.23096501619E+02 -0.39986689855E+02  0.61145009881E+02  0.10566000000E+00 0.  1.
         22    1    1    0    0    0 -0.18915576651E+02  0.17057120844E+02  0.11738302230E+02  0.28045180526E+02  0.00000000000E+00 0.  1.
</event>
<event>
 5    1  0.1325686E-009  0.9118800E+02  0.7818608E-02  0.1130116E+00
         25   -1    0    0    0    0  0.00000000000E+00  0.00000000000E+00  0.99999998245E-14  0.12500000000E+03  0.12500000000E+03 0.  0.
        -13    1    3    3    0    0 -0.29812386996E+02 -0.15268022328E+01 -0.23460628676E+02  0.37967378173E+02  0.10566000000E+00 0. -1.
         23    2    1    0    0    0  0.23872649020E+02 -0.15331336348E+02 -0.85009661681E+01  0.95382105557E+02  0.90667118567E+02 0.  0.
         13    1    3    3    0    0  0.53685036016E+02 -0.13804534115E+02  0.14959662508E+02  0.57414727384E+02  0.10566000000E+00 0.  1.
         22    1    1    0    0    0 -0.23872649020E+02  0.15331336348E+02  0.85009661681E+01  0.29617894443E+02  0.00000000000E+00 0.  1.
</event>
<event>
 5    1  0.1325686E-009  0.9118800E+02  0.7818608E-02  0.1130116E+00
         25   -1    0    0    0    0  0.00000000000E+00  0.00000000000E+00  0.99999998245E-14  0.12500000000E+03  0.12500000000E+03 0.  0.
        -13    1    3    3    0    0 -0.11562045325E+02 -0.28552325598E+02 -0.35893707666E+02  0.47299953522E+02  0.10566000000E+00 0.  1.
         23    2    1    0    0    0 -0.47338580073E+00  0.18226113030E+02 -0.20006762912E+02  0.97931829532E+02  0.94116722121E+02 0.  0.
         13    1    3    3    0    0  0.11088659525E+02  0.46778438628E+02  0.15886944754E+02  0.50631876009E+02  0.10566000000E+00 0. -1.
         22    1    1    0    0    0  0.47338580073E+00 -0.18226113030E+02  0.20006762912E+02  0.27068170468E+02  0.00000000000E+00 0.  1.
</event>
<event>
 5    1  0.1325686E-009  0.9118800E+02  0.7818608E-02  0.1130116E+00
         25   -1    0    0    0    0  0.00000000000E+00  0.00000000000E+00  0.99999998245E-14  0.12500000000E+03  0.12500000000E+03 0.  0.
        -13    1    3    3    0    0  0.52643541808E+02 -0.31662897446E+02  0.10021449263E+02  0.62244053355E+02  0.10566000000E+00 0. -1.
         23    2    1    0    0    0  0.24876349946E+02 -0.15748613849E+02  0.81538702332E+00  0.95546367273E+02  0.90893299084E+02 0.  0.
         13    1    3    3    0    0 -0.27767191862E+02  0.15914283597E+02 -0.92060622396E+01  0.33302313918E+02  0.10566000000E+00 0.  1.
         22    1    1    0    0    0 -0.24876349946E+02  0.15748613849E+02 -0.81538702332E+00  0.29453632727E+02  0.00000000000E+00 0. -1.
</event>
<event>
 5    1  0.1325686E-009  0.9118800E+02  0.7818608E-02  0.1130116E+00
         25   -1    0    0    0    0  0.00000000000E+00  0.00000000000E+00  0.99999998245E-14  0.12500000000E+03  0.12500000000E+03 0.  0.
        -13    1    3    3    0    0  0.35011582687E+02 -0.53047106116E+01 -0.53300504950E+01  0.35810214733E+02  0.10566000000E+00 0. -1.
         23    2    1    0    0    0 -0.16178041110E+02  0.10430147964E+02  0.21861910950E+02  0.95871660688E+02  0.91339559731E+02 0.  0.
         13    1    3    3    0    0 -0.51189623797E+02  0.15734858576E+02  0.27191961445E+02  0.60061445954E+02  0.10566000000E+00 0.  1.
         22    1    1    0    0    0  0.16178041110E+02 -0.10430147964E+02 -0.21861910950E+02  0.29128339312E+02  0.00000000000E+00 0.  1.
</event>
<event>
 5    1  0.1325686E-009  0.9118800E+02  0.7818608E-02  0.1130116E+00
         25   -1    0    0    0    0  0.00000000000E+00  0.00000000000E+00  0.99999998245E-14  0.12500000000E+03  0.12500000000E+03 0.  0.
        -13    1    3    3    0    0 -0.49475197208E+02 -0.33520293474E+01 -0.26687850037E+02  0.56314152245E+02  0.10566000000E+00 0.  1.
         23    2    1    0    0    0 -0.27442376503E+02 -0.44997422146E+01  0.67581940615E+01  0.96381738433E+02  0.92034964053E+02 0.  0.
         13    1    3    3    0    0  0.22032820705E+02 -0.11477128672E+01  0.33446044098E+02  0.40067586188E+02  0.10566000000E+00 0. -1.
         22    1    1    0    0    0  0.27442376503E+02  0.44997422146E+01 -0.67581940615E+01  0.28618261567E+02  0.00000000000E+00 0.  1.
</event>
<event>
 5    1  0.1325686E-009  0.9118800E+02  0.7818608E-02  0.1130116E+00
         25   -1    0    0    0    0  0.00000000000E+00  0.00000000000E+00  0.99999998245E-14  0.12500000000E+03  0.12500000000E+03 0.  0.
        -13    1    3    3    0    0  0.52583175985E+02 -0.18541091110E+02  0.21308790644E+02  0.59689514816E+02  0.10566000000E+00 0. -1.
         23    2    1    0    0    0  0.30183314628E+02  0.34039330880E+01  0.10139393185E+02  0.92977718124E+02  0.87289343742E+02 0.  0.
         13    1    3    3    0    0 -0.22399861357E+02  0.21945024198E+02 -0.11169397459E+02  0.33288203308E+02  0.10566000000E+00 0.  1.
         22    1    1    0    0    0 -0.30183314628E+02 -0.34039330880E+01 -0.10139393185E+02  0.32022281876E+02  0.00000000000E+00 0. -1.
</event>
<event>
 5    1  0.1325686E-009  0.9118800E+02  0.7818608E-02  0.1130116E+00
         25   -1    0    0    0    0  0.00000000000E+00  0.00000000000E+00  0.99999998245E-14  0.12500000000E+03  0.12500000000E+03 0.  0.
        -13    1    3    3    0    0 -0.90120317849E+01  0.21155948982E+02 -0.56788422532E+02  0.61267666774E+02  0.10566000000E+00 0. -1.
         23    2    1    0    0    0 -0.20666206518E+01  0.22914700408E+01 -0.30414208807E+02  0.94429657293E+02  0.89344358094E+02 0.  0.
         13    1    3    3    0    0  0.69454111331E+01 -0.18864478942E+02  0.26374213725E+02  0.33161990519E+02  0.10566000000E+00 0.  1.
         22    1    1    0    0    0  0.20666206518E+01 -0.22914700408E+01  0.30414208807E+02  0.30570342707E+02  0.00000000000E+00 0. -1.
</event>
<event>
 5    1  0.1325686E-009  0.9118800E+02  0.7818608E-02  0.1130116E+00
         25   -1    0    0    0    0  0.00000000000E+00  0.00000000000E+00  0.99999998245E-14  0.12500000000E+03  0.12500000000E+03 0.  0.
        -13    1    3    3    0    0  0.14959998307E+02  0.12703276115E+02 -0.32610738801E+02  0.38061085410E+02  0.10566000000E+00 0. -1.
         23    2    1    0    0    0 -0.16774500081E+02 -0.25383251762E+02 -0.73555449681E+01  0.93698284955E+02  0.88315181248E+02 0.  0.
         13    1    3    3    0    0 -0.31734498387E+02 -0.38086527877E+02  0.25255193833E+02  0.55637199545E+02  0.10566000000E+00 0.  1.
         22    1    1    0    0    0  0.16774500081E+02  0.25383251762E+02  0.73555449681E+01  0.31301715045E+02  0.00000000000E+00 0.  1.
</event>
<event>
 5    1  0.1325686E-009  0.9118800E+02  0.7818608E-02  0.1130116E+00
         25   -1    0    0    0    0  0.00000000000E+00  0.00000000000E+00  0.99999998245E-14  0.12500000000E+03  0.12500000000E+03 0.  0.
        -13    1    3    3    0    0 -0.14256326787E+01  0.23662977007E+02  0.27421096796E+02  0.36247711967E+02  0.10566000000E+00 0.  1.
         23    2    1    0    0    0  0.69328888492E+01 -0.50884551862E+01 -0.26069684377E+02  0.97548483330E+02  0.93606200823E+02 0.  0.
         13    1    3    3    0    0  0.83585215279E+01 -0.28751432193E+02 -0.53490781172E+02  0.61300771363E+02  0.10566000000E+00 0. -1.
         22    1    1    0    0    0 -0.69328888492E+01  0.50884551862E+01  0.26069684377E+02  0.27451516670E+02  0.00000000000E+00 0. -1.
</event>
<event>
 5    1  0.1325686E-009  0.9118800E+02  0.7818608E-02  0.1130116E+00
         25   -1    0    0    0    0  0.00000000000E+00  0.00000000000E+00  0.99999998245E-14  0.12500000000E+03  0.12500000000E+03 0.  0.
        -13    1    3    3    0    0 -0.85032637401E+01 -0.28508152917E+02  0.52649631852E+02  0.60473260001E+02  0.10566000000E+00 0.  1.
         23    2    1    0    0    0  0.69608779294E+01 -0.15488026542E+02  0.26511056098E+02  0.93517165262E+02  0.88058453969E+02 0.  0.
         13    1    3    3    0    0  0.15464141670E+02  0.13020126375E+02 -0.26138575754E+02  0.33043905261E+02  0.10566000000E+00 0. -1.
         22    1    1    0    0    0 -0.69608779294E+01  0.15488026542E+02 -0.26511056098E+02  0.31482834738E+02  0.00000000000E+00 0.  1.
</event>
<event>
 5    1  0.1325686E-009  0.9118800E+02  0.7818608E-02  0.1130116E+00
         25   -1    0    0    0    0  0.00000000000E+00  0.00000000000E+00  0.99999998245E-14  0.12500000000E+03  0.12500000000E+03 0.  0.
        -13    1    3    3    0    0  0.13226961060E+02 -0.95061081129E+01  0.28111419190E+02  0.32489715962E+02  0.10566000000E+00 0. -1.
         23    2    1    0    0    0  0.75676525073E+01  0.23066282989E+02 -0.21809907238E+02  0.92365741480E+02  0.86408537599E+02 0.  0.
         13    1    3    3    0    0 -0.56593085527E+01  0.32572391102E+02 -0.49921326429E+02  0.59876025518E+02  0.10566000000E+00 0.  1.
         22    1    1    0    0    0 -0.75676525073E+01 -0.23066282989E+02  0.21809907238E+02  0.32634258520E+02  0.00000000000E+00 0.  1.
</event>
<event>
 5    1  0.1325686E-009  0.9118800E+02  0.7818608E-02  0.1130116E+00
         25   -1    0    0    0    0  0.00000000000E+00  0.00000000000E+00  0.99999998245E-14  0.12500000000E+03  0.12500000000E+03 0.  0.
        -13    1    3    3    0    0  0.41812421074E+01  0.29484475587E+02  0.38890469119E+02  0.48982617718E+02  0.10566000000E+00 0. -1.
         23    2    1    0    0    0  0.20499385214E+02 -0.95383532972E+01  0.17668392397E+02  0.96305452301E+02  0.91931295407E+02 0.  0.
         13    1    3    3    0    0  0.16318143106E+02 -0.39022828884E+02 -0.21222076722E+02  0.47322834583E+02  0.10566000000E+00 0.  1.
         22    1    1    0    0    0 -0.20499385214E+02  0.95383532972E+01 -0.17668392397E+02  0.28694547699E+02  0.00000000000E+00 0.  1.
</event>
<event>
 5    1  0.1325686E-009  0.9118800E+02  0.7818608E-02  0.1130116E+00
         25   -1    0    0    0    0  0.00000000000E+00  0.00000000000E+00  0.99999998245E-14  0.12500000000E+03  0.12500000000E+03 0.  0.
        -13    1    3    3    0    0 -0.29976135815E+02 -0.23250321022E+02  0.48948963323E+02  0.61928655084E+02  0.10566000000E+00 0. -1.
         23    2    1    0    0    0 -0.18235277634E+02 -0.13385317656E+02  0.19486100428E+02  0.95143674221E+02  0.90337802470E+02 0.  0.
         13    1    3    3    0    0  0.11740858181E+02  0.98650033651E+01 -0.29462862896E+02  0.33215019137E+02  0.10566000000E+00 0.  1.
         22    1    1    0    0    0  0.18235277634E+02  0.13385317656E+02 -0.19486100428E+02  0.29856325779E+02  0.00000000000E+00 0. -1.
</event>
<event>
 5    1  0.1325686E-009  0.9118800E+02  0.7818608E-02  0.1130116E+00
         25   -1    0    0    0    0  0.00000000000E+00  0.00000000000E+00  0.99999998245E-14  0.12500000000E+03  0.12500000000E+03 0.  0.
        -13    1    3    3    0    0  0.21761851797E+02  0.78965137303E+01 -0.31390421246E+02  0.39003882278E+02  0.10566000000E+00 0. -1.
         23    2    1    0    0    0 -0.16129773841E+02  0.25483576688E+02  0.50285362544E+01  0.94424381252E+02  0.89336976180E+02 0.  0.
         13    1    3    3    0    0 -0.37891625638E+02  0.17587062957E+02  0.36418957501E+02  0.55420498973E+02  0.10566000000E+00 0.  1.
         22    1    1    0    0    0  0.16129773841E+02 -0.25483576688E+02 -0.50285362544E+01  0.30575618748E+02  0.00000000000E+00 0.  1.
</event>
<event>
 5    1  0.1325686E-009  0.9118800E+02  0.7818608E-02  0.1130116E+00
         25   -1    0    0    0    0  0.00000000000E+00  0.00000000000E+00  0.99999998245E-14  0.12500000000E+03  0.12500000000E+03 0.  0.
        -13    1    3    3    0    0 -0.23676175918E+02  0.49779057719E+02 -0.16163917602E+02  0.57443879481E+02  0.10566000000E+00 0.  1.
         23    2    1    0    0    0 -0.93807601509E+01  0.50078948196E+01 -0.17569531687E+02  0.10446305487E+03  0.10242442930E+03 0.  0.
         13    1    3    3    0    0  0.14295415767E+02 -0.44771162900E+02 -0.14056140854E+01  0.47019175390E+02  0.10566000000E+00 0. -1.
         22    1    1    0    0    0  0.93807601509E+01 -0.50078948196E+01  0.17569531687E+02  0.20536945129E+02  0.00000000000E+00 0.  1.
</event>
<event>
 5    1  0.1325686E-009  0.9118800E+02  0.7818608E-02  0.1130116E+00
         25   -1    0    0    0    0  0.00000000000E+00  0.00000000000E+00  0.99999998245E-14  0.12500000000E+03  0.12500000000E+03 0.  0.
        -13    1    3    3    0    0  0.17775863557E+02  0.14527064392E+02  0.38256552346E+02  0.44616049651E+02  0.10566000000E+00 0.  1.
         23    2    1    0    0    0 -0.18515675078E+02 -0.14769681165E+02  0.16837549716E+02  0.95940117245E+02  0.91433195893E+02 0.  0.
         13    1    3    3    0    0 -0.36291538634E+02 -0.29296745557E+02 -0.21419002630E+02  0.51324067594E+02  0.10566000000E+00 0. -1.
         22    1    1    0    0    0  0.18515675078E+02  0.14769681165E+02 -0.16837549716E+02  0.29059882755E+02  0.00000000000E+00 0.  1.
</event>
<event>
 5    1  0.1325686E-009  0.9118800E+02  0.7818608E-02  0.1130116E+00
         25   -1    0    0    0    0  0.00000000000E+00  0.00000000000E+00  0.99999998245E-14  0.12500000000E+03  0.12500000000E+03 0.  0.
        -13    1    3    3    0    0 -0.23670767884E+02 -0.91689688990E+01 -0.42268530301E+02  0.49305324872E+02  0.10566000000E+00 0.  1.
         23    2    1    0    0    0  0.64980938737E+01 -0.26376299456E+02 -0.12294493651E+02  0.95182405008E+02  0.90391378194E+02 0.  0.
         13    1    3    3    0    0  0.30168861757E+02 -0.17207330557E+02  0.29974036650E+02  0.45877080136E+02  0.10566000000E+00 0. -1.
         22    1    1    0    0    0 -0.64980938737E+01  0.26376299456E+02  0.12294493651E+02  0.29817594992E+02  0.00000000000E+00 0. -1.
</event>
<event>
 5    1  0.1325686E-009  0.9118800E+02  0.7818608E-02  0.1130116E+00
         25   -1    0    0    0    0  0.00000000000E+00  0.00000000000E+00  0.99999998245E-14  0.12500000000E+03  0.12500000000E+03 0.  0.
        -13    1    3    3    0    0 -0.50180151791E+02  0.28178497099E+02 -0.79191133766E+01  0.58093018972E+02  0.10566000000E+00 0.  1.
         23    2    1    0    0    0 -0.21234214042E+02  0.14252437400E+02  0.12885102069E+02  0.96363490555E+02  0.92010176822E+02 0.  0.
         13    1    3    3    0    0  0.28945937749E+02 -0.13926059699E+02  0.20804215445E+02  0.38270471584E+02  0.10566000000E+00 0. -1.
         22    1    1    0    0    0  0.21234214042E+02 -0.14252437400E+02 -0.12885102069E+02  0.28636509445E+02  0.00000000000E+00 0.  1.
</event>
<event>
 5    1  0.1325686E-009  0.9118800E+02  0.7818608E-02  0.1130116E+00
         25   -1    0    0    0    0  0.00000000000E+00  0.00000000000E+00  0.99999998245E-14  0.12500000000E+03  0.12500000000E+03 0.  0.
        -13    1    3    3    0    0 -0.28728800767E+02  0.35327777450E+02 -0.13410109445E+01  0.45554421602E+02  0.10566000000E+00 0.  1.
         23    2    1    0    0    0  0.19573249282E+02  0.20544894831E+02  0.39739367476E+01  0.96346955409E+02  0.91987710332E+02 0.  0.
         13    1    3    3    0    0  0.48302050049E+02 -0.14782882620E+02  0.53149476921E+01  0.50792533807E+02  0.10566000000E+00 0. -1.
         22    1    1    0    0    0 -0.19573249282E+02 -0.20544894831E+02 -0.39739367476E+01  0.28653044591E+02  0.00000000000E+00 0.  1.
</event>
<event>
 5    1  0.1325686E-009  0.9118800E+02  0.7818608E-02  0.1130116E+00
         25   -1    0    0    0    0  0.00000000000E+00  0.00000000000E+00  0.99999998245E-14  0.12500000000E+03  0.12500000000E+03 0.  0.
        -13    1    3    3    0    0  0.13592825170E+02  0.51295819178E+02 -0.10837704543E+02  0.54161729709E+02  0.10566000000E+00 0. -1.
         23    2    1    0    0    0  0.22505601872E+02  0.22070731888E+02  0.10886102477E+02  0.91651438579E+02  0.85368961835E+02 0.  0.
         13    1    3    3    0    0  0.89127767019E+01 -0.29225087291E+02  0.21723807020E+02  0.37489708870E+02  0.10566000000E+00 0.  1.
         22    1    1    0    0    0 -0.22505601872E+02 -0.22070731888E+02 -0.10886102477E+02  0.33348561421E+02  0.00000000000E+00 0. -1.
</event>
<event>
 5    1  0.1325686E-009  0.9118800E+02  0.7818608E-02  0.1130116E+00
         25   -1    0    0    0    0  0.00000000000E+00  0.00000000000E+00  0.99999998245E-14  0.12500000000E+03  0.12500000000E+03 0.  0.
        -13    1    3    3    0    0 -0.21128787857E+02  0.29851193343E+02 -0.16011645082E+02  0.39923719298E+02  0.10566000000E+00 0. -1.
         23    2    1    0    0    0 -0.43301482983E+01 -0.23533611688E+02 -0.16573750382E+02  0.95892092739E+02  0.91367517120E+02 0.  0.
         13    1    3    3    0    0  0.16798639559E+02 -0.53384805031E+02 -0.56210530011E+00  0.55968373441E+02  0.10566000000E+00 0.  1.
         22    1    1    0    0    0  0.43301482983E+01  0.23533611688E+02  0.16573750382E+02  0.29107907261E+02  0.00000000000E+00 0.  1.
</event>
<event>
 5    1  0.1325686E-009  0.9118800E+02  0.7818608E-02  0.1130116E+00
         25   -1    0    0    0    0  0.00000000000E+00  0.00000000000E+00  0.99999998245E-14  0.12500000000E+03  0.12500000000E+03 0.  0.
        -13    1    3    3    0    0  0.12468289447E+02 -0.53361859870E+02  0.52456437556E+01  0.55049743623E+02  0.10566000000E+00 0. -1.
         23    2    1    0    0    0 -0.15748878614E+02 -0.24534208110E+02 -0.77461677543E+00  0.95835731170E+02  0.91290376232E+02 0.  0.
         13    1    3    3    0    0 -0.28217168061E+02  0.28827651759E+02 -0.60202605310E+01  0.40785987548E+02  0.10566000000E+00 0.  1.
         22    1    1    0    0    0  0.15748878614E+02  0.24534208110E+02  0.77461677543E+00  0.29164268830E+02  0.00000000000E+00 0.  1.
</event>
<event>
 5    1  0.1325686E-009  0.9118800E+02  0.7818608E-02  0.1130116E+00
         25   -1    0    0    0    0  0.00000000000E+00  0.00000000000E+00  0.99999998245E-14  0.12500000000E+03  0.12500000000E+03 0.  0.
        -13    1    3    3    0    0 -0.14815321638E+02  0.28769372226E+02  0.21214501509E+02  0.38694143896E+02  0.10566000000E+00 0. -1.
         23    2    1    0    0    0 -0.12085625196E+02  0.61207877115E+01 -0.28528247350E+02  0.93418561219E+02  0.87918372965E+02 0.  0.
         13    1    3    3    0    0  0.27296964420E+01 -0.22648584515E+02 -0.49742748860E+02  0.54724417323E+02  0.10566000000E+00 0.  1.
         22    1    1    0    0    0  0.12085625196E+02 -0.61207877115E+01  0.28528247350E+02  0.31581438781E+02  0.00000000000E+00 0.  1.
</event>
<event>
 5    1  0.1325686E-009  0.9118800E+02  0.7818608E-02  0.1130116E+00
         25   -1    0    0    0    0  0.00000000000E+00  0.00000000000E+00  0.99999998245E-14  0.12500000000E+03  0.12500000000E+03 0.  0.
        -13    1    3    3    0    0  0.21862061524E+01  0.35250897668E+02 -0.27951977165E+02  0.45041419552E+02  0.10566000000E+00 0. -1.
         23    2    1    0    0    0 -0.18216403462E+02  0.22615022861E+02  0.13528607553E+02  0.92964085210E+02  0.87269818967E+02 0.  0.
         13    1    3    3    0    0 -0.20402609614E+02 -0.12635874807E+02  0.41480584718E+02  0.47922665658E+02  0.10566000000E+00 0.  1.
         22    1    1    0    0    0  0.18216403462E+02 -0.22615022861E+02 -0.13528607553E+02  0.32035914790E+02  0.00000000000E+00 0.  1.
</event>
<event>
 5    1  0.1325686E-009  0.9118800E+02  0.7818608E-02  0.1130116E+00
         25   -1    0    0    0    0  0.00000000000E+00  0.00000000000E+00  0.99999998245E-14  0.12500000000E+03  0.12500000000E+03 0.  0.
        -13    1    3    3    0    0  0.93048592667E+01  0.41069338831E+02  0.35723060597E+02  0.55221546705E+02  0.10566000000E+00 0.  1.
         23    2    1    0    0    0 -0.12102425317E+02  0.23767078074E+02  0.27288913730E+01  0.98189749221E+02  0.94458653945E+02 0.  0.
         13    1    3    3    0    0 -0.21407284584E+02 -0.17302260757E+02 -0.32994169224E+02  0.42968202516E+02  0.10566000000E+00 0. -1.
         22    1    1    0    0    0  0.12102425317E+02 -0.23767078074E+02 -0.27288913730E+01  0.26810250779E+02  0.00000000000E+00 0.  1.
</event>
<event>
 5    1  0.1325686E-009  0.9118800E+02  0.7818608E-02  0.1130116E+00
         25   -1    0    0    0    0  0.00000000000E+00  0.00000000000E+00  0.99999998245E-14  0.12500000000E+03  0.12500000000E+03 0.  0.
        -13    1    3    3    0    0  0.38835591647E+02  0.61116879168E+01 -0.37502191039E+02  0.54332139701E+02  0.10566000000E+00 0.  1.
         23    2    1    0    0    0  0.16458528123E+02  0.23336456452E+02 -0.76244118698E+01  0.95443190225E+02  0.90751295066E+02 0.  0.
         13    1    3    3    0    0 -0.22377063524E+02  0.17224768535E+02  0.29877779169E+02  0.41111050524E+02  0.10566000000E+00 0. -1.
         22    1    1    0    0    0 -0.16458528123E+02 -0.23336456452E+02  0.76244118698E+01  0.29556809775E+02  0.00000000000E+00 0.  1.
</event>
<event>
 5    1  0.1325686E-009  0.9118800E+02  0.7818608E-02  0.1130116E+00
         25   -1    0    0    0    0  0.00000000000E+00  0.00000000000E+00  0.99999998245E-14  0.12500000000E+03  0.12500000000E+03 0.  0.
        -13    1    3    3    0    0 -0.13452224417E+02 -0.12390590823E+02  0.49077988372E+02  0.52375081760E+02  0.10566000000E+00 0.  1.
         23    2    1    0    0    0 -0.38990472216E+01 -0.27880064089E+02  0.10637537307E+02  0.94905852017E+02  0.90008127434E+02 0.  0.
         13    1    3    3    0    0  0.95531771954E+01 -0.15489473266E+02 -0.38440451064E+02  0.42530770257E+02  0.10566000000E+00 0. -1.
         22    1    1    0    0    0  0.38990472216E+01  0.27880064089E+02 -0.10637537307E+02  0.30094147983E+02  0.00000000000E+00 0.  1.
</event>
<event>
 5    1  0.1325686E-009  0.9118800E+02  0.7818608E-02  0.1130116E+00
         25   -1    0    0    0    0  0.00000000000E+00  0.00000000000E+00  0.99999998245E-14  0.12500000000E+03  0.12500000000E+03 0.  0.
        -13    1    3    3    0    0 -0.44188860876E+02  0.16073504180E+02 -0.35601866360E+02  0.58978953996E+02  0.10566000000E+00 0. -1.
         23    2    1    0    0    0 -0.21996947711E+02 -0.73549663868E+01 -0.17168769326E+02  0.96142975217E+02  0.91710107427E+02 0.  0.
         13    1    3    3    0    0  0.22191913164E+02 -0.23428470566E+02  0.18433097034E+02  0.37164021221E+02  0.10566000000E+00 0.  1.
         22    1    1    0    0    0  0.21996947711E+02  0.73549663868E+01  0.17168769326E+02  0.28857024783E+02  0.00000000000E+00 0. -1.
</event>
<event>
 5    1  0.1325686E-009  0.9118800E+02  0.7818608E-02  0.1130116E+00
         25   -1    0    0    0    0  0.00000000000E+00  0.00000000000E+00  0.99999998245E-14  0.12500000000E+03  0.12500000000E+03 0.  0.
        -13    1    3    3    0    0  0.17679722999E+02  0.20391096057E+02 -0.51085261879E+02  0.57776159001E+02  0.10566000000E+00 0. -1.
         23    2    1    0    0    0  0.10942808399E+02 -0.49960869188E+01 -0.33552450897E+02  0.89356306289E+02  0.81939468953E+02 0.  0.
         13    1    3    3    0    0 -0.67369145999E+01 -0.25387182976E+02  0.17532810982E+02  0.31580147288E+02  0.10566000000E+00 0.  1.
         22    1    1    0    0    0 -0.10942808399E+02  0.49960869188E+01  0.33552450897E+02  0.35643693711E+02  0.00000000000E+00 0. -1.
</event>
<event>
 5    1  0.1325686E-009  0.9118800E+02  0.7818608E-02  0.1130116E+00
         25   -1    0    0    0    0  0.00000000000E+00  0.00000000000E+00  0.99999998245E-14  0.12500000000E+03  0.12500000000E+03 0.  0.
        -13    1    3    3    0    0 -0.48569117072E+02 -0.26221570532E+02  0.77441002562E+01  0.55736093756E+02  0.10566000000E+00 0.  1.
         23    2    1    0    0    0 -0.23577409486E+02 -0.16001406507E+02 -0.16541706750E+02  0.92052051499E+02  0.85953550681E+02 0.  0.
         13    1    3    3    0    0  0.24991707586E+02  0.10220164026E+02 -0.24285807006E+02  0.36315957743E+02  0.10566000000E+00 0. -1.
         22    1    1    0    0    0  0.23577409486E+02  0.16001406507E+02  0.16541706750E+02  0.32947948501E+02  0.00000000000E+00 0.  1.
</event>
<event>
 5    1  0.1325686E-009  0.9118800E+02  0.7818608E-02  0.1130116E+00
         25   -1    0    0    0    0  0.00000000000E+00  0.00000000000E+00  0.99999998245E-14  0.12500000000E+03  0.12500000000E+03 0.  0.
        -13    1    3    3    0    0  0.52403588409E+02 -0.11871836493E+01  0.70261721850E+01  0.52885950334E+02  0.10566000000E+00 0.  1.
         23    2    1    0    0    0  0.14522288741E+02 -0.24747549196E+01  0.25881060390E+02  0.95219963581E+02  0.90443302103E+02 0.  0.
         13    1    3    3    0    0 -0.37881299668E+02 -0.12875712703E+01  0.18854888205E+02  0.42334013247E+02  0.10566000000E+00 0. -1.
         22    1    1    0    0    0 -0.14522288741E+02  0.24747549196E+01 -0.25881060390E+02  0.29780036419E+02  0.00000000000E+00 0.  1.
</event>
<event>
 5    1  0.1325686E-009  0.9118800E+02  0.7818608E-02  0.1130116E+00
         25   -1    0    0    0    0  0.00000000000E+00  0.00000000000E+00  0.99999998245E-14  0.12500000000E+03  0.12500000000E+03 0.  0.
        -13    1    3    3    0    0  0.22969606298E+01 -0.10947436649E+02  0.53142040736E+02  0.54306629935E+02  0.10566000000E+00 0. -1.
         23    2    1    0    0    0 -0.21117952217E+02 -0.60352053735E+01  0.19235987437E+02  0.95803856035E+02  0.91246720537E+02 0.  0.
         13    1    3    3    0    0 -0.23414912846E+02  0.49122312753E+01 -0.33906053298E+02  0.41497226100E+02  0.10566000000E+00 0.  1.
         22    1    1    0    0    0  0.21117952217E+02  0.60352053735E+01 -0.19235987437E+02  0.29196143965E+02  0.00000000000E+00 0. -1.
</event>
<event>
 5    1  0.1325686E-009  0.9118800E+02  0.7818608E-02  0.1130116E+00
         25   -1    0    0    0    0  0.00000000000E+00  0.00000000000E+00  0.99999998245E-14  0.12500000000E+03  0.12500000000E+03 0.  0.
        -13    1    3    3    0    0  0.23990741906E+02  0.23936626425E+02 -0.15942493411E+02  0.37452530515E+02  0.10566000000E+00 0.  1.
         23    2    1    0    0    0 -0.27523167278E+02  0.20602308296E+02 -0.45057408619E+01  0.90326068223E+02  0.83405737547E+02 0.  0.
         13    1    3    3    0    0 -0.51513909184E+02 -0.33343181281E+01  0.11436752549E+02  0.52873537708E+02  0.10566000000E+00 0. -1.
         22    1    1    0    0    0  0.27523167278E+02 -0.20602308296E+02  0.45057408619E+01  0.34673931777E+02  0.00000000000E+00 0. -1.
</event>
<event>
 5    1  0.1325686E-009  0.9118800E+02  0.7818608E-02  0.1130116E+00
         25   -1    0    0    0    0  0.00000000000E+00  0.00000000000E+00  0.99999998245E-14  0.12500000000E+03  0.12500000000E+03 0.  0.
        -13    1    3    3    0    0 -0.16962183651E+02  0.25934631182E+02  0.17851358379E+02  0.35763150431E+02  0.10566000000E+00 0. -1.
         23    2    1    0    0    0  0.21084939899E+02 -0.75930418707E+01 -0.16635062399E+02  0.97090247647E+02  0.92992268021E+02 0.  0.
         13    1    3    3    0    0  0.38047123551E+02 -0.33527673053E+02 -0.34486420777E+02  0.61327097216E+02  0.10566000000E+00 0.  1.
         22    1    1    0    0    0 -0.21084939899E+02  0.75930418707E+01  0.16635062399E+02  0.27909752353E+02  0.00000000000E+00 0.  1.
</event>
<event>
 5    1  0.1325686E-009  0.9118800E+02  0.7818608E-02  0.1130116E+00
         25   -1    0    0    0    0  0.00000000000E+00  0.00000000000E+00  0.99999998245E-14  0.12500000000E+03  0.12500000000E+03 0.  0.
        -13    1    3    3    0    0 -0.19483859225E+02  0.14380030101E+02 -0.31076874669E+02  0.39397834194E+02  0.10566000000E+00 0.  1.
         23    2    1    0    0    0 -0.23344368156E+02 -0.12598037833E+02  0.16164185521E+02  0.93936339955E+02  0.88651480465E+02 0.  0.
         13    1    3    3    0    0 -0.38605089318E+01 -0.26978067934E+02  0.47241060190E+02  0.54538505760E+02  0.10566000000E+00 0. -1.
         22    1    1    0    0    0  0.23344368156E+02  0.12598037833E+02 -0.16164185521E+02  0.31063660045E+02  0.00000000000E+00 0. -1.
</event>
<event>
 5    1  0.1325686E-009  0.9118800E+02  0.7818608E-02  0.1130116E+00
         25   -1    0    0    0    0  0.00000000000E+00  0.00000000000E+00  0.99999998245E-14  0.12500000000E+03  0.12500000000E+03 0.  0.
        -13    1    3    3    0    0 -0.53152989172E+02 -0.44728418144E+01  0.48433419653E+01  0.53560392990E+02  0.10566000000E+00 0. -1.
         23    2    1    0    0    0 -0.21294163522E+02  0.17772688694E+02 -0.10507915989E+02  0.95339821950E+02  0.90608804691E+02 0.  0.
         13    1    3    3    0    0  0.31858825650E+02  0.22245530509E+02 -0.15351257954E+02  0.41779428960E+02  0.10566000000E+00 0.  1.
         22    1    1    0    0    0  0.21294163522E+02 -0.17772688694E+02  0.10507915989E+02  0.29660178050E+02  0.00000000000E+00 0. -1.
</event>
<event>
 5    1  0.1325686E-009  0.9118800E+02  0.7818608E-02  0.1130116E+00
         25   -1    0    0    0    0  0.00000000000E+00  0.00000000000E+00  0.99999998245E-14  0.12500000000E+03  0.12500000000E+03 0.  0.
        -13    1    3    3    0    0  0.13621392499E+02 -0.25814356519E+02  0.23534406539E+02  0.37494036743E+02  0.10566000000E+00 0. -1.
         23    2    1    0    0    0  0.85363895521E+01  0.16597081085E+02 -0.19415485113E+02  0.98068715046E+02  0.94298349728E+02 0.  0.
         13    1    3    3    0    0 -0.50850029466E+01  0.42411437604E+02 -0.42949891652E+02  0.60574678303E+02  0.10566000000E+00 0.  1.
         22    1    1    0    0    0 -0.85363895521E+01 -0.16597081085E+02  0.19415485113E+02  0.26931284954E+02  0.00000000000E+00 0.  1.
</event>
<event>
 5    1  0.1325686E-009  0.9118800E+02  0.7818608E-02  0.1130116E+00
         25   -1    0    0    0    0  0.00000000000E+00  0.00000000000E+00  0.99999998245E-14  0.12500000000E+03  0.12500000000E+03 0.  0.
        -13    1    3    3    0    0  0.22744516232E+02 -0.98052716038E+01 -0.49866000489E+02  0.55678411783E+02  0.10566000000E+00 0.  1.
         23    2    1    0    0    0 -0.70278748683E+01  0.44882752348E+01 -0.29189207030E+02  0.94643032978E+02  0.89642390890E+02 0.  0.
         13    1    3    3    0    0 -0.29772391100E+02  0.14293546839E+02  0.20676793459E+02  0.38964621195E+02  0.10566000000E+00 0. -1.
         22    1    1    0    0    0  0.70278748683E+01 -0.44882752348E+01  0.29189207030E+02  0.30356967022E+02  0.00000000000E+00 0.  1.
</event>
<event>
 5    1  0.1325686E-009  0.9118800E+02  0.7818608E-02  0.1130116E+00
         25   -1    0    0    0    0  0.00000000000E+00  0.00000000000E+00  0.99999998245E-14  0.12500000000E+03  0.12500000000E+03 0.  0.
        -13    1    3    3    0    0 -0.10982789388E+02 -0.35031737838E+02  0.41905051468E+02  0.55712555329E+02  0.10566000000E+00 0.  1.
         23    2    1    0    0    0 -0.16868641861E+02 -0.24308344462E+02  0.44941688069E+01  0.95072684017E+02  0.90239520190E+02 0.  0.
         13    1    3    3    0    0 -0.58858524729E+01  0.10723393376E+02 -0.37410882661E+02  0.39360128688E+02  0.10566000000E+00 0. -1.
         22    1    1    0    0    0  0.16868641861E+02  0.24308344462E+02 -0.44941688069E+01  0.29927315983E+02  0.00000000000E+00 0.  1.
</event>
<event>
 5    1  0.1325686E-009  0.9118800E+02  0.7818608E-02  0.1130116E+00
         25   -1    0    0    0    0  0.00000000000E+00  0.00000000000E+00  0.99999998245E-14  0.12500000000E+03  0.12500000000E+03 0.  0.
        -13    1    3    3    0    0 -0.59581061166E+02 -0.76258264015E+00 -0.28309944693E+01  0.59653248660E+02  0.10566000000E+00 0. -1.
         23    2    1    0    0    0 -0.27099862099E+02 -0.13580866699E+02  0.74625415078E-02  0.94687584693E+02  0.89704493607E+02 0.  0.
         13    1    3    3    0    0  0.32481199067E+02 -0.12818284059E+02  0.28384570108E+01  0.35034336033E+02  0.10566000000E+00 0.  1.
         22    1    1    0    0    0  0.27099862099E+02  0.13580866699E+02 -0.74625415078E-02  0.30312415307E+02  0.00000000000E+00 0. -1.
</event>
<event>
 5    1  0.1325686E-009  0.9118800E+02  0.7818608E-02  0.1130116E+00
         25   -1    0    0    0    0  0.00000000000E+00  0.00000000000E+00  0.99999998245E-14  0.12500000000E+03  0.12500000000E+03 0.  0.
        -13    1    3    3    0    0  0.82005295997E+01 -0.34977304705E+02  0.44567828028E+02  0.57244763860E+02  0.10566000000E+00 0.  1.
         23    2    1    0    0    0  0.13836028931E+02 -0.25202317959E+02  0.85255257000E+01  0.95012050494E+02  0.90155491367E+02 0.  0.
         13    1    3    3    0    0  0.56354993309E+01  0.97749867461E+01 -0.36042302328E+02  0.37767286635E+02  0.10566000000E+00 0. -1.
         22    1    1    0    0    0 -0.13836028931E+02  0.25202317959E+02 -0.85255257000E+01  0.29987949506E+02  0.00000000000E+00 0.  1.
</event>
<event>
 5    1  0.1325686E-009  0.9118800E+02  0.7818608E-02  0.1130116E+00
         25   -1    0    0    0    0  0.00000000000E+00  0.00000000000E+00  0.99999998245E-14  0.12500000000E+03  0.12500000000E+03 0.  0.
        -13    1    3    3    0    0 -0.31687641410E+01 -0.37297129264E+01  0.53365949258E+02  0.53589994672E+02  0.10566000000E+00 0. -1.
         23    2    1    0    0    0  0.13348536696E+02 -0.18855977418E+02  0.16934506654E+02  0.96355474661E+02  0.91999286221E+02 0.  0.
         13    1    3    3    0    0  0.16517300837E+02 -0.15126264492E+02 -0.36431442604E+02  0.42765479989E+02  0.10566000000E+00 0.  1.
         22    1    1    0    0    0 -0.13348536696E+02  0.18855977418E+02 -0.16934506654E+02  0.28644525339E+02  0.00000000000E+00 0. -1.
</event>
<event>
 5    1  0.1325686E-009  0.9118800E+02  0.7818608E-02  0.1130116E+00
         25   -1    0    0    0    0  0.00000000000E+00  0.00000000000E+00  0.99999998245E-14  0.12500000000E+03  0.12500000000E+03 0.  0.
        -13    1    3    3    0    0 -0.16786503178E+02  0.19348741680E+02  0.49428641247E+02  0.55671916017E+02  0.10566000000E+00 0.  1.
         23    2    1    0    0    0 -0.15562094062E+02 -0.10229773095E+02  0.23419447048E+02  0.95078477157E+02  0.90247544506E+02 0.  0.
         13    1    3    3    0    0  0.12244091151E+01 -0.29578514775E+02 -0.26009194199E+02  0.39406561140E+02  0.10566000000E+00 0. -1.
         22    1    1    0    0    0  0.15562094062E+02  0.10229773095E+02 -0.23419447048E+02  0.29921522843E+02  0.00000000000E+00 0.  1.
</event>
<event>
 5    1  0.1325686E-009  0.9118800E+02  0.7818608E-02  0.1130116E+00
         25   -1    0    0    0    0  0.00000000000E+00  0.00000000000E+00  0.99999998245E-14  0.12500000000E+03  0.12500000000E+03 0.  0.
        -13    1    3    3    0    0  0.31643994565E+01 -0.59022988322E+02  0.32538746534E+01  0.59197343172E+02  0.10566000000E+00 0. -1.
         23    2    1    0    0    0  0.11547630986E+02 -0.33557281954E+02 -0.85577211400E+01  0.88494198480E+02  0.80613582106E+02 0.  0.
         13    1    3    3    0    0  0.83832315298E+01  0.25465706368E+02 -0.11811595793E+02  0.29296855307E+02  0.10566000000E+00 0.  1.
         22    1    1    0    0    0 -0.11547630986E+02  0.33557281954E+02  0.85577211400E+01  0.36505801520E+02  0.00000000000E+00 0. -1.
</event>
<event>
 5    1  0.1325686E-009  0.9118800E+02  0.7818608E-02  0.1130116E+00
         25   -1    0    0    0    0  0.00000000000E+00  0.00000000000E+00  0.99999998245E-14  0.12500000000E+03  0.12500000000E+03 0.  0.
        -13    1    3    3    0    0 -0.13868417665E+00  0.18125406420E+02  0.47473131693E+02  0.50815932422E+02  0.10566000000E+00 0.  1.
         23    2    1    0    0    0  0.18517584767E+02  0.21289056593E+02  0.63576838081E+01  0.96076911997E+02  0.91620019642E+02 0.  0.
         13    1    3    3    0    0  0.18656268943E+02  0.31636501735E+01 -0.41115447884E+02  0.45260979575E+02  0.10566000000E+00 0. -1.
         22    1    1    0    0    0 -0.18517584767E+02 -0.21289056593E+02 -0.63576838081E+01  0.28923088003E+02  0.00000000000E+00 0.  1.
</event>
<event>
 5    1  0.1325686E-009  0.9118800E+02  0.7818608E-02  0.1130116E+00
         25   -1    0    0    0    0  0.00000000000E+00  0.00000000000E+00  0.99999998245E-14  0.12500000000E+03  0.12500000000E+03 0.  0.
        -13    1    3    3    0    0  0.30999874317E+02 -0.48750701481E+02 -0.15697600504E+02  0.59866926830E+02  0.10566000000E+00 0. -1.
         23    2    1    0    0    0  0.49980811289E+01 -0.30548040254E+02 -0.35888546170E+01  0.93838429824E+02  0.88513317959E+02 0.  0.
         13    1    3    3    0    0 -0.26001793188E+02  0.18202661226E+02  0.12108745887E+02  0.33971502994E+02  0.10566000000E+00 0.  1.
         22    1    1    0    0    0 -0.49980811289E+01  0.30548040254E+02  0.35888546170E+01  0.31161570176E+02  0.00000000000E+00 0. -1.
</event>
<event>
 5    1  0.1325686E-009  0.9118800E+02  0.7818608E-02  0.1130116E+00
         25   -1    0    0    0    0  0.00000000000E+00  0.00000000000E+00  0.99999998245E-14  0.12500000000E+03  0.12500000000E+03 0.  0.
        -13    1    3    3    0    0  0.12739680128E+02 -0.13031828490E+02 -0.53143363798E+02  0.56181458537E+02  0.10566000000E+00 0.  1.
         23    2    1    0    0    0  0.22088580575E+02 -0.12511970530E+02 -0.14879152201E+02  0.95574773262E+02  0.90932355712E+02 0.  0.
         13    1    3    3    0    0  0.93489004469E+01  0.51985796000E+00  0.38264211596E+02  0.39393314725E+02  0.10566000000E+00 0. -1.
         22    1    1    0    0    0 -0.22088580575E+02  0.12511970530E+02  0.14879152201E+02  0.29425226738E+02  0.00000000000E+00 0.  1.
</event>
<event>
 5    1  0.1325686E-009  0.9118800E+02  0.7818608E-02  0.1130116E+00
         25   -1    0    0    0    0  0.00000000000E+00  0.00000000000E+00  0.99999998245E-14  0.12500000000E+03  0.12500000000E+03 0.  0.
        -13    1    3    3    0    0  0.43529943939E+02  0.13310294565E+02 -0.30261067685E+02  0.54660436718E+02  0.10566000000E+00 0. -1.
         23    2    1    0    0    0  0.17397621229E+02  0.13164816796E+02  0.86483235252E+01  0.10153123085E+03  0.98781616266E+02 0.  0.
         13    1    3    3    0    0 -0.26132322710E+02 -0.14547776928E+00  0.38909391210E+02  0.46870794130E+02  0.10566000000E+00 0.  1.
         22    1    1    0    0    0 -0.17397621229E+02 -0.13164816796E+02 -0.86483235252E+01  0.23468769152E+02  0.00000000000E+00 0.  1.
</event>
<event>
 5    1  0.1325686E-009  0.9118800E+02  0.7818608E-02  0.1130116E+00
         25   -1    0    0    0    0  0.00000000000E+00  0.00000000000E+00  0.99999998245E-14  0.12500000000E+03  0.12500000000E+03 0.  0.
        -13    1    3    3    0    0  0.18681941973E+02 -0.24627638226E+02  0.25055619902E+02  0.39791089119E+02  0.10566000000E+00 0.  1.
         23    2    1    0    0    0  0.51859340700E+01 -0.10701927990E+02 -0.27083865760E+02  0.95420260999E+02  0.90719707063E+02 0.  0.
         13    1    3    3    0    0 -0.13496007903E+02  0.13925710236E+02 -0.52139485662E+02  0.55629171880E+02  0.10566000000E+00 0. -1.
         22    1    1    0    0    0 -0.51859340700E+01  0.10701927990E+02  0.27083865760E+02  0.29579739001E+02  0.00000000000E+00 0. -1.
</event>
<event>
 5    1  0.1325686E-009  0.9118800E+02  0.7818608E-02  0.1130116E+00
         25   -1    0    0    0    0  0.00000000000E+00  0.00000000000E+00  0.99999998245E-14  0.12500000000E+03  0.12500000000E+03 0.  0.
        -13    1    3    3    0    0  0.27185360556E+02 -0.20252898535E+02  0.16289623176E+00  0.33900758500E+02  0.10566000000E+00 0. -1.
         23    2    1    0    0    0 -0.28035346191E+02  0.73015169261E+01  0.41040562690E+01  0.95740197141E+02  0.91159471726E+02 0.  0.
         13    1    3    3    0    0 -0.55220706747E+02  0.27554415461E+02  0.39411600372E+01  0.61839438642E+02  0.10566000000E+00 0.  1.
         22    1    1    0    0    0  0.28035346191E+02 -0.73015169261E+01 -0.41040562690E+01  0.29259802859E+02  0.00000000000E+00 0.  1.
</event>
<event>
 5    1  0.1325686E-009  0.9118800E+02  0.7818608E-02  0.1130116E+00
         25   -1    0    0    0    0  0.00000000000E+00  0.00000000000E+00  0.99999998245E-14  0.12500000000E+03  0.12500000000E+03 0.  0.
        -13    1    3    3    0    0 -0.41861696357E+02 -0.29622496093E+02 -0.33938325177E+02  0.61495650061E+02  0.10566000000E+00 0. -1.
         23    2    1    0    0    0 -0.22814106898E+02 -0.11952533265E+02 -0.84458565456E+01  0.97895037026E+02  0.94067843903E+02 0.  0.
         13    1    3    3    0    0  0.19047589459E+02  0.17669962827E+02  0.25492468631E+02  0.36399386965E+02  0.10566000000E+00 0.  1.
         22    1    1    0    0    0  0.22814106898E+02  0.11952533265E+02  0.84458565456E+01  0.27104962974E+02  0.00000000000E+00 0. -1.
</event>
<event>
 5    1  0.1325686E-009  0.9118800E+02  0.7818608E-02  0.1130116E+00
         25   -1    0    0    0    0  0.00000000000E+00  0.00000000000E+00  0.99999998245E-14  0.12500000000E+03  0.12500000000E+03 0.  0.
        -13    1    3    3    0    0  0.13627929322E+02 -0.37663751395E+02  0.16110947418E+02  0.43172357099E+02  0.10566000000E+00 0. -1.
         23    2    1    0    0    0 -0.26198114468E+02 -0.51922097896E+01  0.14558999940E+02  0.94581835633E+02  0.89557014847E+02 0.  0.
         13    1    3    3    0    0 -0.39826043790E+02  0.32471541605E+02 -0.15519474777E+01  0.51409478534E+02  0.10566000000E+00 0.  1.
         22    1    1    0    0    0  0.26198114468E+02  0.51922097896E+01 -0.14558999940E+02  0.30418164367E+02  0.00000000000E+00 0. -1.
</event>
<event>
 5    1  0.1325686E-009  0.9118800E+02  0.7818608E-02  0.1130116E+00
         25   -1    0    0    0    0  0.00000000000E+00  0.00000000000E+00  0.99999998245E-14  0.12500000000E+03  0.12500000000E+03 0.  0.
        -13    1    3    3    0    0  0.35063478786E+02 -0.31708575048E+02 -0.32996515700E+02  0.57651214111E+02  0.10566000000E+00 0. -1.
         23    2    1    0    0    0  0.13538066201E+02 -0.23657059273E+02 -0.14608581362E+00  0.97742761861E+02  0.93865278272E+02 0.  0.
         13    1    3    3    0    0 -0.21525412585E+02  0.80515157746E+01  0.32850429886E+02  0.40091547749E+02  0.10566000000E+00 0.  1.
         22    1    1    0    0    0 -0.13538066201E+02  0.23657059273E+02  0.14608581362E+00  0.27257238139E+02  0.00000000000E+00 0. -1.
</event>
<event>
 5    1  0.1325686E-009  0.9118800E+02  0.7818608E-02  0.1130116E+00
         25   -1    0    0    0    0  0.00000000000E+00  0.00000000000E+00  0.99999998245E-14  0.12500000000E+03  0.12500000000E+03 0.  0.
        -13    1    3    3    0    0  0.30774717542E+02  0.24415034454E+02  0.43303669791E+02  0.58467051649E+02  0.10566000000E+00 0.  1.
         23    2    1    0    0    0  0.17335773802E+02 -0.40260596090E+01  0.23045734082E+02  0.95882237918E+02  0.91354033735E+02 0.  0.
         13    1    3    3    0    0 -0.13438943740E+02 -0.28441094063E+02 -0.20257935709E+02  0.37415186269E+02  0.10566000000E+00 0. -1.
         22    1    1    0    0    0 -0.17335773802E+02  0.40260596090E+01 -0.23045734082E+02  0.29117762082E+02  0.00000000000E+00 0.  1.
</event>
<event>
 5    1  0.1325686E-009  0.9118800E+02  0.7818608E-02  0.1130116E+00
         25   -1    0    0    0    0  0.00000000000E+00  0.00000000000E+00  0.99999998245E-14  0.12500000000E+03  0.12500000000E+03 0.  0.
        -13    1    3    3    0    0  0.19767135486E+02  0.15035915750E+02  0.26865025973E+02  0.36586325209E+02  0.10566000000E+00 0.  1.
         23    2    1    0    0    0 -0.36723890196E+01  0.13293137249E+02 -0.26626413681E+02  0.95014005860E+02  0.90158202428E+02 0.  0.
         13    1    3    3    0    0 -0.23439524506E+02 -0.17427785010E+01 -0.53491439654E+02  0.58427680651E+02  0.10566000000E+00 0. -1.
         22    1    1    0    0    0  0.36723890196E+01 -0.13293137249E+02  0.26626413681E+02  0.29985994140E+02  0.00000000000E+00 0. -1.
</event>
<event>
 5    1  0.1325686E-009  0.9118800E+02  0.7818608E-02  0.1130116E+00
         25   -1    0    0    0    0  0.00000000000E+00  0.00000000000E+00  0.99999998245E-14  0.12500000000E+03  0.12500000000E+03 0.  0.
        -13    1    3    3    0    0 -0.94163078237E+01 -0.55641883555E+02  0.14165026623E+02  0.58183719388E+02  0.10566000000E+00 0.  1.
         23    2    1    0    0    0 -0.18551919572E+02 -0.34989629896E+02 -0.99612057843E+00  0.85383839456E+02  0.75637027070E+02 0.  0.
         13    1    3    3    0    0 -0.91356117483E+01  0.20652253659E+02 -0.15161147202E+02  0.27200120068E+02  0.10566000000E+00 0. -1.
         22    1    1    0    0    0  0.18551919572E+02  0.34989629896E+02  0.99612057843E+00  0.39616160544E+02  0.00000000000E+00 0.  1.
</event>
<event>
 5    1  0.1325686E-009  0.9118800E+02  0.7818608E-02  0.1130116E+00
         25   -1    0    0    0    0  0.00000000000E+00  0.00000000000E+00  0.99999998245E-14  0.12500000000E+03  0.12500000000E+03 0.  0.
        -13    1    3    3    0    0  0.27937376974E+02 -0.45677935843E+02 -0.88685773117E+01  0.54273692363E+02  0.10566000000E+00 0.  1.
         23    2    1    0    0    0  0.19300231869E+01 -0.22367395150E+02  0.16243111026E+02  0.97289640726E+02  0.93259906614E+02 0.  0.
         13    1    3    3    0    0 -0.26007353787E+02  0.23310540694E+02  0.25111688337E+02  0.43015948364E+02  0.10566000000E+00 0. -1.
         22    1    1    0    0    0 -0.19300231869E+01  0.22367395150E+02 -0.16243111026E+02  0.27710359274E+02  0.00000000000E+00 0.  1.
</event>
<event>
 5    1  0.1325686E-009  0.9118800E+02  0.7818608E-02  0.1130116E+00
         25   -1    0    0    0    0  0.00000000000E+00  0.00000000000E+00  0.99999998245E-14  0.12500000000E+03  0.12500000000E+03 0.  0.
        -13    1    3    3    0    0  0.19805451967E+02  0.18542867347E+02  0.27573985011E+02  0.38683713246E+02  0.10566000000E+00 0. -1.
         23    2    1    0    0    0 -0.15991522557E+02  0.29934144586E+02 -0.76831837177E+01  0.90203259954E+02  0.83221481533E+02 0.  0.
         13    1    3    3    0    0 -0.35796974525E+02  0.11391277239E+02 -0.35257168728E+02  0.51519546708E+02  0.10566000000E+00 0.  1.
         22    1    1    0    0    0  0.15991522557E+02 -0.29934144586E+02  0.76831837177E+01  0.34796740046E+02  0.00000000000E+00 0.  1.
</event>
<event>
 5    1  0.1325686E-009  0.9118800E+02  0.7818608E-02  0.1130116E+00
         25   -1    0    0    0    0  0.00000000000E+00  0.00000000000E+00  0.99999998245E-14  0.12500000000E+03  0.12500000000E+03 0.  0.
        -13    1    3    3    0    0  0.34435777397E+01 -0.42210013291E+02 -0.48569839953E+01  0.42627982679E+02  0.10566000000E+00 0.  1.
         23    2    1    0    0    0 -0.19404010900E+02  0.34005292047E-01  0.20361571490E+02  0.96873315359E+02  0.92700209491E+02 0.  0.
         13    1    3    3    0    0 -0.22847588640E+02  0.42244018583E+02  0.25218555486E+02  0.54245332680E+02  0.10566000000E+00 0. -1.
         22    1    1    0    0    0  0.19404010900E+02 -0.34005292047E-01 -0.20361571490E+02  0.28126684641E+02  0.00000000000E+00 0. -1.
</event>
<event>
 5    1  0.1325686E-009  0.9118800E+02  0.7818608E-02  0.1130116E+00
         25   -1    0    0    0    0  0.00000000000E+00  0.00000000000E+00  0.99999998245E-14  0.12500000000E+03  0.12500000000E+03 0.  0.
        -13    1    3    3    0    0 -0.36106742167E+02  0.12797118500E+01  0.15292089206E+01  0.36161915551E+02  0.10566000000E+00 0. -1.
         23    2    1    0    0    0  0.14075475135E+02 -0.27557529923E+02  0.87625833519E+00  0.94043509818E+02  0.88802463110E+02 0.  0.
         13    1    3    3    0    0  0.50182217302E+02 -0.28837241773E+02 -0.65295058543E+00  0.57881594267E+02  0.10566000000E+00 0.  1.
         22    1    1    0    0    0 -0.14075475135E+02  0.27557529923E+02 -0.87625833519E+00  0.30956490182E+02  0.00000000000E+00 0.  1.
</event>
<event>
 5    1  0.1325686E-009  0.9118800E+02  0.7818608E-02  0.1130116E+00
         25   -1    0    0    0    0  0.00000000000E+00  0.00000000000E+00  0.99999998245E-14  0.12500000000E+03  0.12500000000E+03 0.  0.
        -13    1    3    3    0    0  0.10655804715E+02  0.34443399104E+02 -0.45671209663E+02  0.58187322263E+02  0.10566000000E+00 0.  1.
         23    2    1    0    0    0 -0.49716886132E+01  0.25844381373E+02 -0.12469510169E+02  0.95877183857E+02  0.91347117986E+02 0.  0.
         13    1    3    3    0    0 -0.15627493328E+02 -0.85990177310E+01  0.33201699494E+02  0.37689861594E+02  0.10566000000E+00 0. -1.
         22    1    1    0    0    0  0.49716886132E+01 -0.25844381373E+02  0.12469510169E+02  0.29122816143E+02  0.00000000000E+00 0.  1.
</event>
<event>
 5    1  0.1325686E-009  0.9118800E+02  0.7818608E-02  0.1130116E+00
         25   -1    0    0    0    0  0.00000000000E+00  0.00000000000E+00  0.99999998245E-14  0.12500000000E+03  0.12500000000E+03 0.  0.
        -13    1    3    3    0    0 -0.16733893252E+02  0.50543403590E+02 -0.29614749487E+02  0.60923750549E+02  0.10566000000E+00 0.  1.
         23    2    1    0    0    0 -0.54749232678E+01  0.28880391478E+02 -0.26290578126E+02  0.85563388902E+02  0.75933176053E+02 0.  0.
         13    1    3    3    0    0  0.11258969984E+02 -0.21663012112E+02  0.33241713608E+01  0.24639638353E+02  0.10566000000E+00 0. -1.
         22    1    1    0    0    0  0.54749232678E+01 -0.28880391478E+02  0.26290578126E+02  0.39436611098E+02  0.00000000000E+00 0.  1.
</event>
<event>
 5    1  0.1325686E-009  0.9118800E+02  0.7818608E-02  0.1130116E+00
         25   -1    0    0    0    0  0.00000000000E+00  0.00000000000E+00  0.99999998245E-14  0.12500000000E+03  0.12500000000E+03 0.  0.
        -13    1    3    3    0    0  0.28978160747E+02 -0.61121469318E+00  0.49669650135E+02  0.57508196740E+02  0.10566000000E+00 0.  1.
         23    2    1    0    0    0  0.17745856047E+02 -0.17764983928E+02  0.25333999007E+02  0.89330383146E+02  0.81899913227E+02 0.  0.
         13    1    3    3    0    0 -0.11232304700E+02 -0.17153769235E+02 -0.24335651128E+02  0.31822186407E+02  0.10566000000E+00 0. -1.
         22    1    1    0    0    0 -0.17745856047E+02  0.17764983928E+02 -0.25333999007E+02  0.35669616854E+02  0.00000000000E+00 0.  1.
</event>
<event>
 5    1  0.1325686E-009  0.9118800E+02  0.7818608E-02  0.1130116E+00
         25   -1    0    0    0    0  0.00000000000E+00  0.00000000000E+00  0.99999998245E-14  0.12500000000E+03  0.12500000000E+03 0.  0.
        -13    1    3    3    0    0  0.21338999102E+02 -0.33253650632E+01 -0.26728350584E+02  0.34363160862E+02  0.10566000000E+00 0. -1.
         23    2    1    0    0    0 -0.85859282064E+01 -0.16551420885E+02  0.23926960018E+02  0.94665743586E+02  0.89674053642E+02 0.  0.
         13    1    3    3    0    0 -0.29924927308E+02 -0.13226055822E+02  0.50655310602E+02  0.60302582724E+02  0.10566000000E+00 0.  1.
         22    1    1    0    0    0  0.85859282064E+01  0.16551420885E+02 -0.23926960018E+02  0.30334256414E+02  0.00000000000E+00 0.  1.
</event>
<event>
 5    1  0.1325686E-009  0.9118800E+02  0.7818608E-02  0.1130116E+00
         25   -1    0    0    0    0  0.00000000000E+00  0.00000000000E+00  0.99999998245E-14  0.12500000000E+03  0.12500000000E+03 0.  0.
        -13    1    3    3    0    0  0.17815628900E+02 -0.38282627230E+02  0.38125405110E+02  0.56890367019E+02  0.10566000000E+00 0.  1.
         23    2    1    0    0    0 -0.49761193230E+01 -0.87262987453E+01  0.27538670984E+02  0.95686377691E+02  0.91085643340E+02 0.  0.
         13    1    3    3    0    0 -0.22791748223E+02  0.29556328484E+02 -0.10586734126E+02  0.38796010672E+02  0.10566000000E+00 0. -1.
         22    1    1    0    0    0  0.49761193230E+01  0.87262987453E+01 -0.27538670984E+02  0.29313622309E+02  0.00000000000E+00 0.  1.
</event>
<event>
 5    1  0.1325686E-009  0.9118800E+02  0.7818608E-02  0.1130116E+00
         25   -1    0    0    0    0  0.00000000000E+00  0.00000000000E+00  0.99999998245E-14  0.12500000000E+03  0.12500000000E+03 0.  0.
        -13    1    3    3    0    0 -0.23152407200E+02 -0.35361595564E+02 -0.98691274314E+01  0.43403769886E+02  0.10566000000E+00 0.  1.
         23    2    1    0    0    0 -0.12235692943E+02  0.14871737026E+02 -0.21527852776E+02  0.96115242963E+02  0.91672300837E+02 0.  0.
         13    1    3    3    0    0  0.10916714257E+02  0.50233332590E+02 -0.11658725344E+02  0.52711473077E+02  0.10566000000E+00 0. -1.
         22    1    1    0    0    0  0.12235692943E+02 -0.14871737026E+02  0.21527852776E+02  0.28884757037E+02  0.00000000000E+00 0. -1.
</event>
<event>
 5    1  0.1325686E-009  0.9118800E+02  0.7818608E-02  0.1130116E+00
         25   -1    0    0    0    0  0.00000000000E+00  0.00000000000E+00  0.99999998245E-14  0.12500000000E+03  0.12500000000E+03 0.  0.
        -13    1    3    3    0    0  0.41809654387E+02 -0.21782942077E+02  0.87913675272E+01  0.47956679123E+02  0.10566000000E+00 0.  1.
         23    2    1    0    0    0 -0.37801913745E+01 -0.21521330679E+02  0.20512143512E+02  0.95029922381E+02  0.90180267217E+02 0.  0.
         13    1    3    3    0    0 -0.45589845762E+02  0.26161139803E+00  0.11720775985E+02  0.47073243258E+02  0.10566000000E+00 0. -1.
         22    1    1    0    0    0  0.37801913745E+01  0.21521330679E+02 -0.20512143512E+02  0.29970077619E+02  0.00000000000E+00 0. -1.
</event>
<event>
 5    1  0.1325686E-009  0.9118800E+02  0.7818608E-02  0.1130116E+00
         25   -1    0    0    0    0  0.00000000000E+00  0.00000000000E+00  0.99999998245E-14  0.12500000000E+03  0.12500000000E+03 0.  0.
        -13    1    3    3    0    0  0.35411553045E+02  0.25888651462E+01 -0.45003756618E+02  0.57323900648E+02  0.10566000000E+00 0.  1.
         23    2    1    0    0    0  0.10686069867E+01 -0.46144048615E+01 -0.28513346483E+02  0.96095924495E+02  0.91645955305E+02 0.  0.
         13    1    3    3    0    0 -0.34342946058E+02 -0.72032700077E+01  0.16490410135E+02  0.38772023847E+02  0.10566000000E+00 0. -1.
         22    1    1    0    0    0 -0.10686069867E+01  0.46144048615E+01  0.28513346483E+02  0.28904075505E+02  0.00000000000E+00 0.  1.
</event>
<event>
 5    1  0.1325686E-009  0.9118800E+02  0.7818608E-02  0.1130116E+00
         25   -1    0    0    0    0  0.00000000000E+00  0.00000000000E+00  0.99999998245E-14  0.12500000000E+03  0.12500000000E+03 0.  0.
        -13    1    3    3    0    0 -0.14396740546E+02  0.47181051673E+02  0.58596924451E+01  0.49675596976E+02  0.10566000000E+00 0. -1.
         23    2    1    0    0    0 -0.54772226579E+01  0.86835161510E+01  0.28143085368E+02  0.95042752550E+02  0.90198049521E+02 0.  0.
         13    1    3    3    0    0  0.89195178883E+01 -0.38497535522E+02  0.22283392923E+02  0.45367155573E+02  0.10566000000E+00 0.  1.
         22    1    1    0    0    0  0.54772226579E+01 -0.86835161510E+01 -0.28143085368E+02  0.29957247450E+02  0.00000000000E+00 0. -1.
</event>
<event>
 5    1  0.1325686E-009  0.9118800E+02  0.7818608E-02  0.1130116E+00
         25   -1    0    0    0    0  0.00000000000E+00  0.00000000000E+00  0.99999998245E-14  0.12500000000E+03  0.12500000000E+03 0.  0.
        -13    1    3    3    0    0 -0.29878638001E+02  0.46340402997E+01 -0.26909557149E+02  0.40476447081E+02  0.10566000000E+00 0.  1.
         23    2    1    0    0    0 -0.52060147488E+01  0.21387654349E+02  0.19467023841E+02  0.95614640289E+02  0.90987142346E+02 0.  0.
         13    1    3    3    0    0  0.24672623252E+02  0.16753614050E+02  0.46376580990E+02  0.55138193208E+02  0.10566000000E+00 0. -1.
         22    1    1    0    0    0  0.52060147488E+01 -0.21387654349E+02 -0.19467023841E+02  0.29385359711E+02  0.00000000000E+00 0. -1.
</event>
<event>
 5    1  0.1325686E-009  0.9118800E+02  0.7818608E-02  0.1130116E+00
         25   -1    0    0    0    0  0.00000000000E+00  0.00000000000E+00  0.99999998245E-14  0.12500000000E+03  0.12500000000E+03 0.  0.
        -13    1    3    3    0    0  0.28731602898E+02 -0.19993664005E+02 -0.20518626556E+01  0.35063840489E+02  0.10566000000E+00 0. -1.
         23    2    1    0    0    0 -0.25911557142E+02  0.16298829777E+01  0.13337633916E+02  0.95811684007E+02  0.91257443542E+02 0.  0.
         13    1    3    3    0    0 -0.54643160040E+02  0.21623546983E+02  0.15389496572E+02  0.60747843518E+02  0.10566000000E+00 0.  1.
         22    1    1    0    0    0  0.25911557142E+02 -0.16298829777E+01 -0.13337633916E+02  0.29188315993E+02  0.00000000000E+00 0.  1.
</event>
<event>
 5    1  0.1325686E-009  0.9118800E+02  0.7818608E-02  0.1130116E+00
         25   -1    0    0    0    0  0.00000000000E+00  0.00000000000E+00  0.99999998245E-14  0.12500000000E+03  0.12500000000E+03 0.  0.
        -13    1    3    3    0    0  0.97159790363E+01 -0.36342925155E+02  0.15572040281E+02  0.40714961132E+02  0.10566000000E+00 0. -1.
         23    2    1    0    0    0 -0.15056023754E+01  0.10046330180E+02 -0.21547576141E+02  0.10117787528E+03  0.98333457277E+02 0.  0.
         13    1    3    3    0    0 -0.11221581412E+02  0.46389255335E+02 -0.37119616422E+02  0.60462914148E+02  0.10566000000E+00 0.  1.
         22    1    1    0    0    0  0.15056023754E+01 -0.10046330180E+02  0.21547576141E+02  0.23822124720E+02  0.00000000000E+00 0.  1.
</event>
<event>
 5    1  0.1325686E-009  0.9118800E+02  0.7818608E-02  0.1130116E+00
         25   -1    0    0    0    0  0.00000000000E+00  0.00000000000E+00  0.99999998245E-14  0.12500000000E+03  0.12500000000E+03 0.  0.
        -13    1    3    3    0    0 -0.24090892722E+01  0.13572105630E+02 -0.35389874154E+02  0.37979733003E+02  0.10566000000E+00 0. -1.
         23    2    1    0    0    0  0.12328291091E+01 -0.30713376615E+02 -0.86703317953E+00  0.94249664762E+02  0.89092178055E+02 0.  0.
         13    1    3    3    0    0  0.36419183813E+01 -0.44285482245E+02  0.34522840974E+02  0.56269931759E+02  0.10566000000E+00 0.  1.
         22    1    1    0    0    0 -0.12328291091E+01  0.30713376615E+02  0.86703317953E+00  0.30750335238E+02  0.00000000000E+00 0.  1.
</event>
<event>
 5    1  0.1325686E-009  0.9118800E+02  0.7818608E-02  0.1130116E+00
         25   -1    0    0    0    0  0.00000000000E+00  0.00000000000E+00  0.99999998245E-14  0.12500000000E+03  0.12500000000E+03 0.  0.
        -13    1    3    3    0    0 -0.83978052297E+01 -0.41257739432E+02  0.21078929066E-01  0.42103869230E+02  0.10566000000E+00 0. -1.
         23    2    1    0    0    0  0.17964602268E+02  0.22263275191E+01  0.21142155885E+02  0.97167029905E+02  0.93095421349E+02 0.  0.
         13    1    3    3    0    0  0.26362407498E+02  0.43484066951E+02  0.21121076956E+02  0.55063160675E+02  0.10566000000E+00 0.  1.
         22    1    1    0    0    0 -0.17964602268E+02 -0.22263275191E+01 -0.21142155885E+02  0.27832970095E+02  0.00000000000E+00 0.  1.
</event>
<event>
 5    1  0.1325686E-009  0.9118800E+02  0.7818608E-02  0.1130116E+00
         25   -1    0    0    0    0  0.00000000000E+00  0.00000000000E+00  0.99999998245E-14  0.12500000000E+03  0.12500000000E+03 0.  0.
        -13    1    3    3    0    0 -0.36478822659E+02  0.29766900167E+02  0.15407384625E+02  0.49539595408E+02  0.10566000000E+00 0. -1.
         23    2    1    0    0    0 -0.23458952173E+01  0.24669108755E+02 -0.15419119765E+02  0.95814088922E+02  0.91260737617E+02 0.  0.
         13    1    3    3    0    0  0.34132927442E+02 -0.50977914125E+01 -0.30826504390E+02  0.46274493514E+02  0.10566000000E+00 0.  1.
         22    1    1    0    0    0  0.23458952173E+01 -0.24669108755E+02  0.15419119765E+02  0.29185911078E+02  0.00000000000E+00 0.  1.
</event>
<event>
 5    1  0.1325686E-009  0.9118800E+02  0.7818608E-02  0.1130116E+00
         25   -1    0    0    0    0  0.00000000000E+00  0.00000000000E+00  0.99999998245E-14  0.12500000000E+03  0.12500000000E+03 0.  0.
        -13    1    3    3    0    0  0.23998470468E+02  0.93929925224E+01 -0.49814101786E+02  0.56085745017E+02  0.10566000000E+00 0. -1.
         23    2    1    0    0    0  0.22695430278E+02 -0.10407753197E+02 -0.15837962918E+02  0.95432366488E+02  0.90736385326E+02 0.  0.
         13    1    3    3    0    0 -0.13030401908E+01 -0.19800745720E+02  0.33976138867E+02  0.39346621471E+02  0.10566000000E+00 0.  1.
         22    1    1    0    0    0 -0.22695430278E+02  0.10407753197E+02  0.15837962918E+02  0.29567633512E+02  0.00000000000E+00 0. -1.
</event>
<event>
 5    1  0.1325686E-009  0.9118800E+02  0.7818608E-02  0.1130116E+00
         25   -1    0    0    0    0  0.00000000000E+00  0.00000000000E+00  0.99999998245E-14  0.12500000000E+03  0.12500000000E+03 0.  0.
        -13    1    3    3    0    0  0.19723757355E+02  0.35909898589E+02 -0.30855999599E+02  0.51289875182E+02  0.10566000000E+00 0.  1.
         23    2    1    0    0    0  0.28548158638E+02  0.53731895653E+01  0.50971069553E+00  0.95946113294E+02  0.91441392834E+02 0.  0.
         13    1    3    3    0    0  0.88244012828E+01 -0.30536709024E+02  0.31365710294E+02  0.44656238112E+02  0.10566000000E+00 0. -1.
         22    1    1    0    0    0 -0.28548158638E+02 -0.53731895653E+01 -0.50971069553E+00  0.29053886706E+02  0.00000000000E+00 0. -1.
</event>
<event>
 5    1  0.1325686E-009  0.9118800E+02  0.7818608E-02  0.1130116E+00
         25   -1    0    0    0    0  0.00000000000E+00  0.00000000000E+00  0.99999998245E-14  0.12500000000E+03  0.12500000000E+03 0.  0.
        -13    1    3    3    0    0 -0.21340903606E+02  0.12114209538E+02  0.56789203964E+02  0.61864473572E+02  0.10566000000E+00 0. -1.
         23    2    1    0    0    0 -0.11686410901E+02 -0.12468482190E+00  0.29109358854E+02  0.93632141945E+02  0.88221513738E+02 0.  0.
         13    1    3    3    0    0  0.96544927055E+01 -0.12238894360E+02 -0.27679845109E+02  0.31767668373E+02  0.10566000000E+00 0.  1.
         22    1    1    0    0    0  0.11686410901E+02  0.12468482190E+00 -0.29109358854E+02  0.31367858055E+02  0.00000000000E+00 0. -1.
</event>
<event>
 5    1  0.1325686E-009  0.9118800E+02  0.7818608E-02  0.1130116E+00
         25   -1    0    0    0    0  0.00000000000E+00  0.00000000000E+00  0.99999998245E-14  0.12500000000E+03  0.12500000000E+03 0.  0.
        -13    1    3    3    0    0 -0.32034842207E+02 -0.42649170093E+02 -0.32570987520E+02  0.62498505717E+02  0.10566000000E+00 0.  1.
         23    2    1    0    0    0 -0.14998484309E+02 -0.20343708983E+02 -0.15199441569E+02  0.95506881298E+02  0.90838980205E+02 0.  0.
         13    1    3    3    0    0  0.17036357898E+02  0.22305461110E+02  0.17371545951E+02  0.33008375581E+02  0.10566000000E+00 0. -1.
         22    1    1    0    0    0  0.14998484309E+02  0.20343708983E+02  0.15199441569E+02  0.29493118702E+02  0.00000000000E+00 0.  1.
</event>
<event>
 5    1  0.1325686E-009  0.9118800E+02  0.7818608E-02  0.1130116E+00
         25   -1    0    0    0    0  0.00000000000E+00  0.00000000000E+00  0.99999998245E-14  0.12500000000E+03  0.12500000000E+03 0.  0.
        -13    1    3    3    0    0  0.14145710831E+02  0.57962755505E+01 -0.34229416574E+02  0.37488159040E+02  0.10566000000E+00 0.  1.
         23    2    1    0    0    0  0.18806279183E+02  0.46984314853E+01  0.23001868254E+02  0.94919485737E+02  0.90027059456E+02 0.  0.
         13    1    3    3    0    0  0.46605683526E+01 -0.10978440652E+01  0.57231284829E+02  0.57431326697E+02  0.10566000000E+00 0. -1.
         22    1    1    0    0    0 -0.18806279183E+02 -0.46984314853E+01 -0.23001868254E+02  0.30080514263E+02  0.00000000000E+00 0. -1.
</event>
<event>
 5    1  0.1325686E-009  0.9118800E+02  0.7818608E-02  0.1130116E+00
         25   -1    0    0    0    0  0.00000000000E+00  0.00000000000E+00  0.99999998245E-14  0.12500000000E+03  0.12500000000E+03 0.  0.
        -13    1    3    3    0    0  0.39254880346E+02 -0.12367091116E+02 -0.21345656485E+01  0.41212353829E+02  0.10566000000E+00 0. -1.
         23    2    1    0    0    0 -0.10857309181E+02  0.20672718769E+02 -0.42143990702E+01  0.10127230261E+03  0.98453418693E+02 0.  0.
         13    1    3    3    0    0 -0.50112189527E+02  0.33039809884E+02 -0.20798334217E+01  0.60059948780E+02  0.10566000000E+00 0.  1.
         22    1    1    0    0    0  0.10857309181E+02 -0.20672718769E+02  0.42143990702E+01  0.23727697391E+02  0.00000000000E+00 0.  1.
</event>
<event>
 5    1  0.1325686E-009  0.9118800E+02  0.7818608E-02  0.1130116E+00
         25   -1    0    0    0    0  0.00000000000E+00  0.00000000000E+00  0.99999998245E-14  0.12500000000E+03  0.12500000000E+03 0.  0.
        -13    1    3    3    0    0 -0.51213605954E+02 -0.37708535179E+01  0.19844926023E+01  0.51390681509E+02  0.10566000000E+00 0.  1.
         23    2    1    0    0    0 -0.13514213171E+02 -0.19435326150E+02 -0.16439055141E+02  0.96179722518E+02  0.91760179978E+02 0.  0.
         13    1    3    3    0    0  0.37699392783E+02 -0.15664472632E+02 -0.18423547744E+02  0.44789041009E+02  0.10566000000E+00 0. -1.
         22    1    1    0    0    0  0.13514213171E+02  0.19435326150E+02  0.16439055141E+02  0.28820277482E+02  0.00000000000E+00 0.  1.
</event>
<event>
 5    1  0.1325686E-009  0.9118800E+02  0.7818608E-02  0.1130116E+00
         25   -1    0    0    0    0  0.00000000000E+00  0.00000000000E+00  0.99999998245E-14  0.12500000000E+03  0.12500000000E+03 0.  0.
        -13    1    3    3    0    0 -0.31126819243E+02  0.14589197137E+02  0.51144135258E+02  0.61623512433E+02  0.10566000000E+00 0. -1.
         23    2    1    0    0    0 -0.19223004166E+02  0.10281762250E+02  0.19328448726E+02  0.95865356458E+02  0.91330931861E+02 0.  0.
         13    1    3    3    0    0  0.11903815077E+02 -0.43074348873E+01 -0.31815686532E+02  0.34241844025E+02  0.10566000000E+00 0.  1.
         22    1    1    0    0    0  0.19223004166E+02 -0.10281762250E+02 -0.19328448726E+02  0.29134643542E+02  0.00000000000E+00 0. -1.
</event>
<event>
 5    1  0.1325686E-009  0.9118800E+02  0.7818608E-02  0.1130116E+00
         25   -1    0    0    0    0  0.00000000000E+00  0.00000000000E+00  0.99999998245E-14  0.12500000000E+03  0.12500000000E+03 0.  0.
        -13    1    3    3    0    0 -0.39025354935E+00 -0.43411896290E+02 -0.38594782491E+01  0.43584994823E+02  0.10566000000E+00 0.  1.
         23    2    1    0    0    0  0.26544118066E+02 -0.20033220478E+01 -0.15308830433E+02  0.94292284482E+02  0.89151955225E+02 0.  0.
         13    1    3    3    0    0  0.26934371615E+02  0.41408574242E+02 -0.11449352184E+02  0.50707289659E+02  0.10566000000E+00 0. -1.
         22    1    1    0    0    0 -0.26544118066E+02  0.20033220478E+01  0.15308830433E+02  0.30707715518E+02  0.00000000000E+00 0.  1.
</event>
<event>
 5    1  0.1325686E-009  0.9118800E+02  0.7818608E-02  0.1130116E+00
         25   -1    0    0    0    0  0.00000000000E+00  0.00000000000E+00  0.99999998245E-14  0.12500000000E+03  0.12500000000E+03 0.  0.
        -13    1    3    3    0    0 -0.29567198864E+02  0.36240315367E+02  0.38751412167E+01  0.46931946370E+02  0.10566000000E+00 0.  1.
         23    2    1    0    0    0  0.82435748469E+01  0.18946849628E+02 -0.21127179740E+02  0.95448394953E+02  0.90758463728E+02 0.  0.
         13    1    3    3    0    0  0.37810773711E+02 -0.17293465739E+02 -0.25002320957E+02  0.48516448583E+02  0.10566000000E+00 0. -1.
         22    1    1    0    0    0 -0.82435748469E+01 -0.18946849628E+02  0.21127179740E+02  0.29551605047E+02  0.00000000000E+00 0. -1.
</event>
<event>
 5    1  0.1325686E-009  0.9118800E+02  0.7818608E-02  0.1130116E+00
         25   -1    0    0    0    0  0.00000000000E+00  0.00000000000E+00  0.99999998245E-14  0.12500000000E+03  0.12500000000E+03 0.  0.
        -13    1    3    3    0    0 -0.27206489204E+02  0.19128795610E+02 -0.28776525404E+02  0.43979579973E+02  0.10566000000E+00 0.  1.
         23    2    1    0    0    0  0.15690651500E+02  0.16293123099E+02  0.84551171278E+01  0.10085147188E+03  0.97917659130E+02 0.  0.
         13    1    3    3    0    0  0.42897140704E+02 -0.28356725111E+01  0.37231642531E+02  0.56871891904E+02  0.10566000000E+00 0. -1.
         22    1    1    0    0    0 -0.15690651500E+02 -0.16293123099E+02 -0.84551171278E+01  0.24148528122E+02  0.00000000000E+00 0. -1.
</event>
<event>
 5    1  0.1325686E-009  0.9118800E+02  0.7818608E-02  0.1130116E+00
         25   -1    0    0    0    0  0.00000000000E+00  0.00000000000E+00  0.99999998245E-14  0.12500000000E+03  0.12500000000E+03 0.  0.
        -13    1    3    3    0    0 -0.49497828711E+02 -0.16249839621E+02  0.29278183770E+02  0.59760484801E+02  0.10566000000E+00 0.  1.
         23    2    1    0    0    0 -0.26494798483E+02  0.96943161946E+00  0.36988260845E+01  0.98230699323E+02  0.94512828922E+02 0.  0.
         13    1    3    3    0    0  0.23003030228E+02  0.17219271241E+02 -0.25579357686E+02  0.38470214522E+02  0.10566000000E+00 0. -1.
         22    1    1    0    0    0  0.26494798483E+02 -0.96943161946E+00 -0.36988260845E+01  0.26769300677E+02  0.00000000000E+00 0.  1.
</event>
<event>
 5    1  0.1325686E-009  0.9118800E+02  0.7818608E-02  0.1130116E+00
         25   -1    0    0    0    0  0.00000000000E+00  0.00000000000E+00  0.99999998245E-14  0.12500000000E+03  0.12500000000E+03 0.  0.
        -13    1    3    3    0    0  0.25911900060E+02  0.36864345921E+02 -0.20781845655E+02  0.49621596485E+02  0.10566000000E+00 0. -1.
         23    2    1    0    0    0  0.25430102995E+02 -0.84425667538E+01 -0.11338599942E+02  0.95904795577E+02  0.91384894235E+02 0.  0.
         13    1    3    3    0    0 -0.48179706452E+00 -0.45306912675E+02  0.94432457124E+01  0.46283199092E+02  0.10566000000E+00 0.  1.
         22    1    1    0    0    0 -0.25430102995E+02  0.84425667538E+01  0.11338599942E+02  0.29095204423E+02  0.00000000000E+00 0. -1.
</event>
<event>
 5    1  0.1325686E-009  0.9118800E+02  0.7818608E-02  0.1130116E+00
         25   -1    0    0    0    0  0.00000000000E+00  0.00000000000E+00  0.99999998245E-14  0.12500000000E+03  0.12500000000E+03 0.  0.
        -13    1    3    3    0    0  0.46196648123E+02 -0.24133424072E+02  0.38262997230E+01  0.52260924111E+02  0.10566000000E+00 0.  1.
         23    2    1    0    0    0  0.11034694502E+02 -0.28143971124E+02 -0.13767017526E+02  0.91782860374E+02  0.85561177490E+02 0.  0.
         13    1    3    3    0    0 -0.35161953621E+02 -0.40105470517E+01 -0.17593317249E+02  0.39521936263E+02  0.10566000000E+00 0. -1.
         22    1    1    0    0    0 -0.11034694502E+02  0.28143971124E+02  0.13767017526E+02  0.33217139626E+02  0.00000000000E+00 0.  1.
</event>
<event>
 5    1  0.1325686E-009  0.9118800E+02  0.7818608E-02  0.1130116E+00
         25   -1    0    0    0    0  0.00000000000E+00  0.00000000000E+00  0.99999998245E-14  0.12500000000E+03  0.12500000000E+03 0.  0.
        -13    1    3    3    0    0  0.31966124135E+02  0.24925551164E+02 -0.84686847882E+00  0.40544352792E+02  0.10566000000E+00 0. -1.
         23    2    1    0    0    0  0.10202230412E+02 -0.23287072979E+02  0.14640063442E+02  0.95662230301E+02  0.91052499006E+02 0.  0.
         13    1    3    3    0    0 -0.21763893723E+02 -0.48212624143E+02  0.15486931921E+02  0.55117877509E+02  0.10566000000E+00 0.  1.
         22    1    1    0    0    0 -0.10202230412E+02  0.23287072979E+02 -0.14640063442E+02  0.29337769699E+02  0.00000000000E+00 0.  1.
</event>
<event>
 5    1  0.1325686E-009  0.9118800E+02  0.7818608E-02  0.1130116E+00
         25   -1    0    0    0    0  0.00000000000E+00  0.00000000000E+00  0.99999998245E-14  0.12500000000E+03  0.12500000000E+03 0.  0.
        -13    1    3    3    0    0  0.62878225511E+01 -0.32632667175E+02  0.41561095210E+02  0.53214316481E+02  0.10566000000E+00 0.  1.
         23    2    1    0    0    0 -0.14155271184E+02  0.45193065638E+00  0.26563262328E+02  0.94897128890E+02  0.89996012258E+02 0.  0.
         13    1    3    3    0    0 -0.20443093735E+02  0.33084597831E+02 -0.14997832883E+02  0.41682812409E+02  0.10566000000E+00 0. -1.
         22    1    1    0    0    0  0.14155271184E+02 -0.45193065638E+00 -0.26563262328E+02  0.30102871110E+02  0.00000000000E+00 0.  1.
</event>
<event>
 5    1  0.1325686E-009  0.9118800E+02  0.7818608E-02  0.1130116E+00
         25   -1    0    0    0    0  0.00000000000E+00  0.00000000000E+00  0.99999998245E-14  0.12500000000E+03  0.12500000000E+03 0.  0.
        -13    1    3    3    0    0  0.38066206641E+02  0.22616479015E+00 -0.37948973994E+02  0.53751493279E+02  0.10566000000E+00 0. -1.
         23    2    1    0    0    0  0.40114987462E+01  0.19520844952E+02 -0.19841726395E+02  0.96877951423E+02  0.92706460701E+02 0.  0.
         13    1    3    3    0    0 -0.34054707894E+02  0.19294680162E+02  0.18107247600E+02  0.43126458144E+02  0.10566000000E+00 0.  1.
         22    1    1    0    0    0 -0.40114987462E+01 -0.19520844952E+02  0.19841726395E+02  0.28122048577E+02  0.00000000000E+00 0. -1.
</event>
<event>
 5    1  0.1325686E-009  0.9118800E+02  0.7818608E-02  0.1130116E+00
         25   -1    0    0    0    0  0.00000000000E+00  0.00000000000E+00  0.99999998245E-14  0.12500000000E+03  0.12500000000E+03 0.  0.
        -13    1    3    3    0    0  0.26319541763E+02 -0.91060640707E+01  0.28632070178E+02  0.39943025527E+02  0.10566000000E+00 0.  1.
         23    2    1    0    0    0  0.81282621997E+01  0.25319093007E+02 -0.11651158951E+02  0.95967696923E+02  0.91470892806E+02 0.  0.
         13    1    3    3    0    0 -0.18191279564E+02  0.34425157077E+02 -0.40283229129E+02  0.56024671396E+02  0.10566000000E+00 0. -1.
         22    1    1    0    0    0 -0.81282621997E+01 -0.25319093007E+02  0.11651158951E+02  0.29032303077E+02  0.00000000000E+00 0.  1.
</event>
<event>
 5    1  0.1325686E-009  0.9118800E+02  0.7818608E-02  0.1130116E+00
         25   -1    0    0    0    0  0.00000000000E+00  0.00000000000E+00  0.99999998245E-14  0.12500000000E+03  0.12500000000E+03 0.  0.
        -13    1    3    3    0    0 -0.57254819106E+01 -0.59095950334E+02 -0.68626499164E+01  0.59768048461E+02  0.10566000000E+00 0.  1.
         23    2    1    0    0    0  0.80886242941E+01 -0.27945518989E+02  0.42238600835E+01  0.95602400293E+02  0.90970325234E+02 0.  0.
         13    1    3    3    0    0  0.13814106205E+02  0.31150431345E+02  0.11086510000E+02  0.35834351832E+02  0.10566000000E+00 0. -1.
         22    1    1    0    0    0 -0.80886242941E+01  0.27945518989E+02 -0.42238600835E+01  0.29397599707E+02  0.00000000000E+00 0.  1.
</event>
<event>
 5    1  0.1325686E-009  0.9118800E+02  0.7818608E-02  0.1130116E+00
         25   -1    0    0    0    0  0.00000000000E+00  0.00000000000E+00  0.99999998245E-14  0.12500000000E+03  0.12500000000E+03 0.  0.
        -13    1    3    3    0    0 -0.24523479071E+02  0.80871269087E+00  0.36471479884E+02  0.43957195667E+02  0.10566000000E+00 0. -1.
         23    2    1    0    0    0 -0.10651078599E+02  0.22401145755E+02 -0.10956145412E+02  0.97883696256E+02  0.94052772761E+02 0.  0.
         13    1    3    3    0    0  0.13872400472E+02  0.21592433064E+02 -0.47427625296E+02  0.53926500589E+02  0.10566000000E+00 0.  1.
         22    1    1    0    0    0  0.10651078599E+02 -0.22401145755E+02  0.10956145412E+02  0.27116303744E+02  0.00000000000E+00 0.  1.
</event>
<event>
 5    1  0.1325686E-009  0.9118800E+02  0.7818608E-02  0.1130116E+00
         25   -1    0    0    0    0  0.00000000000E+00  0.00000000000E+00  0.99999998245E-14  0.12500000000E+03  0.12500000000E+03 0.  0.
        -13    1    3    3    0    0 -0.34063852315E+01  0.48385416487E+02  0.23049088008E+02  0.53703106158E+02  0.10566000000E+00 0. -1.
         23    2    1    0    0    0  0.18513487973E+02  0.14651785802E+02  0.20016248085E+02  0.94047225464E+02  0.88807693169E+02 0.  0.
         13    1    3    3    0    0  0.21919873205E+02 -0.33733630685E+02 -0.30328399236E+01  0.40344119306E+02  0.10566000000E+00 0.  1.
         22    1    1    0    0    0 -0.18513487973E+02 -0.14651785802E+02 -0.20016248085E+02  0.30952774536E+02  0.00000000000E+00 0.  1.
</event>
<event>
 5    1  0.1325686E-009  0.9118800E+02  0.7818608E-02  0.1130116E+00
         25   -1    0    0    0    0  0.00000000000E+00  0.00000000000E+00  0.99999998245E-14  0.12500000000E+03  0.12500000000E+03 0.  0.
        -13    1    3    3    0    0 -0.44227364956E+02  0.26581137864E+02  0.64482229543E+01  0.52001994620E+02  0.10566000000E+00 0. -1.
         23    2    1    0    0    0 -0.19435851566E+02 -0.91598082117E+01 -0.13255139040E+02  0.99754146409E+02  0.96506666103E+02 0.  0.
         13    1    3    3    0    0  0.24791513391E+02 -0.35740946076E+02 -0.19703361994E+02  0.47752151789E+02  0.10566000000E+00 0.  1.
         22    1    1    0    0    0  0.19435851566E+02  0.91598082117E+01  0.13255139040E+02  0.25245853591E+02  0.00000000000E+00 0. -1.
</event>
<event>
 5    1  0.1325686E-009  0.9118800E+02  0.7818608E-02  0.1130116E+00
         25   -1    0    0    0    0  0.00000000000E+00  0.00000000000E+00  0.99999998245E-14  0.12500000000E+03  0.12500000000E+03 0.  0.
        -13    1    3    3    0    0 -0.18126879498E+02 -0.29611627874E+02 -0.29617570902E+02  0.45635993863E+02  0.10566000000E+00 0.  1.
         23    2    1    0    0    0  0.13131845897E+02  0.74843355513E+01  0.87946170334E+01  0.10751269191E+03  0.10608097369E+03 0.  0.
         13    1    3    3    0    0  0.31258725395E+02  0.37095963425E+02  0.38412187935E+02  0.61876698052E+02  0.10566000000E+00 0. -1.
         22    1    1    0    0    0 -0.13131845897E+02 -0.74843355513E+01 -0.87946170334E+01  0.17487308085E+02  0.00000000000E+00 0. -1.
</event>
<event>
 5    1  0.1325686E-009  0.9118800E+02  0.7818608E-02  0.1130116E+00
         25   -1    0    0    0    0  0.00000000000E+00  0.00000000000E+00  0.99999998245E-14  0.12500000000E+03  0.12500000000E+03 0.  0.
        -13    1    3    3    0    0 -0.20300704874E+02 -0.98684736410E+00 -0.27522827028E+02  0.34214173346E+02  0.10566000000E+00 0. -1.
         23    2    1    0    0    0  0.21746415855E+02 -0.32234084908E+01  0.18264230954E+02  0.96418903150E+02  0.92085426575E+02 0.  0.
         13    1    3    3    0    0  0.42047120729E+02 -0.22365611267E+01  0.45787057982E+02  0.62204729804E+02  0.10566000000E+00 0.  1.
         22    1    1    0    0    0 -0.21746415855E+02  0.32234084908E+01 -0.18264230954E+02  0.28581096850E+02  0.00000000000E+00 0.  1.
</event>
<event>
 5    1  0.1325686E-009  0.9118800E+02  0.7818608E-02  0.1130116E+00
         25   -1    0    0    0    0  0.00000000000E+00  0.00000000000E+00  0.99999998245E-14  0.12500000000E+03  0.12500000000E+03 0.  0.
        -13    1    3    3    0    0  0.29170557010E+02  0.46057544915E+01 -0.31060516226E+02  0.42859085419E+02  0.10566000000E+00 0. -1.
         23    2    1    0    0    0  0.13072064245E+02 -0.23669903190E+02  0.10804690993E+02  0.95881543171E+02  0.91353083105E+02 0.  0.
         13    1    3    3    0    0 -0.16098492765E+02 -0.28275657681E+02  0.41865207218E+02  0.53022457752E+02  0.10566000000E+00 0.  1.
         22    1    1    0    0    0 -0.13072064245E+02  0.23669903190E+02 -0.10804690993E+02  0.29118456829E+02  0.00000000000E+00 0.  1.
</event>
<event>
 5    1  0.1325686E-009  0.9118800E+02  0.7818608E-02  0.1130116E+00
         25   -1    0    0    0    0  0.00000000000E+00  0.00000000000E+00  0.99999998245E-14  0.12500000000E+03  0.12500000000E+03 0.  0.
        -13    1    3    3    0    0 -0.12533859686E+02 -0.27369449892E+02  0.29407011118E+02  0.42082869352E+02  0.10566000000E+00 0.  1.
         23    2    1    0    0    0  0.15022120780E+02 -0.18768333368E+02 -0.16166554797E+02  0.96029809387E+02  0.91555733555E+02 0.  0.
         13    1    3    3    0    0  0.27555980466E+02  0.86011165241E+01 -0.45573565915E+02  0.53946940035E+02  0.10566000000E+00 0. -1.
         22    1    1    0    0    0 -0.15022120780E+02  0.18768333368E+02  0.16166554797E+02  0.28970190613E+02  0.00000000000E+00 0. -1.
</event>
<event>
 5    1  0.1325686E-009  0.9118800E+02  0.7818608E-02  0.1130116E+00
         25   -1    0    0    0    0  0.00000000000E+00  0.00000000000E+00  0.99999998245E-14  0.12500000000E+03  0.12500000000E+03 0.  0.
        -13    1    3    3    0    0  0.16581600117E+02  0.16640348591E+02  0.52789104143E+02  0.57780198545E+02  0.10566000000E+00 0.  1.
         23    2    1    0    0    0  0.22945449379E+02  0.31885390416E+01  0.17855661707E+02  0.95751323391E+02  0.91174727023E+02 0.  0.
         13    1    3    3    0    0  0.63638492618E+01 -0.13451809550E+02 -0.34933442436E+02  0.37971124846E+02  0.10566000000E+00 0. -1.
         22    1    1    0    0    0 -0.22945449379E+02 -0.31885390416E+01 -0.17855661707E+02  0.29248676609E+02  0.00000000000E+00 0.  1.
</event>
<event>
 5    1  0.1325686E-009  0.9118800E+02  0.7818608E-02  0.1130116E+00
         25   -1    0    0    0    0  0.00000000000E+00  0.00000000000E+00  0.99999998245E-14  0.12500000000E+03  0.12500000000E+03 0.  0.
        -13    1    3    3    0    0 -0.31685610316E+02  0.23932916565E+02 -0.32325732874E+02  0.51202798422E+02  0.10566000000E+00 0. -1.
         23    2    1    0    0    0 -0.24234633135E+02 -0.13011014114E+02 -0.69766873741E+01  0.96622577669E+02  0.92361487738E+02 0.  0.
         13    1    3    3    0    0  0.74509771809E+01 -0.36943930679E+02  0.25349045500E+02  0.45419779246E+02  0.10566000000E+00 0.  1.
         22    1    1    0    0    0  0.24234633135E+02  0.13011014114E+02  0.69766873741E+01  0.28377422331E+02  0.00000000000E+00 0. -1.
</event>
<event>
 5    1  0.1325686E-009  0.9118800E+02  0.7818608E-02  0.1130116E+00
         25   -1    0    0    0    0  0.00000000000E+00  0.00000000000E+00  0.99999998245E-14  0.12500000000E+03  0.12500000000E+03 0.  0.
        -13    1    3    3    0    0  0.33346160464E+02 -0.49297433772E+02 -0.31569652506E+01  0.59600176072E+02  0.10566000000E+00 0. -1.
         23    2    1    0    0    0  0.17419394497E+02 -0.18332815574E+02 -0.14031253244E+02  0.96079358598E+02  0.91623357555E+02 0.  0.
         13    1    3    3    0    0 -0.15926765968E+02  0.30964618199E+02 -0.10874287993E+02  0.36479182526E+02  0.10566000000E+00 0.  1.
         22    1    1    0    0    0 -0.17419394497E+02  0.18332815574E+02  0.14031253244E+02  0.28920641402E+02  0.00000000000E+00 0. -1.
</event>
<event>
 5    1  0.1325686E-009  0.9118800E+02  0.7818608E-02  0.1130116E+00
         25   -1    0    0    0    0  0.00000000000E+00  0.00000000000E+00  0.99999998245E-14  0.12500000000E+03  0.12500000000E+03 0.  0.
        -13    1    3    3    0    0  0.37349922790E+02  0.32933729361E+02  0.83993408911E+01  0.50499577755E+02  0.10566000000E+00 0. -1.
         23    2    1    0    0    0  0.26919079522E+02 -0.10823176738E+02  0.22776738456E+01  0.95897323230E+02  0.91374672680E+02 0.  0.
         13    1    3    3    0    0 -0.10430843267E+02 -0.43756906100E+02 -0.61216670455E+01  0.45397745474E+02  0.10566000000E+00 0.  1.
         22    1    1    0    0    0 -0.26919079522E+02  0.10823176738E+02 -0.22776738456E+01  0.29102676770E+02  0.00000000000E+00 0.  1.
</event>
<event>
 5    1  0.1325686E-009  0.9118800E+02  0.7818608E-02  0.1130116E+00
         25   -1    0    0    0    0  0.00000000000E+00  0.00000000000E+00  0.99999998245E-14  0.12500000000E+03  0.12500000000E+03 0.  0.
        -13    1    3    3    0    0 -0.40451295458E+02  0.13231493301E+02 -0.35344274857E+00  0.42561905561E+02  0.10566000000E+00 0.  1.
         23    2    1    0    0    0  0.48694179245E+01 -0.60203903044E+01  0.25621964384E+02  0.98233577205E+02  0.94516635050E+02 0.  0.
         13    1    3    3    0    0  0.45320713382E+02 -0.19251883605E+02  0.25975407133E+02  0.55671671644E+02  0.10566000000E+00 0. -1.
         22    1    1    0    0    0 -0.48694179245E+01  0.60203903044E+01 -0.25621964384E+02  0.26766422795E+02  0.00000000000E+00 0. -1.
</event>
<event>
 5    1  0.1325686E-009  0.9118800E+02  0.7818608E-02  0.1130116E+00
         25   -1    0    0    0    0  0.00000000000E+00  0.00000000000E+00  0.99999998245E-14  0.12500000000E+03  0.12500000000E+03 0.  0.
        -13    1    3    3    0    0 -0.13251479241E+02 -0.37779683923E+02  0.48832928464E+01  0.40333161697E+02  0.10566000000E+00 0. -1.
         23    2    1    0    0    0  0.24194102807E+02 -0.40919515248E+00 -0.14633783266E+02  0.96721568926E+02  0.92495363298E+02 0.  0.
         13    1    3    3    0    0  0.37445582048E+02  0.37370488770E+02 -0.19517076113E+02  0.56388407230E+02  0.10566000000E+00 0.  1.
         22    1    1    0    0    0 -0.24194102807E+02  0.40919515248E+00  0.14633783266E+02  0.28278431074E+02  0.00000000000E+00 0.  1.
</event>
<event>
 5    1  0.1325686E-009  0.9118800E+02  0.7818608E-02  0.1130116E+00
         25   -1    0    0    0    0  0.00000000000E+00  0.00000000000E+00  0.99999998245E-14  0.12500000000E+03  0.12500000000E+03 0.  0.
        -13    1    3    3    0    0 -0.11795837419E+02 -0.41993037928E+02 -0.10799687402E+02  0.44935525221E+02  0.10566000000E+00 0. -1.
         23    2    1    0    0    0  0.22668588622E+02 -0.58298598062E+01 -0.18086578074E+02  0.95419998616E+02  0.90719345533E+02 0.  0.
         13    1    3    3    0    0  0.34464426041E+02  0.36163178122E+02 -0.72868906714E+01  0.50484473395E+02  0.10566000000E+00 0.  1.
         22    1    1    0    0    0 -0.22668588622E+02  0.58298598062E+01  0.18086578074E+02  0.29580001384E+02  0.00000000000E+00 0. -1.
</event>
<event>
 5    1  0.1325686E-009  0.9118800E+02  0.7818608E-02  0.1130116E+00
         25   -1    0    0    0    0  0.00000000000E+00  0.00000000000E+00  0.99999998245E-14  0.12500000000E+03  0.12500000000E+03 0.  0.
        -13    1    3    3    0    0 -0.19554241031E+01  0.17818996639E+02 -0.59329336611E+02  0.61978396812E+02  0.10566000000E+00 0. -1.
         23    2    1    0    0    0  0.12421033634E+01  0.13207601412E+02 -0.25646058175E+02  0.96126069617E+02  0.91687062360E+02 0.  0.
         13    1    3    3    0    0  0.31975274665E+01 -0.46113952270E+01  0.33683278435E+02  0.34147672806E+02  0.10566000000E+00 0.  1.
         22    1    1    0    0    0 -0.12421033634E+01 -0.13207601412E+02  0.25646058175E+02  0.28873930383E+02  0.00000000000E+00 0. -1.
</event>
<event>
 5    1  0.1325686E-009  0.9118800E+02  0.7818608E-02  0.1130116E+00
         25   -1    0    0    0    0  0.00000000000E+00  0.00000000000E+00  0.99999998245E-14  0.12500000000E+03  0.12500000000E+03 0.  0.
        -13    1    3    3    0    0 -0.40113613639E+02  0.28411798289E+00  0.13322520984E+01  0.40136875587E+02  0.10566000000E+00 0. -1.
         23    2    1    0    0    0  0.11400334385E+02  0.21671095888E+02  0.13228175923E+02  0.97168567063E+02  0.93097485281E+02 0.  0.
         13    1    3    3    0    0  0.51513948024E+02  0.21386977905E+02  0.11895923825E+02  0.57031691476E+02  0.10566000000E+00 0.  1.
         22    1    1    0    0    0 -0.11400334385E+02 -0.21671095888E+02 -0.13228175923E+02  0.27831432937E+02  0.00000000000E+00 0.  1.
</event>
<event>
 5    1  0.1325686E-009  0.9118800E+02  0.7818608E-02  0.1130116E+00
         25   -1    0    0    0    0  0.00000000000E+00  0.00000000000E+00  0.99999998245E-14  0.12500000000E+03  0.12500000000E+03 0.  0.
        -13    1    3    3    0    0  0.28200340442E+02 -0.28945834742E+02  0.28321643982E+02  0.49348224201E+02  0.10566000000E+00 0. -1.
         23    2    1    0    0    0  0.18362075290E+02  0.14387687848E+02  0.19373565319E+02  0.94676636009E+02  0.89689235710E+02 0.  0.
         13    1    3    3    0    0 -0.98382651519E+01  0.43333522590E+02 -0.89480786632E+01  0.45328411808E+02  0.10566000000E+00 0.  1.
         22    1    1    0    0    0 -0.18362075290E+02 -0.14387687848E+02 -0.19373565319E+02  0.30323363991E+02  0.00000000000E+00 0. -1.
</event>
<event>
 5    1  0.1325686E-009  0.9118800E+02  0.7818608E-02  0.1130116E+00
         25   -1    0    0    0    0  0.00000000000E+00  0.00000000000E+00  0.99999998245E-14  0.12500000000E+03  0.12500000000E+03 0.  0.
        -13    1    3    3    0    0  0.16298741252E+02  0.35091000195E+02 -0.18332918144E+02  0.42815117807E+02  0.10566000000E+00 0. -1.
         23    2    1    0    0    0  0.24940805830E+02 -0.46798274288E+01  0.15087403440E+02  0.95477562384E+02  0.90798626620E+02 0.  0.
         13    1    3    3    0    0  0.86420645772E+01 -0.39770827624E+02  0.33420321584E+02  0.52662444578E+02  0.10566000000E+00 0.  1.
         22    1    1    0    0    0 -0.24940805830E+02  0.46798274288E+01 -0.15087403440E+02  0.29522437616E+02  0.00000000000E+00 0.  1.
</event>
<event>
 5    1  0.1325686E-009  0.9118800E+02  0.7818608E-02  0.1130116E+00
         25   -1    0    0    0    0  0.00000000000E+00  0.00000000000E+00  0.99999998245E-14  0.12500000000E+03  0.12500000000E+03 0.  0.
        -13    1    3    3    0    0 -0.30252685266E+02 -0.51038370233E+02 -0.10212176434E+02  0.60203321448E+02  0.10566000000E+00 0.  1.
         23    2    1    0    0    0 -0.19982432877E+02 -0.18067818614E+02 -0.13452572098E+02  0.94888284851E+02  0.89983727489E+02 0.  0.
         13    1    3    3    0    0  0.10270252389E+02  0.32970551619E+02 -0.32403956637E+01  0.34684963403E+02  0.10566000000E+00 0. -1.
         22    1    1    0    0    0  0.19982432877E+02  0.18067818614E+02  0.13452572098E+02  0.30111715149E+02  0.00000000000E+00 0.  1.
</event>
<event>
 5    1  0.1325686E-009  0.9118800E+02  0.7818608E-02  0.1130116E+00
         25   -1    0    0    0    0  0.00000000000E+00  0.00000000000E+00  0.99999998245E-14  0.12500000000E+03  0.12500000000E+03 0.  0.
        -13    1    3    3    0    0 -0.15311967001E+02  0.31533115857E+02 -0.60071046856E+01  0.35565294879E+02  0.10566000000E+00 0.  1.
         23    2    1    0    0    0 -0.96256680901E+01 -0.27891839417E+02 -0.89336259973E+00  0.95480408388E+02  0.90802544551E+02 0.  0.
         13    1    3    3    0    0  0.56862989109E+01 -0.59424955274E+02  0.51137420859E+01  0.59915113509E+02  0.10566000000E+00 0. -1.
         22    1    1    0    0    0  0.96256680901E+01  0.27891839417E+02  0.89336259973E+00  0.29519591612E+02  0.00000000000E+00 0. -1.
</event>
<event>
 5    1  0.1325686E-009  0.9118800E+02  0.7818608E-02  0.1130116E+00
         25   -1    0    0    0    0  0.00000000000E+00  0.00000000000E+00  0.99999998245E-14  0.12500000000E+03  0.12500000000E+03 0.  0.
        -13    1    3    3    0    0 -0.80821559599E+00 -0.34518440088E+02  0.20568650499E+01  0.34589272563E+02  0.10566000000E+00 0.  1.
         23    2    1    0    0    0  0.16963308459E+02  0.22031935637E+02  0.12036908412E+02  0.94700706512E+02  0.89722776528E+02 0.  0.
         13    1    3    3    0    0  0.17771524055E+02  0.56550375725E+02  0.99800433622E+01  0.60111433949E+02  0.10566000000E+00 0. -1.
         22    1    1    0    0    0 -0.16963308459E+02 -0.22031935637E+02 -0.12036908412E+02  0.30299293488E+02  0.00000000000E+00 0. -1.
</event>
<event>
 5    1  0.1325686E-009  0.9118800E+02  0.7818608E-02  0.1130116E+00
         25   -1    0    0    0    0  0.00000000000E+00  0.00000000000E+00  0.99999998245E-14  0.12500000000E+03  0.12500000000E+03 0.  0.
        -13    1    3    3    0    0 -0.35277838139E+02  0.67160588028E+01 -0.13776792797E+02  0.38463521594E+02  0.10566000000E+00 0.  1.
         23    2    1    0    0    0  0.43044620976E+01 -0.25374222635E+02  0.13151618429E+02  0.96097670759E+02  0.91648337081E+02 0.  0.
         13    1    3    3    0    0  0.39582300236E+02 -0.32090281438E+02  0.26928411226E+02  0.57634149165E+02  0.10566000000E+00 0. -1.
         22    1    1    0    0    0 -0.43044620976E+01  0.25374222635E+02 -0.13151618429E+02  0.28902329241E+02  0.00000000000E+00 0. -1.
</event>
<event>
 5    1  0.1325686E-009  0.9118800E+02  0.7818608E-02  0.1130116E+00
         25   -1    0    0    0    0  0.00000000000E+00  0.00000000000E+00  0.99999998245E-14  0.12500000000E+03  0.12500000000E+03 0.  0.
        -13    1    3    3    0    0  0.44489655082E+02  0.18597598700E+02 -0.22523021433E+01  0.48273016435E+02  0.10566000000E+00 0. -1.
         23    2    1    0    0    0  0.55704712692E+01  0.83669753404E+01 -0.27460190273E+02  0.95757933104E+02  0.91183788449E+02 0.  0.
         13    1    3    3    0    0 -0.38919183813E+02 -0.10230623360E+02 -0.25207888130E+02  0.47484916669E+02  0.10566000000E+00 0.  1.
         22    1    1    0    0    0 -0.55704712692E+01 -0.83669753404E+01  0.27460190273E+02  0.29242066896E+02  0.00000000000E+00 0.  1.
</event>
<event>
 5    1  0.1325686E-009  0.9118800E+02  0.7818608E-02  0.1130116E+00
         25   -1    0    0    0    0  0.00000000000E+00  0.00000000000E+00  0.99999998245E-14  0.12500000000E+03  0.12500000000E+03 0.  0.
        -13    1    3    3    0    0  0.28375268389E+02 -0.14185461768E+02 -0.17156083992E+02  0.36065573109E+02  0.10566000000E+00 0. -1.
         23    2    1    0    0    0 -0.21834673168E+02 -0.54599962972E+01  0.16459835689E+02  0.97116479727E+02  0.93027522442E+02 0.  0.
         13    1    3    3    0    0 -0.50209941557E+02  0.87254654709E+01  0.33615919681E+02  0.61050906618E+02  0.10566000000E+00 0.  1.
         22    1    1    0    0    0  0.21834673168E+02  0.54599962972E+01 -0.16459835689E+02  0.27883520273E+02  0.00000000000E+00 0.  1.
</event>
<event>
 5    1  0.1325686E-009  0.9118800E+02  0.7818608E-02  0.1130116E+00
         25   -1    0    0    0    0  0.00000000000E+00  0.00000000000E+00  0.99999998245E-14  0.12500000000E+03  0.12500000000E+03 0.  0.
        -13    1    3    3    0    0 -0.20366936001E+02  0.25528432142E+02 -0.20148683129E+02  0.38373083347E+02  0.10566000000E+00 0.  1.
         23    2    1    0    0    0  0.23877921645E+01  0.27347067493E+02  0.24298565331E+02  0.88339613626E+02  0.80373524289E+02 0.  0.
         13    1    3    3    0    0  0.22754728165E+02  0.18186353515E+01  0.44447248461E+02  0.49966530279E+02  0.10566000000E+00 0. -1.
         22    1    1    0    0    0 -0.23877921645E+01 -0.27347067493E+02 -0.24298565331E+02  0.36660386374E+02  0.00000000000E+00 0. -1.
</event>
<event>
 5    1  0.1325686E-009  0.9118800E+02  0.7818608E-02  0.1130116E+00
         25   -1    0    0    0    0  0.00000000000E+00  0.00000000000E+00  0.99999998245E-14  0.12500000000E+03  0.12500000000E+03 0.  0.
        -13    1    3    3    0    0 -0.35103661610E+02 -0.19019146820E+02 -0.27836814259E+02  0.48671289240E+02  0.10566000000E+00 0.  1.
         23    2    1    0    0    0  0.75151418597E+00  0.15201866211E+00 -0.35030105984E+02  0.89961503907E+02  0.82857564390E+02 0.  0.
         13    1    3    3    0    0  0.35855175796E+02  0.19171165482E+02 -0.71932917254E+01  0.41290214666E+02  0.10566000000E+00 0. -1.
         22    1    1    0    0    0 -0.75151418597E+00 -0.15201866211E+00  0.35030105984E+02  0.35038496093E+02  0.00000000000E+00 0.  1.
</event>
<event>
 5    1  0.1325686E-009  0.9118800E+02  0.7818608E-02  0.1130116E+00
         25   -1    0    0    0    0  0.00000000000E+00  0.00000000000E+00  0.99999998245E-14  0.12500000000E+03  0.12500000000E+03 0.  0.
        -13    1    3    3    0    0  0.11812575850E+02  0.40169197556E+02 -0.73554820814E+01  0.42511359201E+02  0.10566000000E+00 0. -1.
         23    2    1    0    0    0 -0.18955213439E+02 -0.80476502322E+00 -0.22141395739E+02  0.95841996492E+02  0.91298954666E+02 0.  0.
         13    1    3    3    0    0 -0.30767789289E+02 -0.40973962579E+02 -0.14785913658E+02  0.53330637291E+02  0.10566000000E+00 0.  1.
         22    1    1    0    0    0  0.18955213439E+02  0.80476502322E+00  0.22141395739E+02  0.29158003508E+02  0.00000000000E+00 0. -1.
</event>
<event>
 5    1  0.1325686E-009  0.9118800E+02  0.7818608E-02  0.1130116E+00
         25   -1    0    0    0    0  0.00000000000E+00  0.00000000000E+00  0.99999998245E-14  0.12500000000E+03  0.12500000000E+03 0.  0.
        -13    1    3    3    0    0 -0.42590923273E+02 -0.41722624588E+02  0.13583832765E+02  0.61149781883E+02  0.10566000000E+00 0.  1.
         23    2    1    0    0    0 -0.21544863564E+02 -0.95328809516E+01  0.85483481401E+01  0.99937453817E+02  0.96743803183E+02 0.  0.
         13    1    3    3    0    0  0.21046059709E+02  0.32189743636E+02 -0.50354846247E+01  0.38787671934E+02  0.10566000000E+00 0. -1.
         22    1    1    0    0    0  0.21544863564E+02  0.95328809516E+01 -0.85483481401E+01  0.25062546183E+02  0.00000000000E+00 0.  1.
</event>
<event>
 5    1  0.1325686E-009  0.9118800E+02  0.7818608E-02  0.1130116E+00
         25   -1    0    0    0    0  0.00000000000E+00  0.00000000000E+00  0.99999998245E-14  0.12500000000E+03  0.12500000000E+03 0.  0.
        -13    1    3    3    0    0  0.27699451196E+02 -0.10995417409E+02 -0.16369443723E+02  0.34001891894E+02  0.10566000000E+00 0. -1.
         23    2    1    0    0    0 -0.15008938990E+02  0.42893543899E+01  0.25086795373E+02  0.95453187773E+02  0.90765064553E+02 0.  0.
         13    1    3    3    0    0 -0.42708390186E+02  0.15284771799E+02  0.41456239095E+02  0.61451295879E+02  0.10566000000E+00 0.  1.
         22    1    1    0    0    0  0.15008938990E+02 -0.42893543899E+01 -0.25086795373E+02  0.29546812227E+02  0.00000000000E+00 0.  1.
</event>
<event>
 5    1  0.1325686E-009  0.9118800E+02  0.7818608E-02  0.1130116E+00
         25   -1    0    0    0    0  0.00000000000E+00  0.00000000000E+00  0.99999998245E-14  0.12500000000E+03  0.12500000000E+03 0.  0.
        -13    1    3    3    0    0 -0.11991042330E+02 -0.38490857067E+01  0.43587260828E+02  0.45370265896E+02  0.10566000000E+00 0.  1.
         23    2    1    0    0    0  0.19913300209E+02  0.18899074783E+02  0.17560812035E+02  0.92410175327E+02  0.86472792437E+02 0.  0.
         13    1    3    3    0    0  0.31904342539E+02  0.22748160490E+02 -0.26026448793E+02  0.47039909431E+02  0.10566000000E+00 0. -1.
         22    1    1    0    0    0 -0.19913300209E+02 -0.18899074783E+02 -0.17560812035E+02  0.32589824673E+02  0.00000000000E+00 0.  1.
</event>
<event>
 5    1  0.1325686E-009  0.9118800E+02  0.7818608E-02  0.1130116E+00
         25   -1    0    0    0    0  0.00000000000E+00  0.00000000000E+00  0.99999998245E-14  0.12500000000E+03  0.12500000000E+03 0.  0.
        -13    1    3    3    0    0 -0.53656639318E+02  0.16799118367E+02  0.14297003845E+02  0.58014315507E+02  0.10566000000E+00 0.  1.
         23    2    1    0    0    0 -0.23236737400E+02 -0.72286982329E+01  0.14290295033E+02  0.96779217317E+02  0.92573237651E+02 0.  0.
         13    1    3    3    0    0  0.30419901918E+02 -0.24027816600E+02 -0.67088120392E-02  0.38764901810E+02  0.10566000000E+00 0. -1.
         22    1    1    0    0    0  0.23236737400E+02  0.72286982329E+01 -0.14290295033E+02  0.28220782683E+02  0.00000000000E+00 0.  1.
</event>
<event>
 5    1  0.1325686E-009  0.9118800E+02  0.7818608E-02  0.1130116E+00
         25   -1    0    0    0    0  0.00000000000E+00  0.00000000000E+00  0.99999998245E-14  0.12500000000E+03  0.12500000000E+03 0.  0.
        -13    1    3    3    0    0 -0.22902780456E+02 -0.16390145818E+02 -0.48620973294E+02  0.56188828433E+02  0.10566000000E+00 0. -1.
         23    2    1    0    0    0 -0.24975536996E+02  0.31546456941E+01 -0.13501956480E+02  0.96433725016E+02  0.92105544100E+02 0.  0.
         13    1    3    3    0    0 -0.20727565403E+01  0.19544791512E+02  0.35119016814E+02  0.40244896583E+02  0.10566000000E+00 0.  1.
         22    1    1    0    0    0  0.24975536996E+02 -0.31546456941E+01  0.13501956480E+02  0.28566274984E+02  0.00000000000E+00 0. -1.
</event>
<event>
 5    1  0.1325686E-009  0.9118800E+02  0.7818608E-02  0.1130116E+00
         25   -1    0    0    0    0  0.00000000000E+00  0.00000000000E+00  0.99999998245E-14  0.12500000000E+03  0.12500000000E+03 0.  0.
        -13    1    3    3    0    0  0.57210216875E+02 -0.80313394995E+01 -0.19376988668E+02  0.60934310391E+02  0.10566000000E+00 0.  1.
         23    2    1    0    0    0  0.21189042854E+02 -0.96133631900E+01 -0.29093770200E+00  0.10173034307E+03  0.99033255866E+02 0.  0.
         13    1    3    3    0    0 -0.36021174020E+02 -0.15820236905E+01  0.19086050966E+02  0.40796032678E+02  0.10566000000E+00 0. -1.
         22    1    1    0    0    0 -0.21189042854E+02  0.96133631900E+01  0.29093770200E+00  0.23269656930E+02  0.00000000000E+00 0.  1.
</event>
<event>
 5    1  0.1325686E-009  0.9118800E+02  0.7818608E-02  0.1130116E+00
         25   -1    0    0    0    0  0.00000000000E+00  0.00000000000E+00  0.99999998245E-14  0.12500000000E+03  0.12500000000E+03 0.  0.
        -13    1    3    3    0    0 -0.64227418568E+01  0.31975509370E+02  0.41530444179E+02  0.52806001271E+02  0.10566000000E+00 0.  1.
         23    2    1    0    0    0 -0.14018953382E+02 -0.52015018598E+01  0.28301580915E+02  0.92991155007E+02  0.87308583494E+02 0.  0.
         13    1    3    3    0    0 -0.75962115250E+01 -0.37177011230E+02 -0.13228863265E+02  0.40185153736E+02  0.10566000000E+00 0. -1.
         22    1    1    0    0    0  0.14018953382E+02  0.52015018598E+01 -0.28301580915E+02  0.32008844993E+02  0.00000000000E+00 0.  1.
</event>
<event>
 5    1  0.1325686E-009  0.9118800E+02  0.7818608E-02  0.1130116E+00
         25   -1    0    0    0    0  0.00000000000E+00  0.00000000000E+00  0.99999998245E-14  0.12500000000E+03  0.12500000000E+03 0.  0.
        -13    1    3    3    0    0 -0.30666668884E+02  0.14001521798E+02 -0.17664873036E+02  0.38059770053E+02  0.10566000000E+00 0. -1.
         23    2    1    0    0    0 -0.19685388938E+01 -0.24847459714E+02  0.14570549815E+02  0.96128347441E+02  0.91690167740E+02 0.  0.
         13    1    3    3    0    0  0.28698129990E+02 -0.38848981511E+02  0.32235422851E+02  0.58068577388E+02  0.10566000000E+00 0.  1.
         22    1    1    0    0    0  0.19685388938E+01  0.24847459714E+02 -0.14570549815E+02  0.28871652559E+02  0.00000000000E+00 0.  1.
</event>
<event>
 5    1  0.1325686E-009  0.9118800E+02  0.7818608E-02  0.1130116E+00
         25   -1    0    0    0    0  0.00000000000E+00  0.00000000000E+00  0.99999998245E-14  0.12500000000E+03  0.12500000000E+03 0.  0.
        -13    1    3    3    0    0  0.31761780473E+02 -0.10861310122E+02 -0.33334915723E+02  0.47307573672E+02  0.10566000000E+00 0.  1.
         23    2    1    0    0    0  0.12140345258E+02 -0.14605360925E+02  0.15766149752E+02  0.10031648265E+03  0.97232302568E+02 0.  0.
         13    1    3    3    0    0 -0.19621435216E+02 -0.37440508029E+01  0.49101065475E+02  0.53008908979E+02  0.10566000000E+00 0. -1.
         22    1    1    0    0    0 -0.12140345258E+02  0.14605360925E+02 -0.15766149752E+02  0.24683517349E+02  0.00000000000E+00 0.  1.
</event>
<event>
 5    1  0.1325686E-009  0.9118800E+02  0.7818608E-02  0.1130116E+00
         25   -1    0    0    0    0  0.00000000000E+00  0.00000000000E+00  0.99999998245E-14  0.12500000000E+03  0.12500000000E+03 0.  0.
        -13    1    3    3    0    0 -0.52816491247E+01  0.16104650865E+01  0.60430601824E+02  0.60682437460E+02  0.10566000000E+00 0. -1.
         23    2    1    0    0    0  0.67827512076E+01 -0.45944744373E+01  0.27714564339E+02  0.96099965644E+02  0.91651467042E+02 0.  0.
         13    1    3    3    0    0  0.12064400332E+02 -0.62049395238E+01 -0.32716037485E+02  0.35417528183E+02  0.10566000000E+00 0.  1.
         22    1    1    0    0    0 -0.67827512076E+01  0.45944744373E+01 -0.27714564339E+02  0.28900034356E+02  0.00000000000E+00 0. -1.
</event>
<event>
 5    1  0.1325686E-009  0.9118800E+02  0.7818608E-02  0.1130116E+00
         25   -1    0    0    0    0  0.00000000000E+00  0.00000000000E+00  0.99999998245E-14  0.12500000000E+03  0.12500000000E+03 0.  0.
        -13    1    3    3    0    0 -0.98682865356E+01 -0.23683932245E+01  0.60775136582E+02  0.61616724647E+02  0.10566000000E+00 0.  1.
         23    2    1    0    0    0  0.20550379171E+01  0.19779342353E+01  0.29407315928E+02  0.95454685062E+02  0.90767126568E+02 0.  0.
         13    1    3    3    0    0  0.11923324453E+02  0.43463274598E+01 -0.31367820654E+02  0.33837960415E+02  0.10566000000E+00 0. -1.
         22    1    1    0    0    0 -0.20550379171E+01 -0.19779342353E+01 -0.29407315928E+02  0.29545314938E+02  0.00000000000E+00 0.  1.
</event>
<event>
 5    1  0.1325686E-009  0.9118800E+02  0.7818608E-02  0.1130116E+00
         25   -1    0    0    0    0  0.00000000000E+00  0.00000000000E+00  0.99999998245E-14  0.12500000000E+03  0.12500000000E+03 0.  0.
        -13    1    3    3    0    0  0.22979667605E+02 -0.18318326801E+02 -0.21081641312E+02  0.36167291638E+02  0.10566000000E+00 0.  1.
         23    2    1    0    0    0 -0.17094580455E+02 -0.26045178366E+00  0.21611781141E+02  0.97443483527E+02  0.93465880843E+02 0.  0.
         13    1    3    3    0    0 -0.40074248059E+02  0.18057875017E+02  0.42693422452E+02  0.61276191889E+02  0.10566000000E+00 0. -1.
         22    1    1    0    0    0  0.17094580455E+02  0.26045178366E+00 -0.21611781141E+02  0.27556516473E+02  0.00000000000E+00 0. -1.
</event>
<event>
 5    1  0.1325686E-009  0.9118800E+02  0.7818608E-02  0.1130116E+00
         25   -1    0    0    0    0  0.00000000000E+00  0.00000000000E+00  0.99999998245E-14  0.12500000000E+03  0.12500000000E+03 0.  0.
        -13    1    3    3    0    0 -0.30126003843E+02  0.19209507071E+02 -0.17959612021E+01  0.35774542766E+02  0.10566000000E+00 0.  1.
         23    2    1    0    0    0  0.11404585875E+02 -0.24440247880E+02 -0.92577191239E+01  0.96485167741E+02  0.92175332574E+02 0.  0.
         13    1    3    3    0    0  0.41530589718E+02 -0.43649754950E+02 -0.74617579218E+01  0.60710624975E+02  0.10566000000E+00 0. -1.
         22    1    1    0    0    0 -0.11404585875E+02  0.24440247880E+02  0.92577191239E+01  0.28514832259E+02  0.00000000000E+00 0. -1.
</event>
<event>
 5    1  0.1325686E-009  0.9118800E+02  0.7818608E-02  0.1130116E+00
         25   -1    0    0    0    0  0.00000000000E+00  0.00000000000E+00  0.99999998245E-14  0.12500000000E+03  0.12500000000E+03 0.  0.
        -13    1    3    3    0    0  0.20806563374E+02  0.26249184885E+01  0.33635188488E+02  0.39637612758E+02  0.10566000000E+00 0. -1.
         23    2    1    0    0    0 -0.11066412201E+02 -0.30190542933E+02  0.89337488502E+01  0.91627163290E+02  0.85333409767E+02 0.  0.
         13    1    3    3    0    0 -0.31872975575E+02 -0.32815461421E+02 -0.24701439638E+02  0.51989550532E+02  0.10566000000E+00 0.  1.
         22    1    1    0    0    0  0.11066412201E+02  0.30190542933E+02 -0.89337488502E+01  0.33372836710E+02  0.00000000000E+00 0.  1.
</event>
<event>
 5    1  0.1325686E-009  0.9118800E+02  0.7818608E-02  0.1130116E+00
         25   -1    0    0    0    0  0.00000000000E+00  0.00000000000E+00  0.99999998245E-14  0.12500000000E+03  0.12500000000E+03 0.  0.
        -13    1    3    3    0    0 -0.24988828346E+02 -0.85276402783E+01 -0.40303166700E+02  0.48182139854E+02  0.10566000000E+00 0. -1.
         23    2    1    0    0    0 -0.58135455094E+00  0.24378779478E+02 -0.13745481124E+02  0.97007123883E+02  0.92880466035E+02 0.  0.
         13    1    3    3    0    0  0.24407473795E+02  0.32906419757E+02  0.26557685576E+02  0.48824984029E+02  0.10566000000E+00 0.  1.
         22    1    1    0    0    0  0.58135455094E+00 -0.24378779478E+02  0.13745481124E+02  0.27992876117E+02  0.00000000000E+00 0.  1.
</event>
<event>
 5    1  0.1325686E-009  0.9118800E+02  0.7818608E-02  0.1130116E+00
         25   -1    0    0    0    0  0.00000000000E+00  0.00000000000E+00  0.99999998245E-14  0.12500000000E+03  0.12500000000E+03 0.  0.
        -13    1    3    3    0    0  0.39668717552E+02 -0.26055054288E+02 -0.19027327803E+02  0.51132410207E+02  0.10566000000E+00 0.  1.
         23    2    1    0    0    0  0.22581783264E+02  0.14326690488E+02 -0.12557958177E+02  0.95455232116E+02  0.90767879941E+02 0.  0.
         13    1    3    3    0    0 -0.17086934288E+02  0.40381744777E+02  0.64693696258E+01  0.44322821909E+02  0.10566000000E+00 0. -1.
         22    1    1    0    0    0 -0.22581783264E+02 -0.14326690488E+02  0.12557958177E+02  0.29544767884E+02  0.00000000000E+00 0. -1.
</event>
<event>
 5    1  0.1325686E-009  0.9118800E+02  0.7818608E-02  0.1130116E+00
         25   -1    0    0    0    0  0.00000000000E+00  0.00000000000E+00  0.99999998245E-14  0.12500000000E+03  0.12500000000E+03 0.  0.
        -13    1    3    3    0    0 -0.32709097154E+02 -0.45501678295E+01 -0.33281014248E+02  0.46885244345E+02  0.10566000000E+00 0.  1.
         23    2    1    0    0    0  0.15223874903E+02 -0.50965353801E+01 -0.24635878952E+02  0.95594769655E+02  0.90959839565E+02 0.  0.
         13    1    3    3    0    0  0.47932972056E+02 -0.54636755063E+00  0.86451352961E+01  0.48709525310E+02  0.10566000000E+00 0. -1.
         22    1    1    0    0    0 -0.15223874903E+02  0.50965353801E+01  0.24635878952E+02  0.29405230345E+02  0.00000000000E+00 0.  1.
</event>
<event>
 5    1  0.1325686E-009  0.9118800E+02  0.7818608E-02  0.1130116E+00
         25   -1    0    0    0    0  0.00000000000E+00  0.00000000000E+00  0.99999998245E-14  0.12500000000E+03  0.12500000000E+03 0.  0.
        -13    1    3    3    0    0 -0.11340889123E+02  0.32490668361E+02  0.42346905433E+01  0.34672800070E+02  0.10566000000E+00 0. -1.
         23    2    1    0    0    0  0.21467004492E+02 -0.18748967789E+02 -0.45184671169E+01  0.96142200013E+02  0.91709050825E+02 0.  0.
         13    1    3    3    0    0  0.32807893615E+02 -0.51239636150E+02 -0.87531576603E+01  0.61469399943E+02  0.10566000000E+00 0.  1.
         22    1    1    0    0    0 -0.21467004492E+02  0.18748967789E+02  0.45184671169E+01  0.28857799987E+02  0.00000000000E+00 0.  1.
</event>
<event>
 5    1  0.1325686E-009  0.9118800E+02  0.7818608E-02  0.1130116E+00
         25   -1    0    0    0    0  0.00000000000E+00  0.00000000000E+00  0.99999998245E-14  0.12500000000E+03  0.12500000000E+03 0.  0.
        -13    1    3    3    0    0  0.56133511569E+02  0.18655704556E+02  0.13885358263E+02  0.60760355263E+02  0.10566000000E+00 0.  1.
         23    2    1    0    0    0  0.41201227806E+02  0.54528650903E+01  0.33525902687E+01  0.83304499381E+02  0.72118824486E+02 0.  0.
         13    1    3    3    0    0 -0.14932283763E+02 -0.13202839466E+02 -0.10532767995E+02  0.22544144118E+02  0.10566000000E+00 0. -1.
         22    1    1    0    0    0 -0.41201227806E+02 -0.54528650903E+01 -0.33525902687E+01  0.41695500619E+02  0.00000000000E+00 0.  1.
</event>
<event>
 5    1  0.1325686E-009  0.9118800E+02  0.7818608E-02  0.1130116E+00
         25   -1    0    0    0    0  0.00000000000E+00  0.00000000000E+00  0.99999998245E-14  0.12500000000E+03  0.12500000000E+03 0.  0.
        -13    1    3    3    0    0 -0.16061100457E+02 -0.26232690188E+02 -0.31225119345E+02  0.43830722382E+02  0.10566000000E+00 0. -1.
         23    2    1    0    0    0 -0.50997868676E+01  0.22304310100E+02 -0.19463683376E+02  0.94961274233E+02  0.90085062903E+02 0.  0.
         13    1    3    3    0    0  0.10961313589E+02  0.48537000288E+02  0.11761435969E+02  0.51130551851E+02  0.10566000000E+00 0.  1.
         22    1    1    0    0    0  0.50997868676E+01 -0.22304310100E+02  0.19463683376E+02  0.30038725767E+02  0.00000000000E+00 0.  1.
</event>
<event>
 5    1  0.1325686E-009  0.9118800E+02  0.7818608E-02  0.1130116E+00
         25   -1    0    0    0    0  0.00000000000E+00  0.00000000000E+00  0.99999998245E-14  0.12500000000E+03  0.12500000000E+03 0.  0.
        -13    1    3    3    0    0  0.31330510888E+02  0.21046405717E+02 -0.46068105575E+02  0.59555298853E+02  0.10566000000E+00 0.  1.
         23    2    1    0    0    0  0.21000934568E+02 -0.21298362842E+01 -0.20717965846E+02  0.95422820213E+02  0.90723233261E+02 0.  0.
         13    1    3    3    0    0 -0.10329576321E+02 -0.23176242001E+02  0.25350139728E+02  0.35867521361E+02  0.10566000000E+00 0. -1.
         22    1    1    0    0    0 -0.21000934568E+02  0.21298362842E+01  0.20717965846E+02  0.29577179787E+02  0.00000000000E+00 0.  1.
</event>
<event>
 5    1  0.1325686E-009  0.9118800E+02  0.7818608E-02  0.1130116E+00
         25   -1    0    0    0    0  0.00000000000E+00  0.00000000000E+00  0.99999998245E-14  0.12500000000E+03  0.12500000000E+03 0.  0.
        -13    1    3    3    0    0 -0.27749577262E+02  0.89429555141E+01  0.18940876583E+02  0.34767563350E+02  0.10566000000E+00 0.  1.
         23    2    1    0    0    0  0.13846469677E+02  0.13547320189E+02 -0.23616634553E+02  0.94454950738E+02  0.89379738668E+02 0.  0.
         13    1    3    3    0    0  0.41596046939E+02  0.46043646747E+01 -0.42557511136E+02  0.59687387388E+02  0.10566000000E+00 0. -1.
         22    1    1    0    0    0 -0.13846469677E+02 -0.13547320189E+02  0.23616634553E+02  0.30545049262E+02  0.00000000000E+00 0. -1.
</event>
<event>
 5    1  0.1325686E-009  0.9118800E+02  0.7818608E-02  0.1130116E+00
         25   -1    0    0    0    0  0.00000000000E+00  0.00000000000E+00  0.99999998245E-14  0.12500000000E+03  0.12500000000E+03 0.  0.
        -13    1    3    3    0    0 -0.30540835833E+01 -0.20674566516E+02 -0.38451526801E+02  0.43764097209E+02  0.10566000000E+00 0.  1.
         23    2    1    0    0    0  0.27667708112E+02 -0.38918641068E+01  0.16687908870E+01  0.97010117160E+02  0.92884494346E+02 0.  0.
         13    1    3    3    0    0  0.30721791695E+02  0.16782702409E+02  0.40120317688E+02  0.53246019950E+02  0.10566000000E+00 0. -1.
         22    1    1    0    0    0 -0.27667708112E+02  0.38918641068E+01 -0.16687908870E+01  0.27989882840E+02  0.00000000000E+00 0. -1.
</event>
<event>
 5    1  0.1325686E-009  0.9118800E+02  0.7818608E-02  0.1130116E+00
         25   -1    0    0    0    0  0.00000000000E+00  0.00000000000E+00  0.99999998245E-14  0.12500000000E+03  0.12500000000E+03 0.  0.
        -13    1    3    3    0    0 -0.22488248205E+02 -0.26243888160E+02  0.51450365529E+02  0.61980757095E+02  0.10566000000E+00 0. -1.
         23    2    1    0    0    0 -0.84214826612E+01 -0.17551290390E+02  0.23204570851E+02  0.94711037110E+02  0.89737167760E+02 0.  0.
         13    1    3    3    0    0  0.14066765543E+02  0.86925977703E+01 -0.28245794678E+02  0.32730280015E+02  0.10566000000E+00 0.  1.
         22    1    1    0    0    0  0.84214826612E+01  0.17551290390E+02 -0.23204570851E+02  0.30288962890E+02  0.00000000000E+00 0. -1.
</event>
<event>
 5    1  0.1325686E-009  0.9118800E+02  0.7818608E-02  0.1130116E+00
         25   -1    0    0    0    0  0.00000000000E+00  0.00000000000E+00  0.99999998245E-14  0.12500000000E+03  0.12500000000E+03 0.  0.
        -13    1    3    3    0    0  0.22745390623E+02 -0.52783295007E+02 -0.72734845044E+01  0.57933960397E+02  0.10566000000E+00 0.  1.
         23    2    1    0    0    0 -0.12904464672E+01 -0.26493580959E+02  0.88542749536E+01  0.97036215044E+02  0.92919609131E+02 0.  0.
         13    1    3    3    0    0 -0.24035837090E+02  0.26289714048E+02  0.16127759458E+02  0.39102254648E+02  0.10566000000E+00 0. -1.
         22    1    1    0    0    0  0.12904464672E+01  0.26493580959E+02 -0.88542749536E+01  0.27963784956E+02  0.00000000000E+00 0.  1.
</event>
<event>
 5    1  0.1325686E-009  0.9118800E+02  0.7818608E-02  0.1130116E+00
         25   -1    0    0    0    0  0.00000000000E+00  0.00000000000E+00  0.99999998245E-14  0.12500000000E+03  0.12500000000E+03 0.  0.
        -13    1    3    3    0    0 -0.59897877054E+01 -0.40745840864E+02  0.21391282685E+02  0.46407965301E+02  0.10566000000E+00 0.  1.
         23    2    1    0    0    0  0.60047939907E+01  0.76085085904E+01  0.26781378470E+02  0.96518616842E+02  0.92220682119E+02 0.  0.
         13    1    3    3    0    0  0.11994581696E+02  0.48354349454E+02  0.53900957849E+01  0.50110651541E+02  0.10566000000E+00 0. -1.
         22    1    1    0    0    0 -0.60047939907E+01 -0.76085085904E+01 -0.26781378470E+02  0.28481383158E+02  0.00000000000E+00 0.  1.
</event>
<event>
 5    1  0.1325686E-009  0.9118800E+02  0.7818608E-02  0.1130116E+00
         25   -1    0    0    0    0  0.00000000000E+00  0.00000000000E+00  0.99999998245E-14  0.12500000000E+03  0.12500000000E+03 0.  0.
        -13    1    3    3    0    0 -0.10027559223E+02  0.40954891100E+02  0.35371455500E+02  0.55036406834E+02  0.10566000000E+00 0. -1.
         23    2    1    0    0    0 -0.19725718038E+02  0.25793553134E+02  0.26006670664E+01  0.92424321886E+02  0.86493239455E+02 0.  0.
         13    1    3    3    0    0 -0.96981588150E+01 -0.15161337966E+02 -0.32770788434E+02  0.37387915052E+02  0.10566000000E+00 0.  1.
         22    1    1    0    0    0  0.19725718038E+02 -0.25793553134E+02 -0.26006670664E+01  0.32575678114E+02  0.00000000000E+00 0. -1.
</event>
<event>
 5    1  0.1325686E-009  0.9118800E+02  0.7818608E-02  0.1130116E+00
         25   -1    0    0    0    0  0.00000000000E+00  0.00000000000E+00  0.99999998245E-14  0.12500000000E+03  0.12500000000E+03 0.  0.
        -13    1    3    3    0    0 -0.40953131385E+02  0.24542092431E+02 -0.14073840354E+02  0.49775068232E+02  0.10566000000E+00 0.  1.
         23    2    1    0    0    0 -0.21705547300E+02  0.11613626364E+01  0.20070334081E+02  0.95414566813E+02  0.90711860874E+02 0.  0.
         13    1    3    3    0    0  0.19247584085E+02 -0.23380729795E+02  0.34144174434E+02  0.45639498581E+02  0.10566000000E+00 0. -1.
         22    1    1    0    0    0  0.21705547300E+02 -0.11613626364E+01 -0.20070334081E+02  0.29585433187E+02  0.00000000000E+00 0. -1.
</event>
<event>
 5    1  0.1325686E-009  0.9118800E+02  0.7818608E-02  0.1130116E+00
         25   -1    0    0    0    0  0.00000000000E+00  0.00000000000E+00  0.99999998245E-14  0.12500000000E+03  0.12500000000E+03 0.  0.
        -13    1    3    3    0    0 -0.16968816454E+02 -0.12366180156E+02  0.35739541773E+02  0.41451045266E+02  0.10566000000E+00 0. -1.
         23    2    1    0    0    0 -0.26987981621E+02  0.88034379161E+01 -0.11652023020E+02  0.94314151281E+02  0.89182609405E+02 0.  0.
         13    1    3    3    0    0 -0.10019165168E+02  0.21169618072E+02 -0.47391564793E+02  0.52863106015E+02  0.10566000000E+00 0.  1.
         22    1    1    0    0    0  0.26987981621E+02 -0.88034379161E+01  0.11652023020E+02  0.30685848719E+02  0.00000000000E+00 0.  1.
</event>
<event>
 5    1  0.1325686E-009  0.9118800E+02  0.7818608E-02  0.1130116E+00
         25   -1    0    0    0    0  0.00000000000E+00  0.00000000000E+00  0.99999998245E-14  0.12500000000E+03  0.12500000000E+03 0.  0.
        -13    1    3    3    0    0 -0.98836610709E+01  0.45415444599E+02  0.17586490107E+02  0.49694518436E+02  0.10566000000E+00 0. -1.
         23    2    1    0    0    0 -0.28102865382E+02  0.49825577926E+01  0.33974462024E+01  0.96257356323E+02  0.91865875497E+02 0.  0.
         13    1    3    3    0    0 -0.18219204311E+02 -0.40432886806E+02 -0.14189043905E+02  0.46562837888E+02  0.10566000000E+00 0.  1.
         22    1    1    0    0    0  0.28102865382E+02 -0.49825577926E+01 -0.33974462024E+01  0.28742643677E+02  0.00000000000E+00 0. -1.
</event>
<event>
 5    1  0.1325686E-009  0.9118800E+02  0.7818608E-02  0.1130116E+00
         25   -1    0    0    0    0  0.00000000000E+00  0.00000000000E+00  0.99999998245E-14  0.12500000000E+03  0.12500000000E+03 0.  0.
        -13    1    3    3    0    0  0.51220896002E+02 -0.30622831729E+02 -0.11276077095E+02  0.60733014819E+02  0.10566000000E+00 0. -1.
         23    2    1    0    0    0  0.17927985777E+02 -0.21728815957E+02 -0.96171421059E+01  0.95233516513E+02  0.90462031418E+02 0.  0.
         13    1    3    3    0    0 -0.33292910224E+02  0.88940157725E+01  0.16589349893E+01  0.34500501694E+02  0.10566000000E+00 0.  1.
         22    1    1    0    0    0 -0.17927985777E+02  0.21728815957E+02  0.96171421059E+01  0.29766483487E+02  0.00000000000E+00 0. -1.
</event>
<event>
 5    1  0.1325686E-009  0.9118800E+02  0.7818608E-02  0.1130116E+00
         25   -1    0    0    0    0  0.00000000000E+00  0.00000000000E+00  0.99999998245E-14  0.12500000000E+03  0.12500000000E+03 0.  0.
        -13    1    3    3    0    0  0.31282896491E+02  0.25336666873E+02 -0.69614490781E+01  0.40853876663E+02  0.10566000000E+00 0. -1.
         23    2    1    0    0    0 -0.17851775574E+02  0.29183462715E+02 -0.66991894397E+01  0.90139714196E+02  0.83125979988E+02 0.  0.
         13    1    3    3    0    0 -0.49134672065E+02  0.38467958419E+01  0.26225963841E+00  0.49285837533E+02  0.10566000000E+00 0.  1.
         22    1    1    0    0    0  0.17851775574E+02 -0.29183462715E+02  0.66991894397E+01  0.34860285804E+02  0.00000000000E+00 0.  1.
</event>
<event>
 5    1  0.1325686E-009  0.9118800E+02  0.7818608E-02  0.1130116E+00
         25   -1    0    0    0    0  0.00000000000E+00  0.00000000000E+00  0.99999998245E-14  0.12500000000E+03  0.12500000000E+03 0.  0.
        -13    1    3    3    0    0 -0.45515154493E+02 -0.12348281177E+02  0.10297426317E+02  0.48271704852E+02  0.10566000000E+00 0. -1.
         23    2    1    0    0    0 -0.10694259440E+02 -0.19158256928E+02 -0.20288863965E+02  0.95116158305E+02  0.90299720798E+02 0.  0.
         13    1    3    3    0    0  0.34820895053E+02 -0.68099757507E+01 -0.30586290282E+02  0.46844453452E+02  0.10566000000E+00 0.  1.
         22    1    1    0    0    0  0.10694259440E+02  0.19158256928E+02  0.20288863965E+02  0.29883841695E+02  0.00000000000E+00 0. -1.
</event>
<event>
 5    1  0.1325686E-009  0.9118800E+02  0.7818608E-02  0.1130116E+00
         25   -1    0    0    0    0  0.00000000000E+00  0.00000000000E+00  0.99999998245E-14  0.12500000000E+03  0.12500000000E+03 0.  0.
        -13    1    3    3    0    0  0.19252737931E+02  0.25197363475E+02  0.17232317474E+02  0.36090704807E+02  0.10566000000E+00 0.  1.
         23    2    1    0    0    0 -0.91093491775E+01 -0.15308413822E+02  0.32581657957E+02  0.87866562084E+02  0.79634417943E+02 0.  0.
         13    1    3    3    0    0 -0.28362087108E+02 -0.40505777296E+02  0.15349340483E+02  0.51775857278E+02  0.10566000000E+00 0. -1.
         22    1    1    0    0    0  0.91093491775E+01  0.15308413822E+02 -0.32581657957E+02  0.37133437916E+02  0.00000000000E+00 0. -1.
</event>
<event>
 5    1  0.1325686E-009  0.9118800E+02  0.7818608E-02  0.1130116E+00
         25   -1    0    0    0    0  0.00000000000E+00  0.00000000000E+00  0.99999998245E-14  0.12500000000E+03  0.12500000000E+03 0.  0.
        -13    1    3    3    0    0  0.11611177525E+02 -0.22820637095E+02  0.54723557031E+02  0.60417545292E+02  0.10566000000E+00 0. -1.
         23    2    1    0    0    0  0.12383759627E+02 -0.17575228224E+02  0.19702647007E+02  0.95837687871E+02  0.91293055419E+02 0.  0.
         13    1    3    3    0    0  0.77258210195E+00  0.52454088716E+01 -0.35020910024E+02  0.35420142579E+02  0.10566000000E+00 0.  1.
         22    1    1    0    0    0 -0.12383759627E+02  0.17575228224E+02 -0.19702647007E+02  0.29162312129E+02  0.00000000000E+00 0. -1.
</event>
<event>
 5    1  0.1325686E-009  0.9118800E+02  0.7818608E-02  0.1130116E+00
         25   -1    0    0    0    0  0.00000000000E+00  0.00000000000E+00  0.99999998245E-14  0.12500000000E+03  0.12500000000E+03 0.  0.
        -13    1    3    3    0    0  0.10050050175E+02 -0.96323475130E+01  0.32444794263E+02  0.35305261165E+02  0.10566000000E+00 0.  1.
         23    2    1    0    0    0 -0.58851973702E+01 -0.93741683501E+01 -0.26454797165E+02  0.96323060251E+02  0.91955234015E+02 0.  0.
         13    1    3    3    0    0 -0.15935247545E+02  0.25817916287E+00 -0.58899591428E+02  0.61017799086E+02  0.10566000000E+00 0. -1.
         22    1    1    0    0    0  0.58851973702E+01  0.93741683501E+01  0.26454797165E+02  0.28676939749E+02  0.00000000000E+00 0. -1.
</event>
<event>
 5    1  0.1325686E-009  0.9118800E+02  0.7818608E-02  0.1130116E+00
         25   -1    0    0    0    0  0.00000000000E+00  0.00000000000E+00  0.99999998245E-14  0.12500000000E+03  0.12500000000E+03 0.  0.
        -13    1    3    3    0    0  0.29059658657E+02 -0.34214277535E+02  0.84805105882E+01  0.45683813023E+02  0.10566000000E+00 0.  1.
         23    2    1    0    0    0 -0.37209017245E+01  0.11466808772E+01  0.27284818966E+02  0.97438771205E+02  0.93459578435E+02 0.  0.
         13    1    3    3    0    0 -0.32780560382E+02  0.35360958412E+02  0.18804308378E+02  0.51754958181E+02  0.10566000000E+00 0. -1.
         22    1    1    0    0    0  0.37209017245E+01 -0.11466808772E+01 -0.27284818966E+02  0.27561228795E+02  0.00000000000E+00 0. -1.
</event>
<event>
 5    1  0.1325686E-009  0.9118800E+02  0.7818608E-02  0.1130116E+00
         25   -1    0    0    0    0  0.00000000000E+00  0.00000000000E+00  0.99999998245E-14  0.12500000000E+03  0.12500000000E+03 0.  0.
        -13    1    3    3    0    0 -0.11945350103E+02 -0.33345581546E+01  0.41427121031E+02  0.43243822542E+02  0.10566000000E+00 0. -1.
         23    2    1    0    0    0 -0.24749022449E+02  0.15159889739E+02 -0.56620426038E+01  0.95429827604E+02  0.90732887648E+02 0.  0.
         13    1    3    3    0    0 -0.12803672346E+02  0.18494447894E+02 -0.47089163635E+02  0.52186005062E+02  0.10566000000E+00 0.  1.
         22    1    1    0    0    0  0.24749022449E+02 -0.15159889739E+02  0.56620426038E+01  0.29570172396E+02  0.00000000000E+00 0. -1.
</event>
<event>
 5    1  0.1325686E-009  0.9118800E+02  0.7818608E-02  0.1130116E+00
         25   -1    0    0    0    0  0.00000000000E+00  0.00000000000E+00  0.99999998245E-14  0.12500000000E+03  0.12500000000E+03 0.  0.
        -13    1    3    3    0    0  0.23033741641E+02 -0.11492013858E+02 -0.22079158101E+02  0.33913419512E+02  0.10566000000E+00 0. -1.
         23    2    1    0    0    0 -0.89639610093E+01  0.17129464823E+02  0.22182471876E+02  0.95574955894E+02  0.90932606767E+02 0.  0.
         13    1    3    3    0    0 -0.31997702650E+02  0.28621478680E+02  0.44261629977E+02  0.61661536382E+02  0.10566000000E+00 0.  1.
         22    1    1    0    0    0  0.89639610093E+01 -0.17129464823E+02 -0.22182471876E+02  0.29425044106E+02  0.00000000000E+00 0.  1.
</event>
<event>
 5    1  0.1325686E-009  0.9118800E+02  0.7818608E-02  0.1130116E+00
         25   -1    0    0    0    0  0.00000000000E+00  0.00000000000E+00  0.99999998245E-14  0.12500000000E+03  0.12500000000E+03 0.  0.
        -13    1    3    3    0    0 -0.17927796888E+02 -0.28710588591E+02  0.10534741310E+02  0.35449904612E+02  0.10566000000E+00 0.  1.
         23    2    1    0    0    0  0.20385530208E+02  0.70962055830E+01 -0.19524063614E+02  0.95894759312E+02  0.91371165189E+02 0.  0.
         13    1    3    3    0    0  0.38313327095E+02  0.35806794174E+02 -0.30058804924E+02  0.60444854700E+02  0.10566000000E+00 0. -1.
         22    1    1    0    0    0 -0.20385530208E+02 -0.70962055830E+01  0.19524063614E+02  0.29105240688E+02  0.00000000000E+00 0. -1.
</event>
<event>
 5    1  0.1325686E-009  0.9118800E+02  0.7818608E-02  0.1130116E+00
         25   -1    0    0    0    0  0.00000000000E+00  0.00000000000E+00  0.99999998245E-14  0.12500000000E+03  0.12500000000E+03 0.  0.
        -13    1    3    3    0    0  0.42516661689E+02  0.13357134691E+01 -0.97261283326E+01  0.43635528964E+02  0.10566000000E+00 0.  1.
         23    2    1    0    0    0  0.84273483565E+01  0.30982892331E+02 -0.15790565116E+02  0.89218695325E+02  0.81729271570E+02 0.  0.
         13    1    3    3    0    0 -0.34089313332E+02  0.29647178862E+02 -0.60644367838E+01  0.45583166361E+02  0.10566000000E+00 0. -1.
         22    1    1    0    0    0 -0.84273483565E+01 -0.30982892331E+02  0.15790565116E+02  0.35781304675E+02  0.00000000000E+00 0. -1.
</event>
<event>
 5    1  0.1325686E-009  0.9118800E+02  0.7818608E-02  0.1130116E+00
         25   -1    0    0    0    0  0.00000000000E+00  0.00000000000E+00  0.99999998245E-14  0.12500000000E+03  0.12500000000E+03 0.  0.
        -13    1    3    3    0    0  0.34830493617E+02 -0.23420127890E+02 -0.44077969725E+02  0.60864967388E+02  0.10566000000E+00 0. -1.
         23    2    1    0    0    0  0.22264044483E+02 -0.11192537755E+02 -0.12182120031E+02  0.97262577146E+02  0.93223625153E+02 0.  0.
         13    1    3    3    0    0 -0.12566449135E+02  0.12227590136E+02  0.31895849694E+02  0.36397609758E+02  0.10566000000E+00 0.  1.
         22    1    1    0    0    0 -0.22264044483E+02  0.11192537755E+02  0.12182120031E+02  0.27737422854E+02  0.00000000000E+00 0. -1.
</event>
<event>
 5    1  0.1325686E-009  0.9118800E+02  0.7818608E-02  0.1130116E+00
         25   -1    0    0    0    0  0.00000000000E+00  0.00000000000E+00  0.99999998245E-14  0.12500000000E+03  0.12500000000E+03 0.  0.
        -13    1    3    3    0    0 -0.17231428689E+02  0.24326029606E+02  0.87076089948E+01  0.31056584962E+02  0.10566000000E+00 0.  1.
         23    2    1    0    0    0 -0.73919425695E+01 -0.33519800577E+02  0.80795617725E+01  0.89736744846E+02  0.82517793302E+02 0.  0.
         13    1    3    3    0    0  0.98394861195E+01 -0.57845830183E+02 -0.62804722227E+00  0.58680159884E+02  0.10566000000E+00 0. -1.
         22    1    1    0    0    0  0.73919425695E+01  0.33519800577E+02 -0.80795617725E+01  0.35263255154E+02  0.00000000000E+00 0. -1.
</event>
<event>
 5    1  0.1325686E-009  0.9118800E+02  0.7818608E-02  0.1130116E+00
         25   -1    0    0    0    0  0.00000000000E+00  0.00000000000E+00  0.99999998245E-14  0.12500000000E+03  0.12500000000E+03 0.  0.
        -13    1    3    3    0    0  0.46445479793E+02 -0.21729012024E+02  0.26654595283E+02  0.57791099405E+02  0.10566000000E+00 0.  1.
         23    2    1    0    0    0  0.10374015603E+02 -0.19329939880E+02  0.21455613008E+02  0.94314333883E+02  0.89182865343E+02 0.  0.
         13    1    3    3    0    0 -0.36071464190E+02  0.23990721443E+01 -0.51989822750E+01  0.36523234478E+02  0.10566000000E+00 0. -1.
         22    1    1    0    0    0 -0.10374015603E+02  0.19329939880E+02 -0.21455613008E+02  0.30685666117E+02  0.00000000000E+00 0.  1.
</event>
<event>
 5    1  0.1325686E-009  0.9118800E+02  0.7818608E-02  0.1130116E+00
         25   -1    0    0    0    0  0.00000000000E+00  0.00000000000E+00  0.99999998245E-14  0.12500000000E+03  0.12500000000E+03 0.  0.
        -13    1    3    3    0    0 -0.30404403255E+02 -0.85670953137E+01 -0.50665109307E+02  0.59705839953E+02  0.10566000000E+00 0. -1.
         23    2    1    0    0    0 -0.20722983589E+02 -0.11857809254E+02 -0.15010765628E+02  0.96797645952E+02  0.92598118166E+02 0.  0.
         13    1    3    3    0    0  0.96814196664E+01 -0.32907139401E+01  0.35654343679E+02  0.37091805998E+02  0.10566000000E+00 0.  1.
         22    1    1    0    0    0  0.20722983589E+02  0.11857809254E+02  0.15010765628E+02  0.28202354048E+02  0.00000000000E+00 0. -1.
</event>
<event>
 5    1  0.1325686E-009  0.9118800E+02  0.7818608E-02  0.1130116E+00
         25   -1    0    0    0    0  0.00000000000E+00  0.00000000000E+00  0.99999998245E-14  0.12500000000E+03  0.12500000000E+03 0.  0.
        -13    1    3    3    0    0 -0.43626915189E+02 -0.20435732897E+02  0.19771353058E+02  0.52075373006E+02  0.10566000000E+00 0.  1.
         23    2    1    0    0    0 -0.24924328779E+02  0.63109837422E+01 -0.11095672227E+02  0.96997060457E+02  0.92866921529E+02 0.  0.
         13    1    3    3    0    0  0.18702586410E+02  0.26746716639E+02 -0.30867025285E+02  0.44921687450E+02  0.10566000000E+00 0. -1.
         22    1    1    0    0    0  0.24924328779E+02 -0.63109837422E+01  0.11095672227E+02  0.28002939543E+02  0.00000000000E+00 0.  1.
</event>
<event>
 5    1  0.1325686E-009  0.9118800E+02  0.7818608E-02  0.1130116E+00
         25   -1    0    0    0    0  0.00000000000E+00  0.00000000000E+00  0.99999998245E-14  0.12500000000E+03  0.12500000000E+03 0.  0.
        -13    1    3    3    0    0 -0.16459123103E+02  0.14990365704E+02 -0.51055420022E+02  0.55698122724E+02  0.10566000000E+00 0.  1.
         23    2    1    0    0    0  0.12622920127E+02 -0.10488303244E+01 -0.20919867644E+02  0.10054434585E+03  0.97524799221E+02 0.  0.
         13    1    3    3    0    0  0.29082043230E+02 -0.16039196028E+02  0.30135552379E+02  0.44846223128E+02  0.10566000000E+00 0. -1.
         22    1    1    0    0    0 -0.12622920127E+02  0.10488303244E+01  0.20919867644E+02  0.24455654148E+02  0.00000000000E+00 0.  1.
</event>
<event>
 5    1  0.1325686E-009  0.9118800E+02  0.7818608E-02  0.1130116E+00
         25   -1    0    0    0    0  0.00000000000E+00  0.00000000000E+00  0.99999998245E-14  0.12500000000E+03  0.12500000000E+03 0.  0.
        -13    1    3    3    0    0 -0.72770047331E+01 -0.29920738884E+02 -0.34604979053E+02  0.46321929499E+02  0.10566000000E+00 0.  1.
         23    2    1    0    0    0  0.10841922363E+02 -0.23523720582E+02  0.11791701420E+02  0.96540257680E+02  0.92250010406E+02 0.  0.
         13    1    3    3    0    0  0.18118927096E+02  0.63970183025E+01  0.46396680473E+02  0.50218328180E+02  0.10566000000E+00 0. -1.
         22    1    1    0    0    0 -0.10841922363E+02  0.23523720582E+02 -0.11791701420E+02  0.28459742320E+02  0.00000000000E+00 0. -1.
</event>
<event>
 5    1  0.1325686E-009  0.9118800E+02  0.7818608E-02  0.1130116E+00
         25   -1    0    0    0    0  0.00000000000E+00  0.00000000000E+00  0.99999998245E-14  0.12500000000E+03  0.12500000000E+03 0.  0.
        -13    1    3    3    0    0 -0.43109808454E+01 -0.48675488046E+02  0.36094726784E+02  0.60751363425E+02  0.10566000000E+00 0. -1.
         23    2    1    0    0    0  0.58680173115E+01 -0.18440257072E+02  0.22202939138E+02  0.95547543152E+02  0.90894916183E+02 0.  0.
         13    1    3    3    0    0  0.10178998157E+02  0.30235230974E+02 -0.13891787647E+02  0.34796179727E+02  0.10566000000E+00 0.  1.
         22    1    1    0    0    0 -0.58680173115E+01  0.18440257072E+02 -0.22202939138E+02  0.29452456848E+02  0.00000000000E+00 0. -1.
</event>
<event>
 5    1  0.1325686E-009  0.9118800E+02  0.7818608E-02  0.1130116E+00
         25   -1    0    0    0    0  0.00000000000E+00  0.00000000000E+00  0.99999998245E-14  0.12500000000E+03  0.12500000000E+03 0.  0.
        -13    1    3    3    0    0 -0.38620301718E+02 -0.22793820571E+02 -0.26382872396E+02  0.52030309253E+02  0.10566000000E+00 0.  1.
         23    2    1    0    0    0 -0.15374588640E+02  0.14088455805E+02 -0.20025884228E+02  0.96088088927E+02  0.91635267401E+02 0.  0.
         13    1    3    3    0    0  0.23245713078E+02  0.36882276376E+02  0.63569881685E+01  0.44057779674E+02  0.10566000000E+00 0. -1.
         22    1    1    0    0    0  0.15374588640E+02 -0.14088455805E+02  0.20025884228E+02  0.28911911073E+02  0.00000000000E+00 0.  1.
</event>
<event>
 5    1  0.1325686E-009  0.9118800E+02  0.7818608E-02  0.1130116E+00
         25   -1    0    0    0    0  0.00000000000E+00  0.00000000000E+00  0.99999998245E-14  0.12500000000E+03  0.12500000000E+03 0.  0.
        -13    1    3    3    0    0  0.10473761313E+02 -0.44467269840E+02 -0.10939889107E+02  0.46975845930E+02  0.10566000000E+00 0. -1.
         23    2    1    0    0    0 -0.24105612736E+02 -0.12418045240E+02  0.62736652122E+01  0.97167513798E+02  0.93096071075E+02 0.  0.
         13    1    3    3    0    0 -0.34579374049E+02  0.32049224600E+02  0.17213554320E+02  0.50191667869E+02  0.10566000000E+00 0.  1.
         22    1    1    0    0    0  0.24105612736E+02  0.12418045240E+02 -0.62736652122E+01  0.27832486202E+02  0.00000000000E+00 0. -1.
</event>
<event>
 5    1  0.1325686E-009  0.9118800E+02  0.7818608E-02  0.1130116E+00
         25   -1    0    0    0    0  0.00000000000E+00  0.00000000000E+00  0.99999998245E-14  0.12500000000E+03  0.12500000000E+03 0.  0.
        -13    1    3    3    0    0 -0.17231799225E+02 -0.27154613493E+02  0.12081327543E+02  0.34355168137E+02  0.10566000000E+00 0. -1.
         23    2    1    0    0    0  0.10066732509E+02  0.17233512571E+02 -0.20959683452E+02  0.96057965010E+02  0.91594166040E+02 0.  0.
         13    1    3    3    0    0  0.27298531734E+02  0.44388126064E+02 -0.33041010996E+02  0.61702796873E+02  0.10566000000E+00 0.  1.
         22    1    1    0    0    0 -0.10066732509E+02 -0.17233512571E+02  0.20959683452E+02  0.28942034990E+02  0.00000000000E+00 0.  1.
</event>
<event>
 5    1  0.1325686E-009  0.9118800E+02  0.7818608E-02  0.1130116E+00
         25   -1    0    0    0    0  0.00000000000E+00  0.00000000000E+00  0.99999998245E-14  0.12500000000E+03  0.12500000000E+03 0.  0.
        -13    1    3    3    0    0  0.23393522959E+02 -0.29081471136E+02  0.88962809313E+01  0.38368526924E+02  0.10566000000E+00 0.  1.
         23    2    1    0    0    0 -0.20710209006E+02 -0.55071001715E+01 -0.19627314002E+02  0.95940193320E+02  0.91433299897E+02 0.  0.
         13    1    3    3    0    0 -0.44103731965E+02  0.23574370965E+02 -0.28523594933E+02  0.57571666396E+02  0.10566000000E+00 0. -1.
         22    1    1    0    0    0  0.20710209006E+02  0.55071001715E+01  0.19627314002E+02  0.29059806680E+02  0.00000000000E+00 0. -1.
</event>
<event>
 5    1  0.1325686E-009  0.9118800E+02  0.7818608E-02  0.1130116E+00
         25   -1    0    0    0    0  0.00000000000E+00  0.00000000000E+00  0.99999998245E-14  0.12500000000E+03  0.12500000000E+03 0.  0.
        -13    1    3    3    0    0 -0.28716188387E+02 -0.98067017328E+01  0.36112515160E+02  0.47169013023E+02  0.10566000000E+00 0. -1.
         23    2    1    0    0    0  0.66859329993E+01  0.19179985873E+02  0.22013336751E+02  0.95047361500E+02  0.90204436560E+02 0.  0.
         13    1    3    3    0    0  0.35402121386E+02  0.28986687606E+02 -0.14099178409E+02  0.47878348477E+02  0.10566000000E+00 0.  1.
         22    1    1    0    0    0 -0.66859329993E+01 -0.19179985873E+02 -0.22013336751E+02  0.29952638500E+02  0.00000000000E+00 0.  1.
</event>
<event>
 5    1  0.1325686E-009  0.9118800E+02  0.7818608E-02  0.1130116E+00
         25   -1    0    0    0    0  0.00000000000E+00  0.00000000000E+00  0.99999998245E-14  0.12500000000E+03  0.12500000000E+03 0.  0.
        -13    1    3    3    0    0 -0.23364484390E+02 -0.26322037020E+02  0.35441067283E+02  0.49948265014E+02  0.10566000000E+00 0. -1.
         23    2    1    0    0    0 -0.25102702382E+02 -0.80529606560E+00 -0.64858811291E+01  0.99060439043E+02  0.95603921262E+02 0.  0.
         13    1    3    3    0    0 -0.17382179916E+01  0.25516740954E+02 -0.41926948412E+02  0.49112174029E+02  0.10566000000E+00 0.  1.
         22    1    1    0    0    0  0.25102702382E+02  0.80529606560E+00  0.64858811291E+01  0.25939560957E+02  0.00000000000E+00 0. -1.
</event>
<event>
 5    1  0.1325686E-009  0.9118800E+02  0.7818608E-02  0.1130116E+00
         25   -1    0    0    0    0  0.00000000000E+00  0.00000000000E+00  0.99999998245E-14  0.12500000000E+03  0.12500000000E+03 0.  0.
        -13    1    3    3    0    0 -0.94855629507E+01  0.57427546223E+02 -0.22239441533E+02  0.62309733537E+02  0.10566000000E+00 0. -1.
         23    2    1    0    0    0 -0.48157628222E+01  0.25639758629E+02 -0.13598147038E+02  0.95580645878E+02  0.90940428136E+02 0.  0.
         13    1    3    3    0    0  0.46698001285E+01 -0.31787787595E+02  0.86412944955E+01  0.33270912341E+02  0.10566000000E+00 0.  1.
         22    1    1    0    0    0  0.48157628222E+01 -0.25639758629E+02  0.13598147038E+02  0.29419354122E+02  0.00000000000E+00 0. -1.
</event>
<event>
 5    1  0.1325686E-009  0.9118800E+02  0.7818608E-02  0.1130116E+00
         25   -1    0    0    0    0  0.00000000000E+00  0.00000000000E+00  0.99999998245E-14  0.12500000000E+03  0.12500000000E+03 0.  0.
        -13    1    3    3    0    0 -0.36379814978E+02  0.18172458466E+02  0.10795881972E+02  0.42074831148E+02  0.10566000000E+00 0.  1.
         23    2    1    0    0    0  0.17618701823E+02  0.15371985400E+02  0.16406328363E+02  0.96436313273E+02  0.92109056658E+02 0.  0.
         13    1    3    3    0    0  0.53998516801E+02 -0.28004730659E+01  0.56104463913E+01  0.54361482126E+02  0.10566000000E+00 0. -1.
         22    1    1    0    0    0 -0.17618701823E+02 -0.15371985400E+02 -0.16406328363E+02  0.28563686727E+02  0.00000000000E+00 0. -1.
</event>
<event>
 5    1  0.1325686E-009  0.9118800E+02  0.7818608E-02  0.1130116E+00
         25   -1    0    0    0    0  0.00000000000E+00  0.00000000000E+00  0.99999998245E-14  0.12500000000E+03  0.12500000000E+03 0.  0.
        -13    1    3    3    0    0  0.41316200552E+02  0.40134007837E+02  0.18119224613E+02  0.60382816080E+02  0.10566000000E+00 0.  1.
         23    2    1    0    0    0  0.10169991955E+02  0.22514715131E+02  0.14510038869E+02  0.96348955311E+02  0.91990427914E+02 0.  0.
         13    1    3    3    0    0 -0.31146208597E+02 -0.17619292707E+02 -0.36091857442E+01  0.35966139231E+02  0.10566000000E+00 0. -1.
         22    1    1    0    0    0 -0.10169991955E+02 -0.22514715131E+02 -0.14510038869E+02  0.28651044689E+02  0.00000000000E+00 0.  1.
</event>
<event>
 5    1  0.1325686E-009  0.9118800E+02  0.7818608E-02  0.1130116E+00
         25   -1    0    0    0    0  0.00000000000E+00  0.00000000000E+00  0.99999998245E-14  0.12500000000E+03  0.12500000000E+03 0.  0.
        -13    1    3    3    0    0 -0.15661936300E+02 -0.34236989572E+02 -0.31791027367E+02  0.49276244669E+02  0.10566000000E+00 0.  1.
         23    2    1    0    0    0 -0.12795558352E+02 -0.21727270559E+02  0.13533311567E+02  0.96382677947E+02  0.92036240074E+02 0.  0.
         13    1    3    3    0    0  0.28663779476E+01  0.12509719014E+02  0.45324338934E+02  0.47106433278E+02  0.10566000000E+00 0. -1.
         22    1    1    0    0    0  0.12795558352E+02  0.21727270559E+02 -0.13533311567E+02  0.28617322053E+02  0.00000000000E+00 0. -1.
</event>
<event>
 5    1  0.1325686E-009  0.9118800E+02  0.7818608E-02  0.1130116E+00
         25   -1    0    0    0    0  0.00000000000E+00  0.00000000000E+00  0.99999998245E-14  0.12500000000E+03  0.12500000000E+03 0.  0.
        -13    1    3    3    0    0 -0.56955495331E+01 -0.25478778301E+02 -0.49710940059E+02  0.56149765394E+02  0.10566000000E+00 0.  1.
         23    2    1    0    0    0 -0.15536503064E+02  0.24062248988E+01 -0.28188636879E+02  0.92723505538E+02  0.86924544200E+02 0.  0.
         13    1    3    3    0    0 -0.98409535305E+01  0.27885003200E+02  0.21522303181E+02  0.36573740143E+02  0.10566000000E+00 0. -1.
         22    1    1    0    0    0  0.15536503064E+02 -0.24062248988E+01  0.28188636879E+02  0.32276494462E+02  0.00000000000E+00 0.  1.
</event>
<event>
 5    1  0.1325686E-009  0.9118800E+02  0.7818608E-02  0.1130116E+00
         25   -1    0    0    0    0  0.00000000000E+00  0.00000000000E+00  0.99999998245E-14  0.12500000000E+03  0.12500000000E+03 0.  0.
        -13    1    3    3    0    0  0.29648622463E+01 -0.86966269677E+01  0.45019864076E+02  0.45948025575E+02  0.10566000000E+00 0. -1.
         23    2    1    0    0    0  0.17812740056E+02  0.21997817215E+02  0.31561332853E+02  0.82605243225E+02  0.70896479505E+02 0.  0.
         13    1    3    3    0    0  0.14847877810E+02  0.30694444183E+02 -0.13458531223E+02  0.36657217650E+02  0.10566000000E+00 0.  1.
         22    1    1    0    0    0 -0.17812740056E+02 -0.21997817215E+02 -0.31561332853E+02  0.42394756775E+02  0.00000000000E+00 0.  1.
</event>
<event>
 5    1  0.1325686E-009  0.9118800E+02  0.7818608E-02  0.1130116E+00
         25   -1    0    0    0    0  0.00000000000E+00  0.00000000000E+00  0.99999998245E-14  0.12500000000E+03  0.12500000000E+03 0.  0.
        -13    1    3    3    0    0  0.37406673978E+02 -0.36933263897E+02  0.13718219044E+02  0.54327948037E+02  0.10566000000E+00 0. -1.
         23    2    1    0    0    0  0.88107525972E+01 -0.11644372156E+02  0.26632293072E+02  0.94627318220E+02  0.89620475089E+02 0.  0.
         13    1    3    3    0    0 -0.28595921381E+02  0.25288891741E+02  0.12914074028E+02  0.40299370183E+02  0.10566000000E+00 0.  1.
         22    1    1    0    0    0 -0.88107525972E+01  0.11644372156E+02 -0.26632293072E+02  0.30372681780E+02  0.00000000000E+00 0. -1.
</event>
<event>
 5    1  0.1325686E-009  0.9118800E+02  0.7818608E-02  0.1130116E+00
         25   -1    0    0    0    0  0.00000000000E+00  0.00000000000E+00  0.99999998245E-14  0.12500000000E+03  0.12500000000E+03 0.  0.
        -13    1    3    3    0    0 -0.13133503428E+02 -0.42561344706E+02 -0.41996752226E+02  0.61218423183E+02  0.10566000000E+00 0. -1.
         23    2    1    0    0    0 -0.11584829236E+02 -0.14035154351E+02 -0.23601420791E+02  0.95196965097E+02  0.90411510740E+02 0.  0.
         13    1    3    3    0    0  0.15486741922E+01  0.28526190355E+02  0.18395331435E+02  0.33978541914E+02  0.10566000000E+00 0.  1.
         22    1    1    0    0    0  0.11584829236E+02  0.14035154351E+02  0.23601420791E+02  0.29803034903E+02  0.00000000000E+00 0. -1.
</event>
<event>
 5    1  0.1325686E-009  0.9118800E+02  0.7818608E-02  0.1130116E+00
         25   -1    0    0    0    0  0.00000000000E+00  0.00000000000E+00  0.99999998245E-14  0.12500000000E+03  0.12500000000E+03 0.  0.
        -13    1    3    3    0    0  0.28423407457E+02  0.36135396424E+02 -0.69974553280E+01  0.46504112843E+02  0.10566000000E+00 0. -1.
         23    2    1    0    0    0  0.15398571858E+02 -0.33095702597E+00  0.24256851551E+02  0.96266389106E+02  0.91878165396E+02 0.  0.
         13    1    3    3    0    0 -0.13024835599E+02 -0.36466353450E+02  0.31254306879E+02  0.49762276263E+02  0.10566000000E+00 0.  1.
         22    1    1    0    0    0 -0.15398571858E+02  0.33095702597E+00 -0.24256851551E+02  0.28733610894E+02  0.00000000000E+00 0.  1.
</event>
<event>
 5    1  0.1325686E-009  0.9118800E+02  0.7818608E-02  0.1130116E+00
         25   -1    0    0    0    0  0.00000000000E+00  0.00000000000E+00  0.99999998245E-14  0.12500000000E+03  0.12500000000E+03 0.  0.
        -13    1    3    3    0    0 -0.85994062783E+01  0.39580679888E+02  0.83583695362E+01  0.41357629454E+02  0.10566000000E+00 0.  1.
         23    2    1    0    0    0  0.24987520579E+02 -0.64622855930E+01 -0.12804613626E+01  0.99158620373E+02  0.95732205099E+02 0.  0.
         13    1    3    3    0    0  0.33586926857E+02 -0.46042965481E+02 -0.96388308987E+01  0.57800990918E+02  0.10566000000E+00 0. -1.
         22    1    1    0    0    0 -0.24987520579E+02  0.64622855930E+01  0.12804613626E+01  0.25841379627E+02  0.00000000000E+00 0. -1.
</event>
<event>
 5    1  0.1325686E-009  0.9118800E+02  0.7818608E-02  0.1130116E+00
         25   -1    0    0    0    0  0.00000000000E+00  0.00000000000E+00  0.99999998245E-14  0.12500000000E+03  0.12500000000E+03 0.  0.
        -13    1    3    3    0    0 -0.86437682079E+01  0.30612638799E+02 -0.15523267093E+02  0.35395358006E+02  0.10566000000E+00 0.  1.
         23    2    1    0    0    0  0.25175481161E+02 -0.96602677483E+01  0.12826526707E+02  0.95139567785E+02  0.90332120236E+02 0.  0.
         13    1    3    3    0    0  0.33819249369E+02 -0.40272906547E+02  0.28349793800E+02  0.59744209780E+02  0.10566000000E+00 0. -1.
         22    1    1    0    0    0 -0.25175481161E+02  0.96602677483E+01 -0.12826526707E+02  0.29860432215E+02  0.00000000000E+00 0. -1.
</event>
<event>
 5    1  0.1325686E-009  0.9118800E+02  0.7818608E-02  0.1130116E+00
         25   -1    0    0    0    0  0.00000000000E+00  0.00000000000E+00  0.99999998245E-14  0.12500000000E+03  0.12500000000E+03 0.  0.
        -13    1    3    3    0    0 -0.49907774198E+01 -0.20771373403E+02 -0.44016193196E+02  0.48926416585E+02  0.10566000000E+00 0. -1.
         23    2    1    0    0    0 -0.93446476166E+00  0.19513418541E+02 -0.23883870807E+02  0.94144108954E+02  0.88943955604E+02 0.  0.
         13    1    3    3    0    0  0.40563126581E+01  0.40284791944E+02  0.20132322390E+02  0.45217692369E+02  0.10566000000E+00 0.  1.
         22    1    1    0    0    0  0.93446476166E+00 -0.19513418541E+02  0.23883870807E+02  0.30855891046E+02  0.00000000000E+00 0. -1.
</event>
<event>
 5    1  0.1325686E-009  0.9118800E+02  0.7818608E-02  0.1130116E+00
         25   -1    0    0    0    0  0.00000000000E+00  0.00000000000E+00  0.99999998245E-14  0.12500000000E+03  0.12500000000E+03 0.  0.
        -13    1    3    3    0    0 -0.16110533019E+02  0.59955581776E+02  0.32045049872E+01  0.62165111409E+02  0.10566000000E+00 0.  1.
         23    2    1    0    0    0 -0.10356143901E+02  0.27026950041E+02  0.49415985222E+01  0.95638032406E+02  0.91019273242E+02 0.  0.
         13    1    3    3    0    0  0.57543891181E+01 -0.32928631735E+02  0.17370935350E+01  0.33472920997E+02  0.10566000000E+00 0. -1.
         22    1    1    0    0    0  0.10356143901E+02 -0.27026950041E+02 -0.49415985222E+01  0.29361967594E+02  0.00000000000E+00 0.  1.
</event>
<event>
 5    1  0.1325686E-009  0.9118800E+02  0.7818608E-02  0.1130116E+00
         25   -1    0    0    0    0  0.00000000000E+00  0.00000000000E+00  0.99999998245E-14  0.12500000000E+03  0.12500000000E+03 0.  0.
        -13    1    3    3    0    0 -0.57787340936E+02  0.15159789274E+02 -0.79037426586E+01  0.60263391004E+02  0.10566000000E+00 0.  1.
         23    2    1    0    0    0 -0.28909717105E+02  0.15713674285E+02 -0.13051731800E+02  0.89601709001E+02  0.82312983486E+02 0.  0.
         13    1    3    3    0    0  0.28877623830E+02  0.55388501112E+00 -0.51479891418E+01  0.29338317997E+02  0.10566000000E+00 0. -1.
         22    1    1    0    0    0  0.28909717105E+02 -0.15713674285E+02  0.13051731800E+02  0.35398290999E+02  0.00000000000E+00 0.  1.
</event>
<event>
 5    1  0.1325686E-009  0.9118800E+02  0.7818608E-02  0.1130116E+00
         25   -1    0    0    0    0  0.00000000000E+00  0.00000000000E+00  0.99999998245E-14  0.12500000000E+03  0.12500000000E+03 0.  0.
        -13    1    3    3    0    0 -0.53999186491E+00 -0.20994792061E+02  0.29634195599E+02  0.36321751028E+02  0.10566000000E+00 0.  1.
         23    2    1    0    0    0  0.17688021970E+02  0.41950128206E+01 -0.21917619072E+02  0.96524637323E+02  0.92228842185E+02 0.  0.
         13    1    3    3    0    0  0.18228013835E+02  0.25189804881E+02 -0.51551814671E+02  0.60202886295E+02  0.10566000000E+00 0. -1.
         22    1    1    0    0    0 -0.17688021970E+02 -0.41950128206E+01  0.21917619072E+02  0.28475362677E+02  0.00000000000E+00 0. -1.
</event>
<event>
 5    1  0.1325686E-009  0.9118800E+02  0.7818608E-02  0.1130116E+00
         25   -1    0    0    0    0  0.00000000000E+00  0.00000000000E+00  0.99999998245E-14  0.12500000000E+03  0.12500000000E+03 0.  0.
        -13    1    3    3    0    0 -0.32825076448E+02  0.21972598092E+02  0.22710481615E+02  0.45563777828E+02  0.10566000000E+00 0.  1.
         23    2    1    0    0    0  0.16870099327E+02  0.75189983174E+01 -0.70096633540E+01  0.10524472305E+03  0.10337398494E+03 0.  0.
         13    1    3    3    0    0  0.49695175775E+02 -0.14453599774E+02 -0.29720144969E+02  0.59680945223E+02  0.10566000000E+00 0. -1.
         22    1    1    0    0    0 -0.16870099327E+02 -0.75189983174E+01  0.70096633540E+01  0.19755276949E+02  0.00000000000E+00 0. -1.
</event>
<event>
 5    1  0.1325686E-009  0.9118800E+02  0.7818608E-02  0.1130116E+00
         25   -1    0    0    0    0  0.00000000000E+00  0.00000000000E+00  0.99999998245E-14  0.12500000000E+03  0.12500000000E+03 0.  0.
        -13    1    3    3    0    0 -0.11415533117E+02  0.27010571621E+02  0.20600265182E+02  0.35836677654E+02  0.10566000000E+00 0. -1.
         23    2    1    0    0    0  0.26661329911E+00 -0.36791049603E+01 -0.29243167500E+02  0.95525099807E+02  0.90864046530E+02 0.  0.
         13    1    3    3    0    0  0.11682146417E+02 -0.30689676581E+02 -0.49843432682E+02  0.59688422153E+02  0.10566000000E+00 0.  1.
         22    1    1    0    0    0 -0.26661329911E+00  0.36791049603E+01  0.29243167500E+02  0.29474900193E+02  0.00000000000E+00 0.  1.
</event>
<event>
 5    1  0.1325686E-009  0.9118800E+02  0.7818608E-02  0.1130116E+00
         25   -1    0    0    0    0  0.00000000000E+00  0.00000000000E+00  0.99999998245E-14  0.12500000000E+03  0.12500000000E+03 0.  0.
        -13    1    3    3    0    0 -0.44025492282E+02  0.40393752872E+00 -0.75071157901E+01  0.44662905053E+02  0.10566000000E+00 0.  1.
         23    2    1    0    0    0 -0.71930871779E+01 -0.15849525490E+02  0.23695915606E+02  0.95598565038E+02  0.90965055156E+02 0.  0.
         13    1    3    3    0    0  0.36832405104E+02 -0.16253463018E+02  0.31203031396E+02  0.50935659986E+02  0.10566000000E+00 0. -1.
         22    1    1    0    0    0  0.71930871779E+01  0.15849525490E+02 -0.23695915606E+02  0.29401434962E+02  0.00000000000E+00 0. -1.
</event>
<event>
 5    1  0.1325686E-009  0.9118800E+02  0.7818608E-02  0.1130116E+00
         25   -1    0    0    0    0  0.00000000000E+00  0.00000000000E+00  0.99999998245E-14  0.12500000000E+03  0.12500000000E+03 0.  0.
        -13    1    3    3    0    0  0.81419767104E+01  0.22864387878E+02  0.30364442525E+02  0.38872645288E+02  0.10566000000E+00 0.  1.
         23    2    1    0    0    0  0.25169000235E+00  0.19638643534E+02 -0.24049175206E+02  0.93950000068E+02  0.88670739350E+02 0.  0.
         13    1    3    3    0    0 -0.78902867081E+01 -0.32257443441E+01 -0.54413617731E+02  0.55077354780E+02  0.10566000000E+00 0. -1.
         22    1    1    0    0    0 -0.25169000235E+00 -0.19638643534E+02  0.24049175206E+02  0.31049999932E+02  0.00000000000E+00 0. -1.
</event>
<event>
 5    1  0.1325686E-009  0.9118800E+02  0.7818608E-02  0.1130116E+00
         25   -1    0    0    0    0  0.00000000000E+00  0.00000000000E+00  0.99999998245E-14  0.12500000000E+03  0.12500000000E+03 0.  0.
        -13    1    3    3    0    0 -0.11654786541E+02 -0.49316121233E+01  0.41103710461E+02  0.43007918168E+02  0.10566000000E+00 0. -1.
         23    2    1    0    0    0  0.66125670007E+01 -0.30322928649E+02  0.89389583301E+00  0.93951568575E+02  0.88672950463E+02 0.  0.
         13    1    3    3    0    0  0.18267353542E+02 -0.25391316526E+02 -0.40209814628E+02  0.50943650407E+02  0.10566000000E+00 0.  1.
         22    1    1    0    0    0 -0.66125670007E+01  0.30322928649E+02 -0.89389583301E+00  0.31048431425E+02  0.00000000000E+00 0.  1.
</event>
<event>
 5    1  0.1325686E-009  0.9118800E+02  0.7818608E-02  0.1130116E+00
         25   -1    0    0    0    0  0.00000000000E+00  0.00000000000E+00  0.99999998245E-14  0.12500000000E+03  0.12500000000E+03 0.  0.
        -13    1    3    3    0    0  0.60479348511E+01 -0.50261015103E+01 -0.40938677445E+02  0.41687236504E+02  0.10566000000E+00 0.  1.
         23    2    1    0    0    0 -0.14485978819E+01  0.29047058652E+02  0.57099496949E+00  0.95911237781E+02  0.91393705721E+02 0.  0.
         13    1    3    3    0    0 -0.74965327330E+01  0.34073160162E+02  0.41509672415E+02  0.54224001277E+02  0.10566000000E+00 0. -1.
         22    1    1    0    0    0  0.14485978819E+01 -0.29047058652E+02 -0.57099496949E+00  0.29088762219E+02  0.00000000000E+00 0. -1.
</event>
<event>
 5    1  0.1325686E-009  0.9118800E+02  0.7818608E-02  0.1130116E+00
         25   -1    0    0    0    0  0.00000000000E+00  0.00000000000E+00  0.99999998245E-14  0.12500000000E+03  0.12500000000E+03 0.  0.
        -13    1    3    3    0    0 -0.78743501451E+01 -0.64950528960E+01 -0.54802031714E+02  0.55744640517E+02  0.10566000000E+00 0.  1.
         23    2    1    0    0    0  0.85861269348E+00  0.17131275418E+02 -0.22583640968E+02  0.96640898241E+02  0.92386279070E+02 0.  0.
         13    1    3    3    0    0  0.87329628386E+01  0.23626328314E+02  0.32218390747E+02  0.40896257725E+02  0.10566000000E+00 0. -1.
         22    1    1    0    0    0 -0.85861269348E+00 -0.17131275418E+02  0.22583640968E+02  0.28359101759E+02  0.00000000000E+00 0.  1.
</event>
<event>
 5    1  0.1325686E-009  0.9118800E+02  0.7818608E-02  0.1130116E+00
         25   -1    0    0    0    0  0.00000000000E+00  0.00000000000E+00  0.99999998245E-14  0.12500000000E+03  0.12500000000E+03 0.  0.
        -13    1    3    3    0    0  0.46998785802E+02  0.37678361211E+02 -0.85178465675E+00  0.60243518088E+02  0.10566000000E+00 0. -1.
         23    2    1    0    0    0  0.24787380477E+02  0.14329974001E+02 -0.11444942834E+02  0.94165780336E+02  0.88974406905E+02 0.  0.
         13    1    3    3    0    0 -0.22211405325E+02 -0.23348387210E+02 -0.10593158178E+02  0.33922262249E+02  0.10566000000E+00 0.  1.
         22    1    1    0    0    0 -0.24787380477E+02 -0.14329974001E+02  0.11444942834E+02  0.30834219664E+02  0.00000000000E+00 0. -1.
</event>
<event>
 5    1  0.1325686E-009  0.9118800E+02  0.7818608E-02  0.1130116E+00
         25   -1    0    0    0    0  0.00000000000E+00  0.00000000000E+00  0.99999998245E-14  0.12500000000E+03  0.12500000000E+03 0.  0.
        -13    1    3    3    0    0  0.16617544283E+02 -0.11823355411E+02 -0.21444591686E+01  0.20507178751E+02  0.10566000000E+00 0.  1.
         23    2    1    0    0    0  0.19697255617E+02  0.44177456478E+02 -0.18924765168E+01  0.76593275187E+02  0.59357550462E+02 0.  0.
         13    1    3    3    0    0  0.30797113349E+01  0.56000811889E+02  0.25198265179E+00  0.56086096436E+02  0.10566000000E+00 0. -1.
         22    1    1    0    0    0 -0.19697255617E+02 -0.44177456478E+02  0.18924765168E+01  0.48406724813E+02  0.00000000000E+00 0. -1.
</event>
<event>
 5    1  0.1325686E-009  0.9118800E+02  0.7818608E-02  0.1130116E+00
         25   -1    0    0    0    0  0.00000000000E+00  0.00000000000E+00  0.99999998245E-14  0.12500000000E+03  0.12500000000E+03 0.  0.
        -13    1    3    3    0    0  0.46071427472E+02  0.20663650964E+01  0.15694493562E+02  0.48715239774E+02  0.10566000000E+00 0. -1.
         23    2    1    0    0    0  0.68172835434E+01 -0.25163815465E+02  0.10944279939E+02  0.96725095454E+02  0.92500128992E+02 0.  0.
         13    1    3    3    0    0 -0.39254143928E+02 -0.27230180562E+02 -0.47502136228E+01  0.48009855681E+02  0.10566000000E+00 0.  1.
         22    1    1    0    0    0 -0.68172835434E+01  0.25163815465E+02 -0.10944279939E+02  0.28274904546E+02  0.00000000000E+00 0.  1.
</event>
<event>
 5    1  0.1325686E-009  0.9118800E+02  0.7818608E-02  0.1130116E+00
         25   -1    0    0    0    0  0.00000000000E+00  0.00000000000E+00  0.99999998245E-14  0.12500000000E+03  0.12500000000E+03 0.  0.
        -13    1    3    3    0    0  0.10368627479E+01  0.63778903249E+01  0.50918145584E+02  0.51326613789E+02  0.10566000000E+00 0.  1.
         23    2    1    0    0    0 -0.16514253475E+02 -0.16686816358E+02  0.16595253417E+02  0.96249820105E+02  0.91855620549E+02 0.  0.
         13    1    3    3    0    0 -0.17551116223E+02 -0.23064706682E+02 -0.34322892166E+02  0.44923206316E+02  0.10566000000E+00 0. -1.
         22    1    1    0    0    0  0.16514253475E+02  0.16686816358E+02 -0.16595253417E+02  0.28750179895E+02  0.00000000000E+00 0.  1.
</event>
<event>
 5    1  0.1325686E-009  0.9118800E+02  0.7818608E-02  0.1130116E+00
         25   -1    0    0    0    0  0.00000000000E+00  0.00000000000E+00  0.99999998245E-14  0.12500000000E+03  0.12500000000E+03 0.  0.
        -13    1    3    3    0    0 -0.55852965606E+01  0.30710188326E+02  0.32445652654E+02  0.45022691444E+02  0.10566000000E+00 0.  1.
         23    2    1    0    0    0 -0.28080715658E+02 -0.63648678335E+01  0.67624287357E+01  0.95423513109E+02  0.90724187939E+02 0.  0.
         13    1    3    3    0    0 -0.22495419097E+02 -0.37075056159E+02 -0.25683223919E+02  0.50400821665E+02  0.10566000000E+00 0. -1.
         22    1    1    0    0    0  0.28080715658E+02  0.63648678335E+01 -0.67624287357E+01  0.29576486891E+02  0.00000000000E+00 0. -1.
</event>
<event>
 5    1  0.1325686E-009  0.9118800E+02  0.7818608E-02  0.1130116E+00
         25   -1    0    0    0    0  0.00000000000E+00  0.00000000000E+00  0.99999998245E-14  0.12500000000E+03  0.12500000000E+03 0.  0.
        -13    1    3    3    0    0 -0.34406698508E+02  0.41007232489E+01  0.32741423247E+02  0.47672306360E+02  0.10566000000E+00 0. -1.
         23    2    1    0    0    0 -0.20102298616E+02  0.17643968581E+02 -0.11334775830E+02  0.95950229260E+02  0.91447019170E+02 0.  0.
         13    1    3    3    0    0  0.14304399892E+02  0.13543245332E+02 -0.44076199077E+02  0.48277922900E+02  0.10566000000E+00 0.  1.
         22    1    1    0    0    0  0.20102298616E+02 -0.17643968581E+02  0.11334775830E+02  0.29049770740E+02  0.00000000000E+00 0. -1.
</event>
<event>
 5    1  0.1325686E-009  0.9118800E+02  0.7818608E-02  0.1130116E+00
         25   -1    0    0    0    0  0.00000000000E+00  0.00000000000E+00  0.99999998245E-14  0.12500000000E+03  0.12500000000E+03 0.  0.
        -13    1    3    3    0    0 -0.22775937671E+02  0.28679283164E+01 -0.32988291336E+02  0.40189636461E+02  0.10566000000E+00 0.  1.
         23    2    1    0    0    0 -0.19349961069E+01 -0.28954950247E+02  0.67556701019E+01  0.95204489729E+02  0.90421913452E+02 0.  0.
         13    1    3    3    0    0  0.20840941564E+02 -0.31822878564E+02  0.39743961438E+02  0.55014853268E+02  0.10566000000E+00 0. -1.
         22    1    1    0    0    0  0.19349961069E+01  0.28954950247E+02 -0.67556701019E+01  0.29795510271E+02  0.00000000000E+00 0. -1.
</event>
<event>
 5    1  0.1325686E-009  0.9118800E+02  0.7818608E-02  0.1130116E+00
         25   -1    0    0    0    0  0.00000000000E+00  0.00000000000E+00  0.99999998245E-14  0.12500000000E+03  0.12500000000E+03 0.  0.
        -13    1    3    3    0    0 -0.58590781324E+01 -0.30910191618E+02  0.16592438060E+02  0.35568088327E+02  0.10566000000E+00 0.  1.
         23    2    1    0    0    0  0.36880739268E+00  0.84920906524E+01 -0.28198750177E+02  0.95547985908E+02  0.90895525066E+02 0.  0.
         13    1    3    3    0    0  0.62278855250E+01  0.39402282270E+02 -0.44791188236E+02  0.59979897581E+02  0.10566000000E+00 0. -1.
         22    1    1    0    0    0 -0.36880739268E+00 -0.84920906524E+01  0.28198750177E+02  0.29452014092E+02  0.00000000000E+00 0. -1.
</event>
<event>
 5    1  0.1325686E-009  0.9118800E+02  0.7818608E-02  0.1130116E+00
         25   -1    0    0    0    0  0.00000000000E+00  0.00000000000E+00  0.99999998245E-14  0.12500000000E+03  0.12500000000E+03 0.  0.
        -13    1    3    3    0    0  0.48698912757E+02 -0.25817660725E+02 -0.15770127567E+02  0.57331002055E+02  0.10566000000E+00 0.  1.
         23    2    1    0    0    0  0.18614155510E+02 -0.57386686871E+01 -0.23661883850E+02  0.94351935608E+02  0.89235552903E+02 0.  0.
         13    1    3    3    0    0 -0.30084757247E+02  0.20078992038E+02 -0.78917562828E+01  0.37020933553E+02  0.10566000000E+00 0. -1.
         22    1    1    0    0    0 -0.18614155510E+02  0.57386686871E+01  0.23661883850E+02  0.30648064392E+02  0.00000000000E+00 0.  1.
</event>
<event>
 5    1  0.1325686E-009  0.9118800E+02  0.7818608E-02  0.1130116E+00
         25   -1    0    0    0    0  0.00000000000E+00  0.00000000000E+00  0.99999998245E-14  0.12500000000E+03  0.12500000000E+03 0.  0.
        -13    1    3    3    0    0 -0.26942778223E+02 -0.92206957733E+01  0.31588228333E+02  0.42529541053E+02  0.10566000000E+00 0.  1.
         23    2    1    0    0    0  0.52725080284E+01  0.24763297834E+02  0.24275866376E+02  0.89923826480E+02  0.82800704224E+02 0.  0.
         13    1    3    3    0    0  0.32215286251E+02  0.33983993607E+02 -0.73123619576E+01  0.47394285427E+02  0.10566000000E+00 0. -1.
         22    1    1    0    0    0 -0.52725080284E+01 -0.24763297834E+02 -0.24275866376E+02  0.35076173520E+02  0.00000000000E+00 0.  1.
</event>
<event>
 5    1  0.1325686E-009  0.9118800E+02  0.7818608E-02  0.1130116E+00
         25   -1    0    0    0    0  0.00000000000E+00  0.00000000000E+00  0.99999998245E-14  0.12500000000E+03  0.12500000000E+03 0.  0.
        -13    1    3    3    0    0  0.79043472630E+01  0.26787839955E+02 -0.53405750851E+00  0.27934986246E+02  0.10566000000E+00 0. -1.
         23    2    1    0    0    0 -0.42100364523E+02  0.87394698477E+01  0.63304331121E+01  0.81538598624E+02  0.68990214204E+02 0.  0.
         13    1    3    3    0    0 -0.50004711786E+02 -0.18048370108E+02  0.68644906206E+01  0.53603612377E+02  0.10566000000E+00 0.  1.
         22    1    1    0    0    0  0.42100364523E+02 -0.87394698477E+01 -0.63304331121E+01  0.43461401376E+02  0.00000000000E+00 0.  1.
</event>
<event>
 5    1  0.1325686E-009  0.9118800E+02  0.7818608E-02  0.1130116E+00
         25   -1    0    0    0    0  0.00000000000E+00  0.00000000000E+00  0.99999998245E-14  0.12500000000E+03  0.12500000000E+03 0.  0.
        -13    1    3    3    0    0 -0.46907500683E+02  0.39159675118E+02 -0.12546769182E+02  0.62379695067E+02  0.10566000000E+00 0. -1.
         23    2    1    0    0    0 -0.23306243325E+02  0.17853808936E+02 -0.35267692135E+01  0.95430123901E+02  0.90733295847E+02 0.  0.
         13    1    3    3    0    0  0.23601257357E+02 -0.21305866183E+02  0.90199999685E+01  0.33050428834E+02  0.10566000000E+00 0.  1.
         22    1    1    0    0    0  0.23306243325E+02 -0.17853808936E+02  0.35267692135E+01  0.29569876099E+02  0.00000000000E+00 0. -1.
</event>
<event>
 5    1  0.1325686E-009  0.9118800E+02  0.7818608E-02  0.1130116E+00
         25   -1    0    0    0    0  0.00000000000E+00  0.00000000000E+00  0.99999998245E-14  0.12500000000E+03  0.12500000000E+03 0.  0.
        -13    1    3    3    0    0 -0.32327517196E+02  0.14430269380E+02 -0.15602570659E+02  0.38687884636E+02  0.10566000000E+00 0. -1.
         23    2    1    0    0    0 -0.11209927086E+01  0.67920550104E+01  0.29859887462E+02  0.94356868385E+02  0.89242462406E+02 0.  0.
         13    1    3    3    0    0  0.31206524487E+02 -0.76382143692E+01  0.45462458121E+02  0.55668983750E+02  0.10566000000E+00 0.  1.
         22    1    1    0    0    0  0.11209927086E+01 -0.67920550104E+01 -0.29859887462E+02  0.30643131615E+02  0.00000000000E+00 0.  1.
</event>
<event>
 5    1  0.1325686E-009  0.9118800E+02  0.7818608E-02  0.1130116E+00
         25   -1    0    0    0    0  0.00000000000E+00  0.00000000000E+00  0.99999998245E-14  0.12500000000E+03  0.12500000000E+03 0.  0.
        -13    1    3    3    0    0 -0.20646907786E+01  0.18544271057E+02 -0.31046374339E+02  0.36222112869E+02  0.10566000000E+00 0. -1.
         23    2    1    0    0    0  0.13967857841E+02  0.50269602262E+01  0.24922845128E+02  0.95991042917E+02  0.91502790827E+02 0.  0.
         13    1    3    3    0    0  0.16032548619E+02 -0.13517310830E+02  0.55969219467E+02  0.59768930048E+02  0.10566000000E+00 0.  1.
         22    1    1    0    0    0 -0.13967857841E+02 -0.50269602262E+01 -0.24922845128E+02  0.29008957083E+02  0.00000000000E+00 0.  1.
</event>
<event>
 5    1  0.1325686E-009  0.9118800E+02  0.7818608E-02  0.1130116E+00
         25   -1    0    0    0    0  0.00000000000E+00  0.00000000000E+00  0.99999998245E-14  0.12500000000E+03  0.12500000000E+03 0.  0.
        -13    1    3    3    0    0 -0.41684564494E+02  0.21442771516E+02 -0.82421705257E+01  0.47595587047E+02  0.10566000000E+00 0.  1.
         23    2    1    0    0    0  0.46321838965E+01  0.19228860110E+02 -0.21462986013E+02  0.95813257163E+02  0.91259598349E+02 0.  0.
         13    1    3    3    0    0  0.46316748391E+02 -0.22139114060E+01 -0.13220815488E+02  0.48217670116E+02  0.10566000000E+00 0. -1.
         22    1    1    0    0    0 -0.46321838965E+01 -0.19228860110E+02  0.21462986013E+02  0.29186742837E+02  0.00000000000E+00 0. -1.
</event>
<event>
 5    1  0.1325686E-009  0.9118800E+02  0.7818608E-02  0.1130116E+00
         25   -1    0    0    0    0  0.00000000000E+00  0.00000000000E+00  0.99999998245E-14  0.12500000000E+03  0.12500000000E+03 0.  0.
        -13    1    3    3    0    0 -0.19840679738E+02 -0.15829550918E+02 -0.38815418225E+02  0.46377528079E+02  0.10566000000E+00 0.  1.
         23    2    1    0    0    0  0.13310372353E+02  0.15684688224E+02 -0.21386946853E+02  0.95325483111E+02  0.90589021288E+02 0.  0.
         13    1    3    3    0    0  0.33151052090E+02  0.31514239142E+02  0.17428471372E+02  0.48947955032E+02  0.10566000000E+00 0. -1.
         22    1    1    0    0    0 -0.13310372353E+02 -0.15684688224E+02  0.21386946853E+02  0.29674516889E+02  0.00000000000E+00 0.  1.
</event>
<event>
 5    1  0.1325686E-009  0.9118800E+02  0.7818608E-02  0.1130116E+00
         25   -1    0    0    0    0  0.00000000000E+00  0.00000000000E+00  0.99999998245E-14  0.12500000000E+03  0.12500000000E+03 0.  0.
        -13    1    3    3    0    0 -0.14076362654E+02  0.31647400324E+02 -0.11343395532E+02  0.36447026203E+02  0.10566000000E+00 0.  1.
         23    2    1    0    0    0  0.62895485380E+01 -0.24444210997E+02 -0.13917086470E+02  0.96177037490E+02  0.91756522234E+02 0.  0.
         13    1    3    3    0    0  0.20365911192E+02 -0.56091611320E+02 -0.25736909377E+01  0.59730011287E+02  0.10566000000E+00 0. -1.
         22    1    1    0    0    0 -0.62895485380E+01  0.24444210997E+02  0.13917086470E+02  0.28822962510E+02  0.00000000000E+00 0. -1.
</event>
<event>
 5    1  0.1325686E-009  0.9118800E+02  0.7818608E-02  0.1130116E+00
         25   -1    0    0    0    0  0.00000000000E+00  0.00000000000E+00  0.99999998245E-14  0.12500000000E+03  0.12500000000E+03 0.  0.
        -13    1    3    3    0    0  0.25242792084E+02 -0.69614763719E-01  0.53945199243E+02  0.59559206541E+02  0.10566000000E+00 0. -1.
         23    2    1    0    0    0  0.16937954201E+02  0.11380938026E+02  0.19590948519E+02  0.96711746134E+02  0.92482087637E+02 0.  0.
         13    1    3    3    0    0 -0.83048378822E+01  0.11450552790E+02 -0.34354250724E+02  0.37152539594E+02  0.10566000000E+00 0.  1.
         22    1    1    0    0    0 -0.16937954201E+02 -0.11380938026E+02 -0.19590948519E+02  0.28288253866E+02  0.00000000000E+00 0. -1.
</event>
<event>
 5    1  0.1325686E-009  0.9118800E+02  0.7818608E-02  0.1130116E+00
         25   -1    0    0    0    0  0.00000000000E+00  0.00000000000E+00  0.99999998245E-14  0.12500000000E+03  0.12500000000E+03 0.  0.
        -13    1    3    3    0    0  0.36528826547E+02 -0.40241347834E+02 -0.28992033878E+02  0.61597649604E+02  0.10566000000E+00 0.  1.
         23    2    1    0    0    0  0.22554542337E+02 -0.13739483684E+02 -0.12854959200E+02  0.95627721096E+02  0.91005111252E+02 0.  0.
         13    1    3    3    0    0 -0.13974284209E+02  0.26501864150E+02  0.16137074677E+02  0.34030071492E+02  0.10566000000E+00 0. -1.
         22    1    1    0    0    0 -0.22554542337E+02  0.13739483684E+02  0.12854959200E+02  0.29372278904E+02  0.00000000000E+00 0.  1.
</event>
<event>
 5    1  0.1325686E-009  0.9118800E+02  0.7818608E-02  0.1130116E+00
         25   -1    0    0    0    0  0.00000000000E+00  0.00000000000E+00  0.99999998245E-14  0.12500000000E+03  0.12500000000E+03 0.  0.
        -13    1    3    3    0    0 -0.31974910649E+02  0.20292334969E+02 -0.13291475016E+02  0.40135373944E+02  0.10566000000E+00 0.  1.
         23    2    1    0    0    0  0.23381892805E+02  0.10476676404E+02 -0.12802176862E+02  0.96357908735E+02  0.92002593354E+02 0.  0.
         13    1    3    3    0    0  0.55356803454E+02 -0.98156585647E+01  0.48929815433E+00  0.56222534791E+02  0.10566000000E+00 0. -1.
         22    1    1    0    0    0 -0.23381892805E+02 -0.10476676404E+02  0.12802176862E+02  0.28642091265E+02  0.00000000000E+00 0. -1.
</event>
<event>
 5    1  0.1325686E-009  0.9118800E+02  0.7818608E-02  0.1130116E+00
         25   -1    0    0    0    0  0.00000000000E+00  0.00000000000E+00  0.99999998245E-14  0.12500000000E+03  0.12500000000E+03 0.  0.
        -13    1    3    3    0    0  0.14814875602E+02  0.78560571618E+01  0.31493625600E+02  0.35679935407E+02  0.10566000000E+00 0.  1.
         23    2    1    0    0    0 -0.22914018487E+02 -0.16626939491E+02 -0.80486356546E+01  0.95567230916E+02  0.90921987050E+02 0.  0.
         13    1    3    3    0    0 -0.37728894088E+02 -0.24482996653E+02 -0.39542261254E+02  0.59887295509E+02  0.10566000000E+00 0. -1.
         22    1    1    0    0    0  0.22914018487E+02  0.16626939491E+02  0.80486356546E+01  0.29432769084E+02  0.00000000000E+00 0. -1.
</event>
<event>
 5    1  0.1325686E-009  0.9118800E+02  0.7818608E-02  0.1130116E+00
         25   -1    0    0    0    0  0.00000000000E+00  0.00000000000E+00  0.99999998245E-14  0.12500000000E+03  0.12500000000E+03 0.  0.
        -13    1    3    3    0    0 -0.52391749003E+02  0.24173367228E+02  0.44810775383E+01  0.57873467726E+02  0.10566000000E+00 0. -1.
         23    2    1    0    0    0 -0.20448556937E+02  0.22252015633E+02  0.14601357589E+02  0.91436696766E+02  0.85053948712E+02 0.  0.
         13    1    3    3    0    0  0.31943192065E+02 -0.19213515950E+01  0.10120280050E+02  0.33563229040E+02  0.10566000000E+00 0.  1.
         22    1    1    0    0    0  0.20448556937E+02 -0.22252015633E+02 -0.14601357589E+02  0.33563303234E+02  0.00000000000E+00 0. -1.
</event>
<event>
 5    1  0.1325686E-009  0.9118800E+02  0.7818608E-02  0.1130116E+00
         25   -1    0    0    0    0  0.00000000000E+00  0.00000000000E+00  0.99999998245E-14  0.12500000000E+03  0.12500000000E+03 0.  0.
        -13    1    3    3    0    0  0.25335469055E+02 -0.12370374677E+02  0.21250501537E+02  0.35305908025E+02  0.10566000000E+00 0.  1.
         23    2    1    0    0    0 -0.24202166019E+02  0.15791598262E+02  0.60425414407E-01  0.96101504072E+02  0.91653565222E+02 0.  0.
         13    1    3    3    0    0 -0.49537635074E+02  0.28161972939E+02 -0.21190076122E+02  0.60795596047E+02  0.10566000000E+00 0. -1.
         22    1    1    0    0    0  0.24202166019E+02 -0.15791598262E+02 -0.60425414407E-01  0.28898495928E+02  0.00000000000E+00 0. -1.
</event>
<event>
 5    1  0.1325686E-009  0.9118800E+02  0.7818608E-02  0.1130116E+00
         25   -1    0    0    0    0  0.00000000000E+00  0.00000000000E+00  0.99999998245E-14  0.12500000000E+03  0.12500000000E+03 0.  0.
        -13    1    3    3    0    0 -0.16861783840E+02 -0.14938941940E+02  0.54912973524E+02  0.59354339065E+02  0.10566000000E+00 0.  1.
         23    2    1    0    0    0 -0.58396823821E+01 -0.20061280548E+02  0.21014108178E+02  0.95366410779E+02  0.90645478072E+02 0.  0.
         13    1    3    3    0    0  0.11022101458E+02 -0.51223386084E+01 -0.33898865346E+02  0.36012071714E+02  0.10566000000E+00 0. -1.
         22    1    1    0    0    0  0.58396823821E+01  0.20061280548E+02 -0.21014108178E+02  0.29633589221E+02  0.00000000000E+00 0.  1.
</event>
<event>
 5    1  0.1325686E-009  0.9118800E+02  0.7818608E-02  0.1130116E+00
         25   -1    0    0    0    0  0.00000000000E+00  0.00000000000E+00  0.99999998245E-14  0.12500000000E+03  0.12500000000E+03 0.  0.
        -13    1    3    3    0    0 -0.10609420650E+02 -0.27909984004E+02 -0.18173706335E+02  0.34954567364E+02  0.10566000000E+00 0.  1.
         23    2    1    0    0    0 -0.41307236691E+01  0.21015492333E+02  0.18705189846E+02  0.96564143705E+02  0.92282370615E+02 0.  0.
         13    1    3    3    0    0  0.64786969807E+01  0.48925476337E+02  0.36878896181E+02  0.61609576341E+02  0.10566000000E+00 0. -1.
         22    1    1    0    0    0  0.41307236691E+01 -0.21015492333E+02 -0.18705189846E+02  0.28435856295E+02  0.00000000000E+00 0. -1.
</event>
<event>
 5    1  0.1325686E-009  0.9118800E+02  0.7818608E-02  0.1130116E+00
         25   -1    0    0    0    0  0.00000000000E+00  0.00000000000E+00  0.99999998245E-14  0.12500000000E+03  0.12500000000E+03 0.  0.
        -13    1    3    3    0    0  0.98257720443E+01  0.87158835821E+01 -0.41829950799E+02  0.43843681081E+02  0.10566000000E+00 0.  1.
         23    2    1    0    0    0  0.21561290942E+02 -0.22272818681E+02 -0.46389868643E+01  0.93655336687E+02  0.88254371970E+02 0.  0.
         13    1    3    3    0    0  0.11735518897E+02 -0.30988702263E+02  0.37190963935E+02  0.49811655606E+02  0.10566000000E+00 0. -1.
         22    1    1    0    0    0 -0.21561290942E+02  0.22272818681E+02  0.46389868643E+01  0.31344663313E+02  0.00000000000E+00 0.  1.
</event>
<event>
 5    1  0.1325686E-009  0.9118800E+02  0.7818608E-02  0.1130116E+00
         25   -1    0    0    0    0  0.00000000000E+00  0.00000000000E+00  0.99999998245E-14  0.12500000000E+03  0.12500000000E+03 0.  0.
        -13    1    3    3    0    0  0.11072270593E+01 -0.47972468147E+02  0.21056832469E+02  0.52402146993E+02  0.10566000000E+00 0.  1.
         23    2    1    0    0    0  0.23019092765E+02 -0.18680358349E+02 -0.13922403680E+01  0.95322184160E+02  0.90584469088E+02 0.  0.
         13    1    3    3    0    0  0.21911865706E+02  0.29292109798E+02 -0.22449072837E+02  0.42920037167E+02  0.10566000000E+00 0. -1.
         22    1    1    0    0    0 -0.23019092765E+02  0.18680358349E+02  0.13922403680E+01  0.29677815840E+02  0.00000000000E+00 0.  1.
</event>
<event>
 5    1  0.1325686E-009  0.9118800E+02  0.7818608E-02  0.1130116E+00
         25   -1    0    0    0    0  0.00000000000E+00  0.00000000000E+00  0.99999998245E-14  0.12500000000E+03  0.12500000000E+03 0.  0.
        -13    1    3    3    0    0 -0.46243585319E+01 -0.20457976424E+02 -0.32268214682E+02  0.38485871875E+02  0.10566000000E+00 0.  1.
         23    2    1    0    0    0  0.15565458478E+02  0.19719788698E+02  0.77800642946E+01  0.98700133758E+02  0.95131663706E+02 0.  0.
         13    1    3    3    0    0  0.20189817009E+02  0.40177765122E+02  0.40048278977E+02  0.60214261883E+02  0.10566000000E+00 0. -1.
         22    1    1    0    0    0 -0.15565458478E+02 -0.19719788698E+02 -0.77800642946E+01  0.26299866242E+02  0.00000000000E+00 0. -1.
</event>
<event>
 5    1  0.1325686E-009  0.9118800E+02  0.7818608E-02  0.1130116E+00
         25   -1    0    0    0    0  0.00000000000E+00  0.00000000000E+00  0.99999998245E-14  0.12500000000E+03  0.12500000000E+03 0.  0.
        -13    1    3    3    0    0  0.24443877521E+02  0.14756300313E+02 -0.46998090118E+02  0.54991664695E+02  0.10566000000E+00 0. -1.
         23    2    1    0    0    0 -0.10732515198E+02  0.91223289151E+01 -0.23282046516E+02  0.97788652049E+02  0.93926370165E+02 0.  0.
         13    1    3    3    0    0 -0.35176392719E+02 -0.56339713983E+01  0.23716043602E+02  0.42796987354E+02  0.10566000000E+00 0.  1.
         22    1    1    0    0    0  0.10732515198E+02 -0.91223289151E+01  0.23282046516E+02  0.27211347951E+02  0.00000000000E+00 0. -1.
</event>
<event>
 5    1  0.1325686E-009  0.9118800E+02  0.7818608E-02  0.1130116E+00
         25   -1    0    0    0    0  0.00000000000E+00  0.00000000000E+00  0.99999998245E-14  0.12500000000E+03  0.12500000000E+03 0.  0.
        -13    1    3    3    0    0 -0.36635728327E+02 -0.27801154720E+02  0.74041483047E+01  0.46582328945E+02  0.10566000000E+00 0. -1.
         23    2    1    0    0    0 -0.18762801984E+02 -0.56017910856E+01 -0.27245931908E+02  0.91447599084E+02  0.85069969854E+02 0.  0.
         13    1    3    3    0    0  0.17872926343E+02  0.22199363635E+02 -0.34650080213E+02  0.44865270139E+02  0.10566000000E+00 0.  1.
         22    1    1    0    0    0  0.18762801984E+02  0.56017910856E+01  0.27245931908E+02  0.33552400916E+02  0.00000000000E+00 0. -1.
</event>
<event>
 5    1  0.1325686E-009  0.9118800E+02  0.7818608E-02  0.1130116E+00
         25   -1    0    0    0    0  0.00000000000E+00  0.00000000000E+00  0.99999998245E-14  0.12500000000E+03  0.12500000000E+03 0.  0.
        -13    1    3    3    0    0 -0.24579233580E+02  0.95566655517E+01 -0.40700708331E+02  0.48497705126E+02  0.10566000000E+00 0.  1.
         23    2    1    0    0    0  0.50752874420E+01 -0.20368141378E+02 -0.22003829307E+02  0.94589669025E+02  0.89567947707E+02 0.  0.
         13    1    3    3    0    0  0.29654521022E+02 -0.29924806930E+02  0.18696879024E+02  0.46091963899E+02  0.10566000000E+00 0. -1.
         22    1    1    0    0    0 -0.50752874420E+01  0.20368141378E+02  0.22003829307E+02  0.30410330975E+02  0.00000000000E+00 0.  1.
</event>
<event>
 5    1  0.1325686E-009  0.9118800E+02  0.7818608E-02  0.1130116E+00
         25   -1    0    0    0    0  0.00000000000E+00  0.00000000000E+00  0.99999998245E-14  0.12500000000E+03  0.12500000000E+03 0.  0.
        -13    1    3    3    0    0  0.70371494286E+00 -0.37058769437E+02  0.16283456739E+02  0.40484685182E+02  0.10566000000E+00 0. -1.
         23    2    1    0    0    0  0.26399442593E+02  0.10279892303E+02  0.30408448955E+00  0.96668052973E+02  0.92423012520E+02 0.  0.
         13    1    3    3    0    0  0.25695727650E+02  0.47338661740E+02 -0.15979372250E+02  0.56183367791E+02  0.10566000000E+00 0.  1.
         22    1    1    0    0    0 -0.26399442593E+02 -0.10279892303E+02 -0.30408448955E+00  0.28331947027E+02  0.00000000000E+00 0.  1.
</event>
<event>
 5    1  0.1325686E-009  0.9118800E+02  0.7818608E-02  0.1130116E+00
         25   -1    0    0    0    0  0.00000000000E+00  0.00000000000E+00  0.99999998245E-14  0.12500000000E+03  0.12500000000E+03 0.  0.
        -13    1    3    3    0    0 -0.13864309267E+02 -0.39441587682E+02  0.51684428550E+01  0.42125786353E+02  0.10566000000E+00 0. -1.
         23    2    1    0    0    0  0.25812371386E+02 -0.17576175062E+01 -0.70306704329E+01  0.98189590406E+02  0.94458443781E+02 0.  0.
         13    1    3    3    0    0  0.39676680652E+02  0.37683970176E+02 -0.12199113288E+02  0.56063804053E+02  0.10566000000E+00 0.  1.
         22    1    1    0    0    0 -0.25812371386E+02  0.17576175062E+01  0.70306704329E+01  0.26810409594E+02  0.00000000000E+00 0.  1.
</event>
<event>
 5    1  0.1325686E-009  0.9118800E+02  0.7818608E-02  0.1130116E+00
         25   -1    0    0    0    0  0.00000000000E+00  0.00000000000E+00  0.99999998245E-14  0.12500000000E+03  0.12500000000E+03 0.  0.
        -13    1    3    3    0    0  0.26223873648E+02 -0.24427581519E+02 -0.67106798033E+01  0.36461523219E+02  0.10566000000E+00 0.  1.
         23    2    1    0    0    0 -0.65528514609E+01  0.26708215629E+02 -0.33978663696E+01  0.97290540601E+02  0.93261112743E+02 0.  0.
         13    1    3    3    0    0 -0.32776725109E+02  0.51135797147E+02  0.33128134337E+01  0.60829017382E+02  0.10566000000E+00 0. -1.
         22    1    1    0    0    0  0.65528514609E+01 -0.26708215629E+02  0.33978663696E+01  0.27709459399E+02  0.00000000000E+00 0. -1.
</event>
<event>
 5    1  0.1325686E-009  0.9118800E+02  0.7818608E-02  0.1130116E+00
         25   -1    0    0    0    0  0.00000000000E+00  0.00000000000E+00  0.99999998245E-14  0.12500000000E+03  0.12500000000E+03 0.  0.
        -13    1    3    3    0    0  0.49029263392E+02  0.19212728231E+02  0.13421496235E+02  0.54342849760E+02  0.10566000000E+00 0.  1.
         23    2    1    0    0    0  0.80396720466E+01  0.25935705713E+02  0.10160455066E+02  0.96008070009E+02  0.91526048217E+02 0.  0.
         13    1    3    3    0    0 -0.40989591345E+02  0.67229774818E+01 -0.32610411688E+01  0.41665220249E+02  0.10566000000E+00 0. -1.
         22    1    1    0    0    0 -0.80396720466E+01 -0.25935705713E+02 -0.10160455066E+02  0.28991929991E+02  0.00000000000E+00 0.  1.
</event>
<event>
 5    1  0.1325686E-009  0.9118800E+02  0.7818608E-02  0.1130116E+00
         25   -1    0    0    0    0  0.00000000000E+00  0.00000000000E+00  0.99999998245E-14  0.12500000000E+03  0.12500000000E+03 0.  0.
        -13    1    3    3    0    0 -0.16180943539E+02 -0.56127678385E+01  0.46343171181E+02  0.49406748281E+02  0.10566000000E+00 0.  1.
         23    2    1    0    0    0 -0.25348664146E+02  0.10021572130E+02  0.15840000285E+01  0.97696232164E+02  0.93803294404E+02 0.  0.
         13    1    3    3    0    0 -0.91677206077E+01  0.15634339968E+02 -0.44759171152E+02  0.48289483883E+02  0.10566000000E+00 0. -1.
         22    1    1    0    0    0  0.25348664146E+02 -0.10021572130E+02 -0.15840000285E+01  0.27303767836E+02  0.00000000000E+00 0.  1.
</event>
<event>
 5    1  0.1325686E-009  0.9118800E+02  0.7818608E-02  0.1130116E+00
         25   -1    0    0    0    0  0.00000000000E+00  0.00000000000E+00  0.99999998245E-14  0.12500000000E+03  0.12500000000E+03 0.  0.
        -13    1    3    3    0    0 -0.37782220523E+02 -0.71027584098E+01  0.36630564919E+02  0.53101363588E+02  0.10566000000E+00 0. -1.
         23    2    1    0    0    0 -0.21527746849E+02  0.18728024901E+02  0.70406632687E+01  0.95610312347E+02  0.90981196336E+02 0.  0.
         13    1    3    3    0    0  0.16254473673E+02  0.25830783311E+02 -0.29589901650E+02  0.42508948758E+02  0.10566000000E+00 0.  1.
         22    1    1    0    0    0  0.21527746849E+02 -0.18728024901E+02 -0.70406632687E+01  0.29389687653E+02  0.00000000000E+00 0. -1.
</event>
<event>
 5    1  0.1325686E-009  0.9118800E+02  0.7818608E-02  0.1130116E+00
         25   -1    0    0    0    0  0.00000000000E+00  0.00000000000E+00  0.99999998245E-14  0.12500000000E+03  0.12500000000E+03 0.  0.
        -13    1    3    3    0    0  0.48538484516E+01 -0.48996971983E+02 -0.13761912738E+02  0.51124011135E+02  0.10566000000E+00 0. -1.
         23    2    1    0    0    0  0.65872934383E+01 -0.66285879050E+01 -0.27704892648E+02  0.95761469101E+02  0.91188635670E+02 0.  0.
         13    1    3    3    0    0  0.17334449866E+01  0.42368384078E+02 -0.13942979911E+02  0.44637457966E+02  0.10566000000E+00 0.  1.
         22    1    1    0    0    0 -0.65872934383E+01  0.66285879050E+01  0.27704892648E+02  0.29238530899E+02  0.00000000000E+00 0. -1.
</event>
<event>
 5    1  0.1325686E-009  0.9118800E+02  0.7818608E-02  0.1130116E+00
         25   -1    0    0    0    0  0.00000000000E+00  0.00000000000E+00  0.99999998245E-14  0.12500000000E+03  0.12500000000E+03 0.  0.
        -13    1    3    3    0    0 -0.37200339236E+02  0.16234160955E+02  0.47404863457E+02  0.62407094666E+02  0.10566000000E+00 0.  1.
         23    2    1    0    0    0 -0.18169441261E+02  0.58986022297E+01  0.19894216856E+02  0.97419173901E+02  0.93433363823E+02 0.  0.
         13    1    3    3    0    0  0.19030897975E+02 -0.10335558726E+02 -0.27510646601E+02  0.35012079235E+02  0.10566000000E+00 0. -1.
         22    1    1    0    0    0  0.18169441261E+02 -0.58986022297E+01 -0.19894216856E+02  0.27580826099E+02  0.00000000000E+00 0.  1.
</event>
<event>
 5    1  0.1325686E-009  0.9118800E+02  0.7818608E-02  0.1130116E+00
         25   -1    0    0    0    0  0.00000000000E+00  0.00000000000E+00  0.99999998245E-14  0.12500000000E+03  0.12500000000E+03 0.  0.
        -13    1    3    3    0    0 -0.33165350291E+02  0.19957363932E+02  0.10078326274E+02  0.39997758182E+02  0.10566000000E+00 0.  1.
         23    2    1    0    0    0  0.47468218006E+01 -0.20467295550E+02  0.19642080849E+02  0.96237979132E+02  0.91839505569E+02 0.  0.
         13    1    3    3    0    0  0.37912172092E+02 -0.40424659482E+02  0.95637545742E+01  0.56240220950E+02  0.10566000000E+00 0. -1.
         22    1    1    0    0    0 -0.47468218006E+01  0.20467295550E+02 -0.19642080849E+02  0.28762020868E+02  0.00000000000E+00 0. -1.
</event>
<event>
 5    1  0.1325686E-009  0.9118800E+02  0.7818608E-02  0.1130116E+00
         25   -1    0    0    0    0  0.00000000000E+00  0.00000000000E+00  0.99999998245E-14  0.12500000000E+03  0.12500000000E+03 0.  0.
        -13    1    3    3    0    0  0.33044466959E+02  0.78203017375E+01 -0.51704637629E+02  0.61858504930E+02  0.10566000000E+00 0.  1.
         23    2    1    0    0    0  0.16988668242E+02 -0.68363386944E+00 -0.32656938952E+02  0.88182098571E+02  0.80128176336E+02 0.  0.
         13    1    3    3    0    0 -0.16055798717E+02 -0.85039356070E+01  0.19047698677E+02  0.26323593641E+02  0.10566000000E+00 0. -1.
         22    1    1    0    0    0 -0.16988668242E+02  0.68363386944E+00  0.32656938952E+02  0.36817901429E+02  0.00000000000E+00 0.  1.
</event>
<event>
 5    1  0.1325686E-009  0.9118800E+02  0.7818608E-02  0.1130116E+00
         25   -1    0    0    0    0  0.00000000000E+00  0.00000000000E+00  0.99999998245E-14  0.12500000000E+03  0.12500000000E+03 0.  0.
        -13    1    3    3    0    0  0.32017843645E+02  0.13108484822E+02  0.19834861955E+02  0.39879914730E+02  0.10566000000E+00 0.  1.
         23    2    1    0    0    0  0.13722601010E+02 -0.20966366777E+02 -0.18126659256E+02  0.94073084699E+02  0.88844083510E+02 0.  0.
         13    1    3    3    0    0 -0.18295242635E+02 -0.34074851599E+02 -0.37961521211E+02  0.54193169969E+02  0.10566000000E+00 0. -1.
         22    1    1    0    0    0 -0.13722601010E+02  0.20966366777E+02  0.18126659256E+02  0.30926915301E+02  0.00000000000E+00 0. -1.
</event>
<event>
 5    1  0.1325686E-009  0.9118800E+02  0.7818608E-02  0.1130116E+00
         25   -1    0    0    0    0  0.00000000000E+00  0.00000000000E+00  0.99999998245E-14  0.12500000000E+03  0.12500000000E+03 0.  0.
        -13    1    3    3    0    0 -0.41716960034E+01  0.15267555362E+02  0.32097009881E+02  0.35787295254E+02  0.10566000000E+00 0. -1.
         23    2    1    0    0    0 -0.11372243756E+02 -0.27297281455E+02 -0.76358514863E+01  0.94458622644E+02  0.89384873782E+02 0.  0.
         13    1    3    3    0    0 -0.72005477522E+01 -0.42564836817E+02 -0.39732861367E+02  0.58671327390E+02  0.10566000000E+00 0.  1.
         22    1    1    0    0    0  0.11372243756E+02  0.27297281455E+02  0.76358514863E+01  0.30541377356E+02  0.00000000000E+00 0.  1.
</event>
<event>
 5    1  0.1325686E-009  0.9118800E+02  0.7818608E-02  0.1130116E+00
         25   -1    0    0    0    0  0.00000000000E+00  0.00000000000E+00  0.99999998245E-14  0.12500000000E+03  0.12500000000E+03 0.  0.
        -13    1    3    3    0    0  0.36916743282E+02  0.24246172407E+02  0.12712830002E+02  0.45960309199E+02  0.10566000000E+00 0.  1.
         23    2    1    0    0    0 -0.72156580294E+01  0.30497386147E+02  0.14279230132E+02  0.90560884219E+02  0.83756916460E+02 0.  0.
         13    1    3    3    0    0 -0.44132401312E+02  0.62512137403E+01  0.15664001299E+01  0.44600575021E+02  0.10566000000E+00 0. -1.
         22    1    1    0    0    0  0.72156580294E+01 -0.30497386147E+02 -0.14279230132E+02  0.34439115781E+02  0.00000000000E+00 0. -1.
</event>
<event>
 5    1  0.1325686E-009  0.9118800E+02  0.7818608E-02  0.1130116E+00
         25   -1    0    0    0    0  0.00000000000E+00  0.00000000000E+00  0.99999998245E-14  0.12500000000E+03  0.12500000000E+03 0.  0.
        -13    1    3    3    0    0  0.32241929834E+01 -0.73886378570E+01  0.56002848159E+02  0.56580186954E+02  0.10566000000E+00 0. -1.
         23    2    1    0    0    0 -0.12871853899E+02  0.94555917357E+01  0.24218840203E+02  0.95988880431E+02  0.91499836654E+02 0.  0.
         13    1    3    3    0    0 -0.16096046882E+02  0.16844229593E+02 -0.31784007956E+02  0.39408693477E+02  0.10566000000E+00 0.  1.
         22    1    1    0    0    0  0.12871853899E+02 -0.94555917357E+01 -0.24218840203E+02  0.29011119569E+02  0.00000000000E+00 0. -1.
</event>
<event>
 5    1  0.1325686E-009  0.9118800E+02  0.7818608E-02  0.1130116E+00
         25   -1    0    0    0    0  0.00000000000E+00  0.00000000000E+00  0.99999998245E-14  0.12500000000E+03  0.12500000000E+03 0.  0.
        -13    1    3    3    0    0  0.23427048903E+02 -0.45640896389E+02  0.27156373095E+02  0.58046514170E+02  0.10566000000E+00 0. -1.
         23    2    1    0    0    0  0.97061977913E+01 -0.10698105938E+02  0.25584031789E+02  0.95619693180E+02  0.90994083847E+02 0.  0.
         13    1    3    3    0    0 -0.13720851111E+02  0.34942790451E+02 -0.15723413063E+01  0.37573179011E+02  0.10566000000E+00 0.  1.
         22    1    1    0    0    0 -0.97061977913E+01  0.10698105938E+02 -0.25584031789E+02  0.29380306820E+02  0.00000000000E+00 0. -1.
</event>
<event>
 5    1  0.1325686E-009  0.9118800E+02  0.7818608E-02  0.1130116E+00
         25   -1    0    0    0    0  0.00000000000E+00  0.00000000000E+00  0.99999998245E-14  0.12500000000E+03  0.12500000000E+03 0.  0.
        -13    1    3    3    0    0  0.30980008883E+02  0.46143943032E+02  0.23494700675E+02  0.60341002252E+02  0.10566000000E+00 0. -1.
         23    2    1    0    0    0  0.30822085401E+01  0.23279756319E+02  0.45623682776E+01  0.10107799615E+03  0.98206410372E+02 0.  0.
         13    1    3    3    0    0 -0.27897800343E+02 -0.22864186713E+02 -0.18932332397E+02  0.40736993901E+02  0.10566000000E+00 0.  1.
         22    1    1    0    0    0 -0.30822085401E+01 -0.23279756319E+02 -0.45623682776E+01  0.23922003847E+02  0.00000000000E+00 0. -1.
</event>
<event>
 5    1  0.1325686E-009  0.9118800E+02  0.7818608E-02  0.1130116E+00
         25   -1    0    0    0    0  0.00000000000E+00  0.00000000000E+00  0.99999998245E-14  0.12500000000E+03  0.12500000000E+03 0.  0.
        -13    1    3    3    0    0 -0.80788788746E+01 -0.19325627368E+02 -0.30617573664E+02  0.37097104175E+02  0.10566000000E+00 0.  1.
         23    2    1    0    0    0  0.27323051815E+02 -0.15386005277E+01  0.11851786904E+02  0.95177503376E+02  0.90384599596E+02 0.  0.
         13    1    3    3    0    0  0.35401930689E+02  0.17787026840E+02  0.42469360568E+02  0.58080399202E+02  0.10566000000E+00 0. -1.
         22    1    1    0    0    0 -0.27323051815E+02  0.15386005277E+01 -0.11851786904E+02  0.29822496624E+02  0.00000000000E+00 0. -1.
</event>
<event>
 5    1  0.1325686E-009  0.9118800E+02  0.7818608E-02  0.1130116E+00
         25   -1    0    0    0    0  0.00000000000E+00  0.00000000000E+00  0.99999998245E-14  0.12500000000E+03  0.12500000000E+03 0.  0.
        -13    1    3    3    0    0 -0.22700277905E+02 -0.26691443610E+02 -0.21700991026E+01  0.35106356591E+02  0.10566000000E+00 0. -1.
         23    2    1    0    0    0  0.18770719151E+02  0.16001565042E+02  0.13807302324E+02  0.96732853368E+02  0.92510612051E+02 0.  0.
         13    1    3    3    0    0  0.41470997056E+02  0.42693008653E+02  0.15977401426E+02  0.61626496777E+02  0.10566000000E+00 0.  1.
         22    1    1    0    0    0 -0.18770719151E+02 -0.16001565042E+02 -0.13807302324E+02  0.28267146632E+02  0.00000000000E+00 0.  1.
</event>
<event>
 5    1  0.1325686E-009  0.9118800E+02  0.7818608E-02  0.1130116E+00
         25   -1    0    0    0    0  0.00000000000E+00  0.00000000000E+00  0.99999998245E-14  0.12500000000E+03  0.12500000000E+03 0.  0.
        -13    1    3    3    0    0 -0.32866800185E+02 -0.44117191581E+01  0.48838071045E+02  0.59032687282E+02  0.10566000000E+00 0. -1.
         23    2    1    0    0    0 -0.15452145500E+01 -0.35621499792E+00  0.28187573754E+02  0.96767857125E+02  0.92557896915E+02 0.  0.
         13    1    3    3    0    0  0.31321585635E+02  0.40555041601E+01 -0.20650497291E+02  0.37735169843E+02  0.10566000000E+00 0.  1.
         22    1    1    0    0    0  0.15452145500E+01  0.35621499792E+00 -0.28187573754E+02  0.28232142875E+02  0.00000000000E+00 0. -1.
</event>
<event>
 5    1  0.1325686E-009  0.9118800E+02  0.7818608E-02  0.1130116E+00
         25   -1    0    0    0    0  0.00000000000E+00  0.00000000000E+00  0.99999998245E-14  0.12500000000E+03  0.12500000000E+03 0.  0.
        -13    1    3    3    0    0  0.55380587614E+02  0.12207018169E+01  0.16404683180E+02  0.57772176623E+02  0.10566000000E+00 0. -1.
         23    2    1    0    0    0  0.26093044412E+02 -0.14296803498E+02 -0.10430338496E+01  0.95228646713E+02  0.90455302101E+02 0.  0.
         13    1    3    3    0    0 -0.29287543203E+02 -0.15517505315E+02 -0.17447717030E+02  0.37456470090E+02  0.10566000000E+00 0.  1.
         22    1    1    0    0    0 -0.26093044412E+02  0.14296803498E+02  0.10430338496E+01  0.29771353287E+02  0.00000000000E+00 0. -1.
</event>
<event>
 5    1  0.1325686E-009  0.9118800E+02  0.7818608E-02  0.1130116E+00
         25   -1    0    0    0    0  0.00000000000E+00  0.00000000000E+00  0.99999998245E-14  0.12500000000E+03  0.12500000000E+03 0.  0.
        -13    1    3    3    0    0  0.25761372709E+02  0.80161935303E+01  0.20452208463E+02  0.33855748073E+02  0.10566000000E+00 0.  1.
         23    2    1    0    0    0 -0.25425791374E+02 -0.15520796905E+01 -0.13647748280E+02  0.96101196366E+02  0.91653145563E+02 0.  0.
         13    1    3    3    0    0 -0.51187164082E+02 -0.95682732208E+01 -0.34099956744E+02  0.62245448293E+02  0.10566000000E+00 0. -1.
         22    1    1    0    0    0  0.25425791374E+02  0.15520796905E+01  0.13647748280E+02  0.28898803634E+02  0.00000000000E+00 0. -1.
</event>
<event>
 5    1  0.1325686E-009  0.9118800E+02  0.7818608E-02  0.1130116E+00
         25   -1    0    0    0    0  0.00000000000E+00  0.00000000000E+00  0.99999998245E-14  0.12500000000E+03  0.12500000000E+03 0.  0.
        -13    1    3    3    0    0  0.48852139822E+02 -0.30280271503E+02 -0.96699238727E+01  0.58283316645E+02  0.10566000000E+00 0. -1.
         23    2    1    0    0    0  0.25440162744E+02 -0.15242261058E+02  0.11442861780E+02  0.93212148731E+02  0.87624409742E+02 0.  0.
         13    1    3    3    0    0 -0.23411977078E+02  0.15038010444E+02  0.21112785653E+02  0.34928832085E+02  0.10566000000E+00 0.  1.
         22    1    1    0    0    0 -0.25440162744E+02  0.15242261058E+02 -0.11442861780E+02  0.31787851269E+02  0.00000000000E+00 0. -1.
</event>
<event>
 5    1  0.1325686E-009  0.9118800E+02  0.7818608E-02  0.1130116E+00
         25   -1    0    0    0    0  0.00000000000E+00  0.00000000000E+00  0.99999998245E-14  0.12500000000E+03  0.12500000000E+03 0.  0.
        -13    1    3    3    0    0  0.19656623773E+02 -0.13803708738E+02  0.15674407711E+02  0.28681413044E+02  0.10566000000E+00 0.  1.
         23    2    1    0    0    0  0.19129301139E+02  0.14226166260E+02 -0.32664261720E+02  0.84561553415E+02  0.74265660663E+02 0.  0.
         13    1    3    3    0    0 -0.52732263363E+00  0.28029874998E+02 -0.48338669430E+02  0.55880140371E+02  0.10566000000E+00 0. -1.
         22    1    1    0    0    0 -0.19129301139E+02 -0.14226166260E+02  0.32664261720E+02  0.40438446585E+02  0.00000000000E+00 0. -1.
</event>
<event>
 5    1  0.1325686E-009  0.9118800E+02  0.7818608E-02  0.1130116E+00
         25   -1    0    0    0    0  0.00000000000E+00  0.00000000000E+00  0.99999998245E-14  0.12500000000E+03  0.12500000000E+03 0.  0.
        -13    1    3    3    0    0 -0.37499665873E+02  0.10169616132E+02  0.16741495549E+02  0.42307621892E+02  0.10566000000E+00 0. -1.
         23    2    1    0    0    0 -0.40920811125E+01 -0.14813289180E+02 -0.21279893644E+02  0.98750951681E+02  0.95198413433E+02 0.  0.
         13    1    3    3    0    0  0.33407584761E+02 -0.24982905312E+02 -0.38021389193E+02  0.56443329789E+02  0.10566000000E+00 0.  1.
         22    1    1    0    0    0  0.40920811125E+01  0.14813289180E+02  0.21279893644E+02  0.26249048319E+02  0.00000000000E+00 0.  1.
</event>
<event>
 5    1  0.1325686E-009  0.9118800E+02  0.7818608E-02  0.1130116E+00
         25   -1    0    0    0    0  0.00000000000E+00  0.00000000000E+00  0.99999998245E-14  0.12500000000E+03  0.12500000000E+03 0.  0.
        -13    1    3    3    0    0  0.36679887596E+01 -0.27000838972E+02  0.40217828970E+02  0.48579670418E+02  0.10566000000E+00 0.  1.
         23    2    1    0    0    0 -0.40075540318E+01 -0.28058378233E+02 -0.64878749673E+01  0.95923796672E+02  0.91410881015E+02 0.  0.
         13    1    3    3    0    0 -0.76755427914E+01 -0.10575392608E+01 -0.46705703938E+02  0.47344126254E+02  0.10566000000E+00 0. -1.
         22    1    1    0    0    0  0.40075540318E+01  0.28058378233E+02  0.64878749673E+01  0.29076203328E+02  0.00000000000E+00 0.  1.
</event>
<event>
 5    1  0.1325686E-009  0.9118800E+02  0.7818608E-02  0.1130116E+00
         25   -1    0    0    0    0  0.00000000000E+00  0.00000000000E+00  0.99999998245E-14  0.12500000000E+03  0.12500000000E+03 0.  0.
        -13    1    3    3    0    0  0.40131923451E+02 -0.14365238047E+01 -0.16938974591E+02  0.43584112986E+02  0.10566000000E+00 0.  1.
         23    2    1    0    0    0  0.11535076432E+02 -0.26980520637E+01  0.26709337862E+02  0.95781406566E+02  0.91215961550E+02 0.  0.
         13    1    3    3    0    0 -0.28596847020E+02 -0.12615282590E+01  0.43648312454E+02  0.52197293580E+02  0.10566000000E+00 0. -1.
         22    1    1    0    0    0 -0.11535076432E+02  0.26980520637E+01 -0.26709337862E+02  0.29218593434E+02  0.00000000000E+00 0. -1.
</event>
<event>
 5    1  0.1325686E-009  0.9118800E+02  0.7818608E-02  0.1130116E+00
         25   -1    0    0    0    0  0.00000000000E+00  0.00000000000E+00  0.99999998245E-14  0.12500000000E+03  0.12500000000E+03 0.  0.
        -13    1    3    3    0    0  0.14185017317E+02  0.33359620984E+02  0.39353490071E+02  0.53505021945E+02  0.10566000000E+00 0. -1.
         23    2    1    0    0    0 -0.16145765478E+02  0.20509545429E+02  0.12234298312E+02  0.96172838299E+02  0.91750801493E+02 0.  0.
         13    1    3    3    0    0 -0.30330782795E+02 -0.12850075556E+02 -0.27119191758E+02  0.42667816354E+02  0.10566000000E+00 0.  1.
         22    1    1    0    0    0  0.16145765478E+02 -0.20509545429E+02 -0.12234298312E+02  0.28827161701E+02  0.00000000000E+00 0. -1.
</event>
<event>
 5    1  0.1325686E-009  0.9118800E+02  0.7818608E-02  0.1130116E+00
         25   -1    0    0    0    0  0.00000000000E+00  0.00000000000E+00  0.99999998245E-14  0.12500000000E+03  0.12500000000E+03 0.  0.
        -13    1    3    3    0    0  0.38560087194E+02  0.12929370260E+02 -0.17988662180E+02  0.44470800204E+02  0.10566000000E+00 0.  1.
         23    2    1    0    0    0  0.13093169743E+02 -0.27644788020E+02 -0.67910505489E+01  0.93666571108E+02  0.88270282525E+02 0.  0.
         13    1    3    3    0    0 -0.25466917451E+02 -0.40574158280E+02  0.11197611631E+02  0.49195770904E+02  0.10566000000E+00 0. -1.
         22    1    1    0    0    0 -0.13093169743E+02  0.27644788020E+02  0.67910505489E+01  0.31333428892E+02  0.00000000000E+00 0. -1.
</event>
<event>
 5    1  0.1325686E-009  0.9118800E+02  0.7818608E-02  0.1130116E+00
         25   -1    0    0    0    0  0.00000000000E+00  0.00000000000E+00  0.99999998245E-14  0.12500000000E+03  0.12500000000E+03 0.  0.
        -13    1    3    3    0    0 -0.34988463768E+02 -0.44410114610E+02  0.81896787792E+00  0.56543193657E+02  0.10566000000E+00 0. -1.
         23    2    1    0    0    0  0.18756885521E+01 -0.26738023750E+02  0.53262209009E+01  0.97672198210E+02  0.93771261869E+02 0.  0.
         13    1    3    3    0    0  0.36864152320E+02  0.17672090860E+02  0.45072530230E+01  0.41129004553E+02  0.10566000000E+00 0.  1.
         22    1    1    0    0    0 -0.18756885521E+01  0.26738023750E+02 -0.53262209009E+01  0.27327801790E+02  0.00000000000E+00 0. -1.
</event>
<event>
 5    1  0.1325686E-009  0.9118800E+02  0.7818608E-02  0.1130116E+00
         25   -1    0    0    0    0  0.00000000000E+00  0.00000000000E+00  0.99999998245E-14  0.12500000000E+03  0.12500000000E+03 0.  0.
        -13    1    3    3    0    0  0.19820156070E+02 -0.26695009242E+02 -0.33720164562E+02  0.47355282358E+02  0.10566000000E+00 0. -1.
         23    2    1    0    0    0  0.20948999268E+02  0.16169825253E+02 -0.80167078791E+01  0.97348753658E+02  0.93339104423E+02 0.  0.
         13    1    3    3    0    0  0.11288431983E+01  0.42864834494E+02  0.25703456682E+02  0.49993471300E+02  0.10566000000E+00 0.  1.
         22    1    1    0    0    0 -0.20948999268E+02 -0.16169825253E+02  0.80167078791E+01  0.27651246342E+02  0.00000000000E+00 0.  1.
</event>
<event>
 5    1  0.1325686E-009  0.9118800E+02  0.7818608E-02  0.1130116E+00
         25   -1    0    0    0    0  0.00000000000E+00  0.00000000000E+00  0.99999998245E-14  0.12500000000E+03  0.12500000000E+03 0.  0.
        -13    1    3    3    0    0 -0.22864143591E+02 -0.10493691158E+02 -0.32636600243E+02  0.41207347108E+02  0.10566000000E+00 0.  1.
         23    2    1    0    0    0  0.21648049055E+01 -0.25859147214E+02  0.13385001245E+02  0.95801710097E+02  0.91243780744E+02 0.  0.
         13    1    3    3    0    0  0.25028948497E+02 -0.15365456055E+02  0.46021601488E+02  0.54594362989E+02  0.10566000000E+00 0. -1.
         22    1    1    0    0    0 -0.21648049055E+01  0.25859147214E+02 -0.13385001245E+02  0.29198289903E+02  0.00000000000E+00 0. -1.
</event>
<event>
 5    1  0.1325686E-009  0.9118800E+02  0.7818608E-02  0.1130116E+00
         25   -1    0    0    0    0  0.00000000000E+00  0.00000000000E+00  0.99999998245E-14  0.12500000000E+03  0.12500000000E+03 0.  0.
        -13    1    3    3    0    0 -0.34185149746E+02  0.32348431433E+00 -0.25412255842E+02  0.42597218410E+02  0.10566000000E+00 0.  1.
         23    2    1    0    0    0  0.14380906775E+02 -0.18132448585E+02 -0.19214313033E+02  0.94920339153E+02  0.90028244391E+02 0.  0.
         13    1    3    3    0    0  0.48566056521E+02 -0.18455932900E+02  0.61979428090E+01  0.52323120743E+02  0.10566000000E+00 0. -1.
         22    1    1    0    0    0 -0.14380906775E+02  0.18132448585E+02  0.19214313033E+02  0.30079660847E+02  0.00000000000E+00 0. -1.
</event>
<event>
 5    1  0.1325686E-009  0.9118800E+02  0.7818608E-02  0.1130116E+00
         25   -1    0    0    0    0  0.00000000000E+00  0.00000000000E+00  0.99999998245E-14  0.12500000000E+03  0.12500000000E+03 0.  0.
        -13    1    3    3    0    0 -0.11846903481E+02 -0.28619004510E+02  0.39896118919E+02  0.50508494435E+02  0.10566000000E+00 0. -1.
         23    2    1    0    0    0 -0.28752815765E+02 -0.32162619016E+01  0.72947033886E+01  0.95162415437E+02  0.90363730884E+02 0.  0.
         13    1    3    3    0    0 -0.16905912284E+02  0.25402742608E+02 -0.32601415531E+02  0.44653921002E+02  0.10566000000E+00 0.  1.
         22    1    1    0    0    0  0.28752815765E+02  0.32162619016E+01 -0.72947033886E+01  0.29837584563E+02  0.00000000000E+00 0. -1.
</event>
<event>
 5    1  0.1325686E-009  0.9118800E+02  0.7818608E-02  0.1130116E+00
         25   -1    0    0    0    0  0.00000000000E+00  0.00000000000E+00  0.99999998245E-14  0.12500000000E+03  0.12500000000E+03 0.  0.
        -13    1    3    3    0    0 -0.32041111941E+02  0.22708079887E+00  0.48006881343E+02  0.57717902253E+02  0.10566000000E+00 0.  1.
         23    2    1    0    0    0 -0.18059157694E+02  0.16567241350E+02  0.18197373734E+02  0.94475402159E+02  0.89408335963E+02 0.  0.
         13    1    3    3    0    0  0.13981954247E+02  0.16340160551E+02 -0.29809507609E+02  0.36757499906E+02  0.10566000000E+00 0. -1.
         22    1    1    0    0    0  0.18059157694E+02 -0.16567241350E+02 -0.18197373734E+02  0.30524597841E+02  0.00000000000E+00 0.  1.
</event>
<event>
 5    1  0.1325686E-009  0.9118800E+02  0.7818608E-02  0.1130116E+00
         25   -1    0    0    0    0  0.00000000000E+00  0.00000000000E+00  0.99999998245E-14  0.12500000000E+03  0.12500000000E+03 0.  0.
        -13    1    3    3    0    0 -0.60151205616E+02  0.16612509175E+02 -0.24330600789E+01  0.62450572003E+02  0.10566000000E+00 0.  1.
         23    2    1    0    0    0 -0.35929177680E+02  0.10003823602E+02 -0.31756482354E+01  0.87569169965E+02  0.79166233276E+02 0.  0.
         13    1    3    3    0    0  0.24222027936E+02 -0.66086855724E+01 -0.74258815647E+00  0.25118597961E+02  0.10566000000E+00 0. -1.
         22    1    1    0    0    0  0.35929177680E+02 -0.10003823602E+02  0.31756482354E+01  0.37430830035E+02  0.00000000000E+00 0.  1.
</event>
<event>
 5    1  0.1325686E-009  0.9118800E+02  0.7818608E-02  0.1130116E+00
         25   -1    0    0    0    0  0.00000000000E+00  0.00000000000E+00  0.99999998245E-14  0.12500000000E+03  0.12500000000E+03 0.  0.
        -13    1    3    3    0    0  0.16679448906E+02  0.43283079619E+02 -0.94983464934E+01  0.47348270795E+02  0.10566000000E+00 0. -1.
         23    2    1    0    0    0 -0.22552401468E+02  0.18555790410E+02 -0.11116492758E+02  0.93750926718E+02  0.88389658216E+02 0.  0.
         13    1    3    3    0    0 -0.39231850374E+02 -0.24727289209E+02 -0.16181462647E+01  0.46402655923E+02  0.10566000000E+00 0.  1.
         22    1    1    0    0    0  0.22552401468E+02 -0.18555790410E+02  0.11116492758E+02  0.31249073282E+02  0.00000000000E+00 0.  1.
</event>
<event>
 5    1  0.1325686E-009  0.9118800E+02  0.7818608E-02  0.1130116E+00
         25   -1    0    0    0    0  0.00000000000E+00  0.00000000000E+00  0.99999998245E-14  0.12500000000E+03  0.12500000000E+03 0.  0.
        -13    1    3    3    0    0 -0.19013387788E+02 -0.38375554476E+02 -0.37565738158E+02  0.56968306486E+02  0.10566000000E+00 0.  1.
         23    2    1    0    0    0 -0.30181960045E+01 -0.34544200238E+01 -0.28100495912E+02  0.96527550240E+02  0.92232790048E+02 0.  0.
         13    1    3    3    0    0  0.15995191783E+02  0.34921134452E+02  0.94652422459E+01  0.39559243754E+02  0.10566000000E+00 0. -1.
         22    1    1    0    0    0  0.30181960045E+01  0.34544200238E+01  0.28100495912E+02  0.28472449760E+02  0.00000000000E+00 0.  1.
</event>
<event>
 5    1  0.1325686E-009  0.9118800E+02  0.7818608E-02  0.1130116E+00
         25   -1    0    0    0    0  0.00000000000E+00  0.00000000000E+00  0.99999998245E-14  0.12500000000E+03  0.12500000000E+03 0.  0.
        -13    1    3    3    0    0 -0.30298474236E+02  0.58571497677E+01  0.22011846278E+02  0.37905623396E+02  0.10566000000E+00 0. -1.
         23    2    1    0    0    0  0.68854954534E+01  0.22970740539E+02 -0.17899372277E+02  0.95075887708E+02  0.90243957842E+02 0.  0.
         13    1    3    3    0    0  0.37183969690E+02  0.17113590771E+02 -0.39911218555E+02  0.57170264312E+02  0.10566000000E+00 0.  1.
         22    1    1    0    0    0 -0.68854954534E+01 -0.22970740539E+02  0.17899372277E+02  0.29924112292E+02  0.00000000000E+00 0.  1.
</event>
<event>
 5    1  0.1325686E-009  0.9118800E+02  0.7818608E-02  0.1130116E+00
         25   -1    0    0    0    0  0.00000000000E+00  0.00000000000E+00  0.99999998245E-14  0.12500000000E+03  0.12500000000E+03 0.  0.
        -13    1    3    3    0    0 -0.58671839415E+02 -0.12177729114E+02  0.33162940189E+01  0.60014088319E+02  0.10566000000E+00 0.  1.
         23    2    1    0    0    0 -0.23957195801E+02 -0.15928419197E+02  0.77344589870E+01  0.95209336621E+02  0.90428613587E+02 0.  0.
         13    1    3    3    0    0  0.34714643614E+02 -0.37506900831E+01  0.44181649681E+01  0.35195248303E+02  0.10566000000E+00 0. -1.
         22    1    1    0    0    0  0.23957195801E+02  0.15928419197E+02 -0.77344589870E+01  0.29790663379E+02  0.00000000000E+00 0.  1.
</event>
<event>
 5    1  0.1325686E-009  0.9118800E+02  0.7818608E-02  0.1130116E+00
         25   -1    0    0    0    0  0.00000000000E+00  0.00000000000E+00  0.99999998245E-14  0.12500000000E+03  0.12500000000E+03 0.  0.
        -13    1    3    3    0    0  0.39565774962E+02 -0.26923870644E+02 -0.39158430829E+02  0.61836390805E+02  0.10566000000E+00 0. -1.
         23    2    1    0    0    0  0.15866112835E+02 -0.18139004334E+02 -0.16382556482E+02  0.95859904399E+02  0.91323469600E+02 0.  0.
         13    1    3    3    0    0 -0.23699662127E+02  0.87848663098E+01  0.22775874347E+02  0.34023513594E+02  0.10566000000E+00 0.  1.
         22    1    1    0    0    0 -0.15866112835E+02  0.18139004334E+02  0.16382556482E+02  0.29140095601E+02  0.00000000000E+00 0. -1.
</event>
<event>
 5    1  0.1325686E-009  0.9118800E+02  0.7818608E-02  0.1130116E+00
         25   -1    0    0    0    0  0.00000000000E+00  0.00000000000E+00  0.99999998245E-14  0.12500000000E+03  0.12500000000E+03 0.  0.
        -13    1    3    3    0    0  0.99306233342E+01 -0.42153900548E+02 -0.69028232970E+01  0.43854631964E+02  0.10566000000E+00 0. -1.
         23    2    1    0    0    0 -0.23066166648E+02 -0.25088215606E+02 -0.22518514824E+02  0.84152110018E+02  0.73573279827E+02 0.  0.
         13    1    3    3    0    0 -0.32996789982E+02  0.17065684941E+02 -0.15615691527E+02  0.40297478054E+02  0.10566000000E+00 0.  1.
         22    1    1    0    0    0  0.23066166648E+02  0.25088215606E+02  0.22518514824E+02  0.40847889982E+02  0.00000000000E+00 0. -1.
</event>
<event>
 5    1  0.1325686E-009  0.9118800E+02  0.7818608E-02  0.1130116E+00
         25   -1    0    0    0    0  0.00000000000E+00  0.00000000000E+00  0.99999998245E-14  0.12500000000E+03  0.12500000000E+03 0.  0.
        -13    1    3    3    0    0 -0.44465644502E+01  0.31676634081E+02 -0.24979319107E+02  0.40585202097E+02  0.10566000000E+00 0.  1.
         23    2    1    0    0    0  0.15614592616E+02 -0.19417345100E+02 -0.13488985722E+02  0.96666247529E+02  0.92420570666E+02 0.  0.
         13    1    3    3    0    0  0.20061157066E+02 -0.51093979181E+02  0.11490333385E+02  0.56081045432E+02  0.10566000000E+00 0. -1.
         22    1    1    0    0    0 -0.15614592616E+02  0.19417345100E+02  0.13488985722E+02  0.28333752471E+02  0.00000000000E+00 0. -1.
</event>
<event>
 5    1  0.1325686E-009  0.9118800E+02  0.7818608E-02  0.1130116E+00
         25   -1    0    0    0    0  0.00000000000E+00  0.00000000000E+00  0.99999998245E-14  0.12500000000E+03  0.12500000000E+03 0.  0.
        -13    1    3    3    0    0  0.16313045062E+02  0.12331001844E+01 -0.42201192718E+02  0.45261327931E+02  0.10566000000E+00 0. -1.
         23    2    1    0    0    0  0.32266456543E+02  0.83311281688E+01  0.79278717731E+00  0.91665926953E+02  0.85390173546E+02 0.  0.
         13    1    3    3    0    0  0.15953411481E+02  0.70980279844E+01  0.42993979895E+02  0.46404599022E+02  0.10566000000E+00 0.  1.
         22    1    1    0    0    0 -0.32266456543E+02 -0.83311281688E+01 -0.79278717731E+00  0.33334073047E+02  0.00000000000E+00 0.  1.
</event>
<event>
 5    1  0.1325686E-009  0.9118800E+02  0.7818608E-02  0.1130116E+00
         25   -1    0    0    0    0  0.00000000000E+00  0.00000000000E+00  0.99999998245E-14  0.12500000000E+03  0.12500000000E+03 0.  0.
        -13    1    3    3    0    0 -0.57451943218E+02  0.81173029048E+01 -0.49818488244E+01  0.58236125968E+02  0.10566000000E+00 0.  1.
         23    2    1    0    0    0 -0.25868412566E+02 -0.11396453300E+02  0.40477504987E+01  0.96444121435E+02  0.92119652403E+02 0.  0.
         13    1    3    3    0    0  0.31583530652E+02 -0.19513756205E+02  0.90295993231E+01  0.38207995467E+02  0.10566000000E+00 0. -1.
         22    1    1    0    0    0  0.25868412566E+02  0.11396453300E+02 -0.40477504987E+01  0.28555878565E+02  0.00000000000E+00 0.  1.
</event>
<event>
 5    1  0.1325686E-009  0.9118800E+02  0.7818608E-02  0.1130116E+00
         25   -1    0    0    0    0  0.00000000000E+00  0.00000000000E+00  0.99999998245E-14  0.12500000000E+03  0.12500000000E+03 0.  0.
        -13    1    3    3    0    0 -0.22730135084E+02 -0.31750740359E+02  0.34690198631E+02  0.52232074432E+02  0.10566000000E+00 0.  1.
         23    2    1    0    0    0 -0.27434828285E+02 -0.81534279369E+01 -0.22205873683E+01  0.96293220341E+02  0.91914661971E+02 0.  0.
         13    1    3    3    0    0 -0.47046932005E+01  0.23597312422E+02 -0.36910786000E+02  0.44061145909E+02  0.10566000000E+00 0. -1.
         22    1    1    0    0    0  0.27434828285E+02  0.81534279369E+01  0.22205873683E+01  0.28706779659E+02  0.00000000000E+00 0.  1.
</event>
<event>
 5    1  0.1325686E-009  0.9118800E+02  0.7818608E-02  0.1130116E+00
         25   -1    0    0    0    0  0.00000000000E+00  0.00000000000E+00  0.99999998245E-14  0.12500000000E+03  0.12500000000E+03 0.  0.
        -13    1    3    3    0    0 -0.62939141666E+01  0.11446461866E+02 -0.57144127036E+02  0.58618233200E+02  0.10566000000E+00 0. -1.
         23    2    1    0    0    0 -0.16647054642E+02 -0.17817727731E+01 -0.24579551462E+02  0.95260237181E+02  0.90498946377E+02 0.  0.
         13    1    3    3    0    0 -0.10353140475E+02 -0.13228234639E+02  0.32564575574E+02  0.36642003981E+02  0.10566000000E+00 0.  1.
         22    1    1    0    0    0  0.16647054642E+02  0.17817727731E+01  0.24579551462E+02  0.29739762819E+02  0.00000000000E+00 0. -1.
</event>
<event>
 5    1  0.1325686E-009  0.9118800E+02  0.7818608E-02  0.1130116E+00
         25   -1    0    0    0    0  0.00000000000E+00  0.00000000000E+00  0.99999998245E-14  0.12500000000E+03  0.12500000000E+03 0.  0.
        -13    1    3    3    0    0 -0.15532479141E+02 -0.18731843697E+02  0.55803315380E+02  0.60878247741E+02  0.10566000000E+00 0. -1.
         23    2    1    0    0    0 -0.13770744642E+02 -0.14172590803E+02  0.20470725323E+02  0.96547472286E+02  0.92259785776E+02 0.  0.
         13    1    3    3    0    0  0.17617344983E+01  0.45592528943E+01 -0.35332590058E+02  0.35669224545E+02  0.10566000000E+00 0.  1.
         22    1    1    0    0    0  0.13770744642E+02  0.14172590803E+02 -0.20470725323E+02  0.28452527714E+02  0.00000000000E+00 0. -1.
</event>
<event>
 5    1  0.1325686E-009  0.9118800E+02  0.7818608E-02  0.1130116E+00
         25   -1    0    0    0    0  0.00000000000E+00  0.00000000000E+00  0.99999998245E-14  0.12500000000E+03  0.12500000000E+03 0.  0.
        -13    1    3    3    0    0  0.31978850802E+02  0.77316181720E+00 -0.80158553878E+01  0.32977413171E+02  0.10566000000E+00 0.  1.
         23    2    1    0    0    0 -0.22313218489E+02  0.71236535890E+01  0.19817904121E+02  0.94318157103E+02  0.89188223863E+02 0.  0.
         13    1    3    3    0    0 -0.54292069291E+02  0.63504917718E+01  0.27833759509E+02  0.61340743932E+02  0.10566000000E+00 0. -1.
         22    1    1    0    0    0  0.22313218489E+02 -0.71236535890E+01 -0.19817904121E+02  0.30681842897E+02  0.00000000000E+00 0. -1.
</event>
<event>
 5    1  0.1325686E-009  0.9118800E+02  0.7818608E-02  0.1130116E+00
         25   -1    0    0    0    0  0.00000000000E+00  0.00000000000E+00  0.99999998245E-14  0.12500000000E+03  0.12500000000E+03 0.  0.
        -13    1    3    3    0    0 -0.11263383456E+02 -0.38135307477E+02  0.27660727471E+02  0.48438543449E+02  0.10566000000E+00 0.  1.
         23    2    1    0    0    0 -0.22989367853E+02 -0.14543009300E+02 -0.11359623656E+02  0.95520325589E+02  0.90857478488E+02 0.  0.
         13    1    3    3    0    0 -0.11725984397E+02  0.23592298176E+02 -0.39020351127E+02  0.47081782139E+02  0.10566000000E+00 0. -1.
         22    1    1    0    0    0  0.22989367853E+02  0.14543009300E+02  0.11359623656E+02  0.29479674411E+02  0.00000000000E+00 0.  1.
</event>
<event>
 5    1  0.1325686E-009  0.9118800E+02  0.7818608E-02  0.1130116E+00
         25   -1    0    0    0    0  0.00000000000E+00  0.00000000000E+00  0.99999998245E-14  0.12500000000E+03  0.12500000000E+03 0.  0.
        -13    1    3    3    0    0  0.45674610489E+02  0.44811033930E+01  0.94459764257E+01  0.46856034463E+02  0.10566000000E+00 0.  1.
         23    2    1    0    0    0  0.92985347604E+01 -0.27448550143E+02  0.61781257382E+01  0.95368008989E+02  0.90647681974E+02 0.  0.
         13    1    3    3    0    0 -0.36376075728E+02 -0.31929653536E+02 -0.32678506875E+01  0.48511974526E+02  0.10566000000E+00 0. -1.
         22    1    1    0    0    0 -0.92985347604E+01  0.27448550143E+02 -0.61781257382E+01  0.29631991011E+02  0.00000000000E+00 0.  1.
</event>
<event>
 5    1  0.1325686E-009  0.9118800E+02  0.7818608E-02  0.1130116E+00
         25   -1    0    0    0    0  0.00000000000E+00  0.00000000000E+00  0.99999998245E-14  0.12500000000E+03  0.12500000000E+03 0.  0.
        -13    1    3    3    0    0 -0.31931131818E+02  0.12223299417E+02  0.70085808768E+01  0.34901828000E+02  0.10566000000E+00 0.  1.
         23    2    1    0    0    0  0.24426654119E+02 -0.10519056038E+02 -0.74684818090E+01  0.97375912831E+02  0.93375468983E+02 0.  0.
         13    1    3    3    0    0  0.56357785937E+02 -0.22742355455E+02 -0.14477062686E+02  0.62474084831E+02  0.10566000000E+00 0. -1.
         22    1    1    0    0    0 -0.24426654119E+02  0.10519056038E+02  0.74684818090E+01  0.27624087169E+02  0.00000000000E+00 0. -1.
</event>
<event>
 5    1  0.1325686E-009  0.9118800E+02  0.7818608E-02  0.1130116E+00
         25   -1    0    0    0    0  0.00000000000E+00  0.00000000000E+00  0.99999998245E-14  0.12500000000E+03  0.12500000000E+03 0.  0.
        -13    1    3    3    0    0 -0.45279336500E+02  0.22618497094E+02  0.33831370328E+02  0.60880107646E+02  0.10566000000E+00 0. -1.
         23    2    1    0    0    0 -0.13895366958E+02  0.10736351673E+02  0.22834947652E+02  0.96194005755E+02  0.91779635208E+02 0.  0.
         13    1    3    3    0    0  0.31383969542E+02 -0.11882145421E+02 -0.10996422676E+02  0.35313898110E+02  0.10566000000E+00 0.  1.
         22    1    1    0    0    0  0.13895366958E+02 -0.10736351673E+02 -0.22834947652E+02  0.28805994245E+02  0.00000000000E+00 0. -1.
</event>
<event>
 5    1  0.1325686E-009  0.9118800E+02  0.7818608E-02  0.1130116E+00
         25   -1    0    0    0    0  0.00000000000E+00  0.00000000000E+00  0.99999998245E-14  0.12500000000E+03  0.12500000000E+03 0.  0.
        -13    1    3    3    0    0  0.12067525553E+02  0.10006632961E+02  0.52002535250E+02  0.54314203599E+02  0.10566000000E+00 0.  1.
         23    2    1    0    0    0  0.25828854503E+02  0.13055156842E+01  0.14149232457E+02  0.95520602529E+02  0.90857859496E+02 0.  0.
         13    1    3    3    0    0  0.13761328950E+02 -0.87011172772E+01 -0.37853302793E+02  0.41206398929E+02  0.10566000000E+00 0. -1.
         22    1    1    0    0    0 -0.25828854503E+02 -0.13055156842E+01 -0.14149232457E+02  0.29479397471E+02  0.00000000000E+00 0.  1.
</event>
<event>
 5    1  0.1325686E-009  0.9118800E+02  0.7818608E-02  0.1130116E+00
         25   -1    0    0    0    0  0.00000000000E+00  0.00000000000E+00  0.99999998245E-14  0.12500000000E+03  0.12500000000E+03 0.  0.
        -13    1    3    3    0    0  0.12965010253E+02  0.25251439175E+02  0.24073177088E+02  0.37219023233E+02  0.10566000000E+00 0.  1.
         23    2    1    0    0    0 -0.26056693511E+02 -0.13522564877E+02  0.69612341613E+01  0.94829321874E+02  0.89901782343E+02 0.  0.
         13    1    3    3    0    0 -0.39021703764E+02 -0.38774004051E+02 -0.17111942927E+02  0.57610298641E+02  0.10566000000E+00 0. -1.
         22    1    1    0    0    0  0.26056693511E+02  0.13522564877E+02 -0.69612341613E+01  0.30170678126E+02  0.00000000000E+00 0. -1.
</event>
<event>
 5    1  0.1325686E-009  0.9118800E+02  0.7818608E-02  0.1130116E+00
         25   -1    0    0    0    0  0.00000000000E+00  0.00000000000E+00  0.99999998245E-14  0.12500000000E+03  0.12500000000E+03 0.  0.
        -13    1    3    3    0    0 -0.24469320374E+02  0.21419015786E+02  0.52111127551E+02  0.61425586326E+02  0.10566000000E+00 0. -1.
         23    2    1    0    0    0 -0.61715130232E+01  0.49536789197E+01  0.28078688262E+02  0.95827423111E+02  0.91278999653E+02 0.  0.
         13    1    3    3    0    0  0.18297807350E+02 -0.16465336866E+02 -0.24032439289E+02  0.34401836785E+02  0.10566000000E+00 0.  1.
         22    1    1    0    0    0  0.61715130232E+01 -0.49536789197E+01 -0.28078688262E+02  0.29172576889E+02  0.00000000000E+00 0. -1.
</event>
<event>
 5    1  0.1325686E-009  0.9118800E+02  0.7818608E-02  0.1130116E+00
         25   -1    0    0    0    0  0.00000000000E+00  0.00000000000E+00  0.99999998245E-14  0.12500000000E+03  0.12500000000E+03 0.  0.
        -13    1    3    3    0    0  0.23857461744E+02 -0.16371941145E+02  0.36489848043E+02  0.46569723125E+02  0.10566000000E+00 0. -1.
         23    2    1    0    0    0  0.22716555976E+02  0.19447302023E+02  0.42107421361E+01  0.94801161931E+02  0.89862620053E+02 0.  0.
         13    1    3    3    0    0 -0.11409057675E+01  0.35819243168E+02 -0.32279105907E+02  0.48231438806E+02  0.10566000000E+00 0.  1.
         22    1    1    0    0    0 -0.22716555976E+02 -0.19447302023E+02 -0.42107421361E+01  0.30198838069E+02  0.00000000000E+00 0.  1.
</event>
<event>
 5    1  0.1325686E-009  0.9118800E+02  0.7818608E-02  0.1130116E+00
         25   -1    0    0    0    0  0.00000000000E+00  0.00000000000E+00  0.99999998245E-14  0.12500000000E+03  0.12500000000E+03 0.  0.
        -13    1    3    3    0    0  0.10747764737E+02 -0.25355304089E+01  0.50662429527E+02  0.51852061588E+02  0.10566000000E+00 0. -1.
         23    2    1    0    0    0 -0.19104485107E+02 -0.10548621055E+02  0.19744783719E+02  0.95570232052E+02  0.90926112933E+02 0.  0.
         13    1    3    3    0    0 -0.29852249844E+02 -0.80130906462E+01 -0.30917645808E+02  0.43718170465E+02  0.10566000000E+00 0.  1.
         22    1    1    0    0    0  0.19104485107E+02  0.10548621055E+02 -0.19744783719E+02  0.29429767948E+02  0.00000000000E+00 0. -1.
</event>
<event>
 5    1  0.1325686E-009  0.9118800E+02  0.7818608E-02  0.1130116E+00
         25   -1    0    0    0    0  0.00000000000E+00  0.00000000000E+00  0.99999998245E-14  0.12500000000E+03  0.12500000000E+03 0.  0.
        -13    1    3    3    0    0 -0.17116958950E+02 -0.29632835317E+02 -0.52294781840E+02  0.62496804593E+02  0.10566000000E+00 0. -1.
         23    2    1    0    0    0 -0.83205548860E+01 -0.14114265322E+02 -0.25802286201E+02  0.94435280267E+02  0.89352224744E+02 0.  0.
         13    1    3    3    0    0  0.87964040637E+01  0.15518569995E+02  0.26492495639E+02  0.31938475674E+02  0.10566000000E+00 0.  1.
         22    1    1    0    0    0  0.83205548860E+01  0.14114265322E+02  0.25802286201E+02  0.30564719733E+02  0.00000000000E+00 0. -1.
</event>
<event>
 5    1  0.1325686E-009  0.9118800E+02  0.7818608E-02  0.1130116E+00
         25   -1    0    0    0    0  0.00000000000E+00  0.00000000000E+00  0.99999998245E-14  0.12500000000E+03  0.12500000000E+03 0.  0.
        -13    1    3    3    0    0  0.18502965645E+02  0.10597496105E+02  0.32813883317E+02  0.39133473699E+02  0.10566000000E+00 0.  1.
         23    2    1    0    0    0 -0.63388869341E+01  0.16756534063E+02 -0.20198594453E+02  0.98000997440E+02  0.94208541863E+02 0.  0.
         13    1    3    3    0    0 -0.24841852579E+02  0.61590379582E+01 -0.53012477769E+02  0.58867523741E+02  0.10566000000E+00 0. -1.
         22    1    1    0    0    0  0.63388869341E+01 -0.16756534063E+02  0.20198594453E+02  0.26999002560E+02  0.00000000000E+00 0. -1.
</event>
<event>
 5    1  0.1325686E-009  0.9118800E+02  0.7818608E-02  0.1130116E+00
         25   -1    0    0    0    0  0.00000000000E+00  0.00000000000E+00  0.99999998245E-14  0.12500000000E+03  0.12500000000E+03 0.  0.
        -13    1    3    3    0    0  0.47668229846E+02 -0.31970794897E+02  0.15792558474E+02  0.59529891065E+02  0.10566000000E+00 0. -1.
         23    2    1    0    0    0  0.22998741530E+02 -0.18650165847E+01 -0.96315560259E+00  0.10190567023E+03  0.99254307501E+02 0.  0.
         13    1    3    3    0    0 -0.24669488316E+02  0.30105778313E+02 -0.16755714076E+02  0.42375779165E+02  0.10566000000E+00 0.  1.
         22    1    1    0    0    0 -0.22998741530E+02  0.18650165847E+01  0.96315560259E+00  0.23094329770E+02  0.00000000000E+00 0. -1.
</event>
<event>
 5    1  0.1325686E-009  0.9118800E+02  0.7818608E-02  0.1130116E+00
         25   -1    0    0    0    0  0.00000000000E+00  0.00000000000E+00  0.99999998245E-14  0.12500000000E+03  0.12500000000E+03 0.  0.
        -13    1    3    3    0    0  0.52656702334E+02 -0.26281492420E+02  0.76812333171E+01  0.59350296157E+02  0.10566000000E+00 0.  1.
         23    2    1    0    0    0  0.27102611079E+02 -0.27585530536E+01  0.13547443688E+02  0.94574774073E+02  0.89547158069E+02 0.  0.
         13    1    3    3    0    0 -0.25554091255E+02  0.23522939367E+02  0.58662103704E+01  0.35224477916E+02  0.10566000000E+00 0. -1.
         22    1    1    0    0    0 -0.27102611079E+02  0.27585530536E+01 -0.13547443688E+02  0.30425225927E+02  0.00000000000E+00 0.  1.
</event>
<event>
 5    1  0.1325686E-009  0.9118800E+02  0.7818608E-02  0.1130116E+00
         25   -1    0    0    0    0  0.00000000000E+00  0.00000000000E+00  0.99999998245E-14  0.12500000000E+03  0.12500000000E+03 0.  0.
        -13    1    3    3    0    0 -0.37116675119E+02 -0.58656637377E+01 -0.64692206131E+01  0.38130244719E+02  0.10566000000E+00 0. -1.
         23    2    1    0    0    0  0.49735050367E-01  0.31913493673E+02  0.58870288751E+01  0.92548025315E+02  0.86671831229E+02 0.  0.
         13    1    3    3    0    0  0.37166410169E+02  0.37779157411E+02  0.12356249488E+02  0.54417780596E+02  0.10566000000E+00 0.  1.
         22    1    1    0    0    0 -0.49735050367E-01 -0.31913493673E+02 -0.58870288751E+01  0.32451974685E+02  0.00000000000E+00 0.  1.
</event>
<event>
 5    1  0.1325686E-009  0.9118800E+02  0.7818608E-02  0.1130116E+00
         25   -1    0    0    0    0  0.00000000000E+00  0.00000000000E+00  0.99999998245E-14  0.12500000000E+03  0.12500000000E+03 0.  0.
        -13    1    3    3    0    0 -0.10046907715E+02 -0.30345663714E+02 -0.51491818667E+00  0.31969922828E+02  0.10566000000E+00 0. -1.
         23    2    1    0    0    0  0.12618578618E+02  0.25242674429E+02  0.13651747761E+02  0.93650496725E+02  0.88247516572E+02 0.  0.
         13    1    3    3    0    0  0.22665486333E+02  0.55588338143E+02  0.14166665947E+02  0.61680573897E+02  0.10566000000E+00 0.  1.
         22    1    1    0    0    0 -0.12618578618E+02 -0.25242674429E+02 -0.13651747761E+02  0.31349503275E+02  0.00000000000E+00 0.  1.
</event>
<event>
 5    1  0.1325686E-009  0.9118800E+02  0.7818608E-02  0.1130116E+00
         25   -1    0    0    0    0  0.00000000000E+00  0.00000000000E+00  0.99999998245E-14  0.12500000000E+03  0.12500000000E+03 0.  0.
        -13    1    3    3    0    0  0.12704594008E+02 -0.51046544195E+02 -0.20571797204E+02  0.56483328403E+02  0.10566000000E+00 0. -1.
         23    2    1    0    0    0  0.29341442588E+01 -0.83377007986E+01 -0.22997160041E+02  0.10036271470E+03  0.97291719453E+02 0.  0.
         13    1    3    3    0    0 -0.97704497495E+01  0.42708843397E+02 -0.24253628369E+01  0.43879386294E+02  0.10566000000E+00 0.  1.
         22    1    1    0    0    0 -0.29341442588E+01  0.83377007986E+01  0.22997160041E+02  0.24637285303E+02  0.00000000000E+00 0. -1.
</event>
<event>
 5    1  0.1325686E-009  0.9118800E+02  0.7818608E-02  0.1130116E+00
         25   -1    0    0    0    0  0.00000000000E+00  0.00000000000E+00  0.99999998245E-14  0.12500000000E+03  0.12500000000E+03 0.  0.
        -13    1    3    3    0    0 -0.14897058929E+02 -0.24647419674E+02 -0.16690878867E+02  0.33286848195E+02  0.10566000000E+00 0.  1.
         23    2    1    0    0    0  0.16970417816E+02  0.15348816157E+02  0.18675586541E+02  0.95464279746E+02  0.90780338931E+02 0.  0.
         13    1    3    3    0    0  0.31867476745E+02  0.39996235831E+02  0.35366465408E+02  0.62177431551E+02  0.10566000000E+00 0. -1.
         22    1    1    0    0    0 -0.16970417816E+02 -0.15348816157E+02 -0.18675586541E+02  0.29535720254E+02  0.00000000000E+00 0. -1.
</event>
<event>
 5    1  0.1325686E-009  0.9118800E+02  0.7818608E-02  0.1130116E+00
         25   -1    0    0    0    0  0.00000000000E+00  0.00000000000E+00  0.99999998245E-14  0.12500000000E+03  0.12500000000E+03 0.  0.
        -13    1    3    3    0    0  0.17901747053E+01 -0.42409521571E+02  0.20589055271E+02  0.47177246701E+02  0.10566000000E+00 0. -1.
         23    2    1    0    0    0  0.38893283078E+01  0.15322127417E-01  0.33267526318E+02  0.91505889820E+02  0.85155577944E+02 0.  0.
         13    1    3    3    0    0  0.20991536025E+01  0.42424843698E+02  0.12678471047E+02  0.44328643119E+02  0.10566000000E+00 0.  1.
         22    1    1    0    0    0 -0.38893283078E+01 -0.15322127417E-01 -0.33267526318E+02  0.33494110180E+02  0.00000000000E+00 0. -1.
</event>
<event>
 5    1  0.1325686E-009  0.9118800E+02  0.7818608E-02  0.1130116E+00
         25   -1    0    0    0    0  0.00000000000E+00  0.00000000000E+00  0.99999998245E-14  0.12500000000E+03  0.12500000000E+03 0.  0.
        -13    1    3    3    0    0  0.10906729006E+01  0.20176405942E+02 -0.10846987338E+02  0.22933495644E+02  0.10566000000E+00 0.  1.
         23    2    1    0    0    0  0.89149258917E+01 -0.39455959183E+02  0.22512615208E+01  0.84486831805E+02  0.74139786561E+02 0.  0.
         13    1    3    3    0    0  0.78242529911E+01 -0.59632365126E+02  0.13098248858E+02  0.61553336161E+02  0.10566000000E+00 0. -1.
         22    1    1    0    0    0 -0.89149258917E+01  0.39455959183E+02 -0.22512615208E+01  0.40513168195E+02  0.00000000000E+00 0. -1.
</event>
<event>
 5    1  0.1325686E-009  0.9118800E+02  0.7818608E-02  0.1130116E+00
         25   -1    0    0    0    0  0.00000000000E+00  0.00000000000E+00  0.99999998245E-14  0.12500000000E+03  0.12500000000E+03 0.  0.
        -13    1    3    3    0    0  0.60462801639E+01 -0.38053617160E+01 -0.54047180401E+02  0.54517402313E+02  0.10566000000E+00 0.  1.
         23    2    1    0    0    0 -0.11419711514E+02 -0.18699242803E+02 -0.30935961188E+02  0.87090829775E+02  0.78407317540E+02 0.  0.
         13    1    3    3    0    0 -0.17465991678E+02 -0.14893881087E+02  0.23111219213E+02  0.32573427463E+02  0.10566000000E+00 0. -1.
         22    1    1    0    0    0  0.11419711514E+02  0.18699242803E+02  0.30935961188E+02  0.37909170225E+02  0.00000000000E+00 0.  1.
</event>
<event>
 5    1  0.1325686E-009  0.9118800E+02  0.7818608E-02  0.1130116E+00
         25   -1    0    0    0    0  0.00000000000E+00  0.00000000000E+00  0.99999998245E-14  0.12500000000E+03  0.12500000000E+03 0.  0.
        -13    1    3    3    0    0  0.23483940800E+02 -0.45550731246E+02 -0.31963464088E+02  0.60398996623E+02  0.10566000000E+00 0.  1.
         23    2    1    0    0    0  0.20862709703E+02 -0.16046511301E+02 -0.12334805309E+02  0.95932998037E+02  0.91423462575E+02 0.  0.
         13    1    3    3    0    0 -0.26212310970E+01  0.29504219944E+02  0.19628658779E+02  0.35534001414E+02  0.10566000000E+00 0. -1.
         22    1    1    0    0    0 -0.20862709703E+02  0.16046511301E+02  0.12334805309E+02  0.29067001963E+02  0.00000000000E+00 0.  1.
</event>
<event>
 5    1  0.1325686E-009  0.9118800E+02  0.7818608E-02  0.1130116E+00
         25   -1    0    0    0    0  0.00000000000E+00  0.00000000000E+00  0.99999998245E-14  0.12500000000E+03  0.12500000000E+03 0.  0.
        -13    1    3    3    0    0  0.36523396305E+02  0.27597219421E+02  0.61421936866E+01  0.46187689970E+02  0.10566000000E+00 0.  1.
         23    2    1    0    0    0  0.24278491957E+02 -0.18002909423E+02 -0.40904946751E+01  0.94499474331E+02  0.89441984452E+02 0.  0.
         13    1    3    3    0    0 -0.12244904347E+02 -0.45600128844E+02 -0.10232688362E+02  0.48311784361E+02  0.10566000000E+00 0. -1.
         22    1    1    0    0    0 -0.24278491957E+02  0.18002909423E+02  0.40904946751E+01  0.30500525669E+02  0.00000000000E+00 0. -1.
</event>
<event>
 5    1  0.1325686E-009  0.9118800E+02  0.7818608E-02  0.1130116E+00
         25   -1    0    0    0    0  0.00000000000E+00  0.00000000000E+00  0.99999998245E-14  0.12500000000E+03  0.12500000000E+03 0.  0.
        -13    1    3    3    0    0 -0.12502332003E+02  0.25827269217E+02 -0.32687894344E+02  0.43495583010E+02  0.10566000000E+00 0. -1.
         23    2    1    0    0    0 -0.11207096895E+02 -0.23118891488E+02 -0.11777030915E+02  0.96737292741E+02  0.92516610321E+02 0.  0.
         13    1    3    3    0    0  0.12952351080E+01 -0.48946160705E+02  0.20910863429E+02  0.53241709731E+02  0.10566000000E+00 0.  1.
         22    1    1    0    0    0  0.11207096895E+02  0.23118891488E+02  0.11777030915E+02  0.28262707259E+02  0.00000000000E+00 0. -1.
</event>
<event>
 5    1  0.1325686E-009  0.9118800E+02  0.7818608E-02  0.1130116E+00
         25   -1    0    0    0    0  0.00000000000E+00  0.00000000000E+00  0.99999998245E-14  0.12500000000E+03  0.12500000000E+03 0.  0.
        -13    1    3    3    0    0  0.31472405796E+02 -0.54964462901E+01  0.17537500180E+02  0.36445827264E+02  0.10566000000E+00 0.  1.
         23    2    1    0    0    0 -0.13388446556E+02  0.25736858025E+02 -0.49796465414E+01  0.95564761902E+02  0.90918592574E+02 0.  0.
         13    1    3    3    0    0 -0.44860852352E+02  0.31233304315E+02 -0.22517146721E+02  0.59118934638E+02  0.10566000000E+00 0. -1.
         22    1    1    0    0    0  0.13388446556E+02 -0.25736858025E+02  0.49796465414E+01  0.29435238098E+02  0.00000000000E+00 0. -1.
</event>
<event>
 5    1  0.1325686E-009  0.9118800E+02  0.7818608E-02  0.1130116E+00
         25   -1    0    0    0    0  0.00000000000E+00  0.00000000000E+00  0.99999998245E-14  0.12500000000E+03  0.12500000000E+03 0.  0.
        -13    1    3    3    0    0 -0.15037477662E+02 -0.32059488195E+02 -0.31484224423E+02  0.47383584386E+02  0.10566000000E+00 0. -1.
         23    2    1    0    0    0 -0.55743927417E+01  0.15452253285E+02 -0.23263624622E+02  0.96521197066E+02  0.92224179402E+02 0.  0.
         13    1    3    3    0    0  0.94630849199E+01  0.47511741480E+02  0.82205998014E+01  0.49137612679E+02  0.10566000000E+00 0.  1.
         22    1    1    0    0    0  0.55743927417E+01 -0.15452253285E+02  0.23263624622E+02  0.28478802934E+02  0.00000000000E+00 0.  1.
</event>
<event>
 5    1  0.1325686E-009  0.9118800E+02  0.7818608E-02  0.1130116E+00
         25   -1    0    0    0    0  0.00000000000E+00  0.00000000000E+00  0.99999998245E-14  0.12500000000E+03  0.12500000000E+03 0.  0.
        -13    1    3    3    0    0  0.15965436096E+02 -0.22208414138E+02 -0.38163221172E+02  0.46952650857E+02  0.10566000000E+00 0. -1.
         23    2    1    0    0    0 -0.15206219983E+02  0.11942789125E+02 -0.21456714584E+02  0.96116614828E+02  0.91674171428E+02 0.  0.
         13    1    3    3    0    0 -0.31171656078E+02  0.34151203263E+02  0.16706506588E+02  0.49163963971E+02  0.10566000000E+00 0.  1.
         22    1    1    0    0    0  0.15206219983E+02 -0.11942789125E+02  0.21456714584E+02  0.28883385172E+02  0.00000000000E+00 0.  1.
</event>
<event>
 5    1  0.1325686E-009  0.9118800E+02  0.7818608E-02  0.1130116E+00
         25   -1    0    0    0    0  0.00000000000E+00  0.00000000000E+00  0.99999998245E-14  0.12500000000E+03  0.12500000000E+03 0.  0.
        -13    1    3    3    0    0  0.23540144471E+02  0.10303671876E+02  0.24684609030E+02  0.35632080248E+02  0.10566000000E+00 0.  1.
         23    2    1    0    0    0 -0.27265931620E+02  0.29963054848E+01 -0.79303341549E+01  0.96446557590E+02  0.92122958037E+02 0.  0.
         13    1    3    3    0    0 -0.50806076091E+02 -0.73073663916E+01 -0.32614943184E+02  0.60814477341E+02  0.10566000000E+00 0. -1.
         22    1    1    0    0    0  0.27265931620E+02 -0.29963054848E+01  0.79303341549E+01  0.28553442410E+02  0.00000000000E+00 0. -1.
</event>
<event>
 5    1  0.1325686E-009  0.9118800E+02  0.7818608E-02  0.1130116E+00
         25   -1    0    0    0    0  0.00000000000E+00  0.00000000000E+00  0.99999998245E-14  0.12500000000E+03  0.12500000000E+03 0.  0.
        -13    1    3    3    0    0 -0.15722991971E+02  0.24865685426E+01  0.30953627940E+02  0.34807093333E+02  0.10566000000E+00 0. -1.
         23    2    1    0    0    0  0.21178600352E+02 -0.10458921714E+02 -0.16417335316E+02  0.96234551018E+02  0.91834839546E+02 0.  0.
         13    1    3    3    0    0  0.36901592322E+02 -0.12945490256E+02 -0.47370963255E+02  0.61427457685E+02  0.10566000000E+00 0.  1.
         22    1    1    0    0    0 -0.21178600352E+02  0.10458921714E+02  0.16417335316E+02  0.28765448982E+02  0.00000000000E+00 0.  1.
</event>
<event>
 5    1  0.1325686E-009  0.9118800E+02  0.7818608E-02  0.1130116E+00
         25   -1    0    0    0    0  0.00000000000E+00  0.00000000000E+00  0.99999998245E-14  0.12500000000E+03  0.12500000000E+03 0.  0.
        -13    1    3    3    0    0 -0.50692405780E+00 -0.51525180340E+02  0.15844456643E+02  0.53908804026E+02  0.10566000000E+00 0. -1.
         23    2    1    0    0    0  0.17116992788E+02 -0.14046401233E+02  0.19512509389E+02  0.95486768182E+02  0.90811299106E+02 0.  0.
         13    1    3    3    0    0  0.17623916846E+02  0.37478779107E+02  0.36680527454E+01  0.41577964156E+02  0.10566000000E+00 0.  1.
         22    1    1    0    0    0 -0.17116992788E+02  0.14046401233E+02 -0.19512509389E+02  0.29513231818E+02  0.00000000000E+00 0.  1.
</event>
<event>
 5    1  0.1325686E-009  0.9118800E+02  0.7818608E-02  0.1130116E+00
         25   -1    0    0    0    0  0.00000000000E+00  0.00000000000E+00  0.99999998245E-14  0.12500000000E+03  0.12500000000E+03 0.  0.
        -13    1    3    3    0    0 -0.40686624667E+02  0.86137945743E+01  0.18233498659E+02  0.45410026659E+02  0.10566000000E+00 0.  1.
         23    2    1    0    0    0  0.94697052358E+01  0.22925019298E+02  0.16491695000E+01  0.10014136796E+03  0.97006917223E+02 0.  0.
         13    1    3    3    0    0  0.50156329903E+02  0.14311224723E+02 -0.16584329159E+02  0.54731341297E+02  0.10566000000E+00 0. -1.
         22    1    1    0    0    0 -0.94697052358E+01 -0.22925019298E+02 -0.16491695000E+01  0.24858632044E+02  0.00000000000E+00 0. -1.
</event>
<event>
 5    1  0.1325686E-009  0.9118800E+02  0.7818608E-02  0.1130116E+00
         25   -1    0    0    0    0  0.00000000000E+00  0.00000000000E+00  0.99999998245E-14  0.12500000000E+03  0.12500000000E+03 0.  0.
        -13    1    3    3    0    0  0.45532257725E+02 -0.95204448552E+01  0.11167501357E+02  0.47838787760E+02  0.10566000000E+00 0. -1.
         23    2    1    0    0    0 -0.79196256775E+01  0.10722434452E+02  0.14764112583E+02  0.10510854224E+03  0.10320918351E+03 0.  0.
         13    1    3    3    0    0 -0.53451883402E+02  0.20242879307E+02  0.35966112261E+01  0.57269754480E+02  0.10566000000E+00 0.  1.
         22    1    1    0    0    0  0.79196256775E+01 -0.10722434452E+02 -0.14764112583E+02  0.19891457760E+02  0.00000000000E+00 0.  1.
</event>
<event>
 5    1  0.1325686E-009  0.9118800E+02  0.7818608E-02  0.1130116E+00
         25   -1    0    0    0    0  0.00000000000E+00  0.00000000000E+00  0.99999998245E-14  0.12500000000E+03  0.12500000000E+03 0.  0.
        -13    1    3    3    0    0  0.10650489218E+02 -0.46559547804E+02  0.38167287247E+02  0.61139000581E+02  0.10566000000E+00 0. -1.
         23    2    1    0    0    0  0.11008739093E+02 -0.15763381062E+02  0.21495169714E+02  0.96160463944E+02  0.91733941298E+02 0.  0.
         13    1    3    3    0    0  0.35824987473E+00  0.30796166742E+02 -0.16672117533E+02  0.35021463362E+02  0.10566000000E+00 0.  1.
         22    1    1    0    0    0 -0.11008739093E+02  0.15763381062E+02 -0.21495169714E+02  0.28839536056E+02  0.00000000000E+00 0. -1.
</event>
<event>
 5    1  0.1325686E-009  0.9118800E+02  0.7818608E-02  0.1130116E+00
         25   -1    0    0    0    0  0.00000000000E+00  0.00000000000E+00  0.99999998245E-14  0.12500000000E+03  0.12500000000E+03 0.  0.
        -13    1    3    3    0    0  0.39858782822E+01  0.39096110272E+02 -0.46446222386E+02  0.60841234389E+02  0.10566000000E+00 0.  1.
         23    2    1    0    0    0  0.95198478326E+01  0.12325851800E+02 -0.24822689203E+02  0.95696074928E+02  0.91098950224E+02 0.  0.
         13    1    3    3    0    0  0.55339695505E+01 -0.26770258472E+02  0.21623533182E+02  0.34854840539E+02  0.10566000000E+00 0. -1.
         22    1    1    0    0    0 -0.95198478326E+01 -0.12325851800E+02  0.24822689203E+02  0.29303925072E+02  0.00000000000E+00 0.  1.
</event>
<event>
 5    1  0.1325686E-009  0.9118800E+02  0.7818608E-02  0.1130116E+00
         25   -1    0    0    0    0  0.00000000000E+00  0.00000000000E+00  0.99999998245E-14  0.12500000000E+03  0.12500000000E+03 0.  0.
        -13    1    3    3    0    0 -0.24317253093E+02 -0.10293020642E+02 -0.47849230329E+02  0.54651944879E+02  0.10566000000E+00 0.  1.
         23    2    1    0    0    0  0.68862981598E+01 -0.17815029101E+02 -0.22014505305E+02  0.95854935100E+02  0.91316667564E+02 0.  0.
         13    1    3    3    0    0  0.31203551253E+02 -0.75220084590E+01  0.25834725024E+02  0.41202990221E+02  0.10566000000E+00 0. -1.
         22    1    1    0    0    0 -0.68862981598E+01  0.17815029101E+02  0.22014505305E+02  0.29145064900E+02  0.00000000000E+00 0.  1.
</event>
<event>
 5    1  0.1325686E-009  0.9118800E+02  0.7818608E-02  0.1130116E+00
         25   -1    0    0    0    0  0.00000000000E+00  0.00000000000E+00  0.99999998245E-14  0.12500000000E+03  0.12500000000E+03 0.  0.
        -13    1    3    3    0    0  0.20150693745E+02 -0.19122162162E+02 -0.18143943034E+02  0.33180135277E+02  0.10566000000E+00 0.  1.
         23    2    1    0    0    0 -0.25522990066E+02 -0.19178504628E+02  0.15112036127E+02  0.89678452786E+02  0.82429443747E+02 0.  0.
         13    1    3    3    0    0 -0.45673683811E+02 -0.56342465623E-01  0.33255979161E+02  0.56498317509E+02  0.10566000000E+00 0. -1.
         22    1    1    0    0    0  0.25522990066E+02  0.19178504628E+02 -0.15112036127E+02  0.35321547214E+02  0.00000000000E+00 0. -1.
</event>
<event>
 5    1  0.1325686E-009  0.9118800E+02  0.7818608E-02  0.1130116E+00
         25   -1    0    0    0    0  0.00000000000E+00  0.00000000000E+00  0.99999998245E-14  0.12500000000E+03  0.12500000000E+03 0.  0.
        -13    1    3    3    0    0  0.14293586928E+02 -0.25498909807E+01  0.32432746743E+02  0.35534529639E+02  0.10566000000E+00 0. -1.
         23    2    1    0    0    0  0.94997321737E+01 -0.21180320175E+01 -0.27586656445E+02  0.95746716683E+02  0.91168411036E+02 0.  0.
         13    1    3    3    0    0 -0.47938547542E+01  0.43185896312E+00 -0.60019403188E+02  0.60212187045E+02  0.10566000000E+00 0.  1.
         22    1    1    0    0    0 -0.94997321737E+01  0.21180320175E+01  0.27586656445E+02  0.29253283317E+02  0.00000000000E+00 0.  1.
</event>
<event>
 5    1  0.1325686E-009  0.9118800E+02  0.7818608E-02  0.1130116E+00
         25   -1    0    0    0    0  0.00000000000E+00  0.00000000000E+00  0.99999998245E-14  0.12500000000E+03  0.12500000000E+03 0.  0.
        -13    1    3    3    0    0  0.18046694944E+01  0.35517857778E+02 -0.52729881012E+01  0.35952616326E+02  0.10566000000E+00 0. -1.
         23    2    1    0    0    0  0.18461900768E+02 -0.16426880736E+02  0.17137783462E+02  0.94926958706E+02  0.90037434862E+02 0.  0.
         13    1    3    3    0    0  0.16657231274E+02 -0.51944738514E+02  0.22410771563E+02  0.58974342380E+02  0.10566000000E+00 0.  1.
         22    1    1    0    0    0 -0.18461900768E+02  0.16426880736E+02 -0.17137783462E+02  0.30073041294E+02  0.00000000000E+00 0.  1.
</event>
<event>
 5    1  0.1325686E-009  0.9118800E+02  0.7818608E-02  0.1130116E+00
         25   -1    0    0    0    0  0.00000000000E+00  0.00000000000E+00  0.99999998245E-14  0.12500000000E+03  0.12500000000E+03 0.  0.
        -13    1    3    3    0    0 -0.10228143946E+02  0.35361565540E+02 -0.20950693204E+02  0.42355613037E+02  0.10566000000E+00 0. -1.
         23    2    1    0    0    0 -0.13780925257E+00 -0.17070576837E+02 -0.23666606457E+02  0.95818981406E+02  0.91267438616E+02 0.  0.
         13    1    3    3    0    0  0.10090334693E+02 -0.52432142377E+02 -0.27159132537E+01  0.53463368369E+02  0.10566000000E+00 0.  1.
         22    1    1    0    0    0  0.13780925257E+00  0.17070576837E+02  0.23666606457E+02  0.29181018594E+02  0.00000000000E+00 0.  1.
</event>
<event>
 5    1  0.1325686E-009  0.9118800E+02  0.7818608E-02  0.1130116E+00
         25   -1    0    0    0    0  0.00000000000E+00  0.00000000000E+00  0.99999998245E-14  0.12500000000E+03  0.12500000000E+03 0.  0.
        -13    1    3    3    0    0  0.44325208995E+02  0.65039676979E+01 -0.17304216193E+02  0.48025751533E+02  0.10566000000E+00 0.  1.
         23    2    1    0    0    0  0.16603649406E+02 -0.45399796085E+01  0.21805251876E+02  0.97219402494E+02  0.93165715923E+02 0.  0.
         13    1    3    3    0    0 -0.27721559589E+02 -0.11043947306E+02  0.39109468069E+02  0.49193650960E+02  0.10566000000E+00 0. -1.
         22    1    1    0    0    0 -0.16603649406E+02  0.45399796085E+01 -0.21805251876E+02  0.27780597506E+02  0.00000000000E+00 0. -1.
</event>
<event>
 5    1  0.1325686E-009  0.9118800E+02  0.7818608E-02  0.1130116E+00
         25   -1    0    0    0    0  0.00000000000E+00  0.00000000000E+00  0.99999998245E-14  0.12500000000E+03  0.12500000000E+03 0.  0.
        -13    1    3    3    0    0 -0.19584243279E+02  0.28985604666E+01  0.35045622691E+02  0.40251100251E+02  0.10566000000E+00 0.  1.
         23    2    1    0    0    0  0.11483019016E+02 -0.26854281483E+02 -0.90388858601E-01  0.95793488229E+02  0.91232516447E+02 0.  0.
         13    1    3    3    0    0  0.31067262295E+02 -0.29752841950E+02 -0.35136011550E+02  0.55542387978E+02  0.10566000000E+00 0. -1.
         22    1    1    0    0    0 -0.11483019016E+02  0.26854281483E+02  0.90388858601E-01  0.29206511771E+02  0.00000000000E+00 0. -1.
</event>
<event>
 5    1  0.1325686E-009  0.9118800E+02  0.7818608E-02  0.1130116E+00
         25   -1    0    0    0    0  0.00000000000E+00  0.00000000000E+00  0.99999998245E-14  0.12500000000E+03  0.12500000000E+03 0.  0.
        -13    1    3    3    0    0  0.35698596488E+02  0.43576096667E+02  0.69880435857E+01  0.56763631923E+02  0.10566000000E+00 0. -1.
         23    2    1    0    0    0  0.19734650808E+02  0.15545078211E+02 -0.14942056848E+02  0.95770375268E+02  0.91200843291E+02 0.  0.
         13    1    3    3    0    0 -0.15963945679E+02 -0.28031018456E+02 -0.21930100434E+02  0.39006743345E+02  0.10566000000E+00 0.  1.
         22    1    1    0    0    0 -0.19734650808E+02 -0.15545078211E+02  0.14942056848E+02  0.29229624732E+02  0.00000000000E+00 0. -1.
</event>
<event>
 5    1  0.1325686E-009  0.9118800E+02  0.7818608E-02  0.1130116E+00
         25   -1    0    0    0    0  0.00000000000E+00  0.00000000000E+00  0.99999998245E-14  0.12500000000E+03  0.12500000000E+03 0.  0.
        -13    1    3    3    0    0 -0.14760853946E+02  0.16699326699E+02 -0.55516635627E+02  0.59823559881E+02  0.10566000000E+00 0.  1.
         23    2    1    0    0    0 -0.17754728154E+02  0.14778694368E+01 -0.22522940633E+02  0.96282456152E+02  0.91900021970E+02 0.  0.
         13    1    3    3    0    0 -0.29938742082E+01 -0.15221457262E+02  0.32993694994E+02  0.36458896272E+02  0.10566000000E+00 0. -1.
         22    1    1    0    0    0  0.17754728154E+02 -0.14778694368E+01  0.22522940633E+02  0.28717543848E+02  0.00000000000E+00 0.  1.
</event>
<event>
 5    1  0.1325686E-009  0.9118800E+02  0.7818608E-02  0.1130116E+00
         25   -1    0    0    0    0  0.00000000000E+00  0.00000000000E+00  0.99999998245E-14  0.12500000000E+03  0.12500000000E+03 0.  0.
        -13    1    3    3    0    0  0.22112183229E+02 -0.53796253151E+01  0.46760217399E+02  0.52004020142E+02  0.10566000000E+00 0. -1.
         23    2    1    0    0    0 -0.15292296998E+02 -0.94983169588E+01  0.19430818179E+02  0.98511718296E+02  0.94883768760E+02 0.  0.
         13    1    3    3    0    0 -0.37404480227E+02 -0.41186916437E+01 -0.27329399220E+02  0.46507698155E+02  0.10566000000E+00 0.  1.
         22    1    1    0    0    0  0.15292296998E+02  0.94983169588E+01 -0.19430818179E+02  0.26488281704E+02  0.00000000000E+00 0.  1.
</event>
<event>
 5    1  0.1325686E-009  0.9118800E+02  0.7818608E-02  0.1130116E+00
         25   -1    0    0    0    0  0.00000000000E+00  0.00000000000E+00  0.99999998245E-14  0.12500000000E+03  0.12500000000E+03 0.  0.
        -13    1    3    3    0    0 -0.20889883932E+02  0.24345227584E+02  0.25200754569E+02  0.40794197524E+02  0.10566000000E+00 0. -1.
         23    2    1    0    0    0  0.25314206214E+02  0.20313401263E+02  0.24571516852E+01  0.92450331776E+02  0.86530820774E+02 0.  0.
         13    1    3    3    0    0  0.46204090145E+02 -0.40318263202E+01 -0.22743602884E+02  0.51656134251E+02  0.10566000000E+00 0.  1.
         22    1    1    0    0    0 -0.25314206214E+02 -0.20313401263E+02 -0.24571516852E+01  0.32549668224E+02  0.00000000000E+00 0.  1.
</event>
<event>
 5    1  0.1325686E-009  0.9118800E+02  0.7818608E-02  0.1130116E+00
         25   -1    0    0    0    0  0.00000000000E+00  0.00000000000E+00  0.99999998245E-14  0.12500000000E+03  0.12500000000E+03 0.  0.
        -13    1    3    3    0    0  0.26283323933E+02  0.27349050938E+02 -0.27278769402E+02  0.46721795003E+02  0.10566000000E+00 0. -1.
         23    2    1    0    0    0 -0.11544008906E+02 -0.51344968784E+00 -0.29049693801E+02  0.93736403244E+02  0.88369116839E+02 0.  0.
         13    1    3    3    0    0 -0.37827332839E+02 -0.27862500626E+02 -0.17709243992E+01  0.47014608241E+02  0.10566000000E+00 0.  1.
         22    1    1    0    0    0  0.11544008906E+02  0.51344968784E+00  0.29049693801E+02  0.31263596756E+02  0.00000000000E+00 0. -1.
</event>
<event>
 5    1  0.1325686E-009  0.9118800E+02  0.7818608E-02  0.1130116E+00
         25   -1    0    0    0    0  0.00000000000E+00  0.00000000000E+00  0.99999998245E-14  0.12500000000E+03  0.12500000000E+03 0.  0.
        -13    1    3    3    0    0  0.19728040813E+02  0.40718588043E+02 -0.45111880863E+01  0.45470440822E+02  0.10566000000E+00 0. -1.
         23    2    1    0    0    0 -0.21766065826E+02  0.15386863169E+02 -0.13828788663E+02  0.94970804612E+02  0.90098286072E+02 0.  0.
         13    1    3    3    0    0 -0.41494106640E+02 -0.25331724874E+02 -0.93176005768E+01  0.49500363791E+02  0.10566000000E+00 0.  1.
         22    1    1    0    0    0  0.21766065826E+02 -0.15386863169E+02  0.13828788663E+02  0.30029195388E+02  0.00000000000E+00 0.  1.
</event>
<event>
 5    1  0.1325686E-009  0.9118800E+02  0.7818608E-02  0.1130116E+00
         25   -1    0    0    0    0  0.00000000000E+00  0.00000000000E+00  0.99999998245E-14  0.12500000000E+03  0.12500000000E+03 0.  0.
        -13    1    3    3    0    0  0.20867400759E+02 -0.19220474764E+02  0.20624968606E+02  0.35075284156E+02  0.10566000000E+00 0. -1.
         23    2    1    0    0    0 -0.29104357764E+02  0.44374279294E+01 -0.34097136753E+01  0.95362514364E+02  0.90640104760E+02 0.  0.
         13    1    3    3    0    0 -0.49971758523E+02  0.23657902694E+02 -0.24034682281E+02  0.60287230208E+02  0.10566000000E+00 0.  1.
         22    1    1    0    0    0  0.29104357764E+02 -0.44374279294E+01  0.34097136753E+01  0.29637485636E+02  0.00000000000E+00 0.  1.
</event>
<event>
 5    1  0.1325686E-009  0.9118800E+02  0.7818608E-02  0.1130116E+00
         25   -1    0    0    0    0  0.00000000000E+00  0.00000000000E+00  0.99999998245E-14  0.12500000000E+03  0.12500000000E+03 0.  0.
        -13    1    3    3    0    0 -0.37696283456E+02 -0.24601129120E+02 -0.34667579071E+02  0.56816173252E+02  0.10566000000E+00 0. -1.
         23    2    1    0    0    0 -0.43283855643E+01 -0.24969886847E+02 -0.15094391218E+02  0.95503037156E+02  0.90833690276E+02 0.  0.
         13    1    3    3    0    0  0.33367897891E+02 -0.36875772725E+00  0.19573187853E+02  0.38686863904E+02  0.10566000000E+00 0.  1.
         22    1    1    0    0    0  0.43283855643E+01  0.24969886847E+02  0.15094391218E+02  0.29496962844E+02  0.00000000000E+00 0. -1.
</event>
<event>
 5    1  0.1325686E-009  0.9118800E+02  0.7818608E-02  0.1130116E+00
         25   -1    0    0    0    0  0.00000000000E+00  0.00000000000E+00  0.99999998245E-14  0.12500000000E+03  0.12500000000E+03 0.  0.
        -13    1    3    3    0    0  0.28030262881E+02 -0.19422703838E+02 -0.52263767368E+01  0.34500191875E+02  0.10566000000E+00 0.  1.
         23    2    1    0    0    0 -0.17538005177E+02  0.21535800040E+02 -0.87743412801E+01  0.95873356289E+02  0.91341880166E+02 0.  0.
         13    1    3    3    0    0 -0.45568268059E+02  0.40958503878E+02 -0.35479645433E+01  0.61373164414E+02  0.10566000000E+00 0. -1.
         22    1    1    0    0    0  0.17538005177E+02 -0.21535800040E+02  0.87743412801E+01  0.29126643711E+02  0.00000000000E+00 0. -1.
</event>
<event>
 5    1  0.1325686E-009  0.9118800E+02  0.7818608E-02  0.1130116E+00
         25   -1    0    0    0    0  0.00000000000E+00  0.00000000000E+00  0.99999998245E-14  0.12500000000E+03  0.12500000000E+03 0.  0.
        -13    1    3    3    0    0 -0.48807830945E+01 -0.37435124869E+02 -0.50288154103E+01  0.38085571625E+02  0.10566000000E+00 0.  1.
         23    2    1    0    0    0  0.32510733700E+02 -0.56350768689E+01  0.11773149699E+02  0.89967030516E+02  0.82865901485E+02 0.  0.
         13    1    3    3    0    0  0.37391516795E+02  0.31800048000E+02  0.16801965109E+02  0.51881458890E+02  0.10566000000E+00 0. -1.
         22    1    1    0    0    0 -0.32510733700E+02  0.56350768689E+01 -0.11773149699E+02  0.35032969484E+02  0.00000000000E+00 0. -1.
</event>
<event>
 5    1  0.1325686E-009  0.9118800E+02  0.7818608E-02  0.1130116E+00
         25   -1    0    0    0    0  0.00000000000E+00  0.00000000000E+00  0.99999998245E-14  0.12500000000E+03  0.12500000000E+03 0.  0.
        -13    1    3    3    0    0 -0.33988426286E+02 -0.45748876039E+02 -0.10512029317E+02  0.57954177628E+02  0.10566000000E+00 0. -1.
         23    2    1    0    0    0 -0.17747282945E+02 -0.20781487630E+02  0.11863594283E+02  0.95207699831E+02  0.90426351014E+02 0.  0.
         13    1    3    3    0    0  0.16241143341E+02  0.24967388408E+02  0.22375623600E+02  0.37253522202E+02  0.10566000000E+00 0.  1.
         22    1    1    0    0    0  0.17747282945E+02  0.20781487630E+02 -0.11863594283E+02  0.29792300169E+02  0.00000000000E+00 0.  1.
</event>
<event>
 5    1  0.1325686E-009  0.9118800E+02  0.7818608E-02  0.1130116E+00
         25   -1    0    0    0    0  0.00000000000E+00  0.00000000000E+00  0.99999998245E-14  0.12500000000E+03  0.12500000000E+03 0.  0.
        -13    1    3    3    0    0 -0.26485383837E+01 -0.89837886376E+01 -0.41011569182E+02  0.42067602554E+02  0.10566000000E+00 0. -1.
         23    2    1    0    0    0 -0.85804136230E+01  0.23405871381E+02  0.58998910285E+01  0.99382290751E+02  0.96023813128E+02 0.  0.
         13    1    3    3    0    0 -0.59318752392E+01  0.32389660019E+02  0.46911460210E+02  0.57314688197E+02  0.10566000000E+00 0.  1.
         22    1    1    0    0    0  0.85804136230E+01 -0.23405871381E+02 -0.58998910285E+01  0.25617709249E+02  0.00000000000E+00 0.  1.
</event>
<event>
 5    1  0.1325686E-009  0.9118800E+02  0.7818608E-02  0.1130116E+00
         25   -1    0    0    0    0  0.00000000000E+00  0.00000000000E+00  0.99999998245E-14  0.12500000000E+03  0.12500000000E+03 0.  0.
        -13    1    3    3    0    0 -0.16721884401E+02  0.27983955877E+02 -0.13320626881E+02  0.35216096731E+02  0.10566000000E+00 0.  1.
         23    2    1    0    0    0  0.14600159630E+02 -0.17973909969E+01  0.26954201477E+02  0.94292928292E+02  0.89152857907E+02 0.  0.
         13    1    3    3    0    0  0.31322044032E+02 -0.29781346874E+02  0.40274828358E+02  0.59076831561E+02  0.10566000000E+00 0. -1.
         22    1    1    0    0    0 -0.14600159630E+02  0.17973909969E+01 -0.26954201477E+02  0.30707071708E+02  0.00000000000E+00 0. -1.
</event>
<event>
 5    1  0.1325686E-009  0.9118800E+02  0.7818608E-02  0.1130116E+00
         25   -1    0    0    0    0  0.00000000000E+00  0.00000000000E+00  0.99999998245E-14  0.12500000000E+03  0.12500000000E+03 0.  0.
        -13    1    3    3    0    0 -0.53554964319E+02  0.40340968203E+01 -0.19593580188E+02  0.57169289736E+02  0.10566000000E+00 0.  1.
         23    2    1    0    0    0 -0.20541083848E+02  0.18507932272E+02 -0.15101256141E+02  0.93495593647E+02  0.88027827485E+02 0.  0.
         13    1    3    3    0    0  0.33013880471E+02  0.14473835452E+02  0.44923240470E+01  0.36326303911E+02  0.10566000000E+00 0. -1.
         22    1    1    0    0    0  0.20541083848E+02 -0.18507932272E+02  0.15101256141E+02  0.31504406353E+02  0.00000000000E+00 0.  1.
</event>
<event>
 4    1  0.1325686E-009  0.9118800E+02  0.7818608E-02  0.1130116E+00
         25   -1    0    0    0    0  0.00000000000E+00  0.00000000000E+00  0.99999998245E-14  0.12500000000E+03  0.12500000000E+03 0.  0.
        -13    1    1    0    0    0  0.76730459868E+00 -0.33318491138E+02  0.32147235733E+02  0.46305145906E+02  0.10566000000E+00 0.  1.
         13    1    1    0    0    0  0.84113389874E+01 -0.17884326218E+02 -0.75977963016E+01  0.21173979798E+02  0.10566000000E+00 0. -1.
         22    1    1    0    0    0 -0.91786435861E+01  0.51202817356E+02 -0.24549439432E+02  0.57520874295E+02  0.00000000000E+00 0. -1.
</event>
<event>
 5    1  0.1325686E-009  0.9118800E+02  0.7818608E-02  0.1130116E+00
         25   -1    0    0    0    0  0.00000000000E+00  0.00000000000E+00  0.99999998245E-14  0.12500000000E+03  0.12500000000E+03 0.  0.
        -13    1    3    3    0    0  0.34616912531E+02 -0.17723110341E+01  0.16088255784E+02  0.38214066230E+02  0.10566000000E+00 0. -1.
         23    2    1    0    0    0 -0.18225003857E+02  0.20773630601E+02  0.79917233918E+01  0.96232620267E+02  0.91832211488E+02 0.  0.
         13    1    3    3    0    0 -0.52841916388E+02  0.22545941635E+02 -0.80965323924E+01  0.58018554037E+02  0.10566000000E+00 0.  1.
         22    1    1    0    0    0  0.18225003857E+02 -0.20773630601E+02 -0.79917233918E+01  0.28767379733E+02  0.00000000000E+00 0.  1.
</event>
<event>
 5    1  0.1325686E-009  0.9118800E+02  0.7818608E-02  0.1130116E+00
         25   -1    0    0    0    0  0.00000000000E+00  0.00000000000E+00  0.99999998245E-14  0.12500000000E+03  0.12500000000E+03 0.  0.
        -13    1    3    3    0    0  0.47682150772E+02 -0.19964827136E+02  0.28116861601E+02  0.58845143343E+02  0.10566000000E+00 0.  1.
         23    2    1    0    0    0  0.19448749086E+02  0.34290415982E+01  0.20957334482E+02  0.96203784348E+02  0.91792952273E+02 0.  0.
         13    1    3    3    0    0 -0.28233401685E+02  0.23393868734E+02 -0.71595271186E+01  0.37358641004E+02  0.10566000000E+00 0. -1.
         22    1    1    0    0    0 -0.19448749086E+02 -0.34290415982E+01 -0.20957334482E+02  0.28796215652E+02  0.00000000000E+00 0.  1.
</event>
<event>
 5    1  0.1325686E-009  0.9118800E+02  0.7818608E-02  0.1130116E+00
         25   -1    0    0    0    0  0.00000000000E+00  0.00000000000E+00  0.99999998245E-14  0.12500000000E+03  0.12500000000E+03 0.  0.
        -13    1    3    3    0    0 -0.90509500541E+01 -0.43793362382E+02 -0.40621964380E+02  0.60414679009E+02  0.10566000000E+00 0. -1.
         23    2    1    0    0    0 -0.12227483694E+01 -0.26975988498E+02 -0.10025651398E+02  0.96195265060E+02  0.91781350311E+02 0.  0.
         13    1    3    3    0    0  0.78282016847E+01  0.16817373884E+02  0.30596312983E+02  0.35780586051E+02  0.10566000000E+00 0.  1.
         22    1    1    0    0    0  0.12227483694E+01  0.26975988498E+02  0.10025651398E+02  0.28804734940E+02  0.00000000000E+00 0. -1.
</event>
<event>
 5    1  0.1325686E-009  0.9118800E+02  0.7818608E-02  0.1130116E+00
         25   -1    0    0    0    0  0.00000000000E+00  0.00000000000E+00  0.99999998245E-14  0.12500000000E+03  0.12500000000E+03 0.  0.
        -13    1    3    3    0    0 -0.36891985992E+02  0.36851725939E+02 -0.23897524462E+02  0.57360013725E+02  0.10566000000E+00 0. -1.
         23    2    1    0    0    0 -0.27004903800E+02  0.11680528234E+02  0.29035418735E+01  0.95434308320E+02  0.90739060388E+02 0.  0.
         13    1    3    3    0    0  0.98870821916E+01 -0.25171197705E+02  0.26801066335E+02  0.38074294595E+02  0.10566000000E+00 0.  1.
         22    1    1    0    0    0  0.27004903800E+02 -0.11680528234E+02 -0.29035418735E+01  0.29565691680E+02  0.00000000000E+00 0. -1.
</event>
<event>
 5    1  0.1325686E-009  0.9118800E+02  0.7818608E-02  0.1130116E+00
         25   -1    0    0    0    0  0.00000000000E+00  0.00000000000E+00  0.99999998245E-14  0.12500000000E+03  0.12500000000E+03 0.  0.
        -13    1    3    3    0    0  0.31697851187E+02 -0.24289300326E+02 -0.36450435181E+02  0.54068190918E+02  0.10566000000E+00 0.  1.
         23    2    1    0    0    0  0.26193206301E+02 -0.10070487024E+02  0.33965346625E+01  0.96732789085E+02  0.92510525191E+02 0.  0.
         13    1    3    3    0    0 -0.55046448866E+01  0.14218813302E+02  0.39846969843E+02  0.42664598167E+02  0.10566000000E+00 0. -1.
         22    1    1    0    0    0 -0.26193206301E+02  0.10070487024E+02 -0.33965346625E+01  0.28267210915E+02  0.00000000000E+00 0.  1.
</event>
<event>
 5    1  0.1325686E-009  0.9118800E+02  0.7818608E-02  0.1130116E+00
         25   -1    0    0    0    0  0.00000000000E+00  0.00000000000E+00  0.99999998245E-14  0.12500000000E+03  0.12500000000E+03 0.  0.
        -13    1    3    3    0    0 -0.51662592790E+02  0.26264122755E+01  0.15908429850E+02  0.54120336654E+02  0.10566000000E+00 0. -1.
         23    2    1    0    0    0 -0.18850765041E+02  0.22108639735E+02 -0.11579337966E+01  0.95922790638E+02  0.91409505302E+02 0.  0.
         13    1    3    3    0    0  0.32811827748E+02  0.19482227460E+02 -0.17066363646E+02  0.41802453985E+02  0.10566000000E+00 0.  1.
         22    1    1    0    0    0  0.18850765041E+02 -0.22108639735E+02  0.11579337966E+01  0.29077209362E+02  0.00000000000E+00 0. -1.
</event>
<event>
 5    1  0.1325686E-009  0.9118800E+02  0.7818608E-02  0.1130116E+00
         25   -1    0    0    0    0  0.00000000000E+00  0.00000000000E+00  0.99999998245E-14  0.12500000000E+03  0.12500000000E+03 0.  0.
        -13    1    3    3    0    0 -0.32899437221E+02  0.10840749214E+02 -0.31782384515E+01  0.34785157419E+02  0.10566000000E+00 0.  1.
         23    2    1    0    0    0  0.18338240747E+02 -0.17323794444E+02 -0.16634818362E+02  0.94782089590E+02  0.89836086277E+02 0.  0.
         13    1    3    3    0    0  0.51237677968E+02 -0.28164543658E+02 -0.13456579910E+02  0.59996932171E+02  0.10566000000E+00 0. -1.
         22    1    1    0    0    0 -0.18338240747E+02  0.17323794444E+02  0.16634818362E+02  0.30217910410E+02  0.00000000000E+00 0. -1.
</event>
<event>
 5    1  0.1325686E-009  0.9118800E+02  0.7818608E-02  0.1130116E+00
         25   -1    0    0    0    0  0.00000000000E+00  0.00000000000E+00  0.99999998245E-14  0.12500000000E+03  0.12500000000E+03 0.  0.
        -13    1    3    3    0    0  0.96332353210E+01  0.29949044355E+02 -0.98751682553E+01  0.32973847101E+02  0.10566000000E+00 0. -1.
         23    2    1    0    0    0 -0.59913505124E+01 -0.27282942765E+02  0.96753729025E+01  0.95438740087E+02  0.90745165280E+02 0.  0.
         13    1    3    3    0    0 -0.15624585833E+02 -0.57231987120E+02  0.19550541158E+02  0.62464892986E+02  0.10566000000E+00 0.  1.
         22    1    1    0    0    0  0.59913505124E+01  0.27282942765E+02 -0.96753729025E+01  0.29561259913E+02  0.00000000000E+00 0.  1.
</event>
<event>
 5    1  0.1325686E-009  0.9118800E+02  0.7818608E-02  0.1130116E+00
         25   -1    0    0    0    0  0.00000000000E+00  0.00000000000E+00  0.99999998245E-14  0.12500000000E+03  0.12500000000E+03 0.  0.
        -13    1    3    3    0    0  0.19374325127E+02 -0.11795545162E+02  0.27315680201E+02  0.35505730645E+02  0.10566000000E+00 0. -1.
         23    2    1    0    0    0 -0.23136473363E+02  0.27476174898E+01 -0.15052707289E+02  0.97261402374E+02  0.93222049932E+02 0.  0.
         13    1    3    3    0    0 -0.42510798490E+02  0.14543162652E+02 -0.42368387489E+02  0.61755671729E+02  0.10566000000E+00 0.  1.
         22    1    1    0    0    0  0.23136473363E+02 -0.27476174898E+01  0.15052707289E+02  0.27738597626E+02  0.00000000000E+00 0.  1.
</event>
<event>
 5    1  0.1325686E-009  0.9118800E+02  0.7818608E-02  0.1130116E+00
         25   -1    0    0    0    0  0.00000000000E+00  0.00000000000E+00  0.99999998245E-14  0.12500000000E+03  0.12500000000E+03 0.  0.
        -13    1    3    3    0    0  0.15976545256E+02  0.36435395862E+02  0.29339825715E+02  0.49433031538E+02  0.10566000000E+00 0.  1.
         23    2    1    0    0    0 -0.20868847187E+02  0.13559991414E+02  0.18075688167E+02  0.94241055727E+02  0.89080098404E+02 0.  0.
         13    1    3    3    0    0 -0.36845392444E+02 -0.22875404448E+02 -0.11264137548E+02  0.44808024189E+02  0.10566000000E+00 0. -1.
         22    1    1    0    0    0  0.20868847187E+02 -0.13559991414E+02 -0.18075688167E+02  0.30758944273E+02  0.00000000000E+00 0.  1.
</event>
<event>
 5    1  0.1325686E-009  0.9118800E+02  0.7818608E-02  0.1130116E+00
         25   -1    0    0    0    0  0.00000000000E+00  0.00000000000E+00  0.99999998245E-14  0.12500000000E+03  0.12500000000E+03 0.  0.
        -13    1    3    3    0    0 -0.18874308957E+02 -0.56059015353E+02  0.19111947835E+01  0.59182062912E+02  0.10566000000E+00 0. -1.
         23    2    1    0    0    0 -0.21522345154E+02 -0.20318258977E+02  0.42559439842E+01  0.95097557826E+02  0.90273968875E+02 0.  0.
         13    1    3    3    0    0 -0.26480361968E+01  0.35740756377E+02  0.23447492007E+01  0.35915494914E+02  0.10566000000E+00 0.  1.
         22    1    1    0    0    0  0.21522345154E+02  0.20318258977E+02 -0.42559439842E+01  0.29902442174E+02  0.00000000000E+00 0. -1.
</event>
<event>
 5    1  0.1325686E-009  0.9118800E+02  0.7818608E-02  0.1130116E+00
         25   -1    0    0    0    0  0.00000000000E+00  0.00000000000E+00  0.99999998245E-14  0.12500000000E+03  0.12500000000E+03 0.  0.
        -13    1    3    3    0    0  0.35154797377E+02 -0.15465290111E+02  0.32528409918E+02  0.50330344651E+02  0.10566000000E+00 0.  1.
         23    2    1    0    0    0  0.14152751342E+02  0.18898990262E+02  0.23670480116E+02  0.91567024775E+02  0.85245270800E+02 0.  0.
         13    1    3    3    0    0 -0.21002046036E+02  0.34364280373E+02 -0.88579298024E+01  0.41236680124E+02  0.10566000000E+00 0. -1.
         22    1    1    0    0    0 -0.14152751342E+02 -0.18898990262E+02 -0.23670480116E+02  0.33432975225E+02  0.00000000000E+00 0.  1.
</event>
<event>
 5    1  0.1325686E-009  0.9118800E+02  0.7818608E-02  0.1130116E+00
         25   -1    0    0    0    0  0.00000000000E+00  0.00000000000E+00  0.99999998245E-14  0.12500000000E+03  0.12500000000E+03 0.  0.
        -13    1    3    3    0    0  0.59889918212E+01  0.96540027788E+01  0.55818537839E+02  0.56963041730E+02  0.10566000000E+00 0.  1.
         23    2    1    0    0    0 -0.57437703374E+01 -0.12098822984E+02  0.26489300206E+02  0.95317421933E+02  0.90577897322E+02 0.  0.
         13    1    3    3    0    0 -0.11732762159E+02 -0.21752825763E+02 -0.29329237633E+02  0.38354380202E+02  0.10566000000E+00 0. -1.
         22    1    1    0    0    0  0.57437703374E+01  0.12098822984E+02 -0.26489300206E+02  0.29682578067E+02  0.00000000000E+00 0.  1.
</event>
<event>
 5    1  0.1325686E-009  0.9118800E+02  0.7818608E-02  0.1130116E+00
         25   -1    0    0    0    0  0.00000000000E+00  0.00000000000E+00  0.99999998245E-14  0.12500000000E+03  0.12500000000E+03 0.  0.
        -13    1    3    3    0    0 -0.95901925814E+01  0.46200290454E+02 -0.29678342493E+02  0.55742746693E+02  0.10566000000E+00 0.  1.
         23    2    1    0    0    0  0.16014526010E+02  0.22062929146E+02 -0.10791158185E+02  0.95679580822E+02  0.91076315282E+02 0.  0.
         13    1    3    3    0    0  0.25604718592E+02 -0.24137361308E+02  0.18887184308E+02  0.39936834128E+02  0.10566000000E+00 0. -1.
         22    1    1    0    0    0 -0.16014526010E+02 -0.22062929146E+02  0.10791158185E+02  0.29320419178E+02  0.00000000000E+00 0.  1.
</event>
<event>
 5    1  0.1325686E-009  0.9118800E+02  0.7818608E-02  0.1130116E+00
         25   -1    0    0    0    0  0.00000000000E+00  0.00000000000E+00  0.99999998245E-14  0.12500000000E+03  0.12500000000E+03 0.  0.
        -13    1    3    3    0    0  0.31937896842E+02 -0.50674134785E+02  0.12008359417E+02  0.61090989932E+02  0.10566000000E+00 0.  1.
         23    2    1    0    0    0  0.21937507428E+02 -0.18341022529E+02  0.22355360715E+01  0.96318212031E+02  0.91948643317E+02 0.  0.
         13    1    3    3    0    0 -0.10000389414E+02  0.32333112257E+02 -0.97728233459E+01  0.35227222099E+02  0.10566000000E+00 0. -1.
         22    1    1    0    0    0 -0.21937507428E+02  0.18341022529E+02 -0.22355360715E+01  0.28681787969E+02  0.00000000000E+00 0.  1.
</event>
<event>
 5    1  0.1325686E-009  0.9118800E+02  0.7818608E-02  0.1130116E+00
         25   -1    0    0    0    0  0.00000000000E+00  0.00000000000E+00  0.99999998245E-14  0.12500000000E+03  0.12500000000E+03 0.  0.
        -13    1    3    3    0    0  0.34632315811E+02  0.41179942977E+02  0.45028877090E+01  0.53995112407E+02  0.10566000000E+00 0.  1.
         23    2    1    0    0    0  0.14506460152E+02  0.55595212008E+01  0.21647309504E+02  0.98355081707E+02  0.94677190636E+02 0.  0.
         13    1    3    3    0    0 -0.20125855660E+02 -0.35620421776E+02  0.17144421795E+02  0.44359969300E+02  0.10566000000E+00 0. -1.
         22    1    1    0    0    0 -0.14506460152E+02 -0.55595212008E+01 -0.21647309504E+02  0.26644918293E+02  0.00000000000E+00 0.  1.
</event>
<event>
 5    1  0.1325686E-009  0.9118800E+02  0.7818608E-02  0.1130116E+00
         25   -1    0    0    0    0  0.00000000000E+00  0.00000000000E+00  0.99999998245E-14  0.12500000000E+03  0.12500000000E+03 0.  0.
        -13    1    3    3    0    0 -0.49326305567E+00 -0.16487316890E+02  0.46207724883E+02  0.49063631435E+02  0.10566000000E+00 0.  1.
         23    2    1    0    0    0 -0.20280765226E+02  0.13304970542E+02  0.15394639151E+02  0.96271502060E+02  0.91885121293E+02 0.  0.
         13    1    3    3    0    0 -0.19787502170E+02  0.29792287432E+02 -0.30813085732E+02  0.47207870625E+02  0.10566000000E+00 0. -1.
         22    1    1    0    0    0  0.20280765226E+02 -0.13304970542E+02 -0.15394639151E+02  0.28728497940E+02  0.00000000000E+00 0.  1.
</event>
<event>
 5    1  0.1325686E-009  0.9118800E+02  0.7818608E-02  0.1130116E+00
         25   -1    0    0    0    0  0.00000000000E+00  0.00000000000E+00  0.99999998245E-14  0.12500000000E+03  0.12500000000E+03 0.  0.
        -13    1    3    3    0    0  0.14314174327E+01  0.70030449395E+01  0.32935358143E+02  0.33702233967E+02  0.10566000000E+00 0. -1.
         23    2    1    0    0    0  0.12447036016E+02 -0.47266651117E+00 -0.27088568808E+02  0.95184858221E+02  0.90394770619E+02 0.  0.
         13    1    3    3    0    0  0.11015618584E+02 -0.74757114507E+01 -0.60023926951E+02  0.61482624254E+02  0.10566000000E+00 0.  1.
         22    1    1    0    0    0 -0.12447036016E+02  0.47266651117E+00  0.27088568808E+02  0.29815141779E+02  0.00000000000E+00 0.  1.
</event>
<event>
 5    1  0.1325686E-009  0.9118800E+02  0.7818608E-02  0.1130116E+00
         25   -1    0    0    0    0  0.00000000000E+00  0.00000000000E+00  0.99999998245E-14  0.12500000000E+03  0.12500000000E+03 0.  0.
        -13    1    3    3    0    0 -0.15923606390E+02  0.16330739038E+02  0.40256419781E+02  0.46269263833E+02  0.10566000000E+00 0. -1.
         23    2    1    0    0    0  0.13039375440E+02 -0.17468488911E+02  0.61337705330E+01  0.10235498824E+03  0.99818570716E+02 0.  0.
         13    1    3    3    0    0  0.28962981830E+02 -0.33799227950E+02 -0.34122649248E+02  0.56085724406E+02  0.10566000000E+00 0.  1.
         22    1    1    0    0    0 -0.13039375440E+02  0.17468488911E+02 -0.61337705330E+01  0.22645011761E+02  0.00000000000E+00 0.  1.
</event>
<event>
 5    1  0.1325686E-009  0.9118800E+02  0.7818608E-02  0.1130116E+00
         25   -1    0    0    0    0  0.00000000000E+00  0.00000000000E+00  0.99999998245E-14  0.12500000000E+03  0.12500000000E+03 0.  0.
        -13    1    3    3    0    0 -0.54225446068E+01 -0.27202802781E+02  0.48837623701E+02  0.56165123716E+02  0.10566000000E+00 0.  1.
         23    2    1    0    0    0  0.28214263040E+01  0.57791557880E+01  0.28505623309E+02  0.95777925326E+02  0.91211190824E+02 0.  0.
         13    1    3    3    0    0  0.82439709107E+01  0.32981958569E+02 -0.20332000392E+02  0.39612801610E+02  0.10566000000E+00 0. -1.
         22    1    1    0    0    0 -0.28214263040E+01 -0.57791557880E+01 -0.28505623309E+02  0.29222074674E+02  0.00000000000E+00 0.  1.
</event>
<event>
 5    1  0.1325686E-009  0.9118800E+02  0.7818608E-02  0.1130116E+00
         25   -1    0    0    0    0  0.00000000000E+00  0.00000000000E+00  0.99999998245E-14  0.12500000000E+03  0.12500000000E+03 0.  0.
        -13    1    3    3    0    0 -0.45246386523E+02  0.12775909949E+02 -0.24807337779E+02  0.53158955409E+02  0.10566000000E+00 0.  1.
         23    2    1    0    0    0 -0.25562585545E+02 -0.83859235863E+01  0.80500507326E+01  0.96918461386E+02  0.92761065897E+02 0.  0.
         13    1    3    3    0    0  0.19683800977E+02 -0.21161833536E+02  0.32857388512E+02  0.43759505977E+02  0.10566000000E+00 0. -1.
         22    1    1    0    0    0  0.25562585545E+02  0.83859235863E+01 -0.80500507326E+01  0.28081538614E+02  0.00000000000E+00 0.  1.
</event>
<event>
 5    1  0.1325686E-009  0.9118800E+02  0.7818608E-02  0.1130116E+00
         25   -1    0    0    0    0  0.00000000000E+00  0.00000000000E+00  0.99999998245E-14  0.12500000000E+03  0.12500000000E+03 0.  0.
        -13    1    3    3    0    0 -0.34415151800E+02  0.12196331802E+02  0.24944490418E+02  0.44219813988E+02  0.10566000000E+00 0.  1.
         23    2    1    0    0    0 -0.14636752970E+02 -0.26622066923E+02 -0.38971027614E+00  0.94617095945E+02  0.89606216225E+02 0.  0.
         13    1    3    3    0    0  0.19778398830E+02 -0.38818398724E+02 -0.25334200695E+02  0.50397281957E+02  0.10566000000E+00 0. -1.
         22    1    1    0    0    0  0.14636752970E+02  0.26622066923E+02  0.38971027614E+00  0.30382904055E+02  0.00000000000E+00 0. -1.
</event>
<event>
 5    1  0.1325686E-009  0.9118800E+02  0.7818608E-02  0.1130116E+00
         25   -1    0    0    0    0  0.00000000000E+00  0.00000000000E+00  0.99999998245E-14  0.12500000000E+03  0.12500000000E+03 0.  0.
        -13    1    3    3    0    0  0.31432128618E+02  0.15747277808E+02 -0.29692793133E+02  0.46017698725E+02  0.10566000000E+00 0. -1.
         23    2    1    0    0    0  0.49926457189E+00  0.27080442032E+02  0.86480641265E+01  0.96567824232E+02  0.92287355895E+02 0.  0.
         13    1    3    3    0    0 -0.30932864046E+02  0.11333164224E+02  0.38340857259E+02  0.50550125508E+02  0.10566000000E+00 0.  1.
         22    1    1    0    0    0 -0.49926457189E+00 -0.27080442032E+02 -0.86480641265E+01  0.28432175768E+02  0.00000000000E+00 0.  1.
</event>
<event>
 5    1  0.1325686E-009  0.9118800E+02  0.7818608E-02  0.1130116E+00
         25   -1    0    0    0    0  0.00000000000E+00  0.00000000000E+00  0.99999998245E-14  0.12500000000E+03  0.12500000000E+03 0.  0.
        -13    1    3    3    0    0 -0.16206774647E+02  0.19351900323E+02 -0.27201817932E+02  0.37109374199E+02  0.10566000000E+00 0. -1.
         23    2    1    0    0    0  0.29336838626E+02 -0.18198700076E+01  0.25700155396E+01  0.95494627484E+02  0.90822116641E+02 0.  0.
         13    1    3    3    0    0  0.45543613273E+02 -0.21171770331E+02  0.29771833472E+02  0.58385253285E+02  0.10566000000E+00 0.  1.
         22    1    1    0    0    0 -0.29336838626E+02  0.18198700076E+01 -0.25700155396E+01  0.29505372516E+02  0.00000000000E+00 0.  1.
</event>
<event>
 5    1  0.1325686E-009  0.9118800E+02  0.7818608E-02  0.1130116E+00
         25   -1    0    0    0    0  0.00000000000E+00  0.00000000000E+00  0.99999998245E-14  0.12500000000E+03  0.12500000000E+03 0.  0.
        -13    1    3    3    0    0 -0.15474274425E+02 -0.11001233925E+02 -0.44762497086E+02  0.48622758316E+02  0.10566000000E+00 0.  1.
         23    2    1    0    0    0  0.14584362381E+02 -0.23984101983E+02 -0.13662496366E+02  0.93781342423E+02  0.88432661419E+02 0.  0.
         13    1    3    3    0    0  0.30058636807E+02 -0.12982868058E+02  0.31100000720E+02  0.45158584106E+02  0.10566000000E+00 0. -1.
         22    1    1    0    0    0 -0.14584362381E+02  0.23984101983E+02  0.13662496366E+02  0.31218657577E+02  0.00000000000E+00 0. -1.
</event>
<event>
 4    1  0.1325686E-009  0.9118800E+02  0.7818608E-02  0.1130116E+00
         25   -1    0    0    0    0  0.00000000000E+00  0.00000000000E+00  0.99999998245E-14  0.12500000000E+03  0.12500000000E+03 0.  0.
        -13    1    1    0    0    0  0.28934153950E+02  0.18080655302E+02 -0.48023345351E+02  0.58909661547E+02  0.10566000000E+00 0.  1.
         13    1    1    0    0    0  0.37189556247E+01 -0.10762517766E+02  0.79779832456E+01  0.13904021012E+02  0.10566000000E+00 0. -1.
         22    1    1    0    0    0 -0.32653109574E+02 -0.73181375359E+01  0.40045362105E+02  0.52186317440E+02  0.00000000000E+00 0.  1.
</event>
<event>
 5    1  0.1325686E-009  0.9118800E+02  0.7818608E-02  0.1130116E+00
         25   -1    0    0    0    0  0.00000000000E+00  0.00000000000E+00  0.99999998245E-14  0.12500000000E+03  0.12500000000E+03 0.  0.
        -13    1    3    3    0    0  0.14534031427E+02 -0.21171240289E+01 -0.52898378724E+02  0.54899634966E+02  0.10566000000E+00 0.  1.
         23    2    1    0    0    0  0.25271507970E+02  0.36938627142E+01 -0.13571847007E+02  0.96077884448E+02  0.91621346378E+02 0.  0.
         13    1    3    3    0    0  0.10737476543E+02  0.58109867431E+01  0.39326531718E+02  0.41178249482E+02  0.10566000000E+00 0. -1.
         22    1    1    0    0    0 -0.25271507970E+02 -0.36938627142E+01  0.13571847007E+02  0.28922115552E+02  0.00000000000E+00 0.  1.
</event>
<event>
 5    1  0.1325686E-009  0.9118800E+02  0.7818608E-02  0.1130116E+00
         25   -1    0    0    0    0  0.00000000000E+00  0.00000000000E+00  0.99999998245E-14  0.12500000000E+03  0.12500000000E+03 0.  0.
        -13    1    3    3    0    0  0.26848861891E+01  0.29046021468E+02 -0.56059637124E+01  0.29703837634E+02  0.10566000000E+00 0.  1.
         23    2    1    0    0    0 -0.17470030528E+02 -0.27221738787E+02 -0.13419997375E+02  0.89981128533E+02  0.82887165070E+02 0.  0.
         13    1    3    3    0    0 -0.20154916717E+02 -0.56267760256E+02 -0.78140336626E+01  0.60277290900E+02  0.10566000000E+00 0. -1.
         22    1    1    0    0    0  0.17470030528E+02  0.27221738787E+02  0.13419997375E+02  0.35018871467E+02  0.00000000000E+00 0. -1.
</event>
<event>
 5    1  0.1325686E-009  0.9118800E+02  0.7818608E-02  0.1130116E+00
         25   -1    0    0    0    0  0.00000000000E+00  0.00000000000E+00  0.99999998245E-14  0.12500000000E+03  0.12500000000E+03 0.  0.
        -13    1    3    3    0    0  0.52638010798E+02 -0.26026814133E+02  0.10465051003E+02  0.59646321691E+02  0.10566000000E+00 0. -1.
         23    2    1    0    0    0  0.27806579810E+02 -0.91610111934E+00  0.11299414197E+02  0.94971315660E+02  0.90098995083E+02 0.  0.
         13    1    3    3    0    0 -0.24831430988E+02  0.25110713014E+02  0.83436319449E+00  0.35324993969E+02  0.10566000000E+00 0.  1.
         22    1    1    0    0    0 -0.27806579810E+02  0.91610111934E+00 -0.11299414197E+02  0.30028684340E+02  0.00000000000E+00 0. -1.
</event>
<event>
 5    1  0.1325686E-009  0.9118800E+02  0.7818608E-02  0.1130116E+00
         25   -1    0    0    0    0  0.00000000000E+00  0.00000000000E+00  0.99999998245E-14  0.12500000000E+03  0.12500000000E+03 0.  0.
        -13    1    3    3    0    0  0.25601235363E+02  0.13770040567E+02 -0.36783619130E+02  0.46883718599E+02  0.10566000000E+00 0. -1.
         23    2    1    0    0    0  0.26828174632E+02 -0.96585284192E+01  0.61694813541E+01  0.95826371061E+02  0.91277558935E+02 0.  0.
         13    1    3    3    0    0  0.12269392696E+01 -0.23428568986E+02  0.42953100485E+02  0.48942652462E+02  0.10566000000E+00 0.  1.
         22    1    1    0    0    0 -0.26828174632E+02  0.96585284192E+01 -0.61694813541E+01  0.29173628939E+02  0.00000000000E+00 0.  1.
</event>
<event>
 5    1  0.1325686E-009  0.9118800E+02  0.7818608E-02  0.1130116E+00
         25   -1    0    0    0    0  0.00000000000E+00  0.00000000000E+00  0.99999998245E-14  0.12500000000E+03  0.12500000000E+03 0.  0.
        -13    1    3    3    0    0 -0.56362476505E+01  0.34877562831E+02  0.18882303493E+02  0.40059508557E+02  0.10566000000E+00 0.  1.
         23    2    1    0    0    0 -0.24938912869E+02 -0.33180555767E+01 -0.15926151103E+02  0.95224151450E+02  0.90449089894E+02 0.  0.
         13    1    3    3    0    0 -0.19302665218E+02 -0.38195618408E+02 -0.34808454596E+02  0.55164642893E+02  0.10566000000E+00 0. -1.
         22    1    1    0    0    0  0.24938912869E+02  0.33180555767E+01  0.15926151103E+02  0.29775848550E+02  0.00000000000E+00 0. -1.
</event>
<event>
 5    1  0.1325686E-009  0.9118800E+02  0.7818608E-02  0.1130116E+00
         25   -1    0    0    0    0  0.00000000000E+00  0.00000000000E+00  0.99999998245E-14  0.12500000000E+03  0.12500000000E+03 0.  0.
        -13    1    3    3    0    0 -0.83378772838E+01 -0.42934234586E+02  0.44393877592E+02  0.62319308635E+02  0.10566000000E+00 0.  1.
         23    2    1    0    0    0 -0.67451444582E+00 -0.17670686041E+02  0.20498522119E+02  0.97927919844E+02  0.94111529374E+02 0.  0.
         13    1    3    3    0    0  0.76633628380E+01  0.25263548545E+02 -0.23895355473E+02  0.35608611209E+02  0.10566000000E+00 0. -1.
         22    1    1    0    0    0  0.67451444582E+00  0.17670686041E+02 -0.20498522119E+02  0.27072080156E+02  0.00000000000E+00 0.  1.
</event>
<event>
 5    1  0.1325686E-009  0.9118800E+02  0.7818608E-02  0.1130116E+00
         25   -1    0    0    0    0  0.00000000000E+00  0.00000000000E+00  0.99999998245E-14  0.12500000000E+03  0.12500000000E+03 0.  0.
        -13    1    3    3    0    0 -0.35452866109E+02 -0.12863038331E+02 -0.21826252783E+02  0.43574762707E+02  0.10566000000E+00 0.  1.
         23    2    1    0    0    0 -0.15106590735E+02 -0.29955020224E+01  0.25035291138E+02  0.95607009027E+02  0.90976657757E+02 0.  0.
         13    1    3    3    0    0  0.20346275374E+02  0.98675363084E+01  0.46861543921E+02  0.52032246320E+02  0.10566000000E+00 0. -1.
         22    1    1    0    0    0  0.15106590735E+02  0.29955020224E+01 -0.25035291138E+02  0.29392990973E+02  0.00000000000E+00 0.  1.
</event>
<event>
 5    1  0.1325686E-009  0.9118800E+02  0.7818608E-02  0.1130116E+00
         25   -1    0    0    0    0  0.00000000000E+00  0.00000000000E+00  0.99999998245E-14  0.12500000000E+03  0.12500000000E+03 0.  0.
        -13    1    3    3    0    0 -0.60265584239E+02  0.15470694701E+01  0.11869480139E+02  0.61442898617E+02  0.10566000000E+00 0.  1.
         23    2    1    0    0    0 -0.34655579042E+02 -0.38729346729E+01  0.13925112477E+00  0.90128404502E+02  0.83108971390E+02 0.  0.
         13    1    3    3    0    0  0.25610005198E+02 -0.54200041430E+01 -0.11730229014E+02  0.28685505885E+02  0.10566000000E+00 0. -1.
         22    1    1    0    0    0  0.34655579042E+02  0.38729346729E+01 -0.13925112477E+00  0.34871595498E+02  0.00000000000E+00 0.  1.
</event>
<event>
 5    1  0.1325686E-009  0.9118800E+02  0.7818608E-02  0.1130116E+00
         25   -1    0    0    0    0  0.00000000000E+00  0.00000000000E+00  0.99999998245E-14  0.12500000000E+03  0.12500000000E+03 0.  0.
        -13    1    3    3    0    0  0.26595915918E+02  0.11609098352E+01 -0.25633487444E+02  0.36956424309E+02  0.10566000000E+00 0.  1.
         23    2    1    0    0    0 -0.27033570070E+02 -0.10986070810E+02 -0.73006902362E+01  0.94919977718E+02  0.90027742554E+02 0.  0.
         13    1    3    3    0    0 -0.53629485989E+02 -0.12146980645E+02  0.18332797207E+02  0.57963553408E+02  0.10566000000E+00 0. -1.
         22    1    1    0    0    0  0.27033570070E+02  0.10986070810E+02  0.73006902362E+01  0.30080022282E+02  0.00000000000E+00 0. -1.
</event>
<event>
 5    1  0.1325686E-009  0.9118800E+02  0.7818608E-02  0.1130116E+00
         25   -1    0    0    0    0  0.00000000000E+00  0.00000000000E+00  0.99999998245E-14  0.12500000000E+03  0.12500000000E+03 0.  0.
        -13    1    3    3    0    0 -0.16915631864E+00 -0.47739707038E+02  0.15053780152E+02  0.50057324168E+02  0.10566000000E+00 0.  1.
         23    2    1    0    0    0 -0.10279531062E+02 -0.19003573270E+02 -0.19340418015E+02  0.96002477263E+02  0.91518409710E+02 0.  0.
         13    1    3    3    0    0 -0.10110374744E+02  0.28736133768E+02 -0.34394198167E+02  0.45945153095E+02  0.10566000000E+00 0. -1.
         22    1    1    0    0    0  0.10279531062E+02  0.19003573270E+02  0.19340418015E+02  0.28997522737E+02  0.00000000000E+00 0.  1.
</event>
<event>
 5    1  0.1325686E-009  0.9118800E+02  0.7818608E-02  0.1130116E+00
         25   -1    0    0    0    0  0.00000000000E+00  0.00000000000E+00  0.99999998245E-14  0.12500000000E+03  0.12500000000E+03 0.  0.
        -13    1    3    3    0    0  0.85155608522E+01  0.53606971978E+01 -0.33985289653E+02  0.35443799569E+02  0.10566000000E+00 0.  1.
         23    2    1    0    0    0  0.10097387959E+02  0.57661717076E+01  0.26557398325E+02  0.96008598076E+02  0.91526769411E+02 0.  0.
         13    1    3    3    0    0  0.15818271066E+01  0.40547450983E+00  0.60542687978E+02  0.60564798507E+02  0.10566000000E+00 0. -1.
         22    1    1    0    0    0 -0.10097387959E+02 -0.57661717076E+01 -0.26557398325E+02  0.28991401924E+02  0.00000000000E+00 0. -1.
</event>
<event>
 5    1  0.1325686E-009  0.9118800E+02  0.7818608E-02  0.1130116E+00
         25   -1    0    0    0    0  0.00000000000E+00  0.00000000000E+00  0.99999998245E-14  0.12500000000E+03  0.12500000000E+03 0.  0.
        -13    1    3    3    0    0 -0.17240546047E+02 -0.25059964931E+02  0.49549070939E+02  0.58140862268E+02  0.10566000000E+00 0.  1.
         23    2    1    0    0    0  0.66847516667E+01 -0.15854501747E+02  0.30138456959E+02  0.90295854450E+02  0.83360443932E+02 0.  0.
         13    1    3    3    0    0  0.23925297713E+02  0.92054631845E+01 -0.19410613980E+02  0.32154992182E+02  0.10566000000E+00 0. -1.
         22    1    1    0    0    0 -0.66847516667E+01  0.15854501747E+02 -0.30138456959E+02  0.34704145550E+02  0.00000000000E+00 0.  1.
</event>
<event>
 5    1  0.1325686E-009  0.9118800E+02  0.7818608E-02  0.1130116E+00
         25   -1    0    0    0    0  0.00000000000E+00  0.00000000000E+00  0.99999998245E-14  0.12500000000E+03  0.12500000000E+03 0.  0.
        -13    1    3    3    0    0 -0.41496509570E+02 -0.14275563642E+02  0.18288200614E+01  0.43921609381E+02  0.10566000000E+00 0. -1.
         23    2    1    0    0    0  0.23054487456E+01 -0.24246293726E+02 -0.19641449746E+02  0.93711273572E+02  0.88333563231E+02 0.  0.
         13    1    3    3    0    0  0.43801958315E+02 -0.99707300832E+01 -0.21470269807E+02  0.49789664191E+02  0.10566000000E+00 0.  1.
         22    1    1    0    0    0 -0.23054487456E+01  0.24246293726E+02  0.19641449746E+02  0.31288726428E+02  0.00000000000E+00 0.  1.
</event>
<event>
 5    1  0.1325686E-009  0.9118800E+02  0.7818608E-02  0.1130116E+00
         25   -1    0    0    0    0  0.00000000000E+00  0.00000000000E+00  0.99999998245E-14  0.12500000000E+03  0.12500000000E+03 0.  0.
        -13    1    3    3    0    0  0.32778572748E+02  0.20594544693E+02  0.18491567097E+02  0.42901274110E+02  0.10566000000E+00 0.  1.
         23    2    1    0    0    0 -0.15754411570E+02  0.59398935820E+01  0.25870788367E+02  0.94132840908E+02  0.88928118315E+02 0.  0.
         13    1    3    3    0    0 -0.48532984318E+02 -0.14654651111E+02  0.73792212698E+01  0.51231566798E+02  0.10566000000E+00 0. -1.
         22    1    1    0    0    0  0.15754411570E+02 -0.59398935820E+01 -0.25870788367E+02  0.30867159092E+02  0.00000000000E+00 0.  1.
</event>
<event>
 5    1  0.1325686E-009  0.9118800E+02  0.7818608E-02  0.1130116E+00
         25   -1    0    0    0    0  0.00000000000E+00  0.00000000000E+00  0.99999998245E-14  0.12500000000E+03  0.12500000000E+03 0.  0.
        -13    1    3    3    0    0  0.16754901044E+02  0.79595474790E+01  0.26700202413E+02  0.32511429959E+02  0.10566000000E+00 0.  1.
         23    2    1    0    0    0 -0.33351828980E+02  0.16907014941E+02  0.78273339786E+01  0.86797136131E+02  0.77937693274E+02 0.  0.
         13    1    3    3    0    0 -0.50106730024E+02  0.89474674619E+01 -0.18872868434E+02  0.54285706172E+02  0.10566000000E+00 0. -1.
         22    1    1    0    0    0  0.33351828980E+02 -0.16907014941E+02 -0.78273339786E+01  0.38202863869E+02  0.00000000000E+00 0. -1.
</event>
<event>
 5    1  0.1325686E-009  0.9118800E+02  0.7818608E-02  0.1130116E+00
         25   -1    0    0    0    0  0.00000000000E+00  0.00000000000E+00  0.99999998245E-14  0.12500000000E+03  0.12500000000E+03 0.  0.
        -13    1    3    3    0    0 -0.22180083633E+02  0.34863512726E+02 -0.31925606620E+02  0.52217584698E+02  0.10566000000E+00 0.  1.
         23    2    1    0    0    0  0.14790345783E+02  0.21496602924E+02 -0.12582670587E+02  0.96031364120E+02  0.91557856189E+02 0.  0.
         13    1    3    3    0    0  0.36970429416E+02 -0.13366909802E+02  0.19342936033E+02  0.43813779422E+02  0.10566000000E+00 0. -1.
         22    1    1    0    0    0 -0.14790345783E+02 -0.21496602924E+02  0.12582670587E+02  0.28968635880E+02  0.00000000000E+00 0. -1.
</event>
<event>
 5    1  0.1325686E-009  0.9118800E+02  0.7818608E-02  0.1130116E+00
         25   -1    0    0    0    0  0.00000000000E+00  0.00000000000E+00  0.99999998245E-14  0.12500000000E+03  0.12500000000E+03 0.  0.
        -13    1    3    3    0    0 -0.27277362478E+02 -0.73858579260E+01 -0.26749610001E+01  0.28386123044E+02  0.10566000000E+00 0.  1.
         23    2    1    0    0    0  0.31407961762E+02 -0.39279427054E+01  0.15277353059E+02  0.89853359870E+02  0.82694255952E+02 0.  0.
         13    1    3    3    0    0  0.58685324241E+02  0.34579152206E+01  0.17952314059E+02  0.61467236826E+02  0.10566000000E+00 0. -1.
         22    1    1    0    0    0 -0.31407961762E+02  0.39279427054E+01 -0.15277353059E+02  0.35146640130E+02  0.00000000000E+00 0. -1.
</event>
<event>
 5    1  0.1325686E-009  0.9118800E+02  0.7818608E-02  0.1130116E+00
         25   -1    0    0    0    0  0.00000000000E+00  0.00000000000E+00  0.99999998245E-14  0.12500000000E+03  0.12500000000E+03 0.  0.
        -13    1    3    3    0    0  0.39448953212E+02 -0.83796785301E+01 -0.34063514280E+02  0.52789895728E+02  0.10566000000E+00 0.  1.
         23    2    1    0    0    0 -0.27509862745E+01  0.51464315486E+01 -0.26647590990E+02  0.97720927641E+02  0.93836197229E+02 0.  0.
         13    1    3    3    0    0 -0.42199939487E+02  0.13526110079E+02  0.74159232895E+01  0.44931031914E+02  0.10566000000E+00 0. -1.
         22    1    1    0    0    0  0.27509862745E+01 -0.51464315486E+01  0.26647590990E+02  0.27279072359E+02  0.00000000000E+00 0. -1.
</event>
<event>
 5    1  0.1325686E-009  0.9118800E+02  0.7818608E-02  0.1130116E+00
         25   -1    0    0    0    0  0.00000000000E+00  0.00000000000E+00  0.99999998245E-14  0.12500000000E+03  0.12500000000E+03 0.  0.
        -13    1    3    3    0    0 -0.22043764788E+02  0.68058491568E+01 -0.26973844616E+02  0.35494317942E+02  0.10566000000E+00 0.  1.
         23    2    1    0    0    0  0.16778586040E+02 -0.24517506621E+02  0.51802893794E+01  0.94842671231E+02  0.89920341457E+02 0.  0.
         13    1    3    3    0    0  0.38822350828E+02 -0.31323355778E+02  0.32154133995E+02  0.59348353289E+02  0.10566000000E+00 0. -1.
         22    1    1    0    0    0 -0.16778586040E+02  0.24517506621E+02 -0.51802893794E+01  0.30157328769E+02  0.00000000000E+00 0. -1.
</event>
<event>
 5    1  0.1325686E-009  0.9118800E+02  0.7818608E-02  0.1130116E+00
         25   -1    0    0    0    0  0.00000000000E+00  0.00000000000E+00  0.99999998245E-14  0.12500000000E+03  0.12500000000E+03 0.  0.
        -13    1    3    3    0    0 -0.36391064519E+02 -0.45093766753E+02 -0.18203256888E+01  0.57974840460E+02  0.10566000000E+00 0. -1.
         23    2    1    0    0    0 -0.13652298170E+02 -0.23764616160E+02 -0.17101352534E+02  0.92695225042E+02  0.86883866515E+02 0.  0.
         13    1    3    3    0    0  0.22738766348E+02  0.21329150593E+02 -0.15281026845E+02  0.34720384582E+02  0.10566000000E+00 0.  1.
         22    1    1    0    0    0  0.13652298170E+02  0.23764616160E+02  0.17101352534E+02  0.32304774958E+02  0.00000000000E+00 0. -1.
</event>
<event>
 5    1  0.1325686E-009  0.9118800E+02  0.7818608E-02  0.1130116E+00
         25   -1    0    0    0    0  0.00000000000E+00  0.00000000000E+00  0.99999998245E-14  0.12500000000E+03  0.12500000000E+03 0.  0.
        -13    1    3    3    0    0  0.23196308195E+02  0.17177648086E+02 -0.19922977847E+02  0.35072446707E+02  0.10566000000E+00 0. -1.
         23    2    1    0    0    0 -0.19112637256E+02 -0.21791165349E+02  0.20761565685E+00  0.96013953454E+02  0.91534083070E+02 0.  0.
         13    1    3    3    0    0 -0.42308945451E+02 -0.38968813435E+02  0.20130593504E+02  0.60941506747E+02  0.10566000000E+00 0.  1.
         22    1    1    0    0    0  0.19112637256E+02  0.21791165349E+02 -0.20761565685E+00  0.28986046546E+02  0.00000000000E+00 0.  1.
</event>
<event>
 5    1  0.1325686E-009  0.9118800E+02  0.7818608E-02  0.1130116E+00
         25   -1    0    0    0    0  0.00000000000E+00  0.00000000000E+00  0.99999998245E-14  0.12500000000E+03  0.12500000000E+03 0.  0.
        -13    1    3    3    0    0 -0.25503705568E+02 -0.11339100638E+02  0.44211142490E+02  0.52284323514E+02  0.10566000000E+00 0. -1.
         23    2    1    0    0    0 -0.85063904337E+01  0.20110707230E+02  0.19305131504E+02  0.95854034140E+02  0.91315434265E+02 0.  0.
         13    1    3    3    0    0  0.16997315135E+02  0.31449807868E+02 -0.24906010987E+02  0.43569710626E+02  0.10566000000E+00 0.  1.
         22    1    1    0    0    0  0.85063904337E+01 -0.20110707230E+02 -0.19305131504E+02  0.29145965860E+02  0.00000000000E+00 0. -1.
</event>
<event>
 5    1  0.1325686E-009  0.9118800E+02  0.7818608E-02  0.1130116E+00
         25   -1    0    0    0    0  0.00000000000E+00  0.00000000000E+00  0.99999998245E-14  0.12500000000E+03  0.12500000000E+03 0.  0.
        -13    1    3    3    0    0 -0.31203050608E+02 -0.43343207802E+02 -0.10316057718E+02  0.54393898929E+02  0.10566000000E+00 0.  1.
         23    2    1    0    0    0 -0.92835578663E+01 -0.13023885304E+02  0.17707660158E+02  0.10113858212E+03  0.98283495712E+02 0.  0.
         13    1    3    3    0    0  0.21919492742E+02  0.30319322498E+02  0.28023717876E+02  0.46744683189E+02  0.10566000000E+00 0. -1.
         22    1    1    0    0    0  0.92835578663E+01  0.13023885304E+02 -0.17707660158E+02  0.23861417882E+02  0.00000000000E+00 0. -1.
</event>
<event>
 5    1  0.1325686E-009  0.9118800E+02  0.7818608E-02  0.1130116E+00
         25   -1    0    0    0    0  0.00000000000E+00  0.00000000000E+00  0.99999998245E-14  0.12500000000E+03  0.12500000000E+03 0.  0.
        -13    1    3    3    0    0  0.29338890765E+02 -0.51702441401E+02 -0.85520998272E+01  0.60058825610E+02  0.10566000000E+00 0.  1.
         23    2    1    0    0    0  0.40618618291E+01 -0.30118077098E+02  0.83490898966E+00  0.94597790169E+02  0.89579280764E+02 0.  0.
         13    1    3    3    0    0 -0.25277028936E+02  0.21584364303E+02  0.93870088169E+01  0.34538964559E+02  0.10566000000E+00 0. -1.
         22    1    1    0    0    0 -0.40618618291E+01  0.30118077098E+02 -0.83490898966E+00  0.30402209831E+02  0.00000000000E+00 0.  1.
</event>
<event>
 5    1  0.1325686E-009  0.9118800E+02  0.7818608E-02  0.1130116E+00
         25   -1    0    0    0    0  0.00000000000E+00  0.00000000000E+00  0.99999998245E-14  0.12500000000E+03  0.12500000000E+03 0.  0.
        -13    1    3    3    0    0 -0.15094053096E+02  0.56835042184E+02 -0.10454496381E+02  0.59727381639E+02  0.10566000000E+00 0. -1.
         23    2    1    0    0    0  0.47910105810E+01  0.33086096225E+02 -0.45372533479E+01  0.91262332420E+02  0.84797306001E+02 0.  0.
         13    1    3    3    0    0  0.19885063677E+02 -0.23748945958E+02  0.59172430335E+01  0.31534950780E+02  0.10566000000E+00 0.  1.
         22    1    1    0    0    0 -0.47910105810E+01 -0.33086096225E+02  0.45372533479E+01  0.33737667580E+02  0.00000000000E+00 0. -1.
</event>
<event>
 5    1  0.1325686E-009  0.9118800E+02  0.7818608E-02  0.1130116E+00
         25   -1    0    0    0    0  0.00000000000E+00  0.00000000000E+00  0.99999998245E-14  0.12500000000E+03  0.12500000000E+03 0.  0.
        -13    1    3    3    0    0  0.44924074149E+02 -0.29225747595E+02 -0.21093407449E+02  0.57595657497E+02  0.10566000000E+00 0.  1.
         23    2    1    0    0    0  0.10488306831E+02 -0.13020833683E+02 -0.23983829764E+02  0.95763536805E+02  0.91191470003E+02 0.  0.
         13    1    3    3    0    0 -0.34435767318E+02  0.16204913912E+02 -0.28904223147E+01  0.38167879308E+02  0.10566000000E+00 0. -1.
         22    1    1    0    0    0 -0.10488306831E+02  0.13020833683E+02  0.23983829764E+02  0.29236463195E+02  0.00000000000E+00 0.  1.
</event>
<event>
 5    1  0.1325686E-009  0.9118800E+02  0.7818608E-02  0.1130116E+00
         25   -1    0    0    0    0  0.00000000000E+00  0.00000000000E+00  0.99999998245E-14  0.12500000000E+03  0.12500000000E+03 0.  0.
        -13    1    3    3    0    0 -0.18570529947E+01 -0.15560881876E+02 -0.40568863210E+02  0.43490614123E+02  0.10566000000E+00 0.  1.
         23    2    1    0    0    0 -0.17530136748E+02 -0.20701572205E+02  0.95400193607E+01  0.96244604758E+02  0.91848523066E+02 0.  0.
         13    1    3    3    0    0 -0.15673083753E+02 -0.51406903290E+01  0.50108882571E+02  0.52753990635E+02  0.10566000000E+00 0. -1.
         22    1    1    0    0    0  0.17530136748E+02  0.20701572205E+02 -0.95400193607E+01  0.28755395242E+02  0.00000000000E+00 0.  1.
</event>
<event>
 5    1  0.1325686E-009  0.9118800E+02  0.7818608E-02  0.1130116E+00
         25   -1    0    0    0    0  0.00000000000E+00  0.00000000000E+00  0.99999998245E-14  0.12500000000E+03  0.12500000000E+03 0.  0.
        -13    1    3    3    0    0 -0.35944871542E+02  0.24456916676E+02 -0.40772913749E+01  0.43667035994E+02  0.10566000000E+00 0. -1.
         23    2    1    0    0    0 -0.75070480156E+01  0.87737987953E+01 -0.34776723830E+02  0.88356367053E+02  0.80399575641E+02 0.  0.
         13    1    3    3    0    0  0.28437823527E+02 -0.15683117881E+02 -0.30699432455E+02  0.44689331059E+02  0.10566000000E+00 0.  1.
         22    1    1    0    0    0  0.75070480156E+01 -0.87737987953E+01  0.34776723830E+02  0.36643632947E+02  0.00000000000E+00 0. -1.
</event>
<event>
 5    1  0.1325686E-009  0.9118800E+02  0.7818608E-02  0.1130116E+00
         25   -1    0    0    0    0  0.00000000000E+00  0.00000000000E+00  0.99999998245E-14  0.12500000000E+03  0.12500000000E+03 0.  0.
        -13    1    3    3    0    0 -0.10806969238E+02  0.21071644462E+02  0.32066539671E+02  0.39863252689E+02  0.10566000000E+00 0. -1.
         23    2    1    0    0    0  0.17686523425E+02  0.18695016280E+02 -0.15204252415E+02  0.95108763223E+02  0.90289483362E+02 0.  0.
         13    1    3    3    0    0  0.28493492663E+02 -0.23766281828E+01 -0.47270792086E+02  0.55245510534E+02  0.10566000000E+00 0.  1.
         22    1    1    0    0    0 -0.17686523425E+02 -0.18695016280E+02  0.15204252415E+02  0.29891236777E+02  0.00000000000E+00 0. -1.
</event>
<event>
 5    1  0.1325686E-009  0.9118800E+02  0.7818608E-02  0.1130116E+00
         25   -1    0    0    0    0  0.00000000000E+00  0.00000000000E+00  0.99999998245E-14  0.12500000000E+03  0.12500000000E+03 0.  0.
        -13    1    3    3    0    0  0.20244166762E+02  0.29929009778E+02  0.28928349822E+02  0.46286418112E+02  0.10566000000E+00 0. -1.
         23    2    1    0    0    0 -0.11858588727E+02 -0.80168317683E+01  0.25059125065E+02  0.96140764611E+02  0.91707094343E+02 0.  0.
         13    1    3    3    0    0 -0.32102755489E+02 -0.37945841546E+02 -0.38692247573E+01  0.49854346499E+02  0.10566000000E+00 0.  1.
         22    1    1    0    0    0  0.11858588727E+02  0.80168317683E+01 -0.25059125065E+02  0.28859235389E+02  0.00000000000E+00 0.  1.
</event>
<event>
 5    1  0.1325686E-009  0.9118800E+02  0.7818608E-02  0.1130116E+00
         25   -1    0    0    0    0  0.00000000000E+00  0.00000000000E+00  0.99999998245E-14  0.12500000000E+03  0.12500000000E+03 0.  0.
        -13    1    3    3    0    0 -0.29362579836E+02 -0.19400969835E+02  0.21289570912E+02  0.41131687527E+02  0.10566000000E+00 0. -1.
         23    2    1    0    0    0 -0.40286663240E+01  0.21977196983E+02 -0.11676576272E+02  0.99789490822E+02  0.96552435005E+02 0.  0.
         13    1    3    3    0    0  0.25333913512E+02  0.41378166818E+02 -0.32966147185E+02  0.58657803294E+02  0.10566000000E+00 0.  1.
         22    1    1    0    0    0  0.40286663240E+01 -0.21977196983E+02  0.11676576272E+02  0.25210509178E+02  0.00000000000E+00 0.  1.
</event>
<event>
 5    1  0.1325686E-009  0.9118800E+02  0.7818608E-02  0.1130116E+00
         25   -1    0    0    0    0  0.00000000000E+00  0.00000000000E+00  0.99999998245E-14  0.12500000000E+03  0.12500000000E+03 0.  0.
        -13    1    3    3    0    0 -0.15435365753E+02 -0.28183780329E+02 -0.18100298851E+02  0.36880997439E+02  0.10566000000E+00 0. -1.
         23    2    1    0    0    0 -0.14565121772E+02  0.26343468413E+02  0.15773711686E+01  0.94856854841E+02  0.89940056206E+02 0.  0.
         13    1    3    3    0    0  0.87024398127E+00  0.54527248743E+02  0.19677670020E+02  0.57975857402E+02  0.10566000000E+00 0.  1.
         22    1    1    0    0    0  0.14565121772E+02 -0.26343468413E+02 -0.15773711686E+01  0.30143145159E+02  0.00000000000E+00 0.  1.
</event>
<event>
 5    1  0.1325686E-009  0.9118800E+02  0.7818608E-02  0.1130116E+00
         25   -1    0    0    0    0  0.00000000000E+00  0.00000000000E+00  0.99999998245E-14  0.12500000000E+03  0.12500000000E+03 0.  0.
        -13    1    3    3    0    0  0.30465616235E+02 -0.88275766558E+01 -0.83645773111E+00  0.31729965454E+02  0.10566000000E+00 0.  1.
         23    2    1    0    0    0 -0.18608966225E+02  0.25499683801E+02 -0.90037559139E+01  0.92173256048E+02  0.86129634923E+02 0.  0.
         13    1    3    3    0    0 -0.49074582460E+02  0.34327260457E+02 -0.81672981828E+01  0.60443290593E+02  0.10566000000E+00 0. -1.
         22    1    1    0    0    0  0.18608966225E+02 -0.25499683801E+02  0.90037559139E+01  0.32826743952E+02  0.00000000000E+00 0. -1.
</event>
<event>
 5    1  0.1325686E-009  0.9118800E+02  0.7818608E-02  0.1130116E+00
         25   -1    0    0    0    0  0.00000000000E+00  0.00000000000E+00  0.99999998245E-14  0.12500000000E+03  0.12500000000E+03 0.  0.
        -13    1    3    3    0    0 -0.72876984419E+01 -0.60653485236E+02  0.12459796917E+02  0.62347522188E+02  0.10566000000E+00 0. -1.
         23    2    1    0    0    0 -0.11889654568E+01 -0.34908902113E+02  0.77652693372E+01  0.89218098242E+02  0.81728358361E+02 0.  0.
         13    1    3    3    0    0  0.60987329851E+01  0.25744583123E+02 -0.46945275794E+01  0.26870576053E+02  0.10566000000E+00 0.  1.
         22    1    1    0    0    0  0.11889654568E+01  0.34908902113E+02 -0.77652693372E+01  0.35781901758E+02  0.00000000000E+00 0. -1.
</event>
<event>
 5    1  0.1325686E-009  0.9118800E+02  0.7818608E-02  0.1130116E+00
         25   -1    0    0    0    0  0.00000000000E+00  0.00000000000E+00  0.99999998245E-14  0.12500000000E+03  0.12500000000E+03 0.  0.
        -13    1    3    3    0    0  0.27688233584E+02 -0.40225835733E+01 -0.28947305758E+02  0.40258876441E+02  0.10566000000E+00 0. -1.
         23    2    1    0    0    0  0.13773187313E+02 -0.13583286079E+02  0.23038257050E+02  0.94917319977E+02  0.90024052309E+02 0.  0.
         13    1    3    3    0    0 -0.13915046272E+02 -0.95607025062E+01  0.51985562808E+02  0.54658443535E+02  0.10566000000E+00 0.  1.
         22    1    1    0    0    0 -0.13773187313E+02  0.13583286079E+02 -0.23038257050E+02  0.30082680023E+02  0.00000000000E+00 0.  1.
</event>
<event>
 5    1  0.1325686E-009  0.9118800E+02  0.7818608E-02  0.1130116E+00
         25   -1    0    0    0    0  0.00000000000E+00  0.00000000000E+00  0.99999998245E-14  0.12500000000E+03  0.12500000000E+03 0.  0.
        -13    1    3    3    0    0 -0.13920803422E+02 -0.11774898628E+02 -0.30179982798E+02  0.35260169191E+02  0.10566000000E+00 0.  1.
         23    2    1    0    0    0  0.23876300833E+02 -0.32063598170E+02 -0.57936090257E+01  0.84605470982E+02  0.74339543619E+02 0.  0.
         13    1    3    3    0    0  0.37797104254E+02 -0.20288699541E+02  0.24386373772E+02  0.49345301792E+02  0.10566000000E+00 0. -1.
         22    1    1    0    0    0 -0.23876300833E+02  0.32063598170E+02  0.57936090257E+01  0.40394529018E+02  0.00000000000E+00 0. -1.
</event>
<event>
 5    1  0.1325686E-009  0.9118800E+02  0.7818608E-02  0.1130116E+00
         25   -1    0    0    0    0  0.00000000000E+00  0.00000000000E+00  0.99999998245E-14  0.12500000000E+03  0.12500000000E+03 0.  0.
        -13    1    3    3    0    0  0.14488665093E+02 -0.58761575925E+02  0.11284325182E+01  0.60532047259E+02  0.10566000000E+00 0.  1.
         23    2    1    0    0    0  0.17121869430E+02 -0.23758174090E+02  0.20159191488E+01  0.95645729802E+02  0.91029843735E+02 0.  0.
         13    1    3    3    0    0  0.26332043368E+01  0.35003401836E+02  0.88748663051E+00  0.35113682543E+02  0.10566000000E+00 0. -1.
         22    1    1    0    0    0 -0.17121869430E+02  0.23758174090E+02 -0.20159191488E+01  0.29354270198E+02  0.00000000000E+00 0.  1.
</event>
<event>
 5    1  0.1325686E-009  0.9118800E+02  0.7818608E-02  0.1130116E+00
         25   -1    0    0    0    0  0.00000000000E+00  0.00000000000E+00  0.99999998245E-14  0.12500000000E+03  0.12500000000E+03 0.  0.
        -13    1    3    3    0    0  0.37589617637E+02  0.61929912762E+01 -0.48869802932E+01  0.38408673961E+02  0.10566000000E+00 0. -1.
         23    2    1    0    0    0 -0.58971977609E+01 -0.11231164444E+02  0.27061166966E+02  0.95113167552E+02  0.90295580667E+02 0.  0.
         13    1    3    3    0    0 -0.43486815398E+02 -0.17424155721E+02  0.31948147260E+02  0.56704493591E+02  0.10566000000E+00 0.  1.
         22    1    1    0    0    0  0.58971977609E+01  0.11231164444E+02 -0.27061166966E+02  0.29886832448E+02  0.00000000000E+00 0.  1.
</event>
<event>
 5    1  0.1325686E-009  0.9118800E+02  0.7818608E-02  0.1130116E+00
         25   -1    0    0    0    0  0.00000000000E+00  0.00000000000E+00  0.99999998245E-14  0.12500000000E+03  0.12500000000E+03 0.  0.
        -13    1    3    3    0    0 -0.59791321656E+02  0.16513020003E+02 -0.21135491697E+01  0.62065773411E+02  0.10566000000E+00 0.  1.
         23    2    1    0    0    0 -0.29102797799E+02  0.42119122432E+01  0.26731092391E+01  0.95472748901E+02  0.90791999786E+02 0.  0.
         13    1    3    3    0    0  0.30688523856E+02 -0.12301107760E+02  0.47866584088E+01  0.33406975490E+02  0.10566000000E+00 0. -1.
         22    1    1    0    0    0  0.29102797799E+02 -0.42119122432E+01 -0.26731092391E+01  0.29527251099E+02  0.00000000000E+00 0.  1.
</event>
<event>
 5    1  0.1325686E-009  0.9118800E+02  0.7818608E-02  0.1130116E+00
         25   -1    0    0    0    0  0.00000000000E+00  0.00000000000E+00  0.99999998245E-14  0.12500000000E+03  0.12500000000E+03 0.  0.
        -13    1    3    3    0    0 -0.59058437825E+02  0.17989052438E+01  0.94579403987E+01  0.59838106079E+02  0.10566000000E+00 0. -1.
         23    2    1    0    0    0 -0.27387941463E+02 -0.72733656682E+01 -0.56881459514E+01  0.96097470870E+02  0.91648064451E+02 0.  0.
         13    1    3    3    0    0  0.31670496362E+02 -0.90722709120E+01 -0.15146086350E+02  0.36259364792E+02  0.10566000000E+00 0.  1.
         22    1    1    0    0    0  0.27387941463E+02  0.72733656682E+01  0.56881459514E+01  0.28902529130E+02  0.00000000000E+00 0. -1.
</event>
<event>
 5    1  0.1325686E-009  0.9118800E+02  0.7818608E-02  0.1130116E+00
         25   -1    0    0    0    0  0.00000000000E+00  0.00000000000E+00  0.99999998245E-14  0.12500000000E+03  0.12500000000E+03 0.  0.
        -13    1    3    3    0    0 -0.70905257954E+01  0.35708822234E+02 -0.85150788699E+01  0.37388678414E+02  0.10566000000E+00 0.  1.
         23    2    1    0    0    0  0.44171318816E+01  0.32502259649E+01  0.33124649611E+02  0.91424451833E+02  0.85035950975E+02 0.  0.
         13    1    3    3    0    0  0.11507657677E+02 -0.32458596269E+02  0.41639728481E+02  0.54035773419E+02  0.10566000000E+00 0. -1.
         22    1    1    0    0    0 -0.44171318816E+01 -0.32502259649E+01 -0.33124649611E+02  0.33575548167E+02  0.00000000000E+00 0. -1.
</event>
<event>
 5    1  0.1325686E-009  0.9118800E+02  0.7818608E-02  0.1130116E+00
         25   -1    0    0    0    0  0.00000000000E+00  0.00000000000E+00  0.99999998245E-14  0.12500000000E+03  0.12500000000E+03 0.  0.
        -13    1    3    3    0    0 -0.21147718362E+02  0.87564381452E+00 -0.41500408524E+02  0.46586347954E+02  0.10566000000E+00 0.  1.
         23    2    1    0    0    0  0.17067144324E+02  0.17796345929E+02 -0.13552433558E+02  0.96863443723E+02  0.92686897298E+02 0.  0.
         13    1    3    3    0    0  0.38214862686E+02  0.16920702115E+02  0.27947974966E+02  0.50277095768E+02  0.10566000000E+00 0. -1.
         22    1    1    0    0    0 -0.17067144324E+02 -0.17796345929E+02  0.13552433558E+02  0.28136556277E+02  0.00000000000E+00 0.  1.
</event>
<event>
 5    1  0.1325686E-009  0.9118800E+02  0.7818608E-02  0.1130116E+00
         25   -1    0    0    0    0  0.00000000000E+00  0.00000000000E+00  0.99999998245E-14  0.12500000000E+03  0.12500000000E+03 0.  0.
        -13    1    3    3    0    0 -0.32048212553E+02 -0.12689339628E+02 -0.22011466217E+02  0.40897714816E+02  0.10566000000E+00 0.  1.
         23    2    1    0    0    0  0.79693184911E+01  0.24448831679E+02 -0.12838461710E+02  0.96258366317E+02  0.91867249765E+02 0.  0.
         13    1    3    3    0    0  0.40017531045E+02  0.37138171307E+02  0.91730045076E+01  0.55360651502E+02  0.10566000000E+00 0. -1.
         22    1    1    0    0    0 -0.79693184911E+01 -0.24448831679E+02  0.12838461710E+02  0.28741633683E+02  0.00000000000E+00 0. -1.
</event>
<event>
 5    1  0.1325686E-009  0.9118800E+02  0.7818608E-02  0.1130116E+00
         25   -1    0    0    0    0  0.00000000000E+00  0.00000000000E+00  0.99999998245E-14  0.12500000000E+03  0.12500000000E+03 0.  0.
        -13    1    3    3    0    0  0.40567965028E+01  0.38863899868E+02 -0.43318884731E+02  0.58338642847E+02  0.10566000000E+00 0. -1.
         23    2    1    0    0    0  0.16090590701E+02  0.22843292595E+02 -0.14275964662E+02  0.93622838040E+02  0.88208330161E+02 0.  0.
         13    1    3    3    0    0  0.12033794198E+02 -0.16020607274E+02  0.29042920069E+02  0.35284195193E+02  0.10566000000E+00 0.  1.
         22    1    1    0    0    0 -0.16090590701E+02 -0.22843292595E+02  0.14275964662E+02  0.31377161960E+02  0.00000000000E+00 0. -1.
</event>
<event>
 5    1  0.1325686E-009  0.9118800E+02  0.7818608E-02  0.1130116E+00
         25   -1    0    0    0    0  0.00000000000E+00  0.00000000000E+00  0.99999998245E-14  0.12500000000E+03  0.12500000000E+03 0.  0.
        -13    1    3    3    0    0 -0.34203509413E+02 -0.87420363747E+01 -0.23770763686E+01  0.35383116203E+02  0.10566000000E+00 0.  1.
         23    2    1    0    0    0  0.18402628875E+02  0.21295722988E+02 -0.65428330052E+01  0.96104096643E+02  0.91657100984E+02 0.  0.
         13    1    3    3    0    0  0.52606138289E+02  0.30037759362E+02 -0.41657566366E+01  0.60720980440E+02  0.10566000000E+00 0. -1.
         22    1    1    0    0    0 -0.18402628875E+02 -0.21295722988E+02  0.65428330052E+01  0.28895903357E+02  0.00000000000E+00 0. -1.
</event>
<event>
 5    1  0.1325686E-009  0.9118800E+02  0.7818608E-02  0.1130116E+00
         25   -1    0    0    0    0  0.00000000000E+00  0.00000000000E+00  0.99999998245E-14  0.12500000000E+03  0.12500000000E+03 0.  0.
        -13    1    3    3    0    0  0.52647614912E+02  0.33322047637E+02 -0.40519529649E+01  0.62438447302E+02  0.10566000000E+00 0.  1.
         23    2    1    0    0    0  0.30843171790E+02  0.19474545416E+02 -0.43061213192E+01  0.88269878219E+02  0.80264995824E+02 0.  0.
         13    1    3    3    0    0 -0.21804443121E+02 -0.13847502221E+02 -0.25416835438E+00  0.25831430916E+02  0.10566000000E+00 0. -1.
         22    1    1    0    0    0 -0.30843171790E+02 -0.19474545416E+02  0.43061213192E+01  0.36730121781E+02  0.00000000000E+00 0.  1.
</event>
<event>
 5    1  0.1325686E-009  0.9118800E+02  0.7818608E-02  0.1130116E+00
         25   -1    0    0    0    0  0.00000000000E+00  0.00000000000E+00  0.99999998245E-14  0.12500000000E+03  0.12500000000E+03 0.  0.
        -13    1    3    3    0    0  0.39216548229E+02  0.19612697032E+02  0.26111935884E+02  0.51033713362E+02  0.10566000000E+00 0. -1.
         23    2    1    0    0    0 -0.16278311395E+01  0.27542682052E+02  0.10886556323E+02  0.95339145706E+02  0.90607871769E+02 0.  0.
         13    1    3    3    0    0 -0.40844379368E+02  0.79299850206E+01 -0.15225379561E+02  0.44305432344E+02  0.10566000000E+00 0.  1.
         22    1    1    0    0    0  0.16278311395E+01 -0.27542682052E+02 -0.10886556323E+02  0.29660854294E+02  0.00000000000E+00 0.  1.
</event>
<event>
 5    1  0.1325686E-009  0.9118800E+02  0.7818608E-02  0.1130116E+00
         25   -1    0    0    0    0  0.00000000000E+00  0.00000000000E+00  0.99999998245E-14  0.12500000000E+03  0.12500000000E+03 0.  0.
        -13    1    3    3    0    0  0.29706854347E+02  0.16490090551E+02 -0.79691124393E+01  0.34898971313E+02  0.10566000000E+00 0. -1.
         23    2    1    0    0    0 -0.25840095104E+02  0.68383123762E+01  0.13284325447E+02  0.95151275844E+02  0.90348320189E+02 0.  0.
         13    1    3    3    0    0 -0.55546949452E+02 -0.96517781747E+01  0.21253437886E+02  0.60252304531E+02  0.10566000000E+00 0.  1.
         22    1    1    0    0    0  0.25840095104E+02 -0.68383123762E+01 -0.13284325447E+02  0.29848724156E+02  0.00000000000E+00 0.  1.
</event>
<event>
 5    1  0.1325686E-009  0.9118800E+02  0.7818608E-02  0.1130116E+00
         25   -1    0    0    0    0  0.00000000000E+00  0.00000000000E+00  0.99999998245E-14  0.12500000000E+03  0.12500000000E+03 0.  0.
        -13    1    3    3    0    0 -0.28181701085E+00 -0.41691732534E+02  0.22750809940E+02  0.47496215633E+02  0.10566000000E+00 0.  1.
         23    2    1    0    0    0  0.28061135878E+02 -0.63485462533E+01  0.80819300717E+01  0.95116074890E+02  0.90299605328E+02 0.  0.
         13    1    3    3    0    0  0.28342952889E+02  0.35343186281E+02 -0.14668879868E+02  0.47619859256E+02  0.10566000000E+00 0. -1.
         22    1    1    0    0    0 -0.28061135878E+02  0.63485462533E+01 -0.80819300717E+01  0.29883925110E+02  0.00000000000E+00 0.  1.
</event>
<event>
 5    1  0.1325686E-009  0.9118800E+02  0.7818608E-02  0.1130116E+00
         25   -1    0    0    0    0  0.00000000000E+00  0.00000000000E+00  0.99999998245E-14  0.12500000000E+03  0.12500000000E+03 0.  0.
        -13    1    3    3    0    0 -0.19025159925E+02  0.48305600099E+02 -0.69855370911E-01  0.51917278000E+02  0.10566000000E+00 0. -1.
         23    2    1    0    0    0 -0.13210034095E+02  0.11368183530E+02 -0.23273578395E+02  0.95924236057E+02  0.91411481851E+02 0.  0.
         13    1    3    3    0    0  0.58151258294E+01 -0.36937416569E+02 -0.23203723024E+02  0.44006958057E+02  0.10566000000E+00 0.  1.
         22    1    1    0    0    0  0.13210034095E+02 -0.11368183530E+02  0.23273578395E+02  0.29075763943E+02  0.00000000000E+00 0. -1.
</event>
<event>
 5    1  0.1325686E-009  0.9118800E+02  0.7818608E-02  0.1130116E+00
         25   -1    0    0    0    0  0.00000000000E+00  0.00000000000E+00  0.99999998245E-14  0.12500000000E+03  0.12500000000E+03 0.  0.
        -13    1    3    3    0    0 -0.18001993521E+02 -0.40067431230E+02  0.16318931420E+00  0.43926172277E+02  0.10566000000E+00 0.  1.
         23    2    1    0    0    0 -0.31733705602E+02 -0.26569504519E+02 -0.25784002692E+02  0.76237499690E+02  0.58603540188E+02 0.  0.
         13    1    3    3    0    0 -0.13731712081E+02  0.13497926711E+02 -0.25947192006E+02  0.32311327413E+02  0.10566000000E+00 0. -1.
         22    1    1    0    0    0  0.31733705602E+02  0.26569504519E+02  0.25784002692E+02  0.48762500310E+02  0.00000000000E+00 0. -1.
</event>
<event>
 5    1  0.1325686E-009  0.9118800E+02  0.7818608E-02  0.1130116E+00
         25   -1    0    0    0    0  0.00000000000E+00  0.00000000000E+00  0.99999998245E-14  0.12500000000E+03  0.12500000000E+03 0.  0.
        -13    1    3    3    0    0 -0.36597274034E+02  0.77726963824E+01 -0.21048102682E+02  0.42927952039E+02  0.10566000000E+00 0.  1.
         23    2    1    0    0    0 -0.60573569151E+01 -0.22816035176E+02  0.13089552506E+02  0.98007419191E+02  0.94217062137E+02 0.  0.
         13    1    3    3    0    0  0.30539917119E+02 -0.30588731558E+02  0.34137655188E+02  0.55079467152E+02  0.10566000000E+00 0. -1.
         22    1    1    0    0    0  0.60573569151E+01  0.22816035176E+02 -0.13089552506E+02  0.26992580809E+02  0.00000000000E+00 0. -1.
</event>
<event>
 5    1  0.1325686E-009  0.9118800E+02  0.7818608E-02  0.1130116E+00
         25   -1    0    0    0    0  0.00000000000E+00  0.00000000000E+00  0.99999998245E-14  0.12500000000E+03  0.12500000000E+03 0.  0.
        -13    1    3    3    0    0  0.27229764989E+02 -0.34111860480E+02 -0.11055487013E+02  0.45025704701E+02  0.10566000000E+00 0. -1.
         23    2    1    0    0    0 -0.13364277016E+02 -0.80433773081E+01 -0.25255673684E+02  0.95315848136E+02  0.90575725412E+02 0.  0.
         13    1    3    3    0    0 -0.40594042005E+02  0.26068483172E+02 -0.14200186671E+02  0.50290143435E+02  0.10566000000E+00 0.  1.
         22    1    1    0    0    0  0.13364277016E+02  0.80433773081E+01  0.25255673684E+02  0.29684151864E+02  0.00000000000E+00 0.  1.
</event>
<event>
 5    1  0.1325686E-009  0.9118800E+02  0.7818608E-02  0.1130116E+00
         25   -1    0    0    0    0  0.00000000000E+00  0.00000000000E+00  0.99999998245E-14  0.12500000000E+03  0.12500000000E+03 0.  0.
        -13    1    3    3    0    0 -0.53304985928E+02  0.15239105300E+02 -0.16751095577E+02  0.57915992802E+02  0.10566000000E+00 0. -1.
         23    2    1    0    0    0 -0.25260088908E+02  0.35201897776E+01  0.92047798075E+01  0.97885579501E+02  0.94055275637E+02 0.  0.
         13    1    3    3    0    0  0.28044897020E+02 -0.11718915522E+02  0.25955875385E+02  0.39969586699E+02  0.10566000000E+00 0.  1.
         22    1    1    0    0    0  0.25260088908E+02 -0.35201897776E+01 -0.92047798075E+01  0.27114420499E+02  0.00000000000E+00 0. -1.
</event>
<event>
 5    1  0.1325686E-009  0.9118800E+02  0.7818608E-02  0.1130116E+00
         25   -1    0    0    0    0  0.00000000000E+00  0.00000000000E+00  0.99999998245E-14  0.12500000000E+03  0.12500000000E+03 0.  0.
        -13    1    3    3    0    0 -0.78164639271E+01  0.21388984323E+02  0.24313357107E+02  0.33312704131E+02  0.10566000000E+00 0.  1.
         23    2    1    0    0    0 -0.63315725216E+00 -0.23439478504E+02 -0.18050777207E+02  0.95408774976E+02  0.90703879432E+02 0.  0.
         13    1    3    3    0    0  0.71833066750E+01 -0.44828462827E+02 -0.42364134314E+02  0.62096070845E+02  0.10566000000E+00 0. -1.
         22    1    1    0    0    0  0.63315725216E+00  0.23439478504E+02  0.18050777207E+02  0.29591225024E+02  0.00000000000E+00 0. -1.
</event>
<event>
 5    1  0.1325686E-009  0.9118800E+02  0.7818608E-02  0.1130116E+00
         25   -1    0    0    0    0  0.00000000000E+00  0.00000000000E+00  0.99999998245E-14  0.12500000000E+03  0.12500000000E+03 0.  0.
        -13    1    3    3    0    0 -0.32920073950E+02 -0.82221268452E+01 -0.19707268859E+02  0.39239294701E+02  0.10566000000E+00 0.  1.
         23    2    1    0    0    0  0.73454243495E+01 -0.10106691131E+02  0.23534002042E+02  0.98355118378E+02  0.94677239053E+02 0.  0.
         13    1    3    3    0    0  0.40265498299E+02 -0.18845642857E+01  0.43241270902E+02  0.59115823677E+02  0.10566000000E+00 0. -1.
         22    1    1    0    0    0 -0.73454243495E+01  0.10106691131E+02 -0.23534002042E+02  0.26644881622E+02  0.00000000000E+00 0. -1.
</event>
<event>
 5    1  0.1325686E-009  0.9118800E+02  0.7818608E-02  0.1130116E+00
         25   -1    0    0    0    0  0.00000000000E+00  0.00000000000E+00  0.99999998245E-14  0.12500000000E+03  0.12500000000E+03 0.  0.
        -13    1    3    3    0    0 -0.13362877045E+02 -0.34757012520E+02 -0.14244328742E+02  0.39868890975E+02  0.10566000000E+00 0.  1.
         23    2    1    0    0    0  0.24575883596E+02  0.62480774715E+01 -0.14611127398E+02  0.95734020255E+02  0.91151001441E+02 0.  0.
         13    1    3    3    0    0  0.37938760641E+02  0.41005089992E+02 -0.36679865570E+00  0.55865129280E+02  0.10566000000E+00 0. -1.
         22    1    1    0    0    0 -0.24575883596E+02 -0.62480774715E+01  0.14611127398E+02  0.29265979745E+02  0.00000000000E+00 0. -1.
</event>
<event>
 5    1  0.1325686E-009  0.9118800E+02  0.7818608E-02  0.1130116E+00
         25   -1    0    0    0    0  0.00000000000E+00  0.00000000000E+00  0.99999998245E-14  0.12500000000E+03  0.12500000000E+03 0.  0.
        -13    1    3    3    0    0  0.21590826463E+02  0.23514642054E+02 -0.49795316794E+02  0.59149699213E+02  0.10566000000E+00 0. -1.
         23    2    1    0    0    0 -0.38827292259E+01  0.12240025421E+02 -0.26839572407E+02  0.95246740422E+02  0.90480302306E+02 0.  0.
         13    1    3    3    0    0 -0.25473555689E+02 -0.11274616632E+02  0.22955744388E+02  0.36097041209E+02  0.10566000000E+00 0.  1.
         22    1    1    0    0    0  0.38827292259E+01 -0.12240025421E+02  0.26839572407E+02  0.29753259578E+02  0.00000000000E+00 0. -1.
</event>
<event>
 5    1  0.1325686E-009  0.9118800E+02  0.7818608E-02  0.1130116E+00
         25   -1    0    0    0    0  0.00000000000E+00  0.00000000000E+00  0.99999998245E-14  0.12500000000E+03  0.12500000000E+03 0.  0.
        -13    1    3    3    0    0  0.17754826928E+02  0.47874923884E+02  0.30100952896E+02  0.59273271762E+02  0.10566000000E+00 0. -1.
         23    2    1    0    0    0  0.19684223478E+02  0.14301012044E+02  0.85735369482E+01  0.99202846373E+02  0.95789934718E+02 0.  0.
         13    1    3    3    0    0  0.19293965500E+01 -0.33573911839E+02 -0.21527415947E+02  0.39929574611E+02  0.10566000000E+00 0.  1.
         22    1    1    0    0    0 -0.19684223478E+02 -0.14301012044E+02 -0.85735369482E+01  0.25797153627E+02  0.00000000000E+00 0. -1.
</event>
<event>
 5    1  0.1325686E-009  0.9118800E+02  0.7818608E-02  0.1130116E+00
         25   -1    0    0    0    0  0.00000000000E+00  0.00000000000E+00  0.99999998245E-14  0.12500000000E+03  0.12500000000E+03 0.  0.
        -13    1    3    3    0    0 -0.34187074445E+02 -0.48350198516E+02  0.17770124875E+01  0.59242439966E+02  0.10566000000E+00 0.  1.
         23    2    1    0    0    0 -0.73407168720E+01 -0.30388762762E+02 -0.75018628698E+01  0.92849712708E+02  0.87105844678E+02 0.  0.
         13    1    3    3    0    0  0.26846357573E+02  0.17961435754E+02 -0.92788753573E+01  0.33607272743E+02  0.10566000000E+00 0. -1.
         22    1    1    0    0    0  0.73407168720E+01  0.30388762762E+02  0.75018628698E+01  0.32150287292E+02  0.00000000000E+00 0.  1.
</event>
<event>
 5    1  0.1325686E-009  0.9118800E+02  0.7818608E-02  0.1130116E+00
         25   -1    0    0    0    0  0.00000000000E+00  0.00000000000E+00  0.99999998245E-14  0.12500000000E+03  0.12500000000E+03 0.  0.
        -13    1    3    3    0    0  0.29971664229E+02  0.48150367390E+02  0.27896822191E+01  0.56785139142E+02  0.10566000000E+00 0. -1.
         23    2    1    0    0    0  0.44216196259E+00  0.32344224136E+02  0.10187916729E+02  0.91086315602E+02  0.84537440821E+02 0.  0.
         13    1    3    3    0    0 -0.29529502266E+02 -0.15806143254E+02  0.73982345102E+01  0.34301176461E+02  0.10566000000E+00 0.  1.
         22    1    1    0    0    0 -0.44216196259E+00 -0.32344224136E+02 -0.10187916729E+02  0.33913684398E+02  0.00000000000E+00 0. -1.
</event>
<event>
 5    1  0.1325686E-009  0.9118800E+02  0.7818608E-02  0.1130116E+00
         25   -1    0    0    0    0  0.00000000000E+00  0.00000000000E+00  0.99999998245E-14  0.12500000000E+03  0.12500000000E+03 0.  0.
        -13    1    3    3    0    0 -0.19926405613E+02  0.46718782912E+02 -0.31581270780E+02  0.59808813277E+02  0.10566000000E+00 0.  1.
         23    2    1    0    0    0 -0.48584352499E+01  0.24459506747E+02 -0.28909306851E+02  0.86821211570E+02  0.77976296991E+02 0.  0.
         13    1    3    3    0    0  0.15067970363E+02 -0.22259276165E+02  0.26719639285E+01  0.27012398293E+02  0.10566000000E+00 0. -1.
         22    1    1    0    0    0  0.48584352499E+01 -0.24459506747E+02  0.28909306851E+02  0.38178788430E+02  0.00000000000E+00 0.  1.
</event>
<event>
 5    1  0.1325686E-009  0.9118800E+02  0.7818608E-02  0.1130116E+00
         25   -1    0    0    0    0  0.00000000000E+00  0.00000000000E+00  0.99999998245E-14  0.12500000000E+03  0.12500000000E+03 0.  0.
        -13    1    3    3    0    0 -0.38348107060E+02  0.24066504919E+01  0.12718490519E+02  0.40473947754E+02  0.10566000000E+00 0.  1.
         23    2    1    0    0    0 -0.23180299630E+00 -0.12120360356E+02 -0.25747676430E+02  0.96541263040E+02  0.92251372673E+02 0.  0.
         13    1    3    3    0    0  0.38116304063E+02 -0.14527010848E+02 -0.38466166949E+02  0.56067315286E+02  0.10566000000E+00 0. -1.
         22    1    1    0    0    0  0.23180299630E+00  0.12120360356E+02  0.25747676430E+02  0.28458736960E+02  0.00000000000E+00 0. -1.
</event>
<event>
 5    1  0.1325686E-009  0.9118800E+02  0.7818608E-02  0.1130116E+00
         25   -1    0    0    0    0  0.00000000000E+00  0.00000000000E+00  0.99999998245E-14  0.12500000000E+03  0.12500000000E+03 0.  0.
        -13    1    3    3    0    0  0.75162251655E+01 -0.28471957009E+02  0.27548169885E+01  0.29576107880E+02  0.10566000000E+00 0.  1.
         23    2    1    0    0    0 -0.19900597132E+02  0.26589256845E+02 -0.43902382031E+01  0.91499305421E+02  0.85145912147E+02 0.  0.
         13    1    3    3    0    0 -0.27416822297E+02  0.55061213854E+02 -0.71450551916E+01  0.61923197541E+02  0.10566000000E+00 0. -1.
         22    1    1    0    0    0  0.19900597132E+02 -0.26589256845E+02  0.43902382031E+01  0.33500694579E+02  0.00000000000E+00 0. -1.
</event>
<event>
 5    1  0.1325686E-009  0.9118800E+02  0.7818608E-02  0.1130116E+00
         25   -1    0    0    0    0  0.00000000000E+00  0.00000000000E+00  0.99999998245E-14  0.12500000000E+03  0.12500000000E+03 0.  0.
        -13    1    3    3    0    0  0.19714979586E+02 -0.21441779378E+02  0.28818929209E+02  0.40975262876E+02  0.10566000000E+00 0.  1.
         23    2    1    0    0    0  0.20426907828E+02 -0.21005687186E+01 -0.21729761156E+02  0.95102617636E+02  0.90280974789E+02 0.  0.
         13    1    3    3    0    0  0.71192824163E+00  0.19341210659E+02 -0.50548690365E+02  0.54127354760E+02  0.10566000000E+00 0. -1.
         22    1    1    0    0    0 -0.20426907828E+02  0.21005687186E+01  0.21729761156E+02  0.29897382364E+02  0.00000000000E+00 0. -1.
</event>
<event>
 5    1  0.1325686E-009  0.9118800E+02  0.7818608E-02  0.1130116E+00
         25   -1    0    0    0    0  0.00000000000E+00  0.00000000000E+00  0.99999998245E-14  0.12500000000E+03  0.12500000000E+03 0.  0.
        -13    1    3    3    0    0 -0.18667726954E+02 -0.34228581848E+02 -0.95943304143E+01  0.40151490447E+02  0.10566000000E+00 0. -1.
         23    2    1    0    0    0  0.20721123115E+02 -0.12616246554E+02  0.19667886512E+02  0.93769239841E+02  0.88415552705E+02 0.  0.
         13    1    3    3    0    0  0.39388850069E+02  0.21612335294E+02  0.29262216926E+02  0.53617749394E+02  0.10566000000E+00 0.  1.
         22    1    1    0    0    0 -0.20721123115E+02  0.12616246554E+02 -0.19667886512E+02  0.31230760159E+02  0.00000000000E+00 0.  1.
</event>
<event>
 5    1  0.1325686E-009  0.9118800E+02  0.7818608E-02  0.1130116E+00
         25   -1    0    0    0    0  0.00000000000E+00  0.00000000000E+00  0.99999998245E-14  0.12500000000E+03  0.12500000000E+03 0.  0.
        -13    1    3    3    0    0  0.45120082908E+02 -0.36567947949E+02 -0.65635903812E+01  0.58447656767E+02  0.10566000000E+00 0. -1.
         23    2    1    0    0    0  0.27118926936E+02 -0.73521627763E+01  0.80883611318E+01  0.95761120379E+02  0.91188157646E+02 0.  0.
         13    1    3    3    0    0 -0.18001155971E+02  0.29215785173E+02  0.14651951513E+02  0.37313463612E+02  0.10566000000E+00 0.  1.
         22    1    1    0    0    0 -0.27118926936E+02  0.73521627763E+01 -0.80883611318E+01  0.29238879621E+02  0.00000000000E+00 0. -1.
</event>
<event>
 5    1  0.1325686E-009  0.9118800E+02  0.7818608E-02  0.1130116E+00
         25   -1    0    0    0    0  0.00000000000E+00  0.00000000000E+00  0.99999998245E-14  0.12500000000E+03  0.12500000000E+03 0.  0.
        -13    1    3    3    0    0  0.39060641420E+01 -0.25036208597E+02  0.35181691437E+02  0.43357025433E+02  0.10566000000E+00 0. -1.
         23    2    1    0    0    0 -0.28490934188E+02 -0.75428826697E+01 -0.17099858216E+01  0.95477932637E+02  0.90799136335E+02 0.  0.
         13    1    3    3    0    0 -0.32396998330E+02  0.17493325927E+02 -0.36891677259E+02  0.52120907204E+02  0.10566000000E+00 0.  1.
         22    1    1    0    0    0  0.28490934188E+02  0.75428826697E+01  0.17099858216E+01  0.29522067363E+02  0.00000000000E+00 0.  1.
</event>
<event>
 5    1  0.1325686E-009  0.9118800E+02  0.7818608E-02  0.1130116E+00
         25   -1    0    0    0    0  0.00000000000E+00  0.00000000000E+00  0.99999998245E-14  0.12500000000E+03  0.12500000000E+03 0.  0.
        -13    1    3    3    0    0 -0.19698404461E+02  0.24137873320E+02  0.50530067205E+02  0.59362976025E+02  0.10566000000E+00 0. -1.
         23    2    1    0    0    0 -0.79335529311E+01 -0.96840175398E+00  0.30243174265E+02  0.93718557360E+02  0.88343869849E+02 0.  0.
         13    1    3    3    0    0  0.11764851530E+02 -0.25106275074E+02 -0.20286892941E+02  0.34355581335E+02  0.10566000000E+00 0.  1.
         22    1    1    0    0    0  0.79335529311E+01  0.96840175398E+00 -0.30243174265E+02  0.31281442640E+02  0.00000000000E+00 0. -1.
</event>
<event>
 5    1  0.1325686E-009  0.9118800E+02  0.7818608E-02  0.1130116E+00
         25   -1    0    0    0    0  0.00000000000E+00  0.00000000000E+00  0.99999998245E-14  0.12500000000E+03  0.12500000000E+03 0.  0.
        -13    1    3    3    0    0 -0.38940275277E+02  0.14015557344E+02 -0.13670107382E+02  0.43585133775E+02  0.10566000000E+00 0. -1.
         23    2    1    0    0    0  0.68102135103E+01  0.26630687012E+02  0.88601856635E+01  0.96119636623E+02  0.91678291628E+02 0.  0.
         13    1    3    3    0    0  0.45750488787E+02  0.12615129668E+02  0.22530293046E+02  0.52534502849E+02  0.10566000000E+00 0.  1.
         22    1    1    0    0    0 -0.68102135103E+01 -0.26630687012E+02 -0.88601856635E+01  0.28880363377E+02  0.00000000000E+00 0.  1.
</event>
<event>
 5    1  0.1325686E-009  0.9118800E+02  0.7818608E-02  0.1130116E+00
         25   -1    0    0    0    0  0.00000000000E+00  0.00000000000E+00  0.99999998245E-14  0.12500000000E+03  0.12500000000E+03 0.  0.
        -13    1    3    3    0    0 -0.41201318005E+02 -0.15919322444E+02 -0.96147778974E+01  0.45204297920E+02  0.10566000000E+00 0.  1.
         23    2    1    0    0    0  0.22948793320E+01 -0.23533648562E+02  0.16184396526E+02  0.96346313035E+02  0.91986837421E+02 0.  0.
         13    1    3    3    0    0  0.43496197337E+02 -0.76143261173E+01  0.25799174424E+02  0.51142015114E+02  0.10566000000E+00 0. -1.
         22    1    1    0    0    0 -0.22948793320E+01  0.23533648562E+02 -0.16184396526E+02  0.28653686965E+02  0.00000000000E+00 0. -1.
</event>
<event>
 5    1  0.1325686E-009  0.9118800E+02  0.7818608E-02  0.1130116E+00
         25   -1    0    0    0    0  0.00000000000E+00  0.00000000000E+00  0.99999998245E-14  0.12500000000E+03  0.12500000000E+03 0.  0.
        -13    1    3    3    0    0 -0.22661215272E+02 -0.27649354108E+02  0.20777601408E+02  0.41348970296E+02  0.10566000000E+00 0.  1.
         23    2    1    0    0    0 -0.19516102726E+02  0.80205040178E+01 -0.20215120255E+02  0.95779154063E+02  0.91212874726E+02 0.  0.
         13    1    3    3    0    0  0.31451125460E+01  0.35669858126E+02 -0.40992721663E+02  0.54430183768E+02  0.10566000000E+00 0. -1.
         22    1    1    0    0    0  0.19516102726E+02 -0.80205040178E+01  0.20215120255E+02  0.29220845937E+02  0.00000000000E+00 0. -1.
</event>
<event>
 5    1  0.1325686E-009  0.9118800E+02  0.7818608E-02  0.1130116E+00
         25   -1    0    0    0    0  0.00000000000E+00  0.00000000000E+00  0.99999998245E-14  0.12500000000E+03  0.12500000000E+03 0.  0.
        -13    1    3    3    0    0  0.33024459295E+02  0.12479311199E+00 -0.10212286079E+02  0.34567794781E+02  0.10566000000E+00 0.  1.
         23    2    1    0    0    0 -0.22881340984E+02  0.10879068998E+02  0.13561140348E+02  0.96263012770E+02  0.91873571785E+02 0.  0.
         13    1    3    3    0    0 -0.55905800279E+02  0.10754275886E+02  0.23773426427E+02  0.61695217989E+02  0.10566000000E+00 0. -1.
         22    1    1    0    0    0  0.22881340984E+02 -0.10879068998E+02 -0.13561140348E+02  0.28736987230E+02  0.00000000000E+00 0. -1.
</event>
<event>
 5    1  0.1325686E-009  0.9118800E+02  0.7818608E-02  0.1130116E+00
         25   -1    0    0    0    0  0.00000000000E+00  0.00000000000E+00  0.99999998245E-14  0.12500000000E+03  0.12500000000E+03 0.  0.
        -13    1    3    3    0    0  0.43656283703E+02 -0.15875643376E+02 -0.32191745727E+02  0.56517491243E+02  0.10566000000E+00 0. -1.
         23    2    1    0    0    0  0.64811552533E+01 -0.15501533560E+02 -0.25756888720E+02  0.94247435348E+02  0.89089050040E+02 0.  0.
         13    1    3    3    0    0 -0.37175128450E+02  0.37410981601E+00  0.64348570071E+01  0.37729944105E+02  0.10566000000E+00 0.  1.
         22    1    1    0    0    0 -0.64811552533E+01  0.15501533560E+02  0.25756888720E+02  0.30752564652E+02  0.00000000000E+00 0.  1.
</event>
<event>
 5    1  0.1325686E-009  0.9118800E+02  0.7818608E-02  0.1130116E+00
         25   -1    0    0    0    0  0.00000000000E+00  0.00000000000E+00  0.99999998245E-14  0.12500000000E+03  0.12500000000E+03 0.  0.
        -13    1    3    3    0    0 -0.78467647640E+01  0.13410972959E+02 -0.53431216762E+02  0.55644694282E+02  0.10566000000E+00 0. -1.
         23    2    1    0    0    0 -0.17354065579E+02  0.13625456257E+02 -0.88527677195E+01  0.10122631399E+03  0.98395012561E+02 0.  0.
         13    1    3    3    0    0 -0.95073008148E+01  0.21448329865E+00  0.44578449043E+02  0.45581619706E+02  0.10566000000E+00 0.  1.
         22    1    1    0    0    0  0.17354065579E+02 -0.13625456257E+02  0.88527677195E+01  0.23773686013E+02  0.00000000000E+00 0. -1.
</event>
<event>
 5    1  0.1325686E-009  0.9118800E+02  0.7818608E-02  0.1130116E+00
         25   -1    0    0    0    0  0.00000000000E+00  0.00000000000E+00  0.99999998245E-14  0.12500000000E+03  0.12500000000E+03 0.  0.
        -13    1    3    3    0    0  0.24993674645E+02 -0.40080084194E+02 -0.24799803527E+02  0.53349211243E+02  0.10566000000E+00 0. -1.
         23    2    1    0    0    0 -0.20418960916E+01 -0.74021870815E+01 -0.28081116542E+02  0.95887960918E+02  0.91361864197E+02 0.  0.
         13    1    3    3    0    0 -0.27035570737E+02  0.32677897112E+02 -0.32813130150E+01  0.42538749675E+02  0.10566000000E+00 0.  1.
         22    1    1    0    0    0  0.20418960916E+01  0.74021870815E+01  0.28081116542E+02  0.29112039082E+02  0.00000000000E+00 0. -1.
</event>
<event>
 5    1  0.1325686E-009  0.9118800E+02  0.7818608E-02  0.1130116E+00
         25   -1    0    0    0    0  0.00000000000E+00  0.00000000000E+00  0.99999998245E-14  0.12500000000E+03  0.12500000000E+03 0.  0.
        -13    1    3    3    0    0 -0.26961023722E+02 -0.86032108923E+00 -0.23719778867E+02  0.35920412387E+02  0.10566000000E+00 0.  1.
         23    2    1    0    0    0  0.18695185480E+02  0.23807477639E+02  0.35133459816E+01  0.94526248153E+02  0.89479394489E+02 0.  0.
         13    1    3    3    0    0  0.45656209202E+02  0.24667798728E+02  0.27233124849E+02  0.58605835766E+02  0.10566000000E+00 0. -1.
         22    1    1    0    0    0 -0.18695185480E+02 -0.23807477639E+02 -0.35133459816E+01  0.30473751847E+02  0.00000000000E+00 0. -1.
</event>
<event>
 5    1  0.1325686E-009  0.9118800E+02  0.7818608E-02  0.1130116E+00
         25   -1    0    0    0    0  0.00000000000E+00  0.00000000000E+00  0.99999998245E-14  0.12500000000E+03  0.12500000000E+03 0.  0.
        -13    1    3    3    0    0 -0.58877689518E+02 -0.29986822881E+01 -0.54572968106E+00  0.58956623067E+02  0.10566000000E+00 0.  1.
         23    2    1    0    0    0 -0.28694337466E+02 -0.70537315418E+00 -0.15125698617E+02  0.92555442482E+02  0.86682527769E+02 0.  0.
         13    1    3    3    0    0  0.30183352052E+02  0.22933091339E+01 -0.14579968936E+02  0.33598819415E+02  0.10566000000E+00 0. -1.
         22    1    1    0    0    0  0.28694337466E+02  0.70537315418E+00  0.15125698617E+02  0.32444557518E+02  0.00000000000E+00 0.  1.
</event>
<event>
 5    1  0.1325686E-009  0.9118800E+02  0.7818608E-02  0.1130116E+00
         25   -1    0    0    0    0  0.00000000000E+00  0.00000000000E+00  0.99999998245E-14  0.12500000000E+03  0.12500000000E+03 0.  0.
        -13    1    3    3    0    0  0.44688981407E+02  0.17392192951E+02 -0.19427024996E+02  0.51739867598E+02  0.10566000000E+00 0.  1.
         23    2    1    0    0    0  0.47063374039E+01  0.92700874929E+00 -0.28648631242E+02  0.95952572764E+02  0.91450222477E+02 0.  0.
         13    1    3    3    0    0 -0.39982644003E+02 -0.16465184202E+02 -0.92216062465E+01  0.44212705166E+02  0.10566000000E+00 0. -1.
         22    1    1    0    0    0 -0.47063374039E+01 -0.92700874929E+00  0.28648631242E+02  0.29047427236E+02  0.00000000000E+00 0.  1.
</event>
<event>
 5    1  0.1325686E-009  0.9118800E+02  0.7818608E-02  0.1130116E+00
         25   -1    0    0    0    0  0.00000000000E+00  0.00000000000E+00  0.99999998245E-14  0.12500000000E+03  0.12500000000E+03 0.  0.
        -13    1    3    3    0    0  0.22440413274E+02 -0.55087391897E+01 -0.47845804820E+02  0.53133328131E+02  0.10566000000E+00 0.  1.
         23    2    1    0    0    0 -0.12879060914E+02 -0.10060244748E+02 -0.23898713829E+02  0.96047845381E+02  0.91580354581E+02 0.  0.
         13    1    3    3    0    0 -0.35319474188E+02 -0.45515055587E+01  0.23947090992E+02  0.42914517250E+02  0.10566000000E+00 0. -1.
         22    1    1    0    0    0  0.12879060914E+02  0.10060244748E+02  0.23898713829E+02  0.28952154619E+02  0.00000000000E+00 0.  1.
</event>
<event>
 5    1  0.1325686E-009  0.9118800E+02  0.7818608E-02  0.1130116E+00
         25   -1    0    0    0    0  0.00000000000E+00  0.00000000000E+00  0.99999998245E-14  0.12500000000E+03  0.12500000000E+03 0.  0.
        -13    1    3    3    0    0 -0.28708296475E+01 -0.30927316327E+02 -0.53851587306E+02  0.62167074706E+02  0.10566000000E+00 0.  1.
         23    2    1    0    0    0  0.25024061600E-01 -0.17847600018E+02 -0.22355533606E+02  0.96393928347E+02  0.92051518655E+02 0.  0.
         13    1    3    3    0    0  0.28958537091E+01  0.13079716309E+02  0.31496053700E+02  0.34226853641E+02  0.10566000000E+00 0. -1.
         22    1    1    0    0    0 -0.25024061600E-01  0.17847600018E+02  0.22355533606E+02  0.28606071653E+02  0.00000000000E+00 0.  1.
</event>
<event>
 5    1  0.1325686E-009  0.9118800E+02  0.7818608E-02  0.1130116E+00
         25   -1    0    0    0    0  0.00000000000E+00  0.00000000000E+00  0.99999998245E-14  0.12500000000E+03  0.12500000000E+03 0.  0.
        -13    1    3    3    0    0  0.23753780854E+02  0.26768487584E+02 -0.17781866044E+02  0.39962481861E+02  0.10566000000E+00 0.  1.
         23    2    1    0    0    0  0.93417979996E+01 -0.26210774975E+02 -0.19410303622E+01  0.97106604482E+02  0.93014252244E+02 0.  0.
         13    1    3    3    0    0 -0.14411982855E+02 -0.52979262559E+02  0.15840835682E+02  0.57144122622E+02  0.10566000000E+00 0. -1.
         22    1    1    0    0    0 -0.93417979996E+01  0.26210774975E+02  0.19410303622E+01  0.27893395518E+02  0.00000000000E+00 0. -1.
</event>
<event>
 5    1  0.1325686E-009  0.9118800E+02  0.7818608E-02  0.1130116E+00
         25   -1    0    0    0    0  0.00000000000E+00  0.00000000000E+00  0.99999998245E-14  0.12500000000E+03  0.12500000000E+03 0.  0.
        -13    1    3    3    0    0  0.20396422887E+01 -0.44251945370E+02 -0.41476271924E+02  0.60685147330E+02  0.10566000000E+00 0.  1.
         23    2    1    0    0    0 -0.95856051164E+01 -0.18344186276E+02 -0.19059157683E+02  0.96863822449E+02  0.92687408057E+02 0.  0.
         13    1    3    3    0    0 -0.11625247405E+02  0.25907759094E+02  0.22417114241E+02  0.36178675120E+02  0.10566000000E+00 0. -1.
         22    1    1    0    0    0  0.95856051164E+01  0.18344186276E+02  0.19059157683E+02  0.28136177551E+02  0.00000000000E+00 0.  1.
</event>
<event>
 5    1  0.1325686E-009  0.9118800E+02  0.7818608E-02  0.1130116E+00
         25   -1    0    0    0    0  0.00000000000E+00  0.00000000000E+00  0.99999998245E-14  0.12500000000E+03  0.12500000000E+03 0.  0.
        -13    1    3    3    0    0 -0.39782573968E+02  0.14297915698E+02 -0.23562881465E+02  0.48397356661E+02  0.10566000000E+00 0. -1.
         23    2    1    0    0    0 -0.23958554727E+02 -0.93389965558E+01  0.14161482483E+02  0.95643965060E+02  0.91027420401E+02 0.  0.
         13    1    3    3    0    0  0.15824019240E+02 -0.23636912254E+02  0.37724363948E+02  0.47246608398E+02  0.10566000000E+00 0.  1.
         22    1    1    0    0    0  0.23958554727E+02  0.93389965558E+01 -0.14161482483E+02  0.29356034940E+02  0.00000000000E+00 0.  1.
</event>
<event>
 5    1  0.1325686E-009  0.9118800E+02  0.7818608E-02  0.1130116E+00
         25   -1    0    0    0    0  0.00000000000E+00  0.00000000000E+00  0.99999998245E-14  0.12500000000E+03  0.12500000000E+03 0.  0.
        -13    1    3    3    0    0 -0.20356827190E+01 -0.36221881417E+02  0.26305635775E+01  0.36374437814E+02  0.10566000000E+00 0.  1.
         23    2    1    0    0    0  0.24856114339E+01  0.17394532239E+02 -0.23067069090E+02  0.96002798541E+02  0.91518848525E+02 0.  0.
         13    1    3    3    0    0  0.45212941529E+01  0.53616413656E+02 -0.25697632668E+02  0.59628360727E+02  0.10566000000E+00 0. -1.
         22    1    1    0    0    0 -0.24856114339E+01 -0.17394532239E+02  0.23067069090E+02  0.28997201459E+02  0.00000000000E+00 0. -1.
</event>
<event>
 5    1  0.1325686E-009  0.9118800E+02  0.7818608E-02  0.1130116E+00
         25   -1    0    0    0    0  0.00000000000E+00  0.00000000000E+00  0.99999998245E-14  0.12500000000E+03  0.12500000000E+03 0.  0.
        -13    1    3    3    0    0  0.18304746088E+02 -0.17809125214E+02  0.55935314699E+02  0.61489830580E+02  0.10566000000E+00 0. -1.
         23    2    1    0    0    0  0.16312082362E+02 -0.87191404903E+01  0.24324965054E+02  0.94441672710E+02  0.89361167055E+02 0.  0.
         13    1    3    3    0    0 -0.19926637259E+01  0.90899847240E+01 -0.31610349645E+02  0.32951842130E+02  0.10566000000E+00 0.  1.
         22    1    1    0    0    0 -0.16312082362E+02  0.87191404903E+01 -0.24324965054E+02  0.30558327290E+02  0.00000000000E+00 0. -1.
</event>
<event>
 5    1  0.1325686E-009  0.9118800E+02  0.7818608E-02  0.1130116E+00
         25   -1    0    0    0    0  0.00000000000E+00  0.00000000000E+00  0.99999998245E-14  0.12500000000E+03  0.12500000000E+03 0.  0.
        -13    1    3    3    0    0 -0.30827190185E+02  0.25189153435E+02  0.21205107567E+02  0.45105175495E+02  0.10566000000E+00 0. -1.
         23    2    1    0    0    0  0.28682443617E+01  0.24015520276E+02 -0.16527024292E+02  0.95706407325E+02  0.91113126559E+02 0.  0.
         13    1    3    3    0    0  0.33695434546E+02 -0.11736331587E+01 -0.37732131859E+02  0.50601231830E+02  0.10566000000E+00 0.  1.
         22    1    1    0    0    0 -0.28682443617E+01 -0.24015520276E+02  0.16527024292E+02  0.29293592675E+02  0.00000000000E+00 0. -1.
</event>
<event>
 5    1  0.1325686E-009  0.9118800E+02  0.7818608E-02  0.1130116E+00
         25   -1    0    0    0    0  0.00000000000E+00  0.00000000000E+00  0.99999998245E-14  0.12500000000E+03  0.12500000000E+03 0.  0.
        -13    1    3    3    0    0  0.84462012297E+01 -0.57375790626E+02 -0.43461621727E+01  0.58156856473E+02  0.10566000000E+00 0.  1.
         23    2    1    0    0    0 -0.12574079533E+02 -0.25936933911E+02 -0.32692963892E+01  0.95991030427E+02  0.91502773765E+02 0.  0.
         13    1    3    3    0    0 -0.21020280763E+02  0.31438856714E+02  0.10768657835E+01  0.37834173954E+02  0.10566000000E+00 0. -1.
         22    1    1    0    0    0  0.12574079533E+02  0.25936933911E+02  0.32692963892E+01  0.29008969573E+02  0.00000000000E+00 0.  1.
</event>
<event>
 5    1  0.1325686E-009  0.9118800E+02  0.7818608E-02  0.1130116E+00
         25   -1    0    0    0    0  0.00000000000E+00  0.00000000000E+00  0.99999998245E-14  0.12500000000E+03  0.12500000000E+03 0.  0.
        -13    1    3    3    0    0  0.56777556051E+02 -0.81043387636E+01  0.11420407579E+02  0.58479124918E+02  0.10566000000E+00 0.  1.
         23    2    1    0    0    0  0.23947635210E+02 -0.14191951651E+01 -0.10809979054E+02  0.98687284553E+02  0.95114778758E+02 0.  0.
         13    1    3    3    0    0 -0.32829920841E+02  0.66851435985E+01 -0.22230386633E+02  0.40208159635E+02  0.10566000000E+00 0. -1.
         22    1    1    0    0    0 -0.23947635210E+02  0.14191951651E+01  0.10809979054E+02  0.26312715447E+02  0.00000000000E+00 0.  1.
</event>
<event>
 5    1  0.1325686E-009  0.9118800E+02  0.7818608E-02  0.1130116E+00
         25   -1    0    0    0    0  0.00000000000E+00  0.00000000000E+00  0.99999998245E-14  0.12500000000E+03  0.12500000000E+03 0.  0.
        -13    1    3    3    0    0  0.33615630555E+02  0.33255506439E+02  0.34794590791E+02  0.58707870328E+02  0.10566000000E+00 0. -1.
         23    2    1    0    0    0  0.11531715645E+02  0.27588143018E+02  0.31192680864E+02  0.81790401062E+02  0.69444944132E+02 0.  0.
         13    1    3    3    0    0 -0.22083914910E+02 -0.56673634208E+01 -0.36019099275E+01  0.23082530734E+02  0.10566000000E+00 0.  1.
         22    1    1    0    0    0 -0.11531715645E+02 -0.27588143018E+02 -0.31192680864E+02  0.43209598938E+02  0.00000000000E+00 0. -1.
</event>
<event>
 5    1  0.1325686E-009  0.9118800E+02  0.7818608E-02  0.1130116E+00
         25   -1    0    0    0    0  0.00000000000E+00  0.00000000000E+00  0.99999998245E-14  0.12500000000E+03  0.12500000000E+03 0.  0.
        -13    1    3    3    0    0 -0.28086571309E+02  0.10935005262E+02  0.16726311808E+02  0.34470429337E+02  0.10566000000E+00 0.  1.
         23    2    1    0    0    0  0.21581606703E+02  0.29454247754E+01 -0.18938101156E+02  0.96136650395E+02  0.91701486350E+02 0.  0.
         13    1    3    3    0    0  0.49668178012E+02 -0.79895804863E+01 -0.35664412964E+02  0.61666221058E+02  0.10566000000E+00 0. -1.
         22    1    1    0    0    0 -0.21581606703E+02 -0.29454247754E+01  0.18938101156E+02  0.28863349605E+02  0.00000000000E+00 0. -1.
</event>
<event>
 5    1  0.1325686E-009  0.9118800E+02  0.7818608E-02  0.1130116E+00
         25   -1    0    0    0    0  0.00000000000E+00  0.00000000000E+00  0.99999998245E-14  0.12500000000E+03  0.12500000000E+03 0.  0.
        -13    1    3    3    0    0  0.42999601280E+02 -0.54805228830E+01 -0.54124299175E+01  0.43684177947E+02  0.10566000000E+00 0. -1.
         23    2    1    0    0    0 -0.93358579383E+01  0.16486474216E+02  0.11409754918E+02  0.10288338672E+03  0.10047809055E+03 0.  0.
         13    1    3    3    0    0 -0.52335459218E+02  0.21966997099E+02  0.16822184836E+02  0.59199208777E+02  0.10566000000E+00 0.  1.
         22    1    1    0    0    0  0.93358579383E+01 -0.16486474216E+02 -0.11409754918E+02  0.22116613276E+02  0.00000000000E+00 0.  1.
</event>
<event>
 5    1  0.1325686E-009  0.9118800E+02  0.7818608E-02  0.1130116E+00
         25   -1    0    0    0    0  0.00000000000E+00  0.00000000000E+00  0.99999998245E-14  0.12500000000E+03  0.12500000000E+03 0.  0.
        -13    1    3    3    0    0  0.41571129977E+01  0.56151816177E+01 -0.51542684851E+02  0.52014145949E+02  0.10566000000E+00 0. -1.
         23    2    1    0    0    0  0.53754774622E+01 -0.22434274192E+02 -0.18114076636E+02  0.95668921110E+02  0.91061683916E+02 0.  0.
         13    1    3    3    0    0  0.12183644645E+01 -0.28049455809E+02  0.33428608215E+02  0.43654775162E+02  0.10566000000E+00 0.  1.
         22    1    1    0    0    0 -0.53754774622E+01  0.22434274192E+02  0.18114076636E+02  0.29331078890E+02  0.00000000000E+00 0. -1.
</event>
<event>
 5    1  0.1325686E-009  0.9118800E+02  0.7818608E-02  0.1130116E+00
         25   -1    0    0    0    0  0.00000000000E+00  0.00000000000E+00  0.99999998245E-14  0.12500000000E+03  0.12500000000E+03 0.  0.
        -13    1    3    3    0    0  0.15433010179E+01  0.22639921378E+02  0.14930122135E+02  0.27163717143E+02  0.10566000000E+00 0.  1.
         23    2    1    0    0    0 -0.78259413691E+01  0.53248990551E+01 -0.39153113466E+02  0.84718910115E+02  0.74530044470E+02 0.  0.
         13    1    3    3    0    0 -0.93692423870E+01 -0.17315022323E+02 -0.54083235601E+02  0.57555192972E+02  0.10566000000E+00 0. -1.
         22    1    1    0    0    0  0.78259413691E+01 -0.53248990551E+01  0.39153113466E+02  0.40281089885E+02  0.00000000000E+00 0. -1.
</event>
<event>
 5    1  0.1325686E-009  0.9118800E+02  0.7818608E-02  0.1130116E+00
         25   -1    0    0    0    0  0.00000000000E+00  0.00000000000E+00  0.99999998245E-14  0.12500000000E+03  0.12500000000E+03 0.  0.
        -13    1    3    3    0    0  0.23505426250E+02 -0.16672833074E+02  0.20864752199E+02  0.35578609786E+02  0.10566000000E+00 0.  1.
         23    2    1    0    0    0 -0.54923675700E+01 -0.76327150672E+01 -0.29303040336E+02  0.94225130159E+02  0.89057748342E+02 0.  0.
         13    1    3    3    0    0 -0.28997793820E+02  0.90401180066E+01 -0.50167792535E+02  0.58646520373E+02  0.10566000000E+00 0. -1.
         22    1    1    0    0    0  0.54923675700E+01  0.76327150672E+01  0.29303040336E+02  0.30774869841E+02  0.00000000000E+00 0. -1.
</event>
<event>
 5    1  0.1325686E-009  0.9118800E+02  0.7818608E-02  0.1130116E+00
         25   -1    0    0    0    0  0.00000000000E+00  0.00000000000E+00  0.99999998245E-14  0.12500000000E+03  0.12500000000E+03 0.  0.
        -13    1    3    3    0    0  0.14831199335E+02 -0.80923997314E+01 -0.42726698705E+02  0.45945982995E+02  0.10566000000E+00 0.  1.
         23    2    1    0    0    0 -0.88145630135E+01 -0.28325371518E+02 -0.48941688216E+01  0.94933805010E+02  0.90046939162E+02 0.  0.
         13    1    3    3    0    0 -0.23645762349E+02 -0.20232971786E+02  0.37832529883E+02  0.48987822015E+02  0.10566000000E+00 0. -1.
         22    1    1    0    0    0  0.88145630135E+01  0.28325371518E+02  0.48941688216E+01  0.30066194990E+02  0.00000000000E+00 0. -1.
</event>
<event>
 5    1  0.1325686E-009  0.9118800E+02  0.7818608E-02  0.1130116E+00
         25   -1    0    0    0    0  0.00000000000E+00  0.00000000000E+00  0.99999998245E-14  0.12500000000E+03  0.12500000000E+03 0.  0.
        -13    1    3    3    0    0  0.53587115656E+01  0.31057923688E+02 -0.32153647990E+02  0.45024200788E+02  0.10566000000E+00 0.  1.
         23    2    1    0    0    0 -0.26718756481E+02  0.24260522842E+02 -0.31981998926E+01  0.88768889073E+02  0.81038399961E+02 0.  0.
         13    1    3    3    0    0 -0.32077468047E+02 -0.67974008466E+01  0.28955448098E+02  0.43744688285E+02  0.10566000000E+00 0. -1.
         22    1    1    0    0    0  0.26718756481E+02 -0.24260522842E+02  0.31981998926E+01  0.36231110927E+02  0.00000000000E+00 0. -1.
</event>
<event>
 5    1  0.1325686E-009  0.9118800E+02  0.7818608E-02  0.1130116E+00
         25   -1    0    0    0    0  0.00000000000E+00  0.00000000000E+00  0.99999998245E-14  0.12500000000E+03  0.12500000000E+03 0.  0.
        -13    1    3    3    0    0 -0.35380568730E+02 -0.28649185471E+02  0.35871917124E+01  0.45666613409E+02  0.10566000000E+00 0. -1.
         23    2    1    0    0    0 -0.18263783724E+01 -0.58108683598E+01  0.30193083319E+02  0.94198634294E+02  0.89020551411E+02 0.  0.
         13    1    3    3    0    0  0.33554190357E+02  0.22838317111E+02  0.26605891606E+02  0.48532020885E+02  0.10566000000E+00 0.  1.
         22    1    1    0    0    0  0.18263783724E+01  0.58108683598E+01 -0.30193083319E+02  0.30801365706E+02  0.00000000000E+00 0.  1.
</event>
<event>
 5    1  0.1325686E-009  0.9118800E+02  0.7818608E-02  0.1130116E+00
         25   -1    0    0    0    0  0.00000000000E+00  0.00000000000E+00  0.99999998245E-14  0.12500000000E+03  0.12500000000E+03 0.  0.
        -13    1    3    3    0    0 -0.31460459900E+02  0.14038479735E+02  0.38177308469E+02  0.51423316660E+02  0.10566000000E+00 0. -1.
         23    2    1    0    0    0  0.19590371357E+01 -0.12065636668E+02  0.27127564517E+02  0.95245636096E+02  0.90478776650E+02 0.  0.
         13    1    3    3    0    0  0.33419497035E+02 -0.26104116403E+02 -0.11049743952E+02  0.43822319436E+02  0.10566000000E+00 0.  1.
         22    1    1    0    0    0 -0.19590371357E+01  0.12065636668E+02 -0.27127564517E+02  0.29754363904E+02  0.00000000000E+00 0. -1.
</event>
<event>
 5    1  0.1325686E-009  0.9118800E+02  0.7818608E-02  0.1130116E+00
         25   -1    0    0    0    0  0.00000000000E+00  0.00000000000E+00  0.99999998245E-14  0.12500000000E+03  0.12500000000E+03 0.  0.
        -13    1    3    3    0    0 -0.33346159760E+02  0.81296060770E+01 -0.42134475570E+01  0.34580647334E+02  0.10566000000E+00 0.  1.
         23    2    1    0    0    0  0.16014329357E+02  0.30075434803E+02 -0.11387252546E+02  0.89074242612E+02  0.81508040420E+02 0.  0.
         13    1    3    3    0    0  0.49360489117E+02  0.21945828726E+02 -0.71738049885E+01  0.54493595278E+02  0.10566000000E+00 0. -1.
         22    1    1    0    0    0 -0.16014329357E+02 -0.30075434803E+02  0.11387252546E+02  0.35925757388E+02  0.00000000000E+00 0. -1.
</event>
<event>
 5    1  0.1325686E-009  0.9118800E+02  0.7818608E-02  0.1130116E+00
         25   -1    0    0    0    0  0.00000000000E+00  0.00000000000E+00  0.99999998245E-14  0.12500000000E+03  0.12500000000E+03 0.  0.
        -13    1    3    3    0    0 -0.89311038238E+01  0.30922693527E+02 -0.94607402849E+01  0.33548388355E+02  0.10566000000E+00 0. -1.
         23    2    1    0    0    0  0.11772558802E+02 -0.24413991005E+02 -0.16839972212E+02  0.93090428369E+02  0.87450598010E+02 0.  0.
         13    1    3    3    0    0  0.20703662626E+02 -0.55336684532E+02 -0.73792319274E+01  0.59542040014E+02  0.10566000000E+00 0.  1.
         22    1    1    0    0    0 -0.11772558802E+02  0.24413991005E+02  0.16839972212E+02  0.31909571631E+02  0.00000000000E+00 0.  1.
</event>
<event>
 5    1  0.1325686E-009  0.9118800E+02  0.7818608E-02  0.1130116E+00
         25   -1    0    0    0    0  0.00000000000E+00  0.00000000000E+00  0.99999998245E-14  0.12500000000E+03  0.12500000000E+03 0.  0.
        -13    1    3    3    0    0 -0.82206905161E+01 -0.32876167984E+02 -0.52485560012E+01  0.34292574677E+02  0.10566000000E+00 0. -1.
         23    2    1    0    0    0 -0.70930092502E+01  0.27063157313E+02  0.84241643341E+01  0.95781995128E+02  0.91216768097E+02 0.  0.
         13    1    3    3    0    0  0.11276812659E+01  0.59939325296E+02  0.13672720335E+02  0.61489420451E+02  0.10566000000E+00 0.  1.
         22    1    1    0    0    0  0.70930092502E+01 -0.27063157313E+02 -0.84241643341E+01  0.29218004872E+02  0.00000000000E+00 0.  1.
</event>
<event>
 5    1  0.1325686E-009  0.9118800E+02  0.7818608E-02  0.1130116E+00
         25   -1    0    0    0    0  0.00000000000E+00  0.00000000000E+00  0.99999998245E-14  0.12500000000E+03  0.12500000000E+03 0.  0.
        -13    1    3    3    0    0  0.16385402650E+02 -0.52992494143E+02  0.20725601835E+02  0.59213576069E+02  0.10566000000E+00 0.  1.
         23    2    1    0    0    0  0.11424672712E+00 -0.29427155919E+02 -0.16062152504E+01  0.95528819412E+02  0.90869163378E+02 0.  0.
         13    1    3    3    0    0 -0.16271155923E+02  0.23565338223E+02 -0.22331817086E+02  0.36315243343E+02  0.10566000000E+00 0. -1.
         22    1    1    0    0    0 -0.11424672712E+00  0.29427155919E+02  0.16062152504E+01  0.29471180588E+02  0.00000000000E+00 0.  1.
</event>
<event>
 5    1  0.1325686E-009  0.9118800E+02  0.7818608E-02  0.1130116E+00
         25   -1    0    0    0    0  0.00000000000E+00  0.00000000000E+00  0.99999998245E-14  0.12500000000E+03  0.12500000000E+03 0.  0.
        -13    1    3    3    0    0  0.37814850427E+02  0.15878751580E+02 -0.17403378448E+02  0.44553186306E+02  0.10566000000E+00 0. -1.
         23    2    1    0    0    0  0.62537518220E+01 -0.23461725932E+02 -0.17636785495E+02  0.94989698466E+02  0.90124495098E+02 0.  0.
         13    1    3    3    0    0 -0.31561098605E+02 -0.39340477511E+02 -0.23340704663E+00  0.50436512160E+02  0.10566000000E+00 0.  1.
         22    1    1    0    0    0 -0.62537518220E+01  0.23461725932E+02  0.17636785495E+02  0.30010301534E+02  0.00000000000E+00 0. -1.
</event>
<event>
 5    1  0.1325686E-009  0.9118800E+02  0.7818608E-02  0.1130116E+00
         25   -1    0    0    0    0  0.00000000000E+00  0.00000000000E+00  0.99999998245E-14  0.12500000000E+03  0.12500000000E+03 0.  0.
        -13    1    3    3    0    0  0.44107351537E+02 -0.28049443516E+02 -0.25403903119E+02  0.58117116230E+02  0.10566000000E+00 0. -1.
         23    2    1    0    0    0  0.27152111767E+02 -0.11338832143E+02  0.32800251449E+01  0.95393162061E+02  0.90682360552E+02 0.  0.
         13    1    3    3    0    0 -0.16955239770E+02  0.16710611372E+02  0.28683928264E+02  0.37276045831E+02  0.10566000000E+00 0.  1.
         22    1    1    0    0    0 -0.27152111767E+02  0.11338832143E+02 -0.32800251449E+01  0.29606837939E+02  0.00000000000E+00 0. -1.
</event>
<event>
 5    1  0.1325686E-009  0.9118800E+02  0.7818608E-02  0.1130116E+00
         25   -1    0    0    0    0  0.00000000000E+00  0.00000000000E+00  0.99999998245E-14  0.12500000000E+03  0.12500000000E+03 0.  0.
        -13    1    3    3    0    0  0.33269118599E+01  0.48886560092E+02  0.34731888377E+02  0.60060630486E+02  0.10566000000E+00 0.  1.
         23    2    1    0    0    0 -0.79583412385E+01  0.15924834415E+02  0.20898515264E+02  0.97546703537E+02  0.93603824090E+02 0.  0.
         13    1    3    3    0    0 -0.11285253098E+02 -0.32961725676E+02 -0.13833373113E+02  0.37486073051E+02  0.10566000000E+00 0. -1.
         22    1    1    0    0    0  0.79583412385E+01 -0.15924834415E+02 -0.20898515264E+02  0.27453296463E+02  0.00000000000E+00 0.  1.
</event>
<event>
 5    1  0.1325686E-009  0.9118800E+02  0.7818608E-02  0.1130116E+00
         25   -1    0    0    0    0  0.00000000000E+00  0.00000000000E+00  0.99999998245E-14  0.12500000000E+03  0.12500000000E+03 0.  0.
        -13    1    3    3    0    0 -0.78368898506E+01 -0.36738576042E+02  0.24447500131E+02  0.44819987046E+02  0.10566000000E+00 0.  1.
         23    2    1    0    0    0 -0.14630006801E+02  0.15658431890E+02 -0.11702249920E+01  0.10353856914E+03  0.10128989231E+03 0.  0.
         13    1    3    3    0    0 -0.67931169501E+01  0.52397007932E+02 -0.25617725123E+02  0.58718582089E+02  0.10566000000E+00 0. -1.
         22    1    1    0    0    0  0.14630006801E+02 -0.15658431890E+02  0.11702249920E+01  0.21461430865E+02  0.00000000000E+00 0. -1.
</event>
<event>
 5    1  0.1325686E-009  0.9118800E+02  0.7818608E-02  0.1130116E+00
         25   -1    0    0    0    0  0.00000000000E+00  0.00000000000E+00  0.99999998245E-14  0.12500000000E+03  0.12500000000E+03 0.  0.
        -13    1    3    3    0    0 -0.25561216318E+02 -0.12388957960E+02 -0.25858201623E+02  0.38412495547E+02  0.10566000000E+00 0. -1.
         23    2    1    0    0    0  0.12428935287E+02  0.24670751727E+02 -0.17911681534E+02  0.92076562171E+02  0.85989188522E+02 0.  0.
         13    1    3    3    0    0  0.37990151605E+02  0.37059709686E+02  0.79465200889E+01  0.53664066623E+02  0.10566000000E+00 0.  1.
         22    1    1    0    0    0 -0.12428935287E+02 -0.24670751727E+02  0.17911681534E+02  0.32923437829E+02  0.00000000000E+00 0.  1.
</event>
<event>
 5    1  0.1325686E-009  0.9118800E+02  0.7818608E-02  0.1130116E+00
         25   -1    0    0    0    0  0.00000000000E+00  0.00000000000E+00  0.99999998245E-14  0.12500000000E+03  0.12500000000E+03 0.  0.
        -13    1    3    3    0    0 -0.30087854160E+02  0.41575061684E+02 -0.52119732432E+01  0.51584305278E+02  0.10566000000E+00 0.  1.
         23    2    1    0    0    0 -0.12213549051E+02  0.10738585991E+02  0.22853785181E+02  0.96950338566E+02  0.92804011990E+02 0.  0.
         13    1    3    3    0    0  0.17874305109E+02 -0.30836475693E+02  0.28065758424E+02  0.45366033287E+02  0.10566000000E+00 0. -1.
         22    1    1    0    0    0  0.12213549051E+02 -0.10738585991E+02 -0.22853785181E+02  0.28049661434E+02  0.00000000000E+00 0. -1.
</event>
<event>
 5    1  0.1325686E-009  0.9118800E+02  0.7818608E-02  0.1130116E+00
         25   -1    0    0    0    0  0.00000000000E+00  0.00000000000E+00  0.99999998245E-14  0.12500000000E+03  0.12500000000E+03 0.  0.
        -13    1    3    3    0    0 -0.59458965957E+01  0.51385720501E+02  0.24734375003E+02  0.57338001610E+02  0.10566000000E+00 0. -1.
         23    2    1    0    0    0  0.15133967797E+02  0.21340027944E+02  0.12309160677E+02  0.96087213719E+02  0.91634073520E+02 0.  0.
         13    1    3    3    0    0  0.21079864392E+02 -0.30045692557E+02 -0.12425214326E+02  0.38749212110E+02  0.10566000000E+00 0.  1.
         22    1    1    0    0    0 -0.15133967797E+02 -0.21340027944E+02 -0.12309160677E+02  0.28912786281E+02  0.00000000000E+00 0. -1.
</event>
<event>
 5    1  0.1325686E-009  0.9118800E+02  0.7818608E-02  0.1130116E+00
         25   -1    0    0    0    0  0.00000000000E+00  0.00000000000E+00  0.99999998245E-14  0.12500000000E+03  0.12500000000E+03 0.  0.
        -13    1    3    3    0    0 -0.17913999686E+02  0.29093984039E+01 -0.27955278946E+02  0.33329938026E+02  0.10566000000E+00 0. -1.
         23    2    1    0    0    0  0.16208700343E+02 -0.28642189813E+02  0.68395078172E+01  0.91386373726E+02  0.84979958999E+02 0.  0.
         13    1    3    3    0    0  0.34122700028E+02 -0.31551588217E+02  0.34794786764E+02  0.58056435700E+02  0.10566000000E+00 0.  1.
         22    1    1    0    0    0 -0.16208700343E+02  0.28642189813E+02 -0.68395078172E+01  0.33613626274E+02  0.00000000000E+00 0.  1.
</event>
<event>
 5    1  0.1325686E-009  0.9118800E+02  0.7818608E-02  0.1130116E+00
         25   -1    0    0    0    0  0.00000000000E+00  0.00000000000E+00  0.99999998245E-14  0.12500000000E+03  0.12500000000E+03 0.  0.
        -13    1    3    3    0    0 -0.30758800767E+02  0.10392430566E+02 -0.12102485720E+02  0.34649498731E+02  0.10566000000E+00 0. -1.
         23    2    1    0    0    0  0.21702629935E+02  0.50855804457E+01  0.18863447786E+02  0.95799025069E+02  0.91240102297E+02 0.  0.
         13    1    3    3    0    0  0.52461430702E+02 -0.53068501204E+01  0.30965933506E+02  0.61149526338E+02  0.10566000000E+00 0.  1.
         22    1    1    0    0    0 -0.21702629935E+02 -0.50855804457E+01 -0.18863447786E+02  0.29200974931E+02  0.00000000000E+00 0.  1.
</event>
<event>
 5    1  0.1325686E-009  0.9118800E+02  0.7818608E-02  0.1130116E+00
         25   -1    0    0    0    0  0.00000000000E+00  0.00000000000E+00  0.99999998245E-14  0.12500000000E+03  0.12500000000E+03 0.  0.
        -13    1    3    3    0    0  0.37186135369E+02 -0.74039655813E+01  0.14727520755E+02  0.40676017525E+02  0.10566000000E+00 0. -1.
         23    2    1    0    0    0 -0.12227379632E+02 -0.26277896582E+02 -0.14216100262E+01  0.95981770618E+02  0.91490123262E+02 0.  0.
         13    1    3    3    0    0 -0.49413515001E+02 -0.18873931000E+02 -0.16149130781E+02  0.55305753093E+02  0.10566000000E+00 0.  1.
         22    1    1    0    0    0  0.12227379632E+02  0.26277896582E+02  0.14216100262E+01  0.29018229382E+02  0.00000000000E+00 0.  1.
</event>
<event>
 5    1  0.1325686E-009  0.9118800E+02  0.7818608E-02  0.1130116E+00
         25   -1    0    0    0    0  0.00000000000E+00  0.00000000000E+00  0.99999998245E-14  0.12500000000E+03  0.12500000000E+03 0.  0.
        -13    1    3    3    0    0 -0.11458636587E+02 -0.31738335110E+02 -0.27775551000E+02  0.43704858602E+02  0.10566000000E+00 0. -1.
         23    2    1    0    0    0 -0.12505132628E+02  0.13118339768E+02 -0.31426324154E+02  0.88722141324E+02  0.80966260449E+02 0.  0.
         13    1    3    3    0    0 -0.10464960408E+01  0.44856674878E+02 -0.36507731535E+01  0.45017282723E+02  0.10566000000E+00 0.  1.
         22    1    1    0    0    0  0.12505132628E+02 -0.13118339768E+02  0.31426324154E+02  0.36277858676E+02  0.00000000000E+00 0.  1.
</event>
<event>
 5    1  0.1325686E-009  0.9118800E+02  0.7818608E-02  0.1130116E+00
         25   -1    0    0    0    0  0.00000000000E+00  0.00000000000E+00  0.99999998245E-14  0.12500000000E+03  0.12500000000E+03 0.  0.
        -13    1    3    3    0    0 -0.95919659702E+01 -0.32229948867E+02 -0.14270768979E+01  0.33657437924E+02  0.10566000000E+00 0.  1.
         23    2    1    0    0    0  0.13153291435E+00  0.27626159380E+02 -0.11401796317E+02  0.95113164399E+02  0.90295576302E+02 0.  0.
         13    1    3    3    0    0  0.97234988846E+01  0.59856108247E+02 -0.99747194190E+01  0.61455726475E+02  0.10566000000E+00 0. -1.
         22    1    1    0    0    0 -0.13153291435E+00 -0.27626159380E+02  0.11401796317E+02  0.29886835601E+02  0.00000000000E+00 0. -1.
</event>
<event>
 5    1  0.1325686E-009  0.9118800E+02  0.7818608E-02  0.1130116E+00
         25   -1    0    0    0    0  0.00000000000E+00  0.00000000000E+00  0.99999998245E-14  0.12500000000E+03  0.12500000000E+03 0.  0.
        -13    1    3    3    0    0  0.20411318406E+02 -0.29625628843E+02 -0.46535644680E+01  0.36276254351E+02  0.10566000000E+00 0.  1.
         23    2    1    0    0    0 -0.16660828197E+02  0.16078748560E+02 -0.16834380392E+02  0.96372989771E+02  0.92023081033E+02 0.  0.
         13    1    3    3    0    0 -0.37072146603E+02  0.45704377403E+02 -0.12180815924E+02  0.60096735420E+02  0.10566000000E+00 0. -1.
         22    1    1    0    0    0  0.16660828197E+02 -0.16078748560E+02  0.16834380392E+02  0.28627010229E+02  0.00000000000E+00 0. -1.
</event>
<event>
 5    1  0.1325686E-009  0.9118800E+02  0.7818608E-02  0.1130116E+00
         25   -1    0    0    0    0  0.00000000000E+00  0.00000000000E+00  0.99999998245E-14  0.12500000000E+03  0.12500000000E+03 0.  0.
        -13    1    3    3    0    0 -0.32408107871E+02 -0.44314560485E+01 -0.15542179098E+02  0.36214551683E+02  0.10566000000E+00 0.  1.
         23    2    1    0    0    0  0.15368883560E+02  0.12135467792E+02  0.19206510948E+02  0.97570777933E+02  0.93635967893E+02 0.  0.
         13    1    3    3    0    0  0.47776991430E+02  0.16566923841E+02  0.34748690046E+02  0.61356226250E+02  0.10566000000E+00 0. -1.
         22    1    1    0    0    0 -0.15368883560E+02 -0.12135467792E+02 -0.19206510948E+02  0.27429222067E+02  0.00000000000E+00 0. -1.
</event>
<event>
 5    1  0.1325686E-009  0.9118800E+02  0.7818608E-02  0.1130116E+00
         25   -1    0    0    0    0  0.00000000000E+00  0.00000000000E+00  0.99999998245E-14  0.12500000000E+03  0.12500000000E+03 0.  0.
        -13    1    3    3    0    0 -0.24125920150E+02  0.24683475169E+02 -0.16332616791E+02  0.38185069134E+02  0.10566000000E+00 0. -1.
         23    2    1    0    0    0  0.76097469499E+01 -0.22391342684E+02 -0.18461480065E+02  0.94998221353E+02  0.90136315313E+02 0.  0.
         13    1    3    3    0    0  0.31735667100E+02 -0.47074817853E+02 -0.21288632739E+01  0.56813152218E+02  0.10566000000E+00 0.  1.
         22    1    1    0    0    0 -0.76097469499E+01  0.22391342684E+02  0.18461480065E+02  0.30001778647E+02  0.00000000000E+00 0.  1.
</event>
<event>
 5    1  0.1325686E-009  0.9118800E+02  0.7818608E-02  0.1130116E+00
         25   -1    0    0    0    0  0.00000000000E+00  0.00000000000E+00  0.99999998245E-14  0.12500000000E+03  0.12500000000E+03 0.  0.
        -13    1    3    3    0    0 -0.44853410756E+01  0.26838242974E+02 -0.42414343375E+02  0.50392432551E+02  0.10566000000E+00 0. -1.
         23    2    1    0    0    0 -0.23241271068E+02 -0.15795605352E+01 -0.46405538902E+01  0.10124739103E+03  0.98421784978E+02 0.  0.
         13    1    3    3    0    0 -0.18755929992E+02 -0.28417803509E+02  0.37773789485E+02  0.50854958482E+02  0.10566000000E+00 0.  1.
         22    1    1    0    0    0  0.23241271068E+02  0.15795605352E+01  0.46405538902E+01  0.23752608967E+02  0.00000000000E+00 0.  1.
</event>
<event>
 5    1  0.1325686E-009  0.9118800E+02  0.7818608E-02  0.1130116E+00
         25   -1    0    0    0    0  0.00000000000E+00  0.00000000000E+00  0.99999998245E-14  0.12500000000E+03  0.12500000000E+03 0.  0.
        -13    1    3    3    0    0 -0.37604879526E+02  0.28545910117E+02  0.21998011809E+02  0.52085695120E+02  0.10566000000E+00 0.  1.
         23    2    1    0    0    0 -0.28109065073E+02 -0.21798386042E+01 -0.76080270349E+01  0.95798059808E+02  0.91238779869E+02 0.  0.
         13    1    3    3    0    0  0.94958144526E+01 -0.30725748721E+02 -0.29606038844E+02  0.43712364688E+02  0.10566000000E+00 0. -1.
         22    1    1    0    0    0  0.28109065073E+02  0.21798386042E+01  0.76080270349E+01  0.29201940192E+02  0.00000000000E+00 0. -1.
</event>
<event>
 5    1  0.1325686E-009  0.9118800E+02  0.7818608E-02  0.1130116E+00
         25   -1    0    0    0    0  0.00000000000E+00  0.00000000000E+00  0.99999998245E-14  0.12500000000E+03  0.12500000000E+03 0.  0.
        -13    1    3    3    0    0  0.29441263891E+02  0.36241993972E+02  0.39475729816E+02  0.61144211134E+02  0.10566000000E+00 0. -1.
         23    2    1    0    0    0  0.66974700227E+01  0.22660517778E+02  0.20319423317E+02  0.93835370456E+02  0.88508997362E+02 0.  0.
         13    1    3    3    0    0 -0.22743793868E+02 -0.13581476195E+02 -0.19156306499E+02  0.32691159323E+02  0.10566000000E+00 0.  1.
         22    1    1    0    0    0 -0.66974700227E+01 -0.22660517778E+02 -0.20319423317E+02  0.31164629544E+02  0.00000000000E+00 0. -1.
</event>
<event>
 5    1  0.1325686E-009  0.9118800E+02  0.7818608E-02  0.1130116E+00
         25   -1    0    0    0    0  0.00000000000E+00  0.00000000000E+00  0.99999998245E-14  0.12500000000E+03  0.12500000000E+03 0.  0.
        -13    1    3    3    0    0 -0.38181045466E+02 -0.28038850013E+02 -0.85875940114E+01  0.48142780121E+02  0.10566000000E+00 0.  1.
         23    2    1    0    0    0 -0.15088123498E+01 -0.53055697055E+01 -0.28719653654E+02  0.95755443402E+02  0.91180375359E+02 0.  0.
         13    1    3    3    0    0  0.36672233116E+02  0.22733280307E+02 -0.20132059642E+02  0.47612663281E+02  0.10566000000E+00 0. -1.
         22    1    1    0    0    0  0.15088123498E+01  0.53055697055E+01  0.28719653654E+02  0.29244556598E+02  0.00000000000E+00 0. -1.
</event>
<event>
 5    1  0.1325686E-009  0.9118800E+02  0.7818608E-02  0.1130116E+00
         25   -1    0    0    0    0  0.00000000000E+00  0.00000000000E+00  0.99999998245E-14  0.12500000000E+03  0.12500000000E+03 0.  0.
        -13    1    3    3    0    0 -0.48668084056E+02 -0.18633186914E+02  0.21105751508E+02  0.56224923042E+02  0.10566000000E+00 0.  1.
         23    2    1    0    0    0 -0.15928551332E+02 -0.25699931591E+02  0.22042002968E+01  0.94683936102E+02  0.89699409282E+02 0.  0.
         13    1    3    3    0    0  0.32739532725E+02 -0.70667446775E+01 -0.18901551211E+02  0.38459013060E+02  0.10566000000E+00 0. -1.
         22    1    1    0    0    0  0.15928551332E+02  0.25699931591E+02 -0.22042002968E+01  0.30316063898E+02  0.00000000000E+00 0. -1.
</event>
<event>
 5    1  0.1325686E-009  0.9118800E+02  0.7818608E-02  0.1130116E+00
         25   -1    0    0    0    0  0.00000000000E+00  0.00000000000E+00  0.99999998245E-14  0.12500000000E+03  0.12500000000E+03 0.  0.
        -13    1    3    3    0    0 -0.21407758381E+02  0.31083757848E+02  0.10614477043E+02  0.39206764822E+02  0.10566000000E+00 0. -1.
         23    2    1    0    0    0  0.69508168879E+01  0.19105474839E+01 -0.28474615007E+02  0.95627091616E+02  0.91004246627E+02 0.  0.
         13    1    3    3    0    0  0.28358575269E+02 -0.29173210364E+02 -0.39089092051E+02  0.56420326795E+02  0.10566000000E+00 0.  1.
         22    1    1    0    0    0 -0.69508168879E+01 -0.19105474839E+01  0.28474615007E+02  0.29372908384E+02  0.00000000000E+00 0.  1.
</event>
<event>
 5    1  0.1325686E-009  0.9118800E+02  0.7818608E-02  0.1130116E+00
         25   -1    0    0    0    0  0.00000000000E+00  0.00000000000E+00  0.99999998245E-14  0.12500000000E+03  0.12500000000E+03 0.  0.
        -13    1    3    3    0    0 -0.60088058940E+02  0.29303885367E+01 -0.11252136268E+02  0.61202808259E+02  0.10566000000E+00 0.  1.
         23    2    1    0    0    0 -0.26866692824E+02 -0.48761563379E+01 -0.11603925195E+02  0.95331040398E+02  0.90596689230E+02 0.  0.
         13    1    3    3    0    0  0.33221366116E+02 -0.78065448746E+01 -0.35178892723E+00  0.34128232139E+02  0.10566000000E+00 0. -1.
         22    1    1    0    0    0  0.26866692824E+02  0.48761563379E+01  0.11603925195E+02  0.29668959602E+02  0.00000000000E+00 0.  1.
</event>
<event>
 5    1  0.1325686E-009  0.9118800E+02  0.7818608E-02  0.1130116E+00
         25   -1    0    0    0    0  0.00000000000E+00  0.00000000000E+00  0.99999998245E-14  0.12500000000E+03  0.12500000000E+03 0.  0.
        -13    1    3    3    0    0  0.12808226067E+02  0.35217882141E+02 -0.44354090543E+02  0.58065879735E+02  0.10566000000E+00 0. -1.
         23    2    1    0    0    0  0.44529517871E+01  0.27955695363E+02 -0.87212373220E+01  0.95378898345E+02  0.90662696774E+02 0.  0.
         13    1    3    3    0    0 -0.83552742801E+01 -0.72621867783E+01  0.35632853221E+02  0.37313018610E+02  0.10566000000E+00 0.  1.
         22    1    1    0    0    0 -0.44529517871E+01 -0.27955695363E+02  0.87212373220E+01  0.29621101655E+02  0.00000000000E+00 0. -1.
</event>
<event>
 5    1  0.1325686E-009  0.9118800E+02  0.7818608E-02  0.1130116E+00
         25   -1    0    0    0    0  0.00000000000E+00  0.00000000000E+00  0.99999998245E-14  0.12500000000E+03  0.12500000000E+03 0.  0.
        -13    1    3    3    0    0 -0.21330284958E+02 -0.48057541844E+02 -0.26711897698E+02  0.58974952540E+02  0.10566000000E+00 0.  1.
         23    2    1    0    0    0 -0.22033373139E+02 -0.18179669009E+02 -0.47976670712E+01  0.96034718948E+02  0.91562436276E+02 0.  0.
         13    1    3    3    0    0 -0.70308818072E+00  0.29877872836E+02  0.21914230626E+02  0.37059766407E+02  0.10566000000E+00 0. -1.
         22    1    1    0    0    0  0.22033373139E+02  0.18179669009E+02  0.47976670712E+01  0.28965281052E+02  0.00000000000E+00 0.  1.
</event>
<event>
 5    1  0.1325686E-009  0.9118800E+02  0.7818608E-02  0.1130116E+00
         25   -1    0    0    0    0  0.00000000000E+00  0.00000000000E+00  0.99999998245E-14  0.12500000000E+03  0.12500000000E+03 0.  0.
        -13    1    3    3    0    0  0.18683161260E+02  0.18170362835E+02  0.26037626474E+02  0.36840083559E+02  0.10566000000E+00 0.  1.
         23    2    1    0    0    0  0.10892952563E+02 -0.62347890033E+01 -0.26714564250E+02  0.95483954321E+02  0.90807425799E+02 0.  0.
         13    1    3    3    0    0 -0.77902086971E+01 -0.24405151838E+02 -0.52752190724E+02  0.58643870762E+02  0.10566000000E+00 0. -1.
         22    1    1    0    0    0 -0.10892952563E+02  0.62347890033E+01  0.26714564250E+02  0.29516045679E+02  0.00000000000E+00 0. -1.
</event>
<event>
 5    1  0.1325686E-009  0.9118800E+02  0.7818608E-02  0.1130116E+00
         25   -1    0    0    0    0  0.00000000000E+00  0.00000000000E+00  0.99999998245E-14  0.12500000000E+03  0.12500000000E+03 0.  0.
        -13    1    3    3    0    0 -0.56269562572E+02 -0.88954832673E+01  0.28125747865E+01  0.57037838630E+02  0.10566000000E+00 0.  1.
         23    2    1    0    0    0 -0.20186137313E+02 -0.15820488042E+02  0.14429267813E+02  0.95572602033E+02  0.90929370988E+02 0.  0.
         13    1    3    3    0    0  0.36083425260E+02 -0.69250047746E+01  0.11616693027E+02  0.38534763403E+02  0.10566000000E+00 0. -1.
         22    1    1    0    0    0  0.20186137313E+02  0.15820488042E+02 -0.14429267813E+02  0.29427397967E+02  0.00000000000E+00 0.  1.
</event>
<event>
 5    1  0.1325686E-009  0.9118800E+02  0.7818608E-02  0.1130116E+00
         25   -1    0    0    0    0  0.00000000000E+00  0.00000000000E+00  0.99999998245E-14  0.12500000000E+03  0.12500000000E+03 0.  0.
        -13    1    3    3    0    0 -0.33961752957E+02  0.33040389751E+02  0.21926238449E+02  0.52209569193E+02  0.10566000000E+00 0. -1.
         23    2    1    0    0    0  0.22297074117E+01  0.87922816599E+01  0.27420238441E+02  0.96118426495E+02  0.91676641648E+02 0.  0.
         13    1    3    3    0    0  0.36191460369E+02 -0.24248108091E+02  0.54939999921E+01  0.43908857302E+02  0.10566000000E+00 0.  1.
         22    1    1    0    0    0 -0.22297074117E+01 -0.87922816599E+01 -0.27420238441E+02  0.28881573505E+02  0.00000000000E+00 0. -1.
</event>
<event>
 5    1  0.1325686E-009  0.9118800E+02  0.7818608E-02  0.1130116E+00
         25   -1    0    0    0    0  0.00000000000E+00  0.00000000000E+00  0.99999998245E-14  0.12500000000E+03  0.12500000000E+03 0.  0.
        -13    1    3    3    0    0 -0.43331329574E+02  0.24023911941E+01  0.34383608190E+02  0.55368034843E+02  0.10566000000E+00 0. -1.
         23    2    1    0    0    0 -0.36163916000E+01  0.12146311686E+02  0.24466097433E+02  0.97446395891E+02  0.93469775718E+02 0.  0.
         13    1    3    3    0    0  0.39714937974E+02  0.97439204917E+01 -0.99175107571E+01  0.42078361048E+02  0.10566000000E+00 0.  1.
         22    1    1    0    0    0  0.36163916000E+01 -0.12146311686E+02 -0.24466097433E+02  0.27553604109E+02  0.00000000000E+00 0. -1.
</event>
<event>
 5    1  0.1325686E-009  0.9118800E+02  0.7818608E-02  0.1130116E+00
         25   -1    0    0    0    0  0.00000000000E+00  0.00000000000E+00  0.99999998245E-14  0.12500000000E+03  0.12500000000E+03 0.  0.
        -13    1    3    3    0    0  0.17158562978E+02  0.29795679948E+02 -0.12806379111E+02  0.36690780000E+02  0.10566000000E+00 0.  1.
         23    2    1    0    0    0 -0.16290794731E+02 -0.61346595234E+01  0.22056969965E+02  0.96901352978E+02  0.92738008630E+02 0.  0.
         13    1    3    3    0    0 -0.33449357708E+02 -0.35930339471E+02  0.34863349076E+02  0.60210572979E+02  0.10566000000E+00 0. -1.
         22    1    1    0    0    0  0.16290794731E+02  0.61346595234E+01 -0.22056969965E+02  0.28098647022E+02  0.00000000000E+00 0. -1.
</event>
<event>
 5    1  0.1325686E-009  0.9118800E+02  0.7818608E-02  0.1130116E+00
         25   -1    0    0    0    0  0.00000000000E+00  0.00000000000E+00  0.99999998245E-14  0.12500000000E+03  0.12500000000E+03 0.  0.
        -13    1    3    3    0    0 -0.43353624088E+02 -0.35069971014E+00  0.44326549636E+02  0.62004144043E+02  0.10566000000E+00 0.  1.
         23    2    1    0    0    0 -0.21826116823E+02  0.52199624061E+01  0.20341528531E+02  0.94711302998E+02  0.89737538129E+02 0.  0.
         13    1    3    3    0    0  0.21527507265E+02  0.55706621163E+01 -0.23985021105E+02  0.32707158955E+02  0.10566000000E+00 0. -1.
         22    1    1    0    0    0  0.21826116823E+02 -0.52199624061E+01 -0.20341528531E+02  0.30288697002E+02  0.00000000000E+00 0.  1.
</event>
<event>
 5    1  0.1325686E-009  0.9118800E+02  0.7818608E-02  0.1130116E+00
         25   -1    0    0    0    0  0.00000000000E+00  0.00000000000E+00  0.99999998245E-14  0.12500000000E+03  0.12500000000E+03 0.  0.
        -13    1    3    3    0    0 -0.33307492967E+02  0.17021420240E+02 -0.10857690710E+02  0.38948920990E+02  0.10566000000E+00 0.  1.
         23    2    1    0    0    0 -0.62115172700E+01 -0.23576526236E+02  0.17119995105E+02  0.95208562161E+02  0.90427543040E+02 0.  0.
         13    1    3    3    0    0  0.27095975697E+02 -0.40597946476E+02  0.27977685815E+02  0.56259641170E+02  0.10566000000E+00 0. -1.
         22    1    1    0    0    0  0.62115172700E+01  0.23576526236E+02 -0.17119995105E+02  0.29791437839E+02  0.00000000000E+00 0. -1.
</event>
<event>
 5    1  0.1325686E-009  0.9118800E+02  0.7818608E-02  0.1130116E+00
         25   -1    0    0    0    0  0.00000000000E+00  0.00000000000E+00  0.99999998245E-14  0.12500000000E+03  0.12500000000E+03 0.  0.
        -13    1    3    3    0    0  0.12691258978E+02 -0.18268159863E+02  0.14711589684E+02  0.26669003623E+02  0.10566000000E+00 0.  1.
         23    2    1    0    0    0 -0.30797091007E+02  0.19919464708E+02  0.16966768144E+02  0.84588156316E+02  0.74310423757E+02 0.  0.
         13    1    3    3    0    0 -0.43488349984E+02  0.38187624571E+02  0.22551784595E+01  0.57919152692E+02  0.10566000000E+00 0. -1.
         22    1    1    0    0    0  0.30797091007E+02 -0.19919464708E+02 -0.16966768144E+02  0.40411843684E+02  0.00000000000E+00 0. -1.
</event>
<event>
 5    1  0.1325686E-009  0.9118800E+02  0.7818608E-02  0.1130116E+00
         25   -1    0    0    0    0  0.00000000000E+00  0.00000000000E+00  0.99999998245E-14  0.12500000000E+03  0.12500000000E+03 0.  0.
        -13    1    3    3    0    0  0.28437404409E+02 -0.16144240836E+02 -0.29119024331E+02  0.43786427392E+02  0.10566000000E+00 0.  1.
         23    2    1    0    0    0 -0.22022862481E+02 -0.11058026257E+02 -0.13751393725E+02  0.96779666091E+02  0.92573843621E+02 0.  0.
         13    1    3    3    0    0 -0.50460266890E+02  0.50862145783E+01  0.15367630606E+02  0.52993238699E+02  0.10566000000E+00 0. -1.
         22    1    1    0    0    0  0.22022862481E+02  0.11058026257E+02  0.13751393725E+02  0.28220333909E+02  0.00000000000E+00 0. -1.
</event>
<event>
 5    1  0.1325686E-009  0.9118800E+02  0.7818608E-02  0.1130116E+00
         25   -1    0    0    0    0  0.00000000000E+00  0.00000000000E+00  0.99999998245E-14  0.12500000000E+03  0.12500000000E+03 0.  0.
        -13    1    3    3    0    0 -0.13066782961E+02  0.31684726572E+02  0.39453850050E+02  0.52261650976E+02  0.10566000000E+00 0.  1.
         23    2    1    0    0    0 -0.27056111944E+02  0.13698565550E+02  0.39936253510E+01  0.94411882452E+02  0.89319486189E+02 0.  0.
         13    1    3    3    0    0 -0.13989328984E+02 -0.17986161022E+02 -0.35460224699E+02  0.42150231476E+02  0.10566000000E+00 0. -1.
         22    1    1    0    0    0  0.27056111944E+02 -0.13698565550E+02 -0.39936253510E+01  0.30588117548E+02  0.00000000000E+00 0.  1.
</event>
<event>
 5    1  0.1325686E-009  0.9118800E+02  0.7818608E-02  0.1130116E+00
         25   -1    0    0    0    0  0.00000000000E+00  0.00000000000E+00  0.99999998245E-14  0.12500000000E+03  0.12500000000E+03 0.  0.
        -13    1    3    3    0    0 -0.22912384842E+02 -0.49150574727E+01 -0.29764676316E+02  0.37882479978E+02  0.10566000000E+00 0. -1.
         23    2    1    0    0    0  0.13768679678E+02 -0.22921083365E+02  0.11443442794E+02  0.95915554232E+02  0.91399609178E+02 0.  0.
         13    1    3    3    0    0  0.36681064519E+02 -0.18006025892E+02  0.41208119110E+02  0.58033074253E+02  0.10566000000E+00 0.  1.
         22    1    1    0    0    0 -0.13768679678E+02  0.22921083365E+02 -0.11443442794E+02  0.29084445768E+02  0.00000000000E+00 0.  1.
</event>
<event>
 5    1  0.1325686E-009  0.9118800E+02  0.7818608E-02  0.1130116E+00
         25   -1    0    0    0    0  0.00000000000E+00  0.00000000000E+00  0.99999998245E-14  0.12500000000E+03  0.12500000000E+03 0.  0.
        -13    1    3    3    0    0 -0.26856806712E+02 -0.11267202141E+02 -0.16800254236E+02  0.33622873424E+02  0.10566000000E+00 0.  1.
         23    2    1    0    0    0  0.15529858922E+02  0.25784603902E+02  0.59031082990E+01  0.94326411946E+02  0.89199792525E+02 0.  0.
         13    1    3    3    0    0  0.42386665634E+02  0.37051806044E+02  0.22703362535E+02  0.60703538522E+02  0.10566000000E+00 0. -1.
         22    1    1    0    0    0 -0.15529858922E+02 -0.25784603902E+02 -0.59031082990E+01  0.30673588054E+02  0.00000000000E+00 0. -1.
</event>
<event>
 5    1  0.1325686E-009  0.9118800E+02  0.7818608E-02  0.1130116E+00
         25   -1    0    0    0    0  0.00000000000E+00  0.00000000000E+00  0.99999998245E-14  0.12500000000E+03  0.12500000000E+03 0.  0.
        -13    1    3    3    0    0  0.15894266673E+02 -0.54477398452E+01 -0.28719902594E+02  0.33273856878E+02  0.10566000000E+00 0.  1.
         23    2    1    0    0    0 -0.19581950954E+02  0.20247867737E+01  0.21909425986E+02  0.95545365192E+02  0.90891920971E+02 0.  0.
         13    1    3    3    0    0 -0.35476217627E+02  0.74725266189E+01  0.50629328580E+02  0.62271508314E+02  0.10566000000E+00 0. -1.
         22    1    1    0    0    0  0.19581950954E+02 -0.20247867737E+01 -0.21909425986E+02  0.29454634808E+02  0.00000000000E+00 0. -1.
</event>
<event>
 5    1  0.1325686E-009  0.9118800E+02  0.7818608E-02  0.1130116E+00
         25   -1    0    0    0    0  0.00000000000E+00  0.00000000000E+00  0.99999998245E-14  0.12500000000E+03  0.12500000000E+03 0.  0.
        -13    1    3    3    0    0 -0.63424800405E+01  0.35233399948E+02  0.47971869495E+02  0.59857588924E+02  0.10566000000E+00 0. -1.
         23    2    1    0    0    0  0.96366636108E+01  0.15401505568E+02  0.24550126801E+02  0.94458546445E+02  0.89384767222E+02 0.  0.
         13    1    3    3    0    0  0.15979143651E+02 -0.19831894380E+02 -0.23421742694E+02  0.34600957521E+02  0.10566000000E+00 0.  1.
         22    1    1    0    0    0 -0.96366636108E+01 -0.15401505568E+02 -0.24550126801E+02  0.30541453555E+02  0.00000000000E+00 0. -1.
</event>
<event>
 5    1  0.1325686E-009  0.9118800E+02  0.7818608E-02  0.1130116E+00
         25   -1    0    0    0    0  0.00000000000E+00  0.00000000000E+00  0.99999998245E-14  0.12500000000E+03  0.12500000000E+03 0.  0.
        -13    1    3    3    0    0  0.36307501220E+02  0.18871155063E+02  0.47225487455E+02  0.62486902369E+02  0.10566000000E+00 0.  1.
         23    2    1    0    0    0  0.17894213105E+02  0.86036968540E+01  0.21901366967E+02  0.95438262277E+02  0.90744507102E+02 0.  0.
         13    1    3    3    0    0 -0.18413288115E+02 -0.10267458209E+02 -0.25324120488E+02  0.32951359908E+02  0.10566000000E+00 0. -1.
         22    1    1    0    0    0 -0.17894213105E+02 -0.86036968540E+01 -0.21901366967E+02  0.29561737723E+02  0.00000000000E+00 0.  1.
</event>
<event>
 5    1  0.1325686E-009  0.9118800E+02  0.7818608E-02  0.1130116E+00
         25   -1    0    0    0    0  0.00000000000E+00  0.00000000000E+00  0.99999998245E-14  0.12500000000E+03  0.12500000000E+03 0.  0.
        -13    1    3    3    0    0  0.19757474397E+02  0.10944241764E+02  0.60970522430E+01  0.23394859103E+02  0.10566000000E+00 0. -1.
         23    2    1    0    0    0 -0.36775122926E+02 -0.12548427745E+02 -0.56587175024E+01  0.85733044569E+02  0.76211948815E+02 0.  0.
         13    1    3    3    0    0 -0.56532597323E+02 -0.23492669510E+02 -0.11755769745E+02  0.62338185466E+02  0.10566000000E+00 0.  1.
         22    1    1    0    0    0  0.36775122926E+02  0.12548427745E+02  0.56587175024E+01  0.39266955431E+02  0.00000000000E+00 0.  1.
</event>
<event>
 5    1  0.1325686E-009  0.9118800E+02  0.7818608E-02  0.1130116E+00
         25   -1    0    0    0    0  0.00000000000E+00  0.00000000000E+00  0.99999998245E-14  0.12500000000E+03  0.12500000000E+03 0.  0.
        -13    1    3    3    0    0  0.31143491695E+02  0.37334040919E+01 -0.37999996074E+02  0.49273382741E+02  0.10566000000E+00 0.  1.
         23    2    1    0    0    0 -0.75603175707E+01 -0.17311788867E+02 -0.21655034039E+02  0.96263317262E+02  0.91873986065E+02 0.  0.
         13    1    3    3    0    0 -0.38703809265E+02 -0.21045192959E+02  0.16344962035E+02  0.46989934521E+02  0.10566000000E+00 0. -1.
         22    1    1    0    0    0  0.75603175707E+01  0.17311788867E+02  0.21655034039E+02  0.28736682738E+02  0.00000000000E+00 0.  1.
</event>
<event>
 5    1  0.1325686E-009  0.9118800E+02  0.7818608E-02  0.1130116E+00
         25   -1    0    0    0    0  0.00000000000E+00  0.00000000000E+00  0.99999998245E-14  0.12500000000E+03  0.12500000000E+03 0.  0.
        -13    1    3    3    0    0 -0.35791076076E+01  0.56189505777E+01  0.45207374899E+02  0.45695738600E+02  0.10566000000E+00 0. -1.
         23    2    1    0    0    0 -0.28131784327E+02 -0.65940272755E+01  0.31075616457E+01  0.95939108333E+02  0.91431816581E+02 0.  0.
         13    1    3    3    0    0 -0.24552676719E+02 -0.12212977853E+02 -0.42099813254E+02  0.50243369733E+02  0.10566000000E+00 0.  1.
         22    1    1    0    0    0  0.28131784327E+02  0.65940272755E+01 -0.31075616457E+01  0.29060891667E+02  0.00000000000E+00 0.  1.
</event>
<event>
 5    1  0.1325686E-009  0.9118800E+02  0.7818608E-02  0.1130116E+00
         25   -1    0    0    0    0  0.00000000000E+00  0.00000000000E+00  0.99999998245E-14  0.12500000000E+03  0.12500000000E+03 0.  0.
        -13    1    3    3    0    0 -0.15731495089E+02  0.68626071037E+01 -0.35834930108E+02  0.39733219023E+02  0.10566000000E+00 0.  1.
         23    2    1    0    0    0 -0.12839102685E+02  0.12380151642E+02  0.21306717081E+02  0.97213548172E+02  0.93157860876E+02 0.  0.
         13    1    3    3    0    0  0.28923924044E+01  0.55175445379E+01  0.57141647189E+02  0.57480329149E+02  0.10566000000E+00 0. -1.
         22    1    1    0    0    0  0.12839102685E+02 -0.12380151642E+02 -0.21306717081E+02  0.27786451828E+02  0.00000000000E+00 0. -1.
</event>
<event>
 5    1  0.1325686E-009  0.9118800E+02  0.7818608E-02  0.1130116E+00
         25   -1    0    0    0    0  0.00000000000E+00  0.00000000000E+00  0.99999998245E-14  0.12500000000E+03  0.12500000000E+03 0.  0.
        -13    1    3    3    0    0  0.30024199073E+02 -0.28539974021E+02 -0.13922092531E+02  0.43701469902E+02  0.10566000000E+00 0.  1.
         23    2    1    0    0    0  0.13766735442E+02  0.20922627175E+02 -0.15051489407E+02  0.95779687442E+02  0.91213605676E+02 0.  0.
         13    1    3    3    0    0 -0.16257463631E+02  0.49462601196E+02 -0.11293968757E+01  0.52078217540E+02  0.10566000000E+00 0. -1.
         22    1    1    0    0    0 -0.13766735442E+02 -0.20922627175E+02  0.15051489407E+02  0.29220312558E+02  0.00000000000E+00 0. -1.
</event>
<event>
 5    1  0.1325686E-009  0.9118800E+02  0.7818608E-02  0.1130116E+00
         25   -1    0    0    0    0  0.00000000000E+00  0.00000000000E+00  0.99999998245E-14  0.12500000000E+03  0.12500000000E+03 0.  0.
        -13    1    3    3    0    0  0.37122350730E+02 -0.13121849723E+02 -0.26161526536E+02  0.47272491986E+02  0.10566000000E+00 0.  1.
         23    2    1    0    0    0 -0.73591473475E+01 -0.25650010286E+02 -0.12966857540E+02  0.95331507085E+02  0.90597333136E+02 0.  0.
         13    1    3    3    0    0 -0.44481498078E+02 -0.12528160563E+02  0.13194668996E+02  0.48059015099E+02  0.10566000000E+00 0. -1.
         22    1    1    0    0    0  0.73591473475E+01  0.25650010286E+02  0.12966857540E+02  0.29668492915E+02  0.00000000000E+00 0.  1.
</event>
<event>
 5    1  0.1325686E-009  0.9118800E+02  0.7818608E-02  0.1130116E+00
         25   -1    0    0    0    0  0.00000000000E+00  0.00000000000E+00  0.99999998245E-14  0.12500000000E+03  0.12500000000E+03 0.  0.
        -13    1    3    3    0    0 -0.39968103957E+02  0.31495471010E+02  0.45176773390E+01  0.51086540308E+02  0.10566000000E+00 0. -1.
         23    2    1    0    0    0 -0.27564432530E+02 -0.10167647327E+02 -0.38934785625E+01  0.95363229458E+02  0.90641090927E+02 0.  0.
         13    1    3    3    0    0  0.12403671427E+02 -0.41663118337E+02 -0.84111559015E+01  0.44276689150E+02  0.10566000000E+00 0.  1.
         22    1    1    0    0    0  0.27564432530E+02  0.10167647327E+02  0.38934785625E+01  0.29636770542E+02  0.00000000000E+00 0. -1.
</event>
<event>
 5    1  0.1325686E-009  0.9118800E+02  0.7818608E-02  0.1130116E+00
         25   -1    0    0    0    0  0.00000000000E+00  0.00000000000E+00  0.99999998245E-14  0.12500000000E+03  0.12500000000E+03 0.  0.
        -13    1    3    3    0    0 -0.47114218271E+02 -0.31891242728E+01 -0.36192416377E+02  0.59496405304E+02  0.10566000000E+00 0. -1.
         23    2    1    0    0    0 -0.29251322931E+02 -0.33354500925E+01 -0.54400852228E+01  0.95060734014E+02  0.90222965499E+02 0.  0.
         13    1    3    3    0    0  0.17862895340E+02 -0.14632581974E+00  0.30752331154E+02  0.35564328710E+02  0.10566000000E+00 0.  1.
         22    1    1    0    0    0  0.29251322931E+02  0.33354500925E+01  0.54400852228E+01  0.29939265986E+02  0.00000000000E+00 0. -1.
</event>
<event>
 5    1  0.1325686E-009  0.9118800E+02  0.7818608E-02  0.1130116E+00
         25   -1    0    0    0    0  0.00000000000E+00  0.00000000000E+00  0.99999998245E-14  0.12500000000E+03  0.12500000000E+03 0.  0.
        -13    1    3    3    0    0 -0.22236726227E+02  0.64857779234E+01 -0.29252565088E+02  0.37313014309E+02  0.10566000000E+00 0.  1.
         23    2    1    0    0    0  0.68630141304E+00  0.18072757240E+02  0.23120872424E+02  0.95645778745E+02  0.91029910942E+02 0.  0.
         13    1    3    3    0    0  0.22923027640E+02  0.11586979316E+02  0.52373437512E+02  0.58332764436E+02  0.10566000000E+00 0. -1.
         22    1    1    0    0    0 -0.68630141304E+00 -0.18072757240E+02 -0.23120872424E+02  0.29354221255E+02  0.00000000000E+00 0.  1.
</event>
<event>
 5    1  0.1325686E-009  0.9118800E+02  0.7818608E-02  0.1130116E+00
         25   -1    0    0    0    0  0.00000000000E+00  0.00000000000E+00  0.99999998245E-14  0.12500000000E+03  0.12500000000E+03 0.  0.
        -13    1    3    3    0    0  0.37475596321E+02  0.25173289258E+02 -0.42059401793E+02  0.61701857792E+02  0.10566000000E+00 0. -1.
         23    2    1    0    0    0  0.13184861661E+02  0.70723272473E+01 -0.23224539734E+02  0.97373244208E+02  0.93371896479E+02 0.  0.
         13    1    3    3    0    0 -0.24290734660E+02 -0.18100962011E+02  0.18834862059E+02  0.35671386417E+02  0.10566000000E+00 0.  1.
         22    1    1    0    0    0 -0.13184861661E+02 -0.70723272473E+01  0.23224539734E+02  0.27626755792E+02  0.00000000000E+00 0. -1.
</event>
<event>
 5    1  0.1325686E-009  0.9118800E+02  0.7818608E-02  0.1130116E+00
         25   -1    0    0    0    0  0.00000000000E+00  0.00000000000E+00  0.99999998245E-14  0.12500000000E+03  0.12500000000E+03 0.  0.
        -13    1    3    3    0    0 -0.29888928614E+02 -0.23387662042E+02 -0.40467003396E+02  0.55479007898E+02  0.10566000000E+00 0.  1.
         23    2    1    0    0    0  0.41665417437E+01 -0.21640278239E+02 -0.19935064259E+02  0.95283531512E+02  0.90531115524E+02 0.  0.
         13    1    3    3    0    0  0.34055470357E+02  0.17473838022E+01  0.20531939137E+02  0.39804523615E+02  0.10566000000E+00 0. -1.
         22    1    1    0    0    0 -0.41665417437E+01  0.21640278239E+02  0.19935064259E+02  0.29716468488E+02  0.00000000000E+00 0.  1.
</event>
<event>
 5    1  0.1325686E-009  0.9118800E+02  0.7818608E-02  0.1130116E+00
         25   -1    0    0    0    0  0.00000000000E+00  0.00000000000E+00  0.99999998245E-14  0.12500000000E+03  0.12500000000E+03 0.  0.
        -13    1    3    3    0    0  0.58321922626E+01  0.13631943089E+01 -0.62151847925E+02  0.62439860104E+02  0.10566000000E+00 0. -1.
         23    2    1    0    0    0  0.86987271704E+00  0.11528678792E+01 -0.29221718577E+02  0.95742614274E+02  0.91162786095E+02 0.  0.
         13    1    3    3    0    0 -0.49623195456E+01 -0.21032642970E+00  0.32930129347E+02  0.33302754170E+02  0.10566000000E+00 0.  1.
         22    1    1    0    0    0 -0.86987271704E+00 -0.11528678792E+01  0.29221718577E+02  0.29257385726E+02  0.00000000000E+00 0. -1.
</event>
<event>
 5    1  0.1325686E-009  0.9118800E+02  0.7818608E-02  0.1130116E+00
         25   -1    0    0    0    0  0.00000000000E+00  0.00000000000E+00  0.99999998245E-14  0.12500000000E+03  0.12500000000E+03 0.  0.
        -13    1    3    3    0    0  0.42573811470E+02 -0.18297413758E+02  0.30042300632E+02  0.55225680300E+02  0.10566000000E+00 0.  1.
         23    2    1    0    0    0  0.24728394554E+01 -0.15209456012E+02  0.24823570310E+02  0.95782674145E+02  0.91217698592E+02 0.  0.
         13    1    3    3    0    0 -0.40100972015E+02  0.30879577458E+01 -0.52187303216E+01  0.40556993845E+02  0.10566000000E+00 0. -1.
         22    1    1    0    0    0 -0.24728394554E+01  0.15209456012E+02 -0.24823570310E+02  0.29217325855E+02  0.00000000000E+00 0.  1.
</event>
<event>
 5    1  0.1325686E-009  0.9118800E+02  0.7818608E-02  0.1130116E+00
         25   -1    0    0    0    0  0.00000000000E+00  0.00000000000E+00  0.99999998245E-14  0.12500000000E+03  0.12500000000E+03 0.  0.
        -13    1    3    3    0    0 -0.83013255714E+00 -0.10695342702E+02  0.48623249252E+02  0.49792680260E+02  0.10566000000E+00 0. -1.
         23    2    1    0    0    0  0.25098852270E+02  0.46992737886E+01  0.13393617515E+02  0.96165566599E+02  0.91740894097E+02 0.  0.
         13    1    3    3    0    0  0.25928984828E+02  0.15394616491E+02 -0.35229631737E+02  0.46372886339E+02  0.10566000000E+00 0.  1.
         22    1    1    0    0    0 -0.25098852270E+02 -0.46992737886E+01 -0.13393617515E+02  0.28834433401E+02  0.00000000000E+00 0.  1.
</event>
<event>
 5    1  0.1325686E-009  0.9118800E+02  0.7818608E-02  0.1130116E+00
         25   -1    0    0    0    0  0.00000000000E+00  0.00000000000E+00  0.99999998245E-14  0.12500000000E+03  0.12500000000E+03 0.  0.
        -13    1    3    3    0    0 -0.22251796238E+02  0.19155313148E+02  0.34445252517E+02  0.45260965993E+02  0.10566000000E+00 0.  1.
         23    2    1    0    0    0  0.21964304470E+02  0.16195900745E+02  0.95675283099E+01  0.96081572142E+02  0.91626377401E+02 0.  0.
         13    1    3    3    0    0  0.44216100708E+02 -0.29594124038E+01 -0.24877724207E+02  0.50820606149E+02  0.10566000000E+00 0. -1.
         22    1    1    0    0    0 -0.21964304470E+02 -0.16195900745E+02 -0.95675283099E+01  0.28918427858E+02  0.00000000000E+00 0. -1.
</event>
<event>
 5    1  0.1325686E-009  0.9118800E+02  0.7818608E-02  0.1130116E+00
         25   -1    0    0    0    0  0.00000000000E+00  0.00000000000E+00  0.99999998245E-14  0.12500000000E+03  0.12500000000E+03 0.  0.
        -13    1    3    3    0    0 -0.44010821286E+02  0.24658710415E+02 -0.31985024052E+01  0.50549440861E+02  0.10566000000E+00 0.  1.
         23    2    1    0    0    0 -0.85048033321E+01  0.79333691418E+01 -0.26406330668E+02  0.96145809229E+02  0.91713970077E+02 0.  0.
         13    1    3    3    0    0  0.35506017954E+02 -0.16725341274E+02 -0.23207828263E+02  0.45596368369E+02  0.10566000000E+00 0. -1.
         22    1    1    0    0    0  0.85048033321E+01 -0.79333691418E+01  0.26406330668E+02  0.28854190771E+02  0.00000000000E+00 0.  1.
</event>
<event>
 5    1  0.1325686E-009  0.9118800E+02  0.7818608E-02  0.1130116E+00
         25   -1    0    0    0    0  0.00000000000E+00  0.00000000000E+00  0.99999998245E-14  0.12500000000E+03  0.12500000000E+03 0.  0.
        -13    1    3    3    0    0  0.29779948963E+02  0.80554496071E+01 -0.24338768273E+02  0.39295323306E+02  0.10566000000E+00 0.  1.
         23    2    1    0    0    0 -0.21816575636E+02 -0.12902100297E+02 -0.14346914823E+02  0.95875077177E+02  0.91344235145E+02 0.  0.
         13    1    3    3    0    0 -0.51596524599E+02 -0.20957549904E+02  0.99918534502E+01  0.56579753871E+02  0.10566000000E+00 0. -1.
         22    1    1    0    0    0  0.21816575636E+02  0.12902100297E+02  0.14346914823E+02  0.29124922823E+02  0.00000000000E+00 0. -1.
</event>
<event>
 5    1  0.1325686E-009  0.9118800E+02  0.7818608E-02  0.1130116E+00
         25   -1    0    0    0    0  0.00000000000E+00  0.00000000000E+00  0.99999998245E-14  0.12500000000E+03  0.12500000000E+03 0.  0.
        -13    1    3    3    0    0 -0.26237262506E+02 -0.42928823260E+02  0.31529468141E+02  0.59375048089E+02  0.10566000000E+00 0. -1.
         23    2    1    0    0    0  0.97438508978E+00 -0.24809332478E+02  0.14722087707E+02  0.96134929919E+02  0.91699141107E+02 0.  0.
         13    1    3    3    0    0  0.27211647596E+02  0.18119490782E+02 -0.16807380434E+02  0.36759881830E+02  0.10566000000E+00 0.  1.
         22    1    1    0    0    0 -0.97438508978E+00  0.24809332478E+02 -0.14722087707E+02  0.28865070081E+02  0.00000000000E+00 0. -1.
</event>
<event>
 5    1  0.1325686E-009  0.9118800E+02  0.7818608E-02  0.1130116E+00
         25   -1    0    0    0    0  0.00000000000E+00  0.00000000000E+00  0.99999998245E-14  0.12500000000E+03  0.12500000000E+03 0.  0.
        -13    1    3    3    0    0 -0.32098125240E+02  0.18555453261E+01  0.20004844873E+02  0.37867369526E+02  0.10566000000E+00 0.  1.
         23    2    1    0    0    0 -0.12833245142E+02 -0.10137971471E+02 -0.28906979700E+02  0.91787289755E+02  0.85567648318E+02 0.  0.
         13    1    3    3    0    0  0.19264880099E+02 -0.11993516798E+02 -0.48911824573E+02  0.53919920229E+02  0.10566000000E+00 0. -1.
         22    1    1    0    0    0  0.12833245142E+02  0.10137971471E+02  0.28906979700E+02  0.33212710245E+02  0.00000000000E+00 0. -1.
</event>
<event>
 5    1  0.1325686E-009  0.9118800E+02  0.7818608E-02  0.1130116E+00
         25   -1    0    0    0    0  0.00000000000E+00  0.00000000000E+00  0.99999998245E-14  0.12500000000E+03  0.12500000000E+03 0.  0.
        -13    1    3    3    0    0  0.17407320174E+02 -0.14567798692E+02  0.26570324168E+02  0.34946084828E+02  0.10566000000E+00 0.  1.
         23    2    1    0    0    0 -0.22996384432E+02  0.19869779297E+01 -0.16771014622E+02  0.96468461141E+02  0.92152673782E+02 0.  0.
         13    1    3    3    0    0 -0.40403704606E+02  0.16554776622E+02 -0.43341338791E+02  0.61522376312E+02  0.10566000000E+00 0. -1.
         22    1    1    0    0    0  0.22996384432E+02 -0.19869779297E+01  0.16771014622E+02  0.28531538859E+02  0.00000000000E+00 0. -1.
</event>
<event>
 5    1  0.1325686E-009  0.9118800E+02  0.7818608E-02  0.1130116E+00
         25   -1    0    0    0    0  0.00000000000E+00  0.00000000000E+00  0.99999998245E-14  0.12500000000E+03  0.12500000000E+03 0.  0.
        -13    1    3    3    0    0 -0.23843885927E+02 -0.42738613195E+02  0.11485700952E+02  0.50269796541E+02  0.10566000000E+00 0.  1.
         23    2    1    0    0    0 -0.12717656716E+02 -0.14246292688E+02 -0.22163599610E+02  0.95743875934E+02  0.91164516033E+02 0.  0.
         13    1    3    3    0    0  0.11126229210E+02  0.28492320506E+02 -0.33649300562E+02  0.45474079393E+02  0.10566000000E+00 0. -1.
         22    1    1    0    0    0  0.12717656716E+02  0.14246292688E+02  0.22163599610E+02  0.29256124066E+02  0.00000000000E+00 0.  1.
</event>
<event>
 5    1  0.1325686E-009  0.9118800E+02  0.7818608E-02  0.1130116E+00
         25   -1    0    0    0    0  0.00000000000E+00  0.00000000000E+00  0.99999998245E-14  0.12500000000E+03  0.12500000000E+03 0.  0.
        -13    1    3    3    0    0 -0.42313168618E+02 -0.16950814798E+01  0.29509426378E+02  0.51614871393E+02  0.10566000000E+00 0.  1.
         23    2    1    0    0    0 -0.12416532901E+02 -0.24121300228E+02  0.24408800678E+01  0.97760959828E+02  0.93889509302E+02 0.  0.
         13    1    3    3    0    0  0.29896635716E+02 -0.22426218748E+02 -0.27068546310E+02  0.46146088435E+02  0.10566000000E+00 0. -1.
         22    1    1    0    0    0  0.12416532901E+02  0.24121300228E+02 -0.24408800678E+01  0.27239040172E+02  0.00000000000E+00 0.  1.
</event>
<event>
 5    1  0.1325686E-009  0.9118800E+02  0.7818608E-02  0.1130116E+00
         25   -1    0    0    0    0  0.00000000000E+00  0.00000000000E+00  0.99999998245E-14  0.12500000000E+03  0.12500000000E+03 0.  0.
        -13    1    3    3    0    0 -0.17231501411E+02  0.22696958992E+01 -0.41986074022E+02  0.45441365914E+02  0.10566000000E+00 0.  1.
         23    2    1    0    0    0  0.13536459296E+01 -0.24925754752E+02  0.14975937244E+01  0.99992633200E+02  0.96815072691E+02 0.  0.
         13    1    3    3    0    0  0.18585147340E+02 -0.27195450652E+02  0.43483667746E+02  0.54551267286E+02  0.10566000000E+00 0. -1.
         22    1    1    0    0    0 -0.13536459296E+01  0.24925754752E+02 -0.14975937244E+01  0.25007366800E+02  0.00000000000E+00 0. -1.
</event>
<event>
 5    1  0.1325686E-009  0.9118800E+02  0.7818608E-02  0.1130116E+00
         25   -1    0    0    0    0  0.00000000000E+00  0.00000000000E+00  0.99999998245E-14  0.12500000000E+03  0.12500000000E+03 0.  0.
        -13    1    3    3    0    0  0.33090859939E+02 -0.10716508331E+02 -0.55830256589E+01  0.35228254312E+02  0.10566000000E+00 0. -1.
         23    2    1    0    0    0 -0.20141787177E+02  0.19759567020E+02 -0.30489105952E+01  0.96619937714E+02  0.92357914813E+02 0.  0.
         13    1    3    3    0    0 -0.53232647116E+02  0.30476075352E+02  0.25341150637E+01  0.61391683403E+02  0.10566000000E+00 0.  1.
         22    1    1    0    0    0  0.20141787177E+02 -0.19759567020E+02  0.30489105952E+01  0.28380062286E+02  0.00000000000E+00 0.  1.
</event>
<event>
 5    1  0.1325686E-009  0.9118800E+02  0.7818608E-02  0.1130116E+00
         25   -1    0    0    0    0  0.00000000000E+00  0.00000000000E+00  0.99999998245E-14  0.12500000000E+03  0.12500000000E+03 0.  0.
        -13    1    3    3    0    0  0.37783719232E+01  0.15933872563E+02  0.52864070457E+02  0.55342438495E+02  0.10566000000E+00 0. -1.
         23    2    1    0    0    0 -0.14120983774E+02 -0.68849774438E+01  0.24409068391E+02  0.95972293978E+02  0.91477174719E+02 0.  0.
         13    1    3    3    0    0 -0.17899355698E+02 -0.22818850006E+02 -0.28455002066E+02  0.40629855484E+02  0.10566000000E+00 0.  1.
         22    1    1    0    0    0  0.14120983774E+02  0.68849774438E+01 -0.24409068391E+02  0.29027706022E+02  0.00000000000E+00 0. -1.
</event>
<event>
 5    1  0.1325686E-009  0.9118800E+02  0.7818608E-02  0.1130116E+00
         25   -1    0    0    0    0  0.00000000000E+00  0.00000000000E+00  0.99999998245E-14  0.12500000000E+03  0.12500000000E+03 0.  0.
        -13    1    3    3    0    0 -0.25737697028E+01 -0.16577069740E+02 -0.40676925178E+02  0.44000533379E+02  0.10566000000E+00 0.  1.
         23    2    1    0    0    0 -0.11331137275E+02 -0.25051689798E+02  0.97102716424E+01  0.95840589700E+02  0.91297028566E+02 0.  0.
         13    1    3    3    0    0 -0.87573675725E+01 -0.84746200580E+01  0.50387196821E+02  0.51840056321E+02  0.10566000000E+00 0. -1.
         22    1    1    0    0    0  0.11331137275E+02  0.25051689798E+02 -0.97102716424E+01  0.29159410300E+02  0.00000000000E+00 0. -1.
</event>
<event>
 5    1  0.1325686E-009  0.9118800E+02  0.7818608E-02  0.1130116E+00
         25   -1    0    0    0    0  0.00000000000E+00  0.00000000000E+00  0.99999998245E-14  0.12500000000E+03  0.12500000000E+03 0.  0.
        -13    1    3    3    0    0  0.52348210027E+02 -0.24761856852E+01  0.32772516321E+02  0.61810319354E+02  0.10566000000E+00 0. -1.
         23    2    1    0    0    0  0.29021281298E+02  0.10161997573E+01  0.10885968548E+02  0.93987555057E+02  0.88723665187E+02 0.  0.
         13    1    3    3    0    0 -0.23326928730E+02  0.34923854425E+01 -0.21886547773E+02  0.32177235703E+02  0.10566000000E+00 0.  1.
         22    1    1    0    0    0 -0.29021281298E+02 -0.10161997573E+01 -0.10885968548E+02  0.31012444943E+02  0.00000000000E+00 0. -1.
</event>
<event>
 5    1  0.1325686E-009  0.9118800E+02  0.7818608E-02  0.1130116E+00
         25   -1    0    0    0    0  0.00000000000E+00  0.00000000000E+00  0.99999998245E-14  0.12500000000E+03  0.12500000000E+03 0.  0.
        -13    1    3    3    0    0  0.24735168260E+02 -0.49789896780E+02  0.14582427368E+02  0.57476262249E+02  0.10566000000E+00 0.  1.
         23    2    1    0    0    0  0.24090767944E+02 -0.11946927922E+02  0.12401500727E+02  0.95387647727E+02  0.90674759066E+02 0.  0.
         13    1    3    3    0    0 -0.64440031632E+00  0.37842968858E+02 -0.21809266414E+01  0.37911385477E+02  0.10566000000E+00 0. -1.
         22    1    1    0    0    0 -0.24090767944E+02  0.11946927922E+02 -0.12401500727E+02  0.29612352273E+02  0.00000000000E+00 0.  1.
</event>
<event>
 5    1  0.1325686E-009  0.9118800E+02  0.7818608E-02  0.1130116E+00
         25   -1    0    0    0    0  0.00000000000E+00  0.00000000000E+00  0.99999998245E-14  0.12500000000E+03  0.12500000000E+03 0.  0.
        -13    1    3    3    0    0  0.26870383053E+01 -0.10078909672E+02 -0.53133855572E+02  0.54148152019E+02  0.10566000000E+00 0.  1.
         23    2    1    0    0    0  0.10357357098E+02 -0.25880628395E+02 -0.23766924149E+02  0.88367385356E+02  0.80416704353E+02 0.  0.
         13    1    3    3    0    0  0.76703187923E+01 -0.15801718723E+02  0.29366931423E+02  0.34219233337E+02  0.10566000000E+00 0. -1.
         22    1    1    0    0    0 -0.10357357098E+02  0.25880628395E+02  0.23766924149E+02  0.36632614644E+02  0.00000000000E+00 0.  1.
</event>
<event>
 5    1  0.1325686E-009  0.9118800E+02  0.7818608E-02  0.1130116E+00
         25   -1    0    0    0    0  0.00000000000E+00  0.00000000000E+00  0.99999998245E-14  0.12500000000E+03  0.12500000000E+03 0.  0.
        -13    1    3    3    0    0 -0.29204593499E+02  0.27449080452E+02  0.32661041811E+02  0.51702177085E+02  0.10566000000E+00 0. -1.
         23    2    1    0    0    0  0.56728719966E+01  0.88318231243E+00  0.28708748272E+02  0.95722812378E+02  0.91135630214E+02 0.  0.
         13    1    3    3    0    0  0.34877465496E+02 -0.26565898140E+02 -0.39522935390E+01  0.44020635293E+02  0.10566000000E+00 0.  1.
         22    1    1    0    0    0 -0.56728719966E+01 -0.88318231243E+00 -0.28708748272E+02  0.29277187622E+02  0.00000000000E+00 0. -1.
</event>
<event>
 5    1  0.1325686E-009  0.9118800E+02  0.7818608E-02  0.1130116E+00
         25   -1    0    0    0    0  0.00000000000E+00  0.00000000000E+00  0.99999998245E-14  0.12500000000E+03  0.12500000000E+03 0.  0.
        -13    1    3    3    0    0 -0.53247838283E+01  0.37307758275E+02  0.38141997910E+02  0.53619449073E+02  0.10566000000E+00 0. -1.
         23    2    1    0    0    0  0.20387251627E+02  0.17738156733E+02  0.10982919574E+02  0.95829693941E+02  0.91282109338E+02 0.  0.
         13    1    3    3    0    0  0.25712035456E+02 -0.19569601541E+02 -0.27159078335E+02  0.42210244868E+02  0.10566000000E+00 0.  1.
         22    1    1    0    0    0 -0.20387251627E+02 -0.17738156733E+02 -0.10982919574E+02  0.29170306059E+02  0.00000000000E+00 0. -1.
</event>
<event>
 5    1  0.1325686E-009  0.9118800E+02  0.7818608E-02  0.1130116E+00
         25   -1    0    0    0    0  0.00000000000E+00  0.00000000000E+00  0.99999998245E-14  0.12500000000E+03  0.12500000000E+03 0.  0.
        -13    1    3    3    0    0 -0.99401793327E+01  0.32825993360E+02 -0.32780558833E+02  0.47443958590E+02  0.10566000000E+00 0.  1.
         23    2    1    0    0    0 -0.28089634895E+02 -0.43012038585E+01 -0.86669741998E+01  0.95290668386E+02  0.90540969161E+02 0.  0.
         13    1    3    3    0    0 -0.18149455562E+02 -0.37127197218E+02  0.24113584633E+02  0.47846709797E+02  0.10566000000E+00 0. -1.
         22    1    1    0    0    0  0.28089634895E+02  0.43012038585E+01  0.86669741998E+01  0.29709331614E+02  0.00000000000E+00 0. -1.
</event>
<event>
 5    1  0.1325686E-009  0.9118800E+02  0.7818608E-02  0.1130116E+00
         25   -1    0    0    0    0  0.00000000000E+00  0.00000000000E+00  0.99999998245E-14  0.12500000000E+03  0.12500000000E+03 0.  0.
        -13    1    3    3    0    0 -0.15653739361E+02  0.56711023686E+00  0.27952728707E+02  0.32042586915E+02  0.10566000000E+00 0. -1.
         23    2    1    0    0    0  0.28934927768E+02 -0.71760247409E+01 -0.12434335394E+02  0.92699255849E+02  0.86889665452E+02 0.  0.
         13    1    3    3    0    0  0.44588667128E+02 -0.77431349777E+01 -0.40387064101E+02  0.60656668935E+02  0.10566000000E+00 0.  1.
         22    1    1    0    0    0 -0.28934927768E+02  0.71760247409E+01  0.12434335394E+02  0.32300744151E+02  0.00000000000E+00 0.  1.
</event>
<event>
 5    1  0.1325686E-009  0.9118800E+02  0.7818608E-02  0.1130116E+00
         25   -1    0    0    0    0  0.00000000000E+00  0.00000000000E+00  0.99999998245E-14  0.12500000000E+03  0.12500000000E+03 0.  0.
        -13    1    3    3    0    0  0.39441947159E+02 -0.33251935972E+01 -0.98659191016E+01  0.40793034110E+02  0.10566000000E+00 0.  1.
         23    2    1    0    0    0 -0.52249320791E+01  0.78331725906E+01 -0.31832144688E+02  0.91804458981E+02  0.85592726007E+02 0.  0.
         13    1    3    3    0    0 -0.44666879238E+02  0.11158366188E+02 -0.21966225587E+02  0.51011424871E+02  0.10566000000E+00 0. -1.
         22    1    1    0    0    0  0.52249320791E+01 -0.78331725906E+01  0.31832144688E+02  0.33195541019E+02  0.00000000000E+00 0. -1.
</event>
<event>
 5    1  0.1325686E-009  0.9118800E+02  0.7818608E-02  0.1130116E+00
         25   -1    0    0    0    0  0.00000000000E+00  0.00000000000E+00  0.99999998245E-14  0.12500000000E+03  0.12500000000E+03 0.  0.
        -13    1    3    3    0    0 -0.16492437224E+02  0.45393260686E+02  0.12447953476E+02  0.49874956752E+02  0.10566000000E+00 0. -1.
         23    2    1    0    0    0  0.15301541133E+02  0.14625616457E+02  0.21272879940E+02  0.94990314251E+02  0.90125349169E+02 0.  0.
         13    1    3    3    0    0  0.31793978357E+02 -0.30767644228E+02  0.88249264638E+01  0.45115357499E+02  0.10566000000E+00 0.  1.
         22    1    1    0    0    0 -0.15301541133E+02 -0.14625616457E+02 -0.21272879940E+02  0.30009685749E+02  0.00000000000E+00 0. -1.
</event>
<event>
 5    1  0.1325686E-009  0.9118800E+02  0.7818608E-02  0.1130116E+00
         25   -1    0    0    0    0  0.00000000000E+00  0.00000000000E+00  0.99999998245E-14  0.12500000000E+03  0.12500000000E+03 0.  0.
        -13    1    3    3    0    0  0.36132509824E+02  0.76564598820E+01 -0.28043768860E+01  0.37041265338E+02  0.10566000000E+00 0.  1.
         23    2    1    0    0    0 -0.10154785575E+02 -0.27804311978E+02 -0.13362443109E+01  0.95369188612E+02  0.90649308619E+02 0.  0.
         13    1    3    3    0    0 -0.46287295399E+02 -0.35460771860E+02  0.14681325751E+01  0.58327923274E+02  0.10566000000E+00 0. -1.
         22    1    1    0    0    0  0.10154785575E+02  0.27804311978E+02  0.13362443109E+01  0.29630811388E+02  0.00000000000E+00 0. -1.
</event>
<event>
 5    1  0.1325686E-009  0.9118800E+02  0.7818608E-02  0.1130116E+00
         25   -1    0    0    0    0  0.00000000000E+00  0.00000000000E+00  0.99999998245E-14  0.12500000000E+03  0.12500000000E+03 0.  0.
        -13    1    3    3    0    0 -0.37951306217E+02 -0.67319829306E+01  0.18312434576E+02  0.42672914851E+02  0.10566000000E+00 0.  1.
         23    2    1    0    0    0 -0.65309623152E+00 -0.24680026347E+02 -0.15266500933E+02  0.95972490877E+02  0.91477443773E+02 0.  0.
         13    1    3    3    0    0  0.37298209985E+02 -0.17948043416E+02 -0.33578935509E+02  0.53299576026E+02  0.10566000000E+00 0. -1.
         22    1    1    0    0    0  0.65309623152E+00  0.24680026347E+02  0.15266500933E+02  0.29027509123E+02  0.00000000000E+00 0.  1.
</event>
<event>
 5    1  0.1325686E-009  0.9118800E+02  0.7818608E-02  0.1130116E+00
         25   -1    0    0    0    0  0.00000000000E+00  0.00000000000E+00  0.99999998245E-14  0.12500000000E+03  0.12500000000E+03 0.  0.
        -13    1    3    3    0    0 -0.96767343859E+00  0.29075712033E+02 -0.27190871548E+02  0.39820699161E+02  0.10566000000E+00 0.  1.
         23    2    1    0    0    0  0.16729587132E+02  0.12520986708E+02  0.22000525310E+02  0.94657335192E+02  0.89662332102E+02 0.  0.
         13    1    3    3    0    0  0.17697260570E+02 -0.16554725326E+02  0.49191396858E+02  0.54836636031E+02  0.10566000000E+00 0. -1.
         22    1    1    0    0    0 -0.16729587132E+02 -0.12520986708E+02 -0.22000525310E+02  0.30342664808E+02  0.00000000000E+00 0. -1.
</event>
<event>
 5    1  0.1325686E-009  0.9118800E+02  0.7818608E-02  0.1130116E+00
         25   -1    0    0    0    0  0.00000000000E+00  0.00000000000E+00  0.99999998245E-14  0.12500000000E+03  0.12500000000E+03 0.  0.
        -13    1    3    3    0    0 -0.57984884477E+02  0.95264532825E+01  0.12830504834E+02  0.60146763490E+02  0.10566000000E+00 0.  1.
         23    2    1    0    0    0 -0.24736063620E+02  0.15869986438E+02  0.26591642400E+01  0.95490671519E+02  0.90816671816E+02 0.  0.
         13    1    3    3    0    0  0.33248820857E+02  0.63435331555E+01 -0.10171340594E+02  0.35343908029E+02  0.10566000000E+00 0. -1.
         22    1    1    0    0    0  0.24736063620E+02 -0.15869986438E+02 -0.26591642400E+01  0.29509328481E+02  0.00000000000E+00 0.  1.
</event>
<event>
 5    1  0.1325686E-009  0.9118800E+02  0.7818608E-02  0.1130116E+00
         25   -1    0    0    0    0  0.00000000000E+00  0.00000000000E+00  0.99999998245E-14  0.12500000000E+03  0.12500000000E+03 0.  0.
        -13    1    3    3    0    0 -0.31514483961E+02  0.59476152549E+01  0.48042803088E+02  0.57763820157E+02  0.10566000000E+00 0.  1.
         23    2    1    0    0    0 -0.18404609863E+02 -0.13608710809E+02  0.18319305201E+02  0.95682366788E+02  0.91080138872E+02 0.  0.
         13    1    3    3    0    0  0.13109874098E+02 -0.19556326064E+02 -0.29723497887E+02  0.37918546631E+02  0.10566000000E+00 0. -1.
         22    1    1    0    0    0  0.18404609863E+02  0.13608710809E+02 -0.18319305201E+02  0.29317633212E+02  0.00000000000E+00 0.  1.
</event>
<event>
 5    1  0.1325686E-009  0.9118800E+02  0.7818608E-02  0.1130116E+00
         25   -1    0    0    0    0  0.00000000000E+00  0.00000000000E+00  0.99999998245E-14  0.12500000000E+03  0.12500000000E+03 0.  0.
        -13    1    3    3    0    0  0.39628993767E+01 -0.43447372316E+02 -0.10597056469E+02  0.44896408570E+02  0.10566000000E+00 0.  1.
         23    2    1    0    0    0 -0.28042813177E+02 -0.40064912975E+01 -0.58893837270E+00  0.96666306421E+02  0.92420650319E+02 0.  0.
         13    1    3    3    0    0 -0.32005712554E+02  0.39440881019E+02  0.10008118096E+02  0.51769897851E+02  0.10566000000E+00 0. -1.
         22    1    1    0    0    0  0.28042813177E+02  0.40064912975E+01  0.58893837270E+00  0.28333693579E+02  0.00000000000E+00 0. -1.
</event>
<event>
 5    1  0.1325686E-009  0.9118800E+02  0.7818608E-02  0.1130116E+00
         25   -1    0    0    0    0  0.00000000000E+00  0.00000000000E+00  0.99999998245E-14  0.12500000000E+03  0.12500000000E+03 0.  0.
        -13    1    3    3    0    0 -0.21842016641E+02 -0.39930355955E+02  0.40950518938E+02  0.61224694225E+02  0.10566000000E+00 0. -1.
         23    2    1    0    0    0 -0.90398117739E+01 -0.12476839281E+02  0.25443317019E+02  0.95255217326E+02  0.90492012529E+02 0.  0.
         13    1    3    3    0    0  0.12802204867E+02  0.27453516673E+02 -0.15507201919E+02  0.34030523102E+02  0.10566000000E+00 0.  1.
         22    1    1    0    0    0  0.90398117739E+01  0.12476839281E+02 -0.25443317019E+02  0.29744782674E+02  0.00000000000E+00 0. -1.
</event>
<event>
 5    1  0.1325686E-009  0.9118800E+02  0.7818608E-02  0.1130116E+00
         25   -1    0    0    0    0  0.00000000000E+00  0.00000000000E+00  0.99999998245E-14  0.12500000000E+03  0.12500000000E+03 0.  0.
        -13    1    3    3    0    0  0.26841157572E+02  0.25396040110E+02  0.41729907280E+02  0.55738702162E+02  0.10566000000E+00 0.  1.
         23    2    1    0    0    0  0.27512937848E+02  0.33991698353E+01  0.77636887078E+01  0.96211270140E+02  0.91803145562E+02 0.  0.
         13    1    3    3    0    0  0.67178027618E+00 -0.21996870275E+02 -0.33966218572E+02  0.40472567978E+02  0.10566000000E+00 0. -1.
         22    1    1    0    0    0 -0.27512937848E+02 -0.33991698353E+01 -0.77636887078E+01  0.28788729860E+02  0.00000000000E+00 0.  1.
</event>
<event>
 5    1  0.1325686E-009  0.9118800E+02  0.7818608E-02  0.1130116E+00
         25   -1    0    0    0    0  0.00000000000E+00  0.00000000000E+00  0.99999998245E-14  0.12500000000E+03  0.12500000000E+03 0.  0.
        -13    1    3    3    0    0 -0.20491325065E+02 -0.13273304911E+02 -0.43655920606E+02  0.50019252235E+02  0.10566000000E+00 0.  1.
         23    2    1    0    0    0 -0.19195388741E+02 -0.22934380023E+02  0.34865061184E+00  0.95090632016E+02  0.90264378378E+02 0.  0.
         13    1    3    3    0    0  0.12959363237E+01 -0.96610751116E+01  0.44004571217E+02  0.45071379781E+02  0.10566000000E+00 0. -1.
         22    1    1    0    0    0  0.19195388741E+02  0.22934380023E+02 -0.34865061184E+00  0.29909367984E+02  0.00000000000E+00 0.  1.
</event>
<event>
 5    1  0.1325686E-009  0.9118800E+02  0.7818608E-02  0.1130116E+00
         25   -1    0    0    0    0  0.00000000000E+00  0.00000000000E+00  0.99999998245E-14  0.12500000000E+03  0.12500000000E+03 0.  0.
        -13    1    3    3    0    0 -0.17993694415E+01 -0.50457720841E+01 -0.31431026033E+02  0.31884449310E+02  0.10566000000E+00 0.  1.
         23    2    1    0    0    0  0.80165339541E+01 -0.15860481169E+02  0.27311613428E+02  0.92415587966E+02  0.86480616276E+02 0.  0.
         13    1    3    3    0    0  0.98159033955E+01 -0.10814709085E+02  0.58742639461E+02  0.60531138656E+02  0.10566000000E+00 0. -1.
         22    1    1    0    0    0 -0.80165339541E+01  0.15860481169E+02 -0.27311613428E+02  0.32584412034E+02  0.00000000000E+00 0. -1.
</event>
<event>
 5    1  0.1325686E-009  0.9118800E+02  0.7818608E-02  0.1130116E+00
         25   -1    0    0    0    0  0.00000000000E+00  0.00000000000E+00  0.99999998245E-14  0.12500000000E+03  0.12500000000E+03 0.  0.
        -13    1    3    3    0    0  0.60724307824E+02 -0.10603748264E+02 -0.25329418560E+01  0.61695283422E+02  0.10566000000E+00 0.  1.
         23    2    1    0    0    0  0.28360354689E+02 -0.38216606247E+00  0.42907452514E+01  0.96314354395E+02  0.91943398886E+02 0.  0.
         13    1    3    3    0    0 -0.32363953136E+02  0.10221582201E+02  0.68236871075E+01  0.34619070973E+02  0.10566000000E+00 0. -1.
         22    1    1    0    0    0 -0.28360354689E+02  0.38216606247E+00 -0.42907452514E+01  0.28685645605E+02  0.00000000000E+00 0.  1.
</event>
<event>
 5    1  0.1325686E-009  0.9118800E+02  0.7818608E-02  0.1130116E+00
         25   -1    0    0    0    0  0.00000000000E+00  0.00000000000E+00  0.99999998245E-14  0.12500000000E+03  0.12500000000E+03 0.  0.
        -13    1    3    3    0    0  0.74146179205E+01 -0.13168509220E+02 -0.32976962783E+02  0.36275024912E+02  0.10566000000E+00 0.  1.
         23    2    1    0    0    0  0.47649047324E+01  0.25854045413E+02  0.12188854367E+02  0.96022350818E+02  0.91545549889E+02 0.  0.
         13    1    3    3    0    0 -0.26497131881E+01  0.39022554633E+02  0.45165817150E+02  0.59747325906E+02  0.10566000000E+00 0. -1.
         22    1    1    0    0    0 -0.47649047324E+01 -0.25854045413E+02 -0.12188854367E+02  0.28977649182E+02  0.00000000000E+00 0. -1.
</event>
<event>
 5    1  0.1325686E-009  0.9118800E+02  0.7818608E-02  0.1130116E+00
         25   -1    0    0    0    0  0.00000000000E+00  0.00000000000E+00  0.99999998245E-14  0.12500000000E+03  0.12500000000E+03 0.  0.
        -13    1    3    3    0    0  0.31868319304E+02  0.94081731584E+01 -0.16022600506E+02  0.36889543077E+02  0.10566000000E+00 0.  1.
         23    2    1    0    0    0 -0.15648893347E+02  0.13314004876E+02  0.19754233229E+02  0.96497713788E+02  0.92192344840E+02 0.  0.
         13    1    3    3    0    0 -0.47517212650E+02  0.39058317174E+01  0.35776833735E+02  0.59608170712E+02  0.10566000000E+00 0. -1.
         22    1    1    0    0    0  0.15648893347E+02 -0.13314004876E+02 -0.19754233229E+02  0.28502286212E+02  0.00000000000E+00 0. -1.
</event>
<event>
 5    1  0.1325686E-009  0.9118800E+02  0.7818608E-02  0.1130116E+00
         25   -1    0    0    0    0  0.00000000000E+00  0.00000000000E+00  0.99999998245E-14  0.12500000000E+03  0.12500000000E+03 0.  0.
        -13    1    3    3    0    0  0.25046036639E+01 -0.32719799210E+02 -0.41627077677E+02  0.53006443568E+02  0.10566000000E+00 0.  1.
         23    2    1    0    0    0  0.10038886654E+02 -0.27581370147E+02  0.28207782990E-01  0.95648474995E+02  0.91033613290E+02 0.  0.
         13    1    3    3    0    0  0.75342829905E+01  0.51384290627E+01  0.41655285460E+02  0.42642031426E+02  0.10566000000E+00 0. -1.
         22    1    1    0    0    0 -0.10038886654E+02  0.27581370147E+02 -0.28207782990E-01  0.29351525005E+02  0.00000000000E+00 0.  1.
</event>
<event>
 5    1  0.1325686E-009  0.9118800E+02  0.7818608E-02  0.1130116E+00
         25   -1    0    0    0    0  0.00000000000E+00  0.00000000000E+00  0.99999998245E-14  0.12500000000E+03  0.12500000000E+03 0.  0.
        -13    1    3    3    0    0 -0.33896295276E+02  0.23734912967E+02 -0.39539539696E+02  0.57233655225E+02  0.10566000000E+00 0.  1.
         23    2    1    0    0    0  0.23760556745E+00  0.19722666340E+02 -0.20617185796E+02  0.96467415572E+02  0.92151255515E+02 0.  0.
         13    1    3    3    0    0  0.34133900844E+02 -0.40122466265E+01  0.18922353900E+02  0.39233760347E+02  0.10566000000E+00 0. -1.
         22    1    1    0    0    0 -0.23760556745E+00 -0.19722666340E+02  0.20617185796E+02  0.28532584428E+02  0.00000000000E+00 0.  1.
</event>
<event>
 5    1  0.1325686E-009  0.9118800E+02  0.7818608E-02  0.1130116E+00
         25   -1    0    0    0    0  0.00000000000E+00  0.00000000000E+00  0.99999998245E-14  0.12500000000E+03  0.12500000000E+03 0.  0.
        -13    1    3    3    0    0 -0.10004211902E+02 -0.50723183567E+02  0.14510873006E+01  0.51720812303E+02  0.10566000000E+00 0.  1.
         23    2    1    0    0    0  0.20813027007E+02 -0.24429931342E+02  0.55221427401E+01  0.92434716353E+02  0.86508260231E+02 0.  0.
         13    1    3    3    0    0  0.30817238909E+02  0.26293252224E+02  0.40710554394E+01  0.40713904049E+02  0.10566000000E+00 0. -1.
         22    1    1    0    0    0 -0.20813027007E+02  0.24429931342E+02 -0.55221427401E+01  0.32565283647E+02  0.00000000000E+00 0. -1.
</event>
<event>
 5    1  0.1325686E-009  0.9118800E+02  0.7818608E-02  0.1130116E+00
         25   -1    0    0    0    0  0.00000000000E+00  0.00000000000E+00  0.99999998245E-14  0.12500000000E+03  0.12500000000E+03 0.  0.
        -13    1    3    3    0    0 -0.11647560903E+02 -0.50661594751E+01  0.35140524777E+02  0.37365750260E+02  0.10566000000E+00 0.  1.
         23    2    1    0    0    0  0.27933952828E+02 -0.12705811495E+02 -0.45956638145E+01  0.93969958231E+02  0.88698870104E+02 0.  0.
         13    1    3    3    0    0  0.39581513730E+02 -0.76396520194E+01 -0.39736188592E+02  0.56604207971E+02  0.10566000000E+00 0. -1.
         22    1    1    0    0    0 -0.27933952828E+02  0.12705811495E+02  0.45956638145E+01  0.31030041769E+02  0.00000000000E+00 0. -1.
</event>
<event>
 5    1  0.1325686E-009  0.9118800E+02  0.7818608E-02  0.1130116E+00
         25   -1    0    0    0    0  0.00000000000E+00  0.00000000000E+00  0.99999998245E-14  0.12500000000E+03  0.12500000000E+03 0.  0.
        -13    1    3    3    0    0 -0.47204838871E+01  0.26994337944E+02 -0.48578982543E+02  0.55775496036E+02  0.10566000000E+00 0.  1.
         23    2    1    0    0    0 -0.57337990168E+00  0.26719938386E+02 -0.72568988681E+01  0.97306201903E+02  0.93282101583E+02 0.  0.
         13    1    3    3    0    0  0.41471039855E+01 -0.27439955819E+00  0.41322083675E+02  0.41530705867E+02  0.10566000000E+00 0. -1.
         22    1    1    0    0    0  0.57337990168E+00 -0.26719938386E+02  0.72568988681E+01  0.27693798097E+02  0.00000000000E+00 0.  1.
</event>
<event>
 5    1  0.1325686E-009  0.9118800E+02  0.7818608E-02  0.1130116E+00
         25   -1    0    0    0    0  0.00000000000E+00  0.00000000000E+00  0.99999998245E-14  0.12500000000E+03  0.12500000000E+03 0.  0.
        -13    1    3    3    0    0  0.60799131959E+00  0.34449276481E+02 -0.16773374945E+02  0.38320746008E+02  0.10566000000E+00 0.  1.
         23    2    1    0    0    0 -0.19393446269E+02 -0.19011374214E+02 -0.11026671205E+02  0.95689155837E+02  0.91089455807E+02 0.  0.
         13    1    3    3    0    0 -0.20001437589E+02 -0.53460650695E+02  0.57467037401E+01  0.57368409829E+02  0.10566000000E+00 0. -1.
         22    1    1    0    0    0  0.19393446269E+02  0.19011374214E+02  0.11026671205E+02  0.29310844163E+02  0.00000000000E+00 0. -1.
</event>
<event>
 5    1  0.1325686E-009  0.9118800E+02  0.7818608E-02  0.1130116E+00
         25   -1    0    0    0    0  0.00000000000E+00  0.00000000000E+00  0.99999998245E-14  0.12500000000E+03  0.12500000000E+03 0.  0.
        -13    1    3    3    0    0  0.25404547328E+02  0.14169389954E+02  0.30958222904E+02  0.42480411557E+02  0.10566000000E+00 0.  1.
         23    2    1    0    0    0  0.33298790486E+02 -0.38965263769E+01 -0.11713520537E+02  0.89486637318E+02  0.82138050436E+02 0.  0.
         13    1    3    3    0    0  0.78942431577E+01 -0.18065916331E+02 -0.42671743441E+02  0.47006225761E+02  0.10566000000E+00 0. -1.
         22    1    1    0    0    0 -0.33298790486E+02  0.38965263769E+01  0.11713520537E+02  0.35513362682E+02  0.00000000000E+00 0.  1.
</event>
<event>
 5    1  0.1325686E-009  0.9118800E+02  0.7818608E-02  0.1130116E+00
         25   -1    0    0    0    0  0.00000000000E+00  0.00000000000E+00  0.99999998245E-14  0.12500000000E+03  0.12500000000E+03 0.  0.
        -13    1    3    3    0    0 -0.17257605675E+02 -0.30501874683E+02  0.14915717222E+02  0.38087781467E+02  0.10566000000E+00 0.  1.
         23    2    1    0    0    0 -0.44105551206E+01  0.26217495986E+02  0.10514884389E+02  0.96410266074E+02  0.92073701557E+02 0.  0.
         13    1    3    3    0    0  0.12847050554E+02  0.56719370669E+02 -0.44008328336E+01  0.58322484607E+02  0.10566000000E+00 0. -1.
         22    1    1    0    0    0  0.44105551206E+01 -0.26217495986E+02 -0.10514884389E+02  0.28589733926E+02  0.00000000000E+00 0. -1.
</event>
<event>
 5    1  0.1325686E-009  0.9118800E+02  0.7818608E-02  0.1130116E+00
         25   -1    0    0    0    0  0.00000000000E+00  0.00000000000E+00  0.99999998245E-14  0.12500000000E+03  0.12500000000E+03 0.  0.
        -13    1    3    3    0    0 -0.58225494946E+02  0.77228989241E+01  0.11307869793E+02  0.59814133052E+02  0.10566000000E+00 0.  1.
         23    2    1    0    0    0 -0.22148591154E+02  0.11175845414E+02  0.14615003163E+02  0.96206633953E+02  0.91796832670E+02 0.  0.
         13    1    3    3    0    0  0.36076903792E+02  0.34529464897E+01  0.33071333703E+01  0.36392500901E+02  0.10566000000E+00 0. -1.
         22    1    1    0    0    0  0.22148591154E+02 -0.11175845414E+02 -0.14615003163E+02  0.28793366047E+02  0.00000000000E+00 0.  1.
</event>
<event>
 5    1  0.1325686E-009  0.9118800E+02  0.7818608E-02  0.1130116E+00
         25   -1    0    0    0    0  0.00000000000E+00  0.00000000000E+00  0.99999998245E-14  0.12500000000E+03  0.12500000000E+03 0.  0.
        -13    1    3    3    0    0 -0.48786199405E+02 -0.30722813661E+02 -0.12902454119E+02  0.59080191418E+02  0.10566000000E+00 0. -1.
         23    2    1    0    0    0 -0.16253772358E+02 -0.25222017506E+02  0.12193160804E+01  0.94969648443E+02  0.90096682018E+02 0.  0.
         13    1    3    3    0    0  0.32532427047E+02  0.55007961550E+01  0.14121770200E+02  0.35889457024E+02  0.10566000000E+00 0.  1.
         22    1    1    0    0    0  0.16253772358E+02  0.25222017506E+02 -0.12193160804E+01  0.30030351557E+02  0.00000000000E+00 0. -1.
</event>
<event>
 5    1  0.1325686E-009  0.9118800E+02  0.7818608E-02  0.1130116E+00
         25   -1    0    0    0    0  0.00000000000E+00  0.00000000000E+00  0.99999998245E-14  0.12500000000E+03  0.12500000000E+03 0.  0.
        -13    1    3    3    0    0 -0.34285909411E+02  0.10900735131E+02  0.19950680149E+01  0.36032500204E+02  0.10566000000E+00 0.  1.
         23    2    1    0    0    0  0.24481534071E+02  0.12351376978E+02  0.10906907757E+02  0.95489617750E+02  0.90815221397E+02 0.  0.
         13    1    3    3    0    0  0.58767443482E+02  0.14506418472E+01  0.89118397424E+01  0.59457117546E+02  0.10566000000E+00 0. -1.
         22    1    1    0    0    0 -0.24481534071E+02 -0.12351376978E+02 -0.10906907757E+02  0.29510382250E+02  0.00000000000E+00 0. -1.
</event>
<event>
 5    1  0.1325686E-009  0.9118800E+02  0.7818608E-02  0.1130116E+00
         25   -1    0    0    0    0  0.00000000000E+00  0.00000000000E+00  0.99999998245E-14  0.12500000000E+03  0.12500000000E+03 0.  0.
        -13    1    3    3    0    0  0.29661686108E+02 -0.12432509393E+02 -0.13691372587E+02  0.34954938992E+02  0.10566000000E+00 0.  1.
         23    2    1    0    0    0 -0.24130934409E+02  0.15176783119E+02 -0.33530553202E+01  0.96296694942E+02  0.91919387158E+02 0.  0.
         13    1    3    3    0    0 -0.53792620517E+02  0.27609292512E+02  0.10338317267E+02  0.61341755950E+02  0.10566000000E+00 0. -1.
         22    1    1    0    0    0  0.24130934409E+02 -0.15176783119E+02  0.33530553202E+01  0.28703305058E+02  0.00000000000E+00 0. -1.
</event>
<event>
 5    1  0.1325686E-009  0.9118800E+02  0.7818608E-02  0.1130116E+00
         25   -1    0    0    0    0  0.00000000000E+00  0.00000000000E+00  0.99999998245E-14  0.12500000000E+03  0.12500000000E+03 0.  0.
        -13    1    3    3    0    0 -0.34987502307E+01 -0.39042157371E+02  0.16631482795E+02  0.42581083704E+02  0.10566000000E+00 0.  1.
         23    2    1    0    0    0  0.80760448042E+01  0.10963572293E+02  0.26829855573E+02  0.94912401771E+02  0.90017223034E+02 0.  0.
         13    1    3    3    0    0  0.11574795035E+02  0.50005729664E+02  0.10198372778E+02  0.52331318067E+02  0.10566000000E+00 0. -1.
         22    1    1    0    0    0 -0.80760448042E+01 -0.10963572293E+02 -0.26829855573E+02  0.30087598229E+02  0.00000000000E+00 0. -1.
</event>
<event>
 5    1  0.1325686E-009  0.9118800E+02  0.7818608E-02  0.1130116E+00
         25   -1    0    0    0    0  0.00000000000E+00  0.00000000000E+00  0.99999998245E-14  0.12500000000E+03  0.12500000000E+03 0.  0.
        -13    1    3    3    0    0  0.21740213251E+02 -0.87000597002E+00  0.33637143291E+02  0.40060733336E+02  0.10566000000E+00 0.  1.
         23    2    1    0    0    0  0.62973302248E+01  0.26511031635E+02 -0.11794769374E+02  0.95308119781E+02  0.90565059186E+02 0.  0.
         13    1    3    3    0    0 -0.15442883027E+02  0.27381037605E+02 -0.45431912665E+02  0.55247386445E+02  0.10566000000E+00 0. -1.
         22    1    1    0    0    0 -0.62973302248E+01 -0.26511031635E+02  0.11794769374E+02  0.29691880219E+02  0.00000000000E+00 0. -1.
</event>
<event>
 5    1  0.1325686E-009  0.9118800E+02  0.7818608E-02  0.1130116E+00
         25   -1    0    0    0    0  0.00000000000E+00  0.00000000000E+00  0.99999998245E-14  0.12500000000E+03  0.12500000000E+03 0.  0.
        -13    1    3    3    0    0 -0.68857491007E+01  0.22519724616E+02  0.47389808950E+02  0.52918396554E+02  0.10566000000E+00 0.  1.
         23    2    1    0    0    0 -0.20265071334E+02 -0.73214542122E+01  0.20532793308E+02  0.95236391197E+02  0.90466003555E+02 0.  0.
         13    1    3    3    0    0 -0.13379322234E+02 -0.29841178828E+02 -0.26857015642E+02  0.42317994642E+02  0.10566000000E+00 0. -1.
         22    1    1    0    0    0  0.20265071334E+02  0.73214542122E+01 -0.20532793308E+02  0.29763608803E+02  0.00000000000E+00 0.  1.
</event>
<event>
 5    1  0.1325686E-009  0.9118800E+02  0.7818608E-02  0.1130116E+00
         25   -1    0    0    0    0  0.00000000000E+00  0.00000000000E+00  0.99999998245E-14  0.12500000000E+03  0.12500000000E+03 0.  0.
        -13    1    3    3    0    0  0.13229865330E+02  0.20211223254E+02  0.23207782667E+02  0.33498286858E+02  0.10566000000E+00 0.  1.
         23    2    1    0    0    0 -0.22995910083E+02 -0.52781028061E+01 -0.19018464546E+02  0.94695342874E+02  0.89715303703E+02 0.  0.
         13    1    3    3    0    0 -0.36225775414E+02 -0.25489326060E+02 -0.42226247213E+02  0.61197056016E+02  0.10566000000E+00 0. -1.
         22    1    1    0    0    0  0.22995910083E+02  0.52781028061E+01  0.19018464546E+02  0.30304657126E+02  0.00000000000E+00 0. -1.
</event>
<event>
 5    1  0.1325686E-009  0.9118800E+02  0.7818608E-02  0.1130116E+00
         25   -1    0    0    0    0  0.00000000000E+00  0.00000000000E+00  0.99999998245E-14  0.12500000000E+03  0.12500000000E+03 0.  0.
        -13    1    3    3    0    0  0.47292482772E+02 -0.16045884827E+02  0.77927221918E+01  0.50544901125E+02  0.10566000000E+00 0. -1.
         23    2    1    0    0    0  0.35167331237E+02  0.10336555076E+02  0.21340238942E+02  0.82585481786E+02  0.70861628874E+02 0.  0.
         13    1    3    3    0    0 -0.12125151534E+02  0.26382439903E+02  0.13547516750E+02  0.32040580661E+02  0.10566000000E+00 0.  1.
         22    1    1    0    0    0 -0.35167331237E+02 -0.10336555076E+02 -0.21340238942E+02  0.42414518214E+02  0.00000000000E+00 0.  1.
</event>
<event>
 5    1  0.1325686E-009  0.9118800E+02  0.7818608E-02  0.1130116E+00
         25   -1    0    0    0    0  0.00000000000E+00  0.00000000000E+00  0.99999998245E-14  0.12500000000E+03  0.12500000000E+03 0.  0.
        -13    1    3    3    0    0 -0.46009962339E+02  0.13077344810E+02 -0.96482247530E+01  0.48795829603E+02  0.10566000000E+00 0. -1.
         23    2    1    0    0    0 -0.11566170661E+02  0.22508217691E+02  0.17988110085E+02  0.93952161560E+02  0.88673786374E+02 0.  0.
         13    1    3    3    0    0  0.34443791678E+02  0.94308728806E+01  0.27636334838E+02  0.45156331957E+02  0.10566000000E+00 0.  1.
         22    1    1    0    0    0  0.11566170661E+02 -0.22508217691E+02 -0.17988110085E+02  0.31047838440E+02  0.00000000000E+00 0. -1.
</event>
<event>
 5    1  0.1325686E-009  0.9118800E+02  0.7818608E-02  0.1130116E+00
         25   -1    0    0    0    0  0.00000000000E+00  0.00000000000E+00  0.99999998245E-14  0.12500000000E+03  0.12500000000E+03 0.  0.
        -13    1    3    3    0    0 -0.19773317283E+02 -0.27263702560E+02 -0.38232795502E+02  0.50951460917E+02  0.10566000000E+00 0. -1.
         23    2    1    0    0    0 -0.20624630877E+02  0.11732323992E+02 -0.19813531003E+02  0.94087238301E+02  0.88863994819E+02 0.  0.
         13    1    3    3    0    0 -0.85131359336E+00  0.38996026553E+02  0.18419264499E+02  0.43135777383E+02  0.10566000000E+00 0.  1.
         22    1    1    0    0    0  0.20624630877E+02 -0.11732323992E+02  0.19813531003E+02  0.30912761699E+02  0.00000000000E+00 0. -1.
</event>
<event>
 5    1  0.1325686E-009  0.9118800E+02  0.7818608E-02  0.1130116E+00
         25   -1    0    0    0    0  0.00000000000E+00  0.00000000000E+00  0.99999998245E-14  0.12500000000E+03  0.12500000000E+03 0.  0.
        -13    1    3    3    0    0 -0.47053517222E+02 -0.36647137897E+02  0.16342663625E+02  0.61839631446E+02  0.10566000000E+00 0.  1.
         23    2    1    0    0    0 -0.24208415354E+02 -0.15061866540E+02  0.19107304325E+01  0.96424519455E+02  0.92093050029E+02 0.  0.
         13    1    3    3    0    0  0.22845101868E+02  0.21585271357E+02 -0.14431933192E+02  0.34584888009E+02  0.10566000000E+00 0. -1.
         22    1    1    0    0    0  0.24208415354E+02  0.15061866540E+02 -0.19107304325E+01  0.28575480545E+02  0.00000000000E+00 0.  1.
</event>
<event>
 5    1  0.1325686E-009  0.9118800E+02  0.7818608E-02  0.1130116E+00
         25   -1    0    0    0    0  0.00000000000E+00  0.00000000000E+00  0.99999998245E-14  0.12500000000E+03  0.12500000000E+03 0.  0.
        -13    1    3    3    0    0 -0.40041479448E+02 -0.65704514230E+00 -0.27676685002E+02  0.48680199685E+02  0.10566000000E+00 0.  1.
         23    2    1    0    0    0 -0.22850112860E+02  0.81887875401E+01  0.15645977072E+02  0.96121279502E+02  0.91680531606E+02 0.  0.
         13    1    3    3    0    0  0.17191366588E+02  0.88458326824E+01  0.43322662073E+02  0.47441079817E+02  0.10566000000E+00 0. -1.
         22    1    1    0    0    0  0.22850112860E+02 -0.81887875401E+01 -0.15645977072E+02  0.28878720498E+02  0.00000000000E+00 0.  1.
</event>
<event>
 5    1  0.1325686E-009  0.9118800E+02  0.7818608E-02  0.1130116E+00
         25   -1    0    0    0    0  0.00000000000E+00  0.00000000000E+00  0.99999998245E-14  0.12500000000E+03  0.12500000000E+03 0.  0.
        -13    1    3    3    0    0  0.24560188719E+02  0.70543085970E+01  0.41768422653E+01  0.25892533963E+02  0.10566000000E+00 0.  1.
         23    2    1    0    0    0 -0.33530312453E+02 -0.34667397303E+01  0.18370120959E+02  0.86610398783E+02  0.77637617788E+02 0.  0.
         13    1    3    3    0    0 -0.58090501171E+02 -0.10521048327E+02  0.14193278694E+02  0.60717864820E+02  0.10566000000E+00 0. -1.
         22    1    1    0    0    0  0.33530312453E+02  0.34667397303E+01 -0.18370120959E+02  0.38389601217E+02  0.00000000000E+00 0. -1.
</event>
<event>
 5    1  0.1325686E-009  0.9118800E+02  0.7818608E-02  0.1130116E+00
         25   -1    0    0    0    0  0.00000000000E+00  0.00000000000E+00  0.99999998245E-14  0.12500000000E+03  0.12500000000E+03 0.  0.
        -13    1    3    3    0    0 -0.16875513015E+01  0.20612140914E+02  0.27286839527E+02  0.34238734758E+02  0.10566000000E+00 0. -1.
         23    2    1    0    0    0  0.15315004675E+02 -0.20954900904E+02 -0.14231097948E+02  0.95399638704E+02  0.90691287762E+02 0.  0.
         13    1    3    3    0    0  0.17002555976E+02 -0.41567041818E+02 -0.41517937475E+02  0.61160903945E+02  0.10566000000E+00 0.  1.
         22    1    1    0    0    0 -0.15315004675E+02  0.20954900904E+02  0.14231097948E+02  0.29600361296E+02  0.00000000000E+00 0.  1.
</event>
<event>
 5    1  0.1325686E-009  0.9118800E+02  0.7818608E-02  0.1130116E+00
         25   -1    0    0    0    0  0.00000000000E+00  0.00000000000E+00  0.99999998245E-14  0.12500000000E+03  0.12500000000E+03 0.  0.
        -13    1    3    3    0    0 -0.45420684959E+02  0.37524647100E+01 -0.35052973214E+01  0.45710150808E+02  0.10566000000E+00 0.  1.
         23    2    1    0    0    0  0.29267050689E+00  0.27131966079E+02 -0.63474961504E+01  0.97133892508E+02  0.93050916853E+02 0.  0.
         13    1    3    3    0    0  0.45713355466E+02  0.23379501369E+02 -0.28421988290E+01  0.51423741700E+02  0.10566000000E+00 0. -1.
         22    1    1    0    0    0 -0.29267050689E+00 -0.27131966079E+02  0.63474961504E+01  0.27866107492E+02  0.00000000000E+00 0. -1.
</event>
<event>
 5    1  0.1325686E-009  0.9118800E+02  0.7818608E-02  0.1130116E+00
         25   -1    0    0    0    0  0.00000000000E+00  0.00000000000E+00  0.99999998245E-14  0.12500000000E+03  0.12500000000E+03 0.  0.
        -13    1    3    3    0    0  0.10424184517E+02 -0.55295104757E+02 -0.98526473074E+01  0.57125283858E+02  0.10566000000E+00 0.  1.
         23    2    1    0    0    0 -0.90673339478E+01 -0.24912439234E+02 -0.16420334794E+02  0.93815491534E+02  0.88480918188E+02 0.  0.
         13    1    3    3    0    0 -0.19491518464E+02  0.30382665522E+02 -0.65676874867E+01  0.36690207675E+02  0.10566000000E+00 0. -1.
         22    1    1    0    0    0  0.90673339478E+01  0.24912439234E+02  0.16420334794E+02  0.31184508466E+02  0.00000000000E+00 0.  1.
</event>
<event>
 5    1  0.1325686E-009  0.9118800E+02  0.7818608E-02  0.1130116E+00
         25   -1    0    0    0    0  0.00000000000E+00  0.00000000000E+00  0.99999998245E-14  0.12500000000E+03  0.12500000000E+03 0.  0.
        -13    1    3    3    0    0  0.26556413925E+01 -0.13949913126E+02 -0.30591363211E+02  0.33726772371E+02  0.10566000000E+00 0.  1.
         23    2    1    0    0    0  0.13513450560E+02  0.22187158786E+02  0.16616658141E+02  0.94161765796E+02  0.88968766705E+02 0.  0.
         13    1    3    3    0    0  0.10857809167E+02  0.36137071912E+02  0.47208021352E+02  0.60434993425E+02  0.10566000000E+00 0. -1.
         22    1    1    0    0    0 -0.13513450560E+02 -0.22187158786E+02 -0.16616658141E+02  0.30838234204E+02  0.00000000000E+00 0. -1.
</event>
<event>
 5    1  0.1325686E-009  0.9118800E+02  0.7818608E-02  0.1130116E+00
         25   -1    0    0    0    0  0.00000000000E+00  0.00000000000E+00  0.99999998245E-14  0.12500000000E+03  0.12500000000E+03 0.  0.
        -13    1    3    3    0    0 -0.35783369887E+02  0.22435227156E+02 -0.93055583808E+01  0.43248046878E+02  0.10566000000E+00 0. -1.
         23    2    1    0    0    0 -0.14569040222E+02 -0.47136741696E+01  0.27412775299E+02  0.93600383652E+02  0.88176504314E+02 0.  0.
         13    1    3    3    0    0  0.21214329664E+02 -0.27148901325E+02  0.36718333680E+02  0.50352336774E+02  0.10566000000E+00 0.  1.
         22    1    1    0    0    0  0.14569040222E+02  0.47136741696E+01 -0.27412775299E+02  0.31399616348E+02  0.00000000000E+00 0. -1.
</event>
<event>
 5    1  0.1325686E-009  0.9118800E+02  0.7818608E-02  0.1130116E+00
         25   -1    0    0    0    0  0.00000000000E+00  0.00000000000E+00  0.99999998245E-14  0.12500000000E+03  0.12500000000E+03 0.  0.
        -13    1    3    3    0    0  0.51258920214E+01 -0.53840218868E+01  0.34687988645E+02  0.35475768927E+02  0.10566000000E+00 0. -1.
         23    2    1    0    0    0 -0.36938700982E+00  0.20402409809E+02 -0.20149649615E+02  0.96322427711E+02  0.91954374163E+02 0.  0.
         13    1    3    3    0    0 -0.54952790313E+01  0.25786431696E+02 -0.54837638260E+02  0.60846658784E+02  0.10566000000E+00 0.  1.
         22    1    1    0    0    0  0.36938700982E+00 -0.20402409809E+02  0.20149649615E+02  0.28677572289E+02  0.00000000000E+00 0.  1.
</event>
<event>
 5    1  0.1325686E-009  0.9118800E+02  0.7818608E-02  0.1130116E+00
         25   -1    0    0    0    0  0.00000000000E+00  0.00000000000E+00  0.99999998245E-14  0.12500000000E+03  0.12500000000E+03 0.  0.
        -13    1    3    3    0    0  0.88188554589E+01 -0.15857171045E+02  0.45331862526E+02  0.48828383234E+02  0.10566000000E+00 0. -1.
         23    2    1    0    0    0 -0.20074432907E+02 -0.21235060967E+02  0.11619521296E+02  0.93552838825E+02  0.88109078455E+02 0.  0.
         13    1    3    3    0    0 -0.28893288366E+02 -0.53778899222E+01 -0.33712341230E+02  0.44724455590E+02  0.10566000000E+00 0.  1.
         22    1    1    0    0    0  0.20074432907E+02  0.21235060967E+02 -0.11619521296E+02  0.31447161175E+02  0.00000000000E+00 0. -1.
</event>
<event>
 4    1  0.1325686E-009  0.9118800E+02  0.7818608E-02  0.1130116E+00
         25   -1    0    0    0    0  0.00000000000E+00  0.00000000000E+00  0.99999998245E-14  0.12500000000E+03  0.12500000000E+03 0.  0.
        -13    1    1    0    0    0  0.15050299203E+02 -0.17636105383E+02 -0.25307257793E+02  0.34322182044E+02  0.10566000000E+00 0.  1.
         13    1    1    0    0    0 -0.31702369762E+02 -0.22253349151E+02 -0.32521518107E+01  0.38869518294E+02  0.10566000000E+00 0. -1.
         22    1    1    0    0    0  0.16652070559E+02  0.39889454534E+02  0.28559409604E+02  0.51808299662E+02  0.00000000000E+00 0.  1.
</event>
<event>
 5    1  0.1325686E-009  0.9118800E+02  0.7818608E-02  0.1130116E+00
         25   -1    0    0    0    0  0.00000000000E+00  0.00000000000E+00  0.99999998245E-14  0.12500000000E+03  0.12500000000E+03 0.  0.
        -13    1    3    3    0    0 -0.18167293283E+02  0.64760292456E+00  0.40302349937E+02  0.44212673627E+02  0.10566000000E+00 0.  1.
         23    2    1    0    0    0  0.20909992197E+02  0.15967923736E+02  0.70484175965E+01  0.97762478953E+02  0.93891531771E+02 0.  0.
         13    1    3    3    0    0  0.39077285481E+02  0.15320320812E+02 -0.33253932340E+02  0.53549805326E+02  0.10566000000E+00 0. -1.
         22    1    1    0    0    0 -0.20909992197E+02 -0.15967923736E+02 -0.70484175965E+01  0.27237521047E+02  0.00000000000E+00 0. -1.
</event>
<event>
 5    1  0.1325686E-009  0.9118800E+02  0.7818608E-02  0.1130116E+00
         25   -1    0    0    0    0  0.00000000000E+00  0.00000000000E+00  0.99999998245E-14  0.12500000000E+03  0.12500000000E+03 0.  0.
        -13    1    3    3    0    0  0.13287187859E+02 -0.32141261381E+02 -0.47963421908E+02  0.59246190169E+02  0.10566000000E+00 0.  1.
         23    2    1    0    0    0 -0.43273709520E+01 -0.52268408562E+01 -0.25834395651E+02  0.98289290475E+02  0.94590288183E+02 0.  0.
         13    1    3    3    0    0 -0.17614558811E+02  0.26914420525E+02  0.22129026257E+02  0.39043100305E+02  0.10566000000E+00 0. -1.
         22    1    1    0    0    0  0.43273709520E+01  0.52268408562E+01  0.25834395651E+02  0.26710709525E+02  0.00000000000E+00 0.  1.
</event>
<event>
 5    1  0.1325686E-009  0.9118800E+02  0.7818608E-02  0.1130116E+00
         25   -1    0    0    0    0  0.00000000000E+00  0.00000000000E+00  0.99999998245E-14  0.12500000000E+03  0.12500000000E+03 0.  0.
        -13    1    3    3    0    0 -0.37328947292E+02 -0.17611106281E+02 -0.19134581097E+02  0.45494447224E+02  0.10566000000E+00 0.  1.
         23    2    1    0    0    0  0.60767915981E+01 -0.27799022120E+02  0.48693657857E+01  0.96130920518E+02  0.91693675516E+02 0.  0.
         13    1    3    3    0    0  0.43405738890E+02 -0.10187915839E+02  0.24003946882E+02  0.50636473295E+02  0.10566000000E+00 0. -1.
         22    1    1    0    0    0 -0.60767915981E+01  0.27799022120E+02 -0.48693657857E+01  0.28869079482E+02  0.00000000000E+00 0. -1.
</event>
<event>
 5    1  0.1325686E-009  0.9118800E+02  0.7818608E-02  0.1130116E+00
         25   -1    0    0    0    0  0.00000000000E+00  0.00000000000E+00  0.99999998245E-14  0.12500000000E+03  0.12500000000E+03 0.  0.
        -13    1    3    3    0    0 -0.22633348465E+02 -0.36331336801E+02  0.31731930213E+02  0.53283778541E+02  0.10566000000E+00 0.  1.
         23    2    1    0    0    0 -0.23176572979E+02 -0.10918339847E+02 -0.59129193154E+01  0.98706915455E+02  0.95140574224E+02 0.  0.
         13    1    3    3    0    0 -0.54322451444E+00  0.25412996954E+02 -0.37644849529E+02  0.45423136914E+02  0.10566000000E+00 0. -1.
         22    1    1    0    0    0  0.23176572979E+02  0.10918339847E+02  0.59129193154E+01  0.26293084545E+02  0.00000000000E+00 0.  1.
</event>
<event>
 5    1  0.1325686E-009  0.9118800E+02  0.7818608E-02  0.1130116E+00
         25   -1    0    0    0    0  0.00000000000E+00  0.00000000000E+00  0.99999998245E-14  0.12500000000E+03  0.12500000000E+03 0.  0.
        -13    1    3    3    0    0  0.13686723365E+02 -0.40611238322E+02 -0.19511572528E+02  0.47088339332E+02  0.10566000000E+00 0. -1.
         23    2    1    0    0    0 -0.10892221419E+02 -0.30405344090E+02  0.13929219991E+02  0.89826876650E+02  0.82654214426E+02 0.  0.
         13    1    3    3    0    0 -0.24578944784E+02  0.10205894232E+02  0.33440792519E+02  0.42738537318E+02  0.10566000000E+00 0.  1.
         22    1    1    0    0    0  0.10892221419E+02  0.30405344090E+02 -0.13929219991E+02  0.35173123350E+02  0.00000000000E+00 0. -1.
</event>
<event>
 5    1  0.1325686E-009  0.9118800E+02  0.7818608E-02  0.1130116E+00
         25   -1    0    0    0    0  0.00000000000E+00  0.00000000000E+00  0.99999998245E-14  0.12500000000E+03  0.12500000000E+03 0.  0.
        -13    1    3    3    0    0  0.59243097544E+02 -0.13579518888E+02 -0.79652940322E+01  0.61299306789E+02  0.10566000000E+00 0.  1.
         23    2    1    0    0    0  0.28847762645E+02  0.19463924277E+01 -0.58844887391E+01  0.95493914851E+02  0.90821135826E+02 0.  0.
         13    1    3    3    0    0 -0.30395334899E+02  0.15525911316E+02  0.20808052931E+01  0.34194608062E+02  0.10566000000E+00 0. -1.
         22    1    1    0    0    0 -0.28847762645E+02 -0.19463924277E+01  0.58844887391E+01  0.29506085149E+02  0.00000000000E+00 0.  1.
</event>
<event>
 5    1  0.1325686E-009  0.9118800E+02  0.7818608E-02  0.1130116E+00
         25   -1    0    0    0    0  0.00000000000E+00  0.00000000000E+00  0.99999998245E-14  0.12500000000E+03  0.12500000000E+03 0.  0.
        -13    1    3    3    0    0 -0.65222795239E+01 -0.54101575627E+02 -0.14682856050E+02  0.56436850030E+02  0.10566000000E+00 0. -1.
         23    2    1    0    0    0 -0.11964689822E+02 -0.14903700677E+02 -0.21103549735E+02  0.96528366612E+02  0.92233896442E+02 0.  0.
         13    1    3    3    0    0 -0.54424102979E+01  0.39197874949E+02 -0.64206936849E+01  0.40091516582E+02  0.10566000000E+00 0.  1.
         22    1    1    0    0    0  0.11964689822E+02  0.14903700677E+02  0.21103549735E+02  0.28471633388E+02  0.00000000000E+00 0.  1.
</event>
<event>
 5    1  0.1325686E-009  0.9118800E+02  0.7818608E-02  0.1130116E+00
         25   -1    0    0    0    0  0.00000000000E+00  0.00000000000E+00  0.99999998245E-14  0.12500000000E+03  0.12500000000E+03 0.  0.
        -13    1    3    3    0    0 -0.51293742556E+02  0.28525388601E+02  0.17605271195E+02  0.61275627767E+02  0.10566000000E+00 0. -1.
         23    2    1    0    0    0 -0.28508856460E+02  0.15604884868E+02  0.62077847687E+00  0.92493805293E+02  0.86593598627E+02 0.  0.
         13    1    3    3    0    0  0.22784886096E+02 -0.12920503733E+02 -0.16984492718E+02  0.31218177526E+02  0.10566000000E+00 0.  1.
         22    1    1    0    0    0  0.28508856460E+02 -0.15604884868E+02 -0.62077847687E+00  0.32506194707E+02  0.00000000000E+00 0. -1.
</event>
<event>
 5    1  0.1325686E-009  0.9118800E+02  0.7818608E-02  0.1130116E+00
         25   -1    0    0    0    0  0.00000000000E+00  0.00000000000E+00  0.99999998245E-14  0.12500000000E+03  0.12500000000E+03 0.  0.
        -13    1    3    3    0    0 -0.23717289514E+02 -0.23914118133E+02  0.94943700397E+01  0.34993557900E+02  0.10566000000E+00 0.  1.
         23    2    1    0    0    0  0.41536290677E+01  0.29148745216E+02  0.90661524424E+00  0.95542845805E+02  0.90888456094E+02 0.  0.
         13    1    3    3    0    0  0.27870918582E+02  0.53062863349E+02 -0.85877547954E+01  0.60549287905E+02  0.10566000000E+00 0. -1.
         22    1    1    0    0    0 -0.41536290677E+01 -0.29148745216E+02 -0.90661524424E+00  0.29457154195E+02  0.00000000000E+00 0. -1.
</event>
<event>
 5    1  0.1325686E-009  0.9118800E+02  0.7818608E-02  0.1130116E+00
         25   -1    0    0    0    0  0.00000000000E+00  0.00000000000E+00  0.99999998245E-14  0.12500000000E+03  0.12500000000E+03 0.  0.
        -13    1    3    3    0    0  0.60055019152E+01 -0.10309646943E+02  0.58916195658E+02  0.60112262877E+02  0.10566000000E+00 0. -1.
         23    2    1    0    0    0  0.13881837975E+02 -0.30134802721E+00  0.24082003538E+02  0.97201814257E+02  0.93142114880E+02 0.  0.
         13    1    3    3    0    0  0.78763360601E+01  0.10008298916E+02 -0.34834192120E+02  0.37089551380E+02  0.10566000000E+00 0.  1.
         22    1    1    0    0    0 -0.13881837975E+02  0.30134802721E+00 -0.24082003538E+02  0.27798185743E+02  0.00000000000E+00 0. -1.
</event>
<event>
 5    1  0.1325686E-009  0.9118800E+02  0.7818608E-02  0.1130116E+00
         25   -1    0    0    0    0  0.00000000000E+00  0.00000000000E+00  0.99999998245E-14  0.12500000000E+03  0.12500000000E+03 0.  0.
        -13    1    3    3    0    0 -0.14057228248E+02  0.46496222469E+02  0.53372132116E+01  0.48867181000E+02  0.10566000000E+00 0. -1.
         23    2    1    0    0    0 -0.23587137367E+02  0.26693040446E+01  0.17698503054E+02  0.95390622371E+02  0.90678859679E+02 0.  0.
         13    1    3    3    0    0 -0.95299091188E+01 -0.43826918425E+02  0.12361289842E+02  0.46523441371E+02  0.10566000000E+00 0.  1.
         22    1    1    0    0    0  0.23587137367E+02 -0.26693040446E+01 -0.17698503054E+02  0.29609377629E+02  0.00000000000E+00 0. -1.
</event>
<event>
 5    1  0.1325686E-009  0.9118800E+02  0.7818608E-02  0.1130116E+00
         25   -1    0    0    0    0  0.00000000000E+00  0.00000000000E+00  0.99999998245E-14  0.12500000000E+03  0.12500000000E+03 0.  0.
        -13    1    3    3    0    0  0.15429339663E+02  0.20055603617E+02  0.20017120179E+02  0.32264346006E+02  0.10566000000E+00 0.  1.
         23    2    1    0    0    0  0.15159241613E+02 -0.32677126334E+02  0.17223945606E+02  0.85071795758E+02  0.75119564292E+02 0.  0.
         13    1    3    3    0    0 -0.27009805008E+00 -0.52732729951E+02 -0.27931745730E+01  0.52807449752E+02  0.10566000000E+00 0. -1.
         22    1    1    0    0    0 -0.15159241613E+02  0.32677126334E+02 -0.17223945606E+02  0.39928204242E+02  0.00000000000E+00 0. -1.
</event>
<event>
 5    1  0.1325686E-009  0.9118800E+02  0.7818608E-02  0.1130116E+00
         25   -1    0    0    0    0  0.00000000000E+00  0.00000000000E+00  0.99999998245E-14  0.12500000000E+03  0.12500000000E+03 0.  0.
        -13    1    3    3    0    0 -0.23541463435E+02  0.42514859142E+01 -0.54301779011E+02  0.59337762015E+02  0.10566000000E+00 0.  1.
         23    2    1    0    0    0  0.17807571883E+01 -0.53046892719E+01 -0.25629549471E+02  0.98766726652E+02  0.95219124461E+02 0.  0.
         13    1    3    3    0    0  0.25322220624E+02 -0.95561751861E+01  0.28672229540E+02  0.39428964637E+02  0.10566000000E+00 0. -1.
         22    1    1    0    0    0 -0.17807571883E+01  0.53046892719E+01  0.25629549471E+02  0.26233273348E+02  0.00000000000E+00 0.  1.
</event>
<event>
 5    1  0.1325686E-009  0.9118800E+02  0.7818608E-02  0.1130116E+00
         25   -1    0    0    0    0  0.00000000000E+00  0.00000000000E+00  0.99999998245E-14  0.12500000000E+03  0.12500000000E+03 0.  0.
        -13    1    3    3    0    0  0.12800564413E+02 -0.18068013646E+02  0.38922427276E+02  0.44780286684E+02  0.10566000000E+00 0. -1.
         23    2    1    0    0    0 -0.26525205574E+02 -0.93856353522E+01  0.74458700031E+01  0.95894714195E+02  0.91371103467E+02 0.  0.
         13    1    3    3    0    0 -0.39325769987E+02  0.86823782939E+01 -0.31476557273E+02  0.51114427511E+02  0.10566000000E+00 0.  1.
         22    1    1    0    0    0  0.26525205574E+02  0.93856353522E+01 -0.74458700031E+01  0.29105285805E+02  0.00000000000E+00 0. -1.
</event>
<event>
 5    1  0.1325686E-009  0.9118800E+02  0.7818608E-02  0.1130116E+00
         25   -1    0    0    0    0  0.00000000000E+00  0.00000000000E+00  0.99999998245E-14  0.12500000000E+03  0.12500000000E+03 0.  0.
        -13    1    3    3    0    0  0.16809842974E+02 -0.29361517652E+02 -0.95889823559E+01  0.35165740235E+02  0.10566000000E+00 0. -1.
         23    2    1    0    0    0  0.45777576341E+01  0.26199395630E+02 -0.18294008761E+02  0.92719433820E+02  0.86918688756E+02 0.  0.
         13    1    3    3    0    0 -0.12232085340E+02  0.55560913282E+02 -0.87050264050E+01  0.57553693585E+02  0.10566000000E+00 0.  1.
         22    1    1    0    0    0 -0.45777576341E+01 -0.26199395630E+02  0.18294008761E+02  0.32280566180E+02  0.00000000000E+00 0.  1.
</event>
<event>
 5    1  0.1325686E-009  0.9118800E+02  0.7818608E-02  0.1130116E+00
         25   -1    0    0    0    0  0.00000000000E+00  0.00000000000E+00  0.99999998245E-14  0.12500000000E+03  0.12500000000E+03 0.  0.
        -13    1    3    3    0    0  0.32321102687E+02 -0.30879231353E+02 -0.42035149197E+02  0.61360781774E+02  0.10566000000E+00 0.  1.
         23    2    1    0    0    0  0.87273327582E+01 -0.16596416809E+02 -0.24894906095E+02  0.93833291200E+02  0.88506060809E+02 0.  0.
         13    1    3    3    0    0 -0.23593769929E+02  0.14282814544E+02  0.17140243102E+02  0.32472509426E+02  0.10566000000E+00 0. -1.
         22    1    1    0    0    0 -0.87273327582E+01  0.16596416809E+02  0.24894906095E+02  0.31166708800E+02  0.00000000000E+00 0.  1.
</event>
<event>
 5    1  0.1325686E-009  0.9118800E+02  0.7818608E-02  0.1130116E+00
         25   -1    0    0    0    0  0.00000000000E+00  0.00000000000E+00  0.99999998245E-14  0.12500000000E+03  0.12500000000E+03 0.  0.
        -13    1    3    3    0    0 -0.39921325682E+02  0.16224401985E+02 -0.11195328527E+02  0.44522915547E+02  0.10566000000E+00 0.  1.
         23    2    1    0    0    0  0.86135237418E+01  0.28170713652E+02 -0.72554337483E+01  0.94661522487E+02  0.89668169502E+02 0.  0.
         13    1    3    3    0    0  0.48534849424E+02  0.11946311667E+02  0.39398947785E+01  0.50138606940E+02  0.10566000000E+00 0. -1.
         22    1    1    0    0    0 -0.86135237418E+01 -0.28170713652E+02  0.72554337483E+01  0.30338477513E+02  0.00000000000E+00 0. -1.
</event>
<event>
 5    1  0.1325686E-009  0.9118800E+02  0.7818608E-02  0.1130116E+00
         25   -1    0    0    0    0  0.00000000000E+00  0.00000000000E+00  0.99999998245E-14  0.12500000000E+03  0.12500000000E+03 0.  0.
        -13    1    3    3    0    0  0.29508773802E+02  0.23689674299E+02  0.34449067097E+02  0.51173408989E+02  0.10566000000E+00 0. -1.
         23    2    1    0    0    0  0.13198116309E+02  0.26005657001E+02 -0.63328641236E+01  0.95157251498E+02  0.90356587334E+02 0.  0.
         13    1    3    3    0    0 -0.16310657493E+02  0.23159827015E+01 -0.40781931221E+02  0.43983842509E+02  0.10566000000E+00 0.  1.
         22    1    1    0    0    0 -0.13198116309E+02 -0.26005657001E+02  0.63328641236E+01  0.29842748502E+02  0.00000000000E+00 0. -1.
</event>
<event>
 5    1  0.1325686E-009  0.9118800E+02  0.7818608E-02  0.1130116E+00
         25   -1    0    0    0    0  0.00000000000E+00  0.00000000000E+00  0.99999998245E-14  0.12500000000E+03  0.12500000000E+03 0.  0.
        -13    1    3    3    0    0 -0.32942831299E+02  0.22628359906E+02  0.23918130402E+02  0.46576398873E+02  0.10566000000E+00 0.  1.
         23    2    1    0    0    0 -0.41996343753E+01  0.25814255672E+02 -0.14835942429E+02  0.94931446451E+02  0.90043665034E+02 0.  0.
         13    1    3    3    0    0  0.28743196923E+02  0.31858957662E+01 -0.38754072831E+02  0.48355047578E+02  0.10566000000E+00 0. -1.
         22    1    1    0    0    0  0.41996343753E+01 -0.25814255672E+02  0.14835942429E+02  0.30068553549E+02  0.00000000000E+00 0. -1.
</event>
<event>
 5    1  0.1325686E-009  0.9118800E+02  0.7818608E-02  0.1130116E+00
         25   -1    0    0    0    0  0.00000000000E+00  0.00000000000E+00  0.99999998245E-14  0.12500000000E+03  0.12500000000E+03 0.  0.
        -13    1    3    3    0    0 -0.25286741065E+02 -0.87300243713E+01  0.26185339026E+02  0.37434152097E+02  0.10566000000E+00 0. -1.
         23    2    1    0    0    0  0.12788592316E+02  0.26715908806E+02  0.67485727548E+00  0.95373266986E+02  0.90654932278E+02 0.  0.
         13    1    3    3    0    0  0.38075333381E+02  0.35445933178E+02 -0.25510481751E+02  0.57939114889E+02  0.10566000000E+00 0.  1.
         22    1    1    0    0    0 -0.12788592316E+02 -0.26715908806E+02 -0.67485727548E+00  0.29626733014E+02  0.00000000000E+00 0.  1.
</event>
<event>
 5    1  0.1325686E-009  0.9118800E+02  0.7818608E-02  0.1130116E+00
         25   -1    0    0    0    0  0.00000000000E+00  0.00000000000E+00  0.99999998245E-14  0.12500000000E+03  0.12500000000E+03 0.  0.
        -13    1    3    3    0    0 -0.30708604920E+01  0.42869921746E+02  0.20948299461E+02  0.47813207265E+02  0.10566000000E+00 0.  1.
         23    2    1    0    0    0  0.67934948486E+01  0.18654125298E+02 -0.20271063648E+02  0.96626702971E+02  0.92367070663E+02 0.  0.
         13    1    3    3    0    0  0.98643553405E+01 -0.24215796448E+02 -0.41219363109E+02  0.48813495706E+02  0.10566000000E+00 0. -1.
         22    1    1    0    0    0 -0.67934948486E+01 -0.18654125298E+02  0.20271063648E+02  0.28373297029E+02  0.00000000000E+00 0.  1.
</event>
<event>
 5    1  0.1325686E-009  0.9118800E+02  0.7818608E-02  0.1130116E+00
         25   -1    0    0    0    0  0.00000000000E+00  0.00000000000E+00  0.99999998245E-14  0.12500000000E+03  0.12500000000E+03 0.  0.
        -13    1    3    3    0    0  0.15238506885E+02 -0.86443191194E+01  0.31365664759E+02  0.35927043226E+02  0.10566000000E+00 0. -1.
         23    2    1    0    0    0 -0.19073483740E+02 -0.77287406463E+01 -0.19075585067E+02  0.96939188187E+02  0.92788992055E+02 0.  0.
         13    1    3    3    0    0 -0.34311990626E+02  0.91557847317E+00 -0.50441249826E+02  0.61012144961E+02  0.10566000000E+00 0.  1.
         22    1    1    0    0    0  0.19073483740E+02  0.77287406463E+01  0.19075585067E+02  0.28060811813E+02  0.00000000000E+00 0.  1.
</event>
<event>
 5    1  0.1325686E-009  0.9118800E+02  0.7818608E-02  0.1130116E+00
         25   -1    0    0    0    0  0.00000000000E+00  0.00000000000E+00  0.99999998245E-14  0.12500000000E+03  0.12500000000E+03 0.  0.
        -13    1    3    3    0    0 -0.72010062296E+00  0.51838867034E+02 -0.18275265604E+02  0.54970748378E+02  0.10566000000E+00 0.  1.
         23    2    1    0    0    0 -0.19611101546E+02  0.14453698158E+02 -0.13549441527E+02  0.97123629003E+02  0.93037128345E+02 0.  0.
         13    1    3    3    0    0 -0.18891000923E+02 -0.37385168876E+02  0.47258240764E+01  0.42152880625E+02  0.10566000000E+00 0. -1.
         22    1    1    0    0    0  0.19611101546E+02 -0.14453698158E+02  0.13549441527E+02  0.27876370997E+02  0.00000000000E+00 0.  1.
</event>
<event>
 5    1  0.1325686E-009  0.9118800E+02  0.7818608E-02  0.1130116E+00
         25   -1    0    0    0    0  0.00000000000E+00  0.00000000000E+00  0.99999998245E-14  0.12500000000E+03  0.12500000000E+03 0.  0.
        -13    1    3    3    0    0 -0.23126867128E+02 -0.27000869855E+02 -0.12941186405E+02  0.37833641455E+02  0.10566000000E+00 0. -1.
         23    2    1    0    0    0 -0.17281818445E+01 -0.31842514159E+01  0.31879238380E+02  0.92915550351E+02  0.87200272866E+02 0.  0.
         13    1    3    3    0    0  0.21398685284E+02  0.23816618439E+02  0.44820424785E+02  0.55081908897E+02  0.10566000000E+00 0.  1.
         22    1    1    0    0    0  0.17281818445E+01  0.31842514159E+01 -0.31879238380E+02  0.32084449649E+02  0.00000000000E+00 0.  1.
</event>
<event>
 5    1  0.1325686E-009  0.9118800E+02  0.7818608E-02  0.1130116E+00
         25   -1    0    0    0    0  0.00000000000E+00  0.00000000000E+00  0.99999998245E-14  0.12500000000E+03  0.12500000000E+03 0.  0.
        -13    1    3    3    0    0  0.42371270973E+02  0.15486076515E+02  0.72086019154E+01  0.45684989606E+02  0.10566000000E+00 0.  1.
         23    2    1    0    0    0 -0.63635280215E+01  0.11517731066E+02  0.24203709847E+02  0.97450550130E+02  0.93475331144E+02 0.  0.
         13    1    3    3    0    0 -0.48734798995E+02 -0.39683454489E+01  0.16995107931E+02  0.51765560523E+02  0.10566000000E+00 0. -1.
         22    1    1    0    0    0  0.63635280215E+01 -0.11517731066E+02 -0.24203709847E+02  0.27549449870E+02  0.00000000000E+00 0. -1.
</event>
<event>
 5    1  0.1325686E-009  0.9118800E+02  0.7818608E-02  0.1130116E+00
         25   -1    0    0    0    0  0.00000000000E+00  0.00000000000E+00  0.99999998245E-14  0.12500000000E+03  0.12500000000E+03 0.  0.
        -13    1    3    3    0    0 -0.32372523791E+02 -0.39882276262E+02  0.16912553196E+02  0.54079773262E+02  0.10566000000E+00 0.  1.
         23    2    1    0    0    0 -0.10396313785E+02 -0.22850071505E+02 -0.14483559239E+02  0.96017546751E+02  0.91538989987E+02 0.  0.
         13    1    3    3    0    0  0.21976210006E+02  0.17032204757E+02 -0.31396112435E+02  0.41937773489E+02  0.10566000000E+00 0. -1.
         22    1    1    0    0    0  0.10396313785E+02  0.22850071505E+02  0.14483559239E+02  0.28982453249E+02  0.00000000000E+00 0.  1.
</event>
<event>
 5    1  0.1325686E-009  0.9118800E+02  0.7818608E-02  0.1130116E+00
         25   -1    0    0    0    0  0.00000000000E+00  0.00000000000E+00  0.99999998245E-14  0.12500000000E+03  0.12500000000E+03 0.  0.
        -13    1    3    3    0    0 -0.15762726131E+00 -0.22600788777E+02  0.26212748719E+02  0.34611267806E+02  0.10566000000E+00 0. -1.
         23    2    1    0    0    0 -0.11926535220E+02  0.38449369941E+01 -0.27025884292E+02  0.95210333929E+02  0.90429992161E+02 0.  0.
         13    1    3    3    0    0 -0.11768907958E+02  0.26445725771E+02 -0.53238633011E+02  0.60599066123E+02  0.10566000000E+00 0.  1.
         22    1    1    0    0    0  0.11926535220E+02 -0.38449369941E+01  0.27025884292E+02  0.29789666071E+02  0.00000000000E+00 0.  1.
</event>
<event>
 5    1  0.1325686E-009  0.9118800E+02  0.7818608E-02  0.1130116E+00
         25   -1    0    0    0    0  0.00000000000E+00  0.00000000000E+00  0.99999998245E-14  0.12500000000E+03  0.12500000000E+03 0.  0.
        -13    1    3    3    0    0 -0.64910359444E+01  0.33304477043E+02  0.20612463265E+02  0.39701467790E+02  0.10566000000E+00 0.  1.
         23    2    1    0    0    0 -0.14158154174E+02  0.43162768535E+01 -0.25974537715E+02  0.95104177800E+02  0.90283134915E+02 0.  0.
         13    1    3    3    0    0 -0.76671182293E+01 -0.28988200190E+02 -0.46587000980E+02  0.55402710011E+02  0.10566000000E+00 0. -1.
         22    1    1    0    0    0  0.14158154174E+02 -0.43162768535E+01  0.25974537715E+02  0.29895822200E+02  0.00000000000E+00 0.  1.
</event>
<event>
 5    1  0.1325686E-009  0.9118800E+02  0.7818608E-02  0.1130116E+00
         25   -1    0    0    0    0  0.00000000000E+00  0.00000000000E+00  0.99999998245E-14  0.12500000000E+03  0.12500000000E+03 0.  0.
        -13    1    3    3    0    0 -0.29766583896E+02 -0.51847763898E+02  0.12199396987E+02  0.61017018847E+02  0.10566000000E+00 0.  1.
         23    2    1    0    0    0 -0.25092806477E+02 -0.25242837981E+02  0.43791487728E+01  0.89138784875E+02  0.81606961828E+02 0.  0.
         13    1    3    3    0    0  0.46737774188E+01  0.26604925917E+02 -0.78202482143E+01  0.28121766029E+02  0.10566000000E+00 0. -1.
         22    1    1    0    0    0  0.25092806477E+02  0.25242837981E+02 -0.43791487728E+01  0.35861215125E+02  0.00000000000E+00 0.  1.
</event>
<event>
 5    1  0.1325686E-009  0.9118800E+02  0.7818608E-02  0.1130116E+00
         25   -1    0    0    0    0  0.00000000000E+00  0.00000000000E+00  0.99999998245E-14  0.12500000000E+03  0.12500000000E+03 0.  0.
        -13    1    3    3    0    0 -0.48775608003E+02 -0.10730544198E+02 -0.21977344906E+02  0.54563901693E+02  0.10566000000E+00 0. -1.
         23    2    1    0    0    0 -0.14172602664E+02  0.98465025401E+01 -0.24647612630E+02  0.94911445915E+02  0.90015895701E+02 0.  0.
         13    1    3    3    0    0  0.34603005339E+02  0.20577046738E+02 -0.26702677247E+01  0.40347544222E+02  0.10566000000E+00 0.  1.
         22    1    1    0    0    0  0.14172602664E+02 -0.98465025401E+01  0.24647612630E+02  0.30088554085E+02  0.00000000000E+00 0. -1.
</event>
<event>
 5    1  0.1325686E-009  0.9118800E+02  0.7818608E-02  0.1130116E+00
         25   -1    0    0    0    0  0.00000000000E+00  0.00000000000E+00  0.99999998245E-14  0.12500000000E+03  0.12500000000E+03 0.  0.
        -13    1    3    3    0    0 -0.74767026651E+01  0.30801685394E+02  0.14793934750E+02  0.34978801799E+02  0.10566000000E+00 0. -1.
         23    2    1    0    0    0  0.63255495540E+01 -0.13181025153E+02 -0.25106824757E+02  0.95946520852E+02  0.91441949963E+02 0.  0.
         13    1    3    3    0    0  0.13802252219E+02 -0.43982710547E+02 -0.39900759506E+02  0.60967719053E+02  0.10566000000E+00 0.  1.
         22    1    1    0    0    0 -0.63255495540E+01  0.13181025153E+02  0.25106824757E+02  0.29053479148E+02  0.00000000000E+00 0.  1.
</event>
<event>
 5    1  0.1325686E-009  0.9118800E+02  0.7818608E-02  0.1130116E+00
         25   -1    0    0    0    0  0.00000000000E+00  0.00000000000E+00  0.99999998245E-14  0.12500000000E+03  0.12500000000E+03 0.  0.
        -13    1    3    3    0    0 -0.12909864351E+02  0.47281263877E+02  0.26905658590E+02  0.55911610060E+02  0.10566000000E+00 0.  1.
         23    2    1    0    0    0 -0.70368991480E+01  0.24215243459E+02 -0.83382977847E+01  0.98440196248E+02  0.94789498691E+02 0.  0.
         13    1    3    3    0    0  0.58729652029E+01 -0.23066020418E+02 -0.35243956375E+02  0.42528586188E+02  0.10566000000E+00 0. -1.
         22    1    1    0    0    0  0.70368991480E+01 -0.24215243459E+02  0.83382977847E+01  0.26559803752E+02  0.00000000000E+00 0.  1.
</event>
<event>
 5    1  0.1325686E-009  0.9118800E+02  0.7818608E-02  0.1130116E+00
         25   -1    0    0    0    0  0.00000000000E+00  0.00000000000E+00  0.99999998245E-14  0.12500000000E+03  0.12500000000E+03 0.  0.
        -13    1    3    3    0    0  0.53045820673E+02  0.14408148214E+02  0.88383531124E+01  0.55673885042E+02  0.10566000000E+00 0. -1.
         23    2    1    0    0    0  0.26129878046E+02 -0.48365962534E+01 -0.13098356916E+02  0.95373489171E+02  0.90655238639E+02 0.  0.
         13    1    3    3    0    0 -0.26915942628E+02 -0.19244744467E+02 -0.21936710028E+02  0.39699604129E+02  0.10566000000E+00 0.  1.
         22    1    1    0    0    0 -0.26129878046E+02  0.48365962534E+01  0.13098356916E+02  0.29626510829E+02  0.00000000000E+00 0. -1.
</event>
<event>
 5    1  0.1325686E-009  0.9118800E+02  0.7818608E-02  0.1130116E+00
         25   -1    0    0    0    0  0.00000000000E+00  0.00000000000E+00  0.99999998245E-14  0.12500000000E+03  0.12500000000E+03 0.  0.
        -13    1    3    3    0    0 -0.14680891183E+01 -0.44420952482E+02 -0.25236875665E+02  0.51110540619E+02  0.10566000000E+00 0. -1.
         23    2    1    0    0    0 -0.25414553905E+02 -0.12372574955E+02 -0.38568541526E+01  0.96471847498E+02  0.92157267074E+02 0.  0.
         13    1    3    3    0    0 -0.23946464787E+02  0.32048377527E+02  0.21380021512E+02  0.45361306879E+02  0.10566000000E+00 0.  1.
         22    1    1    0    0    0  0.25414553905E+02  0.12372574955E+02  0.38568541526E+01  0.28528152502E+02  0.00000000000E+00 0. -1.
</event>
<event>
 5    1  0.1325686E-009  0.9118800E+02  0.7818608E-02  0.1130116E+00
         25   -1    0    0    0    0  0.00000000000E+00  0.00000000000E+00  0.99999998245E-14  0.12500000000E+03  0.12500000000E+03 0.  0.
        -13    1    3    3    0    0 -0.59032482719E+00  0.21363627215E+02 -0.33086930320E+02  0.39389201226E+02  0.10566000000E+00 0.  1.
         23    2    1    0    0    0  0.29752266976E+02  0.19675158485E+01  0.81022322160E+01  0.94101542503E+02  0.88884113460E+02 0.  0.
         13    1    3    3    0    0  0.30342591803E+02 -0.19396111366E+02  0.41189162536E+02  0.54712341277E+02  0.10566000000E+00 0. -1.
         22    1    1    0    0    0 -0.29752266976E+02 -0.19675158485E+01 -0.81022322160E+01  0.30898457497E+02  0.00000000000E+00 0. -1.
</event>
<event>
 5    1  0.1325686E-009  0.9118800E+02  0.7818608E-02  0.1130116E+00
         25   -1    0    0    0    0  0.00000000000E+00  0.00000000000E+00  0.99999998245E-14  0.12500000000E+03  0.12500000000E+03 0.  0.
        -13    1    3    3    0    0 -0.26750216946E+02 -0.45081132080E+02  0.61302095454E+01  0.52777582451E+02  0.10566000000E+00 0.  1.
         23    2    1    0    0    0 -0.25810648876E+02 -0.28036671054E+01  0.13554210534E+02  0.95712344446E+02  0.91121271455E+02 0.  0.
         13    1    3    3    0    0  0.93956807029E+00  0.42277464975E+02  0.74240009887E+01  0.42934761995E+02  0.10566000000E+00 0. -1.
         22    1    1    0    0    0  0.25810648876E+02  0.28036671054E+01 -0.13554210534E+02  0.29287655554E+02  0.00000000000E+00 0.  1.
</event>
<event>
 5    1  0.1325686E-009  0.9118800E+02  0.7818608E-02  0.1130116E+00
         25   -1    0    0    0    0  0.00000000000E+00  0.00000000000E+00  0.99999998245E-14  0.12500000000E+03  0.12500000000E+03 0.  0.
        -13    1    3    3    0    0  0.32851102673E+02 -0.10458149150E+02  0.51263779289E+02  0.61778265284E+02  0.10566000000E+00 0.  1.
         23    2    1    0    0    0  0.16198627806E+02  0.18243341488E+01  0.23189167609E+02  0.96654608271E+02  0.92404827080E+02 0.  0.
         13    1    3    3    0    0 -0.16652474867E+02  0.12282483299E+02 -0.28074611679E+02  0.34876342987E+02  0.10566000000E+00 0. -1.
         22    1    1    0    0    0 -0.16198627806E+02 -0.18243341488E+01 -0.23189167609E+02  0.28345391729E+02  0.00000000000E+00 0.  1.
</event>
<event>
 5    1  0.1325686E-009  0.9118800E+02  0.7818608E-02  0.1130116E+00
         25   -1    0    0    0    0  0.00000000000E+00  0.00000000000E+00  0.99999998245E-14  0.12500000000E+03  0.12500000000E+03 0.  0.
        -13    1    3    3    0    0 -0.88772380885E+00  0.48803514623E+02  0.11442719854E+02  0.50134998701E+02  0.10566000000E+00 0. -1.
         23    2    1    0    0    0 -0.15365355458E+02  0.17277532544E+02 -0.18048831025E+02  0.95667976877E+02  0.91060387761E+02 0.  0.
         13    1    3    3    0    0 -0.14477631649E+02 -0.31525982079E+02 -0.29491550879E+02  0.45532978175E+02  0.10566000000E+00 0.  1.
         22    1    1    0    0    0  0.15365355458E+02 -0.17277532544E+02  0.18048831025E+02  0.29332023123E+02  0.00000000000E+00 0.  1.
</event>
<event>
 5    1  0.1325686E-009  0.9118800E+02  0.7818608E-02  0.1130116E+00
         25   -1    0    0    0    0  0.00000000000E+00  0.00000000000E+00  0.99999998245E-14  0.12500000000E+03  0.12500000000E+03 0.  0.
        -13    1    3    3    0    0 -0.42116954764E+02 -0.13214925133E+02  0.32254675430E+02  0.54670351892E+02  0.10566000000E+00 0. -1.
         23    2    1    0    0    0 -0.12551147433E+02  0.14203868544E+02  0.21366880120E+02  0.96437353946E+02  0.92110468931E+02 0.  0.
         13    1    3    3    0    0  0.29565807331E+02  0.27418793677E+02 -0.10887795310E+02  0.41767002054E+02  0.10566000000E+00 0.  1.
         22    1    1    0    0    0  0.12551147433E+02 -0.14203868544E+02 -0.21366880120E+02  0.28562646054E+02  0.00000000000E+00 0. -1.
</event>
<event>
 5    1  0.1325686E-009  0.9118800E+02  0.7818608E-02  0.1130116E+00
         25   -1    0    0    0    0  0.00000000000E+00  0.00000000000E+00  0.99999998245E-14  0.12500000000E+03  0.12500000000E+03 0.  0.
        -13    1    3    3    0    0 -0.51191475677E+02  0.33289855396E+02 -0.18723520793E+01  0.61092540630E+02  0.10566000000E+00 0. -1.
         23    2    1    0    0    0 -0.25125932292E+02  0.12949679631E+02 -0.97825356661E+01  0.95088385531E+02  0.90261267345E+02 0.  0.
         13    1    3    3    0    0  0.26065543385E+02 -0.20340175765E+02 -0.79101835868E+01  0.33995844901E+02  0.10566000000E+00 0.  1.
         22    1    1    0    0    0  0.25125932292E+02 -0.12949679631E+02  0.97825356661E+01  0.29911614469E+02  0.00000000000E+00 0. -1.
</event>
<event>
 5    1  0.1325686E-009  0.9118800E+02  0.7818608E-02  0.1130116E+00
         25   -1    0    0    0    0  0.00000000000E+00  0.00000000000E+00  0.99999998245E-14  0.12500000000E+03  0.12500000000E+03 0.  0.
        -13    1    3    3    0    0 -0.14729987625E+02  0.51311461064E+02  0.27358050651E+02  0.59985937281E+02  0.10566000000E+00 0.  1.
         23    2    1    0    0    0 -0.90699662984E+01  0.28045438427E+02  0.11264120917E+01  0.95502886422E+02  0.90833482844E+02 0.  0.
         13    1    3    3    0    0  0.56600213266E+01 -0.23266022637E+02 -0.26231638560E+02  0.35516949141E+02  0.10566000000E+00 0. -1.
         22    1    1    0    0    0  0.90699662984E+01 -0.28045438427E+02 -0.11264120917E+01  0.29497113578E+02  0.00000000000E+00 0. -1.
</event>
<event>
 5    1  0.1325686E-009  0.9118800E+02  0.7818608E-02  0.1130116E+00
         25   -1    0    0    0    0  0.00000000000E+00  0.00000000000E+00  0.99999998245E-14  0.12500000000E+03  0.12500000000E+03 0.  0.
        -13    1    3    3    0    0  0.26063369376E-01  0.23821947218E+02 -0.48828016353E+02  0.54329294064E+02  0.10566000000E+00 0. -1.
         23    2    1    0    0    0  0.44135849699E+01 -0.10852003112E+02 -0.27081777778E+02  0.95492909472E+02  0.90819752081E+02 0.  0.
         13    1    3    3    0    0  0.43875216006E+01 -0.34673950330E+02  0.21746238575E+02  0.41163615408E+02  0.10566000000E+00 0.  1.
         22    1    1    0    0    0 -0.44135849699E+01  0.10852003112E+02  0.27081777778E+02  0.29507090528E+02  0.00000000000E+00 0.  1.
</event>
<event>
 5    1  0.1325686E-009  0.9118800E+02  0.7818608E-02  0.1130116E+00
         25   -1    0    0    0    0  0.00000000000E+00  0.00000000000E+00  0.99999998245E-14  0.12500000000E+03  0.12500000000E+03 0.  0.
        -13    1    3    3    0    0 -0.32106009044E+02 -0.51619493371E+02 -0.84324108929E+01  0.61371692417E+02  0.10566000000E+00 0.  1.
         23    2    1    0    0    0 -0.13481227943E+02 -0.23042918972E+02 -0.12120112672E+02  0.95680778442E+02  0.91077958972E+02 0.  0.
         13    1    3    3    0    0  0.18624781101E+02  0.28576574399E+02 -0.36877017786E+01  0.34309086025E+02  0.10566000000E+00 0. -1.
         22    1    1    0    0    0  0.13481227943E+02  0.23042918972E+02  0.12120112672E+02  0.29319221558E+02  0.00000000000E+00 0.  1.
</event>
<event>
 5    1  0.1325686E-009  0.9118800E+02  0.7818608E-02  0.1130116E+00
         25   -1    0    0    0    0  0.00000000000E+00  0.00000000000E+00  0.99999998245E-14  0.12500000000E+03  0.12500000000E+03 0.  0.
        -13    1    3    3    0    0 -0.23952942700E+02  0.40301945330E+02 -0.13172848106E+02  0.48698309546E+02  0.10566000000E+00 0. -1.
         23    2    1    0    0    0  0.16557517958E+02  0.24392743748E+02  0.35133847237E+01  0.95309913764E+02  0.90567535249E+02 0.  0.
         13    1    3    3    0    0  0.40510460658E+02 -0.15909201583E+02  0.16686232829E+02  0.46611604218E+02  0.10566000000E+00 0.  1.
         22    1    1    0    0    0 -0.16557517958E+02 -0.24392743748E+02 -0.35133847237E+01  0.29690086236E+02  0.00000000000E+00 0. -1.
</event>
<event>
 5    1  0.1325686E-009  0.9118800E+02  0.7818608E-02  0.1130116E+00
         25   -1    0    0    0    0  0.00000000000E+00  0.00000000000E+00  0.99999998245E-14  0.12500000000E+03  0.12500000000E+03 0.  0.
        -13    1    3    3    0    0  0.53975863001E+01 -0.26798767433E+02 -0.18187071305E+02  0.32834259555E+02  0.10566000000E+00 0.  1.
         23    2    1    0    0    0 -0.65004281834E+01  0.27685455107E+02  0.93941080059E+01  0.95050221098E+02  0.90208399135E+02 0.  0.
         13    1    3    3    0    0 -0.11898014483E+02  0.54484222541E+02  0.27581179311E+02  0.62215961543E+02  0.10566000000E+00 0. -1.
         22    1    1    0    0    0  0.65004281834E+01 -0.27685455107E+02 -0.93941080059E+01  0.29949778902E+02  0.00000000000E+00 0. -1.
</event>
<event>
 5    1  0.1325686E-009  0.9118800E+02  0.7818608E-02  0.1130116E+00
         25   -1    0    0    0    0  0.00000000000E+00  0.00000000000E+00  0.99999998245E-14  0.12500000000E+03  0.12500000000E+03 0.  0.
        -13    1    3    3    0    0 -0.25475151513E+02  0.37049685904E+02  0.33140802239E+02  0.55856839396E+02  0.10566000000E+00 0. -1.
         23    2    1    0    0    0 -0.25884716702E+02  0.23900010841E+01  0.15210466344E+02  0.94882082570E+02  0.89975111239E+02 0.  0.
         13    1    3    3    0    0 -0.40956518910E+00 -0.34659684819E+02 -0.17930335895E+02  0.39025243174E+02  0.10566000000E+00 0.  1.
         22    1    1    0    0    0  0.25884716702E+02 -0.23900010841E+01 -0.15210466344E+02  0.30117917430E+02  0.00000000000E+00 0. -1.
</event>
<event>
 5    1  0.1325686E-009  0.9118800E+02  0.7818608E-02  0.1130116E+00
         25   -1    0    0    0    0  0.00000000000E+00  0.00000000000E+00  0.99999998245E-14  0.12500000000E+03  0.12500000000E+03 0.  0.
        -13    1    3    3    0    0  0.25602904718E+02  0.38125627599E+02  0.30026759520E+02  0.54869751787E+02  0.10566000000E+00 0.  1.
         23    2    1    0    0    0  0.25583198240E+02  0.11528695723E+02 -0.24322196713E+01  0.96833946855E+02  0.92647108502E+02 0.  0.
         13    1    3    3    0    0 -0.19706478707E-01 -0.26596931876E+02 -0.32458979191E+02  0.41964195068E+02  0.10566000000E+00 0. -1.
         22    1    1    0    0    0 -0.25583198240E+02 -0.11528695723E+02  0.24322196713E+01  0.28166053145E+02  0.00000000000E+00 0.  1.
</event>
<event>
 5    1  0.1325686E-009  0.9118800E+02  0.7818608E-02  0.1130116E+00
         25   -1    0    0    0    0  0.00000000000E+00  0.00000000000E+00  0.99999998245E-14  0.12500000000E+03  0.12500000000E+03 0.  0.
        -13    1    3    3    0    0 -0.43566121306E+02 -0.20132126701E+02 -0.26862349151E+02  0.54999149239E+02  0.10566000000E+00 0. -1.
         23    2    1    0    0    0 -0.12940919098E+02  0.65435203862E+01 -0.25534723844E+02  0.95634932864E+02  0.91015016431E+02 0.  0.
         13    1    3    3    0    0  0.30625202208E+02  0.26675647087E+02  0.13276253068E+01  0.40635783625E+02  0.10566000000E+00 0.  1.
         22    1    1    0    0    0  0.12940919098E+02 -0.65435203862E+01  0.25534723844E+02  0.29365067136E+02  0.00000000000E+00 0. -1.
</event>
<event>
 5    1  0.1325686E-009  0.9118800E+02  0.7818608E-02  0.1130116E+00
         25   -1    0    0    0    0  0.00000000000E+00  0.00000000000E+00  0.99999998245E-14  0.12500000000E+03  0.12500000000E+03 0.  0.
        -13    1    3    3    0    0 -0.47502574556E+02  0.32740090731E+02 -0.18070621796E+02  0.60456320320E+02  0.10566000000E+00 0.  1.
         23    2    1    0    0    0 -0.14439775332E+02  0.23477865477E+02 -0.95018833078E+01  0.95845187955E+02  0.91303324084E+02 0.  0.
         13    1    3    3    0    0  0.33062799223E+02 -0.92622252546E+01  0.85687384886E+01  0.35388867635E+02  0.10566000000E+00 0. -1.
         22    1    1    0    0    0  0.14439775332E+02 -0.23477865477E+02  0.95018833078E+01  0.29154812045E+02  0.00000000000E+00 0.  1.
</event>
<event>
 5    1  0.1325686E-009  0.9118800E+02  0.7818608E-02  0.1130116E+00
         25   -1    0    0    0    0  0.00000000000E+00  0.00000000000E+00  0.99999998245E-14  0.12500000000E+03  0.12500000000E+03 0.  0.
        -13    1    3    3    0    0  0.65672904538E+01 -0.13184176847E+02  0.32282803013E+02  0.35484395971E+02  0.10566000000E+00 0. -1.
         23    2    1    0    0    0 -0.13886433014E+02  0.13327109167E+02 -0.19790067941E+02  0.97393992507E+02  0.93399668772E+02 0.  0.
         13    1    3    3    0    0 -0.20453723467E+02  0.26511286014E+02 -0.52072870954E+02  0.61909596536E+02  0.10566000000E+00 0.  1.
         22    1    1    0    0    0  0.13886433014E+02 -0.13327109167E+02  0.19790067941E+02  0.27606007493E+02  0.00000000000E+00 0.  1.
</event>
<event>
 5    1  0.1325686E-009  0.9118800E+02  0.7818608E-02  0.1130116E+00
         25   -1    0    0    0    0  0.00000000000E+00  0.00000000000E+00  0.99999998245E-14  0.12500000000E+03  0.12500000000E+03 0.  0.
        -13    1    3    3    0    0 -0.12303977626E+01  0.37104995689E+02  0.15326218457E+01  0.37157161860E+02  0.10566000000E+00 0. -1.
         23    2    1    0    0    0 -0.23805565615E+02 -0.16798276358E+02 -0.26351684352E+01  0.95745407958E+02  0.91166616639E+02 0.  0.
         13    1    3    3    0    0 -0.22575167853E+02 -0.53903272047E+02 -0.41677902809E+01  0.58588246098E+02  0.10566000000E+00 0.  1.
         22    1    1    0    0    0  0.23805565615E+02  0.16798276358E+02  0.26351684352E+01  0.29254592042E+02  0.00000000000E+00 0.  1.
</event>
<event>
 5    1  0.1325686E-009  0.9118800E+02  0.7818608E-02  0.1130116E+00
         25   -1    0    0    0    0  0.00000000000E+00  0.00000000000E+00  0.99999998245E-14  0.12500000000E+03  0.12500000000E+03 0.  0.
        -13    1    3    3    0    0  0.80605250632E+01  0.60793225237E+02 -0.83921410436E+01  0.61896910217E+02  0.10566000000E+00 0. -1.
         23    2    1    0    0    0  0.93314540970E+01  0.26531899482E+02 -0.58261527333E+01  0.96277852076E+02  0.91893759413E+02 0.  0.
         13    1    3    3    0    0  0.12709290338E+01 -0.34261325755E+02  0.25659883103E+01  0.34380941859E+02  0.10566000000E+00 0.  1.
         22    1    1    0    0    0 -0.93314540970E+01 -0.26531899482E+02  0.58261527333E+01  0.28722147924E+02  0.00000000000E+00 0. -1.
</event>
<event>
 5    1  0.1325686E-009  0.9118800E+02  0.7818608E-02  0.1130116E+00
         25   -1    0    0    0    0  0.00000000000E+00  0.00000000000E+00  0.99999998245E-14  0.12500000000E+03  0.12500000000E+03 0.  0.
        -13    1    3    3    0    0  0.14519776359E+02 -0.33132343645E+02 -0.21352775228E+02  0.42006288516E+02  0.10566000000E+00 0. -1.
         23    2    1    0    0    0 -0.27932162737E+02 -0.29972268793E+01 -0.88396378103E+01  0.95549562300E+02  0.90897692902E+02 0.  0.
         13    1    3    3    0    0 -0.42451939095E+02  0.30135116766E+02  0.12513137418E+02  0.53543273784E+02  0.10566000000E+00 0.  1.
         22    1    1    0    0    0  0.27932162737E+02  0.29972268793E+01  0.88396378103E+01  0.29450437700E+02  0.00000000000E+00 0.  1.
</event>
<event>
 5    1  0.1325686E-009  0.9118800E+02  0.7818608E-02  0.1130116E+00
         25   -1    0    0    0    0  0.00000000000E+00  0.00000000000E+00  0.99999998245E-14  0.12500000000E+03  0.12500000000E+03 0.  0.
        -13    1    3    3    0    0 -0.26455039132E+02  0.13613134624E+02 -0.29886514194E+02  0.42171097027E+02  0.10566000000E+00 0.  1.
         23    2    1    0    0    0  0.20112743284E+02  0.19001530643E+02 -0.84200289347E+00  0.97318064048E+02  0.93297995755E+02 0.  0.
         13    1    3    3    0    0  0.46567782416E+02  0.53883960195E+01  0.29044511301E+02  0.55146967020E+02  0.10566000000E+00 0. -1.
         22    1    1    0    0    0 -0.20112743284E+02 -0.19001530643E+02  0.84200289347E+00  0.27681935952E+02  0.00000000000E+00 0. -1.
</event>
<event>
 5    1  0.1325686E-009  0.9118800E+02  0.7818608E-02  0.1130116E+00
         25   -1    0    0    0    0  0.00000000000E+00  0.00000000000E+00  0.99999998245E-14  0.12500000000E+03  0.12500000000E+03 0.  0.
        -13    1    3    3    0    0 -0.13694414321E+02 -0.39328583647E+02 -0.34510201339E+01  0.41787500275E+02  0.10566000000E+00 0. -1.
         23    2    1    0    0    0  0.12372445091E+02 -0.23855084588E+01  0.26248929723E+02  0.95883434960E+02  0.91355671636E+02 0.  0.
         13    1    3    3    0    0  0.26066859411E+02  0.36943075188E+02  0.29699949857E+02  0.54095934685E+02  0.10566000000E+00 0.  1.
         22    1    1    0    0    0 -0.12372445091E+02  0.23855084588E+01 -0.26248929723E+02  0.29116565040E+02  0.00000000000E+00 0.  1.
</event>
<event>
 5    1  0.1325686E-009  0.9118800E+02  0.7818608E-02  0.1130116E+00
         25   -1    0    0    0    0  0.00000000000E+00  0.00000000000E+00  0.99999998245E-14  0.12500000000E+03  0.12500000000E+03 0.  0.
        -13    1    3    3    0    0 -0.31641275989E+01 -0.22167747022E+02 -0.24235181533E+02  0.32996604363E+02  0.10566000000E+00 0. -1.
         23    2    1    0    0    0  0.12106705103E+01  0.27039217781E+02  0.13110684404E+02  0.94925508037E+02  0.90035420859E+02 0.  0.
         13    1    3    3    0    0  0.43747981092E+01  0.49206964803E+02  0.37345865937E+02  0.61928903674E+02  0.10566000000E+00 0.  1.
         22    1    1    0    0    0 -0.12106705103E+01 -0.27039217781E+02 -0.13110684404E+02  0.30074491963E+02  0.00000000000E+00 0.  1.
</event>
<event>
 5    1  0.1325686E-009  0.9118800E+02  0.7818608E-02  0.1130116E+00
         25   -1    0    0    0    0  0.00000000000E+00  0.00000000000E+00  0.99999998245E-14  0.12500000000E+03  0.12500000000E+03 0.  0.
        -13    1    3    3    0    0  0.33768195833E+02 -0.16614804241E+02  0.62051232344E+01  0.38142594146E+02  0.10566000000E+00 0. -1.
         23    2    1    0    0    0 -0.19684783707E+02 -0.25209918585E+02 -0.22390852686E+01  0.92936871526E+02  0.87230831026E+02 0.  0.
         13    1    3    3    0    0 -0.53452979540E+02 -0.85951143441E+01 -0.84442085029E+01  0.54794277380E+02  0.10566000000E+00 0.  1.
         22    1    1    0    0    0  0.19684783707E+02  0.25209918585E+02  0.22390852686E+01  0.32063128474E+02  0.00000000000E+00 0.  1.
</event>
<event>
 5    1  0.1325686E-009  0.9118800E+02  0.7818608E-02  0.1130116E+00
         25   -1    0    0    0    0  0.00000000000E+00  0.00000000000E+00  0.99999998245E-14  0.12500000000E+03  0.12500000000E+03 0.  0.
        -13    1    3    3    0    0  0.24987342352E+02  0.23424379251E+02 -0.25342481219E+02  0.42606587982E+02  0.10566000000E+00 0.  1.
         23    2    1    0    0    0 -0.16896331314E+02 -0.12055210451E+02 -0.17087460295E+02  0.98115145337E+02  0.94359876719E+02 0.  0.
         13    1    3    3    0    0 -0.41883673666E+02 -0.35479589702E+02  0.82550209239E+01  0.55508557355E+02  0.10566000000E+00 0. -1.
         22    1    1    0    0    0  0.16896331314E+02  0.12055210451E+02  0.17087460295E+02  0.26884854663E+02  0.00000000000E+00 0.  1.
</event>
<event>
 5    1  0.1325686E-009  0.9118800E+02  0.7818608E-02  0.1130116E+00
         25   -1    0    0    0    0  0.00000000000E+00  0.00000000000E+00  0.99999998245E-14  0.12500000000E+03  0.12500000000E+03 0.  0.
        -13    1    3    3    0    0 -0.37698442640E+02  0.11736530530E+02 -0.14514224949E+02  0.42066526078E+02  0.10566000000E+00 0.  1.
         23    2    1    0    0    0 -0.67462592726E+01 -0.26099787445E+02  0.93532619987E+01  0.96465907604E+02  0.92149209986E+02 0.  0.
         13    1    3    3    0    0  0.30952183368E+02 -0.37836317975E+02  0.23867486948E+02  0.54399381526E+02  0.10566000000E+00 0. -1.
         22    1    1    0    0    0  0.67462592726E+01  0.26099787445E+02 -0.93532619987E+01  0.28534092396E+02  0.00000000000E+00 0. -1.
</event>
<event>
 5    1  0.1325686E-009  0.9118800E+02  0.7818608E-02  0.1130116E+00
         25   -1    0    0    0    0  0.00000000000E+00  0.00000000000E+00  0.99999998245E-14  0.12500000000E+03  0.12500000000E+03 0.  0.
        -13    1    3    3    0    0  0.52720608982E+02 -0.29804702107E+01 -0.27179932850E+02  0.59389441215E+02  0.10566000000E+00 0.  1.
         23    2    1    0    0    0  0.27940211653E+02 -0.86844136288E+01 -0.12389584548E+01  0.95715029702E+02  0.91124955010E+02 0.  0.
         13    1    3    3    0    0 -0.24780397330E+02 -0.57039434181E+01  0.25940974395E+02  0.36325588487E+02  0.10566000000E+00 0. -1.
         22    1    1    0    0    0 -0.27940211653E+02  0.86844136288E+01  0.12389584548E+01  0.29284970298E+02  0.00000000000E+00 0.  1.
</event>
<event>
 5    1  0.1325686E-009  0.9118800E+02  0.7818608E-02  0.1130116E+00
         25   -1    0    0    0    0  0.00000000000E+00  0.00000000000E+00  0.99999998245E-14  0.12500000000E+03  0.12500000000E+03 0.  0.
        -13    1    3    3    0    0 -0.39670923469E+02  0.52148015560E+01 -0.43353265757E+02  0.58995704420E+02  0.10566000000E+00 0. -1.
         23    2    1    0    0    0 -0.18326151853E+02  0.16537773108E+02 -0.15574768407E+02  0.95812345211E+02  0.91258349223E+02 0.  0.
         13    1    3    3    0    0  0.21344771616E+02  0.11322971552E+02  0.27778497350E+02  0.36816640792E+02  0.10566000000E+00 0.  1.
         22    1    1    0    0    0  0.18326151853E+02 -0.16537773108E+02  0.15574768407E+02  0.29187654789E+02  0.00000000000E+00 0. -1.
</event>
<event>
 5    1  0.1325686E-009  0.9118800E+02  0.7818608E-02  0.1130116E+00
         25   -1    0    0    0    0  0.00000000000E+00  0.00000000000E+00  0.99999998245E-14  0.12500000000E+03  0.12500000000E+03 0.  0.
        -13    1    3    3    0    0  0.15033083953E+02 -0.51016338320E+02  0.10866904475E+02  0.54284078381E+02  0.10566000000E+00 0.  1.
         23    2    1    0    0    0 -0.25715219110E+01 -0.23937473823E+02 -0.15829091403E+02  0.96187233513E+02  0.91770411236E+02 0.  0.
         13    1    3    3    0    0 -0.17604605864E+02  0.27078864497E+02 -0.26695995879E+02  0.41903155133E+02  0.10566000000E+00 0. -1.
         22    1    1    0    0    0  0.25715219110E+01  0.23937473823E+02  0.15829091403E+02  0.28812766487E+02  0.00000000000E+00 0. -1.
</event>
<event>
 5    1  0.1325686E-009  0.9118800E+02  0.7818608E-02  0.1130116E+00
         25   -1    0    0    0    0  0.00000000000E+00  0.00000000000E+00  0.99999998245E-14  0.12500000000E+03  0.12500000000E+03 0.  0.
        -13    1    3    3    0    0  0.65891177331E+01 -0.33849103390E+02 -0.45287094851E+02  0.56921967613E+02  0.10566000000E+00 0. -1.
         23    2    1    0    0    0 -0.14975278110E+02 -0.80839020102E+01 -0.18233486933E+02  0.10005869947E+03  0.96900334718E+02 0.  0.
         13    1    3    3    0    0 -0.21564395843E+02  0.25765201380E+02  0.27053607918E+02  0.43136731861E+02  0.10566000000E+00 0.  1.
         22    1    1    0    0    0  0.14975278110E+02  0.80839020102E+01  0.18233486933E+02  0.24941300526E+02  0.00000000000E+00 0. -1.
</event>
<event>
 5    1  0.1325686E-009  0.9118800E+02  0.7818608E-02  0.1130116E+00
         25   -1    0    0    0    0  0.00000000000E+00  0.00000000000E+00  0.99999998245E-14  0.12500000000E+03  0.12500000000E+03 0.  0.
        -13    1    3    3    0    0 -0.11504491711E+02  0.36935255791E+02 -0.12086122038E+02  0.40529642977E+02  0.10566000000E+00 0. -1.
         23    2    1    0    0    0  0.22737943108E+02  0.67252261994E+01  0.18014022030E+02  0.95221690546E+02  0.90445688877E+02 0.  0.
         13    1    3    3    0    0  0.34242434820E+02 -0.30210029592E+02  0.30100144069E+02  0.54692047569E+02  0.10566000000E+00 0.  1.
         22    1    1    0    0    0 -0.22737943108E+02 -0.67252261994E+01 -0.18014022030E+02  0.29778309454E+02  0.00000000000E+00 0.  1.
</event>
<event>
 5    1  0.1325686E-009  0.9118800E+02  0.7818608E-02  0.1130116E+00
         25   -1    0    0    0    0  0.00000000000E+00  0.00000000000E+00  0.99999998245E-14  0.12500000000E+03  0.12500000000E+03 0.  0.
        -13    1    3    3    0    0 -0.10126159182E+01  0.34171735933E+01 -0.32861609977E+02  0.33054485939E+02  0.10566000000E+00 0.  1.
         23    2    1    0    0    0 -0.17346724956E+02 -0.93279696930E+01  0.24221614022E+02  0.93781312149E+02  0.88432618627E+02 0.  0.
         13    1    3    3    0    0 -0.16334109038E+02 -0.12745143286E+02  0.57083223999E+02  0.60726826211E+02  0.10566000000E+00 0. -1.
         22    1    1    0    0    0  0.17346724956E+02  0.93279696930E+01 -0.24221614022E+02  0.31218687851E+02  0.00000000000E+00 0. -1.
</event>
<event>
 5    1  0.1325686E-009  0.9118800E+02  0.7818608E-02  0.1130116E+00
         25   -1    0    0    0    0  0.00000000000E+00  0.00000000000E+00  0.99999998245E-14  0.12500000000E+03  0.12500000000E+03 0.  0.
        -13    1    3    3    0    0  0.20970522954E+02 -0.36375971926E+02 -0.38490146032E+02  0.56960307866E+02  0.10566000000E+00 0.  1.
         23    2    1    0    0    0  0.61277519741E+01 -0.20738726247E+01 -0.28676249286E+02  0.95603102799E+02  0.90971290525E+02 0.  0.
         13    1    3    3    0    0 -0.14842770980E+02  0.34302099302E+02  0.98138967463E+01  0.38642794933E+02  0.10566000000E+00 0. -1.
         22    1    1    0    0    0 -0.61277519741E+01  0.20738726247E+01  0.28676249286E+02  0.29396897201E+02  0.00000000000E+00 0.  1.
</event>
<event>
 5    1  0.1325686E-009  0.9118800E+02  0.7818608E-02  0.1130116E+00
         25   -1    0    0    0    0  0.00000000000E+00  0.00000000000E+00  0.99999998245E-14  0.12500000000E+03  0.12500000000E+03 0.  0.
        -13    1    3    3    0    0 -0.16238193028E+02 -0.39620617272E+02  0.40320112365E+02  0.58814920309E+02  0.10566000000E+00 0.  1.
         23    2    1    0    0    0  0.73667184396E+01 -0.21060730539E+02  0.19643854442E+02  0.95272841899E+02  0.90516354736E+02 0.  0.
         13    1    3    3    0    0  0.23604911467E+02  0.18559886733E+02 -0.20676257923E+02  0.36457921590E+02  0.10566000000E+00 0. -1.
         22    1    1    0    0    0 -0.73667184396E+01  0.21060730539E+02 -0.19643854442E+02  0.29727158101E+02  0.00000000000E+00 0.  1.
</event>
<event>
 5    1  0.1325686E-009  0.9118800E+02  0.7818608E-02  0.1130116E+00
         25   -1    0    0    0    0  0.00000000000E+00  0.00000000000E+00  0.99999998245E-14  0.12500000000E+03  0.12500000000E+03 0.  0.
        -13    1    3    3    0    0 -0.40029393924E+02  0.32638369503E+02  0.12878056576E+02  0.53230358321E+02  0.10566000000E+00 0. -1.
         23    2    1    0    0    0 -0.24124786424E+02 -0.68805794777E+01  0.14799530359E+02  0.95873143101E+02  0.91341588421E+02 0.  0.
         13    1    3    3    0    0  0.15904607500E+02 -0.39518948981E+02  0.19214737833E+01  0.42642784780E+02  0.10566000000E+00 0.  1.
         22    1    1    0    0    0  0.24124786424E+02  0.68805794777E+01 -0.14799530359E+02  0.29126856899E+02  0.00000000000E+00 0. -1.
</event>
<event>
 5    1  0.1325686E-009  0.9118800E+02  0.7818608E-02  0.1130116E+00
         25   -1    0    0    0    0  0.00000000000E+00  0.00000000000E+00  0.99999998245E-14  0.12500000000E+03  0.12500000000E+03 0.  0.
        -13    1    3    3    0    0 -0.13813922833E+02 -0.34425374629E+01  0.33631706903E+02  0.36520931004E+02  0.10566000000E+00 0.  1.
         23    2    1    0    0    0  0.13755685658E+01  0.26278651639E+02 -0.14393608253E+02  0.95006072625E+02  0.90147202709E+02 0.  0.
         13    1    3    3    0    0  0.15189491398E+02  0.29721189102E+02 -0.48025315156E+02  0.58485141621E+02  0.10566000000E+00 0. -1.
         22    1    1    0    0    0 -0.13755685658E+01 -0.26278651639E+02  0.14393608253E+02  0.29993927375E+02  0.00000000000E+00 0. -1.
</event>
<event>
 5    1  0.1325686E-009  0.9118800E+02  0.7818608E-02  0.1130116E+00
         25   -1    0    0    0    0  0.00000000000E+00  0.00000000000E+00  0.99999998245E-14  0.12500000000E+03  0.12500000000E+03 0.  0.
        -13    1    3    3    0    0  0.29898586053E+02 -0.10798534367E+02 -0.11077398674E+02  0.33663833974E+02  0.10566000000E+00 0. -1.
         23    2    1    0    0    0 -0.15152556097E+02  0.23420483748E+02  0.11831619196E+02  0.94699732211E+02  0.89721419142E+02 0.  0.
         13    1    3    3    0    0 -0.45051142150E+02  0.34219018115E+02  0.22909017870E+02  0.61035898237E+02  0.10566000000E+00 0.  1.
         22    1    1    0    0    0  0.15152556097E+02 -0.23420483748E+02 -0.11831619196E+02  0.30300267789E+02  0.00000000000E+00 0.  1.
</event>
<event>
 5    1  0.1325686E-009  0.9118800E+02  0.7818608E-02  0.1130116E+00
         25   -1    0    0    0    0  0.00000000000E+00  0.00000000000E+00  0.99999998245E-14  0.12500000000E+03  0.12500000000E+03 0.  0.
        -13    1    3    3    0    0 -0.35777143529E+01  0.47332856440E+02  0.12863937838E+02  0.49180193162E+02  0.10566000000E+00 0.  1.
         23    2    1    0    0    0 -0.47103897082E+01  0.75005689927E+01  0.30852885857E+02  0.92900983315E+02  0.87179388784E+02 0.  0.
         13    1    3    3    0    0 -0.11326753553E+01 -0.39832287447E+02  0.17988948019E+02  0.43720790153E+02  0.10566000000E+00 0. -1.
         22    1    1    0    0    0  0.47103897082E+01 -0.75005689927E+01 -0.30852885857E+02  0.32099016685E+02  0.00000000000E+00 0.  1.
</event>
<event>
 5    1  0.1325686E-009  0.9118800E+02  0.7818608E-02  0.1130116E+00
         25   -1    0    0    0    0  0.00000000000E+00  0.00000000000E+00  0.99999998245E-14  0.12500000000E+03  0.12500000000E+03 0.  0.
        -13    1    3    3    0    0 -0.21892432895E+02 -0.99210540403E+01  0.28487171118E+02  0.37272456502E+02  0.10566000000E+00 0.  1.
         23    2    1    0    0    0  0.27664347453E+02 -0.64713546350E+01 -0.35259108072E+01  0.96370878501E+02  0.92020213134E+02 0.  0.
         13    1    3    3    0    0  0.49556780347E+02  0.34496994054E+01 -0.32013081925E+02  0.59098421999E+02  0.10566000000E+00 0. -1.
         22    1    1    0    0    0 -0.27664347453E+02  0.64713546350E+01  0.35259108072E+01  0.28629121499E+02  0.00000000000E+00 0. -1.
</event>
<event>
 5    1  0.1325686E-009  0.9118800E+02  0.7818608E-02  0.1130116E+00
         25   -1    0    0    0    0  0.00000000000E+00  0.00000000000E+00  0.99999998245E-14  0.12500000000E+03  0.12500000000E+03 0.  0.
        -13    1    3    3    0    0 -0.27311402117E+02  0.17100758565E+02  0.50897650610E+02  0.60240606162E+02  0.10566000000E+00 0. -1.
         23    2    1    0    0    0 -0.15882260449E+01  0.94647329848E+01  0.27609686755E+02  0.95769905317E+02  0.91200199173E+02 0.  0.
         13    1    3    3    0    0  0.25723176072E+02 -0.76360255801E+01 -0.23287963855E+02  0.35529299155E+02  0.10566000000E+00 0.  1.
         22    1    1    0    0    0  0.15882260449E+01 -0.94647329848E+01 -0.27609686755E+02  0.29230094683E+02  0.00000000000E+00 0. -1.
</event>
<event>
 5    1  0.1325686E-009  0.9118800E+02  0.7818608E-02  0.1130116E+00
         25   -1    0    0    0    0  0.00000000000E+00  0.00000000000E+00  0.99999998245E-14  0.12500000000E+03  0.12500000000E+03 0.  0.
        -13    1    3    3    0    0  0.42238846164E+02  0.20565941577E+02 -0.39202087273E+02  0.61187358898E+02  0.10566000000E+00 0.  1.
         23    2    1    0    0    0  0.18404812532E+02  0.20182298946E+01 -0.23044958644E+02  0.95438530227E+02  0.90744876201E+02 0.  0.
         13    1    3    3    0    0 -0.23834033633E+02 -0.18547711682E+02  0.16157128629E+02  0.34251171330E+02  0.10566000000E+00 0. -1.
         22    1    1    0    0    0 -0.18404812532E+02 -0.20182298946E+01  0.23044958644E+02  0.29561469773E+02  0.00000000000E+00 0.  1.
</event>
<event>
 5    1  0.1325686E-009  0.9118800E+02  0.7818608E-02  0.1130116E+00
         25   -1    0    0    0    0  0.00000000000E+00  0.00000000000E+00  0.99999998245E-14  0.12500000000E+03  0.12500000000E+03 0.  0.
        -13    1    3    3    0    0 -0.15363415982E+02 -0.36841179020E+02 -0.45539406487E+01  0.40175322795E+02  0.10566000000E+00 0. -1.
         23    2    1    0    0    0  0.17157884171E+02  0.34933342992E+01 -0.23805259309E+02  0.95448574577E+02  0.90758711121E+02 0.  0.
         13    1    3    3    0    0  0.32521300154E+02  0.40334513319E+02 -0.19251318660E+02  0.55273251782E+02  0.10566000000E+00 0.  1.
         22    1    1    0    0    0 -0.17157884171E+02 -0.34933342992E+01  0.23805259309E+02  0.29551425423E+02  0.00000000000E+00 0.  1.
</event>
<event>
 5    1  0.1325686E-009  0.9118800E+02  0.7818608E-02  0.1130116E+00
         25   -1    0    0    0    0  0.00000000000E+00  0.00000000000E+00  0.99999998245E-14  0.12500000000E+03  0.12500000000E+03 0.  0.
        -13    1    3    3    0    0  0.37940246913E+02 -0.31163386644E+02 -0.18378586242E+02  0.52425209577E+02  0.10566000000E+00 0.  1.
         23    2    1    0    0    0  0.25803797393E+02  0.94595451223E+01 -0.10674374427E+02  0.95516763691E+02  0.90852577965E+02 0.  0.
         13    1    3    3    0    0 -0.12136449520E+02  0.40622931766E+02  0.77042118149E+01  0.43091554114E+02  0.10566000000E+00 0. -1.
         22    1    1    0    0    0 -0.25803797393E+02 -0.94595451223E+01  0.10674374427E+02  0.29483236309E+02  0.00000000000E+00 0. -1.
</event>
<event>
 5    1  0.1325686E-009  0.9118800E+02  0.7818608E-02  0.1130116E+00
         25   -1    0    0    0    0  0.00000000000E+00  0.00000000000E+00  0.99999998245E-14  0.12500000000E+03  0.12500000000E+03 0.  0.
        -13    1    3    3    0    0  0.12184140857E+02 -0.16514850087E+02 -0.58029259131E+02  0.61551601451E+02  0.10566000000E+00 0.  1.
         23    2    1    0    0    0  0.11861338097E+02 -0.11488471578E+02 -0.24515967018E+02  0.95441431708E+02  0.90748872869E+02 0.  0.
         13    1    3    3    0    0 -0.32280275957E+00  0.50263785082E+01  0.33513292113E+02  0.33889830257E+02  0.10566000000E+00 0. -1.
         22    1    1    0    0    0 -0.11861338097E+02  0.11488471578E+02  0.24515967018E+02  0.29558568292E+02  0.00000000000E+00 0.  1.
</event>
<event>
 5    1  0.1325686E-009  0.9118800E+02  0.7818608E-02  0.1130116E+00
         25   -1    0    0    0    0  0.00000000000E+00  0.00000000000E+00  0.99999998245E-14  0.12500000000E+03  0.12500000000E+03 0.  0.
        -13    1    3    3    0    0 -0.49046297144E+02  0.18987208807E+02 -0.21142989199E+02  0.56684129332E+02  0.10566000000E+00 0.  1.
         23    2    1    0    0    0 -0.21510875345E+02 -0.78966942984E+01 -0.19010381762E+02  0.95226351354E+02  0.90452130093E+02 0.  0.
         13    1    3    3    0    0  0.27535421799E+02 -0.26883903105E+02  0.21326074369E+01  0.38542222021E+02  0.10566000000E+00 0. -1.
         22    1    1    0    0    0  0.21510875345E+02  0.78966942984E+01  0.19010381762E+02  0.29773648646E+02  0.00000000000E+00 0.  1.
</event>
<event>
 5    1  0.1325686E-009  0.9118800E+02  0.7818608E-02  0.1130116E+00
         25   -1    0    0    0    0  0.00000000000E+00  0.00000000000E+00  0.99999998245E-14  0.12500000000E+03  0.12500000000E+03 0.  0.
        -13    1    3    3    0    0 -0.41537976708E+02  0.44746999977E+02 -0.55182365164E+01  0.61303830339E+02  0.10566000000E+00 0.  1.
         23    2    1    0    0    0 -0.24437395892E+02  0.14420715684E+02 -0.53785658562E+01  0.96119689588E+02  0.91678363843E+02 0.  0.
         13    1    3    3    0    0  0.17100580816E+02 -0.30326284293E+02  0.13967066015E+00  0.34815859248E+02  0.10566000000E+00 0. -1.
         22    1    1    0    0    0  0.24437395892E+02 -0.14420715684E+02  0.53785658562E+01  0.28880310412E+02  0.00000000000E+00 0.  1.
</event>
<event>
 5    1  0.1325686E-009  0.9118800E+02  0.7818608E-02  0.1130116E+00
         25   -1    0    0    0    0  0.00000000000E+00  0.00000000000E+00  0.99999998245E-14  0.12500000000E+03  0.12500000000E+03 0.  0.
        -13    1    3    3    0    0 -0.19512114581E+02 -0.13131199832E+02 -0.21116231914E+02  0.31607869886E+02  0.10566000000E+00 0.  1.
         23    2    1    0    0    0  0.18597774491E+02 -0.94652330306E+01  0.25576714667E+02  0.91990362233E+02  0.85863790729E+02 0.  0.
         13    1    3    3    0    0  0.38109889072E+02  0.36659668013E+01  0.46692946581E+02  0.60382492347E+02  0.10566000000E+00 0. -1.
         22    1    1    0    0    0 -0.18597774491E+02  0.94652330306E+01 -0.25576714667E+02  0.33009637767E+02  0.00000000000E+00 0. -1.
</event>
<event>
 5    1  0.1325686E-009  0.9118800E+02  0.7818608E-02  0.1130116E+00
         25   -1    0    0    0    0  0.00000000000E+00  0.00000000000E+00  0.99999998245E-14  0.12500000000E+03  0.12500000000E+03 0.  0.
        -13    1    3    3    0    0  0.12853400435E+01  0.27791234229E+02 -0.22480339780E+02  0.35768444747E+02  0.10566000000E+00 0. -1.
         23    2    1    0    0    0  0.95467712975E+00 -0.11858207836E+01  0.29595994578E+02  0.95364877688E+02  0.90643363916E+02 0.  0.
         13    1    3    3    0    0 -0.33066291370E+00 -0.28977055012E+02  0.52076334358E+02  0.59596432941E+02  0.10566000000E+00 0.  1.
         22    1    1    0    0    0 -0.95467712975E+00  0.11858207836E+01 -0.29595994578E+02  0.29635122312E+02  0.00000000000E+00 0.  1.
</event>
<event>
 5    1  0.1325686E-009  0.9118800E+02  0.7818608E-02  0.1130116E+00
         25   -1    0    0    0    0  0.00000000000E+00  0.00000000000E+00  0.99999998245E-14  0.12500000000E+03  0.12500000000E+03 0.  0.
        -13    1    3    3    0    0 -0.94085441450E+01  0.50713171827E+02 -0.14458480563E+02  0.53566830445E+02  0.10566000000E+00 0.  1.
         23    2    1    0    0    0  0.10295733862E+02  0.24137307318E+02  0.12206214499E+02  0.96058621099E+02  0.91595061410E+02 0.  0.
         13    1    3    3    0    0  0.19704278007E+02 -0.26575864509E+02  0.26664695062E+02  0.42491790654E+02  0.10566000000E+00 0. -1.
         22    1    1    0    0    0 -0.10295733862E+02 -0.24137307318E+02 -0.12206214499E+02  0.28941378901E+02  0.00000000000E+00 0.  1.
</event>
<event>
 4    1  0.1325686E-009  0.9118800E+02  0.7818608E-02  0.1130116E+00
         25   -1    0    0    0    0  0.00000000000E+00  0.00000000000E+00  0.99999998245E-14  0.12500000000E+03  0.12500000000E+03 0.  0.
        -13    1    1    0    0    0  0.33668537656E+02  0.68382251223E+01  0.95602369269E+01  0.35661478444E+02  0.10566000000E+00 0.  1.
         13    1    1    0    0    0 -0.88119931874E+01  0.11256550704E+02  0.33503368672E+02  0.36425925302E+02  0.10566000000E+00 0. -1.
         22    1    1    0    0    0 -0.24856544468E+02 -0.18094775826E+02 -0.43063605599E+02  0.52912596254E+02  0.00000000000E+00 0. -1.
</event>
<event>
 5    1  0.1325686E-009  0.9118800E+02  0.7818608E-02  0.1130116E+00
         25   -1    0    0    0    0  0.00000000000E+00  0.00000000000E+00  0.99999998245E-14  0.12500000000E+03  0.12500000000E+03 0.  0.
        -13    1    3    3    0    0 -0.31197983347E+02 -0.33949947990E+02  0.69723146115E+01  0.46631936144E+02  0.10566000000E+00 0.  1.
         23    2    1    0    0    0 -0.25323391572E+02  0.13390263268E+02 -0.52522808605E+01  0.95876817390E+02  0.91346616509E+02 0.  0.
         13    1    3    3    0    0  0.58745917753E+01  0.47340211258E+02 -0.12224595472E+02  0.49244881246E+02  0.10566000000E+00 0. -1.
         22    1    1    0    0    0  0.25323391572E+02 -0.13390263268E+02  0.52522808605E+01  0.29123182610E+02  0.00000000000E+00 0. -1.
</event>
<event>
 5    1  0.1325686E-009  0.9118800E+02  0.7818608E-02  0.1130116E+00
         25   -1    0    0    0    0  0.00000000000E+00  0.00000000000E+00  0.99999998245E-14  0.12500000000E+03  0.12500000000E+03 0.  0.
        -13    1    3    3    0    0  0.76385970932E+01 -0.34457179170E+02  0.47424830627E+02  0.59116588924E+02  0.10566000000E+00 0. -1.
         23    2    1    0    0    0  0.16321385512E+02 -0.18318390995E+02  0.15346210827E+02  0.96061146180E+02  0.91598507329E+02 0.  0.
         13    1    3    3    0    0  0.86827884190E+01  0.16138788175E+02 -0.32078619800E+02  0.36944557256E+02  0.10566000000E+00 0.  1.
         22    1    1    0    0    0 -0.16321385512E+02  0.18318390995E+02 -0.15346210827E+02  0.28938853820E+02  0.00000000000E+00 0. -1.
</event>
<event>
 5    1  0.1325686E-009  0.9118800E+02  0.7818608E-02  0.1130116E+00
         25   -1    0    0    0    0  0.00000000000E+00  0.00000000000E+00  0.99999998245E-14  0.12500000000E+03  0.12500000000E+03 0.  0.
        -13    1    3    3    0    0  0.14209906455E+02  0.15806465088E+02 -0.46839453851E+02  0.51436479090E+02  0.10566000000E+00 0. -1.
         23    2    1    0    0    0  0.32303536897E+00  0.29469784770E+02 -0.86875516503E+01  0.94274666480E+02  0.89127249593E+02 0.  0.
         13    1    3    3    0    0 -0.13886871086E+02  0.13663319681E+02  0.38151902201E+02  0.42838187390E+02  0.10566000000E+00 0.  1.
         22    1    1    0    0    0 -0.32303536897E+00 -0.29469784770E+02  0.86875516503E+01  0.30725333520E+02  0.00000000000E+00 0. -1.
</event>
<event>
 5    1  0.1325686E-009  0.9118800E+02  0.7818608E-02  0.1130116E+00
         25   -1    0    0    0    0  0.00000000000E+00  0.00000000000E+00  0.99999998245E-14  0.12500000000E+03  0.12500000000E+03 0.  0.
        -13    1    3    3    0    0  0.13933418046E+02  0.45812050412E+01  0.32487327080E+02  0.35644987907E+02  0.10566000000E+00 0.  1.
         23    2    1    0    0    0 -0.29623178326E+02 -0.23538258825E+01 -0.65787770811E+01  0.94563944108E+02  0.89532039108E+02 0.  0.
         13    1    3    3    0    0 -0.43556596372E+02 -0.69350309236E+01 -0.39066104161E+02  0.58918956201E+02  0.10566000000E+00 0. -1.
         22    1    1    0    0    0  0.29623178326E+02  0.23538258825E+01  0.65787770811E+01  0.30436055892E+02  0.00000000000E+00 0. -1.
</event>
<event>
 5    1  0.1325686E-009  0.9118800E+02  0.7818608E-02  0.1130116E+00
         25   -1    0    0    0    0  0.00000000000E+00  0.00000000000E+00  0.99999998245E-14  0.12500000000E+03  0.12500000000E+03 0.  0.
        -13    1    3    3    0    0 -0.32767338895E+02 -0.38467040823E+01 -0.77332636750E+01  0.33886725449E+02  0.10566000000E+00 0.  1.
         23    2    1    0    0    0  0.28729869238E+02 -0.52462819252E+01 -0.86440812825E+00  0.95782264600E+02  0.91217137371E+02 0.  0.
         13    1    3    3    0    0  0.61497208133E+02 -0.13995778429E+01  0.68688555468E+01  0.61895539151E+02  0.10566000000E+00 0. -1.
         22    1    1    0    0    0 -0.28729869238E+02  0.52462819252E+01  0.86440812825E+00  0.29217735400E+02  0.00000000000E+00 0. -1.
</event>
<event>
 5    1  0.1325686E-009  0.9118800E+02  0.7818608E-02  0.1130116E+00
         25   -1    0    0    0    0  0.00000000000E+00  0.00000000000E+00  0.99999998245E-14  0.12500000000E+03  0.12500000000E+03 0.  0.
        -13    1    3    3    0    0  0.28769339688E+02 -0.19207087795E+02  0.78569291336E+01  0.35472942183E+02  0.10566000000E+00 0. -1.
         23    2    1    0    0    0 -0.26006554717E+02  0.62423230993E+01 -0.63295775426E+01  0.97515985777E+02  0.93562794124E+02 0.  0.
         13    1    3    3    0    0 -0.54775894405E+02  0.25449410895E+02 -0.14186506676E+02  0.62043043594E+02  0.10566000000E+00 0.  1.
         22    1    1    0    0    0  0.26006554717E+02 -0.62423230993E+01  0.63295775426E+01  0.27484014223E+02  0.00000000000E+00 0.  1.
</event>
<event>
 5    1  0.1325686E-009  0.9118800E+02  0.7818608E-02  0.1130116E+00
         25   -1    0    0    0    0  0.00000000000E+00  0.00000000000E+00  0.99999998245E-14  0.12500000000E+03  0.12500000000E+03 0.  0.
        -13    1    3    3    0    0  0.12102790079E+02  0.44222024550E+02 -0.16314896393E+02  0.48664689369E+02  0.10566000000E+00 0.  1.
         23    2    1    0    0    0  0.16575968991E+02  0.20336206911E+02  0.19755762642E+02  0.92157737333E+02  0.86107109655E+02 0.  0.
         13    1    3    3    0    0  0.44731789114E+01 -0.23885817639E+02  0.36070659036E+02  0.43493047964E+02  0.10566000000E+00 0. -1.
         22    1    1    0    0    0 -0.16575968991E+02 -0.20336206911E+02 -0.19755762642E+02  0.32842262667E+02  0.00000000000E+00 0.  1.
</event>
<event>
 5    1  0.1325686E-009  0.9118800E+02  0.7818608E-02  0.1130116E+00
         25   -1    0    0    0    0  0.00000000000E+00  0.00000000000E+00  0.99999998245E-14  0.12500000000E+03  0.12500000000E+03 0.  0.
        -13    1    3    3    0    0  0.98931119668E+01  0.30872059128E+02  0.40750784645E+02  0.52072980637E+02  0.10566000000E+00 0.  1.
         23    2    1    0    0    0 -0.40832606013E+01  0.30742793105E+02  0.12630349230E+01  0.93961514175E+02  0.88686969414E+02 0.  0.
         13    1    3    3    0    0 -0.13976372568E+02 -0.12926602288E+00 -0.39487749722E+02  0.41888533538E+02  0.10566000000E+00 0. -1.
         22    1    1    0    0    0  0.40832606013E+01 -0.30742793105E+02 -0.12630349230E+01  0.31038485825E+02  0.00000000000E+00 0.  1.
</event>
<event>
 5    1  0.1325686E-009  0.9118800E+02  0.7818608E-02  0.1130116E+00
         25   -1    0    0    0    0  0.00000000000E+00  0.00000000000E+00  0.99999998245E-14  0.12500000000E+03  0.12500000000E+03 0.  0.
        -13    1    3    3    0    0 -0.33820515760E+02  0.10016706438E+01 -0.20178057388E+02  0.39395377829E+02  0.10566000000E+00 0. -1.
         23    2    1    0    0    0 -0.16848621495E+01  0.13205497521E+02  0.25304776981E+02  0.96407069697E+02  0.92069362028E+02 0.  0.
         13    1    3    3    0    0  0.32135653610E+02  0.12203826877E+02  0.45482834369E+02  0.57011691868E+02  0.10566000000E+00 0.  1.
         22    1    1    0    0    0  0.16848621495E+01 -0.13205497521E+02 -0.25304776981E+02  0.28592930303E+02  0.00000000000E+00 0.  1.
</event>
<event>
 5    1  0.1325686E-009  0.9118800E+02  0.7818608E-02  0.1130116E+00
         25   -1    0    0    0    0  0.00000000000E+00  0.00000000000E+00  0.99999998245E-14  0.12500000000E+03  0.12500000000E+03 0.  0.
        -13    1    3    3    0    0 -0.12749348270E+02 -0.50856178922E+01 -0.33978473939E+02  0.36646381075E+02  0.10566000000E+00 0. -1.
         23    2    1    0    0    0 -0.11017632834E+01  0.25801363058E+02  0.14565516587E+02  0.95350742144E+02  0.90623868467E+02 0.  0.
         13    1    3    3    0    0  0.11647584987E+02  0.30886980950E+02  0.48543990526E+02  0.58704361069E+02  0.10566000000E+00 0.  1.
         22    1    1    0    0    0  0.11017632834E+01 -0.25801363058E+02 -0.14565516587E+02  0.29649257856E+02  0.00000000000E+00 0.  1.
</event>
<event>
 5    1  0.1325686E-009  0.9118800E+02  0.7818608E-02  0.1130116E+00
         25   -1    0    0    0    0  0.00000000000E+00  0.00000000000E+00  0.99999998245E-14  0.12500000000E+03  0.12500000000E+03 0.  0.
        -13    1    3    3    0    0  0.17194995976E+02 -0.47009289231E+02  0.17524202617E+02  0.53034422803E+02  0.10566000000E+00 0. -1.
         23    2    1    0    0    0  0.26212196795E+02 -0.48158131963E+01  0.69581434892E+01  0.97455725125E+02  0.93482251156E+02 0.  0.
         13    1    3    3    0    0  0.90172008192E+01  0.42193476034E+02 -0.10566059128E+02  0.44421302322E+02  0.10566000000E+00 0.  1.
         22    1    1    0    0    0 -0.26212196795E+02  0.48158131963E+01 -0.69581434892E+01  0.27544274875E+02  0.00000000000E+00 0. -1.
</event>
<event>
 5    1  0.1325686E-009  0.9118800E+02  0.7818608E-02  0.1130116E+00
         25   -1    0    0    0    0  0.00000000000E+00  0.00000000000E+00  0.99999998245E-14  0.12500000000E+03  0.12500000000E+03 0.  0.
        -13    1    3    3    0    0 -0.85751491537E+01 -0.44605409357E+02 -0.50489405313E+01  0.45702064411E+02  0.10566000000E+00 0.  1.
         23    2    1    0    0    0  0.26002668043E+02 -0.57572434511E+01  0.24813896504E+01  0.98252254448E+02  0.94541332824E+02 0.  0.
         13    1    3    3    0    0  0.34577817197E+02  0.38848165905E+02  0.75303301818E+01  0.52550190038E+02  0.10566000000E+00 0. -1.
         22    1    1    0    0    0 -0.26002668043E+02  0.57572434511E+01 -0.24813896504E+01  0.26747745552E+02  0.00000000000E+00 0. -1.
</event>
<event>
 5    1  0.1325686E-009  0.9118800E+02  0.7818608E-02  0.1130116E+00
         25   -1    0    0    0    0  0.00000000000E+00  0.00000000000E+00  0.99999998245E-14  0.12500000000E+03  0.12500000000E+03 0.  0.
        -13    1    3    3    0    0  0.33088294692E+02 -0.47992828809E+02  0.29398566367E+01  0.58367806056E+02  0.10566000000E+00 0.  1.
         23    2    1    0    0    0  0.14337407692E+01 -0.29503792395E+02  0.48008607107E+01  0.95073796735E+02  0.90241061518E+02 0.  0.
         13    1    3    3    0    0 -0.31654553922E+02  0.18489036414E+02  0.18610040740E+01  0.36705990679E+02  0.10566000000E+00 0. -1.
         22    1    1    0    0    0 -0.14337407692E+01  0.29503792395E+02 -0.48008607107E+01  0.29926203265E+02  0.00000000000E+00 0.  1.
</event>
<event>
 5    1  0.1325686E-009  0.9118800E+02  0.7818608E-02  0.1130116E+00
         25   -1    0    0    0    0  0.00000000000E+00  0.00000000000E+00  0.99999998245E-14  0.12500000000E+03  0.12500000000E+03 0.  0.
        -13    1    3    3    0    0  0.16502019855E+02  0.34734843048E+02 -0.22528746962E+02  0.44568840961E+02  0.10566000000E+00 0.  1.
         23    2    1    0    0    0  0.15939487294E+02 -0.88373033618E+00  0.19587993789E+02  0.99730695791E+02  0.96476286972E+02 0.  0.
         13    1    3    3    0    0 -0.56253256119E+00 -0.35618573384E+02  0.42116740751E+02  0.55161854831E+02  0.10566000000E+00 0. -1.
         22    1    1    0    0    0 -0.15939487294E+02  0.88373033618E+00 -0.19587993789E+02  0.25269304209E+02  0.00000000000E+00 0. -1.
</event>
<event>
 5    1  0.1325686E-009  0.9118800E+02  0.7818608E-02  0.1130116E+00
         25   -1    0    0    0    0  0.00000000000E+00  0.00000000000E+00  0.99999998245E-14  0.12500000000E+03  0.12500000000E+03 0.  0.
        -13    1    3    3    0    0  0.28624532742E+02  0.51856690034E+02 -0.91860953899E+01  0.59940601336E+02  0.10566000000E+00 0.  1.
         23    2    1    0    0    0  0.11038485119E+01  0.27891745415E+02 -0.41882440211E+01  0.96773960040E+02  0.92566138571E+02 0.  0.
         13    1    3    3    0    0 -0.27520684231E+02 -0.23964944619E+02  0.49978513687E+01  0.36833358704E+02  0.10566000000E+00 0. -1.
         22    1    1    0    0    0 -0.11038485119E+01 -0.27891745415E+02  0.41882440211E+01  0.28226039960E+02  0.00000000000E+00 0.  1.
</event>
<event>
 5    1  0.1325686E-009  0.9118800E+02  0.7818608E-02  0.1130116E+00
         25   -1    0    0    0    0  0.00000000000E+00  0.00000000000E+00  0.99999998245E-14  0.12500000000E+03  0.12500000000E+03 0.  0.
        -13    1    3    3    0    0 -0.50089695832E+02  0.46114534723E+01  0.19884068455E+02  0.54089097553E+02  0.10566000000E+00 0. -1.
         23    2    1    0    0    0 -0.24640596853E+02  0.11673679954E+02 -0.11759439338E+02  0.95306259406E+02  0.90562491416E+02 0.  0.
         13    1    3    3    0    0  0.25449098979E+02  0.70622264816E+01 -0.31643507793E+02  0.41217161853E+02  0.10566000000E+00 0.  1.
         22    1    1    0    0    0  0.24640596853E+02 -0.11673679954E+02  0.11759439338E+02  0.29693740594E+02  0.00000000000E+00 0. -1.
</event>
<event>
 5    1  0.1325686E-009  0.9118800E+02  0.7818608E-02  0.1130116E+00
         25   -1    0    0    0    0  0.00000000000E+00  0.00000000000E+00  0.99999998245E-14  0.12500000000E+03  0.12500000000E+03 0.  0.
        -13    1    3    3    0    0 -0.31623882666E+02  0.26720055499E+02  0.22870925516E+02  0.47298221095E+02  0.10566000000E+00 0. -1.
         23    2    1    0    0    0 -0.54261876797E+01  0.16136643211E+02 -0.20057978848E+02  0.98691117805E+02  0.95119816291E+02 0.  0.
         13    1    3    3    0    0  0.26197694987E+02 -0.10583412288E+02 -0.42928904364E+02  0.51392896710E+02  0.10566000000E+00 0.  1.
         22    1    1    0    0    0  0.54261876797E+01 -0.16136643211E+02  0.20057978848E+02  0.26308882195E+02  0.00000000000E+00 0.  1.
</event>
<event>
 5    1  0.1325686E-009  0.9118800E+02  0.7818608E-02  0.1130116E+00
         25   -1    0    0    0    0  0.00000000000E+00  0.00000000000E+00  0.99999998245E-14  0.12500000000E+03  0.12500000000E+03 0.  0.
        -13    1    3    3    0    0 -0.30089790730E+02 -0.39004396592E+02  0.16017589770E+01  0.49288084316E+02  0.10566000000E+00 0. -1.
         23    2    1    0    0    0 -0.13602354634E+02 -0.46392902177E+01  0.26526933464E+02  0.94830060254E+02  0.89902808985E+02 0.  0.
         13    1    3    3    0    0  0.16487436096E+02  0.34365106374E+02  0.24925174487E+02  0.45541975938E+02  0.10566000000E+00 0.  1.
         22    1    1    0    0    0  0.13602354634E+02  0.46392902177E+01 -0.26526933464E+02  0.30169939746E+02  0.00000000000E+00 0. -1.
</event>
<event>
 5    1  0.1325686E-009  0.9118800E+02  0.7818608E-02  0.1130116E+00
         25   -1    0    0    0    0  0.00000000000E+00  0.00000000000E+00  0.99999998245E-14  0.12500000000E+03  0.12500000000E+03 0.  0.
        -13    1    3    3    0    0  0.13465847277E+02 -0.22012471795E+02 -0.33797734069E+02  0.42522652194E+02  0.10566000000E+00 0. -1.
         23    2    1    0    0    0 -0.87380028976E+01 -0.23930610155E+02  0.14480089327E+02  0.95696420288E+02  0.91099424103E+02 0.  0.
         13    1    3    3    0    0 -0.22203850175E+02 -0.19181383602E+01  0.48277823396E+02  0.53173768093E+02  0.10566000000E+00 0.  1.
         22    1    1    0    0    0  0.87380028976E+01  0.23930610155E+02 -0.14480089327E+02  0.29303579712E+02  0.00000000000E+00 0.  1.
</event>
<event>
 5    1  0.1325686E-009  0.9118800E+02  0.7818608E-02  0.1130116E+00
         25   -1    0    0    0    0  0.00000000000E+00  0.00000000000E+00  0.99999998245E-14  0.12500000000E+03  0.12500000000E+03 0.  0.
        -13    1    3    3    0    0  0.41058682256E+01 -0.31857711273E+02 -0.15432805926E+02  0.35636422158E+02  0.10566000000E+00 0.  1.
         23    2    1    0    0    0 -0.54273451145E+01  0.15849262304E+02  0.22231958285E+02  0.97162702003E+02  0.93089610058E+02 0.  0.
         13    1    3    3    0    0 -0.95332133401E+01  0.47706973577E+02  0.37664764211E+02  0.61526279845E+02  0.10566000000E+00 0. -1.
         22    1    1    0    0    0  0.54273451145E+01 -0.15849262304E+02 -0.22231958285E+02  0.27837297997E+02  0.00000000000E+00 0. -1.
</event>
<event>
 5    1  0.1325686E-009  0.9118800E+02  0.7818608E-02  0.1130116E+00
         25   -1    0    0    0    0  0.00000000000E+00  0.00000000000E+00  0.99999998245E-14  0.12500000000E+03  0.12500000000E+03 0.  0.
        -13    1    3    3    0    0 -0.38416183107E+02  0.20781277860E+02  0.27530088929E+02  0.51629270714E+02  0.10566000000E+00 0.  1.
         23    2    1    0    0    0 -0.26353214923E+02  0.74940131917E+01 -0.12035658489E+02  0.95074939503E+02  0.90242644441E+02 0.  0.
         13    1    3    3    0    0  0.12062968184E+02 -0.13287264668E+02 -0.39565747418E+02  0.43445668789E+02  0.10566000000E+00 0. -1.
         22    1    1    0    0    0  0.26353214923E+02 -0.74940131917E+01  0.12035658489E+02  0.29925060497E+02  0.00000000000E+00 0.  1.
</event>
<event>
 5    1  0.1325686E-009  0.9118800E+02  0.7818608E-02  0.1130116E+00
         25   -1    0    0    0    0  0.00000000000E+00  0.00000000000E+00  0.99999998245E-14  0.12500000000E+03  0.12500000000E+03 0.  0.
        -13    1    3    3    0    0  0.30178139047E+01  0.19876623352E+02 -0.27464701547E+02  0.34036867537E+02  0.10566000000E+00 0. -1.
         23    2    1    0    0    0 -0.23476333449E+02 -0.21268657771E+02  0.52328211663E+01  0.92892735200E+02  0.87167561626E+02 0.  0.
         13    1    3    3    0    0 -0.26494147354E+02 -0.41145281123E+02  0.32697522713E+02  0.58855867663E+02  0.10566000000E+00 0.  1.
         22    1    1    0    0    0  0.23476333449E+02  0.21268657771E+02 -0.52328211663E+01  0.32107264800E+02  0.00000000000E+00 0.  1.
</event>
<event>
 5    1  0.1325686E-009  0.9118800E+02  0.7818608E-02  0.1130116E+00
         25   -1    0    0    0    0  0.00000000000E+00  0.00000000000E+00  0.99999998245E-14  0.12500000000E+03  0.12500000000E+03 0.  0.
        -13    1    3    3    0    0 -0.59324506894E+01  0.56626185860E+02  0.67146780858E+01  0.57330768022E+02  0.10566000000E+00 0. -1.
         23    2    1    0    0    0 -0.50505143019E+00  0.74596446058E+01  0.15704675041E+02  0.10760637494E+03  0.10619130725E+03 0.  0.
         13    1    3    3    0    0  0.54273992592E+01 -0.49166541254E+02  0.89899969554E+01  0.50275606917E+02  0.10566000000E+00 0.  1.
         22    1    1    0    0    0  0.50505143019E+00 -0.74596446058E+01 -0.15704675041E+02  0.17393625060E+02  0.00000000000E+00 0. -1.
</event>
<event>
 5    1  0.1325686E-009  0.9118800E+02  0.7818608E-02  0.1130116E+00
         25   -1    0    0    0    0  0.00000000000E+00  0.00000000000E+00  0.99999998245E-14  0.12500000000E+03  0.12500000000E+03 0.  0.
        -13    1    3    3    0    0 -0.32434328300E+02  0.29720442835E+01 -0.10572788750E+02  0.34243447921E+02  0.10566000000E+00 0. -1.
         23    2    1    0    0    0  0.24885820551E+02 -0.15636008420E+02 -0.78944049241E+01  0.94567937091E+02  0.89537613731E+02 0.  0.
         13    1    3    3    0    0  0.57320148851E+02 -0.18608052704E+02  0.26783838257E+01  0.60324489170E+02  0.10566000000E+00 0.  1.
         22    1    1    0    0    0 -0.24885820551E+02  0.15636008420E+02  0.78944049241E+01  0.30432062909E+02  0.00000000000E+00 0.  1.
</event>
<event>
 5    1  0.1325686E-009  0.9118800E+02  0.7818608E-02  0.1130116E+00
         25   -1    0    0    0    0  0.00000000000E+00  0.00000000000E+00  0.99999998245E-14  0.12500000000E+03  0.12500000000E+03 0.  0.
        -13    1    3    3    0    0 -0.92143718510E+01  0.11493801193E+02  0.31690183730E+02  0.34946974453E+02  0.10566000000E+00 0.  1.
         23    2    1    0    0    0  0.74473979774E+01 -0.29634417764E+02 -0.68084745215E+01  0.93694764365E+02  0.88310198116E+02 0.  0.
         13    1    3    3    0    0  0.16661769828E+02 -0.41128218957E+02 -0.38498658252E+02  0.58747789913E+02  0.10566000000E+00 0. -1.
         22    1    1    0    0    0 -0.74473979774E+01  0.29634417764E+02  0.68084745215E+01  0.31305235635E+02  0.00000000000E+00 0. -1.
</event>
<event>
 5    1  0.1325686E-009  0.9118800E+02  0.7818608E-02  0.1130116E+00
         25   -1    0    0    0    0  0.00000000000E+00  0.00000000000E+00  0.99999998245E-14  0.12500000000E+03  0.12500000000E+03 0.  0.
        -13    1    3    3    0    0 -0.11200976393E+02  0.26276024634E+02  0.40380635106E+02  0.49462088495E+02  0.10566000000E+00 0.  1.
         23    2    1    0    0    0 -0.12284957704E+02  0.27081818218E+02 -0.49843009308E+01  0.94847250216E+02  0.89926706567E+02 0.  0.
         13    1    3    3    0    0 -0.10839813107E+01  0.80579358368E+00 -0.45364936036E+02  0.45385161721E+02  0.10566000000E+00 0. -1.
         22    1    1    0    0    0  0.12284957704E+02 -0.27081818218E+02  0.49843009308E+01  0.30152749784E+02  0.00000000000E+00 0. -1.
</event>
<event>
 5    1  0.1325686E-009  0.9118800E+02  0.7818608E-02  0.1130116E+00
         25   -1    0    0    0    0  0.00000000000E+00  0.00000000000E+00  0.99999998245E-14  0.12500000000E+03  0.12500000000E+03 0.  0.
        -13    1    3    3    0    0 -0.21587041974E+02  0.12960287216E+02  0.22768055695E+02  0.33946501294E+02  0.10566000000E+00 0.  1.
         23    2    1    0    0    0  0.23841902084E+02 -0.10588851707E+02 -0.12479229144E+02  0.96081299554E+02  0.91626005525E+02 0.  0.
         13    1    3    3    0    0  0.45428944059E+02 -0.23549138923E+02 -0.35247284839E+02  0.62134798260E+02  0.10566000000E+00 0. -1.
         22    1    1    0    0    0 -0.23841902084E+02  0.10588851707E+02  0.12479229144E+02  0.28918700446E+02  0.00000000000E+00 0. -1.
</event>
<event>
 5    1  0.1325686E-009  0.9118800E+02  0.7818608E-02  0.1130116E+00
         25   -1    0    0    0    0  0.00000000000E+00  0.00000000000E+00  0.99999998245E-14  0.12500000000E+03  0.12500000000E+03 0.  0.
        -13    1    3    3    0    0  0.55861465948E+02  0.14748125845E+02 -0.15866127945E+02  0.59914570631E+02  0.10566000000E+00 0. -1.
         23    2    1    0    0    0  0.32073839139E+02  0.12715149256E+02  0.30338551753E+01  0.90364606903E+02  0.83463475400E+02 0.  0.
         13    1    3    3    0    0 -0.23787626809E+02 -0.20329765895E+01  0.18899983121E+02  0.30450036273E+02  0.10566000000E+00 0.  1.
         22    1    1    0    0    0 -0.32073839139E+02 -0.12715149256E+02 -0.30338551753E+01  0.34635393097E+02  0.00000000000E+00 0. -1.
</event>
<event>
 5    1  0.1325686E-009  0.9118800E+02  0.7818608E-02  0.1130116E+00
         25   -1    0    0    0    0  0.00000000000E+00  0.00000000000E+00  0.99999998245E-14  0.12500000000E+03  0.12500000000E+03 0.  0.
        -13    1    3    3    0    0 -0.82687102274E+01 -0.33279257404E+01  0.27684952217E+02  0.29084607645E+02  0.10566000000E+00 0.  1.
         23    2    1    0    0    0 -0.30964813976E+02  0.10587865791E+02 -0.22079667972E+02  0.85522989673E+02  0.75866642328E+02 0.  0.
         13    1    3    3    0    0 -0.22696103749E+02  0.13915791532E+02 -0.49764620189E+02  0.56438382028E+02  0.10566000000E+00 0. -1.
         22    1    1    0    0    0  0.30964813976E+02 -0.10587865791E+02  0.22079667972E+02  0.39477010327E+02  0.00000000000E+00 0. -1.
</event>
<event>
 5    1  0.1325686E-009  0.9118800E+02  0.7818608E-02  0.1130116E+00
         25   -1    0    0    0    0  0.00000000000E+00  0.00000000000E+00  0.99999998245E-14  0.12500000000E+03  0.12500000000E+03 0.  0.
        -13    1    3    3    0    0 -0.28633491312E+02 -0.21681152618E+02  0.43104053065E+02  0.56106325474E+02  0.10566000000E+00 0. -1.
         23    2    1    0    0    0 -0.18127278283E+02 -0.23541713872E+02  0.60341458214E+01  0.94681335357E+02  0.89695784957E+02 0.  0.
         13    1    3    3    0    0  0.10506213029E+02 -0.18605612540E+01 -0.37069907243E+02  0.38575009883E+02  0.10566000000E+00 0.  1.
         22    1    1    0    0    0  0.18127278283E+02  0.23541713872E+02 -0.60341458214E+01  0.30318664643E+02  0.00000000000E+00 0. -1.
</event>
<event>
 5    1  0.1325686E-009  0.9118800E+02  0.7818608E-02  0.1130116E+00
         25   -1    0    0    0    0  0.00000000000E+00  0.00000000000E+00  0.99999998245E-14  0.12500000000E+03  0.12500000000E+03 0.  0.
        -13    1    3    3    0    0 -0.54174666623E+00 -0.28846414728E+02 -0.20945179171E+02  0.35652781472E+02  0.10566000000E+00 0.  1.
         23    2    1    0    0    0  0.44025305493E+01  0.28679182576E+02 -0.49452722097E+01  0.95566456114E+02  0.90920921842E+02 0.  0.
         13    1    3    3    0    0  0.49442772155E+01  0.57525597304E+02  0.15999906962E+02  0.59913674642E+02  0.10566000000E+00 0. -1.
         22    1    1    0    0    0 -0.44025305493E+01 -0.28679182576E+02  0.49452722097E+01  0.29433543886E+02  0.00000000000E+00 0. -1.
</event>
<event>
 5    1  0.1325686E-009  0.9118800E+02  0.7818608E-02  0.1130116E+00
         25   -1    0    0    0    0  0.00000000000E+00  0.00000000000E+00  0.99999998245E-14  0.12500000000E+03  0.12500000000E+03 0.  0.
        -13    1    3    3    0    0  0.11250725721E+02 -0.33291040209E+02  0.19072966152E+02  0.39983263865E+02  0.10566000000E+00 0. -1.
         23    2    1    0    0    0  0.97720088810E+01 -0.70601955647E+01 -0.28347537725E+02  0.94195431929E+02  0.89016054632E+02 0.  0.
         13    1    3    3    0    0 -0.14787168396E+01  0.26230844644E+02 -0.47420503877E+02  0.54212168064E+02  0.10566000000E+00 0.  1.
         22    1    1    0    0    0 -0.97720088810E+01  0.70601955647E+01  0.28347537725E+02  0.30804568071E+02  0.00000000000E+00 0.  1.
</event>
<event>
 5    1  0.1325686E-009  0.9118800E+02  0.7818608E-02  0.1130116E+00
         25   -1    0    0    0    0  0.00000000000E+00  0.00000000000E+00  0.99999998245E-14  0.12500000000E+03  0.12500000000E+03 0.  0.
        -13    1    3    3    0    0  0.30591158358E+02 -0.31337950650E+02  0.54673816614E+01  0.44133768782E+02  0.10566000000E+00 0.  1.
         23    2    1    0    0    0  0.13632557607E+02  0.92223738946E+01 -0.23153663531E+02  0.96592414005E+02  0.92320655875E+02 0.  0.
         13    1    3    3    0    0 -0.16958600751E+02  0.40560324545E+02 -0.28621045193E+02  0.52458645223E+02  0.10566000000E+00 0. -1.
         22    1    1    0    0    0 -0.13632557607E+02 -0.92223738946E+01  0.23153663531E+02  0.28407585995E+02  0.00000000000E+00 0. -1.
</event>
<event>
 5    1  0.1325686E-009  0.9118800E+02  0.7818608E-02  0.1130116E+00
         25   -1    0    0    0    0  0.00000000000E+00  0.00000000000E+00  0.99999998245E-14  0.12500000000E+03  0.12500000000E+03 0.  0.
        -13    1    3    3    0    0 -0.36184510826E+02  0.37734010961E+01  0.45238632504E+02  0.58052583185E+02  0.10566000000E+00 0.  1.
         23    2    1    0    0    0 -0.27447534097E+02  0.41929099624E+01  0.82895708380E+01  0.96023033171E+02  0.91546481597E+02 0.  0.
         13    1    3    3    0    0  0.87369767297E+01  0.41950886631E+00 -0.36949061666E+02  0.37970449986E+02  0.10566000000E+00 0. -1.
         22    1    1    0    0    0  0.27447534097E+02 -0.41929099624E+01 -0.82895708380E+01  0.28976966829E+02  0.00000000000E+00 0.  1.
</event>
<event>
 5    1  0.1325686E-009  0.9118800E+02  0.7818608E-02  0.1130116E+00
         25   -1    0    0    0    0  0.00000000000E+00  0.00000000000E+00  0.99999998245E-14  0.12500000000E+03  0.12500000000E+03 0.  0.
        -13    1    3    3    0    0 -0.25130149620E+02  0.25651301690E+02  0.44374465992E+02  0.57084306901E+02  0.10566000000E+00 0. -1.
         23    2    1    0    0    0 -0.18964729567E+02 -0.52138279074E+01  0.20508187238E+02  0.96584674685E+02  0.92310176423E+02 0.  0.
         13    1    3    3    0    0  0.61654200530E+01 -0.30865129597E+02 -0.23866278754E+02  0.39500367784E+02  0.10566000000E+00 0.  1.
         22    1    1    0    0    0  0.18964729567E+02  0.52138279074E+01 -0.20508187238E+02  0.28415325315E+02  0.00000000000E+00 0. -1.
</event>
<event>
 5    1  0.1325686E-009  0.9118800E+02  0.7818608E-02  0.1130116E+00
         25   -1    0    0    0    0  0.00000000000E+00  0.00000000000E+00  0.99999998245E-14  0.12500000000E+03  0.12500000000E+03 0.  0.
        -13    1    3    3    0    0 -0.80478992112E+01 -0.17747365870E+02 -0.51174287209E+02  0.54759076986E+02  0.10566000000E+00 0.  1.
         23    2    1    0    0    0  0.18324262425E+02 -0.80291123038E+01 -0.21604617856E+02  0.95555055604E+02  0.90905246829E+02 0.  0.
         13    1    3    3    0    0  0.26372161636E+02  0.97182535659E+01  0.29569669353E+02  0.40795978618E+02  0.10566000000E+00 0. -1.
         22    1    1    0    0    0 -0.18324262425E+02  0.80291123038E+01  0.21604617856E+02  0.29444944396E+02  0.00000000000E+00 0.  1.
</event>
<event>
 5    1  0.1325686E-009  0.9118800E+02  0.7818608E-02  0.1130116E+00
         25   -1    0    0    0    0  0.00000000000E+00  0.00000000000E+00  0.99999998245E-14  0.12500000000E+03  0.12500000000E+03 0.  0.
        -13    1    3    3    0    0  0.52799312915E+02 -0.10112513047E+02 -0.17612931311E+02  0.56570812950E+02  0.10566000000E+00 0. -1.
         23    2    1    0    0    0  0.13019423274E+02 -0.46642374830E+01 -0.24071715352E+02  0.97238372280E+02  0.93191164120E+02 0.  0.
         13    1    3    3    0    0 -0.39779889642E+02  0.54482755644E+01 -0.64587840415E+01  0.40667559330E+02  0.10566000000E+00 0.  1.
         22    1    1    0    0    0 -0.13019423274E+02  0.46642374830E+01  0.24071715352E+02  0.27761627720E+02  0.00000000000E+00 0. -1.
</event>
<event>
 5    1  0.1325686E-009  0.9118800E+02  0.7818608E-02  0.1130116E+00
         25   -1    0    0    0    0  0.00000000000E+00  0.00000000000E+00  0.99999998245E-14  0.12500000000E+03  0.12500000000E+03 0.  0.
        -13    1    3    3    0    0  0.34944547509E+02  0.15441159332E+02  0.50855071332E+00  0.38207598590E+02  0.10566000000E+00 0.  1.
         23    2    1    0    0    0 -0.51737757366E+01 -0.11323338568E+02 -0.28088945922E+02  0.94275826542E+02  0.89128876552E+02 0.  0.
         13    1    3    3    0    0 -0.40118323246E+02 -0.26764497900E+02 -0.28597496635E+02  0.56068227952E+02  0.10566000000E+00 0. -1.
         22    1    1    0    0    0  0.51737757366E+01  0.11323338568E+02  0.28088945922E+02  0.30724173458E+02  0.00000000000E+00 0. -1.
</event>
<event>
 5    1  0.1325686E-009  0.9118800E+02  0.7818608E-02  0.1130116E+00
         25   -1    0    0    0    0  0.00000000000E+00  0.00000000000E+00  0.99999998245E-14  0.12500000000E+03  0.12500000000E+03 0.  0.
        -13    1    3    3    0    0  0.47565968716E+02 -0.36987666889E+02  0.14608411209E+02  0.62000207450E+02  0.10566000000E+00 0. -1.
         23    2    1    0    0    0  0.17091704695E+02 -0.20199408547E+02  0.53399863937E+01  0.98006335378E+02  0.94215624206E+02 0.  0.
         13    1    3    3    0    0 -0.30474264021E+02  0.16788258342E+02 -0.92684248152E+01  0.36006127928E+02  0.10566000000E+00 0.  1.
         22    1    1    0    0    0 -0.17091704695E+02  0.20199408547E+02 -0.53399863937E+01  0.26993664622E+02  0.00000000000E+00 0. -1.
</event>
<event>
 5    1  0.1325686E-009  0.9118800E+02  0.7818608E-02  0.1130116E+00
         25   -1    0    0    0    0  0.00000000000E+00  0.00000000000E+00  0.99999998245E-14  0.12500000000E+03  0.12500000000E+03 0.  0.
        -13    1    3    3    0    0  0.16632312711E+02  0.90002225414E+01  0.28830389542E+02  0.34479564340E+02  0.10566000000E+00 0.  1.
         23    2    1    0    0    0 -0.24115158264E+02  0.26685058274E+02 -0.26683308221E+01  0.88934043995E+02  0.81292748746E+02 0.  0.
         13    1    3    3    0    0 -0.40747470975E+02  0.17684835733E+02 -0.31498720364E+02  0.54454479654E+02  0.10566000000E+00 0. -1.
         22    1    1    0    0    0  0.24115158264E+02 -0.26685058274E+02  0.26683308221E+01  0.36065956005E+02  0.00000000000E+00 0. -1.
</event>
<event>
 5    1  0.1325686E-009  0.9118800E+02  0.7818608E-02  0.1130116E+00
         25   -1    0    0    0    0  0.00000000000E+00  0.00000000000E+00  0.99999998245E-14  0.12500000000E+03  0.12500000000E+03 0.  0.
        -13    1    3    3    0    0 -0.71867094177E+01  0.41583459559E+00 -0.56190428259E+02  0.56649775839E+02  0.10566000000E+00 0. -1.
         23    2    1    0    0    0  0.13727950579E+02  0.86497300798E+01 -0.27123063884E+02  0.93394066190E+02  0.87883539685E+02 0.  0.
         13    1    3    3    0    0  0.20914659997E+02  0.82338954842E+01  0.29067364375E+02  0.36744290351E+02  0.10566000000E+00 0.  1.
         22    1    1    0    0    0 -0.13727950579E+02 -0.86497300798E+01  0.27123063884E+02  0.31605933810E+02  0.00000000000E+00 0. -1.
</event>
<event>
 5    1  0.1325686E-009  0.9118800E+02  0.7818608E-02  0.1130116E+00
         25   -1    0    0    0    0  0.00000000000E+00  0.00000000000E+00  0.99999998245E-14  0.12500000000E+03  0.12500000000E+03 0.  0.
        -13    1    3    3    0    0  0.23299472136E+02  0.36070158007E+02  0.40715721152E+02  0.59175187481E+02  0.10566000000E+00 0. -1.
         23    2    1    0    0    0 -0.12784023959E+01  0.24527843190E+02  0.18790632871E+02  0.94075296478E+02  0.88847195338E+02 0.  0.
         13    1    3    3    0    0 -0.24577874532E+02 -0.11542314817E+02 -0.21925088280E+02  0.34900108997E+02  0.10566000000E+00 0.  1.
         22    1    1    0    0    0  0.12784023959E+01 -0.24527843190E+02 -0.18790632871E+02  0.30924703522E+02  0.00000000000E+00 0. -1.
</event>
<event>
 5    1  0.1325686E-009  0.9118800E+02  0.7818608E-02  0.1130116E+00
         25   -1    0    0    0    0  0.00000000000E+00  0.00000000000E+00  0.99999998245E-14  0.12500000000E+03  0.12500000000E+03 0.  0.
        -13    1    3    3    0    0  0.24521474263E+02  0.29953792686E+00  0.26976608756E+02  0.36457386179E+02  0.10566000000E+00 0. -1.
         23    2    1    0    0    0 -0.29282000679E+02  0.47142514838E+01  0.42198062890E+01  0.95042254825E+02  0.90197359752E+02 0.  0.
         13    1    3    3    0    0 -0.53803474943E+02  0.44147135569E+01 -0.22756802467E+02  0.58584868646E+02  0.10566000000E+00 0.  1.
         22    1    1    0    0    0  0.29282000679E+02 -0.47142514838E+01 -0.42198062890E+01  0.29957745175E+02  0.00000000000E+00 0.  1.
</event>
<event>
 5    1  0.1325686E-009  0.9118800E+02  0.7818608E-02  0.1130116E+00
         25   -1    0    0    0    0  0.00000000000E+00  0.00000000000E+00  0.99999998245E-14  0.12500000000E+03  0.12500000000E+03 0.  0.
        -13    1    3    3    0    0  0.11296724067E+02 -0.28263173208E+01 -0.57997759284E+02  0.59155348788E+02  0.10566000000E+00 0. -1.
         23    2    1    0    0    0  0.56514919033E+00 -0.14923778029E+02 -0.25693108130E+02  0.95281750562E+02  0.90528656460E+02 0.  0.
         13    1    3    3    0    0 -0.10731574876E+02 -0.12097460709E+02  0.32304651154E+02  0.36126401774E+02  0.10566000000E+00 0.  1.
         22    1    1    0    0    0 -0.56514919033E+00  0.14923778029E+02  0.25693108130E+02  0.29718249438E+02  0.00000000000E+00 0. -1.
</event>
<event>
 5    1  0.1325686E-009  0.9118800E+02  0.7818608E-02  0.1130116E+00
         25   -1    0    0    0    0  0.00000000000E+00  0.00000000000E+00  0.99999998245E-14  0.12500000000E+03  0.12500000000E+03 0.  0.
        -13    1    3    3    0    0  0.31573957216E+02 -0.42009856472E+02 -0.24407439314E+02  0.57943740585E+02  0.10566000000E+00 0. -1.
         23    2    1    0    0    0  0.23988871861E+02 -0.47990575692E+01 -0.10309402345E+02  0.98452293820E+02  0.94805450556E+02 0.  0.
         13    1    3    3    0    0 -0.75850853551E+01  0.37210798903E+02  0.14098036969E+02  0.40508553236E+02  0.10566000000E+00 0.  1.
         22    1    1    0    0    0 -0.23988871861E+02  0.47990575692E+01  0.10309402345E+02  0.26547706180E+02  0.00000000000E+00 0. -1.
</event>
<event>
 5    1  0.1325686E-009  0.9118800E+02  0.7818608E-02  0.1130116E+00
         25   -1    0    0    0    0  0.00000000000E+00  0.00000000000E+00  0.99999998245E-14  0.12500000000E+03  0.12500000000E+03 0.  0.
        -13    1    3    3    0    0  0.26194183756E+02 -0.28690831513E+02  0.16889552008E+02  0.42362332403E+02  0.10566000000E+00 0.  1.
         23    2    1    0    0    0  0.18180977576E+02  0.11730524125E+02 -0.18385592204E+02  0.96606635589E+02  0.92339909558E+02 0.  0.
         13    1    3    3    0    0 -0.80132061800E+01  0.40421355638E+02 -0.35275144212E+02  0.54244303186E+02  0.10566000000E+00 0. -1.
         22    1    1    0    0    0 -0.18180977576E+02 -0.11730524125E+02  0.18385592204E+02  0.28393364411E+02  0.00000000000E+00 0. -1.
</event>
<event>
 5    1  0.1325686E-009  0.9118800E+02  0.7818608E-02  0.1130116E+00
         25   -1    0    0    0    0  0.00000000000E+00  0.00000000000E+00  0.99999998245E-14  0.12500000000E+03  0.12500000000E+03 0.  0.
        -13    1    3    3    0    0  0.43723744551E+02  0.31496065349E+02 -0.45409709751E+01  0.54077717699E+02  0.10566000000E+00 0. -1.
         23    2    1    0    0    0  0.18486442394E+02  0.13105622892E+02  0.20759451878E+02  0.94267919920E+02  0.89117787113E+02 0.  0.
         13    1    3    3    0    0 -0.25237302157E+02 -0.18390442458E+02  0.25300422854E+02  0.40190202221E+02  0.10566000000E+00 0.  1.
         22    1    1    0    0    0 -0.18486442394E+02 -0.13105622892E+02 -0.20759451878E+02  0.30732080080E+02  0.00000000000E+00 0. -1.
</event>
<event>
 5    1  0.1325686E-009  0.9118800E+02  0.7818608E-02  0.1130116E+00
         25   -1    0    0    0    0  0.00000000000E+00  0.00000000000E+00  0.99999998245E-14  0.12500000000E+03  0.12500000000E+03 0.  0.
        -13    1    3    3    0    0  0.91868155834E+01 -0.45739311832E+01 -0.42133331114E+02  0.43365276222E+02  0.10566000000E+00 0. -1.
         23    2    1    0    0    0 -0.26078051489E+02 -0.69585953887E+01 -0.46505437005E+00  0.98005498804E+02  0.94214514280E+02 0.  0.
         13    1    3    3    0    0 -0.35264867072E+02 -0.23846642055E+01  0.41668276744E+02  0.54640222582E+02  0.10566000000E+00 0.  1.
         22    1    1    0    0    0  0.26078051489E+02  0.69585953887E+01  0.46505437005E+00  0.26994501196E+02  0.00000000000E+00 0.  1.
</event>
<event>
 5    1  0.1325686E-009  0.9118800E+02  0.7818608E-02  0.1130116E+00
         25   -1    0    0    0    0  0.00000000000E+00  0.00000000000E+00  0.99999998245E-14  0.12500000000E+03  0.12500000000E+03 0.  0.
        -13    1    3    3    0    0  0.33996904001E+02 -0.44136310888E+02 -0.12212830955E+02  0.57034794857E+02  0.10566000000E+00 0. -1.
         23    2    1    0    0    0  0.20778267584E+02 -0.19952759890E+02 -0.24474426038E+02  0.87199913216E+02  0.78581030179E+02 0.  0.
         13    1    3    3    0    0 -0.13218636417E+02  0.24183550998E+02 -0.12261595082E+02  0.30165118359E+02  0.10566000000E+00 0.  1.
         22    1    1    0    0    0 -0.20778267584E+02  0.19952759890E+02  0.24474426038E+02  0.37800086784E+02  0.00000000000E+00 0. -1.
</event>
<event>
 5    1  0.1325686E-009  0.9118800E+02  0.7818608E-02  0.1130116E+00
         25   -1    0    0    0    0  0.00000000000E+00  0.00000000000E+00  0.99999998245E-14  0.12500000000E+03  0.12500000000E+03 0.  0.
        -13    1    3    3    0    0  0.21570372010E+02  0.11807401508E+02 -0.38305779359E+02  0.45519661415E+02  0.10566000000E+00 0. -1.
         23    2    1    0    0    0  0.19134850830E+02 -0.22202635312E+02 -0.15602337998E+01  0.95648102947E+02  0.91033102423E+02 0.  0.
         13    1    3    3    0    0 -0.24355211802E+01 -0.34010036820E+02  0.36745545559E+02  0.50128441532E+02  0.10566000000E+00 0.  1.
         22    1    1    0    0    0 -0.19134850830E+02  0.22202635312E+02  0.15602337998E+01  0.29351897053E+02  0.00000000000E+00 0.  1.
</event>
<event>
 5    1  0.1325686E-009  0.9118800E+02  0.7818608E-02  0.1130116E+00
         25   -1    0    0    0    0  0.00000000000E+00  0.00000000000E+00  0.99999998245E-14  0.12500000000E+03  0.12500000000E+03 0.  0.
        -13    1    3    3    0    0 -0.10496173395E+02 -0.22678213764E+02 -0.26384388865E+02  0.36340310611E+02  0.10566000000E+00 0.  1.
         23    2    1    0    0    0 -0.37741415038E+01  0.28513365748E+02  0.35471183925E+01  0.96020037625E+02  0.91542391307E+02 0.  0.
         13    1    3    3    0    0  0.67220318915E+01  0.51191579512E+02  0.29931507258E+02  0.59679727014E+02  0.10566000000E+00 0. -1.
         22    1    1    0    0    0  0.37741415038E+01 -0.28513365748E+02 -0.35471183925E+01  0.28979962375E+02  0.00000000000E+00 0. -1.
</event>
<event>
 5    1  0.1325686E-009  0.9118800E+02  0.7818608E-02  0.1130116E+00
         25   -1    0    0    0    0  0.00000000000E+00  0.00000000000E+00  0.99999998245E-14  0.12500000000E+03  0.12500000000E+03 0.  0.
        -13    1    3    3    0    0 -0.31526821455E+02 -0.19482454064E+02 -0.45702376083E+02  0.58840673272E+02  0.10566000000E+00 0. -1.
         23    2    1    0    0    0 -0.18783126510E+02 -0.17465212688E+02 -0.88805408591E+01  0.97857717456E+02  0.94018239529E+02 0.  0.
         13    1    3    3    0    0  0.12743694945E+02  0.20172413757E+01  0.36821835224E+02  0.39017044185E+02  0.10566000000E+00 0.  1.
         22    1    1    0    0    0  0.18783126510E+02  0.17465212688E+02  0.88805408591E+01  0.27142282544E+02  0.00000000000E+00 0. -1.
</event>
<event>
 5    1  0.1325686E-009  0.9118800E+02  0.7818608E-02  0.1130116E+00
         25   -1    0    0    0    0  0.00000000000E+00  0.00000000000E+00  0.99999998245E-14  0.12500000000E+03  0.12500000000E+03 0.  0.
        -13    1    3    3    0    0  0.53076573294E+02 -0.72088720362E+00  0.14243538071E+02  0.54959365461E+02  0.10566000000E+00 0. -1.
         23    2    1    0    0    0  0.13196303933E+02 -0.84695570621E+01  0.23615659898E+02  0.96652597531E+02  0.92402107025E+02 0.  0.
         13    1    3    3    0    0 -0.39880269361E+02 -0.77486698585E+01  0.93721218266E+01  0.41693232070E+02  0.10566000000E+00 0.  1.
         22    1    1    0    0    0 -0.13196303933E+02  0.84695570621E+01 -0.23615659898E+02  0.28347402469E+02  0.00000000000E+00 0. -1.
</event>
<event>
 5    1  0.1325686E-009  0.9118800E+02  0.7818608E-02  0.1130116E+00
         25   -1    0    0    0    0  0.00000000000E+00  0.00000000000E+00  0.99999998245E-14  0.12500000000E+03  0.12500000000E+03 0.  0.
        -13    1    3    3    0    0  0.15261094117E+02  0.59717331057E+02 -0.31562002320E+01  0.61717366973E+02  0.10566000000E+00 0.  1.
         23    2    1    0    0    0  0.77532539813E+01  0.28547489976E+02  0.54652143379E+01  0.94917767719E+02  0.90024674006E+02 0.  0.
         13    1    3    3    0    0 -0.75078401355E+01 -0.31169841080E+02  0.86214145699E+01  0.33200400746E+02  0.10566000000E+00 0. -1.
         22    1    1    0    0    0 -0.77532539813E+01 -0.28547489976E+02 -0.54652143379E+01  0.30082232281E+02  0.00000000000E+00 0.  1.
</event>
<event>
 5    1  0.1325686E-009  0.9118800E+02  0.7818608E-02  0.1130116E+00
         25   -1    0    0    0    0  0.00000000000E+00  0.00000000000E+00  0.99999998245E-14  0.12500000000E+03  0.12500000000E+03 0.  0.
        -13    1    3    3    0    0 -0.21585643555E+02  0.13044305195E+02  0.30564514251E+02  0.39626942868E+02  0.10566000000E+00 0. -1.
         23    2    1    0    0    0  0.28365169349E+02  0.15634814363E+01  0.12392830886E+02  0.94006297998E+02  0.88750067603E+02 0.  0.
         13    1    3    3    0    0  0.49950812904E+02 -0.11480823758E+02 -0.18171683365E+02  0.54379355130E+02  0.10566000000E+00 0.  1.
         22    1    1    0    0    0 -0.28365169349E+02 -0.15634814363E+01 -0.12392830886E+02  0.30993702002E+02  0.00000000000E+00 0.  1.
</event>
<event>
 5    1  0.1325686E-009  0.9118800E+02  0.7818608E-02  0.1130116E+00
         25   -1    0    0    0    0  0.00000000000E+00  0.00000000000E+00  0.99999998245E-14  0.12500000000E+03  0.12500000000E+03 0.  0.
        -13    1    3    3    0    0  0.25926408134E+02 -0.20814403457E+02 -0.65751711809E+01  0.33891917474E+02  0.10566000000E+00 0.  1.
         23    2    1    0    0    0 -0.28958704953E+02  0.62635159338E+01 -0.34267435164E+01  0.95174158930E+02  0.90379974179E+02 0.  0.
         13    1    3    3    0    0 -0.54885113087E+02  0.27077919390E+02  0.31484276644E+01  0.61282241456E+02  0.10566000000E+00 0. -1.
         22    1    1    0    0    0  0.28958704953E+02 -0.62635159338E+01  0.34267435164E+01  0.29825841070E+02  0.00000000000E+00 0. -1.
</event>
<event>
 5    1  0.1325686E-009  0.9118800E+02  0.7818608E-02  0.1130116E+00
         25   -1    0    0    0    0  0.00000000000E+00  0.00000000000E+00  0.99999998245E-14  0.12500000000E+03  0.12500000000E+03 0.  0.
        -13    1    3    3    0    0  0.58198952516E+00  0.42050398641E+02 -0.21180034990E+02  0.47086938570E+02  0.10566000000E+00 0. -1.
         23    2    1    0    0    0  0.26563002326E+02  0.11032753990E+02  0.57191877919E+01  0.95673836559E+02  0.91068431082E+02 0.  0.
         13    1    3    3    0    0  0.25981012801E+02 -0.31017644651E+02  0.26899222782E+02  0.48586897989E+02  0.10566000000E+00 0.  1.
         22    1    1    0    0    0 -0.26563002326E+02 -0.11032753990E+02 -0.57191877919E+01  0.29326163441E+02  0.00000000000E+00 0. -1.
</event>
<event>
 5    1  0.1325686E-009  0.9118800E+02  0.7818608E-02  0.1130116E+00
         25   -1    0    0    0    0  0.00000000000E+00  0.00000000000E+00  0.99999998245E-14  0.12500000000E+03  0.12500000000E+03 0.  0.
        -13    1    3    3    0    0  0.20562104586E+02  0.39765021298E+01  0.25655992536E+02  0.33118783662E+02  0.10566000000E+00 0.  1.
         23    2    1    0    0    0 -0.44778556430E+01 -0.77607045083E+01 -0.29148602440E+02  0.94505398021E+02  0.89450262746E+02 0.  0.
         13    1    3    3    0    0 -0.25039960229E+02 -0.11737206638E+02 -0.54804594977E+02  0.61386614359E+02  0.10566000000E+00 0. -1.
         22    1    1    0    0    0  0.44778556430E+01  0.77607045083E+01  0.29148602440E+02  0.30494601979E+02  0.00000000000E+00 0. -1.
</event>
<event>
 5    1  0.1325686E-009  0.9118800E+02  0.7818608E-02  0.1130116E+00
         25   -1    0    0    0    0  0.00000000000E+00  0.00000000000E+00  0.99999998245E-14  0.12500000000E+03  0.12500000000E+03 0.  0.
        -13    1    3    3    0    0 -0.40702491789E+02 -0.23766973259E+02 -0.21896585734E+01  0.47184400223E+02  0.10566000000E+00 0.  1.
         23    2    1    0    0    0 -0.19328925891E+02  0.15993825372E+02  0.15321504779E+02  0.95603429880E+02  0.90971739953E+02 0.  0.
         13    1    3    3    0    0  0.21373565899E+02  0.39760798630E+02  0.17511163352E+02  0.48419029657E+02  0.10566000000E+00 0. -1.
         22    1    1    0    0    0  0.19328925891E+02 -0.15993825372E+02 -0.15321504779E+02  0.29396570120E+02  0.00000000000E+00 0. -1.
</event>
<event>
 5    1  0.1325686E-009  0.9118800E+02  0.7818608E-02  0.1130116E+00
         25   -1    0    0    0    0  0.00000000000E+00  0.00000000000E+00  0.99999998245E-14  0.12500000000E+03  0.12500000000E+03 0.  0.
        -13    1    3    3    0    0 -0.34194441106E+02  0.15029777882E+02  0.44356973832E+02  0.57988846491E+02  0.10566000000E+00 0.  1.
         23    2    1    0    0    0 -0.17768804940E+02 -0.95106174344E+01  0.22917568128E+02  0.94481199206E+02  0.89416440332E+02 0.  0.
         13    1    3    3    0    0  0.16425636166E+02 -0.24540395316E+02 -0.21439405704E+02  0.36492352716E+02  0.10566000000E+00 0. -1.
         22    1    1    0    0    0  0.17768804940E+02  0.95106174344E+01 -0.22917568128E+02  0.30518800794E+02  0.00000000000E+00 0.  1.
</event>
<event>
 5    1  0.1325686E-009  0.9118800E+02  0.7818608E-02  0.1130116E+00
         25   -1    0    0    0    0  0.00000000000E+00  0.00000000000E+00  0.99999998245E-14  0.12500000000E+03  0.12500000000E+03 0.  0.
        -13    1    3    3    0    0  0.36370041108E+02 -0.30337172789E+02  0.20456270014E+02  0.51590639557E+02  0.10566000000E+00 0. -1.
         23    2    1    0    0    0  0.44172941772E+01 -0.17829291799E+01  0.29274043480E+02  0.95340921356E+02  0.90610321371E+02 0.  0.
         13    1    3    3    0    0 -0.31952746931E+02  0.28554243609E+02  0.88177734667E+01  0.43750281799E+02  0.10566000000E+00 0.  1.
         22    1    1    0    0    0 -0.44172941772E+01  0.17829291799E+01 -0.29274043480E+02  0.29659078644E+02  0.00000000000E+00 0. -1.
</event>
<event>
 5    1  0.1325686E-009  0.9118800E+02  0.7818608E-02  0.1130116E+00
         25   -1    0    0    0    0  0.00000000000E+00  0.00000000000E+00  0.99999998245E-14  0.12500000000E+03  0.12500000000E+03 0.  0.
        -13    1    3    3    0    0 -0.47766994897E+02  0.38320254627E+01  0.20670493972E+02  0.52188607049E+02  0.10566000000E+00 0. -1.
         23    2    1    0    0    0 -0.19301499459E+02 -0.14985385944E+02 -0.10498488672E+02  0.98404362432E+02  0.94742232441E+02 0.  0.
         13    1    3    3    0    0  0.28465495438E+02 -0.18817411407E+02 -0.31168982644E+02  0.46215755383E+02  0.10566000000E+00 0.  1.
         22    1    1    0    0    0  0.19301499459E+02  0.14985385944E+02  0.10498488672E+02  0.26595637568E+02  0.00000000000E+00 0. -1.
</event>
<event>
 5    1  0.1325686E-009  0.9118800E+02  0.7818608E-02  0.1130116E+00
         25   -1    0    0    0    0  0.00000000000E+00  0.00000000000E+00  0.99999998245E-14  0.12500000000E+03  0.12500000000E+03 0.  0.
        -13    1    3    3    0    0  0.32363008129E+02 -0.29127546892E+01 -0.31156017174E+02  0.45017296734E+02  0.10566000000E+00 0.  1.
         23    2    1    0    0    0  0.37471708898E+02 -0.23719088553E+02 -0.27906972344E+01  0.80564517325E+02  0.67202152727E+02 0.  0.
         13    1    3    3    0    0  0.51087007691E+01 -0.20806333864E+02  0.28365319940E+02  0.35547220591E+02  0.10566000000E+00 0. -1.
         22    1    1    0    0    0 -0.37471708898E+02  0.23719088553E+02  0.27906972344E+01  0.44435482675E+02  0.00000000000E+00 0.  1.
</event>
<event>
 5    1  0.1325686E-009  0.9118800E+02  0.7818608E-02  0.1130116E+00
         25   -1    0    0    0    0  0.00000000000E+00  0.00000000000E+00  0.99999998245E-14  0.12500000000E+03  0.12500000000E+03 0.  0.
        -13    1    3    3    0    0  0.29339548329E+02 -0.47493173191E+02  0.16707218479E+02  0.58271372982E+02  0.10566000000E+00 0.  1.
         23    2    1    0    0    0  0.70742290113E+01 -0.20991382253E+02  0.22567583557E+02  0.93377560615E+02  0.87860060061E+02 0.  0.
         13    1    3    3    0    0 -0.22265319317E+02  0.26501790938E+02  0.58603650785E+01  0.35106187633E+02  0.10566000000E+00 0. -1.
         22    1    1    0    0    0 -0.70742290113E+01  0.20991382253E+02 -0.22567583557E+02  0.31622439385E+02  0.00000000000E+00 0.  1.
</event>
<event>
 5    1  0.1325686E-009  0.9118800E+02  0.7818608E-02  0.1130116E+00
         25   -1    0    0    0    0  0.00000000000E+00  0.00000000000E+00  0.99999998245E-14  0.12500000000E+03  0.12500000000E+03 0.  0.
        -13    1    3    3    0    0  0.90545497245E+01 -0.39201133014E+01 -0.36155224724E+02  0.37477507894E+02  0.10566000000E+00 0. -1.
         23    2    1    0    0    0  0.27638623952E+02  0.10616152476E+02  0.13505244595E+02  0.92457906353E+02  0.86541762105E+02 0.  0.
         13    1    3    3    0    0  0.18584074227E+02  0.14536265778E+02  0.49660469320E+02  0.54980398459E+02  0.10566000000E+00 0.  1.
         22    1    1    0    0    0 -0.27638623952E+02 -0.10616152476E+02 -0.13505244595E+02  0.32542093647E+02  0.00000000000E+00 0.  1.
</event>
<event>
 5    1  0.1325686E-009  0.9118800E+02  0.7818608E-02  0.1130116E+00
         25   -1    0    0    0    0  0.00000000000E+00  0.00000000000E+00  0.99999998245E-14  0.12500000000E+03  0.12500000000E+03 0.  0.
        -13    1    3    3    0    0 -0.47495455191E+02 -0.25976352550E+02  0.19213345238E+02  0.57443476173E+02  0.10566000000E+00 0. -1.
         23    2    1    0    0    0 -0.28823830996E+02 -0.12620821300E+01 -0.36168356501E+01  0.95922730790E+02  0.91409423461E+02 0.  0.
         13    1    3    3    0    0  0.18671624195E+02  0.24714270420E+02 -0.22830180888E+02  0.38479254617E+02  0.10566000000E+00 0.  1.
         22    1    1    0    0    0  0.28823830996E+02  0.12620821300E+01  0.36168356501E+01  0.29077269210E+02  0.00000000000E+00 0. -1.
</event>
<event>
 5    1  0.1325686E-009  0.9118800E+02  0.7818608E-02  0.1130116E+00
         25   -1    0    0    0    0  0.00000000000E+00  0.00000000000E+00  0.99999998245E-14  0.12500000000E+03  0.12500000000E+03 0.  0.
        -13    1    3    3    0    0 -0.72205598625E+01  0.20658858277E+02 -0.46154194749E+02  0.51079798032E+02  0.10566000000E+00 0.  1.
         23    2    1    0    0    0 -0.65613968570E+00  0.29567661746E+02 -0.34149497843E+01  0.95228553571E+02  0.90455173389E+02 0.  0.
         13    1    3    3    0    0  0.65644201768E+01  0.89088034691E+01  0.42739244964E+02  0.44148755539E+02  0.10566000000E+00 0. -1.
         22    1    1    0    0    0  0.65613968570E+00 -0.29567661746E+02  0.34149497843E+01  0.29771446429E+02  0.00000000000E+00 0.  1.
</event>
<event>
 5    1  0.1325686E-009  0.9118800E+02  0.7818608E-02  0.1130116E+00
         25   -1    0    0    0    0  0.00000000000E+00  0.00000000000E+00  0.99999998245E-14  0.12500000000E+03  0.12500000000E+03 0.  0.
        -13    1    3    3    0    0 -0.56280546734E+02 -0.11766381939E+02  0.32228108530E+01  0.57587718816E+02  0.10566000000E+00 0. -1.
         23    2    1    0    0    0 -0.27510575970E+02  0.10787714795E+02  0.78203512658E+01  0.94432624014E+02  0.89348508681E+02 0.  0.
         13    1    3    3    0    0  0.28769970763E+02  0.22554096734E+02  0.45975404127E+01  0.36844905199E+02  0.10566000000E+00 0.  1.
         22    1    1    0    0    0  0.27510575970E+02 -0.10787714795E+02 -0.78203512658E+01  0.30567375986E+02  0.00000000000E+00 0. -1.
</event>
<event>
 5    1  0.1325686E-009  0.9118800E+02  0.7818608E-02  0.1130116E+00
         25   -1    0    0    0    0  0.00000000000E+00  0.00000000000E+00  0.99999998245E-14  0.12500000000E+03  0.12500000000E+03 0.  0.
        -13    1    3    3    0    0  0.15418003508E+01 -0.84868696702E+01 -0.57664364207E+02  0.58306038868E+02  0.10566000000E+00 0. -1.
         23    2    1    0    0    0 -0.11805925514E+02 -0.13918471743E+02 -0.24648591107E+02  0.94329871594E+02  0.89204640565E+02 0.  0.
         13    1    3    3    0    0 -0.13347725864E+02 -0.54316020724E+01  0.33015773099E+02  0.36023832725E+02  0.10566000000E+00 0.  1.
         22    1    1    0    0    0  0.11805925514E+02  0.13918471743E+02  0.24648591107E+02  0.30670128406E+02  0.00000000000E+00 0. -1.
</event>
<event>
 5    1  0.1325686E-009  0.9118800E+02  0.7818608E-02  0.1130116E+00
         25   -1    0    0    0    0  0.00000000000E+00  0.00000000000E+00  0.99999998245E-14  0.12500000000E+03  0.12500000000E+03 0.  0.
        -13    1    3    3    0    0 -0.86619666718E+01  0.24923691863E+02 -0.49792854109E+02  0.56352103484E+02  0.10566000000E+00 0. -1.
         23    2    1    0    0    0 -0.19538632566E+02  0.16982868286E+02 -0.12012584886E+02  0.96460936010E+02  0.92142465794E+02 0.  0.
         13    1    3    3    0    0 -0.10876665894E+02 -0.79408235774E+01  0.37780269223E+02  0.40108832527E+02  0.10566000000E+00 0.  1.
         22    1    1    0    0    0  0.19538632566E+02 -0.16982868286E+02  0.12012584886E+02  0.28539063990E+02  0.00000000000E+00 0. -1.
</event>
<event>
 5    1  0.1325686E-009  0.9118800E+02  0.7818608E-02  0.1130116E+00
         25   -1    0    0    0    0  0.00000000000E+00  0.00000000000E+00  0.99999998245E-14  0.12500000000E+03  0.12500000000E+03 0.  0.
        -13    1    3    3    0    0 -0.34228445023E+02 -0.19750734770E+02  0.39723162771E+02  0.56032301373E+02  0.10566000000E+00 0.  1.
         23    2    1    0    0    0  0.45478058866E+01 -0.15962226150E+02  0.17479473199E+02  0.10089590936E+03  0.97974370838E+02 0.  0.
         13    1    3    3    0    0  0.38776250910E+02  0.37885086198E+01 -0.22243689572E+02  0.44863607991E+02  0.10566000000E+00 0. -1.
         22    1    1    0    0    0 -0.45478058866E+01  0.15962226150E+02 -0.17479473199E+02  0.24104090635E+02  0.00000000000E+00 0.  1.
</event>
<event>
 5    1  0.1325686E-009  0.9118800E+02  0.7818608E-02  0.1130116E+00
         25   -1    0    0    0    0  0.00000000000E+00  0.00000000000E+00  0.99999998245E-14  0.12500000000E+03  0.12500000000E+03 0.  0.
        -13    1    3    3    0    0 -0.17286223088E+02 -0.28247861366E+02 -0.11995499528E+02  0.35222980472E+02  0.10566000000E+00 0.  1.
         23    2    1    0    0    0  0.19378621522E+02  0.19706658773E+02 -0.99573727178E+01  0.95622582763E+02  0.90998053225E+02 0.  0.
         13    1    3    3    0    0  0.36664844610E+02  0.47954520139E+02  0.20381268102E+01  0.60399602291E+02  0.10566000000E+00 0. -1.
         22    1    1    0    0    0 -0.19378621522E+02 -0.19706658773E+02  0.99573727178E+01  0.29377417237E+02  0.00000000000E+00 0. -1.
</event>
<event>
 5    1  0.1325686E-009  0.9118800E+02  0.7818608E-02  0.1130116E+00
         25   -1    0    0    0    0  0.00000000000E+00  0.00000000000E+00  0.99999998245E-14  0.12500000000E+03  0.12500000000E+03 0.  0.
        -13    1    3    3    0    0 -0.51408477728E+00  0.35010370084E+02 -0.22950552567E+02  0.41865610275E+02  0.10566000000E+00 0.  1.
         23    2    1    0    0    0 -0.16414941793E+02  0.79483643868E+01  0.21831844282E+02  0.96552570674E+02  0.92266693170E+02 0.  0.
         13    1    3    3    0    0 -0.15900857015E+02 -0.27062005697E+02  0.44782396849E+02  0.54686960399E+02  0.10566000000E+00 0. -1.
         22    1    1    0    0    0  0.16414941793E+02 -0.79483643868E+01 -0.21831844282E+02  0.28447429326E+02  0.00000000000E+00 0. -1.
</event>
<event>
 5    1  0.1325686E-009  0.9118800E+02  0.7818608E-02  0.1130116E+00
         25   -1    0    0    0    0  0.00000000000E+00  0.00000000000E+00  0.99999998245E-14  0.12500000000E+03  0.12500000000E+03 0.  0.
        -13    1    3    3    0    0 -0.22738665166E+02 -0.44507634083E+02  0.33828268468E+00  0.49981016240E+02  0.10566000000E+00 0.  1.
         23    2    1    0    0    0  0.40707980080E+01 -0.14422409996E+02  0.23995447185E+02  0.96709386855E+02  0.92478898748E+02 0.  0.
         13    1    3    3    0    0  0.26809463174E+02  0.30085224087E+02  0.23657164501E+02  0.46728370615E+02  0.10566000000E+00 0. -1.
         22    1    1    0    0    0 -0.40707980080E+01  0.14422409996E+02 -0.23995447185E+02  0.28290613145E+02  0.00000000000E+00 0. -1.
</event>
<event>
 5    1  0.1325686E-009  0.9118800E+02  0.7818608E-02  0.1130116E+00
         25   -1    0    0    0    0  0.00000000000E+00  0.00000000000E+00  0.99999998245E-14  0.12500000000E+03  0.12500000000E+03 0.  0.
        -13    1    3    3    0    0 -0.19188874154E+02  0.48617293261E+02  0.25749608542E+02  0.58265835611E+02  0.10566000000E+00 0.  1.
         23    2    1    0    0    0 -0.15040640318E+02  0.78164119714E+01  0.18492551344E+02  0.99914314590E+02  0.96713901004E+02 0.  0.
         13    1    3    3    0    0  0.41482338364E+01 -0.40800881290E+02 -0.72570571982E+01  0.41648478978E+02  0.10566000000E+00 0. -1.
         22    1    1    0    0    0  0.15040640318E+02 -0.78164119714E+01 -0.18492551344E+02  0.25085685410E+02  0.00000000000E+00 0.  1.
</event>
<event>
 5    1  0.1325686E-009  0.9118800E+02  0.7818608E-02  0.1130116E+00
         25   -1    0    0    0    0  0.00000000000E+00  0.00000000000E+00  0.99999998245E-14  0.12500000000E+03  0.12500000000E+03 0.  0.
        -13    1    3    3    0    0  0.29822060166E+02  0.10419542613E+02 -0.29465051924E+02  0.43198641063E+02  0.10566000000E+00 0. -1.
         23    2    1    0    0    0  0.20045069082E+02 -0.13597146918E+02  0.16303555834E+02  0.95802514978E+02  0.91244883387E+02 0.  0.
         13    1    3    3    0    0 -0.97769910842E+01 -0.24016689531E+02  0.45768607757E+02  0.52603873914E+02  0.10566000000E+00 0.  1.
         22    1    1    0    0    0 -0.20045069082E+02  0.13597146918E+02 -0.16303555834E+02  0.29197485022E+02  0.00000000000E+00 0.  1.
</event>
<event>
 5    1  0.1325686E-009  0.9118800E+02  0.7818608E-02  0.1130116E+00
         25   -1    0    0    0    0  0.00000000000E+00  0.00000000000E+00  0.99999998245E-14  0.12500000000E+03  0.12500000000E+03 0.  0.
        -13    1    3    3    0    0  0.27461039745E+02  0.75077443243E+01  0.15473812368E+02  0.32402545609E+02  0.10566000000E+00 0. -1.
         23    2    1    0    0    0 -0.16192206078E+02 -0.93932718217E+01 -0.24644092366E+02  0.94052425269E+02  0.88815011778E+02 0.  0.
         13    1    3    3    0    0 -0.43653245824E+02 -0.16901016146E+02 -0.40117904734E+02  0.61649879659E+02  0.10566000000E+00 0.  1.
         22    1    1    0    0    0  0.16192206078E+02  0.93932718217E+01  0.24644092366E+02  0.30947574731E+02  0.00000000000E+00 0.  1.
</event>
<event>
 5    1  0.1325686E-009  0.9118800E+02  0.7818608E-02  0.1130116E+00
         25   -1    0    0    0    0  0.00000000000E+00  0.00000000000E+00  0.99999998245E-14  0.12500000000E+03  0.12500000000E+03 0.  0.
        -13    1    3    3    0    0  0.21135467101E+01 -0.22041929400E+02 -0.48401349381E+02  0.53226079297E+02  0.10566000000E+00 0. -1.
         23    2    1    0    0    0  0.15646690037E+02  0.92683406948E+01 -0.22579962793E+02  0.96007315266E+02  0.91525017435E+02 0.  0.
         13    1    3    3    0    0  0.13533143327E+02  0.31310270095E+02  0.25821386588E+02  0.42781235969E+02  0.10566000000E+00 0.  1.
         22    1    1    0    0    0 -0.15646690037E+02 -0.92683406948E+01  0.22579962793E+02  0.28992684734E+02  0.00000000000E+00 0.  1.
</event>
<event>
 5    1  0.1325686E-009  0.9118800E+02  0.7818608E-02  0.1130116E+00
         25   -1    0    0    0    0  0.00000000000E+00  0.00000000000E+00  0.99999998245E-14  0.12500000000E+03  0.12500000000E+03 0.  0.
        -13    1    3    3    0    0  0.85269468947E+01 -0.31264818451E+02 -0.20292860075E+02  0.38236226673E+02  0.10566000000E+00 0. -1.
         23    2    1    0    0    0  0.69947905533E+01  0.65519481829E+00  0.27992744898E+02  0.96139124371E+02  0.91704858611E+02 0.  0.
         13    1    3    3    0    0 -0.15321563414E+01  0.31920013270E+02  0.48285604973E+02  0.57902897698E+02  0.10566000000E+00 0.  1.
         22    1    1    0    0    0 -0.69947905533E+01 -0.65519481829E+00 -0.27992744898E+02  0.28860875629E+02  0.00000000000E+00 0.  1.
</event>
<event>
 5    1  0.1325686E-009  0.9118800E+02  0.7818608E-02  0.1130116E+00
         25   -1    0    0    0    0  0.00000000000E+00  0.00000000000E+00  0.99999998245E-14  0.12500000000E+03  0.12500000000E+03 0.  0.
        -13    1    3    3    0    0 -0.83820784470E+01 -0.11027512528E+02 -0.35314576513E+02  0.37934097458E+02  0.10566000000E+00 0. -1.
         23    2    1    0    0    0  0.67427223140E+01  0.30668374173E+02 -0.17618707435E+01  0.93549758870E+02  0.88104708827E+02 0.  0.
         13    1    3    3    0    0  0.15124800761E+02  0.41695886701E+02  0.33552705769E+02  0.55615661412E+02  0.10566000000E+00 0.  1.
         22    1    1    0    0    0 -0.67427223140E+01 -0.30668374173E+02  0.17618707435E+01  0.31450241130E+02  0.00000000000E+00 0.  1.
</event>
<event>
 5    1  0.1325686E-009  0.9118800E+02  0.7818608E-02  0.1130116E+00
         25   -1    0    0    0    0  0.00000000000E+00  0.00000000000E+00  0.99999998245E-14  0.12500000000E+03  0.12500000000E+03 0.  0.
        -13    1    3    3    0    0  0.58651622415E+02  0.13112960955E+02 -0.41982240784E+00  0.60101164480E+02  0.10566000000E+00 0.  1.
         23    2    1    0    0    0  0.21044382701E+02  0.17042690458E+02 -0.59037877131E+00  0.97913695557E+02  0.94092634617E+02 0.  0.
         13    1    3    3    0    0 -0.37607239715E+02  0.39297295028E+01 -0.17055636347E+00  0.37812531077E+02  0.10566000000E+00 0. -1.
         22    1    1    0    0    0 -0.21044382701E+02 -0.17042690458E+02  0.59037877131E+00  0.27086304443E+02  0.00000000000E+00 0.  1.
</event>
<event>
 5    1  0.1325686E-009  0.9118800E+02  0.7818608E-02  0.1130116E+00
         25   -1    0    0    0    0  0.00000000000E+00  0.00000000000E+00  0.99999998245E-14  0.12500000000E+03  0.12500000000E+03 0.  0.
        -13    1    3    3    0    0  0.21139168531E+01 -0.50209600474E+02  0.74115430663E+01  0.50797783011E+02  0.10566000000E+00 0.  1.
         23    2    1    0    0    0  0.16682785615E+02 -0.91834097148E+01  0.21235721078E+02  0.96476216949E+02  0.92163193505E+02 0.  0.
         13    1    3    3    0    0  0.14568868762E+02  0.41026190759E+02  0.13824178012E+02  0.45678433937E+02  0.10566000000E+00 0. -1.
         22    1    1    0    0    0 -0.16682785615E+02  0.91834097148E+01 -0.21235721078E+02  0.28523783051E+02  0.00000000000E+00 0.  1.
</event>
<event>
 5    1  0.1325686E-009  0.9118800E+02  0.7818608E-02  0.1130116E+00
         25   -1    0    0    0    0  0.00000000000E+00  0.00000000000E+00  0.99999998245E-14  0.12500000000E+03  0.12500000000E+03 0.  0.
        -13    1    3    3    0    0 -0.53694123185E+02 -0.27738208154E+02  0.96884617671E+01  0.61207389355E+02  0.10566000000E+00 0.  1.
         23    2    1    0    0    0 -0.28042573563E+02 -0.24073271887E+02  0.80756985204E+01  0.87169783797E+02  0.78533088245E+02 0.  0.
         13    1    3    3    0    0  0.25651549622E+02  0.36649362668E+01 -0.16127632467E+01  0.25962394442E+02  0.10566000000E+00 0. -1.
         22    1    1    0    0    0  0.28042573563E+02  0.24073271887E+02 -0.80756985204E+01  0.37830216203E+02  0.00000000000E+00 0.  1.
</event>
<event>
 5    1  0.1325686E-009  0.9118800E+02  0.7818608E-02  0.1130116E+00
         25   -1    0    0    0    0  0.00000000000E+00  0.00000000000E+00  0.99999998245E-14  0.12500000000E+03  0.12500000000E+03 0.  0.
        -13    1    3    3    0    0  0.29911613365E+02 -0.50004522785E+02 -0.54276143156E+01  0.58520313347E+02  0.10566000000E+00 0. -1.
         23    2    1    0    0    0 -0.81337603578E+00 -0.28129561078E+02 -0.59314078821E+01  0.96240386190E+02  0.91842781685E+02 0.  0.
         13    1    3    3    0    0 -0.30724989400E+02  0.21874961707E+02 -0.50379356646E+00  0.37720072844E+02  0.10566000000E+00 0.  1.
         22    1    1    0    0    0  0.81337603578E+00  0.28129561078E+02  0.59314078821E+01  0.28759613810E+02  0.00000000000E+00 0. -1.
</event>
<event>
 5    1  0.1325686E-009  0.9118800E+02  0.7818608E-02  0.1130116E+00
         25   -1    0    0    0    0  0.00000000000E+00  0.00000000000E+00  0.99999998245E-14  0.12500000000E+03  0.12500000000E+03 0.  0.
        -13    1    3    3    0    0 -0.16326460031E+02 -0.30364377030E+02  0.14192134164E+02  0.37282388949E+02  0.10566000000E+00 0.  1.
         23    2    1    0    0    0  0.22552007817E+02 -0.14707957688E+01 -0.18560277118E+02  0.95755510203E+02  0.91180466937E+02 0.  0.
         13    1    3    3    0    0  0.38878467849E+02  0.28893581261E+02 -0.32752411282E+02  0.58473121254E+02  0.10566000000E+00 0. -1.
         22    1    1    0    0    0 -0.22552007817E+02  0.14707957688E+01  0.18560277118E+02  0.29244489797E+02  0.00000000000E+00 0. -1.
</event>
<event>
 5    1  0.1325686E-009  0.9118800E+02  0.7818608E-02  0.1130116E+00
         25   -1    0    0    0    0  0.00000000000E+00  0.00000000000E+00  0.99999998245E-14  0.12500000000E+03  0.12500000000E+03 0.  0.
        -13    1    3    3    0    0  0.19999985862E+02 -0.20457050486E+02  0.53416518098E+02  0.60595593229E+02  0.10566000000E+00 0.  1.
         23    2    1    0    0    0  0.48765482996E+01 -0.19165716202E+02  0.22453388091E+02  0.95079103663E+02  0.90248412262E+02 0.  0.
         13    1    3    3    0    0 -0.15123437562E+02  0.12913342836E+01 -0.30963130007E+02  0.34483510434E+02  0.10566000000E+00 0. -1.
         22    1    1    0    0    0 -0.48765482996E+01  0.19165716202E+02 -0.22453388091E+02  0.29920896337E+02  0.00000000000E+00 0.  1.
</event>
<event>
 5    1  0.1325686E-009  0.9118800E+02  0.7818608E-02  0.1130116E+00
         25   -1    0    0    0    0  0.00000000000E+00  0.00000000000E+00  0.99999998245E-14  0.12500000000E+03  0.12500000000E+03 0.  0.
        -13    1    3    3    0    0  0.45316243021E+02 -0.24100097054E+02  0.70388805736E+01  0.51806694194E+02  0.10566000000E+00 0. -1.
         23    2    1    0    0    0  0.16807210300E+01 -0.13199342777E+02 -0.17479607499E+02  0.10303220195E+03  0.10066305423E+03 0.  0.
         13    1    3    3    0    0 -0.43635521991E+02  0.10900754277E+02 -0.24518488073E+02  0.51225507754E+02  0.10566000000E+00 0.  1.
         22    1    1    0    0    0 -0.16807210300E+01  0.13199342777E+02  0.17479607499E+02  0.21967798052E+02  0.00000000000E+00 0.  1.
</event>
<event>
 5    1  0.1325686E-009  0.9118800E+02  0.7818608E-02  0.1130116E+00
         25   -1    0    0    0    0  0.00000000000E+00  0.00000000000E+00  0.99999998245E-14  0.12500000000E+03  0.12500000000E+03 0.  0.
        -13    1    3    3    0    0 -0.11255851965E+02  0.35105586769E+02 -0.93815260564E+01  0.38041038643E+02  0.10566000000E+00 0.  1.
         23    2    1    0    0    0  0.48907351688E+01 -0.77468934560E+01  0.26974785344E+02  0.96511885056E+02  0.92211557107E+02 0.  0.
         13    1    3    3    0    0  0.16146587134E+02 -0.42852480225E+02  0.36356311400E+02  0.58470846413E+02  0.10566000000E+00 0. -1.
         22    1    1    0    0    0 -0.48907351688E+01  0.77468934560E+01 -0.26974785344E+02  0.28488114944E+02  0.00000000000E+00 0. -1.
</event>
<event>
 5    1  0.1325686E-009  0.9118800E+02  0.7818608E-02  0.1130116E+00
         25   -1    0    0    0    0  0.00000000000E+00  0.00000000000E+00  0.99999998245E-14  0.12500000000E+03  0.12500000000E+03 0.  0.
        -13    1    3    3    0    0 -0.53578701296E+01 -0.47699537577E+02 -0.69317306472E+01  0.48497553662E+02  0.10566000000E+00 0.  1.
         23    2    1    0    0    0  0.85970193728E+01 -0.14993019829E+02 -0.29640047234E+02  0.90689188501E+02  0.83948181191E+02 0.  0.
         13    1    3    3    0    0  0.13954889502E+02  0.32706517747E+02 -0.22708316587E+02  0.42191634839E+02  0.10566000000E+00 0. -1.
         22    1    1    0    0    0 -0.85970193728E+01  0.14993019829E+02  0.29640047234E+02  0.34310811499E+02  0.00000000000E+00 0. -1.
</event>
<event>
 5    1  0.1325686E-009  0.9118800E+02  0.7818608E-02  0.1130116E+00
         25   -1    0    0    0    0  0.00000000000E+00  0.00000000000E+00  0.99999998245E-14  0.12500000000E+03  0.12500000000E+03 0.  0.
        -13    1    3    3    0    0 -0.35379145736E+02  0.13463092339E+02 -0.44750511727E+02  0.58613635548E+02  0.10566000000E+00 0.  1.
         23    2    1    0    0    0 -0.18125603936E+02 -0.92174500085E+01 -0.21648697488E+02  0.95298737306E+02  0.90552108349E+02 0.  0.
         13    1    3    3    0    0  0.17253541800E+02 -0.22680542347E+02  0.23101814239E+02  0.36685101758E+02  0.10566000000E+00 0. -1.
         22    1    1    0    0    0  0.18125603936E+02  0.92174500085E+01  0.21648697488E+02  0.29701262694E+02  0.00000000000E+00 0.  1.
</event>
<event>
 5    1  0.1325686E-009  0.9118800E+02  0.7818608E-02  0.1130116E+00
         25   -1    0    0    0    0  0.00000000000E+00  0.00000000000E+00  0.99999998245E-14  0.12500000000E+03  0.12500000000E+03 0.  0.
        -13    1    3    3    0    0 -0.81176216112E+01  0.47040966292E+02  0.19477524345E+02  0.51557088833E+02  0.10566000000E+00 0.  1.
         23    2    1    0    0    0  0.21899102488E+02  0.16295909949E+02  0.12045689126E+02  0.95163344736E+02  0.90365016372E+02 0.  0.
         13    1    3    3    0    0  0.30016724099E+02 -0.30745056342E+02 -0.74318352194E+01  0.43606255903E+02  0.10566000000E+00 0. -1.
         22    1    1    0    0    0 -0.21899102488E+02 -0.16295909949E+02 -0.12045689126E+02  0.29836655264E+02  0.00000000000E+00 0.  1.
</event>
<event>
 5    1  0.1325686E-009  0.9118800E+02  0.7818608E-02  0.1130116E+00
         25   -1    0    0    0    0  0.00000000000E+00  0.00000000000E+00  0.99999998245E-14  0.12500000000E+03  0.12500000000E+03 0.  0.
        -13    1    3    3    0    0 -0.62805245132E+01 -0.68892731128E+01  0.60932416452E+02  0.61641525053E+02  0.10566000000E+00 0.  1.
         23    2    1    0    0    0 -0.24648074568E+01 -0.10267755807E+02  0.26101744757E+02  0.96843239454E+02  0.92659645281E+02 0.  0.
         13    1    3    3    0    0  0.38157170564E+01 -0.33784826938E+01 -0.34830671695E+02  0.35201714401E+02  0.10566000000E+00 0. -1.
         22    1    1    0    0    0  0.24648074568E+01  0.10267755807E+02 -0.26101744757E+02  0.28156760546E+02  0.00000000000E+00 0.  1.
</event>
<event>
 5    1  0.1325686E-009  0.9118800E+02  0.7818608E-02  0.1130116E+00
         25   -1    0    0    0    0  0.00000000000E+00  0.00000000000E+00  0.99999998245E-14  0.12500000000E+03  0.12500000000E+03 0.  0.
        -13    1    3    3    0    0  0.16438829215E+02  0.23678993492E+02 -0.26382929548E+02  0.39076847036E+02  0.10566000000E+00 0.  1.
         23    2    1    0    0    0  0.54340338152E+01 -0.27994782047E+02 -0.51253563519E+01  0.96025773123E+02  0.91550222724E+02 0.  0.
         13    1    3    3    0    0 -0.11004795400E+02 -0.51673775539E+02  0.21257573196E+02  0.56948926087E+02  0.10566000000E+00 0. -1.
         22    1    1    0    0    0 -0.54340338152E+01  0.27994782047E+02  0.51253563519E+01  0.28974226877E+02  0.00000000000E+00 0. -1.
</event>
<event>
 5    1  0.1325686E-009  0.9118800E+02  0.7818608E-02  0.1130116E+00
         25   -1    0    0    0    0  0.00000000000E+00  0.00000000000E+00  0.99999998245E-14  0.12500000000E+03  0.12500000000E+03 0.  0.
        -13    1    3    3    0    0  0.51165663613E+02 -0.31391862940E+02 -0.83061583500E+01  0.60600145399E+02  0.10566000000E+00 0. -1.
         23    2    1    0    0    0  0.26758218609E+02 -0.10581320215E+02  0.58112993900E+01  0.95644629091E+02  0.91028332253E+02 0.  0.
         13    1    3    3    0    0 -0.24407445004E+02  0.20810542726E+02  0.14117457740E+02  0.35044483692E+02  0.10566000000E+00 0.  1.
         22    1    1    0    0    0 -0.26758218609E+02  0.10581320215E+02 -0.58112993900E+01  0.29355370909E+02  0.00000000000E+00 0. -1.
</event>
<event>
 5    1  0.1325686E-009  0.9118800E+02  0.7818608E-02  0.1130116E+00
         25   -1    0    0    0    0  0.00000000000E+00  0.00000000000E+00  0.99999998245E-14  0.12500000000E+03  0.12500000000E+03 0.  0.
        -13    1    3    3    0    0  0.41629299470E+01 -0.53686336798E+02  0.16306819489E+02  0.56262565445E+02  0.10566000000E+00 0.  1.
         23    2    1    0    0    0  0.17477550258E+02 -0.22989320902E+02 -0.46578319097E+01  0.95748178917E+02  0.91170415866E+02 0.  0.
         13    1    3    3    0    0  0.13314620311E+02  0.30697015896E+02 -0.20964651399E+02  0.39485613472E+02  0.10566000000E+00 0. -1.
         22    1    1    0    0    0 -0.17477550258E+02  0.22989320902E+02  0.46578319097E+01  0.29251821083E+02  0.00000000000E+00 0.  1.
</event>
<event>
 5    1  0.1325686E-009  0.9118800E+02  0.7818608E-02  0.1130116E+00
         25   -1    0    0    0    0  0.00000000000E+00  0.00000000000E+00  0.99999998245E-14  0.12500000000E+03  0.12500000000E+03 0.  0.
        -13    1    3    3    0    0  0.18959554943E+02 -0.33424802195E+02 -0.23037747608E+02  0.44804364790E+02  0.10566000000E+00 0.  1.
         23    2    1    0    0    0 -0.10088476027E+02  0.72663692970E+01 -0.27320881219E+02  0.94983204336E+02  0.90115487482E+02 0.  0.
         13    1    3    3    0    0 -0.29048030970E+02  0.40691171492E+02 -0.42831336112E+01  0.50178839546E+02  0.10566000000E+00 0. -1.
         22    1    1    0    0    0  0.10088476027E+02 -0.72663692970E+01  0.27320881219E+02  0.30016795664E+02  0.00000000000E+00 0. -1.
</event>
<event>
 5    1  0.1325686E-009  0.9118800E+02  0.7818608E-02  0.1130116E+00
         25   -1    0    0    0    0  0.00000000000E+00  0.00000000000E+00  0.99999998245E-14  0.12500000000E+03  0.12500000000E+03 0.  0.
        -13    1    3    3    0    0  0.15202176819E+01  0.23289185252E+01 -0.40735768983E+02  0.40830735507E+02  0.10566000000E+00 0. -1.
         23    2    1    0    0    0  0.20006809023E+02 -0.20052070022E+02  0.61863058855E+01  0.96006409329E+02  0.91523780147E+02 0.  0.
         13    1    3    3    0    0  0.18486591341E+02 -0.22380988548E+02  0.46922074869E+02  0.55175673823E+02  0.10566000000E+00 0.  1.
         22    1    1    0    0    0 -0.20006809023E+02  0.20052070022E+02 -0.61863058855E+01  0.28993590671E+02  0.00000000000E+00 0. -1.
</event>
<event>
 5    1  0.1325686E-009  0.9118800E+02  0.7818608E-02  0.1130116E+00
         25   -1    0    0    0    0  0.00000000000E+00  0.00000000000E+00  0.99999998245E-14  0.12500000000E+03  0.12500000000E+03 0.  0.
        -13    1    3    3    0    0  0.22194780629E+02  0.15762200349E+02 -0.26974969853E+02  0.38323823004E+02  0.10566000000E+00 0.  1.
         23    2    1    0    0    0  0.50528352342E+01 -0.15572309127E+02  0.21149477079E+02  0.98254377252E+02  0.94544139496E+02 0.  0.
         13    1    3    3    0    0 -0.17141945394E+02 -0.31334509476E+02  0.48124446932E+02  0.59930554249E+02  0.10566000000E+00 0. -1.
         22    1    1    0    0    0 -0.50528352342E+01  0.15572309127E+02 -0.21149477079E+02  0.26745622748E+02  0.00000000000E+00 0. -1.
</event>
<event>
 5    1  0.1325686E-009  0.9118800E+02  0.7818608E-02  0.1130116E+00
         25   -1    0    0    0    0  0.00000000000E+00  0.00000000000E+00  0.99999998245E-14  0.12500000000E+03  0.12500000000E+03 0.  0.
        -13    1    3    3    0    0  0.27705851781E+02  0.28630086459E+01 -0.26709538373E+02  0.38590434638E+02  0.10566000000E+00 0. -1.
         23    2    1    0    0    0  0.80131545549E+01 -0.18050611646E+02  0.22184330675E+02  0.95298489025E+02  0.90551765616E+02 0.  0.
         13    1    3    3    0    0 -0.19692697226E+02 -0.20913620292E+02  0.48893869048E+02  0.56708054386E+02  0.10566000000E+00 0.  1.
         22    1    1    0    0    0 -0.80131545549E+01  0.18050611646E+02 -0.22184330675E+02  0.29701510975E+02  0.00000000000E+00 0.  1.
</event>
<event>
 5    1  0.1325686E-009  0.9118800E+02  0.7818608E-02  0.1130116E+00
         25   -1    0    0    0    0  0.00000000000E+00  0.00000000000E+00  0.99999998245E-14  0.12500000000E+03  0.12500000000E+03 0.  0.
        -13    1    3    3    0    0  0.35744195655E+02  0.18230259638E+01 -0.34049722658E+02  0.49400057933E+02  0.10566000000E+00 0.  1.
         23    2    1    0    0    0 -0.88868070113E+01  0.14926968383E+02 -0.21069462023E+02  0.97692273000E+02  0.93798018369E+02 0.  0.
         13    1    3    3    0    0 -0.44631002666E+02  0.13103942419E+02  0.12980260635E+02  0.48292215067E+02  0.10566000000E+00 0. -1.
         22    1    1    0    0    0  0.88868070113E+01 -0.14926968383E+02  0.21069462023E+02  0.27307727000E+02  0.00000000000E+00 0. -1.
</event>
<event>
 5    1  0.1325686E-009  0.9118800E+02  0.7818608E-02  0.1130116E+00
         25   -1    0    0    0    0  0.00000000000E+00  0.00000000000E+00  0.99999998245E-14  0.12500000000E+03  0.12500000000E+03 0.  0.
        -13    1    3    3    0    0  0.33660528711E+02 -0.11277684035E+02 -0.10357028631E+02  0.36979677613E+02  0.10566000000E+00 0. -1.
         23    2    1    0    0    0 -0.49217914517E+01  0.11314961794E+02  0.27046024366E+02  0.95272238135E+02  0.90515520955E+02 0.  0.
         13    1    3    3    0    0 -0.38582320162E+02  0.22592645829E+02  0.37403052997E+02  0.58292560522E+02  0.10566000000E+00 0.  1.
         22    1    1    0    0    0  0.49217914517E+01 -0.11314961794E+02 -0.27046024366E+02  0.29727761865E+02  0.00000000000E+00 0.  1.
</event>
<event>
 5    1  0.1325686E-009  0.9118800E+02  0.7818608E-02  0.1130116E+00
         25   -1    0    0    0    0  0.00000000000E+00  0.00000000000E+00  0.99999998245E-14  0.12500000000E+03  0.12500000000E+03 0.  0.
        -13    1    3    3    0    0 -0.92000056537E+01  0.31361753358E+02 -0.14801992132E+02  0.35879099945E+02  0.10566000000E+00 0.  1.
         23    2    1    0    0    0  0.49642515985E+01 -0.16349603684E+02  0.21540664710E+02  0.97505390152E+02  0.93548637285E+02 0.  0.
         13    1    3    3    0    0  0.14164257252E+02 -0.47711357043E+02  0.36342656842E+02  0.61626290207E+02  0.10566000000E+00 0. -1.
         22    1    1    0    0    0 -0.49642515985E+01  0.16349603684E+02 -0.21540664710E+02  0.27494609848E+02  0.00000000000E+00 0. -1.
</event>
<event>
 5    1  0.1325686E-009  0.9118800E+02  0.7818608E-02  0.1130116E+00
         25   -1    0    0    0    0  0.00000000000E+00  0.00000000000E+00  0.99999998245E-14  0.12500000000E+03  0.12500000000E+03 0.  0.
        -13    1    3    3    0    0 -0.29067138265E+02  0.40091021743E+02  0.38546076299E+01  0.49669484750E+02  0.10566000000E+00 0. -1.
         23    2    1    0    0    0 -0.28265580667E+02 -0.44377234025E+01 -0.70736131493E+01  0.95526750392E+02  0.90866317181E+02 0.  0.
         13    1    3    3    0    0  0.80155759757E+00 -0.44528745145E+02 -0.10928220779E+02  0.45857265643E+02  0.10566000000E+00 0.  1.
         22    1    1    0    0    0  0.28265580667E+02  0.44377234025E+01  0.70736131493E+01  0.29473249608E+02  0.00000000000E+00 0. -1.
</event>
<event>
 5    1  0.1325686E-009  0.9118800E+02  0.7818608E-02  0.1130116E+00
         25   -1    0    0    0    0  0.00000000000E+00  0.00000000000E+00  0.99999998245E-14  0.12500000000E+03  0.12500000000E+03 0.  0.
        -13    1    3    3    0    0 -0.29655367592E+02 -0.26790967682E+02 -0.27414558505E+01  0.40059000494E+02  0.10566000000E+00 0. -1.
         23    2    1    0    0    0  0.23197821701E+02 -0.16773966100E+02  0.87475159220E+01  0.95066341601E+02  0.90230734232E+02 0.  0.
         13    1    3    3    0    0  0.52853189293E+02  0.10017001582E+02  0.11488971772E+02  0.55007341106E+02  0.10566000000E+00 0.  1.
         22    1    1    0    0    0 -0.23197821701E+02  0.16773966100E+02 -0.87475159220E+01  0.29933658399E+02  0.00000000000E+00 0.  1.
</event>
<event>
 5    1  0.1325686E-009  0.9118800E+02  0.7818608E-02  0.1130116E+00
         25   -1    0    0    0    0  0.00000000000E+00  0.00000000000E+00  0.99999998245E-14  0.12500000000E+03  0.12500000000E+03 0.  0.
        -13    1    3    3    0    0  0.33012088496E+02 -0.30691101033E+02 -0.42645921296E+02  0.62051812518E+02  0.10566000000E+00 0.  1.
         23    2    1    0    0    0  0.13901025677E+02 -0.12064696732E+02 -0.24636385179E+02  0.94247001824E+02  0.89088441765E+02 0.  0.
         13    1    3    3    0    0 -0.19111062820E+02  0.18626404301E+02  0.18009536117E+02  0.32195189306E+02  0.10566000000E+00 0. -1.
         22    1    1    0    0    0 -0.13901025677E+02  0.12064696732E+02  0.24636385179E+02  0.30752998176E+02  0.00000000000E+00 0.  1.
</event>
<event>
 5    1  0.1325686E-009  0.9118800E+02  0.7818608E-02  0.1130116E+00
         25   -1    0    0    0    0  0.00000000000E+00  0.00000000000E+00  0.99999998245E-14  0.12500000000E+03  0.12500000000E+03 0.  0.
        -13    1    3    3    0    0 -0.48738745692E+01  0.31868682347E+02  0.35137836373E+02  0.47686961288E+02  0.10566000000E+00 0.  1.
         23    2    1    0    0    0  0.42343171778E+01 -0.17204919605E+02  0.30563412535E+01  0.10702001328E+03  0.10549883089E+03 0.  0.
         13    1    3    3    0    0  0.91081917471E+01 -0.49073601953E+02 -0.32081495120E+02  0.59333051992E+02  0.10566000000E+00 0. -1.
         22    1    1    0    0    0 -0.42343171778E+01  0.17204919605E+02 -0.30563412535E+01  0.17979986720E+02  0.00000000000E+00 0. -1.
</event>
<event>
 5    1  0.1325686E-009  0.9118800E+02  0.7818608E-02  0.1130116E+00
         25   -1    0    0    0    0  0.00000000000E+00  0.00000000000E+00  0.99999998245E-14  0.12500000000E+03  0.12500000000E+03 0.  0.
        -13    1    3    3    0    0  0.76257257296E+01 -0.47447197492E+02 -0.15123696479E+01  0.48080002795E+02  0.10566000000E+00 0. -1.
         23    2    1    0    0    0  0.15667906525E+02 -0.61369321910E+01  0.22784155021E+02  0.96675753291E+02  0.92433426436E+02 0.  0.
         13    1    3    3    0    0  0.80421807958E+01  0.41310265301E+02  0.24296524669E+02  0.48595750496E+02  0.10566000000E+00 0.  1.
         22    1    1    0    0    0 -0.15667906525E+02  0.61369321910E+01 -0.22784155021E+02  0.28324246709E+02  0.00000000000E+00 0.  1.
</event>
<event>
 5    1  0.1325686E-009  0.9118800E+02  0.7818608E-02  0.1130116E+00
         25   -1    0    0    0    0  0.00000000000E+00  0.00000000000E+00  0.99999998245E-14  0.12500000000E+03  0.12500000000E+03 0.  0.
        -13    1    3    3    0    0 -0.16180057658E+02 -0.34421045928E+02  0.29036894738E+02  0.47851385441E+02  0.10566000000E+00 0. -1.
         23    2    1    0    0    0  0.11398844149E+02 -0.25794356179E+02 -0.87975406599E+01  0.95458856145E+02  0.90772870596E+02 0.  0.
         13    1    3    3    0    0  0.27578901807E+02  0.86266897489E+01 -0.37834435398E+02  0.47607470704E+02  0.10566000000E+00 0.  1.
         22    1    1    0    0    0 -0.11398844149E+02  0.25794356179E+02  0.87975406599E+01  0.29541143855E+02  0.00000000000E+00 0. -1.
</event>
<event>
 5    1  0.1325686E-009  0.9118800E+02  0.7818608E-02  0.1130116E+00
         25   -1    0    0    0    0  0.00000000000E+00  0.00000000000E+00  0.99999998245E-14  0.12500000000E+03  0.12500000000E+03 0.  0.
        -13    1    3    3    0    0 -0.30626078017E+02  0.30916257910E+02 -0.31610767105E+02  0.53786833137E+02  0.10566000000E+00 0.  1.
         23    2    1    0    0    0 -0.36748051998E+01  0.32396388376E+02 -0.44244111603E+01  0.92097027685E+02  0.86018933504E+02 0.  0.
         13    1    3    3    0    0  0.26951272818E+02  0.14801304658E+01  0.27186355945E+02  0.38310194548E+02  0.10566000000E+00 0. -1.
         22    1    1    0    0    0  0.36748051998E+01 -0.32396388376E+02  0.44244111603E+01  0.32902972315E+02  0.00000000000E+00 0.  1.
</event>
<event>
 5    1  0.1325686E-009  0.9118800E+02  0.7818608E-02  0.1130116E+00
         25   -1    0    0    0    0  0.00000000000E+00  0.00000000000E+00  0.99999998245E-14  0.12500000000E+03  0.12500000000E+03 0.  0.
        -13    1    3    3    0    0  0.19507685187E+02  0.32464747133E+02  0.12702136268E+02  0.39948279281E+02  0.10566000000E+00 0. -1.
         23    2    1    0    0    0  0.58287635046E+01 -0.22625190855E+02 -0.79034397390E+01  0.10033548896E+03  0.97256733646E+02 0.  0.
         13    1    3    3    0    0 -0.13678921682E+02 -0.55089937988E+02 -0.20605576007E+02  0.60387209677E+02  0.10566000000E+00 0.  1.
         22    1    1    0    0    0 -0.58287635046E+01  0.22625190855E+02  0.79034397390E+01  0.24664511042E+02  0.00000000000E+00 0.  1.
</event>
<event>
 5    1  0.1325686E-009  0.9118800E+02  0.7818608E-02  0.1130116E+00
         25   -1    0    0    0    0  0.00000000000E+00  0.00000000000E+00  0.99999998245E-14  0.12500000000E+03  0.12500000000E+03 0.  0.
        -13    1    3    3    0    0 -0.30911567045E+02 -0.40979583311E+02 -0.18049169851E+02  0.54411716770E+02  0.10566000000E+00 0.  1.
         23    2    1    0    0    0 -0.22458128818E+02 -0.29927211770E+01 -0.21863584749E+02  0.93514443500E+02  0.88054590311E+02 0.  0.
         13    1    3    3    0    0  0.84534382263E+01  0.37986862134E+02 -0.38144148981E+01  0.39102726730E+02  0.10566000000E+00 0. -1.
         22    1    1    0    0    0  0.22458128818E+02  0.29927211770E+01  0.21863584749E+02  0.31485556500E+02  0.00000000000E+00 0.  1.
</event>
<event>
 5    1  0.1325686E-009  0.9118800E+02  0.7818608E-02  0.1130116E+00
         25   -1    0    0    0    0  0.00000000000E+00  0.00000000000E+00  0.99999998245E-14  0.12500000000E+03  0.12500000000E+03 0.  0.
        -13    1    3    3    0    0  0.14773032775E+02  0.49944208197E+02  0.13942521253E+02  0.53917265256E+02  0.10566000000E+00 0. -1.
         23    2    1    0    0    0  0.14077516684E+02  0.96392628923E+01  0.24084561944E+02  0.95484614366E+02  0.90808334372E+02 0.  0.
         13    1    3    3    0    0 -0.69551609047E+00 -0.40304945304E+02  0.10142040691E+02  0.41567349110E+02  0.10566000000E+00 0.  1.
         22    1    1    0    0    0 -0.14077516684E+02 -0.96392628923E+01 -0.24084561944E+02  0.29515385634E+02  0.00000000000E+00 0. -1.
</event>
<event>
 5    1  0.1325686E-009  0.9118800E+02  0.7818608E-02  0.1130116E+00
         25   -1    0    0    0    0  0.00000000000E+00  0.00000000000E+00  0.99999998245E-14  0.12500000000E+03  0.12500000000E+03 0.  0.
        -13    1    3    3    0    0  0.25768751127E+02  0.19022911523E+02 -0.41514357708E+02  0.52434270829E+02  0.10566000000E+00 0. -1.
         23    2    1    0    0    0  0.16790420759E+02 -0.16074787763E+02 -0.14858381981E+02  0.97412166703E+02  0.93423988760E+02 0.  0.
         13    1    3    3    0    0 -0.89783303675E+01 -0.35097699286E+02  0.26655975726E+02  0.44977895874E+02  0.10566000000E+00 0.  1.
         22    1    1    0    0    0 -0.16790420759E+02  0.16074787763E+02  0.14858381981E+02  0.27587833297E+02  0.00000000000E+00 0. -1.
</event>
<event>
 5    1  0.1325686E-009  0.9118800E+02  0.7818608E-02  0.1130116E+00
         25   -1    0    0    0    0  0.00000000000E+00  0.00000000000E+00  0.99999998245E-14  0.12500000000E+03  0.12500000000E+03 0.  0.
        -13    1    3    3    0    0 -0.75126980722E+01 -0.22806386580E+02 -0.54502274865E+02  0.59557375955E+02  0.10566000000E+00 0. -1.
         23    2    1    0    0    0 -0.52596624873E+01  0.24038453159E+01 -0.28781022272E+02  0.95643744026E+02  0.91027116875E+02 0.  0.
         13    1    3    3    0    0  0.22530355849E+01  0.25210231896E+02  0.25721252593E+02  0.36086368071E+02  0.10566000000E+00 0.  1.
         22    1    1    0    0    0  0.52596624873E+01 -0.24038453159E+01  0.28781022272E+02  0.29356255974E+02  0.00000000000E+00 0. -1.
</event>
<event>
 5    1  0.1325686E-009  0.9118800E+02  0.7818608E-02  0.1130116E+00
         25   -1    0    0    0    0  0.00000000000E+00  0.00000000000E+00  0.99999998245E-14  0.12500000000E+03  0.12500000000E+03 0.  0.
        -13    1    3    3    0    0 -0.95231339929E+00 -0.10989117289E+02  0.34378536981E+02  0.36104882891E+02  0.10566000000E+00 0.  1.
         23    2    1    0    0    0  0.15560717574E+02  0.19600898199E+02 -0.14493777227E+02  0.96079406646E+02  0.91623423105E+02 0.  0.
         13    1    3    3    0    0  0.16513030974E+02  0.30590015488E+02 -0.48872314208E+02  0.59974523755E+02  0.10566000000E+00 0. -1.
         22    1    1    0    0    0 -0.15560717574E+02 -0.19600898199E+02  0.14493777227E+02  0.28920593354E+02  0.00000000000E+00 0. -1.
</event>
<event>
 5    1  0.1325686E-009  0.9118800E+02  0.7818608E-02  0.1130116E+00
         25   -1    0    0    0    0  0.00000000000E+00  0.00000000000E+00  0.99999998245E-14  0.12500000000E+03  0.12500000000E+03 0.  0.
        -13    1    3    3    0    0 -0.22399889950E+02 -0.26987194515E+02 -0.11345614671E+02  0.36861875615E+02  0.10566000000E+00 0. -1.
         23    2    1    0    0    0  0.28855159790E+02  0.89414242331E+00 -0.10435203021E+01  0.96112136254E+02  0.91668064579E+02 0.  0.
         13    1    3    3    0    0  0.51255049740E+02  0.27881336939E+02  0.10302094369E+02  0.59250260639E+02  0.10566000000E+00 0.  1.
         22    1    1    0    0    0 -0.28855159790E+02 -0.89414242331E+00  0.10435203021E+01  0.28887863746E+02  0.00000000000E+00 0.  1.
</event>
<event>
 5    1  0.1325686E-009  0.9118800E+02  0.7818608E-02  0.1130116E+00
         25   -1    0    0    0    0  0.00000000000E+00  0.00000000000E+00  0.99999998245E-14  0.12500000000E+03  0.12500000000E+03 0.  0.
        -13    1    3    3    0    0 -0.49873687911E+02  0.28167047148E+02 -0.80109662880E+01  0.57835577596E+02  0.10566000000E+00 0.  1.
         23    2    1    0    0    0 -0.14043463838E+02  0.25379508528E+02 -0.11181032910E+02  0.93913767893E+02  0.88619647783E+02 0.  0.
         13    1    3    3    0    0  0.35830224073E+02 -0.27875386207E+01 -0.31700666224E+01  0.36078190297E+02  0.10566000000E+00 0. -1.
         22    1    1    0    0    0  0.14043463838E+02 -0.25379508528E+02  0.11181032910E+02  0.31086232107E+02  0.00000000000E+00 0.  1.
</event>
<event>
 5    1  0.1325686E-009  0.9118800E+02  0.7818608E-02  0.1130116E+00
         25   -1    0    0    0    0  0.00000000000E+00  0.00000000000E+00  0.99999998245E-14  0.12500000000E+03  0.12500000000E+03 0.  0.
        -13    1    3    3    0    0  0.31167223645E+02 -0.16269039980E+01  0.13636773424E+02  0.34058998808E+02  0.10566000000E+00 0. -1.
         23    2    1    0    0    0 -0.28613546870E+02  0.60449348210E+01  0.47227442008E+00  0.95751079599E+02  0.91174392786E+02 0.  0.
         13    1    3    3    0    0 -0.59780770515E+02  0.76718388190E+01 -0.13164499004E+02  0.61692080791E+02  0.10566000000E+00 0.  1.
         22    1    1    0    0    0  0.28613546870E+02 -0.60449348210E+01 -0.47227442008E+00  0.29248920401E+02  0.00000000000E+00 0.  1.
</event>
<event>
 5    1  0.1325686E-009  0.9118800E+02  0.7818608E-02  0.1130116E+00
         25   -1    0    0    0    0  0.00000000000E+00  0.00000000000E+00  0.99999998245E-14  0.12500000000E+03  0.12500000000E+03 0.  0.
        -13    1    3    3    0    0 -0.42969849860E+01 -0.54326927769E+02 -0.59683759776E+01  0.54822548615E+02  0.10566000000E+00 0. -1.
         23    2    1    0    0    0  0.25560788984E+01 -0.17452665413E+02 -0.23000569239E+02  0.96014568234E+02  0.91534922616E+02 0.  0.
         13    1    3    3    0    0  0.68530638844E+01  0.36874262356E+02 -0.17032193262E+02  0.41192019619E+02  0.10566000000E+00 0.  1.
         22    1    1    0    0    0 -0.25560788984E+01  0.17452665413E+02  0.23000569239E+02  0.28985431766E+02  0.00000000000E+00 0. -1.
</event>
<event>
 5    1  0.1325686E-009  0.9118800E+02  0.7818608E-02  0.1130116E+00
         25   -1    0    0    0    0  0.00000000000E+00  0.00000000000E+00  0.99999998245E-14  0.12500000000E+03  0.12500000000E+03 0.  0.
        -13    1    3    3    0    0 -0.17082241677E+02  0.26017144877E+02  0.24196425718E+02  0.39423000772E+02  0.10566000000E+00 0. -1.
         23    2    1    0    0    0  0.99746359815E+01 -0.22352842296E+02  0.16740450561E+02  0.95345563457E+02  0.90616725081E+02 0.  0.
         13    1    3    3    0    0  0.27056877658E+02 -0.48369987173E+02 -0.74559751570E+01  0.55922562686E+02  0.10566000000E+00 0.  1.
         22    1    1    0    0    0 -0.99746359815E+01  0.22352842296E+02 -0.16740450561E+02  0.29654436543E+02  0.00000000000E+00 0.  1.
</event>
<event>
 5    1  0.1325686E-009  0.9118800E+02  0.7818608E-02  0.1130116E+00
         25   -1    0    0    0    0  0.00000000000E+00  0.00000000000E+00  0.99999998245E-14  0.12500000000E+03  0.12500000000E+03 0.  0.
        -13    1    3    3    0    0  0.26362187636E+02 -0.23825007880E+02 -0.12701019646E+00  0.35533410096E+02  0.10566000000E+00 0.  1.
         23    2    1    0    0    0 -0.25973073819E+02  0.24967350094E+00  0.14883053025E+02  0.95063931991E+02  0.90227396049E+02 0.  0.
         13    1    3    3    0    0 -0.52335261455E+02  0.24074681381E+02  0.15010063221E+02  0.59530521895E+02  0.10566000000E+00 0. -1.
         22    1    1    0    0    0  0.25973073819E+02 -0.24967350094E+00 -0.14883053025E+02  0.29936068009E+02  0.00000000000E+00 0. -1.
</event>
<event>
 5    1  0.1325686E-009  0.9118800E+02  0.7818608E-02  0.1130116E+00
         25   -1    0    0    0    0  0.00000000000E+00  0.00000000000E+00  0.99999998245E-14  0.12500000000E+03  0.12500000000E+03 0.  0.
        -13    1    3    3    0    0  0.14282438194E+02 -0.85385194641E+01 -0.33736781558E+02  0.37617495256E+02  0.10566000000E+00 0. -1.
         23    2    1    0    0    0 -0.28621433910E+02 -0.19219737956E+02 -0.54746108155E+01  0.90092176095E+02  0.83054464202E+02 0.  0.
         13    1    3    3    0    0 -0.42903872105E+02 -0.10681218492E+02  0.28262170743E+02  0.52474680839E+02  0.10566000000E+00 0.  1.
         22    1    1    0    0    0  0.28621433910E+02  0.19219737956E+02  0.54746108155E+01  0.34907823905E+02  0.00000000000E+00 0.  1.
</event>
<event>
 5    1  0.1325686E-009  0.9118800E+02  0.7818608E-02  0.1130116E+00
         25   -1    0    0    0    0  0.00000000000E+00  0.00000000000E+00  0.99999998245E-14  0.12500000000E+03  0.12500000000E+03 0.  0.
        -13    1    3    3    0    0  0.31138752632E+01 -0.23570022172E+02  0.28454024250E+02  0.37079439376E+02  0.10566000000E+00 0. -1.
         23    2    1    0    0    0 -0.15593217810E+02  0.24260346745E+02 -0.73114558038E+00  0.96151300901E+02  0.91721454552E+02 0.  0.
         13    1    3    3    0    0 -0.18707093073E+02  0.47830368917E+02 -0.29185169831E+02  0.59071861525E+02  0.10566000000E+00 0.  1.
         22    1    1    0    0    0  0.15593217810E+02 -0.24260346745E+02  0.73114558038E+00  0.28848699099E+02  0.00000000000E+00 0.  1.
</event>
<event>
 5    1  0.1325686E-009  0.9118800E+02  0.7818608E-02  0.1130116E+00
         25   -1    0    0    0    0  0.00000000000E+00  0.00000000000E+00  0.99999998245E-14  0.12500000000E+03  0.12500000000E+03 0.  0.
        -13    1    3    3    0    0  0.30447337950E+02  0.88350956976E+01 -0.10573917440E+02  0.33420326125E+02  0.10566000000E+00 0. -1.
         23    2    1    0    0    0 -0.23949872096E+02  0.83061599902E+01  0.17067952956E+02  0.94440162217E+02  0.89359054126E+02 0.  0.
         13    1    3    3    0    0 -0.54397210046E+02 -0.52893570738E+00  0.27641870396E+02  0.61019836093E+02  0.10566000000E+00 0.  1.
         22    1    1    0    0    0  0.23949872096E+02 -0.83061599902E+01 -0.17067952956E+02  0.30559837783E+02  0.00000000000E+00 0.  1.
</event>
<event>
 5    1  0.1325686E-009  0.9118800E+02  0.7818608E-02  0.1130116E+00
         25   -1    0    0    0    0  0.00000000000E+00  0.00000000000E+00  0.99999998245E-14  0.12500000000E+03  0.12500000000E+03 0.  0.
        -13    1    3    3    0    0  0.41784173688E+02 -0.23263020094E+02 -0.23405270757E+02  0.53243808447E+02  0.10566000000E+00 0.  1.
         23    2    1    0    0    0  0.26052162773E+02 -0.22530934646E+02  0.91095719109E+01  0.89372166758E+02  0.81963660786E+02 0.  0.
         13    1    3    3    0    0 -0.15732010915E+02  0.73208544850E+00  0.32514842667E+02  0.36128358311E+02  0.10566000000E+00 0. -1.
         22    1    1    0    0    0 -0.26052162773E+02  0.22530934646E+02 -0.91095719109E+01  0.35627833242E+02  0.00000000000E+00 0.  1.
</event>
<event>
 5    1  0.1325686E-009  0.9118800E+02  0.7818608E-02  0.1130116E+00
         25   -1    0    0    0    0  0.00000000000E+00  0.00000000000E+00  0.99999998245E-14  0.12500000000E+03  0.12500000000E+03 0.  0.
        -13    1    3    3    0    0 -0.54236145415E+02  0.66917797337E+01  0.94497288985E+01  0.55458524374E+02  0.10566000000E+00 0.  1.
         23    2    1    0    0    0 -0.15790763428E+02  0.20689145052E+02  0.11763664665E+02  0.96438264426E+02  0.92111704503E+02 0.  0.
         13    1    3    3    0    0  0.38445381987E+02  0.13997365319E+02  0.23139357665E+01  0.40979740052E+02  0.10566000000E+00 0. -1.
         22    1    1    0    0    0  0.15790763428E+02 -0.20689145052E+02 -0.11763664665E+02  0.28561735574E+02  0.00000000000E+00 0.  1.
</event>
<event>
 5    1  0.1325686E-009  0.9118800E+02  0.7818608E-02  0.1130116E+00
         25   -1    0    0    0    0  0.00000000000E+00  0.00000000000E+00  0.99999998245E-14  0.12500000000E+03  0.12500000000E+03 0.  0.
        -13    1    3    3    0    0  0.47189306810E+02  0.38904004815E+02 -0.11854856996E+02  0.62296878463E+02  0.10566000000E+00 0.  1.
         23    2    1    0    0    0  0.20792286744E+02  0.21247316284E+02 -0.40766946933E+01  0.94993549411E+02  0.90129836085E+02 0.  0.
         13    1    3    3    0    0 -0.26397020066E+02 -0.17656688530E+02  0.77781623025E+01  0.32696670948E+02  0.10566000000E+00 0. -1.
         22    1    1    0    0    0 -0.20792286744E+02 -0.21247316284E+02  0.40766946933E+01  0.30006450589E+02  0.00000000000E+00 0.  1.
</event>
<event>
 5    1  0.1325686E-009  0.9118800E+02  0.7818608E-02  0.1130116E+00
         25   -1    0    0    0    0  0.00000000000E+00  0.00000000000E+00  0.99999998245E-14  0.12500000000E+03  0.12500000000E+03 0.  0.
        -13    1    3    3    0    0  0.24277900451E+02  0.21855473519E+01  0.38111010304E+02  0.45239952895E+02  0.10566000000E+00 0. -1.
         23    2    1    0    0    0 -0.25266398697E+01 -0.26360462960E+02  0.21060758341E+01  0.98435108283E+02  0.94782788895E+02 0.  0.
         13    1    3    3    0    0 -0.26804540321E+02 -0.28546010312E+02 -0.36004934470E+02  0.53195155388E+02  0.10566000000E+00 0.  1.
         22    1    1    0    0    0  0.25266398697E+01  0.26360462960E+02 -0.21060758341E+01  0.26564891717E+02  0.00000000000E+00 0. -1.
</event>
<event>
 5    1  0.1325686E-009  0.9118800E+02  0.7818608E-02  0.1130116E+00
         25   -1    0    0    0    0  0.00000000000E+00  0.00000000000E+00  0.99999998245E-14  0.12500000000E+03  0.12500000000E+03 0.  0.
        -13    1    3    3    0    0 -0.13295195066E+02 -0.32214793622E+02 -0.42449505007E+02  0.54922916704E+02  0.10566000000E+00 0. -1.
         23    2    1    0    0    0 -0.22866896274E+02 -0.21632439255E+01 -0.25321668998E+02  0.90812846121E+02  0.84132107606E+02 0.  0.
         13    1    3    3    0    0 -0.95717012081E+01  0.30051549696E+02  0.17127836009E+02  0.35889929417E+02  0.10566000000E+00 0.  1.
         22    1    1    0    0    0  0.22866896274E+02  0.21632439255E+01  0.25321668998E+02  0.34187153879E+02  0.00000000000E+00 0. -1.
</event>
<event>
 5    1  0.1325686E-009  0.9118800E+02  0.7818608E-02  0.1130116E+00
         25   -1    0    0    0    0  0.00000000000E+00  0.00000000000E+00  0.99999998245E-14  0.12500000000E+03  0.12500000000E+03 0.  0.
        -13    1    3    3    0    0 -0.42062904091E+02 -0.13595785443E+01  0.25989817906E+02  0.49463301074E+02  0.10566000000E+00 0.  1.
         23    2    1    0    0    0 -0.27512910715E+02 -0.21166795574E+02 -0.59668295943E+01  0.89777896908E+02  0.82580107937E+02 0.  0.
         13    1    3    3    0    0  0.14549993376E+02 -0.19807217029E+02 -0.31956647500E+02  0.40314595833E+02  0.10566000000E+00 0. -1.
         22    1    1    0    0    0  0.27512910715E+02  0.21166795574E+02  0.59668295943E+01  0.35222103092E+02  0.00000000000E+00 0.  1.
</event>
<event>
 5    1  0.1325686E-009  0.9118800E+02  0.7818608E-02  0.1130116E+00
         25   -1    0    0    0    0  0.00000000000E+00  0.00000000000E+00  0.99999998245E-14  0.12500000000E+03  0.12500000000E+03 0.  0.
        -13    1    3    3    0    0  0.51887204451E+01  0.60869395562E+02 -0.83654841531E+01  0.61660348889E+02  0.10566000000E+00 0. -1.
         23    2    1    0    0    0  0.48928464435E+01  0.26908395311E+02 -0.10533767735E+02  0.95691947400E+02  0.91093286525E+02 0.  0.
         13    1    3    3    0    0 -0.29587400155E+00 -0.33961000251E+02 -0.21682835821E+01  0.34031598511E+02  0.10566000000E+00 0.  1.
         22    1    1    0    0    0 -0.48928464435E+01 -0.26908395311E+02  0.10533767735E+02  0.29308052600E+02  0.00000000000E+00 0. -1.
</event>
<event>
 5    1  0.1325686E-009  0.9118800E+02  0.7818608E-02  0.1130116E+00
         25   -1    0    0    0    0  0.00000000000E+00  0.00000000000E+00  0.99999998245E-14  0.12500000000E+03  0.12500000000E+03 0.  0.
        -13    1    3    3    0    0 -0.55072315690E+02  0.18220832810E+02 -0.17280161429E+02  0.60527463575E+02  0.10566000000E+00 0.  1.
         23    2    1    0    0    0 -0.28267269162E+02 -0.19933182963E+01 -0.53170575462E+01  0.96168022533E+02  0.91744240328E+02 0.  0.
         13    1    3    3    0    0  0.26805046528E+02 -0.20214151106E+02  0.11963103883E+02  0.35640558959E+02  0.10566000000E+00 0. -1.
         22    1    1    0    0    0  0.28267269162E+02  0.19933182963E+01  0.53170575462E+01  0.28831977467E+02  0.00000000000E+00 0.  1.
</event>
<event>
 5    1  0.1325686E-009  0.9118800E+02  0.7818608E-02  0.1130116E+00
         25   -1    0    0    0    0  0.00000000000E+00  0.00000000000E+00  0.99999998245E-14  0.12500000000E+03  0.12500000000E+03 0.  0.
        -13    1    3    3    0    0 -0.19568723571E+02 -0.45019144426E+02 -0.37337235478E+02  0.61674456821E+02  0.10566000000E+00 0.  1.
         23    2    1    0    0    0 -0.50041098200E+01 -0.25279728397E+02 -0.13380510431E+02  0.95963060728E+02  0.91464556971E+02 0.  0.
         13    1    3    3    0    0  0.14564613751E+02  0.19739416029E+02  0.23956725046E+02  0.34288603907E+02  0.10566000000E+00 0. -1.
         22    1    1    0    0    0  0.50041098200E+01  0.25279728397E+02  0.13380510431E+02  0.29036939272E+02  0.00000000000E+00 0.  1.
</event>
<event>
 5    1  0.1325686E-009  0.9118800E+02  0.7818608E-02  0.1130116E+00
         25   -1    0    0    0    0  0.00000000000E+00  0.00000000000E+00  0.99999998245E-14  0.12500000000E+03  0.12500000000E+03 0.  0.
        -13    1    3    3    0    0 -0.38297305113E+01  0.36546655820E+02  0.24806656208E+02  0.44336285858E+02  0.10566000000E+00 0. -1.
         23    2    1    0    0    0  0.17066763238E+02 -0.10948742801E+02  0.20117117262E+02  0.96436950736E+02  0.92109921745E+02 0.  0.
         13    1    3    3    0    0  0.20896493749E+02 -0.47495398621E+02 -0.46895389461E+01  0.52100664878E+02  0.10566000000E+00 0.  1.
         22    1    1    0    0    0 -0.17066763238E+02  0.10948742801E+02 -0.20117117262E+02  0.28563049264E+02  0.00000000000E+00 0. -1.
</event>
<event>
 5    1  0.1325686E-009  0.9118800E+02  0.7818608E-02  0.1130116E+00
         25   -1    0    0    0    0  0.00000000000E+00  0.00000000000E+00  0.99999998245E-14  0.12500000000E+03  0.12500000000E+03 0.  0.
        -13    1    3    3    0    0 -0.16674796149E+01  0.65457803025E+01 -0.30287373579E+02  0.31031659484E+02  0.10566000000E+00 0.  1.
         23    2    1    0    0    0  0.41631673599E+00 -0.23165215970E+01  0.31462730436E+02  0.93449358193E+02  0.87962148383E+02 0.  0.
         13    1    3    3    0    0  0.20837963509E+01 -0.88623018995E+01  0.61750104015E+02  0.62417698709E+02  0.10566000000E+00 0. -1.
         22    1    1    0    0    0 -0.41631673599E+00  0.23165215970E+01 -0.31462730436E+02  0.31550641807E+02  0.00000000000E+00 0. -1.
</event>
<event>
 5    1  0.1325686E-009  0.9118800E+02  0.7818608E-02  0.1130116E+00
         25   -1    0    0    0    0  0.00000000000E+00  0.00000000000E+00  0.99999998245E-14  0.12500000000E+03  0.12500000000E+03 0.  0.
        -13    1    3    3    0    0 -0.16919809824E+02  0.50010321879E+02  0.29513254729E+02  0.60484342004E+02  0.10566000000E+00 0.  1.
         23    2    1    0    0    0  0.29023895752E+01  0.20627633837E+02  0.17133809261E+02  0.98027967026E+02  0.94244319492E+02 0.  0.
         13    1    3    3    0    0  0.19822199400E+02 -0.29382688042E+02 -0.12379445469E+02  0.37543625022E+02  0.10566000000E+00 0. -1.
         22    1    1    0    0    0 -0.29023895752E+01 -0.20627633837E+02 -0.17133809261E+02  0.26972032974E+02  0.00000000000E+00 0.  1.
</event>
<event>
 5    1  0.1325686E-009  0.9118800E+02  0.7818608E-02  0.1130116E+00
         25   -1    0    0    0    0  0.00000000000E+00  0.00000000000E+00  0.99999998245E-14  0.12500000000E+03  0.12500000000E+03 0.  0.
        -13    1    3    3    0    0 -0.17006897228E+02  0.56355317708E+01 -0.39164348341E+02  0.43067982501E+02  0.10566000000E+00 0. -1.
         23    2    1    0    0    0  0.25622156949E+02  0.10453435712E+02 -0.76812827829E+01  0.96281167327E+02  0.91898268927E+02 0.  0.
         13    1    3    3    0    0  0.42629054176E+02  0.48179039411E+01  0.31483065559E+02  0.53213184826E+02  0.10566000000E+00 0.  1.
         22    1    1    0    0    0 -0.25622156949E+02 -0.10453435712E+02  0.76812827829E+01  0.28718832673E+02  0.00000000000E+00 0. -1.
</event>
<event>
 5    1  0.1325686E-009  0.9118800E+02  0.7818608E-02  0.1130116E+00
         25   -1    0    0    0    0  0.00000000000E+00  0.00000000000E+00  0.99999998245E-14  0.12500000000E+03  0.12500000000E+03 0.  0.
        -13    1    3    3    0    0  0.30845958609E+02 -0.21368874949E+02  0.50816576338E+01  0.37867352528E+02  0.10566000000E+00 0.  1.
         23    2    1    0    0    0 -0.26211619544E+02 -0.12257021058E+02  0.49237321127E+01  0.95648224887E+02  0.91033269862E+02 0.  0.
         13    1    3    3    0    0 -0.57057578154E+02  0.91118538904E+01 -0.15792552109E+00  0.57780872359E+02  0.10566000000E+00 0. -1.
         22    1    1    0    0    0  0.26211619544E+02  0.12257021058E+02 -0.49237321127E+01  0.29351775113E+02  0.00000000000E+00 0. -1.
</event>
<event>
 5    1  0.1325686E-009  0.9118800E+02  0.7818608E-02  0.1130116E+00
         25   -1    0    0    0    0  0.00000000000E+00  0.00000000000E+00  0.99999998245E-14  0.12500000000E+03  0.12500000000E+03 0.  0.
        -13    1    3    3    0    0  0.43694958024E+02  0.62131786446E+01 -0.66528272469E+01  0.44633218795E+02  0.10566000000E+00 0.  1.
         23    2    1    0    0    0  0.11656641372E+02  0.18914292462E+02  0.25088997452E+02  0.91487531566E+02  0.85128625570E+02 0.  0.
         13    1    3    3    0    0 -0.32038316651E+02  0.12701113817E+02  0.31741824699E+02  0.46854312771E+02  0.10566000000E+00 0. -1.
         22    1    1    0    0    0 -0.11656641372E+02 -0.18914292462E+02 -0.25088997452E+02  0.33512468434E+02  0.00000000000E+00 0.  1.
</event>
<event>
 5    1  0.1325686E-009  0.9118800E+02  0.7818608E-02  0.1130116E+00
         25   -1    0    0    0    0  0.00000000000E+00  0.00000000000E+00  0.99999998245E-14  0.12500000000E+03  0.12500000000E+03 0.  0.
        -13    1    3    3    0    0  0.10118117408E+02  0.59268990233E+02  0.12280587780E+02  0.61367853991E+02  0.10566000000E+00 0. -1.
         23    2    1    0    0    0  0.12781477545E+02  0.25176462563E+02  0.59216833410E+01  0.96150619261E+02  0.91720525595E+02 0.  0.
         13    1    3    3    0    0  0.26633601368E+01 -0.34092527670E+02 -0.63589044389E+01  0.34782765271E+02  0.10566000000E+00 0.  1.
         22    1    1    0    0    0 -0.12781477545E+02 -0.25176462563E+02 -0.59216833410E+01  0.28849380739E+02  0.00000000000E+00 0. -1.
</event>
<event>
 5    1  0.1325686E-009  0.9118800E+02  0.7818608E-02  0.1130116E+00
         25   -1    0    0    0    0  0.00000000000E+00  0.00000000000E+00  0.99999998245E-14  0.12500000000E+03  0.12500000000E+03 0.  0.
        -13    1    3    3    0    0  0.11524023868E+02  0.17619766612E+02 -0.29069592284E+02  0.35893058676E+02  0.10566000000E+00 0. -1.
         23    2    1    0    0    0  0.31328015686E+01  0.12111574462E+02  0.28259976936E+02  0.94094806617E+02  0.88874640108E+02 0.  0.
         13    1    3    3    0    0 -0.83912222992E+01 -0.55081921502E+01  0.57329569220E+02  0.58201747941E+02  0.10566000000E+00 0.  1.
         22    1    1    0    0    0 -0.31328015686E+01 -0.12111574462E+02 -0.28259976936E+02  0.30905193383E+02  0.00000000000E+00 0.  1.
</event>
<event>
 5    1  0.1325686E-009  0.9118800E+02  0.7818608E-02  0.1130116E+00
         25   -1    0    0    0    0  0.00000000000E+00  0.00000000000E+00  0.99999998245E-14  0.12500000000E+03  0.12500000000E+03 0.  0.
        -13    1    3    3    0    0  0.45523732386E+02  0.15940203952E+02 -0.17012593157E+02  0.51146258928E+02  0.10566000000E+00 0.  1.
         23    2    1    0    0    0  0.20011253562E+02  0.87126196402E+01  0.19133042907E+02  0.95975297745E+02  0.91481279157E+02 0.  0.
         13    1    3    3    0    0 -0.25512478824E+02 -0.72275843115E+01  0.36145636064E+02  0.44829038817E+02  0.10566000000E+00 0. -1.
         22    1    1    0    0    0 -0.20011253562E+02 -0.87126196402E+01 -0.19133042907E+02  0.29024702255E+02  0.00000000000E+00 0.  1.
</event>
<event>
 5    1  0.1325686E-009  0.9118800E+02  0.7818608E-02  0.1130116E+00
         25   -1    0    0    0    0  0.00000000000E+00  0.00000000000E+00  0.99999998245E-14  0.12500000000E+03  0.12500000000E+03 0.  0.
        -13    1    3    3    0    0  0.17236807928E+02 -0.38917867068E+02 -0.17161101411E+02  0.45893599666E+02  0.10566000000E+00 0.  1.
         23    2    1    0    0    0 -0.26779104668E+01 -0.76348578815E+01  0.23036257365E+02  0.10058419748E+03  0.97575864689E+02 0.  0.
         13    1    3    3    0    0 -0.19914718395E+02  0.31283009186E+02  0.40197358776E+02  0.54690597813E+02  0.10566000000E+00 0. -1.
         22    1    1    0    0    0  0.26779104668E+01  0.76348578815E+01 -0.23036257365E+02  0.24415802521E+02  0.00000000000E+00 0. -1.
</event>
<event>
 5    1  0.1325686E-009  0.9118800E+02  0.7818608E-02  0.1130116E+00
         25   -1    0    0    0    0  0.00000000000E+00  0.00000000000E+00  0.99999998245E-14  0.12500000000E+03  0.12500000000E+03 0.  0.
        -13    1    3    3    0    0 -0.54727711859E+00 -0.12055800952E+02 -0.21331795468E+02  0.24509151571E+02  0.10566000000E+00 0. -1.
         23    2    1    0    0    0 -0.11554866922E+02  0.12516084368E+01  0.37456511552E+02  0.85781742378E+02  0.76291779338E+02 0.  0.
         13    1    3    3    0    0 -0.11007589804E+02  0.13307409389E+02  0.58788307019E+02  0.61272590807E+02  0.10566000000E+00 0.  1.
         22    1    1    0    0    0  0.11554866922E+02 -0.12516084368E+01 -0.37456511552E+02  0.39218257622E+02  0.00000000000E+00 0.  1.
</event>
<event>
 5    1  0.1325686E-009  0.9118800E+02  0.7818608E-02  0.1130116E+00
         25   -1    0    0    0    0  0.00000000000E+00  0.00000000000E+00  0.99999998245E-14  0.12500000000E+03  0.12500000000E+03 0.  0.
        -13    1    3    3    0    0 -0.20135016768E+02 -0.23095039499E+02 -0.13733703408E+02  0.33577157756E+02  0.10566000000E+00 0. -1.
         23    2    1    0    0    0  0.56299812229E+01  0.28483135083E+02  0.74905209929E+01  0.95015110848E+02  0.90159734427E+02 0.  0.
         13    1    3    3    0    0  0.25764997990E+02  0.51578174582E+02  0.21224224401E+02  0.61437953091E+02  0.10566000000E+00 0.  1.
         22    1    1    0    0    0 -0.56299812229E+01 -0.28483135083E+02 -0.74905209929E+01  0.29984889152E+02  0.00000000000E+00 0.  1.
</event>
<event>
 5    1  0.1325686E-009  0.9118800E+02  0.7818608E-02  0.1130116E+00
         25   -1    0    0    0    0  0.00000000000E+00  0.00000000000E+00  0.99999998245E-14  0.12500000000E+03  0.12500000000E+03 0.  0.
        -13    1    3    3    0    0 -0.38549661894E+02  0.69536923050E+01 -0.27840749205E+01  0.39270758918E+02  0.10566000000E+00 0.  1.
         23    2    1    0    0    0  0.51728136598E+01 -0.25581478187E+02 -0.14682830395E+02  0.95054123225E+02  0.90213806074E+02 0.  0.
         13    1    3    3    0    0  0.43722475554E+02 -0.32535170492E+02 -0.11898755474E+02  0.55783364307E+02  0.10566000000E+00 0. -1.
         22    1    1    0    0    0 -0.51728136598E+01  0.25581478187E+02  0.14682830395E+02  0.29945876775E+02  0.00000000000E+00 0. -1.
</event>
<event>
 5    1  0.1325686E-009  0.9118800E+02  0.7818608E-02  0.1130116E+00
         25   -1    0    0    0    0  0.00000000000E+00  0.00000000000E+00  0.99999998245E-14  0.12500000000E+03  0.12500000000E+03 0.  0.
        -13    1    3    3    0    0 -0.46472394245E+02  0.18707410833E+02  0.88365264966E+01  0.50869892977E+02  0.10566000000E+00 0.  1.
         23    2    1    0    0    0 -0.44897175182E+01  0.21154729105E+02  0.21212547380E+02  0.94707223745E+02  0.89731855749E+02 0.  0.
         13    1    3    3    0    0  0.41982676727E+02  0.24473182713E+01  0.12376020884E+02  0.43837330768E+02  0.10566000000E+00 0. -1.
         22    1    1    0    0    0  0.44897175182E+01 -0.21154729105E+02 -0.21212547380E+02  0.30292776255E+02  0.00000000000E+00 0. -1.
</event>
<event>
 5    1  0.1325686E-009  0.9118800E+02  0.7818608E-02  0.1130116E+00
         25   -1    0    0    0    0  0.00000000000E+00  0.00000000000E+00  0.99999998245E-14  0.12500000000E+03  0.12500000000E+03 0.  0.
        -13    1    3    3    0    0 -0.30532356460E+02  0.15786454251E+02  0.21722613833E+01  0.34440772529E+02  0.10566000000E+00 0. -1.
         23    2    1    0    0    0  0.22074525830E+02 -0.17546188878E+02 -0.80579764645E+00  0.96790024023E+02  0.92587828605E+02 0.  0.
         13    1    3    3    0    0  0.52606882290E+02 -0.33332643129E+02 -0.29780590297E+01  0.62349251494E+02  0.10566000000E+00 0.  1.
         22    1    1    0    0    0 -0.22074525830E+02  0.17546188878E+02  0.80579764645E+00  0.28209975977E+02  0.00000000000E+00 0.  1.
</event>
<event>
 5    1  0.1325686E-009  0.9118800E+02  0.7818608E-02  0.1130116E+00
         25   -1    0    0    0    0  0.00000000000E+00  0.00000000000E+00  0.99999998245E-14  0.12500000000E+03  0.12500000000E+03 0.  0.
        -13    1    3    3    0    0 -0.24937882235E+02  0.24968816798E+02 -0.29690820754E+01  0.35414211767E+02  0.10566000000E+00 0. -1.
         23    2    1    0    0    0  0.82272357765E+01 -0.22402344033E+02 -0.17935335255E+02  0.95146546641E+02  0.90341776938E+02 0.  0.
         13    1    3    3    0    0  0.33165118012E+02 -0.47371160831E+02 -0.14966253180E+02  0.59732334874E+02  0.10566000000E+00 0.  1.
         22    1    1    0    0    0 -0.82272357765E+01  0.22402344033E+02  0.17935335255E+02  0.29853453359E+02  0.00000000000E+00 0.  1.
</event>
<event>
 5    1  0.1325686E-009  0.9118800E+02  0.7818608E-02  0.1130116E+00
         25   -1    0    0    0    0  0.00000000000E+00  0.00000000000E+00  0.99999998245E-14  0.12500000000E+03  0.12500000000E+03 0.  0.
        -13    1    3    3    0    0  0.38358240835E+02 -0.18331552872E+02 -0.40698302306E+02  0.58853746230E+02  0.10566000000E+00 0. -1.
         23    2    1    0    0    0  0.15226155195E+02  0.48168733989E+01 -0.25443127012E+02  0.94960180036E+02  0.90083544607E+02 0.  0.
         13    1    3    3    0    0 -0.23132085640E+02  0.23148426271E+02  0.15255175294E+02  0.36106433806E+02  0.10566000000E+00 0.  1.
         22    1    1    0    0    0 -0.15226155195E+02 -0.48168733989E+01  0.25443127012E+02  0.30039819964E+02  0.00000000000E+00 0. -1.
</event>
<event>
 5    1  0.1325686E-009  0.9118800E+02  0.7818608E-02  0.1130116E+00
         25   -1    0    0    0    0  0.00000000000E+00  0.00000000000E+00  0.99999998245E-14  0.12500000000E+03  0.12500000000E+03 0.  0.
        -13    1    3    3    0    0  0.33826007495E+01  0.44149426212E+02 -0.12899282852E+02  0.46119588949E+02  0.10566000000E+00 0. -1.
         23    2    1    0    0    0 -0.54638258492E+01 -0.77506250801E+01  0.16165652851E+02  0.10625823076E+03  0.10459234050E+03 0.  0.
         13    1    3    3    0    0 -0.88464265986E+01 -0.51900051292E+02  0.29064935704E+02  0.60138641814E+02  0.10566000000E+00 0.  1.
         22    1    1    0    0    0  0.54638258492E+01  0.77506250801E+01 -0.16165652851E+02  0.18741769237E+02  0.00000000000E+00 0.  1.
</event>
<event>
 5    1  0.1325686E-009  0.9118800E+02  0.7818608E-02  0.1130116E+00
         25   -1    0    0    0    0  0.00000000000E+00  0.00000000000E+00  0.99999998245E-14  0.12500000000E+03  0.12500000000E+03 0.  0.
        -13    1    3    3    0    0  0.32967240302E+02 -0.18296391726E+02 -0.59311516702E+01  0.38167874024E+02  0.10566000000E+00 0.  1.
         23    2    1    0    0    0 -0.89695694330E+01  0.44661363655E+01  0.27037257658E+02  0.96165769448E+02  0.91741170485E+02 0.  0.
         13    1    3    3    0    0 -0.41936809735E+02  0.22762528092E+02  0.32968409329E+02  0.57997895424E+02  0.10566000000E+00 0. -1.
         22    1    1    0    0    0  0.89695694330E+01 -0.44661363655E+01 -0.27037257658E+02  0.28834230552E+02  0.00000000000E+00 0. -1.
</event>
<event>
 5    1  0.1325686E-009  0.9118800E+02  0.7818608E-02  0.1130116E+00
         25   -1    0    0    0    0  0.00000000000E+00  0.00000000000E+00  0.99999998245E-14  0.12500000000E+03  0.12500000000E+03 0.  0.
        -13    1    3    3    0    0 -0.28250405769E+02 -0.27349759730E+02 -0.12667177546E+02  0.41310571703E+02  0.10566000000E+00 0.  1.
         23    2    1    0    0    0 -0.37761911663E+01  0.19454303439E+02 -0.22480834535E+02  0.95031392035E+02  0.90182304299E+02 0.  0.
         13    1    3    3    0    0  0.24474214603E+02  0.46804063169E+02 -0.98136569888E+01  0.53720820331E+02  0.10566000000E+00 0. -1.
         22    1    1    0    0    0  0.37761911663E+01 -0.19454303439E+02  0.22480834535E+02  0.29968607965E+02  0.00000000000E+00 0. -1.
</event>
<event>
 5    1  0.1325686E-009  0.9118800E+02  0.7818608E-02  0.1130116E+00
         25   -1    0    0    0    0  0.00000000000E+00  0.00000000000E+00  0.99999998245E-14  0.12500000000E+03  0.12500000000E+03 0.  0.
        -13    1    3    3    0    0  0.11571077524E+02 -0.58521718326E+02  0.17160651458E+02  0.62073991924E+02  0.10566000000E+00 0.  1.
         23    2    1    0    0    0  0.19970234549E+01 -0.24093642612E+02  0.11402871451E+02  0.98269545565E+02  0.94564191908E+02 0.  0.
         13    1    3    3    0    0 -0.95740540689E+01  0.34428075715E+02 -0.57577800069E+01  0.36195553641E+02  0.10566000000E+00 0. -1.
         22    1    1    0    0    0 -0.19970234549E+01  0.24093642612E+02 -0.11402871451E+02  0.26730454435E+02  0.00000000000E+00 0.  1.
</event>
<event>
 5    1  0.1325686E-009  0.9118800E+02  0.7818608E-02  0.1130116E+00
         25   -1    0    0    0    0  0.00000000000E+00  0.00000000000E+00  0.99999998245E-14  0.12500000000E+03  0.12500000000E+03 0.  0.
        -13    1    3    3    0    0 -0.22189914687E+02 -0.12158841191E+02  0.22325493144E+02  0.33744163067E+02  0.10566000000E+00 0. -1.
         23    2    1    0    0    0  0.46843809537E+01  0.68515581360E+01 -0.29064646556E+02  0.94773505773E+02  0.89824141762E+02 0.  0.
         13    1    3    3    0    0  0.26874295641E+02  0.19010399327E+02 -0.51390139699E+02  0.61029342706E+02  0.10566000000E+00 0.  1.
         22    1    1    0    0    0 -0.46843809537E+01 -0.68515581360E+01  0.29064646556E+02  0.30226494227E+02  0.00000000000E+00 0.  1.
</event>
<event>
 5    1  0.1325686E-009  0.9118800E+02  0.7818608E-02  0.1130116E+00
         25   -1    0    0    0    0  0.00000000000E+00  0.00000000000E+00  0.99999998245E-14  0.12500000000E+03  0.12500000000E+03 0.  0.
        -13    1    3    3    0    0 -0.29605830291E+02  0.32830979450E+02 -0.19986704957E+02  0.48516573848E+02  0.10566000000E+00 0. -1.
         23    2    1    0    0    0  0.13044861285E+02  0.25260521768E+02  0.79012524129E+00  0.96559067107E+02  0.92275493912E+02 0.  0.
         13    1    3    3    0    0  0.42650691576E+02 -0.75704576813E+01  0.20776830198E+02  0.48042493259E+02  0.10566000000E+00 0.  1.
         22    1    1    0    0    0 -0.13044861285E+02 -0.25260521768E+02 -0.79012524129E+00  0.28440932893E+02  0.00000000000E+00 0. -1.
</event>
<event>
 5    1  0.1325686E-009  0.9118800E+02  0.7818608E-02  0.1130116E+00
         25   -1    0    0    0    0  0.00000000000E+00  0.00000000000E+00  0.99999998245E-14  0.12500000000E+03  0.12500000000E+03 0.  0.
        -13    1    3    3    0    0  0.17529100387E+02  0.22149564106E+02 -0.21044889754E+02  0.35224580895E+02  0.10566000000E+00 0.  1.
         23    2    1    0    0    0 -0.16651493881E+02 -0.24083856075E+02 -0.26102715470E+01  0.95604117815E+02  0.90972685206E+02 0.  0.
         13    1    3    3    0    0 -0.34180594268E+02 -0.46233420181E+02  0.18434618207E+02  0.60379536919E+02  0.10566000000E+00 0. -1.
         22    1    1    0    0    0  0.16651493881E+02  0.24083856075E+02  0.26102715470E+01  0.29395882185E+02  0.00000000000E+00 0. -1.
</event>
<event>
 5    1  0.1325686E-009  0.9118800E+02  0.7818608E-02  0.1130116E+00
         25   -1    0    0    0    0  0.00000000000E+00  0.00000000000E+00  0.99999998245E-14  0.12500000000E+03  0.12500000000E+03 0.  0.
        -13    1    3    3    0    0  0.32439837546E+02 -0.85489340923E+01  0.16647578622E+02  0.37451039666E+02  0.10566000000E+00 0. -1.
         23    2    1    0    0    0 -0.24280972514E+02 -0.15034226773E+02  0.21088542174E+01  0.96363644314E+02  0.92010385709E+02 0.  0.
         13    1    3    3    0    0 -0.56720810060E+02 -0.64852926809E+01 -0.14538724404E+02  0.58912604647E+02  0.10566000000E+00 0.  1.
         22    1    1    0    0    0  0.24280972514E+02  0.15034226773E+02 -0.21088542174E+01  0.28636355686E+02  0.00000000000E+00 0.  1.
</event>
<event>
 5    1  0.1325686E-009  0.9118800E+02  0.7818608E-02  0.1130116E+00
         25   -1    0    0    0    0  0.00000000000E+00  0.00000000000E+00  0.99999998245E-14  0.12500000000E+03  0.12500000000E+03 0.  0.
        -13    1    3    3    0    0  0.52635067925E+02  0.19790297339E+02  0.35643512568E+01  0.56345558903E+02  0.10566000000E+00 0.  1.
         23    2    1    0    0    0  0.15242053047E+02  0.16185039062E+02  0.17800990903E+02  0.96519288147E+02  0.92221592031E+02 0.  0.
         13    1    3    3    0    0 -0.37393014878E+02 -0.36052582774E+01  0.14236639646E+02  0.40173729244E+02  0.10566000000E+00 0. -1.
         22    1    1    0    0    0 -0.15242053047E+02 -0.16185039062E+02 -0.17800990903E+02  0.28480711853E+02  0.00000000000E+00 0.  1.
</event>
<event>
 5    1  0.1325686E-009  0.9118800E+02  0.7818608E-02  0.1130116E+00
         25   -1    0    0    0    0  0.00000000000E+00  0.00000000000E+00  0.99999998245E-14  0.12500000000E+03  0.12500000000E+03 0.  0.
        -13    1    3    3    0    0  0.15616632748E+02 -0.35995138935E+02  0.37508960023E+02  0.54281327281E+02  0.10566000000E+00 0.  1.
         23    2    1    0    0    0  0.13484904200E+02 -0.25295962455E+02 -0.29475236743E+01  0.96183056137E+02  0.91764721077E+02 0.  0.
         13    1    3    3    0    0 -0.21317285481E+01  0.10699176481E+02 -0.40456483697E+02  0.41901728856E+02  0.10566000000E+00 0. -1.
         22    1    1    0    0    0 -0.13484904200E+02  0.25295962455E+02  0.29475236743E+01  0.28816943863E+02  0.00000000000E+00 0.  1.
</event>
<event>
 5    1  0.1325686E-009  0.9118800E+02  0.7818608E-02  0.1130116E+00
         25   -1    0    0    0    0  0.00000000000E+00  0.00000000000E+00  0.99999998245E-14  0.12500000000E+03  0.12500000000E+03 0.  0.
        -13    1    3    3    0    0  0.19685128260E+02 -0.23667817793E+02 -0.18332727641E+02  0.35829735423E+02  0.10566000000E+00 0. -1.
         23    2    1    0    0    0  0.21293905669E+01  0.13678287190E+02  0.25470944501E+02  0.96010366363E+02  0.91529184367E+02 0.  0.
         13    1    3    3    0    0 -0.17555737693E+02  0.37346104982E+02  0.43803672142E+02  0.60180630941E+02  0.10566000000E+00 0.  1.
         22    1    1    0    0    0 -0.21293905669E+01 -0.13678287190E+02 -0.25470944501E+02  0.28989633637E+02  0.00000000000E+00 0.  1.
</event>
<event>
 5    1  0.1325686E-009  0.9118800E+02  0.7818608E-02  0.1130116E+00
         25   -1    0    0    0    0  0.00000000000E+00  0.00000000000E+00  0.99999998245E-14  0.12500000000E+03  0.12500000000E+03 0.  0.
        -13    1    3    3    0    0 -0.31793667792E+02 -0.49674094596E+02 -0.68166153981E+01  0.59370282087E+02  0.10566000000E+00 0.  1.
         23    2    1    0    0    0 -0.23466699543E+02 -0.13883615028E+02 -0.92764923299E+01  0.96199061410E+02  0.91786520539E+02 0.  0.
         13    1    3    3    0    0  0.83269682489E+01  0.35790479567E+02 -0.24598769318E+01  0.36828779323E+02  0.10566000000E+00 0. -1.
         22    1    1    0    0    0  0.23466699543E+02  0.13883615028E+02  0.92764923299E+01  0.28800938590E+02  0.00000000000E+00 0.  1.
</event>
<event>
 5    1  0.1325686E-009  0.9118800E+02  0.7818608E-02  0.1130116E+00
         25   -1    0    0    0    0  0.00000000000E+00  0.00000000000E+00  0.99999998245E-14  0.12500000000E+03  0.12500000000E+03 0.  0.
        -13    1    3    3    0    0  0.35762764819E+02  0.37773348957E+02 -0.37681791019E+01  0.52153730228E+02  0.10566000000E+00 0.  1.
         23    2    1    0    0    0  0.17202769255E+02  0.79658540853E+01  0.22185563862E+02  0.95817996209E+02  0.91266089279E+02 0.  0.
         13    1    3    3    0    0 -0.18559995563E+02 -0.29807494871E+02  0.25953742964E+02  0.43664265982E+02  0.10566000000E+00 0. -1.
         22    1    1    0    0    0 -0.17202769255E+02 -0.79658540853E+01 -0.22185563862E+02  0.29182003791E+02  0.00000000000E+00 0.  1.
</event>
<event>
 5    1  0.1325686E-009  0.9118800E+02  0.7818608E-02  0.1130116E+00
         25   -1    0    0    0    0  0.00000000000E+00  0.00000000000E+00  0.99999998245E-14  0.12500000000E+03  0.12500000000E+03 0.  0.
        -13    1    3    3    0    0 -0.12220318255E+02 -0.54182892115E+02 -0.19437232850E+02  0.58846742995E+02  0.10566000000E+00 0. -1.
         23    2    1    0    0    0 -0.19760375725E+02 -0.19767770473E+02 -0.72801244190E+01  0.96116831721E+02  0.91674467167E+02 0.  0.
         13    1    3    3    0    0 -0.75400574700E+01  0.34415121642E+02  0.12157108431E+02  0.37270088727E+02  0.10566000000E+00 0.  1.
         22    1    1    0    0    0  0.19760375725E+02  0.19767770473E+02  0.72801244190E+01  0.28883168279E+02  0.00000000000E+00 0. -1.
</event>
<event>
 5    1  0.1325686E-009  0.9118800E+02  0.7818608E-02  0.1130116E+00
         25   -1    0    0    0    0  0.00000000000E+00  0.00000000000E+00  0.99999998245E-14  0.12500000000E+03  0.12500000000E+03 0.  0.
        -13    1    3    3    0    0  0.31239985801E+02 -0.21862913478E+02 -0.16565602558E+02  0.41573477732E+02  0.10566000000E+00 0. -1.
         23    2    1    0    0    0 -0.15873600176E+02 -0.19657596053E+01 -0.26856319719E+02  0.93741444336E+02  0.88376247284E+02 0.  0.
         13    1    3    3    0    0 -0.47113585977E+02  0.19897153873E+02 -0.10290717161E+02  0.52167966604E+02  0.10566000000E+00 0.  1.
         22    1    1    0    0    0  0.15873600176E+02  0.19657596053E+01  0.26856319719E+02  0.31258555664E+02  0.00000000000E+00 0.  1.
</event>
<event>
 5    1  0.1325686E-009  0.9118800E+02  0.7818608E-02  0.1130116E+00
         25   -1    0    0    0    0  0.00000000000E+00  0.00000000000E+00  0.99999998245E-14  0.12500000000E+03  0.12500000000E+03 0.  0.
        -13    1    3    3    0    0  0.70748853503E+00 -0.58424230954E+01 -0.28564986015E+02  0.29165116796E+02  0.10566000000E+00 0.  1.
         23    2    1    0    0    0 -0.21156720650E+02  0.24108305225E+01  0.27682934780E+02  0.90074882813E+02  0.83028433102E+02 0.  0.
         13    1    3    3    0    0 -0.21864209185E+02  0.82532536178E+01  0.56247920795E+02  0.60909766018E+02  0.10566000000E+00 0. -1.
         22    1    1    0    0    0  0.21156720650E+02 -0.24108305225E+01 -0.27682934780E+02  0.34925117187E+02  0.00000000000E+00 0. -1.
</event>
<event>
 5    1  0.1325686E-009  0.9118800E+02  0.7818608E-02  0.1130116E+00
         25   -1    0    0    0    0  0.00000000000E+00  0.00000000000E+00  0.99999998245E-14  0.12500000000E+03  0.12500000000E+03 0.  0.
        -13    1    3    3    0    0  0.11489971044E+02  0.20329337447E+02  0.48483989091E+02  0.53814586851E+02  0.10566000000E+00 0.  1.
         23    2    1    0    0    0 -0.13591389273E+02  0.21032990385E+02  0.14483724118E+02  0.96070934836E+02  0.91611864456E+02 0.  0.
         13    1    3    3    0    0 -0.25081360317E+02  0.70365293740E+00 -0.34000264973E+02  0.42256347986E+02  0.10566000000E+00 0. -1.
         22    1    1    0    0    0  0.13591389273E+02 -0.21032990385E+02 -0.14483724118E+02  0.28929065164E+02  0.00000000000E+00 0.  1.
</event>
<event>
 5    1  0.1325686E-009  0.9118800E+02  0.7818608E-02  0.1130116E+00
         25   -1    0    0    0    0  0.00000000000E+00  0.00000000000E+00  0.99999998245E-14  0.12500000000E+03  0.12500000000E+03 0.  0.
        -13    1    3    3    0    0 -0.21263863666E+02 -0.34159656568E+02  0.83458138677E+01  0.41093768482E+02  0.10566000000E+00 0. -1.
         23    2    1    0    0    0  0.26723073257E+02 -0.45760416545E+01  0.31321836781E+01  0.97707631540E+02  0.93818483707E+02 0.  0.
         13    1    3    3    0    0  0.47986936924E+02  0.29583614913E+02 -0.52136301896E+01  0.56613863059E+02  0.10566000000E+00 0.  1.
         22    1    1    0    0    0 -0.26723073257E+02  0.45760416545E+01 -0.31321836781E+01  0.27292368460E+02  0.00000000000E+00 0.  1.
</event>
<event>
 4    1  0.1325686E-009  0.9118800E+02  0.7818608E-02  0.1130116E+00
         25   -1    0    0    0    0  0.00000000000E+00  0.00000000000E+00  0.99999998245E-14  0.12500000000E+03  0.12500000000E+03 0.  0.
        -13    1    1    0    0    0  0.42200483724E+02  0.12660601838E+02 -0.73785400168E+01  0.44672426421E+02  0.10566000000E+00 0. -1.
         13    1    1    0    0    0  0.96437342798E+01  0.12358416369E+02  0.15673537215E+02  0.22167611483E+02  0.10566000000E+00 0.  1.
         22    1    1    0    0    0 -0.51844218004E+02 -0.25019018207E+02 -0.82949971981E+01  0.58159962096E+02  0.00000000000E+00 0. -1.
</event>
<event>
 5    1  0.1325686E-009  0.9118800E+02  0.7818608E-02  0.1130116E+00
         25   -1    0    0    0    0  0.00000000000E+00  0.00000000000E+00  0.99999998245E-14  0.12500000000E+03  0.12500000000E+03 0.  0.
        -13    1    3    3    0    0 -0.15615123977E+02 -0.11968690175E+02  0.23833267851E+02  0.30904974710E+02  0.10566000000E+00 0.  1.
         23    2    1    0    0    0  0.22441035409E+02 -0.22876669832E+01 -0.23512862599E+02  0.92416442827E+02  0.86481851892E+02 0.  0.
         13    1    3    3    0    0  0.38056159386E+02  0.96810231918E+01 -0.47346130450E+02  0.61511468117E+02  0.10566000000E+00 0. -1.
         22    1    1    0    0    0 -0.22441035409E+02  0.22876669832E+01  0.23512862599E+02  0.32583557173E+02  0.00000000000E+00 0. -1.
</event>
<event>
 5    1  0.1325686E-009  0.9118800E+02  0.7818608E-02  0.1130116E+00
         25   -1    0    0    0    0  0.00000000000E+00  0.00000000000E+00  0.99999998245E-14  0.12500000000E+03  0.12500000000E+03 0.  0.
        -13    1    3    3    0    0  0.36088381448E+02  0.20531859601E+02 -0.13425684534E+02  0.43637010707E+02  0.10566000000E+00 0.  1.
         23    2    1    0    0    0  0.52141434025E+01 -0.17794746266E+02 -0.24687236060E+02  0.94124444776E+02  0.88916315680E+02 0.  0.
         13    1    3    3    0    0 -0.30874238045E+02 -0.38326605866E+02 -0.11261551527E+02  0.50487434069E+02  0.10566000000E+00 0. -1.
         22    1    1    0    0    0 -0.52141434025E+01  0.17794746266E+02  0.24687236060E+02  0.30875555224E+02  0.00000000000E+00 0.  1.
</event>
<event>
 5    1  0.1325686E-009  0.9118800E+02  0.7818608E-02  0.1130116E+00
         25   -1    0    0    0    0  0.00000000000E+00  0.00000000000E+00  0.99999998245E-14  0.12500000000E+03  0.12500000000E+03 0.  0.
        -13    1    3    3    0    0 -0.24174749266E+02  0.91233497011E+01 -0.27353417976E+02  0.37628109849E+02  0.10566000000E+00 0.  1.
         23    2    1    0    0    0  0.26177561718E+02  0.12302495160E+02  0.20142786555E+01  0.96005630837E+02  0.91522716902E+02 0.  0.
         13    1    3    3    0    0  0.50352310983E+02  0.31791454593E+01  0.29367696631E+02  0.58377520988E+02  0.10566000000E+00 0. -1.
         22    1    1    0    0    0 -0.26177561718E+02 -0.12302495160E+02 -0.20142786555E+01  0.28994369163E+02  0.00000000000E+00 0. -1.
</event>
<event>
 5    1  0.1325686E-009  0.9118800E+02  0.7818608E-02  0.1130116E+00
         25   -1    0    0    0    0  0.00000000000E+00  0.00000000000E+00  0.99999998245E-14  0.12500000000E+03  0.12500000000E+03 0.  0.
        -13    1    3    3    0    0  0.26879222942E+00 -0.32165450216E+02 -0.45796281442E+02  0.55964265338E+02  0.10566000000E+00 0. -1.
         23    2    1    0    0    0  0.19815689568E+02 -0.17954479157E+02 -0.18161569745E+02  0.92675589867E+02  0.86855612754E+02 0.  0.
         13    1    3    3    0    0  0.19546897339E+02  0.14210971060E+02  0.27634711697E+02  0.36711324529E+02  0.10566000000E+00 0.  1.
         22    1    1    0    0    0 -0.19815689568E+02  0.17954479157E+02  0.18161569745E+02  0.32324410133E+02  0.00000000000E+00 0. -1.
</event>
<event>
 4    1  0.1325686E-009  0.9118800E+02  0.7818608E-02  0.1130116E+00
         25   -1    0    0    0    0  0.00000000000E+00  0.00000000000E+00  0.99999998245E-14  0.12500000000E+03  0.12500000000E+03 0.  0.
        -13    1    1    0    0    0  0.17206819011E+02  0.58683942763E+02 -0.11103507742E+02  0.62154475357E+02  0.10566000000E+00 0.  1.
         13    1    1    0    0    0 -0.33210059699E+01 -0.95539724202E+01 -0.15828534372E+01  0.10238362110E+02  0.10566000000E+00 0. -1.
         22    1    1    0    0    0 -0.13885813042E+02 -0.49129970343E+02  0.12686361179E+02  0.52607162532E+02  0.00000000000E+00 0.  1.
</event>
<event>
 5    1  0.1325686E-009  0.9118800E+02  0.7818608E-02  0.1130116E+00
         25   -1    0    0    0    0  0.00000000000E+00  0.00000000000E+00  0.99999998245E-14  0.12500000000E+03  0.12500000000E+03 0.  0.
        -13    1    3    3    0    0 -0.34159970792E+02 -0.49556006432E+01 -0.27509416989E+02  0.44138880472E+02  0.10566000000E+00 0.  1.
         23    2    1    0    0    0 -0.24402371716E+01 -0.26374915847E+02  0.89914289993E+01  0.97027929307E+02  0.92908462084E+02 0.  0.
         13    1    3    3    0    0  0.31719733620E+02 -0.21419315204E+02  0.36500845989E+02  0.52889048835E+02  0.10566000000E+00 0. -1.
         22    1    1    0    0    0  0.24402371716E+01  0.26374915847E+02 -0.89914289993E+01  0.27972070693E+02  0.00000000000E+00 0. -1.
</event>
<event>
 5    1  0.1325686E-009  0.9118800E+02  0.7818608E-02  0.1130116E+00
         25   -1    0    0    0    0  0.00000000000E+00  0.00000000000E+00  0.99999998245E-14  0.12500000000E+03  0.12500000000E+03 0.  0.
        -13    1    3    3    0    0 -0.14169355961E+01  0.37098230295E+02  0.20405192743E+02  0.42363539186E+02  0.10566000000E+00 0.  1.
         23    2    1    0    0    0 -0.11367538541E+02  0.10791040517E+02 -0.24834019477E+02  0.95633420163E+02  0.91012938865E+02 0.  0.
         13    1    3    3    0    0 -0.99506029448E+01 -0.26307189778E+02 -0.45239212220E+02  0.53269880977E+02  0.10566000000E+00 0. -1.
         22    1    1    0    0    0  0.11367538541E+02 -0.10791040517E+02  0.24834019477E+02  0.29366579837E+02  0.00000000000E+00 0. -1.
</event>
<event>
 5    1  0.1325686E-009  0.9118800E+02  0.7818608E-02  0.1130116E+00
         25   -1    0    0    0    0  0.00000000000E+00  0.00000000000E+00  0.99999998245E-14  0.12500000000E+03  0.12500000000E+03 0.  0.
        -13    1    3    3    0    0  0.29192623268E+02 -0.27534103394E+02 -0.42970529856E+01  0.40358542235E+02  0.10566000000E+00 0. -1.
         23    2    1    0    0    0  0.47837635000E+01  0.88008410096E+01 -0.31534038470E+02  0.91913223519E+02  0.85751419112E+02 0.  0.
         13    1    3    3    0    0 -0.24408859768E+02  0.36334944403E+02 -0.27236985484E+02  0.51554681284E+02  0.10566000000E+00 0.  1.
         22    1    1    0    0    0 -0.47837635000E+01 -0.88008410096E+01  0.31534038470E+02  0.33086776481E+02  0.00000000000E+00 0. -1.
</event>
<event>
 5    1  0.1325686E-009  0.9118800E+02  0.7818608E-02  0.1130116E+00
         25   -1    0    0    0    0  0.00000000000E+00  0.00000000000E+00  0.99999998245E-14  0.12500000000E+03  0.12500000000E+03 0.  0.
        -13    1    3    3    0    0  0.89194291854E+01 -0.48569657592E+01 -0.33581587039E+02  0.35083906360E+02  0.10566000000E+00 0.  1.
         23    2    1    0    0    0 -0.10433537042E+01 -0.11950196045E+02  0.26242725090E+02  0.96145600117E+02  0.91713685071E+02 0.  0.
         13    1    3    3    0    0 -0.99627828896E+01 -0.70932302862E+01  0.59824312129E+02  0.61061693757E+02  0.10566000000E+00 0. -1.
         22    1    1    0    0    0  0.10433537042E+01  0.11950196045E+02 -0.26242725090E+02  0.28854399883E+02  0.00000000000E+00 0. -1.
</event>
<event>
 5    1  0.1325686E-009  0.9118800E+02  0.7818608E-02  0.1130116E+00
         25   -1    0    0    0    0  0.00000000000E+00  0.00000000000E+00  0.99999998245E-14  0.12500000000E+03  0.12500000000E+03 0.  0.
        -13    1    3    3    0    0  0.23312334096E+02 -0.45234691128E+02 -0.21715158686E+02  0.55328125608E+02  0.10566000000E+00 0.  1.
         23    2    1    0    0    0  0.64008162906E+01 -0.25758848224E+02  0.10377126346E+02  0.96501342800E+02  0.92197265143E+02 0.  0.
         13    1    3    3    0    0 -0.16911517805E+02  0.19475842904E+02  0.32092285032E+02  0.41173217192E+02  0.10566000000E+00 0. -1.
         22    1    1    0    0    0 -0.64008162906E+01  0.25758848224E+02 -0.10377126346E+02  0.28498657200E+02  0.00000000000E+00 0. -1.
</event>
<event>
 5    1  0.1325686E-009  0.9118800E+02  0.7818608E-02  0.1130116E+00
         25   -1    0    0    0    0  0.00000000000E+00  0.00000000000E+00  0.99999998245E-14  0.12500000000E+03  0.12500000000E+03 0.  0.
        -13    1    3    3    0    0 -0.66574688860E+01 -0.33969734182E+02  0.39725590055E+02  0.52691540134E+02  0.10566000000E+00 0. -1.
         23    2    1    0    0    0 -0.57071840217E+00 -0.28864175564E+02 -0.28386391054E+01  0.95990963090E+02  0.91502681777E+02 0.  0.
         13    1    3    3    0    0  0.60867504838E+01  0.51055586177E+01 -0.42564229161E+02  0.43299422956E+02  0.10566000000E+00 0.  1.
         22    1    1    0    0    0  0.57071840217E+00  0.28864175564E+02  0.28386391054E+01  0.29009036910E+02  0.00000000000E+00 0. -1.
</event>
<event>
 5    1  0.1325686E-009  0.9118800E+02  0.7818608E-02  0.1130116E+00
         25   -1    0    0    0    0  0.00000000000E+00  0.00000000000E+00  0.99999998245E-14  0.12500000000E+03  0.12500000000E+03 0.  0.
        -13    1    3    3    0    0  0.68873631810E+01  0.44649738503E+02  0.33412278510E+02  0.56190981832E+02  0.10566000000E+00 0.  1.
         23    2    1    0    0    0  0.71517474458E+01  0.26353303337E+02 -0.35782206135E+01  0.97460069880E+02  0.93488060574E+02 0.  0.
         13    1    3    3    0    0  0.26438426476E+00 -0.18296435167E+02 -0.36990499123E+02  0.41269088048E+02  0.10566000000E+00 0. -1.
         22    1    1    0    0    0 -0.71517474458E+01 -0.26353303337E+02  0.35782206135E+01  0.27539930120E+02  0.00000000000E+00 0.  1.
</event>
<event>
 5    1  0.1325686E-009  0.9118800E+02  0.7818608E-02  0.1130116E+00
         25   -1    0    0    0    0  0.00000000000E+00  0.00000000000E+00  0.99999998245E-14  0.12500000000E+03  0.12500000000E+03 0.  0.
        -13    1    3    3    0    0  0.56009398212E+01 -0.18427076994E+02 -0.40657133643E+02  0.44988235946E+02  0.10566000000E+00 0. -1.
         23    2    1    0    0    0 -0.27171572969E+02 -0.38016528138E+01 -0.23759704866E+01  0.97461078861E+02  0.93489409643E+02 0.  0.
         13    1    3    3    0    0 -0.32772512790E+02  0.14625424180E+02  0.38281163156E+02  0.52472842916E+02  0.10566000000E+00 0.  1.
         22    1    1    0    0    0  0.27171572969E+02  0.38016528138E+01  0.23759704866E+01  0.27538921139E+02  0.00000000000E+00 0.  1.
</event>
<event>
 5    1  0.1325686E-009  0.9118800E+02  0.7818608E-02  0.1130116E+00
         25   -1    0    0    0    0  0.00000000000E+00  0.00000000000E+00  0.99999998245E-14  0.12500000000E+03  0.12500000000E+03 0.  0.
        -13    1    3    3    0    0  0.11477192084E+02  0.27029339881E+02  0.38343392853E+02  0.48296356923E+02  0.10566000000E+00 0. -1.
         23    2    1    0    0    0 -0.24371943282E+02  0.12371560945E+02  0.11919115956E+02  0.95182011055E+02  0.90390833406E+02 0.  0.
         13    1    3    3    0    0 -0.35849135365E+02 -0.14657778936E+02 -0.26424276898E+02  0.46885654132E+02  0.10566000000E+00 0.  1.
         22    1    1    0    0    0  0.24371943282E+02 -0.12371560945E+02 -0.11919115956E+02  0.29817988945E+02  0.00000000000E+00 0.  1.
</event>
<event>
 5    1  0.1325686E-009  0.9118800E+02  0.7818608E-02  0.1130116E+00
         25   -1    0    0    0    0  0.00000000000E+00  0.00000000000E+00  0.99999998245E-14  0.12500000000E+03  0.12500000000E+03 0.  0.
        -13    1    3    3    0    0  0.27853288067E+02  0.10468854203E+02 -0.23937672987E+02  0.38189342970E+02  0.10566000000E+00 0. -1.
         23    2    1    0    0    0 -0.23632556852E+02  0.17692502445E+02  0.12528452410E+00  0.95478176168E+02  0.90799471595E+02 0.  0.
         13    1    3    3    0    0 -0.51485844919E+02  0.72236482420E+01  0.24062957511E+02  0.57288833198E+02  0.10566000000E+00 0.  1.
         22    1    1    0    0    0  0.23632556852E+02 -0.17692502445E+02 -0.12528452410E+00  0.29521823832E+02  0.00000000000E+00 0.  1.
</event>
<event>
 5    1  0.1325686E-009  0.9118800E+02  0.7818608E-02  0.1130116E+00
         25   -1    0    0    0    0  0.00000000000E+00  0.00000000000E+00  0.99999998245E-14  0.12500000000E+03  0.12500000000E+03 0.  0.
        -13    1    3    3    0    0 -0.27433054179E+02 -0.75515655578E+01 -0.32926559701E+02  0.43517445947E+02  0.10566000000E+00 0. -1.
         23    2    1    0    0    0 -0.24154156170E+01  0.28279752556E+02 -0.30524744050E+01  0.96453612537E+02  0.92132530271E+02 0.  0.
         13    1    3    3    0    0  0.25017638562E+02  0.35831318113E+02  0.29874085296E+02  0.52936166590E+02  0.10566000000E+00 0.  1.
         22    1    1    0    0    0  0.24154156170E+01 -0.28279752556E+02  0.30524744050E+01  0.28546387463E+02  0.00000000000E+00 0.  1.
</event>
<event>
 5    1  0.1325686E-009  0.9118800E+02  0.7818608E-02  0.1130116E+00
         25   -1    0    0    0    0  0.00000000000E+00  0.00000000000E+00  0.99999998245E-14  0.12500000000E+03  0.12500000000E+03 0.  0.
        -13    1    3    3    0    0 -0.79259222401E+01 -0.33300833847E+02 -0.17164796061E+02  0.38293696167E+02  0.10566000000E+00 0.  1.
         23    2    1    0    0    0 -0.25716386342E+02 -0.23985333325E+02  0.22848248700E+02  0.83063485959E+02  0.71699870919E+02 0.  0.
         13    1    3    3    0    0 -0.17790464102E+02  0.93155005214E+01  0.40013044762E+02  0.44769789793E+02  0.10566000000E+00 0. -1.
         22    1    1    0    0    0  0.25716386342E+02  0.23985333325E+02 -0.22848248700E+02  0.41936514041E+02  0.00000000000E+00 0. -1.
</event>
<event>
 5    1  0.1325686E-009  0.9118800E+02  0.7818608E-02  0.1130116E+00
         25   -1    0    0    0    0  0.00000000000E+00  0.00000000000E+00  0.99999998245E-14  0.12500000000E+03  0.12500000000E+03 0.  0.
        -13    1    3    3    0    0  0.26664324823E+02 -0.32531441639E+02 -0.24111011065E+02  0.48483326329E+02  0.10566000000E+00 0. -1.
         23    2    1    0    0    0  0.29020712171E+02  0.87803066335E+01 -0.42440732796E+01  0.94384518989E+02  0.89281183613E+02 0.  0.
         13    1    3    3    0    0  0.23563873482E+01  0.41311748272E+02  0.19866937785E+02  0.45901192660E+02  0.10566000000E+00 0.  1.
         22    1    1    0    0    0 -0.29020712171E+02 -0.87803066335E+01  0.42440732796E+01  0.30615481011E+02  0.00000000000E+00 0. -1.
</event>
<event>
 5    1  0.1325686E-009  0.9118800E+02  0.7818608E-02  0.1130116E+00
         25   -1    0    0    0    0  0.00000000000E+00  0.00000000000E+00  0.99999998245E-14  0.12500000000E+03  0.12500000000E+03 0.  0.
        -13    1    3    3    0    0 -0.12850153579E+02  0.29923339652E+02  0.25479457211E+02  0.41349082296E+02  0.10566000000E+00 0.  1.
         23    2    1    0    0    0 -0.20061805461E+02  0.51190973963E+01 -0.21618655103E+02  0.95065948403E+02  0.90230189520E+02 0.  0.
         13    1    3    3    0    0 -0.72116518821E+01 -0.24804242256E+02 -0.47098112314E+02  0.53716866107E+02  0.10566000000E+00 0. -1.
         22    1    1    0    0    0  0.20061805461E+02 -0.51190973963E+01  0.21618655103E+02  0.29934051597E+02  0.00000000000E+00 0. -1.
</event>
<event>
 5    1  0.1325686E-009  0.9118800E+02  0.7818608E-02  0.1130116E+00
         25   -1    0    0    0    0  0.00000000000E+00  0.00000000000E+00  0.99999998245E-14  0.12500000000E+03  0.12500000000E+03 0.  0.
        -13    1    3    3    0    0  0.27804379361E+02 -0.41150906813E+02 -0.31429189814E+02  0.58773172277E+02  0.10566000000E+00 0. -1.
         23    2    1    0    0    0  0.97356155263E+01 -0.10025013550E+02 -0.26421794886E+02  0.95110296901E+02  0.90291606616E+02 0.  0.
         13    1    3    3    0    0 -0.18068763835E+02  0.31125893263E+02  0.50073949279E+01  0.36337124624E+02  0.10566000000E+00 0.  1.
         22    1    1    0    0    0 -0.97356155263E+01  0.10025013550E+02  0.26421794886E+02  0.29889703099E+02  0.00000000000E+00 0. -1.
</event>
<event>
 5    1  0.1325686E-009  0.9118800E+02  0.7818608E-02  0.1130116E+00
         25   -1    0    0    0    0  0.00000000000E+00  0.00000000000E+00  0.99999998245E-14  0.12500000000E+03  0.12500000000E+03 0.  0.
        -13    1    3    3    0    0 -0.17995158310E+02 -0.39919651799E+02 -0.36418095001E+02  0.56953429483E+02  0.10566000000E+00 0.  1.
         23    2    1    0    0    0  0.70507971161E+01 -0.29092279050E+02 -0.15814459354E+02  0.91144844338E+02  0.84623939192E+02 0.  0.
         13    1    3    3    0    0  0.25045955426E+02  0.10827372749E+02  0.20603635647E+02  0.34191414855E+02  0.10566000000E+00 0. -1.
         22    1    1    0    0    0 -0.70507971161E+01  0.29092279050E+02  0.15814459354E+02  0.33855155662E+02  0.00000000000E+00 0.  1.
</event>
<event>
 5    1  0.1325686E-009  0.9118800E+02  0.7818608E-02  0.1130116E+00
         25   -1    0    0    0    0  0.00000000000E+00  0.00000000000E+00  0.99999998245E-14  0.12500000000E+03  0.12500000000E+03 0.  0.
        -13    1    3    3    0    0 -0.18245710137E+02 -0.14189798202E+02 -0.24157892363E+02  0.33434581482E+02  0.10566000000E+00 0.  1.
         23    2    1    0    0    0  0.75617268610E+01  0.50301534286E+01  0.28467861482E+02  0.95118545986E+02  0.90303025954E+02 0.  0.
         13    1    3    3    0    0  0.25807436998E+02  0.19219951630E+02  0.52625753845E+02  0.61683964504E+02  0.10566000000E+00 0. -1.
         22    1    1    0    0    0 -0.75617268610E+01 -0.50301534286E+01 -0.28467861482E+02  0.29881454014E+02  0.00000000000E+00 0. -1.
</event>
<event>
 5    1  0.1325686E-009  0.9118800E+02  0.7818608E-02  0.1130116E+00
         25   -1    0    0    0    0  0.00000000000E+00  0.00000000000E+00  0.99999998245E-14  0.12500000000E+03  0.12500000000E+03 0.  0.
        -13    1    3    3    0    0 -0.71608663543E+01  0.29536620549E+02 -0.29532433005E+02  0.42377655947E+02  0.10566000000E+00 0.  1.
         23    2    1    0    0    0 -0.76603287401E+01 -0.22635887419E+02 -0.15875294864E+02  0.96310471899E+02  0.91938120357E+02 0.  0.
         13    1    3    3    0    0 -0.49946238583E+00 -0.52172507967E+02  0.13657138141E+02  0.53932815952E+02  0.10566000000E+00 0. -1.
         22    1    1    0    0    0  0.76603287401E+01  0.22635887419E+02  0.15875294864E+02  0.28689528101E+02  0.00000000000E+00 0. -1.
</event>
<event>
 5    1  0.1325686E-009  0.9118800E+02  0.7818608E-02  0.1130116E+00
         25   -1    0    0    0    0  0.00000000000E+00  0.00000000000E+00  0.99999998245E-14  0.12500000000E+03  0.12500000000E+03 0.  0.
        -13    1    3    3    0    0  0.30068853198E+02 -0.32863298992E+02  0.24438163702E+02  0.50807158575E+02  0.10566000000E+00 0.  1.
         23    2    1    0    0    0  0.26730904452E+02  0.88840043421E+01  0.10180361566E+02  0.95048263029E+02  0.90205685837E+02 0.  0.
         13    1    3    3    0    0 -0.33379487462E+01  0.41747303335E+02 -0.14257802136E+02  0.44241104454E+02  0.10566000000E+00 0. -1.
         22    1    1    0    0    0 -0.26730904452E+02 -0.88840043421E+01 -0.10180361566E+02  0.29951736971E+02  0.00000000000E+00 0.  1.
</event>
<event>
 5    1  0.1325686E-009  0.9118800E+02  0.7818608E-02  0.1130116E+00
         25   -1    0    0    0    0  0.00000000000E+00  0.00000000000E+00  0.99999998245E-14  0.12500000000E+03  0.12500000000E+03 0.  0.
        -13    1    3    3    0    0  0.39669227249E+02 -0.28632005883E+02  0.83069356443E+01  0.49623136693E+02  0.10566000000E+00 0.  1.
         23    2    1    0    0    0  0.23607430524E+02  0.14950088446E+02  0.74586075374E+01  0.96078610910E+02  0.91622337493E+02 0.  0.
         13    1    3    3    0    0 -0.16061796725E+02  0.43582094329E+02 -0.84832810692E+00  0.46455474218E+02  0.10566000000E+00 0. -1.
         22    1    1    0    0    0 -0.23607430524E+02 -0.14950088446E+02 -0.74586075374E+01  0.28921389090E+02  0.00000000000E+00 0.  1.
</event>
<event>
 5    1  0.1325686E-009  0.9118800E+02  0.7818608E-02  0.1130116E+00
         25   -1    0    0    0    0  0.00000000000E+00  0.00000000000E+00  0.99999998245E-14  0.12500000000E+03  0.12500000000E+03 0.  0.
        -13    1    3    3    0    0 -0.30994523465E+02 -0.20500905006E+02  0.61711819135E+01  0.37670177078E+02  0.10566000000E+00 0. -1.
         23    2    1    0    0    0  0.21011209557E+02  0.13369455731E+02 -0.50209309106E+00  0.10009085768E+03  0.96941809454E+02 0.  0.
         13    1    3    3    0    0  0.52005733022E+02  0.33870360737E+02 -0.66732750046E+01  0.62420680603E+02  0.10566000000E+00 0.  1.
         22    1    1    0    0    0 -0.21011209557E+02 -0.13369455731E+02  0.50209309106E+00  0.24909142319E+02  0.00000000000E+00 0.  1.
</event>
<event>
 5    1  0.1325686E-009  0.9118800E+02  0.7818608E-02  0.1130116E+00
         25   -1    0    0    0    0  0.00000000000E+00  0.00000000000E+00  0.99999998245E-14  0.12500000000E+03  0.12500000000E+03 0.  0.
        -13    1    3    3    0    0 -0.25047143329E+02  0.28405558457E+02 -0.41464437782E+02  0.56156441348E+02  0.10566000000E+00 0.  1.
         23    2    1    0    0    0  0.66236514219E+01  0.11393579639E+02 -0.27089865765E+02  0.94874475235E+02  0.89964541953E+02 0.  0.
         13    1    3    3    0    0  0.31670794751E+02 -0.17011978818E+02  0.14374572017E+02  0.38718033888E+02  0.10566000000E+00 0. -1.
         22    1    1    0    0    0 -0.66236514219E+01 -0.11393579639E+02  0.27089865765E+02  0.30125524765E+02  0.00000000000E+00 0.  1.
</event>
<event>
 5    1  0.1325686E-009  0.9118800E+02  0.7818608E-02  0.1130116E+00
         25   -1    0    0    0    0  0.00000000000E+00  0.00000000000E+00  0.99999998245E-14  0.12500000000E+03  0.12500000000E+03 0.  0.
        -13    1    3    3    0    0 -0.37245275526E+02 -0.58616022776E+01 -0.11427463085E+02  0.39397550773E+02  0.10566000000E+00 0. -1.
         23    2    1    0    0    0  0.72765884351E+01 -0.40571283752E+01  0.26068003187E+02  0.97633052416E+02  0.93719064784E+02 0.  0.
         13    1    3    3    0    0  0.44521863961E+02  0.18044739024E+01  0.37495466272E+02  0.58235501643E+02  0.10566000000E+00 0.  1.
         22    1    1    0    0    0 -0.72765884351E+01  0.40571283752E+01 -0.26068003187E+02  0.27366947584E+02  0.00000000000E+00 0.  1.
</event>
<event>
 5    1  0.1325686E-009  0.9118800E+02  0.7818608E-02  0.1130116E+00
         25   -1    0    0    0    0  0.00000000000E+00  0.00000000000E+00  0.99999998245E-14  0.12500000000E+03  0.12500000000E+03 0.  0.
        -13    1    3    3    0    0  0.34543231275E+02 -0.37851416675E+02  0.12831906111E+02  0.52826447446E+02  0.10566000000E+00 0.  1.
         23    2    1    0    0    0  0.25266507610E+02  0.13266526565E+01  0.18733571255E+02  0.93518209929E+02  0.88059936875E+02 0.  0.
         13    1    3    3    0    0 -0.92767236655E+01  0.39178069332E+02  0.59016651446E+01  0.40691762484E+02  0.10566000000E+00 0. -1.
         22    1    1    0    0    0 -0.25266507610E+02 -0.13266526565E+01 -0.18733571255E+02  0.31481790071E+02  0.00000000000E+00 0. -1.
</event>
<event>
 5    1  0.1325686E-009  0.9118800E+02  0.7818608E-02  0.1130116E+00
         25   -1    0    0    0    0  0.00000000000E+00  0.00000000000E+00  0.99999998245E-14  0.12500000000E+03  0.12500000000E+03 0.  0.
        -13    1    3    3    0    0 -0.54901522836E+02  0.34946233265E+01 -0.14809956940E+02  0.56971357633E+02  0.10566000000E+00 0.  1.
         23    2    1    0    0    0 -0.26949929030E+02 -0.66967720937E+01  0.97685667620E+01  0.95562433393E+02  0.90915391151E+02 0.  0.
         13    1    3    3    0    0  0.27951593806E+02 -0.10191395420E+02  0.24578523702E+02  0.38591075760E+02  0.10566000000E+00 0. -1.
         22    1    1    0    0    0  0.26949929030E+02  0.66967720937E+01 -0.97685667620E+01  0.29437566607E+02  0.00000000000E+00 0.  1.
</event>
<event>
 5    1  0.1325686E-009  0.9118800E+02  0.7818608E-02  0.1130116E+00
         25   -1    0    0    0    0  0.00000000000E+00  0.00000000000E+00  0.99999998245E-14  0.12500000000E+03  0.12500000000E+03 0.  0.
        -13    1    3    3    0    0  0.25324573291E+02 -0.20308614225E+02 -0.71563826375E+01  0.33241522237E+02  0.10566000000E+00 0. -1.
         23    2    1    0    0    0 -0.14387948967E+02  0.25294326635E+02  0.63795521969E+01  0.95208814699E+02  0.90427892128E+02 0.  0.
         13    1    3    3    0    0 -0.39712522258E+02  0.45602940860E+02  0.13535934834E+02  0.61967292462E+02  0.10566000000E+00 0.  1.
         22    1    1    0    0    0  0.14387948967E+02 -0.25294326635E+02 -0.63795521969E+01  0.29791185301E+02  0.00000000000E+00 0.  1.
</event>
<event>
 5    1  0.1325686E-009  0.9118800E+02  0.7818608E-02  0.1130116E+00
         25   -1    0    0    0    0  0.00000000000E+00  0.00000000000E+00  0.99999998245E-14  0.12500000000E+03  0.12500000000E+03 0.  0.
        -13    1    3    3    0    0  0.28128128028E+02 -0.38310426831E+01 -0.16606507208E+02  0.32888534782E+02  0.10566000000E+00 0.  1.
         23    2    1    0    0    0 -0.28156234022E+02  0.20319167918E+01  0.95077307870E+01  0.95212433049E+02  0.90432893696E+02 0.  0.
         13    1    3    3    0    0 -0.56284362050E+02  0.58629594749E+01  0.26114237995E+02  0.62323898267E+02  0.10566000000E+00 0. -1.
         22    1    1    0    0    0  0.28156234022E+02 -0.20319167918E+01 -0.95077307870E+01  0.29787566951E+02  0.00000000000E+00 0. -1.
</event>
<event>
 5    1  0.1325686E-009  0.9118800E+02  0.7818608E-02  0.1130116E+00
         25   -1    0    0    0    0  0.00000000000E+00  0.00000000000E+00  0.99999998245E-14  0.12500000000E+03  0.12500000000E+03 0.  0.
        -13    1    3    3    0    0  0.34137832170E+01 -0.47077291230E+02 -0.10601454106E+02  0.48376928991E+02  0.10566000000E+00 0. -1.
         23    2    1    0    0    0  0.27418944211E+02 -0.66120097823E+01  0.78150960255E+00  0.96784260912E+02  0.92580047678E+02 0.  0.
         13    1    3    3    0    0  0.24005160994E+02  0.40465281447E+02  0.11382963709E+02  0.48407331922E+02  0.10566000000E+00 0.  1.
         22    1    1    0    0    0 -0.27418944211E+02  0.66120097823E+01 -0.78150960255E+00  0.28215739088E+02  0.00000000000E+00 0.  1.
</event>
<event>
 5    1  0.1325686E-009  0.9118800E+02  0.7818608E-02  0.1130116E+00
         25   -1    0    0    0    0  0.00000000000E+00  0.00000000000E+00  0.99999998245E-14  0.12500000000E+03  0.12500000000E+03 0.  0.
        -13    1    3    3    0    0  0.31856242652E+02  0.11752970248E+02 -0.20301771054E+02  0.39561668032E+02  0.10566000000E+00 0. -1.
         23    2    1    0    0    0 -0.10548629961E+02 -0.24545503909E+02 -0.10798949770E+02  0.96183812321E+02  0.91765751129E+02 0.  0.
         13    1    3    3    0    0 -0.42404872613E+02 -0.36298474157E+02  0.95028212833E+01  0.56622144289E+02  0.10566000000E+00 0.  1.
         22    1    1    0    0    0  0.10548629961E+02  0.24545503909E+02  0.10798949770E+02  0.28816187679E+02  0.00000000000E+00 0.  1.
</event>
<event>
 5    1  0.1325686E-009  0.9118800E+02  0.7818608E-02  0.1130116E+00
         25   -1    0    0    0    0  0.00000000000E+00  0.00000000000E+00  0.99999998245E-14  0.12500000000E+03  0.12500000000E+03 0.  0.
        -13    1    3    3    0    0  0.42376934228E+01 -0.57120264115E+02 -0.42952323393E+01  0.57438165039E+02  0.10566000000E+00 0.  1.
         23    2    1    0    0    0  0.55153889125E+01 -0.24568206079E+02  0.15378830660E+02  0.95495344481E+02  0.90823103450E+02 0.  0.
         13    1    3    3    0    0  0.12776954898E+01  0.32552058036E+02  0.19674063000E+02  0.38057179442E+02  0.10566000000E+00 0. -1.
         22    1    1    0    0    0 -0.55153889125E+01  0.24568206079E+02 -0.15378830660E+02  0.29504655519E+02  0.00000000000E+00 0.  1.
</event>
<event>
 5    1  0.1325686E-009  0.9118800E+02  0.7818608E-02  0.1130116E+00
         25   -1    0    0    0    0  0.00000000000E+00  0.00000000000E+00  0.99999998245E-14  0.12500000000E+03  0.12500000000E+03 0.  0.
        -13    1    3    3    0    0 -0.23140034581E+02  0.39854548508E+02  0.37109618698E+02  0.59169089913E+02  0.10566000000E+00 0. -1.
         23    2    1    0    0    0  0.34727699369E+01  0.15031016154E+02  0.20935493777E+02  0.98994491404E+02  0.95517657273E+02 0.  0.
         13    1    3    3    0    0  0.26612804518E+02 -0.24823532355E+02 -0.16174124921E+02  0.39825401491E+02  0.10566000000E+00 0.  1.
         22    1    1    0    0    0 -0.34727699369E+01 -0.15031016154E+02 -0.20935493777E+02  0.26005508596E+02  0.00000000000E+00 0. -1.
</event>
<event>
 5    1  0.1325686E-009  0.9118800E+02  0.7818608E-02  0.1130116E+00
         25   -1    0    0    0    0  0.00000000000E+00  0.00000000000E+00  0.99999998245E-14  0.12500000000E+03  0.12500000000E+03 0.  0.
        -13    1    3    3    0    0  0.28908109589E+02  0.43577080798E+02  0.34139161464E+02  0.62451055078E+02  0.10566000000E+00 0.  1.
         23    2    1    0    0    0  0.13482620863E+02  0.18775717572E+02  0.16891936014E+02  0.96370537240E+02  0.92019749564E+02 0.  0.
         13    1    3    3    0    0 -0.15425488726E+02 -0.24801363226E+02 -0.17247225451E+02  0.33919482161E+02  0.10566000000E+00 0. -1.
         22    1    1    0    0    0 -0.13482620863E+02 -0.18775717572E+02 -0.16891936014E+02  0.28629462760E+02  0.00000000000E+00 0.  1.
</event>
<event>
 5    1  0.1325686E-009  0.9118800E+02  0.7818608E-02  0.1130116E+00
         25   -1    0    0    0    0  0.00000000000E+00  0.00000000000E+00  0.99999998245E-14  0.12500000000E+03  0.12500000000E+03 0.  0.
        -13    1    3    3    0    0  0.45170832669E+02  0.33101260793E+02 -0.83501858568E+01  0.56620087937E+02  0.10566000000E+00 0. -1.
         23    2    1    0    0    0  0.82924194951E+01  0.29693442294E+02 -0.41062717295E+01  0.93898131827E+02  0.88597590017E+02 0.  0.
         13    1    3    3    0    0 -0.36878413174E+02 -0.34078184987E+01  0.42439141273E+01  0.37278043890E+02  0.10566000000E+00 0.  1.
         22    1    1    0    0    0 -0.82924194951E+01 -0.29693442294E+02  0.41062717295E+01  0.31101868173E+02  0.00000000000E+00 0. -1.
</event>
<event>
 5    1  0.1325686E-009  0.9118800E+02  0.7818608E-02  0.1130116E+00
         25   -1    0    0    0    0  0.00000000000E+00  0.00000000000E+00  0.99999998245E-14  0.12500000000E+03  0.12500000000E+03 0.  0.
        -13    1    3    3    0    0  0.12882172139E+02 -0.53077289105E+02  0.12591147566E+02  0.56050844229E+02  0.10566000000E+00 0. -1.
         23    2    1    0    0    0  0.22476012978E+02 -0.18813965975E+02 -0.41902928811E+01  0.95390963719E+02  0.90679330223E+02 0.  0.
         13    1    3    3    0    0  0.95938408387E+01  0.34263323130E+02 -0.16781440447E+02  0.39340119490E+02  0.10566000000E+00 0.  1.
         22    1    1    0    0    0 -0.22476012978E+02  0.18813965975E+02  0.41902928811E+01  0.29609036281E+02  0.00000000000E+00 0.  1.
</event>
<event>
 5    1  0.1325686E-009  0.9118800E+02  0.7818608E-02  0.1130116E+00
         25   -1    0    0    0    0  0.00000000000E+00  0.00000000000E+00  0.99999998245E-14  0.12500000000E+03  0.12500000000E+03 0.  0.
        -13    1    3    3    0    0  0.33163501025E+01  0.45611221711E+02  0.41398090762E+01  0.45918742439E+02  0.10566000000E+00 0.  1.
         23    2    1    0    0    0 -0.15974011818E+02  0.52002506355E+01 -0.21652505662E+02  0.97594842426E+02  0.93668087450E+02 0.  0.
         13    1    3    3    0    0 -0.19290361920E+02 -0.40410971076E+02 -0.25792314738E+02  0.51676099987E+02  0.10566000000E+00 0. -1.
         22    1    1    0    0    0  0.15974011818E+02 -0.52002506355E+01  0.21652505662E+02  0.27405157574E+02  0.00000000000E+00 0.  1.
</event>
<event>
 5    1  0.1325686E-009  0.9118800E+02  0.7818608E-02  0.1130116E+00
         25   -1    0    0    0    0  0.00000000000E+00  0.00000000000E+00  0.99999998245E-14  0.12500000000E+03  0.12500000000E+03 0.  0.
        -13    1    3    3    0    0  0.37779206449E+02 -0.12257728130E+02 -0.12445713384E+01  0.39737645384E+02  0.10566000000E+00 0. -1.
         23    2    1    0    0    0 -0.23523914785E+01  0.18067869871E+02 -0.23934469651E+02  0.94919433103E+02  0.90026986375E+02 0.  0.
         13    1    3    3    0    0 -0.40131597927E+02  0.30325598002E+02 -0.22689898313E+02  0.55181787719E+02  0.10566000000E+00 0.  1.
         22    1    1    0    0    0  0.23523914785E+01 -0.18067869871E+02  0.23934469651E+02  0.30080566897E+02  0.00000000000E+00 0.  1.
</event>
<event>
 5    1  0.1325686E-009  0.9118800E+02  0.7818608E-02  0.1130116E+00
         25   -1    0    0    0    0  0.00000000000E+00  0.00000000000E+00  0.99999998245E-14  0.12500000000E+03  0.12500000000E+03 0.  0.
        -13    1    3    3    0    0  0.10745002875E+02 -0.59024754457E+01  0.22516398477E+02  0.25637739128E+02  0.10566000000E+00 0.  1.
         23    2    1    0    0    0 -0.33227301282E+02  0.14178232138E+02 -0.14037209109E+02  0.86242819290E+02  0.77043525507E+02 0.  0.
         13    1    3    3    0    0 -0.43972304157E+02  0.20080707583E+02 -0.36553607586E+02  0.60605080162E+02  0.10566000000E+00 0. -1.
         22    1    1    0    0    0  0.33227301282E+02 -0.14178232138E+02  0.14037209109E+02  0.38757180710E+02  0.00000000000E+00 0. -1.
</event>
<event>
 5    1  0.1325686E-009  0.9118800E+02  0.7818608E-02  0.1130116E+00
         25   -1    0    0    0    0  0.00000000000E+00  0.00000000000E+00  0.99999998245E-14  0.12500000000E+03  0.12500000000E+03 0.  0.
        -13    1    3    3    0    0 -0.50211112677E+02 -0.33729300912E+00 -0.23374217395E+02  0.55386232998E+02  0.10566000000E+00 0. -1.
         23    2    1    0    0    0 -0.26045860277E+02 -0.91355980636E+01  0.82918384899E+01  0.96179858170E+02  0.91760364769E+02 0.  0.
         13    1    3    3    0    0  0.24165252400E+02 -0.87983050544E+01  0.31666055885E+02  0.40793625173E+02  0.10566000000E+00 0.  1.
         22    1    1    0    0    0  0.26045860277E+02  0.91355980636E+01 -0.82918384899E+01  0.28820141830E+02  0.00000000000E+00 0. -1.
</event>
<event>
 5    1  0.1325686E-009  0.9118800E+02  0.7818608E-02  0.1130116E+00
         25   -1    0    0    0    0  0.00000000000E+00  0.00000000000E+00  0.99999998245E-14  0.12500000000E+03  0.12500000000E+03 0.  0.
        -13    1    3    3    0    0  0.21294198196E+02  0.21600616539E+02  0.53821856788E+02  0.61780522366E+02  0.10566000000E+00 0.  1.
         23    2    1    0    0    0  0.16731915942E+02  0.82456591290E+01  0.25711923152E+02  0.93234438495E+02  0.87656201285E+02 0.  0.
         13    1    3    3    0    0 -0.45622822543E+01 -0.13354957410E+02 -0.28109933636E+02  0.31453916129E+02  0.10566000000E+00 0. -1.
         22    1    1    0    0    0 -0.16731915942E+02 -0.82456591290E+01 -0.25711923152E+02  0.31765561505E+02  0.00000000000E+00 0.  1.
</event>
<event>
 5    1  0.1325686E-009  0.9118800E+02  0.7818608E-02  0.1130116E+00
         25   -1    0    0    0    0  0.00000000000E+00  0.00000000000E+00  0.99999998245E-14  0.12500000000E+03  0.12500000000E+03 0.  0.
        -13    1    3    3    0    0  0.71775010129E+01 -0.50593212324E+02 -0.98891209257E+01  0.52048011785E+02  0.10566000000E+00 0. -1.
         23    2    1    0    0    0  0.25948613185E+02 -0.10867289684E+02 -0.65689928742E+01  0.96110898618E+02  0.91666376903E+02 0.  0.
         13    1    3    3    0    0  0.18771112172E+02  0.39725922640E+02  0.33201280514E+01  0.44062886833E+02  0.10566000000E+00 0.  1.
         22    1    1    0    0    0 -0.25948613185E+02  0.10867289684E+02  0.65689928742E+01  0.28889101382E+02  0.00000000000E+00 0. -1.
</event>
<event>
 5    1  0.1325686E-009  0.9118800E+02  0.7818608E-02  0.1130116E+00
         25   -1    0    0    0    0  0.00000000000E+00  0.00000000000E+00  0.99999998245E-14  0.12500000000E+03  0.12500000000E+03 0.  0.
        -13    1    3    3    0    0 -0.49811312862E+02  0.27446772390E+02  0.92064525716E+00  0.56880145529E+02  0.10566000000E+00 0. -1.
         23    2    1    0    0    0 -0.15263505085E+02  0.18259363762E+02 -0.15889898566E+02  0.96384133266E+02  0.92038216609E+02 0.  0.
         13    1    3    3    0    0  0.34547807777E+02 -0.91874086283E+01 -0.16810543823E+02  0.39503987737E+02  0.10566000000E+00 0.  1.
         22    1    1    0    0    0  0.15263505085E+02 -0.18259363762E+02  0.15889898566E+02  0.28615866734E+02  0.00000000000E+00 0. -1.
</event>
<event>
 5    1  0.1325686E-009  0.9118800E+02  0.7818608E-02  0.1130116E+00
         25   -1    0    0    0    0  0.00000000000E+00  0.00000000000E+00  0.99999998245E-14  0.12500000000E+03  0.12500000000E+03 0.  0.
        -13    1    3    3    0    0  0.34090991900E+02 -0.29358009299E+02 -0.14598447609E+02  0.47299199521E+02  0.10566000000E+00 0. -1.
         23    2    1    0    0    0  0.14473492951E+02 -0.81084262801E+01  0.24180877223E+02  0.95675208471E+02  0.91070314141E+02 0.  0.
         13    1    3    3    0    0 -0.19617498948E+02  0.21249583019E+02  0.38779324832E+02  0.48376008950E+02  0.10566000000E+00 0.  1.
         22    1    1    0    0    0 -0.14473492951E+02  0.81084262801E+01 -0.24180877223E+02  0.29324791529E+02  0.00000000000E+00 0. -1.
</event>
<event>
 5    1  0.1325686E-009  0.9118800E+02  0.7818608E-02  0.1130116E+00
         25   -1    0    0    0    0  0.00000000000E+00  0.00000000000E+00  0.99999998245E-14  0.12500000000E+03  0.12500000000E+03 0.  0.
        -13    1    3    3    0    0  0.15470081661E+01  0.21667047637E+02  0.47309941032E+02  0.52058581157E+02  0.10566000000E+00 0. -1.
         23    2    1    0    0    0  0.17579098710E+02 -0.94953194154E+01  0.21962527775E+02  0.95309287167E+02  0.90566670424E+02 0.  0.
         13    1    3    3    0    0  0.16032090544E+02 -0.31162367053E+02 -0.25347413256E+02  0.43250706010E+02  0.10566000000E+00 0.  1.
         22    1    1    0    0    0 -0.17579098710E+02  0.94953194154E+01 -0.21962527775E+02  0.29690712833E+02  0.00000000000E+00 0. -1.
</event>
<event>
 5    1  0.1325686E-009  0.9118800E+02  0.7818608E-02  0.1130116E+00
         25   -1    0    0    0    0  0.00000000000E+00  0.00000000000E+00  0.99999998245E-14  0.12500000000E+03  0.12500000000E+03 0.  0.
        -13    1    3    3    0    0 -0.75107918416E+00 -0.40583118517E+02  0.18837215156E+02  0.44748245411E+02  0.10566000000E+00 0.  1.
         23    2    1    0    0    0  0.12072895661E+02  0.72347245676E+01  0.26643330770E+02  0.94867573551E+02  0.89954951991E+02 0.  0.
         13    1    3    3    0    0  0.12823974845E+02  0.47817843085E+02  0.78061156144E+01  0.50119328139E+02  0.10566000000E+00 0. -1.
         22    1    1    0    0    0 -0.12072895661E+02 -0.72347245676E+01 -0.26643330770E+02  0.30132426449E+02  0.00000000000E+00 0. -1.
</event>
<event>
 5    1  0.1325686E-009  0.9118800E+02  0.7818608E-02  0.1130116E+00
         25   -1    0    0    0    0  0.00000000000E+00  0.00000000000E+00  0.99999998245E-14  0.12500000000E+03  0.12500000000E+03 0.  0.
        -13    1    3    3    0    0  0.24925028551E+02  0.23310015479E+02 -0.21960937484E+02  0.40582111934E+02  0.10566000000E+00 0. -1.
         23    2    1    0    0    0 -0.20076998462E+02 -0.94676055502E+01 -0.18044804900E+02  0.96393420233E+02  0.92050828667E+02 0.  0.
         13    1    3    3    0    0 -0.45002027012E+02 -0.32777621029E+02  0.39161325832E+01  0.55811308298E+02  0.10566000000E+00 0.  1.
         22    1    1    0    0    0  0.20076998462E+02  0.94676055502E+01  0.18044804900E+02  0.28606579767E+02  0.00000000000E+00 0.  1.
</event>
<event>
 5    1  0.1325686E-009  0.9118800E+02  0.7818608E-02  0.1130116E+00
         25   -1    0    0    0    0  0.00000000000E+00  0.00000000000E+00  0.99999998245E-14  0.12500000000E+03  0.12500000000E+03 0.  0.
        -13    1    3    3    0    0  0.18476838535E+02 -0.20821429501E+02 -0.20196540997E+02  0.34392396267E+02  0.10566000000E+00 0. -1.
         23    2    1    0    0    0 -0.16394256231E+02  0.23969624494E+02  0.31888755675E+01  0.95785560708E+02  0.91221654102E+02 0.  0.
         13    1    3    3    0    0 -0.34871094766E+02  0.44791053995E+02  0.23385416564E+02  0.61393164441E+02  0.10566000000E+00 0.  1.
         22    1    1    0    0    0  0.16394256231E+02 -0.23969624494E+02 -0.31888755675E+01  0.29214439292E+02  0.00000000000E+00 0.  1.
</event>
<event>
 5    1  0.1325686E-009  0.9118800E+02  0.7818608E-02  0.1130116E+00
         25   -1    0    0    0    0  0.00000000000E+00  0.00000000000E+00  0.99999998245E-14  0.12500000000E+03  0.12500000000E+03 0.  0.
        -13    1    3    3    0    0  0.46658249845E+02  0.32836423429E+02 -0.22608908394E+02  0.61370977546E+02  0.10566000000E+00 0. -1.
         23    2    1    0    0    0  0.15688636422E+02  0.20380337533E+02 -0.13401586087E+02  0.95998379694E+02  0.91512812892E+02 0.  0.
         13    1    3    3    0    0 -0.30969613423E+02 -0.12456085896E+02  0.92073223064E+01  0.34627402148E+02  0.10566000000E+00 0.  1.
         22    1    1    0    0    0 -0.15688636422E+02 -0.20380337533E+02  0.13401586087E+02  0.29001620306E+02  0.00000000000E+00 0. -1.
</event>
<event>
 5    1  0.1325686E-009  0.9118800E+02  0.7818608E-02  0.1130116E+00
         25   -1    0    0    0    0  0.00000000000E+00  0.00000000000E+00  0.99999998245E-14  0.12500000000E+03  0.12500000000E+03 0.  0.
        -13    1    3    3    0    0  0.32606406973E+02 -0.15246709966E+02  0.18658346892E+02  0.40543618651E+02  0.10566000000E+00 0.  1.
         23    2    1    0    0    0 -0.84493612550E+01  0.23805068139E+02  0.98536815551E+01  0.97886018092E+02  0.94055858526E+02 0.  0.
         13    1    3    3    0    0 -0.41055768228E+02  0.39051778105E+02 -0.88046653370E+01  0.57342399442E+02  0.10566000000E+00 0. -1.
         22    1    1    0    0    0  0.84493612550E+01 -0.23805068139E+02 -0.98536815551E+01  0.27113981908E+02  0.00000000000E+00 0. -1.
</event>
<event>
 5    1  0.1325686E-009  0.9118800E+02  0.7818608E-02  0.1130116E+00
         25   -1    0    0    0    0  0.00000000000E+00  0.00000000000E+00  0.99999998245E-14  0.12500000000E+03  0.12500000000E+03 0.  0.
        -13    1    3    3    0    0 -0.13782157084E+02  0.25144320058E+02 -0.55216037323E+02  0.62217414176E+02  0.10566000000E+00 0.  1.
         23    2    1    0    0    0 -0.34759964102E+01  0.14289533900E+02 -0.23689774606E+02  0.97116694044E+02  0.93027810417E+02 0.  0.
         13    1    3    3    0    0  0.10306160673E+02 -0.10854786158E+02  0.31526262717E+02  0.34899279868E+02  0.10566000000E+00 0. -1.
         22    1    1    0    0    0  0.34759964102E+01 -0.14289533900E+02  0.23689774606E+02  0.27883305956E+02  0.00000000000E+00 0.  1.
</event>
<event>
 5    1  0.1325686E-009  0.9118800E+02  0.7818608E-02  0.1130116E+00
         25   -1    0    0    0    0  0.00000000000E+00  0.00000000000E+00  0.99999998245E-14  0.12500000000E+03  0.12500000000E+03 0.  0.
        -13    1    3    3    0    0  0.10656812166E+02 -0.39706095515E+02 -0.18978935549E+02  0.45280821826E+02  0.10566000000E+00 0. -1.
         23    2    1    0    0    0 -0.12248738697E+02 -0.13402850843E+02  0.20269337417E+02  0.97787612201E+02  0.93924986293E+02 0.  0.
         13    1    3    3    0    0 -0.22905550862E+02  0.26303244672E+02  0.39248272967E+02  0.52506790375E+02  0.10566000000E+00 0.  1.
         22    1    1    0    0    0  0.12248738697E+02  0.13402850843E+02 -0.20269337417E+02  0.27212387799E+02  0.00000000000E+00 0. -1.
</event>
<event>
 5    1  0.1325686E-009  0.9118800E+02  0.7818608E-02  0.1130116E+00
         25   -1    0    0    0    0  0.00000000000E+00  0.00000000000E+00  0.99999998245E-14  0.12500000000E+03  0.12500000000E+03 0.  0.
        -13    1    3    3    0    0  0.48590112132E+02  0.22999067972E+02  0.24032096083E+02  0.58885557913E+02  0.10566000000E+00 0. -1.
         23    2    1    0    0    0  0.20518521551E+02  0.20926573021E+02  0.31922254686E+00  0.95690733750E+02  0.91091621116E+02 0.  0.
         13    1    3    3    0    0 -0.28071590581E+02 -0.20724949511E+01 -0.23712873536E+02  0.36805175837E+02  0.10566000000E+00 0.  1.
         22    1    1    0    0    0 -0.20518521551E+02 -0.20926573021E+02 -0.31922254686E+00  0.29309266250E+02  0.00000000000E+00 0. -1.
</event>
<event>
 5    1  0.1325686E-009  0.9118800E+02  0.7818608E-02  0.1130116E+00
         25   -1    0    0    0    0  0.00000000000E+00  0.00000000000E+00  0.99999998245E-14  0.12500000000E+03  0.12500000000E+03 0.  0.
        -13    1    3    3    0    0 -0.57163194239E+01 -0.47112756169E+02 -0.23647204889E+02  0.53023481258E+02  0.10566000000E+00 0.  1.
         23    2    1    0    0    0  0.76771219057E+01 -0.12345994025E+02 -0.30781512917E+02  0.90957918590E+02  0.84347374870E+02 0.  0.
         13    1    3    3    0    0  0.13393441330E+02  0.34766762144E+02 -0.71343080288E+01  0.37934437332E+02  0.10566000000E+00 0. -1.
         22    1    1    0    0    0 -0.76771219057E+01  0.12345994025E+02  0.30781512917E+02  0.34042081410E+02  0.00000000000E+00 0.  1.
</event>
<event>
 5    1  0.1325686E-009  0.9118800E+02  0.7818608E-02  0.1130116E+00
         25   -1    0    0    0    0  0.00000000000E+00  0.00000000000E+00  0.99999998245E-14  0.12500000000E+03  0.12500000000E+03 0.  0.
        -13    1    3    3    0    0 -0.82992561698E+00  0.34536386506E+02  0.43869990503E+02  0.55839394697E+02  0.10566000000E+00 0. -1.
         23    2    1    0    0    0 -0.64041739606E+01 -0.32822754597E+01  0.25972373566E+02  0.98049100850E+02  0.94272345959E+02 0.  0.
         13    1    3    3    0    0 -0.55742483437E+01 -0.37818661966E+02 -0.17897616936E+02  0.42209706153E+02  0.10566000000E+00 0.  1.
         22    1    1    0    0    0  0.64041739606E+01  0.32822754597E+01 -0.25972373566E+02  0.26950899150E+02  0.00000000000E+00 0. -1.
</event>
<event>
 5    1  0.1325686E-009  0.9118800E+02  0.7818608E-02  0.1130116E+00
         25   -1    0    0    0    0  0.00000000000E+00  0.00000000000E+00  0.99999998245E-14  0.12500000000E+03  0.12500000000E+03 0.  0.
        -13    1    3    3    0    0 -0.36860859842E+02 -0.48801098409E+01  0.36130271241E+02  0.51845406009E+02  0.10566000000E+00 0. -1.
         23    2    1    0    0    0 -0.24056053618E+02  0.74044538818E+01 -0.73265146537E+01  0.98785548453E+02  0.95243829791E+02 0.  0.
         13    1    3    3    0    0  0.12804806224E+02  0.12284563723E+02 -0.43456785895E+02  0.46940142443E+02  0.10566000000E+00 0.  1.
         22    1    1    0    0    0  0.24056053618E+02 -0.74044538818E+01  0.73265146537E+01  0.26214451547E+02  0.00000000000E+00 0.  1.
</event>
<event>
 5    1  0.1325686E-009  0.9118800E+02  0.7818608E-02  0.1130116E+00
         25   -1    0    0    0    0  0.00000000000E+00  0.00000000000E+00  0.99999998245E-14  0.12500000000E+03  0.12500000000E+03 0.  0.
        -13    1    3    3    0    0  0.28920980762E+01  0.30867553367E+02  0.21692509198E+02  0.37838422291E+02  0.10566000000E+00 0. -1.
         23    2    1    0    0    0 -0.12546755191E+02  0.22071467039E+02 -0.25955679334E+02  0.88692039265E+02  0.80919773950E+02 0.  0.
         13    1    3    3    0    0 -0.15438853267E+02 -0.87960863284E+01 -0.47648188532E+02  0.50853616973E+02  0.10566000000E+00 0.  1.
         22    1    1    0    0    0  0.12546755191E+02 -0.22071467039E+02  0.25955679334E+02  0.36307960735E+02  0.00000000000E+00 0.  1.
</event>
<event>
 5    1  0.1325686E-009  0.9118800E+02  0.7818608E-02  0.1130116E+00
         25   -1    0    0    0    0  0.00000000000E+00  0.00000000000E+00  0.99999998245E-14  0.12500000000E+03  0.12500000000E+03 0.  0.
        -13    1    3    3    0    0 -0.74856593364E+01  0.30260121195E+02 -0.12238183269E+02  0.33488719357E+02  0.10566000000E+00 0.  1.
         23    2    1    0    0    0  0.17821888380E+02 -0.21302512742E+02  0.10559336237E+02  0.95286091871E+02  0.90534650647E+02 0.  0.
         13    1    3    3    0    0  0.25307547716E+02 -0.51562633937E+02  0.22797519506E+02  0.61797372514E+02  0.10566000000E+00 0. -1.
         22    1    1    0    0    0 -0.17821888380E+02  0.21302512742E+02 -0.10559336237E+02  0.29713908129E+02  0.00000000000E+00 0. -1.
</event>
<event>
 5    1  0.1325686E-009  0.9118800E+02  0.7818608E-02  0.1130116E+00
         25   -1    0    0    0    0  0.00000000000E+00  0.00000000000E+00  0.99999998245E-14  0.12500000000E+03  0.12500000000E+03 0.  0.
        -13    1    3    3    0    0  0.18816168474E+02  0.35964069332E+02  0.15821705728E+02  0.43563746569E+02  0.10566000000E+00 0. -1.
         23    2    1    0    0    0  0.20442668867E+01 -0.11774521315E+02  0.27079946756E+02  0.95400305819E+02  0.90692207244E+02 0.  0.
         13    1    3    3    0    0 -0.16771901587E+02 -0.47738590647E+02  0.11258241028E+02  0.51836559250E+02  0.10566000000E+00 0.  1.
         22    1    1    0    0    0 -0.20442668867E+01  0.11774521315E+02 -0.27079946756E+02  0.29599694181E+02  0.00000000000E+00 0.  1.
</event>
<event>
 5    1  0.1325686E-009  0.9118800E+02  0.7818608E-02  0.1130116E+00
         25   -1    0    0    0    0  0.00000000000E+00  0.00000000000E+00  0.99999998245E-14  0.12500000000E+03  0.12500000000E+03 0.  0.
        -13    1    3    3    0    0 -0.57011647684E+01 -0.65031470140E+01  0.43399002198E+02  0.44252443510E+02  0.10566000000E+00 0.  1.
         23    2    1    0    0    0 -0.15005148427E+02 -0.28348548982E+02  0.92623383492E+00  0.92911799399E+02  0.87194895778E+02 0.  0.
         13    1    3    3    0    0 -0.93039836586E+01 -0.21845401968E+02 -0.42472768363E+02  0.48659355889E+02  0.10566000000E+00 0. -1.
         22    1    1    0    0    0  0.15005148427E+02  0.28348548982E+02 -0.92623383492E+00  0.32088200601E+02  0.00000000000E+00 0.  1.
</event>
<event>
 5    1  0.1325686E-009  0.9118800E+02  0.7818608E-02  0.1130116E+00
         25   -1    0    0    0    0  0.00000000000E+00  0.00000000000E+00  0.99999998245E-14  0.12500000000E+03  0.12500000000E+03 0.  0.
        -13    1    3    3    0    0 -0.16484017932E+01  0.34114791127E+02 -0.30635562919E+02  0.45881206190E+02  0.10566000000E+00 0.  1.
         23    2    1    0    0    0  0.20460317089E+02  0.18864855357E+02  0.10706468865E+02  0.95181619451E+02  0.90390291861E+02 0.  0.
         13    1    3    3    0    0  0.22108718882E+02 -0.15249935770E+02  0.41342031783E+02  0.49300413260E+02  0.10566000000E+00 0. -1.
         22    1    1    0    0    0 -0.20460317089E+02 -0.18864855357E+02 -0.10706468865E+02  0.29818380549E+02  0.00000000000E+00 0. -1.
</event>
<event>
 5    1  0.1325686E-009  0.9118800E+02  0.7818608E-02  0.1130116E+00
         25   -1    0    0    0    0  0.00000000000E+00  0.00000000000E+00  0.99999998245E-14  0.12500000000E+03  0.12500000000E+03 0.  0.
        -13    1    3    3    0    0  0.13369058316E+02  0.21900228752E+02 -0.51335179308E+02  0.57390448145E+02  0.10566000000E+00 0.  1.
         23    2    1    0    0    0 -0.72980007940E+01 -0.22687284903E+01 -0.25550553678E+02  0.98330940440E+02  0.94645312140E+02 0.  0.
         13    1    3    3    0    0 -0.20667059110E+02 -0.24168957242E+02  0.25784625630E+02  0.40940492295E+02  0.10566000000E+00 0. -1.
         22    1    1    0    0    0  0.72980007940E+01  0.22687284903E+01  0.25550553678E+02  0.26669059560E+02  0.00000000000E+00 0.  1.
</event>
<event>
 5    1  0.1325686E-009  0.9118800E+02  0.7818608E-02  0.1130116E+00
         25   -1    0    0    0    0  0.00000000000E+00  0.00000000000E+00  0.99999998245E-14  0.12500000000E+03  0.12500000000E+03 0.  0.
        -13    1    3    3    0    0 -0.24355375947E+01  0.17569962874E+02  0.28517475875E+02  0.33584118762E+02  0.10566000000E+00 0. -1.
         23    2    1    0    0    0 -0.25100240961E+00  0.83560838860E+01 -0.30509490218E+02  0.93365902360E+02  0.87843472097E+02 0.  0.
         13    1    3    3    0    0  0.21845351851E+01 -0.92138789876E+01 -0.59026966093E+02  0.59781783598E+02  0.10566000000E+00 0.  1.
         22    1    1    0    0    0  0.25100240961E+00 -0.83560838860E+01  0.30509490218E+02  0.31634097640E+02  0.00000000000E+00 0. -1.
</event>
<event>
 5    1  0.1325686E-009  0.9118800E+02  0.7818608E-02  0.1130116E+00
         25   -1    0    0    0    0  0.00000000000E+00  0.00000000000E+00  0.99999998245E-14  0.12500000000E+03  0.12500000000E+03 0.  0.
        -13    1    3    3    0    0  0.14407259155E+02 -0.22730692434E+02  0.30885587001E+02  0.40965645892E+02  0.10566000000E+00 0.  1.
         23    2    1    0    0    0 -0.18842465798E+02 -0.17486240267E+02 -0.12935443569E+02  0.96222703109E+02  0.91818711477E+02 0.  0.
         13    1    3    3    0    0 -0.33249724953E+02  0.52444521675E+01 -0.43821030570E+02  0.55257057217E+02  0.10566000000E+00 0. -1.
         22    1    1    0    0    0  0.18842465798E+02  0.17486240267E+02  0.12935443569E+02  0.28777296891E+02  0.00000000000E+00 0. -1.
</event>
<event>
 5    1  0.1325686E-009  0.9118800E+02  0.7818608E-02  0.1130116E+00
         25   -1    0    0    0    0  0.00000000000E+00  0.00000000000E+00  0.99999998245E-14  0.12500000000E+03  0.12500000000E+03 0.  0.
        -13    1    3    3    0    0 -0.43013475141E+02  0.33149201997E+02 -0.26945636735E+02  0.60622661933E+02  0.10566000000E+00 0.  1.
         23    2    1    0    0    0 -0.13734765782E+02  0.24212041896E+02 -0.12037549615E+02  0.94672300374E+02  0.89683192927E+02 0.  0.
         13    1    3    3    0    0  0.29278709359E+02 -0.89371601009E+01  0.14908087120E+02  0.34049638442E+02  0.10566000000E+00 0. -1.
         22    1    1    0    0    0  0.13734765782E+02 -0.24212041896E+02  0.12037549615E+02  0.30327699626E+02  0.00000000000E+00 0.  1.
</event>
<event>
 5    1  0.1325686E-009  0.9118800E+02  0.7818608E-02  0.1130116E+00
         25   -1    0    0    0    0  0.00000000000E+00  0.00000000000E+00  0.99999998245E-14  0.12500000000E+03  0.12500000000E+03 0.  0.
        -13    1    3    3    0    0 -0.37415811169E+02  0.10018259961E+02  0.16081901532E+02  0.41939804232E+02  0.10566000000E+00 0.  1.
         23    2    1    0    0    0  0.13804400511E+02  0.23222029699E+02  0.13249974954E+02  0.94910367681E+02  0.90014398405E+02 0.  0.
         13    1    3    3    0    0  0.51220211681E+02  0.13203769738E+02 -0.28319265775E+01  0.52970563449E+02  0.10566000000E+00 0. -1.
         22    1    1    0    0    0 -0.13804400511E+02 -0.23222029699E+02 -0.13249974954E+02  0.30089632319E+02  0.00000000000E+00 0. -1.
</event>
<event>
 5    1  0.1325686E-009  0.9118800E+02  0.7818608E-02  0.1130116E+00
         25   -1    0    0    0    0  0.00000000000E+00  0.00000000000E+00  0.99999998245E-14  0.12500000000E+03  0.12500000000E+03 0.  0.
        -13    1    3    3    0    0 -0.40376175848E+01 -0.12346799126E+02 -0.34532860531E+02  0.36895466184E+02  0.10566000000E+00 0. -1.
         23    2    1    0    0    0  0.44087882904E+01 -0.17494770099E+02  0.23279297898E+02  0.95547833601E+02  0.90895315612E+02 0.  0.
         13    1    3    3    0    0  0.84464058752E+01 -0.51479709723E+01  0.57812158429E+02  0.58652367417E+02  0.10566000000E+00 0.  1.
         22    1    1    0    0    0 -0.44087882904E+01  0.17494770099E+02 -0.23279297898E+02  0.29452166399E+02  0.00000000000E+00 0.  1.
</event>
<event>
 5    1  0.1325686E-009  0.9118800E+02  0.7818608E-02  0.1130116E+00
         25   -1    0    0    0    0  0.00000000000E+00  0.00000000000E+00  0.99999998245E-14  0.12500000000E+03  0.12500000000E+03 0.  0.
        -13    1    3    3    0    0  0.89861927876E+01  0.38929794932E+02 -0.12774762267E+02  0.41946231169E+02  0.10566000000E+00 0. -1.
         23    2    1    0    0    0 -0.16251254128E+02  0.63936156888E+01  0.22743337532E+02  0.96325255286E+02  0.91958217803E+02 0.  0.
         13    1    3    3    0    0 -0.25237446916E+02 -0.32536179243E+02  0.35518099799E+02  0.54379024117E+02  0.10566000000E+00 0.  1.
         22    1    1    0    0    0  0.16251254128E+02 -0.63936156888E+01 -0.22743337532E+02  0.28674744714E+02  0.00000000000E+00 0. -1.
</event>
<event>
 5    1  0.1325686E-009  0.9118800E+02  0.7818608E-02  0.1130116E+00
         25   -1    0    0    0    0  0.00000000000E+00  0.00000000000E+00  0.99999998245E-14  0.12500000000E+03  0.12500000000E+03 0.  0.
        -13    1    3    3    0    0  0.32720922466E+02  0.23880300248E+02 -0.70039492087E+01  0.41109536308E+02  0.10566000000E+00 0.  1.
         23    2    1    0    0    0 -0.17392531312E+02 -0.61382252383E+01  0.12526636194E+02  0.10270438229E+03  0.10025515235E+03 0.  0.
         13    1    3    3    0    0 -0.50113453778E+02 -0.30018525486E+02  0.19530585403E+02  0.61594845986E+02  0.10566000000E+00 0. -1.
         22    1    1    0    0    0  0.17392531312E+02  0.61382252383E+01 -0.12526636194E+02  0.22295617705E+02  0.00000000000E+00 0. -1.
</event>
<event>
 5    1  0.1325686E-009  0.9118800E+02  0.7818608E-02  0.1130116E+00
         25   -1    0    0    0    0  0.00000000000E+00  0.00000000000E+00  0.99999998245E-14  0.12500000000E+03  0.12500000000E+03 0.  0.
        -13    1    3    3    0    0  0.53093550262E+01 -0.55089492507E+02  0.25982015200E+02  0.61140148130E+02  0.10566000000E+00 0.  1.
         23    2    1    0    0    0  0.63868272414E+01 -0.21158763874E+02  0.19122161105E+02  0.95774293914E+02  0.91206214034E+02 0.  0.
         13    1    3    3    0    0  0.10774722152E+01  0.33930728633E+02 -0.68598540944E+01  0.34634145784E+02  0.10566000000E+00 0. -1.
         22    1    1    0    0    0 -0.63868272414E+01  0.21158763874E+02 -0.19122161105E+02  0.29225706086E+02  0.00000000000E+00 0.  1.
</event>
<event>
 5    1  0.1325686E-009  0.9118800E+02  0.7818608E-02  0.1130116E+00
         25   -1    0    0    0    0  0.00000000000E+00  0.00000000000E+00  0.99999998245E-14  0.12500000000E+03  0.12500000000E+03 0.  0.
        -13    1    3    3    0    0 -0.47369229646E+02 -0.95557874760E+01  0.11772401864E+02  0.49736883711E+02  0.10566000000E+00 0.  1.
         23    2    1    0    0    0 -0.17876947614E+02 -0.68427489087E+01 -0.22779921810E+02  0.95245448982E+02  0.90478518144E+02 0.  0.
         13    1    3    3    0    0  0.29492282032E+02  0.27130385673E+01 -0.34552323674E+02  0.45508565271E+02  0.10566000000E+00 0. -1.
         22    1    1    0    0    0  0.17876947614E+02  0.68427489087E+01  0.22779921810E+02  0.29754551018E+02  0.00000000000E+00 0. -1.
</event>
<event>
 5    1  0.1325686E-009  0.9118800E+02  0.7818608E-02  0.1130116E+00
         25   -1    0    0    0    0  0.00000000000E+00  0.00000000000E+00  0.99999998245E-14  0.12500000000E+03  0.12500000000E+03 0.  0.
        -13    1    3    3    0    0  0.25175813983E+02  0.33665600533E+02 -0.23829747067E+02  0.48322482120E+02  0.10566000000E+00 0. -1.
         23    2    1    0    0    0  0.12719790742E+02  0.18509182257E+02  0.19097045694E+02  0.95519836185E+02  0.90856805172E+02 0.  0.
         13    1    3    3    0    0 -0.12456023241E+02 -0.15156418276E+02  0.42926792761E+02  0.47197354065E+02  0.10566000000E+00 0.  1.
         22    1    1    0    0    0 -0.12719790742E+02 -0.18509182257E+02 -0.19097045694E+02  0.29480163815E+02  0.00000000000E+00 0.  1.
</event>
<event>
 5    1  0.1325686E-009  0.9118800E+02  0.7818608E-02  0.1130116E+00
         25   -1    0    0    0    0  0.00000000000E+00  0.00000000000E+00  0.99999998245E-14  0.12500000000E+03  0.12500000000E+03 0.  0.
        -13    1    3    3    0    0  0.29079511779E+02 -0.15745117472E+02  0.20835931707E+02  0.39085469725E+02  0.10566000000E+00 0. -1.
         23    2    1    0    0    0 -0.23291320707E+02 -0.80965289257E+01 -0.76386040861E+01  0.99185514274E+02  0.95767314719E+02 0.  0.
         13    1    3    3    0    0 -0.52370832486E+02  0.76485885465E+01 -0.28474535793E+02  0.60100044548E+02  0.10566000000E+00 0.  1.
         22    1    1    0    0    0  0.23291320707E+02  0.80965289257E+01  0.76386040861E+01  0.25814485726E+02  0.00000000000E+00 0.  1.
</event>
<event>
 5    1  0.1325686E-009  0.9118800E+02  0.7818608E-02  0.1130116E+00
         25   -1    0    0    0    0  0.00000000000E+00  0.00000000000E+00  0.99999998245E-14  0.12500000000E+03  0.12500000000E+03 0.  0.
        -13    1    3    3    0    0 -0.13095553338E+02  0.11414215752E+02 -0.55165607726E+02  0.57836262658E+02  0.10566000000E+00 0. -1.
         23    2    1    0    0    0  0.85265258243E+01  0.14137581385E+02 -0.24456346572E+02  0.95492615539E+02  0.90819347525E+02 0.  0.
         13    1    3    3    0    0  0.21622079162E+02  0.27233656334E+01  0.30709261154E+02  0.37656352881E+02  0.10566000000E+00 0.  1.
         22    1    1    0    0    0 -0.85265258243E+01 -0.14137581385E+02  0.24456346572E+02  0.29507384461E+02  0.00000000000E+00 0. -1.
</event>
<event>
 5    1  0.1325686E-009  0.9118800E+02  0.7818608E-02  0.1130116E+00
         25   -1    0    0    0    0  0.00000000000E+00  0.00000000000E+00  0.99999998245E-14  0.12500000000E+03  0.12500000000E+03 0.  0.
        -13    1    3    3    0    0  0.12001098974E+02  0.23268429034E+02  0.26630318794E+02  0.37344761472E+02  0.10566000000E+00 0. -1.
         23    2    1    0    0    0  0.41112463228E+01  0.50568233603E+01 -0.28408861239E+02  0.95853178463E+02  0.91314262937E+02 0.  0.
         13    1    3    3    0    0 -0.78898526507E+01 -0.18211605674E+02 -0.55039180033E+02  0.58508416991E+02  0.10566000000E+00 0.  1.
         22    1    1    0    0    0 -0.41112463228E+01 -0.50568233603E+01  0.28408861239E+02  0.29146821537E+02  0.00000000000E+00 0.  1.
</event>
<event>
 5    1  0.1325686E-009  0.9118800E+02  0.7818608E-02  0.1130116E+00
         25   -1    0    0    0    0  0.00000000000E+00  0.00000000000E+00  0.99999998245E-14  0.12500000000E+03  0.12500000000E+03 0.  0.
        -13    1    3    3    0    0 -0.51055883911E+02  0.17553578463E+02 -0.31061314847E+02  0.62286819174E+02  0.10566000000E+00 0.  1.
         23    2    1    0    0    0 -0.23046838613E+02  0.42955481981E+01 -0.12074534559E+02  0.98629507225E+02  0.95038817366E+02 0.  0.
         13    1    3    3    0    0  0.28009045298E+02 -0.13258030265E+02  0.18986780289E+02  0.36342688051E+02  0.10566000000E+00 0. -1.
         22    1    1    0    0    0  0.23046838613E+02 -0.42955481981E+01  0.12074534559E+02  0.26370492775E+02  0.00000000000E+00 0.  1.
</event>
<event>
 5    1  0.1325686E-009  0.9118800E+02  0.7818608E-02  0.1130116E+00
         25   -1    0    0    0    0  0.00000000000E+00  0.00000000000E+00  0.99999998245E-14  0.12500000000E+03  0.12500000000E+03 0.  0.
        -13    1    3    3    0    0 -0.20982707295E+02  0.23513746405E+02  0.30379035931E+02  0.43772905587E+02  0.10566000000E+00 0. -1.
         23    2    1    0    0    0 -0.93441149222E+01  0.21301279923E+02 -0.19256515374E+02  0.94802808171E+02  0.89864909963E+02 0.  0.
         13    1    3    3    0    0  0.11638592372E+02 -0.22124664824E+01 -0.49635551305E+02  0.51029902584E+02  0.10566000000E+00 0.  1.
         22    1    1    0    0    0  0.93441149222E+01 -0.21301279923E+02  0.19256515374E+02  0.30197191829E+02  0.00000000000E+00 0. -1.
</event>
<event>
 5    1  0.1325686E-009  0.9118800E+02  0.7818608E-02  0.1130116E+00
         25   -1    0    0    0    0  0.00000000000E+00  0.00000000000E+00  0.99999998245E-14  0.12500000000E+03  0.12500000000E+03 0.  0.
        -13    1    3    3    0    0 -0.30639482331E+02 -0.10709659898E+02  0.39636511045E+02  0.51230253411E+02  0.10566000000E+00 0. -1.
         23    2    1    0    0    0  0.85861960080E+01 -0.19214961010E+02  0.20209554567E+02  0.95821864620E+02  0.91271387383E+02 0.  0.
         13    1    3    3    0    0  0.39225678339E+02 -0.85053011117E+01 -0.19426956478E+02  0.44591611209E+02  0.10566000000E+00 0.  1.
         22    1    1    0    0    0 -0.85861960080E+01  0.19214961010E+02 -0.20209554567E+02  0.29178135380E+02  0.00000000000E+00 0. -1.
</event>
<event>
 5    1  0.1325686E-009  0.9118800E+02  0.7818608E-02  0.1130116E+00
         25   -1    0    0    0    0  0.00000000000E+00  0.00000000000E+00  0.99999998245E-14  0.12500000000E+03  0.12500000000E+03 0.  0.
        -13    1    3    3    0    0 -0.12229548608E+01 -0.86313803403E+01  0.51948763199E+02  0.52675245677E+02  0.10566000000E+00 0. -1.
         23    2    1    0    0    0 -0.10354654372E+02  0.18597218440E+02  0.18158824688E+02  0.97021109477E+02  0.92899286161E+02 0.  0.
         13    1    3    3    0    0 -0.91316995111E+01  0.27228598780E+02 -0.33789938511E+02  0.44345863800E+02  0.10566000000E+00 0.  1.
         22    1    1    0    0    0  0.10354654372E+02 -0.18597218440E+02 -0.18158824688E+02  0.27978890523E+02  0.00000000000E+00 0. -1.
</event>
<event>
 5    1  0.1325686E-009  0.9118800E+02  0.7818608E-02  0.1130116E+00
         25   -1    0    0    0    0  0.00000000000E+00  0.00000000000E+00  0.99999998245E-14  0.12500000000E+03  0.12500000000E+03 0.  0.
        -13    1    3    3    0    0 -0.94955938196E+01  0.10243058118E+02 -0.59873796748E+02  0.61481454461E+02  0.10566000000E+00 0.  1.
         23    2    1    0    0    0 -0.72660726635E+01  0.12067782234E+02 -0.26419239208E+02  0.95060003669E+02  0.90221953632E+02 0.  0.
         13    1    3    3    0    0  0.22295211561E+01  0.18247241165E+01  0.33454557540E+02  0.33578549208E+02  0.10566000000E+00 0. -1.
         22    1    1    0    0    0  0.72660726635E+01 -0.12067782234E+02  0.26419239208E+02  0.29939996331E+02  0.00000000000E+00 0.  1.
</event>
<event>
 5    1  0.1325686E-009  0.9118800E+02  0.7818608E-02  0.1130116E+00
         25   -1    0    0    0    0  0.00000000000E+00  0.00000000000E+00  0.99999998245E-14  0.12500000000E+03  0.12500000000E+03 0.  0.
        -13    1    3    3    0    0  0.14854693668E+02  0.30266754990E+02 -0.45434400110E+02  0.56577683401E+02  0.10566000000E+00 0.  1.
         23    2    1    0    0    0 -0.57021571678E+01  0.28253823033E+02 -0.17639076279E+02  0.91207543381E+02  0.84716502792E+02 0.  0.
         13    1    3    3    0    0 -0.20556850835E+02 -0.20129319573E+01  0.27795323831E+02  0.34629859980E+02  0.10566000000E+00 0. -1.
         22    1    1    0    0    0  0.57021571678E+01 -0.28253823033E+02  0.17639076279E+02  0.33792456619E+02  0.00000000000E+00 0. -1.
</event>
<event>
 5    1  0.1325686E-009  0.9118800E+02  0.7818608E-02  0.1130116E+00
         25   -1    0    0    0    0  0.00000000000E+00  0.00000000000E+00  0.99999998245E-14  0.12500000000E+03  0.12500000000E+03 0.  0.
        -13    1    3    3    0    0  0.20770361181E+02 -0.99113101190E+01 -0.32847536905E+02  0.40107528179E+02  0.10566000000E+00 0.  1.
         23    2    1    0    0    0 -0.18060730135E+02  0.21570494459E+02 -0.92655201768E+01  0.95380309449E+02  0.90664642294E+02 0.  0.
         13    1    3    3    0    0 -0.38831091316E+02  0.31481804578E+02  0.23582016728E+02  0.55272781270E+02  0.10566000000E+00 0. -1.
         22    1    1    0    0    0  0.18060730135E+02 -0.21570494459E+02  0.92655201768E+01  0.29619690551E+02  0.00000000000E+00 0. -1.
</event>
<event>
 5    1  0.1325686E-009  0.9118800E+02  0.7818608E-02  0.1130116E+00
         25   -1    0    0    0    0  0.00000000000E+00  0.00000000000E+00  0.99999998245E-14  0.12500000000E+03  0.12500000000E+03 0.  0.
        -13    1    3    3    0    0  0.14604102799E+01 -0.51793653219E+02 -0.22993427927E+02  0.56687072635E+02  0.10566000000E+00 0. -1.
         23    2    1    0    0    0 -0.13309750537E+02 -0.36693591712E+02 -0.28692708495E+01  0.85861759783E+02  0.76422771120E+02 0.  0.
         13    1    3    3    0    0 -0.14770160816E+02  0.15100061507E+02  0.20124157078E+02  0.29174687148E+02  0.10566000000E+00 0.  1.
         22    1    1    0    0    0  0.13309750537E+02  0.36693591712E+02  0.28692708495E+01  0.39138240217E+02  0.00000000000E+00 0. -1.
</event>
<event>
 5    1  0.1325686E-009  0.9118800E+02  0.7818608E-02  0.1130116E+00
         25   -1    0    0    0    0  0.00000000000E+00  0.00000000000E+00  0.99999998245E-14  0.12500000000E+03  0.12500000000E+03 0.  0.
        -13    1    3    3    0    0 -0.21064671171E+01  0.15119577618E+02 -0.30078652377E+02  0.33730925334E+02  0.10566000000E+00 0. -1.
         23    2    1    0    0    0 -0.23029291097E+02 -0.11010719890E+02  0.19028227098E+02  0.93162009683E+02  0.87552855012E+02 0.  0.
         13    1    3    3    0    0 -0.20922823980E+02 -0.26130297508E+02  0.49106879475E+02  0.59431084349E+02  0.10566000000E+00 0.  1.
         22    1    1    0    0    0  0.23029291097E+02  0.11010719890E+02 -0.19028227098E+02  0.31837990317E+02  0.00000000000E+00 0.  1.
</event>
<event>
 5    1  0.1325686E-009  0.9118800E+02  0.7818608E-02  0.1130116E+00
         25   -1    0    0    0    0  0.00000000000E+00  0.00000000000E+00  0.99999998245E-14  0.12500000000E+03  0.12500000000E+03 0.  0.
        -13    1    3    3    0    0 -0.50281207095E+02  0.12825115164E+02 -0.20232501872E+02  0.55696038117E+02  0.10566000000E+00 0.  1.
         23    2    1    0    0    0 -0.13488849145E+02  0.21348497237E+02 -0.18848958418E+02  0.93488246336E+02  0.88017393644E+02 0.  0.
         13    1    3    3    0    0  0.36792357950E+02  0.85233820739E+01  0.13835434540E+01  0.37792208219E+02  0.10566000000E+00 0. -1.
         22    1    1    0    0    0  0.13488849145E+02 -0.21348497237E+02  0.18848958418E+02  0.31511753664E+02  0.00000000000E+00 0.  1.
</event>
<event>
 5    1  0.1325686E-009  0.9118800E+02  0.7818608E-02  0.1130116E+00
         25   -1    0    0    0    0  0.00000000000E+00  0.00000000000E+00  0.99999998245E-14  0.12500000000E+03  0.12500000000E+03 0.  0.
        -13    1    3    3    0    0 -0.27039918883E+02  0.27000728397E+02 -0.47485300076E+02  0.60951303797E+02  0.10566000000E+00 0. -1.
         23    2    1    0    0    0 -0.17226368147E+02  0.17883707622E+02 -0.15247555328E+02  0.95861319499E+02  0.91325406513E+02 0.  0.
         13    1    3    3    0    0  0.98135507357E+01 -0.91170207748E+01  0.32237744748E+02  0.34910015702E+02  0.10566000000E+00 0.  1.
         22    1    1    0    0    0  0.17226368147E+02 -0.17883707622E+02  0.15247555328E+02  0.29138680501E+02  0.00000000000E+00 0. -1.
</event>
<event>
 5    1  0.1325686E-009  0.9118800E+02  0.7818608E-02  0.1130116E+00
         25   -1    0    0    0    0  0.00000000000E+00  0.00000000000E+00  0.99999998245E-14  0.12500000000E+03  0.12500000000E+03 0.  0.
        -13    1    3    3    0    0  0.35212076157E+02 -0.23606901341E+02 -0.16456860898E+02  0.45475438787E+02  0.10566000000E+00 0.  1.
         23    2    1    0    0    0  0.39121145584E+01 -0.20633808725E+02  0.21622350066E+02  0.94857260821E+02  0.89940620441E+02 0.  0.
         13    1    3    3    0    0 -0.31299961599E+02  0.29730926157E+01  0.38079210964E+02  0.49381822034E+02  0.10566000000E+00 0. -1.
         22    1    1    0    0    0 -0.39121145584E+01  0.20633808725E+02 -0.21622350066E+02  0.30142739179E+02  0.00000000000E+00 0.  1.
</event>
<event>
 5    1  0.1325686E-009  0.9118800E+02  0.7818608E-02  0.1130116E+00
         25   -1    0    0    0    0  0.00000000000E+00  0.00000000000E+00  0.99999998245E-14  0.12500000000E+03  0.12500000000E+03 0.  0.
        -13    1    3    3    0    0 -0.94006655331E+01  0.92388886629E+01 -0.41846916342E+02  0.43873740980E+02  0.10566000000E+00 0.  1.
         23    2    1    0    0    0  0.21134976479E+02 -0.17422197059E+02 -0.86282755749E+01  0.96282978557E+02  0.91900732529E+02 0.  0.
         13    1    3    3    0    0  0.30535642012E+02 -0.26661085722E+02  0.33218640767E+02  0.52409237577E+02  0.10566000000E+00 0. -1.
         22    1    1    0    0    0 -0.21134976479E+02  0.17422197059E+02  0.86282755749E+01  0.28717021443E+02  0.00000000000E+00 0. -1.
</event>
<event>
 5    1  0.1325686E-009  0.9118800E+02  0.7818608E-02  0.1130116E+00
         25   -1    0    0    0    0  0.00000000000E+00  0.00000000000E+00  0.99999998245E-14  0.12500000000E+03  0.12500000000E+03 0.  0.
        -13    1    3    3    0    0 -0.41907533466E+02  0.44594416437E+02 -0.11023902842E+02  0.62180711933E+02  0.10566000000E+00 0.  1.
         23    2    1    0    0    0 -0.25089912366E+02  0.21134892542E+02 -0.82123818571E+01  0.91182392144E+02  0.84679383773E+02 0.  0.
         13    1    3    3    0    0  0.16817621099E+02 -0.23459523895E+02  0.28115209845E+01  0.29001680212E+02  0.10566000000E+00 0. -1.
         22    1    1    0    0    0  0.25089912366E+02 -0.21134892542E+02  0.82123818571E+01  0.33817607856E+02  0.00000000000E+00 0.  1.
</event>
<event>
 5    1  0.1325686E-009  0.9118800E+02  0.7818608E-02  0.1130116E+00
         25   -1    0    0    0    0  0.00000000000E+00  0.00000000000E+00  0.99999998245E-14  0.12500000000E+03  0.12500000000E+03 0.  0.
        -13    1    3    3    0    0  0.50551163788E+01  0.44694523878E+02 -0.25462933537E+02  0.51686814708E+02  0.10566000000E+00 0.  1.
         23    2    1    0    0    0  0.88262471690E+01  0.10066821078E+01 -0.28013837332E+02  0.95611377541E+02  0.90982659806E+02 0.  0.
         13    1    3    3    0    0  0.37711307901E+01 -0.43687841770E+02 -0.25509037946E+01  0.43924562834E+02  0.10566000000E+00 0. -1.
         22    1    1    0    0    0 -0.88262471690E+01 -0.10066821078E+01  0.28013837332E+02  0.29388622459E+02  0.00000000000E+00 0.  1.
</event>
<event>
 5    1  0.1325686E-009  0.9118800E+02  0.7818608E-02  0.1130116E+00
         25   -1    0    0    0    0  0.00000000000E+00  0.00000000000E+00  0.99999998245E-14  0.12500000000E+03  0.12500000000E+03 0.  0.
        -13    1    3    3    0    0  0.37565058843E+02  0.30174822197E+02 -0.53932931149E+01  0.48484557492E+02  0.10566000000E+00 0. -1.
         23    2    1    0    0    0 -0.44379966217E+01  0.23380761671E+02  0.16211696510E+02  0.96204602207E+02  0.91794065994E+02 0.  0.
         13    1    3    3    0    0 -0.42003055465E+02 -0.67940605260E+01  0.21604989625E+02  0.47720044715E+02  0.10566000000E+00 0.  1.
         22    1    1    0    0    0  0.44379966217E+01 -0.23380761671E+02 -0.16211696510E+02  0.28795397793E+02  0.00000000000E+00 0. -1.
</event>
<event>
 5    1  0.1325686E-009  0.9118800E+02  0.7818608E-02  0.1130116E+00
         25   -1    0    0    0    0  0.00000000000E+00  0.00000000000E+00  0.99999998245E-14  0.12500000000E+03  0.12500000000E+03 0.  0.
        -13    1    3    3    0    0  0.19032837117E+02  0.12356494175E+02 -0.53269277377E+02  0.57901285938E+02  0.10566000000E+00 0. -1.
         23    2    1    0    0    0  0.30725545930E+00 -0.86006943409E+01 -0.28040963842E+02  0.95668071965E+02  0.91060518290E+02 0.  0.
         13    1    3    3    0    0 -0.18725581658E+02 -0.20957188516E+02  0.25228313535E+02  0.37766786027E+02  0.10566000000E+00 0.  1.
         22    1    1    0    0    0 -0.30725545930E+00  0.86006943409E+01  0.28040963842E+02  0.29331928035E+02  0.00000000000E+00 0. -1.
</event>
<event>
 5    1  0.1325686E-009  0.9118800E+02  0.7818608E-02  0.1130116E+00
         25   -1    0    0    0    0  0.00000000000E+00  0.00000000000E+00  0.99999998245E-14  0.12500000000E+03  0.12500000000E+03 0.  0.
        -13    1    3    3    0    0  0.23834601309E+02  0.43712379376E+02 -0.31257160468E+01  0.49886286644E+02  0.10566000000E+00 0.  1.
         23    2    1    0    0    0  0.21298009429E+02  0.19894825766E+02  0.24838885267E+02  0.86706664820E+02  0.77792455965E+02 0.  0.
         13    1    3    3    0    0 -0.25365918802E+01 -0.23817553610E+02  0.27964601314E+02  0.36820378176E+02  0.10566000000E+00 0. -1.
         22    1    1    0    0    0 -0.21298009429E+02 -0.19894825766E+02 -0.24838885267E+02  0.38293335180E+02  0.00000000000E+00 0. -1.
</event>
<event>
 5    1  0.1325686E-009  0.9118800E+02  0.7818608E-02  0.1130116E+00
         25   -1    0    0    0    0  0.00000000000E+00  0.00000000000E+00  0.99999998245E-14  0.12500000000E+03  0.12500000000E+03 0.  0.
        -13    1    3    3    0    0 -0.75763629145E+01  0.55030497054E+02 -0.73032633457E+01  0.56027722607E+02  0.10566000000E+00 0.  1.
         23    2    1    0    0    0  0.15248389375E+02  0.23425500672E+02 -0.10494943945E+02  0.95143488002E+02  0.90337544801E+02 0.  0.
         13    1    3    3    0    0  0.22824752290E+02 -0.31604996382E+02 -0.31916805992E+01  0.39115765395E+02  0.10566000000E+00 0. -1.
         22    1    1    0    0    0 -0.15248389375E+02 -0.23425500672E+02  0.10494943945E+02  0.29856511998E+02  0.00000000000E+00 0.  1.
</event>
<event>
 5    1  0.1325686E-009  0.9118800E+02  0.7818608E-02  0.1130116E+00
         25   -1    0    0    0    0  0.00000000000E+00  0.00000000000E+00  0.99999998245E-14  0.12500000000E+03  0.12500000000E+03 0.  0.
        -13    1    3    3    0    0  0.40481585283E+02 -0.54205244250E+00 -0.13790290141E+02  0.42769566681E+02  0.10566000000E+00 0.  1.
         23    2    1    0    0    0  0.91153301609E+01  0.23113952214E+02  0.18822603415E+02  0.93828948843E+02  0.88499927745E+02 0.  0.
         13    1    3    3    0    0 -0.31366255122E+02  0.23656004656E+02  0.32612893556E+02  0.51059382162E+02  0.10566000000E+00 0. -1.
         22    1    1    0    0    0 -0.91153301609E+01 -0.23113952214E+02 -0.18822603415E+02  0.31171051157E+02  0.00000000000E+00 0. -1.
</event>
<event>
 5    1  0.1325686E-009  0.9118800E+02  0.7818608E-02  0.1130116E+00
         25   -1    0    0    0    0  0.00000000000E+00  0.00000000000E+00  0.99999998245E-14  0.12500000000E+03  0.12500000000E+03 0.  0.
        -13    1    3    3    0    0 -0.14803673580E+02  0.32594992181E+02 -0.39360438856E+02  0.53205616036E+02  0.10566000000E+00 0.  1.
         23    2    1    0    0    0  0.10387221476E+02  0.27133244835E+02 -0.60523014615E+01  0.95322774755E+02  0.90585284063E+02 0.  0.
         13    1    3    3    0    0  0.25190895057E+02 -0.54617473461E+01  0.33308137395E+02  0.42117158719E+02  0.10566000000E+00 0. -1.
         22    1    1    0    0    0 -0.10387221476E+02 -0.27133244835E+02  0.60523014615E+01  0.29677225245E+02  0.00000000000E+00 0.  1.
</event>
<event>
 5    1  0.1325686E-009  0.9118800E+02  0.7818608E-02  0.1130116E+00
         25   -1    0    0    0    0  0.00000000000E+00  0.00000000000E+00  0.99999998245E-14  0.12500000000E+03  0.12500000000E+03 0.  0.
        -13    1    3    3    0    0  0.45771368955E+02 -0.14831319402E+02 -0.17759671066E+02  0.51287457839E+02  0.10566000000E+00 0.  1.
         23    2    1    0    0    0  0.23677464922E+02  0.10735143891E+02  0.12048298377E+02  0.96346428612E+02  0.91986994478E+02 0.  0.
         13    1    3    3    0    0 -0.22093904033E+02  0.25566463293E+02  0.29807969444E+02  0.45058970773E+02  0.10566000000E+00 0. -1.
         22    1    1    0    0    0 -0.23677464922E+02 -0.10735143891E+02 -0.12048298377E+02  0.28653571388E+02  0.00000000000E+00 0.  1.
</event>
<event>
 5    1  0.1325686E-009  0.9118800E+02  0.7818608E-02  0.1130116E+00
         25   -1    0    0    0    0  0.00000000000E+00  0.00000000000E+00  0.99999998245E-14  0.12500000000E+03  0.12500000000E+03 0.  0.
        -13    1    3    3    0    0  0.37240443452E+02  0.49352701378E+01 -0.79180749830E+00  0.37574534501E+02  0.10566000000E+00 0.  1.
         23    2    1    0    0    0 -0.66479119157E+01 -0.30320885439E+02  0.15650507259E+01  0.93919456079E+02  0.88627670735E+02 0.  0.
         13    1    3    3    0    0 -0.43888355368E+02 -0.35256155577E+02  0.23568582242E+01  0.56344921578E+02  0.10566000000E+00 0. -1.
         22    1    1    0    0    0  0.66479119157E+01  0.30320885439E+02 -0.15650507259E+01  0.31080543921E+02  0.00000000000E+00 0. -1.
</event>
<event>
 5    1  0.1325686E-009  0.9118800E+02  0.7818608E-02  0.1130116E+00
         25   -1    0    0    0    0  0.00000000000E+00  0.00000000000E+00  0.99999998245E-14  0.12500000000E+03  0.12500000000E+03 0.  0.
        -13    1    3    3    0    0  0.30539001001E+02 -0.33253763858E+01 -0.16085845120E+02  0.34676422645E+02  0.10566000000E+00 0.  1.
         23    2    1    0    0    0 -0.10209281913E+02 -0.38212263891E+01  0.28144621172E+02  0.94818036691E+02  0.89886089985E+02 0.  0.
         13    1    3    3    0    0 -0.40748282913E+02 -0.49585000325E+00  0.44230466291E+02  0.60141614046E+02  0.10566000000E+00 0. -1.
         22    1    1    0    0    0  0.10209281913E+02  0.38212263891E+01 -0.28144621172E+02  0.30181963309E+02  0.00000000000E+00 0. -1.
</event>
<event>
 5    1  0.1325686E-009  0.9118800E+02  0.7818608E-02  0.1130116E+00
         25   -1    0    0    0    0  0.00000000000E+00  0.00000000000E+00  0.99999998245E-14  0.12500000000E+03  0.12500000000E+03 0.  0.
        -13    1    3    3    0    0 -0.23061067032E+02  0.11435746280E+02  0.29815775497E+02  0.39390109649E+02  0.10566000000E+00 0.  1.
         23    2    1    0    0    0  0.25504082406E+02 -0.90733662337E+01  0.58253259720E+01  0.97310315695E+02  0.93287613989E+02 0.  0.
         13    1    3    3    0    0  0.48565149438E+02 -0.20509112514E+02 -0.23990449525E+02  0.57920206047E+02  0.10566000000E+00 0. -1.
         22    1    1    0    0    0 -0.25504082406E+02  0.90733662337E+01 -0.58253259720E+01  0.27689684305E+02  0.00000000000E+00 0. -1.
</event>
<event>
 5    1  0.1325686E-009  0.9118800E+02  0.7818608E-02  0.1130116E+00
         25   -1    0    0    0    0  0.00000000000E+00  0.00000000000E+00  0.99999998245E-14  0.12500000000E+03  0.12500000000E+03 0.  0.
        -13    1    3    3    0    0  0.24334737848E+02  0.38129447246E+02  0.20601365260E+02  0.49703738572E+02  0.10566000000E+00 0.  1.
         23    2    1    0    0    0  0.29090820290E+02 -0.22283234763E+01 -0.11602344660E+01  0.95800900790E+02  0.91242672021E+02 0.  0.
         13    1    3    3    0    0  0.47560824415E+01 -0.40357770722E+02 -0.21761599726E+02  0.46097162218E+02  0.10566000000E+00 0. -1.
         22    1    1    0    0    0 -0.29090820290E+02  0.22283234763E+01  0.11602344660E+01  0.29199099210E+02  0.00000000000E+00 0. -1.
</event>
<event>
 5    1  0.1325686E-009  0.9118800E+02  0.7818608E-02  0.1130116E+00
         25   -1    0    0    0    0  0.00000000000E+00  0.00000000000E+00  0.99999998245E-14  0.12500000000E+03  0.12500000000E+03 0.  0.
        -13    1    3    3    0    0 -0.54515175001E+02  0.21577230949E+02  0.10149416526E+02  0.59502126186E+02  0.10566000000E+00 0.  1.
         23    2    1    0    0    0 -0.28494476482E+02 -0.31227930038E+01  0.21922997590E+01  0.96251205166E+02  0.91857505364E+02 0.  0.
         13    1    3    3    0    0  0.26020698518E+02 -0.24700023953E+02 -0.79571167666E+01  0.36749078981E+02  0.10566000000E+00 0. -1.
         22    1    1    0    0    0  0.28494476482E+02  0.31227930038E+01 -0.21922997590E+01  0.28748794834E+02  0.00000000000E+00 0.  1.
</event>
<event>
 5    1  0.1325686E-009  0.9118800E+02  0.7818608E-02  0.1130116E+00
         25   -1    0    0    0    0  0.00000000000E+00  0.00000000000E+00  0.99999998245E-14  0.12500000000E+03  0.12500000000E+03 0.  0.
        -13    1    3    3    0    0  0.12878154578E+02 -0.13326219433E+01  0.39983879610E+02  0.42027901914E+02  0.10566000000E+00 0.  1.
         23    2    1    0    0    0  0.20684281197E+02 -0.15285077792E+02 -0.12147933146E+02  0.96556277117E+02  0.92271714405E+02 0.  0.
         13    1    3    3    0    0  0.78061266182E+01 -0.13952455848E+02 -0.52131812756E+02  0.54528375203E+02  0.10566000000E+00 0. -1.
         22    1    1    0    0    0 -0.20684281197E+02  0.15285077792E+02  0.12147933146E+02  0.28443722883E+02  0.00000000000E+00 0.  1.
</event>
<event>
 5    1  0.1325686E-009  0.9118800E+02  0.7818608E-02  0.1130116E+00
         25   -1    0    0    0    0  0.00000000000E+00  0.00000000000E+00  0.99999998245E-14  0.12500000000E+03  0.12500000000E+03 0.  0.
        -13    1    3    3    0    0 -0.15819677798E+02 -0.30159743939E+02  0.72072509201E+01  0.34811319854E+02  0.10566000000E+00 0. -1.
         23    2    1    0    0    0  0.90168317894E+01  0.18260303792E+02 -0.20694200989E+02  0.95965677127E+02  0.91468132602E+02 0.  0.
         13    1    3    3    0    0  0.24836509587E+02  0.48420047731E+02 -0.27901451910E+02  0.61154357273E+02  0.10566000000E+00 0.  1.
         22    1    1    0    0    0 -0.90168317894E+01 -0.18260303792E+02  0.20694200989E+02  0.29034322873E+02  0.00000000000E+00 0.  1.
</event>
<event>
 5    1  0.1325686E-009  0.9118800E+02  0.7818608E-02  0.1130116E+00
         25   -1    0    0    0    0  0.00000000000E+00  0.00000000000E+00  0.99999998245E-14  0.12500000000E+03  0.12500000000E+03 0.  0.
        -13    1    3    3    0    0  0.66742085524E+01 -0.10948964274E+02  0.32965411492E+02  0.35371660935E+02  0.10566000000E+00 0.  1.
         23    2    1    0    0    0 -0.36238966772E+01  0.22989954825E+02 -0.16666834891E+02  0.96373892419E+02  0.92024307140E+02 0.  0.
         13    1    3    3    0    0 -0.10298105230E+02  0.33938919099E+02 -0.49632246383E+02  0.61002231483E+02  0.10566000000E+00 0. -1.
         22    1    1    0    0    0  0.36238966772E+01 -0.22989954825E+02  0.16666834891E+02  0.28626107581E+02  0.00000000000E+00 0. -1.
</event>
<event>
 5    1  0.1325686E-009  0.9118800E+02  0.7818608E-02  0.1130116E+00
         25   -1    0    0    0    0  0.00000000000E+00  0.00000000000E+00  0.99999998245E-14  0.12500000000E+03  0.12500000000E+03 0.  0.
        -13    1    3    3    0    0 -0.12598338157E+02 -0.59196768910E+02  0.75222263506E+00  0.60527287868E+02  0.10566000000E+00 0.  1.
         23    2    1    0    0    0 -0.85845065496E+01 -0.25546750178E+02  0.10939157999E+02  0.95914000359E+02  0.91397484046E+02 0.  0.
         13    1    3    3    0    0  0.40138316069E+01  0.33650018732E+02  0.10186935364E+02  0.35386712492E+02  0.10566000000E+00 0. -1.
         22    1    1    0    0    0  0.85845065496E+01  0.25546750178E+02 -0.10939157999E+02  0.29085999641E+02  0.00000000000E+00 0.  1.
</event>
<event>
 5    1  0.1325686E-009  0.9118800E+02  0.7818608E-02  0.1130116E+00
         25   -1    0    0    0    0  0.00000000000E+00  0.00000000000E+00  0.99999998245E-14  0.12500000000E+03  0.12500000000E+03 0.  0.
        -13    1    3    3    0    0 -0.60126478940E+02 -0.93103418598E+00 -0.35398751163E+01  0.60237879895E+02  0.10566000000E+00 0.  1.
         23    2    1    0    0    0 -0.28161944331E+02  0.97400874030E+01 -0.77797575024E+01  0.94202450781E+02  0.89025910247E+02 0.  0.
         13    1    3    3    0    0  0.31964534609E+02  0.10671121589E+02 -0.42398823861E+01  0.33964570886E+02  0.10566000000E+00 0. -1.
         22    1    1    0    0    0  0.28161944331E+02 -0.97400874030E+01  0.77797575024E+01  0.30797549219E+02  0.00000000000E+00 0.  1.
</event>
<event>
 5    1  0.1325686E-009  0.9118800E+02  0.7818608E-02  0.1130116E+00
         25   -1    0    0    0    0  0.00000000000E+00  0.00000000000E+00  0.99999998245E-14  0.12500000000E+03  0.12500000000E+03 0.  0.
        -13    1    3    3    0    0  0.33707830195E+02  0.20414951291E+02 -0.16289306342E+02  0.42642006493E+02  0.10566000000E+00 0.  1.
         23    2    1    0    0    0 -0.14622785925E+01  0.34810834140E+02  0.98816491476E+01  0.88784265545E+02  0.81062114371E+02 0.  0.
         13    1    3    3    0    0 -0.35170108788E+02  0.14395882850E+02  0.26170955489E+02  0.46142259052E+02  0.10566000000E+00 0. -1.
         22    1    1    0    0    0  0.14622785925E+01 -0.34810834140E+02 -0.98816491476E+01  0.36215734455E+02  0.00000000000E+00 0. -1.
</event>
<event>
 5    1  0.1325686E-009  0.9118800E+02  0.7818608E-02  0.1130116E+00
         25   -1    0    0    0    0  0.00000000000E+00  0.00000000000E+00  0.99999998245E-14  0.12500000000E+03  0.12500000000E+03 0.  0.
        -13    1    3    3    0    0 -0.25840254302E+01 -0.31723073583E+02 -0.11882641094E+02  0.33974091723E+02  0.10566000000E+00 0.  1.
         23    2    1    0    0    0  0.64882725771E+01  0.15066933796E+02  0.25590461538E+02  0.94602929470E+02  0.89586451920E+02 0.  0.
         13    1    3    3    0    0  0.90722980073E+01  0.46790007379E+02  0.37473102632E+02  0.60628837748E+02  0.10566000000E+00 0. -1.
         22    1    1    0    0    0 -0.64882725771E+01 -0.15066933796E+02 -0.25590461538E+02  0.30397070530E+02  0.00000000000E+00 0. -1.
</event>
<event>
 5    1  0.1325686E-009  0.9118800E+02  0.7818608E-02  0.1130116E+00
         25   -1    0    0    0    0  0.00000000000E+00  0.00000000000E+00  0.99999998245E-14  0.12500000000E+03  0.12500000000E+03 0.  0.
        -13    1    3    3    0    0  0.22793334600E+02  0.31327888867E+02  0.56053007586E+01  0.39145922951E+02  0.10566000000E+00 0.  1.
         23    2    1    0    0    0  0.86121169643E+01 -0.25593387896E+02  0.22417379078E+01  0.97903589694E+02  0.94079208243E+02 0.  0.
         13    1    3    3    0    0 -0.14181217636E+02 -0.56921276763E+02 -0.33635628508E+01  0.58757666743E+02  0.10566000000E+00 0. -1.
         22    1    1    0    0    0 -0.86121169643E+01  0.25593387896E+02 -0.22417379078E+01  0.27096410306E+02  0.00000000000E+00 0. -1.
</event>
<event>
 5    1  0.1325686E-009  0.9118800E+02  0.7818608E-02  0.1130116E+00
         25   -1    0    0    0    0  0.00000000000E+00  0.00000000000E+00  0.99999998245E-14  0.12500000000E+03  0.12500000000E+03 0.  0.
        -13    1    3    3    0    0 -0.21219540883E+02 -0.51866510443E+02  0.11438791142E+02  0.57194937955E+02  0.10566000000E+00 0.  1.
         23    2    1    0    0    0 -0.39355734064E+01 -0.32584107433E+02 -0.98665358938E+01  0.90728126316E+02  0.84006140127E+02 0.  0.
         13    1    3    3    0    0  0.17283967477E+02  0.19282403010E+02 -0.21305327036E+02  0.33533188362E+02  0.10566000000E+00 0. -1.
         22    1    1    0    0    0  0.39355734064E+01  0.32584107433E+02  0.98665358938E+01  0.34271873684E+02  0.00000000000E+00 0.  1.
</event>
<event>
 5    1  0.1325686E-009  0.9118800E+02  0.7818608E-02  0.1130116E+00
         25   -1    0    0    0    0  0.00000000000E+00  0.00000000000E+00  0.99999998245E-14  0.12500000000E+03  0.12500000000E+03 0.  0.
        -13    1    3    3    0    0  0.38308649120E+02  0.16038265170E+02 -0.24262313593E+02  0.48098332320E+02  0.10566000000E+00 0. -1.
         23    2    1    0    0    0  0.61493887711E+01 -0.19470858713E+02 -0.20360775596E+02  0.96164422944E+02  0.91739335816E+02 0.  0.
         13    1    3    3    0    0 -0.32159260349E+02 -0.35509123883E+02  0.39015379966E+01  0.48066090624E+02  0.10566000000E+00 0.  1.
         22    1    1    0    0    0 -0.61493887711E+01  0.19470858713E+02  0.20360775596E+02  0.28835577056E+02  0.00000000000E+00 0. -1.
</event>
<event>
 5    1  0.1325686E-009  0.9118800E+02  0.7818608E-02  0.1130116E+00
         25   -1    0    0    0    0  0.00000000000E+00  0.00000000000E+00  0.99999998245E-14  0.12500000000E+03  0.12500000000E+03 0.  0.
        -13    1    3    3    0    0 -0.15904041909E+02  0.36917304822E+02 -0.80278557200E+01  0.40991262189E+02  0.10566000000E+00 0.  1.
         23    2    1    0    0    0 -0.22227666783E+02 -0.17770361678E+02 -0.65882261394E+00  0.96534424790E+02  0.92242106424E+02 0.  0.
         13    1    3    3    0    0 -0.63236248742E+01 -0.54687666500E+02  0.73690331060E+01  0.55543162601E+02  0.10566000000E+00 0. -1.
         22    1    1    0    0    0  0.22227666783E+02  0.17770361678E+02  0.65882261394E+00  0.28465575210E+02  0.00000000000E+00 0. -1.
</event>
<event>
 5    1  0.1325686E-009  0.9118800E+02  0.7818608E-02  0.1130116E+00
         25   -1    0    0    0    0  0.00000000000E+00  0.00000000000E+00  0.99999998245E-14  0.12500000000E+03  0.12500000000E+03 0.  0.
        -13    1    3    3    0    0 -0.37989800355E+02 -0.25319975967E+02 -0.46784078500E+01  0.45893624590E+02  0.10566000000E+00 0. -1.
         23    2    1    0    0    0  0.16818896547E+02  0.21661819665E+01  0.32963642523E+01  0.10772476794E+03  0.10633057879E+03 0.  0.
         13    1    3    3    0    0  0.54808696902E+02  0.27486157934E+02  0.79747721024E+01  0.61831143352E+02  0.10566000000E+00 0.  1.
         22    1    1    0    0    0 -0.16818896547E+02 -0.21661819665E+01 -0.32963642523E+01  0.17275232058E+02  0.00000000000E+00 0.  1.
</event>
<event>
 5    1  0.1325686E-009  0.9118800E+02  0.7818608E-02  0.1130116E+00
         25   -1    0    0    0    0  0.00000000000E+00  0.00000000000E+00  0.99999998245E-14  0.12500000000E+03  0.12500000000E+03 0.  0.
        -13    1    3    3    0    0 -0.40381446535E+02  0.10888218771E+02 -0.40438628089E+01  0.42018787735E+02  0.10566000000E+00 0. -1.
         23    2    1    0    0    0  0.91207377760E+01  0.24315151893E+02  0.12856534055E+02  0.96022337274E+02  0.91545531395E+02 0.  0.
         13    1    3    3    0    0  0.49502184311E+02  0.13426933122E+02  0.16900396864E+02  0.54003549539E+02  0.10566000000E+00 0.  1.
         22    1    1    0    0    0 -0.91207377760E+01 -0.24315151893E+02 -0.12856534055E+02  0.28977662726E+02  0.00000000000E+00 0.  1.
</event>
<event>
 5    1  0.1325686E-009  0.9118800E+02  0.7818608E-02  0.1130116E+00
         25   -1    0    0    0    0  0.00000000000E+00  0.00000000000E+00  0.99999998245E-14  0.12500000000E+03  0.12500000000E+03 0.  0.
        -13    1    3    3    0    0  0.26598068021E+01 -0.34894186027E+02 -0.20517596449E+02  0.40566756326E+02  0.10566000000E+00 0. -1.
         23    2    1    0    0    0  0.28043264390E+02  0.89347661722E+01  0.89089217977E+00  0.95554314186E+02  0.90904227330E+02 0.  0.
         13    1    3    3    0    0  0.25383457588E+02  0.43828952199E+02  0.21408488629E+02  0.54987557860E+02  0.10566000000E+00 0.  1.
         22    1    1    0    0    0 -0.28043264390E+02 -0.89347661722E+01 -0.89089217977E+00  0.29445685814E+02  0.00000000000E+00 0.  1.
</event>
<event>
 5    1  0.1325686E-009  0.9118800E+02  0.7818608E-02  0.1130116E+00
         25   -1    0    0    0    0  0.00000000000E+00  0.00000000000E+00  0.99999998245E-14  0.12500000000E+03  0.12500000000E+03 0.  0.
        -13    1    3    3    0    0  0.18442746979E+02  0.24306274433E+02  0.16862609077E+02  0.34860990260E+02  0.10566000000E+00 0.  1.
         23    2    1    0    0    0 -0.24248966627E+02 -0.16504505911E+02  0.30974776748E+01  0.95504144939E+02  0.90835214728E+02 0.  0.
         13    1    3    3    0    0 -0.42691713606E+02 -0.40810780344E+02 -0.13765131403E+02  0.60643154679E+02  0.10566000000E+00 0. -1.
         22    1    1    0    0    0  0.24248966627E+02  0.16504505911E+02 -0.30974776748E+01  0.29495855061E+02  0.00000000000E+00 0. -1.
</event>
<event>
 5    1  0.1325686E-009  0.9118800E+02  0.7818608E-02  0.1130116E+00
         25   -1    0    0    0    0  0.00000000000E+00  0.00000000000E+00  0.99999998245E-14  0.12500000000E+03  0.12500000000E+03 0.  0.
        -13    1    3    3    0    0 -0.12183348407E+02  0.37631377246E+02  0.24285273991E+02  0.46414870772E+02  0.10566000000E+00 0.  1.
         23    2    1    0    0    0 -0.18699375753E+02  0.19387895009E+02 -0.17778758177E+02  0.92725530698E+02  0.86927456390E+02 0.  0.
         13    1    3    3    0    0 -0.65160273456E+01 -0.18243482237E+02 -0.42064032168E+02  0.46310659926E+02  0.10566000000E+00 0. -1.
         22    1    1    0    0    0  0.18699375753E+02 -0.19387895009E+02  0.17778758177E+02  0.32274469302E+02  0.00000000000E+00 0. -1.
</event>
<event>
 5    1  0.1325686E-009  0.9118800E+02  0.7818608E-02  0.1130116E+00
         25   -1    0    0    0    0  0.00000000000E+00  0.00000000000E+00  0.99999998245E-14  0.12500000000E+03  0.12500000000E+03 0.  0.
        -13    1    3    3    0    0  0.71352053104E+01  0.29448425721E+02  0.36256723214E+02  0.47251265322E+02  0.10566000000E+00 0.  1.
         23    2    1    0    0    0  0.20368984414E+02 -0.13058464666E+02  0.14358174391E+02  0.96865036034E+02  0.92689044707E+02 0.  0.
         13    1    3    3    0    0  0.13233779104E+02 -0.42506890387E+02 -0.21898548823E+02  0.49613770712E+02  0.10566000000E+00 0. -1.
         22    1    1    0    0    0 -0.20368984414E+02  0.13058464666E+02 -0.14358174391E+02  0.28134963966E+02  0.00000000000E+00 0.  1.
</event>
<event>
 5    1  0.1325686E-009  0.9118800E+02  0.7818608E-02  0.1130116E+00
         25   -1    0    0    0    0  0.00000000000E+00  0.00000000000E+00  0.99999998245E-14  0.12500000000E+03  0.12500000000E+03 0.  0.
        -13    1    3    3    0    0 -0.33329003822E+01  0.25368193159E+02  0.26957620086E+02  0.37166892443E+02  0.10566000000E+00 0.  1.
         23    2    1    0    0    0 -0.14149109097E+02  0.33963427266E+01 -0.25826966709E+02  0.95356035326E+02  0.90631169206E+02 0.  0.
         13    1    3    3    0    0 -0.10816208715E+02 -0.21971850433E+02 -0.52784586795E+02  0.58189142884E+02  0.10566000000E+00 0. -1.
         22    1    1    0    0    0  0.14149109097E+02 -0.33963427266E+01  0.25826966709E+02  0.29643964674E+02  0.00000000000E+00 0. -1.
</event>
<event>
 5    1  0.1325686E-009  0.9118800E+02  0.7818608E-02  0.1130116E+00
         25   -1    0    0    0    0  0.00000000000E+00  0.00000000000E+00  0.99999998245E-14  0.12500000000E+03  0.12500000000E+03 0.  0.
        -13    1    3    3    0    0 -0.73117194107E+01  0.11603176922E+01 -0.31177316140E+02  0.32044403312E+02  0.10566000000E+00 0. -1.
         23    2    1    0    0    0  0.20041074379E+02 -0.81118810914E+01  0.22996324322E+02  0.93436124930E+02  0.87943341036E+02 0.  0.
         13    1    3    3    0    0  0.27352793789E+02 -0.92721987836E+01  0.54173640462E+02  0.61391721619E+02  0.10566000000E+00 0.  1.
         22    1    1    0    0    0 -0.20041074379E+02  0.81118810914E+01 -0.22996324322E+02  0.31563875070E+02  0.00000000000E+00 0.  1.
</event>
<event>
 5    1  0.1325686E-009  0.9118800E+02  0.7818608E-02  0.1130116E+00
         25   -1    0    0    0    0  0.00000000000E+00  0.00000000000E+00  0.99999998245E-14  0.12500000000E+03  0.12500000000E+03 0.  0.
        -13    1    3    3    0    0  0.14492162632E+02 -0.43854620392E+02 -0.41995624430E+02  0.62425108272E+02  0.10566000000E+00 0. -1.
         23    2    1    0    0    0  0.46824516653E+01 -0.20965680622E+02 -0.19011757032E+02  0.96313208214E+02  0.91941840604E+02 0.  0.
         13    1    3    3    0    0 -0.98097109670E+01  0.22888939770E+02  0.22983867398E+02  0.33888099942E+02  0.10566000000E+00 0.  1.
         22    1    1    0    0    0 -0.46824516653E+01  0.20965680622E+02  0.19011757032E+02  0.28686791786E+02  0.00000000000E+00 0. -1.
</event>
<event>
 5    1  0.1325686E-009  0.9118800E+02  0.7818608E-02  0.1130116E+00
         25   -1    0    0    0    0  0.00000000000E+00  0.00000000000E+00  0.99999998245E-14  0.12500000000E+03  0.12500000000E+03 0.  0.
        -13    1    3    3    0    0 -0.27080397198E+02 -0.27981584246E+02 -0.35485305029E+02  0.52683346575E+02  0.10566000000E+00 0.  1.
         23    2    1    0    0    0  0.22889654768E+00  0.46271433974E+01 -0.28908332950E+02  0.95722797886E+02  0.91135610337E+02 0.  0.
         13    1    3    3    0    0  0.27309293746E+02  0.32608727643E+02  0.65769720786E+01  0.43039451311E+02  0.10566000000E+00 0. -1.
         22    1    1    0    0    0 -0.22889654768E+00 -0.46271433974E+01  0.28908332950E+02  0.29277202114E+02  0.00000000000E+00 0. -1.
</event>
<event>
 5    1  0.1325686E-009  0.9118800E+02  0.7818608E-02  0.1130116E+00
         25   -1    0    0    0    0  0.00000000000E+00  0.00000000000E+00  0.99999998245E-14  0.12500000000E+03  0.12500000000E+03 0.  0.
        -13    1    3    3    0    0 -0.76209935581E+01 -0.23204950500E+02 -0.49149394629E+02  0.54883726431E+02  0.10566000000E+00 0. -1.
         23    2    1    0    0    0  0.10938177881E+00 -0.29403806461E+02 -0.12154298650E+02  0.93182979800E+02  0.87582789119E+02 0.  0.
         13    1    3    3    0    0  0.77303753369E+01 -0.61988559602E+01  0.36995095979E+02  0.38299253368E+02  0.10566000000E+00 0.  1.
         22    1    1    0    0    0 -0.10938177881E+00  0.29403806461E+02  0.12154298650E+02  0.31817020200E+02  0.00000000000E+00 0. -1.
</event>
<event>
 5    1  0.1325686E-009  0.9118800E+02  0.7818608E-02  0.1130116E+00
         25   -1    0    0    0    0  0.00000000000E+00  0.00000000000E+00  0.99999998245E-14  0.12500000000E+03  0.12500000000E+03 0.  0.
        -13    1    3    3    0    0 -0.11161241774E+02 -0.25654548093E+02  0.21891022221E+02  0.35524036563E+02  0.10566000000E+00 0.  1.
         23    2    1    0    0    0 -0.20657185958E+02  0.12291008438E+02 -0.20646959704E+02  0.93312697099E+02  0.87767729120E+02 0.  0.
         13    1    3    3    0    0 -0.94959441836E+01  0.37945556530E+02 -0.42537981925E+02  0.57788660537E+02  0.10566000000E+00 0. -1.
         22    1    1    0    0    0  0.20657185958E+02 -0.12291008438E+02  0.20646959704E+02  0.31687302901E+02  0.00000000000E+00 0. -1.
</event>
<event>
 5    1  0.1325686E-009  0.9118800E+02  0.7818608E-02  0.1130116E+00
         25   -1    0    0    0    0  0.00000000000E+00  0.00000000000E+00  0.99999998245E-14  0.12500000000E+03  0.12500000000E+03 0.  0.
        -13    1    3    3    0    0  0.18982361477E+02 -0.31930613274E+02 -0.10159248144E+02  0.38511239895E+02  0.10566000000E+00 0. -1.
         23    2    1    0    0    0 -0.12821078455E+01 -0.12965392817E+02  0.32828631526E+02  0.89680539935E+02  0.82432608740E+02 0.  0.
         13    1    3    3    0    0 -0.20264469323E+02  0.18965220458E+02  0.42987879671E+02  0.51169300040E+02  0.10566000000E+00 0.  1.
         22    1    1    0    0    0  0.12821078455E+01  0.12965392817E+02 -0.32828631526E+02  0.35319460065E+02  0.00000000000E+00 0.  1.
</event>
<event>
 5    1  0.1325686E-009  0.9118800E+02  0.7818608E-02  0.1130116E+00
         25   -1    0    0    0    0  0.00000000000E+00  0.00000000000E+00  0.99999998245E-14  0.12500000000E+03  0.12500000000E+03 0.  0.
        -13    1    3    3    0    0  0.33936179291E+02  0.48669499895E+02  0.17347510382E+02  0.61816921352E+02  0.10566000000E+00 0. -1.
         23    2    1    0    0    0  0.12414202357E+02  0.26721452880E+02  0.42492379705E+01  0.95230813120E+02  0.90458295805E+02 0.  0.
         13    1    3    3    0    0 -0.21521976933E+02 -0.21948047015E+02 -0.13098272411E+02  0.33413891768E+02  0.10566000000E+00 0.  1.
         22    1    1    0    0    0 -0.12414202357E+02 -0.26721452880E+02 -0.42492379705E+01  0.29769186880E+02  0.00000000000E+00 0. -1.
</event>
<event>
 5    1  0.1325686E-009  0.9118800E+02  0.7818608E-02  0.1130116E+00
         25   -1    0    0    0    0  0.00000000000E+00  0.00000000000E+00  0.99999998245E-14  0.12500000000E+03  0.12500000000E+03 0.  0.
        -13    1    3    3    0    0  0.29665446997E+02 -0.43319696520E+02  0.16615530935E+02  0.55070154207E+02  0.10566000000E+00 0. -1.
         23    2    1    0    0    0  0.24612373517E+01 -0.14698828674E+02  0.25425819555E+02  0.95528224456E+02  0.90868344950E+02 0.  0.
         13    1    3    3    0    0 -0.27204209645E+02  0.28620867845E+02  0.88102886196E+01  0.40458070249E+02  0.10566000000E+00 0.  1.
         22    1    1    0    0    0 -0.24612373517E+01  0.14698828674E+02 -0.25425819555E+02  0.29471775544E+02  0.00000000000E+00 0. -1.
</event>
<event>
 4    1  0.1325686E-009  0.9118800E+02  0.7818608E-02  0.1130116E+00
         25   -1    0    0    0    0  0.00000000000E+00  0.00000000000E+00  0.99999998245E-14  0.12500000000E+03  0.12500000000E+03 0.  0.
        -13    1    1    0    0    0 -0.60940781907E+01  0.95973712029E+01 -0.23772695555E+01  0.11615072000E+02  0.10566000000E+00 0.  1.
         13    1    1    0    0    0  0.17376628072E+02 -0.14736099595E+02  0.54888806894E+02  0.59429724219E+02  0.10566000000E+00 0. -1.
         22    1    1    0    0    0 -0.11282549881E+02  0.51387283926E+01 -0.52511537339E+02  0.53955203781E+02  0.00000000000E+00 0. -1.
</event>
<event>
 5    1  0.1325686E-009  0.9118800E+02  0.7818608E-02  0.1130116E+00
         25   -1    0    0    0    0  0.00000000000E+00  0.00000000000E+00  0.99999998245E-14  0.12500000000E+03  0.12500000000E+03 0.  0.
        -13    1    3    3    0    0  0.24105422634E+01  0.16960255797E+02 -0.39152778856E+02  0.42736544629E+02  0.10566000000E+00 0. -1.
         23    2    1    0    0    0  0.22160637448E+02  0.17818423575E+02  0.93121462435E+01  0.95078333294E+02  0.90247345244E+02 0.  0.
         13    1    3    3    0    0  0.19750095185E+02  0.85816777791E+00  0.48464925099E+02  0.52341788665E+02  0.10566000000E+00 0.  1.
         22    1    1    0    0    0 -0.22160637448E+02 -0.17818423575E+02 -0.93121462435E+01  0.29921666706E+02  0.00000000000E+00 0.  1.
</event>
<event>
 5    1  0.1325686E-009  0.9118800E+02  0.7818608E-02  0.1130116E+00
         25   -1    0    0    0    0  0.00000000000E+00  0.00000000000E+00  0.99999998245E-14  0.12500000000E+03  0.12500000000E+03 0.  0.
        -13    1    3    3    0    0  0.17534087299E+02 -0.39634391183E+02 -0.20835660337E+02  0.48088097150E+02  0.10566000000E+00 0. -1.
         23    2    1    0    0    0 -0.91466055937E+01 -0.22764589219E+02  0.15313180787E+02  0.96079757573E+02  0.91623901867E+02 0.  0.
         13    1    3    3    0    0 -0.26680692893E+02  0.16869801963E+02  0.36148841124E+02  0.47991660423E+02  0.10566000000E+00 0.  1.
         22    1    1    0    0    0  0.91466055937E+01  0.22764589219E+02 -0.15313180787E+02  0.28920242427E+02  0.00000000000E+00 0. -1.
</event>
<event>
 5    1  0.1325686E-009  0.9118800E+02  0.7818608E-02  0.1130116E+00
         25   -1    0    0    0    0  0.00000000000E+00  0.00000000000E+00  0.99999998245E-14  0.12500000000E+03  0.12500000000E+03 0.  0.
        -13    1    3    3    0    0  0.12818574201E+02  0.42506243314E+02 -0.35439721754E+02  0.56807408031E+02  0.10566000000E+00 0.  1.
         23    2    1    0    0    0  0.18644049391E+02  0.30234522503E+02 -0.63454717165E+01  0.88916874581E+02  0.81266343866E+02 0.  0.
         13    1    3    3    0    0  0.58254751903E+01 -0.12271720811E+02  0.29094250037E+02  0.32109466550E+02  0.10566000000E+00 0. -1.
         22    1    1    0    0    0 -0.18644049391E+02 -0.30234522503E+02  0.63454717165E+01  0.36083125419E+02  0.00000000000E+00 0.  1.
</event>
<event>
 5    1  0.1325686E-009  0.9118800E+02  0.7818608E-02  0.1130116E+00
         25   -1    0    0    0    0  0.00000000000E+00  0.00000000000E+00  0.99999998245E-14  0.12500000000E+03  0.12500000000E+03 0.  0.
        -13    1    3    3    0    0 -0.26315001313E+02  0.26407992040E+02 -0.58426967067E+01  0.37736051814E+02  0.10566000000E+00 0. -1.
         23    2    1    0    0    0  0.24633739183E+02  0.14951723689E+01 -0.16324799902E+02  0.95410208882E+02  0.90705855492E+02 0.  0.
         13    1    3    3    0    0  0.50948740496E+02 -0.24912819671E+02 -0.10482103196E+02  0.57674157068E+02  0.10566000000E+00 0.  1.
         22    1    1    0    0    0 -0.24633739183E+02 -0.14951723689E+01  0.16324799902E+02  0.29589791118E+02  0.00000000000E+00 0. -1.
</event>
<event>
 5    1  0.1325686E-009  0.9118800E+02  0.7818608E-02  0.1130116E+00
         25   -1    0    0    0    0  0.00000000000E+00  0.00000000000E+00  0.99999998245E-14  0.12500000000E+03  0.12500000000E+03 0.  0.
        -13    1    3    3    0    0 -0.29946490730E+02  0.15193211512E+02  0.11342002308E+02  0.35444014495E+02  0.10566000000E+00 0.  1.
         23    2    1    0    0    0  0.28564829169E+02  0.78861232535E+01  0.72775762033E+00  0.95357631056E+02  0.90633370036E+02 0.  0.
         13    1    3    3    0    0  0.58511319900E+02 -0.73070882582E+01 -0.10614244687E+02  0.59913616562E+02  0.10566000000E+00 0. -1.
         22    1    1    0    0    0 -0.28564829169E+02 -0.78861232535E+01 -0.72775762033E+00  0.29642368944E+02  0.00000000000E+00 0. -1.
</event>
<event>
 5    1  0.1325686E-009  0.9118800E+02  0.7818608E-02  0.1130116E+00
         25   -1    0    0    0    0  0.00000000000E+00  0.00000000000E+00  0.99999998245E-14  0.12500000000E+03  0.12500000000E+03 0.  0.
        -13    1    3    3    0    0  0.19674625718E+01  0.51242592074E+02 -0.89020120796E+01  0.52047393158E+02  0.10566000000E+00 0. -1.
         23    2    1    0    0    0  0.18703110729E+02  0.13192852218E+02 -0.19485200850E+02  0.94941211722E+02  0.90057220312E+02 0.  0.
         13    1    3    3    0    0  0.16735648157E+02 -0.38049739856E+02 -0.10583188771E+02  0.42893818563E+02  0.10566000000E+00 0.  1.
         22    1    1    0    0    0 -0.18703110729E+02 -0.13192852218E+02  0.19485200850E+02  0.30058788278E+02  0.00000000000E+00 0. -1.
</event>
<event>
 5    1  0.1325686E-009  0.9118800E+02  0.7818608E-02  0.1130116E+00
         25   -1    0    0    0    0  0.00000000000E+00  0.00000000000E+00  0.99999998245E-14  0.12500000000E+03  0.12500000000E+03 0.  0.
        -13    1    3    3    0    0  0.18994322161E+02  0.19339831652E+02  0.36586230556E+02  0.45534347399E+02  0.10566000000E+00 0.  1.
         23    2    1    0    0    0  0.28572885803E+02  0.67332000383E+01 -0.94050190446E+01  0.94174682985E+02  0.88986913342E+02 0.  0.
         13    1    3    3    0    0  0.95785636418E+01 -0.12606631614E+02 -0.45991249601E+02  0.48640335586E+02  0.10566000000E+00 0. -1.
         22    1    1    0    0    0 -0.28572885803E+02 -0.67332000383E+01  0.94050190446E+01  0.30825317015E+02  0.00000000000E+00 0.  1.
</event>
<event>
 5    1  0.1325686E-009  0.9118800E+02  0.7818608E-02  0.1130116E+00
         25   -1    0    0    0    0  0.00000000000E+00  0.00000000000E+00  0.99999998245E-14  0.12500000000E+03  0.12500000000E+03 0.  0.
        -13    1    3    3    0    0  0.24948493655E+02  0.13299669452E+02  0.13276040039E+02  0.31234163129E+02  0.10566000000E+00 0.  1.
         23    2    1    0    0    0 -0.16721450259E+02 -0.26454042280E+02 -0.81142130524E+01  0.92669461725E+02  0.86846792866E+02 0.  0.
         13    1    3    3    0    0 -0.41669943913E+02 -0.39753711733E+02 -0.21390253092E+02  0.61435298596E+02  0.10566000000E+00 0. -1.
         22    1    1    0    0    0  0.16721450259E+02  0.26454042280E+02  0.81142130524E+01  0.32330538275E+02  0.00000000000E+00 0. -1.
</event>
<event>
 5    1  0.1325686E-009  0.9118800E+02  0.7818608E-02  0.1130116E+00
         25   -1    0    0    0    0  0.00000000000E+00  0.00000000000E+00  0.99999998245E-14  0.12500000000E+03  0.12500000000E+03 0.  0.
        -13    1    3    3    0    0  0.32020123434E+02  0.22958302328E+02 -0.30307122257E+02  0.49708196246E+02  0.10566000000E+00 0.  1.
         23    2    1    0    0    0 -0.15712612211E+01  0.64827499997E+01 -0.36729419379E+02  0.87669782249E+02  0.79324936573E+02 0.  0.
         13    1    3    3    0    0 -0.33591384655E+02 -0.16475552328E+02 -0.64222971220E+01  0.37961586003E+02  0.10566000000E+00 0. -1.
         22    1    1    0    0    0  0.15712612211E+01 -0.64827499997E+01  0.36729419379E+02  0.37330217751E+02  0.00000000000E+00 0.  1.
</event>
<event>
 5    1  0.1325686E-009  0.9118800E+02  0.7818608E-02  0.1130116E+00
         25   -1    0    0    0    0  0.00000000000E+00  0.00000000000E+00  0.99999998245E-14  0.12500000000E+03  0.12500000000E+03 0.  0.
        -13    1    3    3    0    0 -0.19211653936E+02 -0.47770351528E+01  0.27472391153E+02  0.33862237840E+02  0.10566000000E+00 0. -1.
         23    2    1    0    0    0  0.11073593128E+01 -0.45198791424E+01 -0.29906701424E+02  0.94733412115E+02  0.89768329765E+02 0.  0.
         13    1    3    3    0    0  0.20319013249E+02  0.25715601041E+00 -0.57379092578E+02  0.60871174275E+02  0.10566000000E+00 0.  1.
         22    1    1    0    0    0 -0.11073593128E+01  0.45198791424E+01  0.29906701424E+02  0.30266587885E+02  0.00000000000E+00 0.  1.
</event>
<event>
 5    1  0.1325686E-009  0.9118800E+02  0.7818608E-02  0.1130116E+00
         25   -1    0    0    0    0  0.00000000000E+00  0.00000000000E+00  0.99999998245E-14  0.12500000000E+03  0.12500000000E+03 0.  0.
        -13    1    3    3    0    0  0.13075989221E+02 -0.33386361555E+02 -0.49944995490E+02  0.61482878677E+02  0.10566000000E+00 0.  1.
         23    2    1    0    0    0 -0.16446774779E+01 -0.17030201210E+02 -0.24401129770E+02  0.95198190469E+02  0.90413204884E+02 0.  0.
         13    1    3    3    0    0 -0.14720666699E+02  0.16356160345E+02  0.25543865720E+02  0.33715311792E+02  0.10566000000E+00 0. -1.
         22    1    1    0    0    0  0.16446774779E+01  0.17030201210E+02  0.24401129770E+02  0.29801809531E+02  0.00000000000E+00 0.  1.
</event>
<event>
 5    1  0.1325686E-009  0.9118800E+02  0.7818608E-02  0.1130116E+00
         25   -1    0    0    0    0  0.00000000000E+00  0.00000000000E+00  0.99999998245E-14  0.12500000000E+03  0.12500000000E+03 0.  0.
        -13    1    3    3    0    0  0.69398921835E+01 -0.38648472905E+02 -0.98351142000E+01  0.40479713398E+02  0.10566000000E+00 0.  1.
         23    2    1    0    0    0  0.33966167636E+01  0.11115667875E+01  0.28768430933E+02  0.96010429384E+02  0.91529270433E+02 0.  0.
         13    1    3    3    0    0 -0.35432754199E+01  0.39760039693E+02  0.38603545132E+02  0.55530715986E+02  0.10566000000E+00 0. -1.
         22    1    1    0    0    0 -0.33966167636E+01 -0.11115667875E+01 -0.28768430933E+02  0.28989570616E+02  0.00000000000E+00 0. -1.
</event>
<event>
 5    1  0.1325686E-009  0.9118800E+02  0.7818608E-02  0.1130116E+00
         25   -1    0    0    0    0  0.00000000000E+00  0.00000000000E+00  0.99999998245E-14  0.12500000000E+03  0.12500000000E+03 0.  0.
        -13    1    3    3    0    0 -0.46310175261E+02  0.38220831233E+02  0.11927627128E+02  0.61218818396E+02  0.10566000000E+00 0.  1.
         23    2    1    0    0    0 -0.25450306678E+02  0.10480453230E+02  0.89629985678E+01  0.96053612432E+02  0.91588225816E+02 0.  0.
         13    1    3    3    0    0  0.20859868583E+02 -0.27740378002E+02 -0.29646285604E+01  0.34834794036E+02  0.10566000000E+00 0. -1.
         22    1    1    0    0    0  0.25450306678E+02 -0.10480453230E+02 -0.89629985678E+01  0.28946387568E+02  0.00000000000E+00 0.  1.
</event>
<event>
 5    1  0.1325686E-009  0.9118800E+02  0.7818608E-02  0.1130116E+00
         25   -1    0    0    0    0  0.00000000000E+00  0.00000000000E+00  0.99999998245E-14  0.12500000000E+03  0.12500000000E+03 0.  0.
        -13    1    3    3    0    0 -0.14416433470E+02  0.28521160502E+02 -0.17081933149E+02  0.36236635530E+02  0.10566000000E+00 0.  1.
         23    2    1    0    0    0  0.11644457193E+02  0.30896652533E+02  0.23463655587E+02  0.84493955333E+02  0.74151795887E+02 0.  0.
         13    1    3    3    0    0  0.26060890664E+02  0.23754920308E+01  0.40545588736E+02  0.48257319803E+02  0.10566000000E+00 0. -1.
         22    1    1    0    0    0 -0.11644457193E+02 -0.30896652533E+02 -0.23463655587E+02  0.40506044667E+02  0.00000000000E+00 0. -1.
</event>
<event>
 5    1  0.1325686E-009  0.9118800E+02  0.7818608E-02  0.1130116E+00
         25   -1    0    0    0    0  0.00000000000E+00  0.00000000000E+00  0.99999998245E-14  0.12500000000E+03  0.12500000000E+03 0.  0.
        -13    1    3    3    0    0 -0.31027856998E+01 -0.58620877647E+01 -0.40100240860E+02  0.40645194466E+02  0.10566000000E+00 0. -1.
         23    2    1    0    0    0 -0.13638542914E+02  0.25581276600E+02  0.39068989603E+01  0.95748069725E+02  0.91170266158E+02 0.  0.
         13    1    3    3    0    0 -0.10535757214E+02  0.31443364365E+02  0.44007139821E+02  0.55102875260E+02  0.10566000000E+00 0.  1.
         22    1    1    0    0    0  0.13638542914E+02 -0.25581276600E+02 -0.39068989603E+01  0.29251930275E+02  0.00000000000E+00 0.  1.
</event>
<event>
 5    1  0.1325686E-009  0.9118800E+02  0.7818608E-02  0.1130116E+00
         25   -1    0    0    0    0  0.00000000000E+00  0.00000000000E+00  0.99999998245E-14  0.12500000000E+03  0.12500000000E+03 0.  0.
        -13    1    3    3    0    0  0.19198956498E+02  0.48078944152E+02 -0.26420103737E+02  0.58122438411E+02  0.10566000000E+00 0. -1.
         23    2    1    0    0    0 -0.60475712839E+01  0.19988749037E+02 -0.19315562730E+02  0.96553310033E+02  0.92267694825E+02 0.  0.
         13    1    3    3    0    0 -0.25246527781E+02 -0.28090195115E+02  0.71045410066E+01  0.38430871621E+02  0.10566000000E+00 0.  1.
         22    1    1    0    0    0  0.60475712839E+01 -0.19988749037E+02  0.19315562730E+02  0.28446689967E+02  0.00000000000E+00 0. -1.
</event>
<event>
 5    1  0.1325686E-009  0.9118800E+02  0.7818608E-02  0.1130116E+00
         25   -1    0    0    0    0  0.00000000000E+00  0.00000000000E+00  0.99999998245E-14  0.12500000000E+03  0.12500000000E+03 0.  0.
        -13    1    3    3    0    0  0.37073331963E+02 -0.24264398330E+02 -0.37220656843E+02  0.57866928630E+02  0.10566000000E+00 0.  1.
         23    2    1    0    0    0  0.58756967706E+01 -0.79288597435E+01 -0.29464475670E+02  0.93926764638E+02  0.88637978088E+02 0.  0.
         13    1    3    3    0    0 -0.31197635192E+02  0.16335538587E+02  0.77561811729E+01  0.36059836008E+02  0.10566000000E+00 0. -1.
         22    1    1    0    0    0 -0.58756967706E+01  0.79288597435E+01  0.29464475670E+02  0.31073235362E+02  0.00000000000E+00 0.  1.
</event>
<event>
 5    1  0.1325686E-009  0.9118800E+02  0.7818608E-02  0.1130116E+00
         25   -1    0    0    0    0  0.00000000000E+00  0.00000000000E+00  0.99999998245E-14  0.12500000000E+03  0.12500000000E+03 0.  0.
        -13    1    3    3    0    0 -0.30918909566E+02 -0.21509532736E+02 -0.29966541606E+02  0.48131525502E+02  0.10566000000E+00 0. -1.
         23    2    1    0    0    0  0.26712867482E+01 -0.24576623366E+02  0.80938930913E+01  0.98987362795E+02  0.95508327903E+02 0.  0.
         13    1    3    3    0    0  0.33590196314E+02 -0.30670906299E+01  0.38060434697E+02  0.50855837293E+02  0.10566000000E+00 0.  1.
         22    1    1    0    0    0 -0.26712867482E+01  0.24576623366E+02 -0.80938930913E+01  0.26012637205E+02  0.00000000000E+00 0.  1.
</event>
<event>
 5    1  0.1325686E-009  0.9118800E+02  0.7818608E-02  0.1130116E+00
         25   -1    0    0    0    0  0.00000000000E+00  0.00000000000E+00  0.99999998245E-14  0.12500000000E+03  0.12500000000E+03 0.  0.
        -13    1    3    3    0    0 -0.34191975451E+02  0.12779776005E+02  0.14694767973E+02  0.39349221464E+02  0.10566000000E+00 0.  1.
         23    2    1    0    0    0  0.32257678366E+01 -0.26108519298E+02 -0.74127668290E+01  0.97668526016E+02  0.93766366593E+02 0.  0.
         13    1    3    3    0    0  0.37417743288E+02 -0.38888295303E+02 -0.22107534802E+02  0.58319304552E+02  0.10566000000E+00 0. -1.
         22    1    1    0    0    0 -0.32257678366E+01  0.26108519298E+02  0.74127668290E+01  0.27331473984E+02  0.00000000000E+00 0. -1.
</event>
<event>
 5    1  0.1325686E-009  0.9118800E+02  0.7818608E-02  0.1130116E+00
         25   -1    0    0    0    0  0.00000000000E+00  0.00000000000E+00  0.99999998245E-14  0.12500000000E+03  0.12500000000E+03 0.  0.
        -13    1    3    3    0    0  0.26017908830E+02 -0.24612264405E+02  0.97145704105E+01  0.37109017520E+02  0.10566000000E+00 0. -1.
         23    2    1    0    0    0 -0.23843804586E+02 -0.97718828750E+01 -0.15508487207E+02  0.94924596636E+02  0.90034155513E+02 0.  0.
         13    1    3    3    0    0 -0.49861713417E+02  0.14840381530E+02 -0.25223057617E+02  0.57815579115E+02  0.10566000000E+00 0.  1.
         22    1    1    0    0    0  0.23843804586E+02  0.97718828750E+01  0.15508487207E+02  0.30075403364E+02  0.00000000000E+00 0.  1.
</event>
<event>
 5    1  0.1325686E-009  0.9118800E+02  0.7818608E-02  0.1130116E+00
         25   -1    0    0    0    0  0.00000000000E+00  0.00000000000E+00  0.99999998245E-14  0.12500000000E+03  0.12500000000E+03 0.  0.
        -13    1    3    3    0    0  0.77507130253E+01 -0.23049258007E+02 -0.46348498636E+02  0.52340580212E+02  0.10566000000E+00 0. -1.
         23    2    1    0    0    0  0.26614636129E+02 -0.99963651806E+01 -0.10925173025E+02  0.94543053687E+02  0.89502868232E+02 0.  0.
         13    1    3    3    0    0  0.18863923104E+02  0.13052892826E+02  0.35423325611E+02  0.42202473475E+02  0.10566000000E+00 0.  1.
         22    1    1    0    0    0 -0.26614636129E+02  0.99963651806E+01  0.10925173025E+02  0.30456946313E+02  0.00000000000E+00 0.  1.
</event>
<event>
 5    1  0.1325686E-009  0.9118800E+02  0.7818608E-02  0.1130116E+00
         25   -1    0    0    0    0  0.00000000000E+00  0.00000000000E+00  0.99999998245E-14  0.12500000000E+03  0.12500000000E+03 0.  0.
        -13    1    3    3    0    0 -0.32998117123E+02  0.23733056096E+02 -0.34146336314E+02  0.53085941011E+02  0.10566000000E+00 0.  1.
         23    2    1    0    0    0 -0.12140682000E+02 -0.12259611330E+02 -0.23174383491E+02  0.96108023958E+02  0.91662456816E+02 0.  0.
         13    1    3    3    0    0  0.20857435122E+02 -0.35992667427E+02  0.10971952823E+02  0.43022082948E+02  0.10566000000E+00 0. -1.
         22    1    1    0    0    0  0.12140682000E+02  0.12259611330E+02  0.23174383491E+02  0.28891976042E+02  0.00000000000E+00 0.  1.
</event>
<event>
 5    1  0.1325686E-009  0.9118800E+02  0.7818608E-02  0.1130116E+00
         25   -1    0    0    0    0  0.00000000000E+00  0.00000000000E+00  0.99999998245E-14  0.12500000000E+03  0.12500000000E+03 0.  0.
        -13    1    3    3    0    0 -0.91883002384E+01 -0.32439472316E+02 -0.85027136392E+01  0.34771418273E+02  0.10566000000E+00 0.  1.
         23    2    1    0    0    0  0.13875164622E+02  0.24632184799E+02 -0.27222179302E+01  0.96597972049E+02  0.92328181030E+02 0.  0.
         13    1    3    3    0    0  0.23063464861E+02  0.57071657115E+02  0.57804957090E+01  0.61826553777E+02  0.10566000000E+00 0. -1.
         22    1    1    0    0    0 -0.13875164622E+02 -0.24632184799E+02  0.27222179302E+01  0.28402027951E+02  0.00000000000E+00 0. -1.
</event>
<event>
 5    1  0.1325686E-009  0.9118800E+02  0.7818608E-02  0.1130116E+00
         25   -1    0    0    0    0  0.00000000000E+00  0.00000000000E+00  0.99999998245E-14  0.12500000000E+03  0.12500000000E+03 0.  0.
        -13    1    3    3    0    0  0.21623758320E+02 -0.40900343817E+02 -0.35861635770E+02  0.58536254855E+02  0.10566000000E+00 0.  1.
         23    2    1    0    0    0  0.20208336953E+02 -0.72427715747E+01 -0.19549277141E+02  0.95965385154E+02  0.91467733593E+02 0.  0.
         13    1    3    3    0    0 -0.14154213673E+01  0.33657572243E+02  0.16312358629E+02  0.37429130300E+02  0.10566000000E+00 0. -1.
         22    1    1    0    0    0 -0.20208336953E+02  0.72427715747E+01  0.19549277141E+02  0.29034614846E+02  0.00000000000E+00 0.  1.
</event>
<event>
 5    1  0.1325686E-009  0.9118800E+02  0.7818608E-02  0.1130116E+00
         25   -1    0    0    0    0  0.00000000000E+00  0.00000000000E+00  0.99999998245E-14  0.12500000000E+03  0.12500000000E+03 0.  0.
        -13    1    3    3    0    0 -0.45094034289E+01 -0.32087212245E+02  0.22964539499E+02  0.39715301175E+02  0.10566000000E+00 0. -1.
         23    2    1    0    0    0  0.15296137119E+02 -0.18200604630E+02 -0.23167323222E+02  0.91804236944E+02  0.85592401742E+02 0.  0.
         13    1    3    3    0    0  0.19805540548E+02  0.13886607615E+02 -0.46131862721E+02  0.52088935769E+02  0.10566000000E+00 0.  1.
         22    1    1    0    0    0 -0.15296137119E+02  0.18200604630E+02  0.23167323222E+02  0.33195763056E+02  0.00000000000E+00 0. -1.
</event>
<event>
 5    1  0.1325686E-009  0.9118800E+02  0.7818608E-02  0.1130116E+00
         25   -1    0    0    0    0  0.00000000000E+00  0.00000000000E+00  0.99999998245E-14  0.12500000000E+03  0.12500000000E+03 0.  0.
        -13    1    3    3    0    0 -0.86369454518E+01 -0.63748435581E+01  0.30954680813E+02  0.32763377198E+02  0.10566000000E+00 0.  1.
         23    2    1    0    0    0  0.41706533271E+01  0.62969944517E+01 -0.28826401779E+02  0.95200538128E+02  0.90416450561E+02 0.  0.
         13    1    3    3    0    0  0.12807598779E+02  0.12671838010E+02 -0.59781082593E+02  0.62437160930E+02  0.10566000000E+00 0. -1.
         22    1    1    0    0    0 -0.41706533271E+01 -0.62969944517E+01  0.28826401779E+02  0.29799461872E+02  0.00000000000E+00 0. -1.
</event>
<event>
 5    1  0.1325686E-009  0.9118800E+02  0.7818608E-02  0.1130116E+00
         25   -1    0    0    0    0  0.00000000000E+00  0.00000000000E+00  0.99999998245E-14  0.12500000000E+03  0.12500000000E+03 0.  0.
        -13    1    3    3    0    0 -0.13580260021E+02 -0.24714883500E+02 -0.22873382276E+02  0.36310490350E+02  0.10566000000E+00 0.  1.
         23    2    1    0    0    0  0.78876096624E+01 -0.14399195757E+02  0.28032882942E+02  0.92513175738E+02  0.86621555830E+02 0.  0.
         13    1    3    3    0    0  0.21467869684E+02  0.10315687743E+02  0.50906265218E+02  0.56202685388E+02  0.10566000000E+00 0. -1.
         22    1    1    0    0    0 -0.78876096624E+01  0.14399195757E+02 -0.28032882942E+02  0.32486824262E+02  0.00000000000E+00 0. -1.
</event>
<event>
 5    1  0.1325686E-009  0.9118800E+02  0.7818608E-02  0.1130116E+00
         25   -1    0    0    0    0  0.00000000000E+00  0.00000000000E+00  0.99999998245E-14  0.12500000000E+03  0.12500000000E+03 0.  0.
        -13    1    3    3    0    0  0.54622773438E+02 -0.95854916494E+01  0.38861829395E+01  0.55593548278E+02  0.10566000000E+00 0.  1.
         23    2    1    0    0    0  0.19865913053E+02 -0.26071512848E+01  0.21865461109E+02  0.95342789599E+02  0.90612898639E+02 0.  0.
         13    1    3    3    0    0 -0.34756860385E+02  0.69783403646E+01  0.17979278170E+02  0.39749241321E+02  0.10566000000E+00 0. -1.
         22    1    1    0    0    0 -0.19865913053E+02  0.26071512848E+01 -0.21865461109E+02  0.29657210401E+02  0.00000000000E+00 0.  1.
</event>
<event>
 5    1  0.1325686E-009  0.9118800E+02  0.7818608E-02  0.1130116E+00
         25   -1    0    0    0    0  0.00000000000E+00  0.00000000000E+00  0.99999998245E-14  0.12500000000E+03  0.12500000000E+03 0.  0.
        -13    1    3    3    0    0  0.48072004993E+02  0.46048016635E+01 -0.63518669884E+01  0.48708102413E+02  0.10566000000E+00 0. -1.
         23    2    1    0    0    0  0.15935515624E+02 -0.26219444085E+02 -0.80810224005E+01  0.93271419361E+02  0.87708921099E+02 0.  0.
         13    1    3    3    0    0 -0.32136489370E+02 -0.30824245748E+02 -0.17291554121E+01  0.44563316948E+02  0.10566000000E+00 0.  1.
         22    1    1    0    0    0 -0.15935515624E+02  0.26219444085E+02  0.80810224005E+01  0.31728580639E+02  0.00000000000E+00 0.  1.
</event>
<event>
 5    1  0.1325686E-009  0.9118800E+02  0.7818608E-02  0.1130116E+00
         25   -1    0    0    0    0  0.00000000000E+00  0.00000000000E+00  0.99999998245E-14  0.12500000000E+03  0.12500000000E+03 0.  0.
        -13    1    3    3    0    0  0.34353038523E+02  0.35532628695E+02  0.37335588628E+02  0.61940748300E+02  0.10566000000E+00 0.  1.
         23    2    1    0    0    0  0.12303763808E+02  0.14014767609E+02  0.21355907589E+02  0.96647379240E+02  0.92395047541E+02 0.  0.
         13    1    3    3    0    0 -0.22049274714E+02 -0.21517861085E+02 -0.15979681039E+02  0.34706630941E+02  0.10566000000E+00 0. -1.
         22    1    1    0    0    0 -0.12303763808E+02 -0.14014767609E+02 -0.21355907589E+02  0.28352620760E+02  0.00000000000E+00 0.  1.
</event>
<event>
 5    1  0.1325686E-009  0.9118800E+02  0.7818608E-02  0.1130116E+00
         25   -1    0    0    0    0  0.00000000000E+00  0.00000000000E+00  0.99999998245E-14  0.12500000000E+03  0.12500000000E+03 0.  0.
        -13    1    3    3    0    0  0.10714465375E+02  0.27528942468E+02  0.54316186654E+02  0.61829618617E+02  0.10566000000E+00 0.  1.
         23    2    1    0    0    0  0.19192599228E+01  0.68483288513E+01  0.26352037297E+02  0.97705073065E+02  0.93815074834E+02 0.  0.
         13    1    3    3    0    0 -0.87952054525E+01 -0.20680613617E+02 -0.27964149357E+02  0.35875454447E+02  0.10566000000E+00 0. -1.
         22    1    1    0    0    0 -0.19192599228E+01 -0.68483288513E+01 -0.26352037297E+02  0.27294926935E+02  0.00000000000E+00 0.  1.
</event>
<event>
 5    1  0.1325686E-009  0.9118800E+02  0.7818608E-02  0.1130116E+00
         25   -1    0    0    0    0  0.00000000000E+00  0.00000000000E+00  0.99999998245E-14  0.12500000000E+03  0.12500000000E+03 0.  0.
        -13    1    3    3    0    0 -0.14061074077E+02  0.19556676889E+02  0.29009355471E+02  0.37705852119E+02  0.10566000000E+00 0.  1.
         23    2    1    0    0    0  0.26283289092E+02  0.96053298454E+01 -0.10564499274E+02  0.95088759774E+02  0.90261785621E+02 0.  0.
         13    1    3    3    0    0  0.40344363170E+02 -0.99513470438E+01 -0.39573854745E+02  0.57382907655E+02  0.10566000000E+00 0. -1.
         22    1    1    0    0    0 -0.26283289092E+02 -0.96053298454E+01  0.10564499274E+02  0.29911240226E+02  0.00000000000E+00 0. -1.
</event>
<event>
 5    1  0.1325686E-009  0.9118800E+02  0.7818608E-02  0.1130116E+00
         25   -1    0    0    0    0  0.00000000000E+00  0.00000000000E+00  0.99999998245E-14  0.12500000000E+03  0.12500000000E+03 0.  0.
        -13    1    3    3    0    0  0.47184830489E+02 -0.18755749914E+02  0.26824017849E+02  0.57425825904E+02  0.10566000000E+00 0.  1.
         23    2    1    0    0    0  0.18092399029E+02  0.26019503922E+01  0.25609038145E+02  0.93536880587E+02  0.88086435658E+02 0.  0.
         13    1    3    3    0    0 -0.29092431460E+02  0.21357700307E+02 -0.12149797044E+01  0.36111054684E+02  0.10566000000E+00 0. -1.
         22    1    1    0    0    0 -0.18092399029E+02 -0.26019503922E+01 -0.25609038145E+02  0.31463119413E+02  0.00000000000E+00 0.  1.
</event>
<event>
 5    1  0.1325686E-009  0.9118800E+02  0.7818608E-02  0.1130116E+00
         25   -1    0    0    0    0  0.00000000000E+00  0.00000000000E+00  0.99999998245E-14  0.12500000000E+03  0.12500000000E+03 0.  0.
        -13    1    3    3    0    0  0.95084706071E+01  0.19531899919E+02  0.96286832247E+01  0.23761919796E+02  0.10566000000E+00 0.  1.
         23    2    1    0    0    0  0.45685422253E+01 -0.37501102432E+02 -0.12604524067E+02  0.85174401591E+02  0.75290108233E+02 0.  0.
         13    1    3    3    0    0 -0.49399283818E+01 -0.57033002351E+02 -0.22233207292E+02  0.61412481794E+02  0.10566000000E+00 0. -1.
         22    1    1    0    0    0 -0.45685422253E+01  0.37501102432E+02  0.12604524067E+02  0.39825598409E+02  0.00000000000E+00 0. -1.
</event>
<event>
 5    1  0.1325686E-009  0.9118800E+02  0.7818608E-02  0.1130116E+00
         25   -1    0    0    0    0  0.00000000000E+00  0.00000000000E+00  0.99999998245E-14  0.12500000000E+03  0.12500000000E+03 0.  0.
        -13    1    3    3    0    0 -0.60105564783E+02 -0.13041964788E+02  0.28528492267E+01  0.61570461069E+02  0.10566000000E+00 0. -1.
         23    2    1    0    0    0 -0.28058683260E+02  0.34581632315E+00 -0.29559169488E+01  0.96783927626E+02  0.92579597679E+02 0.  0.
         13    1    3    3    0    0  0.32046881523E+02  0.13387781111E+02 -0.58087661755E+01  0.35213466557E+02  0.10566000000E+00 0.  1.
         22    1    1    0    0    0  0.28058683260E+02 -0.34581632315E+00  0.29559169488E+01  0.28216072374E+02  0.00000000000E+00 0. -1.
</event>
<event>
 5    1  0.1325686E-009  0.9118800E+02  0.7818608E-02  0.1130116E+00
         25   -1    0    0    0    0  0.00000000000E+00  0.00000000000E+00  0.99999998245E-14  0.12500000000E+03  0.12500000000E+03 0.  0.
        -13    1    3    3    0    0 -0.49053307836E+02 -0.11163432956E+02  0.24333011796E+02  0.55883413211E+02  0.10566000000E+00 0.  1.
         23    2    1    0    0    0 -0.16557976965E+02 -0.15806252722E+02 -0.67953436823E+01  0.10112153853E+03  0.98261816761E+02 0.  0.
         13    1    3    3    0    0  0.32495330871E+02 -0.46428197662E+01 -0.31128355478E+02  0.45238125321E+02  0.10566000000E+00 0. -1.
         22    1    1    0    0    0  0.16557976965E+02  0.15806252722E+02  0.67953436823E+01  0.23878461468E+02  0.00000000000E+00 0.  1.
</event>
<event>
 5    1  0.1325686E-009  0.9118800E+02  0.7818608E-02  0.1130116E+00
         25   -1    0    0    0    0  0.00000000000E+00  0.00000000000E+00  0.99999998245E-14  0.12500000000E+03  0.12500000000E+03 0.  0.
        -13    1    3    3    0    0  0.31469416022E+02  0.37862872309E+02 -0.19164277927E+02  0.52831827119E+02  0.10566000000E+00 0.  1.
         23    2    1    0    0    0  0.26748068752E+02  0.91145844521E+01  0.10914913912E+02  0.94706928558E+02  0.89731444541E+02 0.  0.
         13    1    3    3    0    0 -0.47213472706E+01 -0.28748287857E+02  0.30079191839E+02  0.41875101439E+02  0.10566000000E+00 0. -1.
         22    1    1    0    0    0 -0.26748068752E+02 -0.91145844521E+01 -0.10914913912E+02  0.30293071442E+02  0.00000000000E+00 0.  1.
</event>
<event>
 5    1  0.1325686E-009  0.9118800E+02  0.7818608E-02  0.1130116E+00
         25   -1    0    0    0    0  0.00000000000E+00  0.00000000000E+00  0.99999998245E-14  0.12500000000E+03  0.12500000000E+03 0.  0.
        -13    1    3    3    0    0 -0.34137900481E+02 -0.47854896080E+02 -0.15364340904E+02  0.60758221366E+02  0.10566000000E+00 0. -1.
         23    2    1    0    0    0 -0.20924612047E+02 -0.17787435224E+02  0.11364097845E+01  0.97513209202E+02  0.93559084543E+02 0.  0.
         13    1    3    3    0    0  0.13213288434E+02  0.30067460856E+02  0.16500750688E+02  0.36754987836E+02  0.10566000000E+00 0.  1.
         22    1    1    0    0    0  0.20924612047E+02  0.17787435224E+02 -0.11364097845E+01  0.27486790798E+02  0.00000000000E+00 0. -1.
</event>
<event>
 5    1  0.1325686E-009  0.9118800E+02  0.7818608E-02  0.1130116E+00
         25   -1    0    0    0    0  0.00000000000E+00  0.00000000000E+00  0.99999998245E-14  0.12500000000E+03  0.12500000000E+03 0.  0.
        -13    1    3    3    0    0  0.61570284821E+01 -0.21071670883E+02 -0.39172274976E+02  0.44904371773E+02  0.10566000000E+00 0.  1.
         23    2    1    0    0    0  0.19931518322E+02  0.18746480581E+02 -0.19474736668E+02  0.91414864522E+02  0.85021856781E+02 0.  0.
         13    1    3    3    0    0  0.13774489840E+02  0.39818151463E+02  0.19697538308E+02  0.46510492749E+02  0.10566000000E+00 0. -1.
         22    1    1    0    0    0 -0.19931518322E+02 -0.18746480581E+02  0.19474736668E+02  0.33585135478E+02  0.00000000000E+00 0. -1.
</event>
<event>
 5    1  0.1325686E-009  0.9118800E+02  0.7818608E-02  0.1130116E+00
         25   -1    0    0    0    0  0.00000000000E+00  0.00000000000E+00  0.99999998245E-14  0.12500000000E+03  0.12500000000E+03 0.  0.
        -13    1    3    3    0    0 -0.11070078190E+02  0.15595654875E+02  0.27553673533E+02  0.33540828423E+02  0.10566000000E+00 0. -1.
         23    2    1    0    0    0  0.31870898253E+02 -0.13901927685E+02  0.15018819662E+02  0.87124114626E+02  0.78460363602E+02 0.  0.
         13    1    3    3    0    0  0.42940976443E+02 -0.29497582560E+02 -0.12534853871E+02  0.53583286203E+02  0.10566000000E+00 0.  1.
         22    1    1    0    0    0 -0.31870898253E+02  0.13901927685E+02 -0.15018819662E+02  0.37875885374E+02  0.00000000000E+00 0.  1.
</event>
<event>
 5    1  0.1325686E-009  0.9118800E+02  0.7818608E-02  0.1130116E+00
         25   -1    0    0    0    0  0.00000000000E+00  0.00000000000E+00  0.99999998245E-14  0.12500000000E+03  0.12500000000E+03 0.  0.
        -13    1    3    3    0    0 -0.20422780767E+02  0.14588793393E+02 -0.26943057502E+02  0.36822036588E+02  0.10566000000E+00 0. -1.
         23    2    1    0    0    0 -0.76229347239E+01  0.82540743935E+01  0.28652794916E+02  0.94223035653E+02  0.89054808479E+02 0.  0.
         13    1    3    3    0    0  0.12799846043E+02 -0.63347189996E+01  0.55595852418E+02  0.57400999065E+02  0.10566000000E+00 0.  1.
         22    1    1    0    0    0  0.76229347239E+01 -0.82540743935E+01 -0.28652794916E+02  0.30776964347E+02  0.00000000000E+00 0.  1.
</event>
<event>
 5    1  0.1325686E-009  0.9118800E+02  0.7818608E-02  0.1130116E+00
         25   -1    0    0    0    0  0.00000000000E+00  0.00000000000E+00  0.99999998245E-14  0.12500000000E+03  0.12500000000E+03 0.  0.
        -13    1    3    3    0    0  0.18619137109E+02  0.24714339656E+02  0.28613805605E+02  0.42145366133E+02  0.10566000000E+00 0.  1.
         23    2    1    0    0    0  0.66299530351E+01 -0.24643127857E+02  0.17260195327E+02  0.94191650961E+02  0.89010745083E+02 0.  0.
         13    1    3    3    0    0 -0.11989184073E+02 -0.49357467512E+02 -0.11353610278E+02  0.52046284828E+02  0.10566000000E+00 0. -1.
         22    1    1    0    0    0 -0.66299530351E+01  0.24643127857E+02 -0.17260195327E+02  0.30808349039E+02  0.00000000000E+00 0. -1.
</event>
<event>
 5    1  0.1325686E-009  0.9118800E+02  0.7818608E-02  0.1130116E+00
         25   -1    0    0    0    0  0.00000000000E+00  0.00000000000E+00  0.99999998245E-14  0.12500000000E+03  0.12500000000E+03 0.  0.
        -13    1    3    3    0    0 -0.13923240468E+02 -0.19382352022E+02 -0.22719672484E+02  0.32950369905E+02  0.10566000000E+00 0. -1.
         23    2    1    0    0    0  0.15228681734E+02  0.13075624192E+02  0.21857734615E+02  0.95324332226E+02  0.90587433215E+02 0.  0.
         13    1    3    3    0    0  0.29151922202E+02  0.32457976213E+02  0.44577407099E+02  0.62373962321E+02  0.10566000000E+00 0.  1.
         22    1    1    0    0    0 -0.15228681734E+02 -0.13075624192E+02 -0.21857734615E+02  0.29675667774E+02  0.00000000000E+00 0.  1.
</event>
<event>
 5    1  0.1325686E-009  0.9118800E+02  0.7818608E-02  0.1130116E+00
         25   -1    0    0    0    0  0.00000000000E+00  0.00000000000E+00  0.99999998245E-14  0.12500000000E+03  0.12500000000E+03 0.  0.
        -13    1    3    3    0    0  0.10639497979E+01 -0.42388446638E+02 -0.42980467877E+02  0.60375857597E+02  0.10566000000E+00 0. -1.
         23    2    1    0    0    0 -0.61434472430E+01 -0.13442343458E+02 -0.27006669575E+02  0.94213659795E+02  0.89041647272E+02 0.  0.
         13    1    3    3    0    0 -0.72073970408E+01  0.28946103180E+02  0.15973798302E+02  0.33837802199E+02  0.10566000000E+00 0.  1.
         22    1    1    0    0    0  0.61434472430E+01  0.13442343458E+02  0.27006669575E+02  0.30786340205E+02  0.00000000000E+00 0. -1.
</event>
<event>
 5    1  0.1325686E-009  0.9118800E+02  0.7818608E-02  0.1130116E+00
         25   -1    0    0    0    0  0.00000000000E+00  0.00000000000E+00  0.99999998245E-14  0.12500000000E+03  0.12500000000E+03 0.  0.
        -13    1    3    3    0    0  0.27498021413E+02  0.10224542613E+02 -0.75383391758E+01  0.30290595485E+02  0.10566000000E+00 0. -1.
         23    2    1    0    0    0 -0.17062703288E+02 -0.28383002744E+02  0.72989553292E+01  0.91088269918E+02  0.84540330491E+02 0.  0.
         13    1    3    3    0    0 -0.44560724700E+02 -0.38607545357E+02  0.14837294505E+02  0.60797674434E+02  0.10566000000E+00 0.  1.
         22    1    1    0    0    0  0.17062703288E+02  0.28383002744E+02 -0.72989553292E+01  0.33911730082E+02  0.00000000000E+00 0.  1.
</event>
<event>
 5    1  0.1325686E-009  0.9118800E+02  0.7818608E-02  0.1130116E+00
         25   -1    0    0    0    0  0.00000000000E+00  0.00000000000E+00  0.99999998245E-14  0.12500000000E+03  0.12500000000E+03 0.  0.
        -13    1    3    3    0    0 -0.92043928905E+01  0.40185101294E+02  0.37206041070E+02  0.55532547849E+02  0.10566000000E+00 0.  1.
         23    2    1    0    0    0 -0.21894212911E+02  0.74983310611E+01  0.19090609041E+02  0.94999451985E+02  0.90138021923E+02 0.  0.
         13    1    3    3    0    0 -0.12689820020E+02 -0.32686770233E+02 -0.18115432029E+02  0.39466904135E+02  0.10566000000E+00 0. -1.
         22    1    1    0    0    0  0.21894212911E+02 -0.74983310611E+01 -0.19090609041E+02  0.30000548015E+02  0.00000000000E+00 0. -1.
</event>
<event>
 5    1  0.1325686E-009  0.9118800E+02  0.7818608E-02  0.1130116E+00
         25   -1    0    0    0    0  0.00000000000E+00  0.00000000000E+00  0.99999998245E-14  0.12500000000E+03  0.12500000000E+03 0.  0.
        -13    1    3    3    0    0  0.26047697710E+02 -0.34711224510E+01  0.23463772500E+02  0.35229121917E+02  0.10566000000E+00 0.  1.
         23    2    1    0    0    0 -0.29568085367E+02  0.18352368360E+01  0.12595953826E+01  0.95348248837E+02  0.90620429315E+02 0.  0.
         13    1    3    3    0    0 -0.55615783077E+02  0.53063592870E+01 -0.22204177118E+02  0.60119126920E+02  0.10566000000E+00 0. -1.
         22    1    1    0    0    0  0.29568085367E+02 -0.18352368360E+01 -0.12595953826E+01  0.29651751163E+02  0.00000000000E+00 0. -1.
</event>
<event>
 5    1  0.1325686E-009  0.9118800E+02  0.7818608E-02  0.1130116E+00
         25   -1    0    0    0    0  0.00000000000E+00  0.00000000000E+00  0.99999998245E-14  0.12500000000E+03  0.12500000000E+03 0.  0.
        -13    1    3    3    0    0  0.40508546312E+02  0.32053720320E+02 -0.18155838612E+02  0.54754259655E+02  0.10566000000E+00 0. -1.
         23    2    1    0    0    0  0.66924242958E+01  0.28382365367E+02  0.43155389778E+01  0.95521684521E+02  0.90859348063E+02 0.  0.
         13    1    3    3    0    0 -0.33816122016E+02 -0.36713549528E+01  0.22471377590E+02  0.40767424866E+02  0.10566000000E+00 0.  1.
         22    1    1    0    0    0 -0.66924242958E+01 -0.28382365367E+02 -0.43155389778E+01  0.29478315479E+02  0.00000000000E+00 0. -1.
</event>
<event>
 5    1  0.1325686E-009  0.9118800E+02  0.7818608E-02  0.1130116E+00
         25   -1    0    0    0    0  0.00000000000E+00  0.00000000000E+00  0.99999998245E-14  0.12500000000E+03  0.12500000000E+03 0.  0.
        -13    1    3    3    0    0  0.16160841836E+02 -0.45018119997E+02  0.44808024945E+01  0.48040531761E+02  0.10566000000E+00 0. -1.
         23    2    1    0    0    0  0.48732176161E+01 -0.42328182036E+01  0.27869816280E+02  0.96392454503E+02  0.92049517248E+02 0.  0.
         13    1    3    3    0    0 -0.11287624219E+02  0.40785301793E+02  0.23389013786E+02  0.48351922741E+02  0.10566000000E+00 0.  1.
         22    1    1    0    0    0 -0.48732176161E+01  0.42328182036E+01 -0.27869816280E+02  0.28607545497E+02  0.00000000000E+00 0.  1.
</event>
<event>
 5    1  0.1325686E-009  0.9118800E+02  0.7818608E-02  0.1130116E+00
         25   -1    0    0    0    0  0.00000000000E+00  0.00000000000E+00  0.99999998245E-14  0.12500000000E+03  0.12500000000E+03 0.  0.
        -13    1    3    3    0    0  0.20160836626E+02  0.68986999126E+01 -0.46436667131E+02  0.51092334182E+02  0.10566000000E+00 0. -1.
         23    2    1    0    0    0  0.92130739715E+01  0.25086532818E+02 -0.47733974307E+01  0.97852252693E+02  0.94010973685E+02 0.  0.
         13    1    3    3    0    0 -0.10947762654E+02  0.18187832905E+02  0.41663269700E+02  0.46759918510E+02  0.10566000000E+00 0.  1.
         22    1    1    0    0    0 -0.92130739715E+01 -0.25086532818E+02  0.47733974307E+01  0.27147747307E+02  0.00000000000E+00 0. -1.
</event>
<event>
 5    1  0.1325686E-009  0.9118800E+02  0.7818608E-02  0.1130116E+00
         25   -1    0    0    0    0  0.00000000000E+00  0.00000000000E+00  0.99999998245E-14  0.12500000000E+03  0.12500000000E+03 0.  0.
        -13    1    3    3    0    0 -0.14197566217E+02  0.35700508948E+02 -0.68616205937E+01  0.39028069730E+02  0.10566000000E+00 0.  1.
         23    2    1    0    0    0  0.17621385681E+02 -0.23730488641E+01  0.22220189693E+02  0.96541584298E+02  0.92251807974E+02 0.  0.
         13    1    3    3    0    0  0.31818951898E+02 -0.38073557812E+02  0.29081810287E+02  0.57513514568E+02  0.10566000000E+00 0. -1.
         22    1    1    0    0    0 -0.17621385681E+02  0.23730488641E+01 -0.22220189693E+02  0.28458415702E+02  0.00000000000E+00 0. -1.
</event>
<event>
 5    1  0.1325686E-009  0.9118800E+02  0.7818608E-02  0.1130116E+00
         25   -1    0    0    0    0  0.00000000000E+00  0.00000000000E+00  0.99999998245E-14  0.12500000000E+03  0.12500000000E+03 0.  0.
        -13    1    3    3    0    0 -0.12258678904E+02  0.32119501488E+02 -0.19299242391E+02  0.39426000370E+02  0.10566000000E+00 0.  1.
         23    2    1    0    0    0 -0.14069985899E+02 -0.48964732780E+01  0.24206267419E+02  0.96576711378E+02  0.92299392438E+02 0.  0.
         13    1    3    3    0    0 -0.18113069947E+01 -0.37015974766E+02  0.43505509809E+02  0.57150711008E+02  0.10566000000E+00 0. -1.
         22    1    1    0    0    0  0.14069985899E+02  0.48964732780E+01 -0.24206267419E+02  0.28423288622E+02  0.00000000000E+00 0. -1.
</event>
<event>
 5    1  0.1325686E-009  0.9118800E+02  0.7818608E-02  0.1130116E+00
         25   -1    0    0    0    0  0.00000000000E+00  0.00000000000E+00  0.99999998245E-14  0.12500000000E+03  0.12500000000E+03 0.  0.
        -13    1    3    3    0    0 -0.17484097811E+02  0.26993031334E+02 -0.34284303822E+02  0.47007893693E+02  0.10566000000E+00 0.  1.
         23    2    1    0    0    0 -0.28826766525E+02 -0.13622108650E+00  0.46516434469E+01  0.95800020356E+02  0.91241465841E+02 0.  0.
         13    1    3    3    0    0 -0.11342668714E+02 -0.27129252420E+02  0.38935947269E+02  0.48792126662E+02  0.10566000000E+00 0. -1.
         22    1    1    0    0    0  0.28826766525E+02  0.13622108650E+00 -0.46516434469E+01  0.29199979644E+02  0.00000000000E+00 0.  1.
</event>
<event>
 5    1  0.1325686E-009  0.9118800E+02  0.7818608E-02  0.1130116E+00
         25   -1    0    0    0    0  0.00000000000E+00  0.00000000000E+00  0.99999998245E-14  0.12500000000E+03  0.12500000000E+03 0.  0.
        -13    1    3    3    0    0 -0.43846859400E+02 -0.29813065817E+02 -0.30176362831E+00  0.53023279774E+02  0.10566000000E+00 0. -1.
         23    2    1    0    0    0  0.89682419118E+00  0.51594627779E+01 -0.12798251892E+02  0.11117178243E+03  0.11030841131E+03 0.  0.
         13    1    3    3    0    0  0.44743683591E+02  0.34972528595E+02 -0.12496488264E+02  0.58148502652E+02  0.10566000000E+00 0.  1.
         22    1    1    0    0    0 -0.89682419118E+00 -0.51594627779E+01  0.12798251892E+02  0.13828217575E+02  0.00000000000E+00 0.  1.
</event>
<event>
 5    1  0.1325686E-009  0.9118800E+02  0.7818608E-02  0.1130116E+00
         25   -1    0    0    0    0  0.00000000000E+00  0.00000000000E+00  0.99999998245E-14  0.12500000000E+03  0.12500000000E+03 0.  0.
        -13    1    3    3    0    0  0.26690829436E+02  0.45318648620E+02  0.33044144312E+02  0.62113661348E+02  0.10566000000E+00 0.  1.
         23    2    1    0    0    0  0.15718893932E+02  0.22403804816E+02  0.11945328573E+02  0.95138570507E+02  0.90330740209E+02 0.  0.
         13    1    3    3    0    0 -0.10971935504E+02 -0.22914843804E+02 -0.21098815739E+02  0.33024909158E+02  0.10566000000E+00 0. -1.
         22    1    1    0    0    0 -0.15718893932E+02 -0.22403804816E+02 -0.11945328573E+02  0.29861429493E+02  0.00000000000E+00 0.  1.
</event>
<event>
 5    1  0.1325686E-009  0.9118800E+02  0.7818608E-02  0.1130116E+00
         25   -1    0    0    0    0  0.00000000000E+00  0.00000000000E+00  0.99999998245E-14  0.12500000000E+03  0.12500000000E+03 0.  0.
        -13    1    3    3    0    0 -0.21667724794E+02 -0.12381994697E+02 -0.54401099835E+02  0.59852275794E+02  0.10566000000E+00 0. -1.
         23    2    1    0    0    0 -0.18994156012E+01  0.37213264013E+01 -0.28492055330E+02  0.96203242080E+02  0.91792213831E+02 0.  0.
         13    1    3    3    0    0  0.19768309192E+02  0.16103321098E+02  0.25909044505E+02  0.36350966286E+02  0.10566000000E+00 0.  1.
         22    1    1    0    0    0  0.18994156012E+01 -0.37213264013E+01  0.28492055330E+02  0.28796757920E+02  0.00000000000E+00 0. -1.
</event>
<event>
 5    1  0.1325686E-009  0.9118800E+02  0.7818608E-02  0.1130116E+00
         25   -1    0    0    0    0  0.00000000000E+00  0.00000000000E+00  0.99999998245E-14  0.12500000000E+03  0.12500000000E+03 0.  0.
        -13    1    3    3    0    0  0.76564364980E+01  0.36087668099E+02  0.38972953570E+02  0.53664169449E+02  0.10566000000E+00 0.  1.
         23    2    1    0    0    0 -0.17803793288E+02  0.21104452346E+02  0.84908352542E+01  0.96112853246E+02  0.91669042275E+02 0.  0.
         13    1    3    3    0    0 -0.25460229786E+02 -0.14983215753E+02 -0.30482118316E+02  0.42448683797E+02  0.10566000000E+00 0. -1.
         22    1    1    0    0    0  0.17803793288E+02 -0.21104452346E+02 -0.84908352542E+01  0.28887146754E+02  0.00000000000E+00 0.  1.
</event>
<event>
 5    1  0.1325686E-009  0.9118800E+02  0.7818608E-02  0.1130116E+00
         25   -1    0    0    0    0  0.00000000000E+00  0.00000000000E+00  0.99999998245E-14  0.12500000000E+03  0.12500000000E+03 0.  0.
        -13    1    3    3    0    0 -0.25316646525E+01 -0.59412117889E+02  0.87713518489E+01  0.60109540468E+02  0.10566000000E+00 0.  1.
         23    2    1    0    0    0 -0.76505921729E+01 -0.27706729967E+02 -0.62810570019E+01  0.95578135289E+02  0.90936977199E+02 0.  0.
         13    1    3    3    0    0 -0.51189275204E+01  0.31705387923E+02 -0.15052408851E+02  0.35468594820E+02  0.10566000000E+00 0. -1.
         22    1    1    0    0    0  0.76505921729E+01  0.27706729967E+02  0.62810570019E+01  0.29421864711E+02  0.00000000000E+00 0.  1.
</event>
<event>
 5    1  0.1325686E-009  0.9118800E+02  0.7818608E-02  0.1130116E+00
         25   -1    0    0    0    0  0.00000000000E+00  0.00000000000E+00  0.99999998245E-14  0.12500000000E+03  0.12500000000E+03 0.  0.
        -13    1    3    3    0    0 -0.13607703701E+02  0.24609766862E+02 -0.41850918341E+02  0.50421431505E+02  0.10566000000E+00 0. -1.
         23    2    1    0    0    0 -0.19069527633E+02  0.20527848827E+02  0.39297332692E+01  0.96707204712E+02  0.92475949187E+02 0.  0.
         13    1    3    3    0    0 -0.54618239317E+01 -0.40819180344E+01  0.45780651610E+02  0.46285773207E+02  0.10566000000E+00 0.  1.
         22    1    1    0    0    0  0.19069527633E+02 -0.20527848827E+02 -0.39297332692E+01  0.28292795288E+02  0.00000000000E+00 0. -1.
</event>
<event>
 5    1  0.1325686E-009  0.9118800E+02  0.7818608E-02  0.1130116E+00
         25   -1    0    0    0    0  0.00000000000E+00  0.00000000000E+00  0.99999998245E-14  0.12500000000E+03  0.12500000000E+03 0.  0.
        -13    1    3    3    0    0 -0.70674221169E+01  0.14306377102E+02 -0.60400287696E+02  0.62472608389E+02  0.10566000000E+00 0.  1.
         23    2    1    0    0    0 -0.24897619514E+01  0.75276947134E+01 -0.27012233104E+02  0.96848164544E+02  0.92666289102E+02 0.  0.
         13    1    3    3    0    0  0.45776601655E+01 -0.67786823885E+01  0.33388054591E+02  0.34375556155E+02  0.10566000000E+00 0. -1.
         22    1    1    0    0    0  0.24897619514E+01 -0.75276947134E+01  0.27012233104E+02  0.28151835456E+02  0.00000000000E+00 0.  1.
</event>
<event>
 5    1  0.1325686E-009  0.9118800E+02  0.7818608E-02  0.1130116E+00
         25   -1    0    0    0    0  0.00000000000E+00  0.00000000000E+00  0.99999998245E-14  0.12500000000E+03  0.12500000000E+03 0.  0.
        -13    1    3    3    0    0 -0.30068287382E+02  0.30924095541E+02  0.21907383598E+01  0.43188101251E+02  0.10566000000E+00 0.  1.
         23    2    1    0    0    0  0.21633630229E+02  0.18630269965E+02 -0.10535665563E+01  0.96430594715E+02  0.92101295750E+02 0.  0.
         13    1    3    3    0    0  0.51701917610E+02 -0.12293825576E+02 -0.32443049161E+01  0.53242493464E+02  0.10566000000E+00 0. -1.
         22    1    1    0    0    0 -0.21633630229E+02 -0.18630269965E+02  0.10535665563E+01  0.28569405285E+02  0.00000000000E+00 0. -1.
</event>
<event>
 5    1  0.1325686E-009  0.9118800E+02  0.7818608E-02  0.1130116E+00
         25   -1    0    0    0    0  0.00000000000E+00  0.00000000000E+00  0.99999998245E-14  0.12500000000E+03  0.12500000000E+03 0.  0.
        -13    1    3    3    0    0  0.26939736110E+01  0.40862203683E+02 -0.16755975727E+02  0.44246480880E+02  0.10566000000E+00 0.  1.
         23    2    1    0    0    0  0.16582417432E+02  0.10156547810E+02  0.22021459245E+02  0.95621832960E+02  0.90997023249E+02 0.  0.
         13    1    3    3    0    0  0.13888443821E+02 -0.30705655872E+02  0.38777434973E+02  0.51375352081E+02  0.10566000000E+00 0. -1.
         22    1    1    0    0    0 -0.16582417432E+02 -0.10156547810E+02 -0.22021459245E+02  0.29378167040E+02  0.00000000000E+00 0.  1.
</event>
<event>
 5    1  0.1325686E-009  0.9118800E+02  0.7818608E-02  0.1130116E+00
         25   -1    0    0    0    0  0.00000000000E+00  0.00000000000E+00  0.99999998245E-14  0.12500000000E+03  0.12500000000E+03 0.  0.
        -13    1    3    3    0    0 -0.94683209516E+01  0.53469464211E+02 -0.22714249421E+02  0.58860691428E+02  0.10566000000E+00 0. -1.
         23    2    1    0    0    0 -0.18047692004E+02  0.19858847264E+02 -0.54107241298E+01  0.97625396132E+02  0.93708852479E+02 0.  0.
         13    1    3    3    0    0 -0.85793710528E+01 -0.33610616947E+02  0.17303525291E+02  0.38764704704E+02  0.10566000000E+00 0.  1.
         22    1    1    0    0    0  0.18047692004E+02 -0.19858847264E+02  0.54107241298E+01  0.27374603868E+02  0.00000000000E+00 0.  1.
</event>
<event>
 5    1  0.1325686E-009  0.9118800E+02  0.7818608E-02  0.1130116E+00
         25   -1    0    0    0    0  0.00000000000E+00  0.00000000000E+00  0.99999998245E-14  0.12500000000E+03  0.12500000000E+03 0.  0.
        -13    1    3    3    0    0 -0.23765749828E+02 -0.29635174905E+02 -0.18260496877E+02  0.42148681673E+02  0.10566000000E+00 0.  1.
         23    2    1    0    0    0 -0.77525120748E+01  0.17882365365E+01  0.25462699228E+02  0.98323263217E+02  0.94635172131E+02 0.  0.
         13    1    3    3    0    0  0.16013237753E+02  0.31423411442E+02  0.43723196105E+02  0.56174581544E+02  0.10566000000E+00 0. -1.
         22    1    1    0    0    0  0.77525120748E+01 -0.17882365365E+01 -0.25462699228E+02  0.26676736783E+02  0.00000000000E+00 0. -1.
</event>
<event>
 5    1  0.1325686E-009  0.9118800E+02  0.7818608E-02  0.1130116E+00
         25   -1    0    0    0    0  0.00000000000E+00  0.00000000000E+00  0.99999998245E-14  0.12500000000E+03  0.12500000000E+03 0.  0.
        -13    1    3    3    0    0 -0.48941867079E+02 -0.59319046590E+01 -0.16717837092E+02  0.52057574734E+02  0.10566000000E+00 0.  1.
         23    2    1    0    0    0 -0.86590015395E+01  0.10038622279E+02 -0.25488825949E+02  0.96269659013E+02  0.91882613988E+02 0.  0.
         13    1    3    3    0    0  0.40282865540E+02  0.15970526938E+02 -0.87709888574E+01  0.44212084280E+02  0.10566000000E+00 0. -1.
         22    1    1    0    0    0  0.86590015395E+01 -0.10038622279E+02  0.25488825949E+02  0.28730340987E+02  0.00000000000E+00 0. -1.
</event>
<event>
 5    1  0.1325686E-009  0.9118800E+02  0.7818608E-02  0.1130116E+00
         25   -1    0    0    0    0  0.00000000000E+00  0.00000000000E+00  0.99999998245E-14  0.12500000000E+03  0.12500000000E+03 0.  0.
        -13    1    3    3    0    0  0.87487434372E+01 -0.37958724802E+02 -0.98378952809E+01  0.40177115973E+02  0.10566000000E+00 0.  1.
         23    2    1    0    0    0 -0.19554517039E+02  0.84832410667E+01 -0.20304021299E+02  0.95561966837E+02  0.90914749679E+02 0.  0.
         13    1    3    3    0    0 -0.28303260476E+02  0.46441965869E+02 -0.10466126018E+02  0.55384850864E+02  0.10566000000E+00 0. -1.
         22    1    1    0    0    0  0.19554517039E+02 -0.84832410667E+01  0.20304021299E+02  0.29438033163E+02  0.00000000000E+00 0. -1.
</event>
<event>
 5    1  0.1325686E-009  0.9118800E+02  0.7818608E-02  0.1130116E+00
         25   -1    0    0    0    0  0.00000000000E+00  0.00000000000E+00  0.99999998245E-14  0.12500000000E+03  0.12500000000E+03 0.  0.
        -13    1    3    3    0    0 -0.67828883497E+01  0.87270721606E+01 -0.38726904308E+02  0.40273485622E+02  0.10566000000E+00 0. -1.
         23    2    1    0    0    0 -0.18075920898E+02 -0.23380724335E+02  0.43007259300E+01  0.95135415117E+02  0.90326373663E+02 0.  0.
         13    1    3    3    0    0 -0.11293032548E+02 -0.32107796496E+02  0.43027630238E+02  0.54861929494E+02  0.10566000000E+00 0.  1.
         22    1    1    0    0    0  0.18075920898E+02  0.23380724335E+02 -0.43007259300E+01  0.29864584883E+02  0.00000000000E+00 0.  1.
</event>
<event>
 5    1  0.1325686E-009  0.9118800E+02  0.7818608E-02  0.1130116E+00
         25   -1    0    0    0    0  0.00000000000E+00  0.00000000000E+00  0.99999998245E-14  0.12500000000E+03  0.12500000000E+03 0.  0.
        -13    1    3    3    0    0 -0.53787776436E+01  0.41595588178E+02  0.37437722712E+02  0.56220267259E+02  0.10566000000E+00 0. -1.
         23    2    1    0    0    0 -0.70043627490E+01  0.28281713518E+02  0.13255968527E+00  0.95863528198E+02  0.91328429579E+02 0.  0.
         13    1    3    3    0    0 -0.16255851054E+01 -0.13313874660E+02 -0.37305163026E+02  0.39643260939E+02  0.10566000000E+00 0.  1.
         22    1    1    0    0    0  0.70043627490E+01 -0.28281713518E+02 -0.13255968527E+00  0.29136471802E+02  0.00000000000E+00 0. -1.
</event>
<event>
 5    1  0.1325686E-009  0.9118800E+02  0.7818608E-02  0.1130116E+00
         25   -1    0    0    0    0  0.00000000000E+00  0.00000000000E+00  0.99999998245E-14  0.12500000000E+03  0.12500000000E+03 0.  0.
        -13    1    3    3    0    0 -0.12489243315E+02  0.52070005056E+02 -0.17295587986E+02  0.56270908584E+02  0.10566000000E+00 0.  1.
         23    2    1    0    0    0 -0.22485830505E+02  0.18433454328E+02  0.11244094442E+01  0.95902420916E+02  0.91381646018E+02 0.  0.
         13    1    3    3    0    0 -0.99965871905E+01 -0.33636550728E+02  0.18419997430E+02  0.39631512332E+02  0.10566000000E+00 0. -1.
         22    1    1    0    0    0  0.22485830505E+02 -0.18433454328E+02 -0.11244094442E+01  0.29097579084E+02  0.00000000000E+00 0.  1.
</event>
<event>
 5    1  0.1325686E-009  0.9118800E+02  0.7818608E-02  0.1130116E+00
         25   -1    0    0    0    0  0.00000000000E+00  0.00000000000E+00  0.99999998245E-14  0.12500000000E+03  0.12500000000E+03 0.  0.
        -13    1    3    3    0    0 -0.47845546272E+02 -0.36788190028E+02 -0.15565275125E+02  0.62328614435E+02  0.10566000000E+00 0.  1.
         23    2    1    0    0    0 -0.20419328480E+02 -0.19157364343E+02 -0.90214817341E+01  0.95583325871E+02  0.90944111781E+02 0.  0.
         13    1    3    3    0    0  0.27426217792E+02  0.17630825685E+02  0.65437933910E+01  0.33254711436E+02  0.10566000000E+00 0. -1.
         22    1    1    0    0    0  0.20419328480E+02  0.19157364343E+02  0.90214817341E+01  0.29416674129E+02  0.00000000000E+00 0.  1.
</event>
<event>
 5    1  0.1325686E-009  0.9118800E+02  0.7818608E-02  0.1130116E+00
         25   -1    0    0    0    0  0.00000000000E+00  0.00000000000E+00  0.99999998245E-14  0.12500000000E+03  0.12500000000E+03 0.  0.
        -13    1    3    3    0    0 -0.46677075740E+02  0.19793901967E+01  0.39007184592E+02  0.60862459686E+02  0.10566000000E+00 0.  1.
         23    2    1    0    0    0 -0.18687277520E+02  0.10341860797E+02  0.20179686213E+02  0.95616532513E+02  0.90989741885E+02 0.  0.
         13    1    3    3    0    0  0.27989798219E+02  0.83624706001E+01 -0.18827498379E+02  0.34754072828E+02  0.10566000000E+00 0. -1.
         22    1    1    0    0    0  0.18687277520E+02 -0.10341860797E+02 -0.20179686213E+02  0.29383467487E+02  0.00000000000E+00 0.  1.
</event>
<event>
 5    1  0.1325686E-009  0.9118800E+02  0.7818608E-02  0.1130116E+00
         25   -1    0    0    0    0  0.00000000000E+00  0.00000000000E+00  0.99999998245E-14  0.12500000000E+03  0.12500000000E+03 0.  0.
        -13    1    3    3    0    0  0.13017175463E+02 -0.25124616658E+02 -0.27074951964E+02  0.39163214975E+02  0.10566000000E+00 0. -1.
         23    2    1    0    0    0  0.49236919884E+01  0.27361502958E+02 -0.46387807003E+01  0.96814669182E+02  0.92621095305E+02 0.  0.
         13    1    3    3    0    0 -0.80934834750E+01  0.52486119617E+02  0.22436171264E+02  0.57651454207E+02  0.10566000000E+00 0.  1.
         22    1    1    0    0    0 -0.49236919884E+01 -0.27361502958E+02  0.46387807003E+01  0.28185330818E+02  0.00000000000E+00 0.  1.
</event>
<event>
 5    1  0.1325686E-009  0.9118800E+02  0.7818608E-02  0.1130116E+00
         25   -1    0    0    0    0  0.00000000000E+00  0.00000000000E+00  0.99999998245E-14  0.12500000000E+03  0.12500000000E+03 0.  0.
        -13    1    3    3    0    0 -0.25483266252E+02 -0.50773035429E+02  0.15874750663E+02  0.58985734362E+02  0.10566000000E+00 0.  1.
         23    2    1    0    0    0  0.46929411820E+00 -0.24878097187E+02  0.15567473982E+02  0.95648914793E+02  0.91034217184E+02 0.  0.
         13    1    3    3    0    0  0.25952560370E+02  0.25894938242E+02 -0.30727668072E+00  0.36663180431E+02  0.10566000000E+00 0. -1.
         22    1    1    0    0    0 -0.46929411820E+00  0.24878097187E+02 -0.15567473982E+02  0.29351085207E+02  0.00000000000E+00 0.  1.
</event>
<event>
 5    1  0.1325686E-009  0.9118800E+02  0.7818608E-02  0.1130116E+00
         25   -1    0    0    0    0  0.00000000000E+00  0.00000000000E+00  0.99999998245E-14  0.12500000000E+03  0.12500000000E+03 0.  0.
        -13    1    3    3    0    0  0.73361731329E+01  0.15936875960E+02 -0.32328416645E+02  0.36782348190E+02  0.10566000000E+00 0.  1.
         23    2    1    0    0    0  0.14672339736E+02 -0.22383898194E+02  0.11855648257E+02  0.95727609471E+02  0.91142209584E+02 0.  0.
         13    1    3    3    0    0  0.73361666031E+01 -0.38320774153E+02  0.44184064902E+02  0.58945261281E+02  0.10566000000E+00 0. -1.
         22    1    1    0    0    0 -0.14672339736E+02  0.22383898194E+02 -0.11855648257E+02  0.29272390529E+02  0.00000000000E+00 0. -1.
</event>
<event>
 5    1  0.1325686E-009  0.9118800E+02  0.7818608E-02  0.1130116E+00
         25   -1    0    0    0    0  0.00000000000E+00  0.00000000000E+00  0.99999998245E-14  0.12500000000E+03  0.12500000000E+03 0.  0.
        -13    1    3    3    0    0  0.12187294026E+02  0.29173498945E+02 -0.33663435342E+02  0.46182910469E+02  0.10566000000E+00 0.  1.
         23    2    1    0    0    0  0.27710862245E+02 -0.58964446451E+00  0.44020989508E+01  0.96935466473E+02  0.92783978241E+02 0.  0.
         13    1    3    3    0    0  0.15523568219E+02 -0.29763143409E+02  0.38065534293E+02  0.50752556003E+02  0.10566000000E+00 0. -1.
         22    1    1    0    0    0 -0.27710862245E+02  0.58964446451E+00 -0.44020989508E+01  0.28064533527E+02  0.00000000000E+00 0. -1.
</event>
<event>
 5    1  0.1325686E-009  0.9118800E+02  0.7818608E-02  0.1130116E+00
         25   -1    0    0    0    0  0.00000000000E+00  0.00000000000E+00  0.99999998245E-14  0.12500000000E+03  0.12500000000E+03 0.  0.
        -13    1    3    3    0    0  0.10390955579E+02 -0.49274778935E+02  0.16034361747E+02  0.52849670932E+02  0.10566000000E+00 0.  1.
         23    2    1    0    0    0  0.16346810861E+02 -0.61875587932E+01  0.22160555270E+02  0.96775997466E+02  0.92568889842E+02 0.  0.
         13    1    3    3    0    0  0.59558552819E+01  0.43087220142E+02  0.61261935235E+01  0.43926326534E+02  0.10566000000E+00 0. -1.
         22    1    1    0    0    0 -0.16346810861E+02  0.61875587932E+01 -0.22160555270E+02  0.28224002534E+02  0.00000000000E+00 0.  1.
</event>
<event>
 5    1  0.1325686E-009  0.9118800E+02  0.7818608E-02  0.1130116E+00
         25   -1    0    0    0    0  0.00000000000E+00  0.00000000000E+00  0.99999998245E-14  0.12500000000E+03  0.12500000000E+03 0.  0.
        -13    1    3    3    0    0  0.26159116554E+01  0.29062802683E+02  0.20511989348E+02  0.35668506621E+02  0.10566000000E+00 0.  1.
         23    2    1    0    0    0 -0.83381315352E+01 -0.27268608163E+02  0.38468723471E+00  0.96482471830E+02  0.92171676548E+02 0.  0.
         13    1    3    3    0    0 -0.10954043191E+02 -0.56331410845E+02 -0.20127302113E+02  0.60813965209E+02  0.10566000000E+00 0. -1.
         22    1    1    0    0    0  0.83381315352E+01  0.27268608163E+02 -0.38468723471E+00  0.28517528170E+02  0.00000000000E+00 0. -1.
</event>
<event>
 5    1  0.1325686E-009  0.9118800E+02  0.7818608E-02  0.1130116E+00
         25   -1    0    0    0    0  0.00000000000E+00  0.00000000000E+00  0.99999998245E-14  0.12500000000E+03  0.12500000000E+03 0.  0.
        -13    1    3    3    0    0 -0.38796353626E+02  0.70484661857E+01 -0.15530199975E+02  0.42379667360E+02  0.10566000000E+00 0.  1.
         23    2    1    0    0    0 -0.11114956273E+02 -0.22819855630E+02  0.16957233730E+02  0.94474013698E+02  0.89406394763E+02 0.  0.
         13    1    3    3    0    0  0.27681397354E+02 -0.29868321816E+02  0.32487433705E+02  0.52094346338E+02  0.10566000000E+00 0. -1.
         22    1    1    0    0    0  0.11114956273E+02  0.22819855630E+02 -0.16957233730E+02  0.30525986302E+02  0.00000000000E+00 0. -1.
</event>
<event>
 5    1  0.1325686E-009  0.9118800E+02  0.7818608E-02  0.1130116E+00
         25   -1    0    0    0    0  0.00000000000E+00  0.00000000000E+00  0.99999998245E-14  0.12500000000E+03  0.12500000000E+03 0.  0.
        -13    1    3    3    0    0 -0.42330800146E+02  0.43030232576E+01  0.39252472226E+02  0.57889380633E+02  0.10566000000E+00 0.  1.
         23    2    1    0    0    0 -0.23519582421E+02 -0.86689841997E+01  0.36237280760E+02  0.80937969166E+02  0.67893241870E+02 0.  0.
         13    1    3    3    0    0  0.18811217725E+02 -0.12972007457E+02 -0.30151914665E+01  0.23048588534E+02  0.10566000000E+00 0. -1.
         22    1    1    0    0    0  0.23519582421E+02  0.86689841997E+01 -0.36237280760E+02  0.44062030834E+02  0.00000000000E+00 0.  1.
</event>
<event>
 5    1  0.1325686E-009  0.9118800E+02  0.7818608E-02  0.1130116E+00
         25   -1    0    0    0    0  0.00000000000E+00  0.00000000000E+00  0.99999998245E-14  0.12500000000E+03  0.12500000000E+03 0.  0.
        -13    1    3    3    0    0  0.10194133187E+02  0.52221237978E+02  0.62875941230E+00  0.53210755960E+02  0.10566000000E+00 0.  1.
         23    2    1    0    0    0 -0.43897910037E+01  0.37267877096E+02 -0.19922695829E+02  0.82513781794E+02  0.70735036923E+02 0.  0.
         13    1    3    3    0    0 -0.14583924191E+02 -0.14953360881E+02 -0.20551455242E+02  0.29303025834E+02  0.10566000000E+00 0. -1.
         22    1    1    0    0    0  0.43897910037E+01 -0.37267877096E+02  0.19922695829E+02  0.42486218206E+02  0.00000000000E+00 0.  1.
</event>
<event>
 5    1  0.1325686E-009  0.9118800E+02  0.7818608E-02  0.1130116E+00
         25   -1    0    0    0    0  0.00000000000E+00  0.00000000000E+00  0.99999998245E-14  0.12500000000E+03  0.12500000000E+03 0.  0.
        -13    1    3    3    0    0  0.10743637018E+02 -0.15523948429E+02  0.32302427188E+02  0.37414925864E+02  0.10566000000E+00 0.  1.
         23    2    1    0    0    0  0.20896130037E+02  0.70706207585E+01 -0.19959849291E+02  0.95250419966E+02  0.90485385514E+02 0.  0.
         13    1    3    3    0    0  0.10152493019E+02  0.22594569187E+02 -0.52262276479E+02  0.57835494102E+02  0.10566000000E+00 0. -1.
         22    1    1    0    0    0 -0.20896130037E+02 -0.70706207585E+01  0.19959849291E+02  0.29749580034E+02  0.00000000000E+00 0. -1.
</event>
<event>
 5    1  0.1325686E-009  0.9118800E+02  0.7818608E-02  0.1130116E+00
         25   -1    0    0    0    0  0.00000000000E+00  0.00000000000E+00  0.99999998245E-14  0.12500000000E+03  0.12500000000E+03 0.  0.
        -13    1    3    3    0    0 -0.78628661269E+01  0.41607724771E+02  0.35212794500E+02  0.55072492997E+02  0.10566000000E+00 0.  1.
         23    2    1    0    0    0  0.13205141457E+02  0.92462527134E+01  0.25402121680E+02  0.94914509544E+02  0.90020149889E+02 0.  0.
         13    1    3    3    0    0  0.21068007584E+02 -0.32361472058E+02 -0.98106728205E+01  0.39842016547E+02  0.10566000000E+00 0. -1.
         22    1    1    0    0    0 -0.13205141457E+02 -0.92462527134E+01 -0.25402121680E+02  0.30085490456E+02  0.00000000000E+00 0.  1.
</event>
<event>
 5    1  0.1325686E-009  0.9118800E+02  0.7818608E-02  0.1130116E+00
         25   -1    0    0    0    0  0.00000000000E+00  0.00000000000E+00  0.99999998245E-14  0.12500000000E+03  0.12500000000E+03 0.  0.
        -13    1    3    3    0    0  0.34154612967E+02  0.13368379404E+02  0.10000541979E+02  0.38016748398E+02  0.10566000000E+00 0.  1.
         23    2    1    0    0    0 -0.24209575295E+02  0.44756980615E+01  0.13053938695E+02  0.97133519695E+02  0.93050416032E+02 0.  0.
         13    1    3    3    0    0 -0.58364188263E+02 -0.88926813430E+01  0.30533967159E+01  0.59116771297E+02  0.10566000000E+00 0. -1.
         22    1    1    0    0    0  0.24209575295E+02 -0.44756980615E+01 -0.13053938695E+02  0.27866480305E+02  0.00000000000E+00 0. -1.
</event>
<event>
 5    1  0.1325686E-009  0.9118800E+02  0.7818608E-02  0.1130116E+00
         25   -1    0    0    0    0  0.00000000000E+00  0.00000000000E+00  0.99999998245E-14  0.12500000000E+03  0.12500000000E+03 0.  0.
        -13    1    3    3    0    0  0.19334888603E+02 -0.20140243073E+02 -0.47418329856E+02  0.55027052244E+02  0.10566000000E+00 0.  1.
         23    2    1    0    0    0 -0.12739573152E+02 -0.72795032676E+01 -0.24332709746E+02  0.96585766674E+02  0.92311655106E+02 0.  0.
         13    1    3    3    0    0 -0.32074461755E+02  0.12860739805E+02  0.23085620109E+02  0.41558714430E+02  0.10566000000E+00 0. -1.
         22    1    1    0    0    0  0.12739573152E+02  0.72795032676E+01  0.24332709746E+02  0.28414233326E+02  0.00000000000E+00 0.  1.
</event>
<event>
 5    1  0.1325686E-009  0.9118800E+02  0.7818608E-02  0.1130116E+00
         25   -1    0    0    0    0  0.00000000000E+00  0.00000000000E+00  0.99999998245E-14  0.12500000000E+03  0.12500000000E+03 0.  0.
        -13    1    3    3    0    0  0.36483085951E+02  0.22858629580E+02  0.43108579465E+02  0.60925309144E+02  0.10566000000E+00 0.  1.
         23    2    1    0    0    0  0.20776820972E+02  0.19890450229E+01  0.23384425755E+02  0.93655718900E+02  0.88254913319E+02 0.  0.
         13    1    3    3    0    0 -0.15706264979E+02 -0.20869584557E+02 -0.19724153710E+02  0.32730409756E+02  0.10566000000E+00 0. -1.
         22    1    1    0    0    0 -0.20776820972E+02 -0.19890450229E+01 -0.23384425755E+02  0.31344281100E+02  0.00000000000E+00 0.  1.
</event>
<event>
 5    1  0.1325686E-009  0.9118800E+02  0.7818608E-02  0.1130116E+00
         25   -1    0    0    0    0  0.00000000000E+00  0.00000000000E+00  0.99999998245E-14  0.12500000000E+03  0.12500000000E+03 0.  0.
        -13    1    3    3    0    0 -0.79087551423E+01 -0.13517715979E+02 -0.47952301519E+02  0.50445132949E+02  0.10566000000E+00 0.  1.
         23    2    1    0    0    0  0.11941406843E+02  0.16817547748E+02 -0.20501990144E+02  0.95918069020E+02  0.91403048390E+02 0.  0.
         13    1    3    3    0    0  0.19850161985E+02  0.30335263728E+02  0.27450311375E+02  0.45472936071E+02  0.10566000000E+00 0. -1.
         22    1    1    0    0    0 -0.11941406843E+02 -0.16817547748E+02  0.20501990144E+02  0.29081930980E+02  0.00000000000E+00 0.  1.
</event>
<event>
 5    1  0.1325686E-009  0.9118800E+02  0.7818608E-02  0.1130116E+00
         25   -1    0    0    0    0  0.00000000000E+00  0.00000000000E+00  0.99999998245E-14  0.12500000000E+03  0.12500000000E+03 0.  0.
        -13    1    3    3    0    0  0.19357859029E+02 -0.50465829311E+02 -0.78141638949E+00  0.54056899743E+02  0.10566000000E+00 0. -1.
         23    2    1    0    0    0 -0.41668586537E+01 -0.18696178418E+02 -0.19385585830E+02  0.97747280201E+02  0.93871295134E+02 0.  0.
         13    1    3    3    0    0 -0.23524717683E+02  0.31769650893E+02 -0.18604169441E+02  0.43690380458E+02  0.10566000000E+00 0.  1.
         22    1    1    0    0    0  0.41668586537E+01  0.18696178418E+02  0.19385585830E+02  0.27252719799E+02  0.00000000000E+00 0. -1.
</event>
<event>
 5    1  0.1325686E-009  0.9118800E+02  0.7818608E-02  0.1130116E+00
         25   -1    0    0    0    0  0.00000000000E+00  0.00000000000E+00  0.99999998245E-14  0.12500000000E+03  0.12500000000E+03 0.  0.
        -13    1    3    3    0    0 -0.49742437960E+01 -0.26793068306E+02 -0.17841189657E+02  0.32571933056E+02  0.10566000000E+00 0.  1.
         23    2    1    0    0    0 -0.20156142349E+02 -0.55983567017E+01  0.30804661670E+02  0.87763742766E+02  0.79472861352E+02 0.  0.
         13    1    3    3    0    0 -0.15181898553E+02  0.21194711605E+02  0.48645851327E+02  0.55191809710E+02  0.10566000000E+00 0. -1.
         22    1    1    0    0    0  0.20156142349E+02  0.55983567017E+01 -0.30804661670E+02  0.37236257234E+02  0.00000000000E+00 0. -1.
</event>
<event>
 5    1  0.1325686E-009  0.9118800E+02  0.7818608E-02  0.1130116E+00
         25   -1    0    0    0    0  0.00000000000E+00  0.00000000000E+00  0.99999998245E-14  0.12500000000E+03  0.12500000000E+03 0.  0.
        -13    1    3    3    0    0 -0.11064871106E+02  0.31913080623E+02 -0.72115958894E+01  0.34538302893E+02  0.10566000000E+00 0.  1.
         23    2    1    0    0    0  0.79770911709E+01 -0.27054336641E+02 -0.19704914894E+01  0.96725383268E+02  0.92500517928E+02 0.  0.
         13    1    3    3    0    0  0.19041962277E+02 -0.58967417264E+02  0.52411043999E+01  0.62187080375E+02  0.10566000000E+00 0. -1.
         22    1    1    0    0    0 -0.79770911709E+01  0.27054336641E+02  0.19704914894E+01  0.28274616732E+02  0.00000000000E+00 0. -1.
</event>
<event>
 5    1  0.1325686E-009  0.9118800E+02  0.7818608E-02  0.1130116E+00
         25   -1    0    0    0    0  0.00000000000E+00  0.00000000000E+00  0.99999998245E-14  0.12500000000E+03  0.12500000000E+03 0.  0.
        -13    1    3    3    0    0 -0.46477884373E+02 -0.57727733538E+01 -0.41116767306E+02  0.62322695430E+02  0.10566000000E+00 0. -1.
         23    2    1    0    0    0 -0.23283674753E+02 -0.31543735808E+00 -0.17500778702E+02  0.95870869119E+02  0.91338476448E+02 0.  0.
         13    1    3    3    0    0  0.23194209620E+02  0.54573359957E+01  0.23615988604E+02  0.33548173689E+02  0.10566000000E+00 0.  1.
         22    1    1    0    0    0  0.23283674753E+02  0.31543735808E+00  0.17500778702E+02  0.29129130881E+02  0.00000000000E+00 0. -1.
</event>
<event>
 5    1  0.1325686E-009  0.9118800E+02  0.7818608E-02  0.1130116E+00
         25   -1    0    0    0    0  0.00000000000E+00  0.00000000000E+00  0.99999998245E-14  0.12500000000E+03  0.12500000000E+03 0.  0.
        -13    1    3    3    0    0  0.29089204099E+02 -0.93688786750E+01 -0.29161011507E+02  0.42241371177E+02  0.10566000000E+00 0.  1.
         23    2    1    0    0    0 -0.22809858789E+02  0.32340001663E+01 -0.15050891796E+02  0.97481319820E+02  0.93516468897E+02 0.  0.
         13    1    3    3    0    0 -0.51899062888E+02  0.12602878841E+02  0.14110119711E+02  0.55239948643E+02  0.10566000000E+00 0. -1.
         22    1    1    0    0    0  0.22809858789E+02 -0.32340001663E+01  0.15050891796E+02  0.27518680180E+02  0.00000000000E+00 0. -1.
</event>
<event>
 5    1  0.1325686E-009  0.9118800E+02  0.7818608E-02  0.1130116E+00
         25   -1    0    0    0    0  0.00000000000E+00  0.00000000000E+00  0.99999998245E-14  0.12500000000E+03  0.12500000000E+03 0.  0.
        -13    1    3    3    0    0 -0.31167414802E+02 -0.30402093924E+02  0.50674703425E+01  0.43833611306E+02  0.10566000000E+00 0. -1.
         23    2    1    0    0    0 -0.20091322436E+02 -0.31852962734E+02 -0.27567992394E+02  0.78328095423E+02  0.62904879427E+02 0.  0.
         13    1    3    3    0    0  0.11076092366E+02 -0.14508688103E+01 -0.32635462737E+02  0.34494484117E+02  0.10566000000E+00 0.  1.
         22    1    1    0    0    0  0.20091322436E+02  0.31852962734E+02  0.27567992394E+02  0.46671904577E+02  0.00000000000E+00 0. -1.
</event>
<event>
 5    1  0.1325686E-009  0.9118800E+02  0.7818608E-02  0.1130116E+00
         25   -1    0    0    0    0  0.00000000000E+00  0.00000000000E+00  0.99999998245E-14  0.12500000000E+03  0.12500000000E+03 0.  0.
        -13    1    3    3    0    0 -0.55169096183E+01  0.20435309537E+02  0.48237953322E+02  0.52677789175E+02  0.10566000000E+00 0. -1.
         23    2    1    0    0    0  0.80566710288E+01 -0.12824293549E+02  0.25951849652E+02  0.94952188874E+02  0.90072455381E+02 0.  0.
         13    1    3    3    0    0  0.13573580647E+02 -0.33259603086E+02 -0.22286103670E+02  0.42274399698E+02  0.10566000000E+00 0.  1.
         22    1    1    0    0    0 -0.80566710288E+01  0.12824293549E+02 -0.25951849652E+02  0.30047811126E+02  0.00000000000E+00 0.  1.
</event>
<event>
 5    1  0.1325686E-009  0.9118800E+02  0.7818608E-02  0.1130116E+00
         25   -1    0    0    0    0  0.00000000000E+00  0.00000000000E+00  0.99999998245E-14  0.12500000000E+03  0.12500000000E+03 0.  0.
        -13    1    3    3    0    0 -0.12259321208E+02  0.41372500161E+00  0.44812129149E+02  0.46460738347E+02  0.10566000000E+00 0. -1.
         23    2    1    0    0    0  0.23960960117E+01 -0.27809969414E+02  0.63388521254E+01  0.96376290926E+02  0.92027565063E+02 0.  0.
         13    1    3    3    0    0  0.14655417220E+02 -0.28223694415E+02 -0.38473277023E+02  0.49915552579E+02  0.10566000000E+00 0.  1.
         22    1    1    0    0    0 -0.23960960117E+01  0.27809969414E+02 -0.63388521254E+01  0.28623709074E+02  0.00000000000E+00 0.  1.
</event>
<event>
 5    1  0.1325686E-009  0.9118800E+02  0.7818608E-02  0.1130116E+00
         25   -1    0    0    0    0  0.00000000000E+00  0.00000000000E+00  0.99999998245E-14  0.12500000000E+03  0.12500000000E+03 0.  0.
        -13    1    3    3    0    0  0.28065215237E+02 -0.61710423230E+01  0.34617964242E+02  0.44990584370E+02  0.10566000000E+00 0. -1.
         23    2    1    0    0    0  0.10984069151E+02 -0.26610093077E+02 -0.78859474683E+01  0.95151465762E+02  0.90348582947E+02 0.  0.
         13    1    3    3    0    0 -0.17081146086E+02 -0.20439050754E+02 -0.42503911710E+02  0.50160881392E+02  0.10566000000E+00 0.  1.
         22    1    1    0    0    0 -0.10984069151E+02  0.26610093077E+02  0.78859474683E+01  0.29848534238E+02  0.00000000000E+00 0. -1.
</event>
<event>
 5    1  0.1325686E-009  0.9118800E+02  0.7818608E-02  0.1130116E+00
         25   -1    0    0    0    0  0.00000000000E+00  0.00000000000E+00  0.99999998245E-14  0.12500000000E+03  0.12500000000E+03 0.  0.
        -13    1    3    3    0    0 -0.45790548924E+02  0.98807624243E+01  0.16336134671E+02  0.49611332343E+02  0.10566000000E+00 0.  1.
         23    2    1    0    0    0 -0.49357054108E+02 -0.23169149622E+00 -0.68616428162E+01  0.75167735218E+02  0.56275516919E+02 0.  0.
         13    1    3    3    0    0 -0.35665051837E+01 -0.10112453921E+02 -0.23197777487E+02  0.25556402875E+02  0.10566000000E+00 0. -1.
         22    1    1    0    0    0  0.49357054108E+02  0.23169149622E+00  0.68616428162E+01  0.49832264782E+02  0.00000000000E+00 0.  1.
</event>
<event>
 5    1  0.1325686E-009  0.9118800E+02  0.7818608E-02  0.1130116E+00
         25   -1    0    0    0    0  0.00000000000E+00  0.00000000000E+00  0.99999998245E-14  0.12500000000E+03  0.12500000000E+03 0.  0.
        -13    1    3    3    0    0 -0.28462427738E+02  0.35285284577E+02  0.27635714039E+02  0.53093360742E+02  0.10566000000E+00 0.  1.
         23    2    1    0    0    0 -0.20016833115E+02  0.20316099548E+02 -0.10248401696E+02  0.94694105423E+02  0.89713579550E+02 0.  0.
         13    1    3    3    0    0  0.84455946226E+01 -0.14969185029E+02 -0.37884115735E+02  0.41600744681E+02  0.10566000000E+00 0. -1.
         22    1    1    0    0    0  0.20016833115E+02 -0.20316099548E+02  0.10248401696E+02  0.30305894577E+02  0.00000000000E+00 0.  1.
</event>
<event>
 5    1  0.1325686E-009  0.9118800E+02  0.7818608E-02  0.1130116E+00
         25   -1    0    0    0    0  0.00000000000E+00  0.00000000000E+00  0.99999998245E-14  0.12500000000E+03  0.12500000000E+03 0.  0.
        -13    1    3    3    0    0  0.26234576724E+02 -0.32610774247E+02  0.38255445752E+02  0.56702785704E+02  0.10566000000E+00 0. -1.
         23    2    1    0    0    0 -0.14836604203E+01 -0.68899895196E+01  0.28342725004E+02  0.95794122775E+02  0.91233385851E+02 0.  0.
         13    1    3    3    0    0 -0.27718237145E+02  0.25720784727E+02 -0.99127207480E+01  0.39091337072E+02  0.10566000000E+00 0.  1.
         22    1    1    0    0    0  0.14836604203E+01  0.68899895196E+01 -0.28342725004E+02  0.29205877225E+02  0.00000000000E+00 0. -1.
</event>
<event>
 5    1  0.1325686E-009  0.9118800E+02  0.7818608E-02  0.1130116E+00
         25   -1    0    0    0    0  0.00000000000E+00  0.00000000000E+00  0.99999998245E-14  0.12500000000E+03  0.12500000000E+03 0.  0.
        -13    1    3    3    0    0  0.29796712739E+01 -0.37394238128E+02 -0.13597896222E+02  0.39901396363E+02  0.10566000000E+00 0. -1.
         23    2    1    0    0    0  0.12625071596E+01 -0.25083770965E+01  0.29494821399E+02  0.95371797737E+02  0.90652906374E+02 0.  0.
         13    1    3    3    0    0 -0.17171641143E+01  0.34885861031E+02  0.43092717621E+02  0.55470401373E+02  0.10566000000E+00 0.  1.
         22    1    1    0    0    0 -0.12625071596E+01  0.25083770965E+01 -0.29494821399E+02  0.29628202263E+02  0.00000000000E+00 0. -1.
</event>
<event>
 5    1  0.1325686E-009  0.9118800E+02  0.7818608E-02  0.1130116E+00
         25   -1    0    0    0    0  0.00000000000E+00  0.00000000000E+00  0.99999998245E-14  0.12500000000E+03  0.12500000000E+03 0.  0.
        -13    1    3    3    0    0  0.90680259218E+01  0.50038481837E+01  0.45671671239E+02  0.46831403017E+02  0.10566000000E+00 0. -1.
         23    2    1    0    0    0 -0.20169923399E+02 -0.17121760191E+02  0.23018616360E+02  0.89930965495E+02  0.82811480930E+02 0.  0.
         13    1    3    3    0    0 -0.29237949321E+02 -0.22125608374E+02 -0.22653054879E+02  0.43099562478E+02  0.10566000000E+00 0.  1.
         22    1    1    0    0    0  0.20169923399E+02  0.17121760191E+02 -0.23018616360E+02  0.35069034505E+02  0.00000000000E+00 0. -1.
</event>
<event>
 5    1  0.1325686E-009  0.9118800E+02  0.7818608E-02  0.1130116E+00
         25   -1    0    0    0    0  0.00000000000E+00  0.00000000000E+00  0.99999998245E-14  0.12500000000E+03  0.12500000000E+03 0.  0.
        -13    1    3    3    0    0  0.28010339081E+02 -0.27341245731E+02  0.36764398374E+02  0.53700604889E+02  0.10566000000E+00 0. -1.
         23    2    1    0    0    0  0.21694498712E+02  0.88810962132E+01  0.20310402420E+02  0.93983269180E+02  0.88717626743E+02 0.  0.
         13    1    3    3    0    0 -0.63158403685E+01  0.36222341944E+02 -0.16453995955E+02  0.40282664291E+02  0.10566000000E+00 0.  1.
         22    1    1    0    0    0 -0.21694498712E+02 -0.88810962132E+01 -0.20310402420E+02  0.31016730820E+02  0.00000000000E+00 0. -1.
</event>
<event>
 5    1  0.1325686E-009  0.9118800E+02  0.7818608E-02  0.1130116E+00
         25   -1    0    0    0    0  0.00000000000E+00  0.00000000000E+00  0.99999998245E-14  0.12500000000E+03  0.12500000000E+03 0.  0.
        -13    1    3    3    0    0 -0.42204546739E+01  0.41658795825E+02 -0.25315641261E+02  0.48930158019E+02  0.10566000000E+00 0. -1.
         23    2    1    0    0    0 -0.12935055986E+02  0.19641363470E+02  0.16003323618E+02  0.96553467713E+02  0.92267908442E+02 0.  0.
         13    1    3    3    0    0 -0.87146013117E+01 -0.22017432355E+02  0.41318964879E+02  0.47623309694E+02  0.10566000000E+00 0.  1.
         22    1    1    0    0    0  0.12935055986E+02 -0.19641363470E+02 -0.16003323618E+02  0.28446532287E+02  0.00000000000E+00 0.  1.
</event>
<event>
 5    1  0.1325686E-009  0.9118800E+02  0.7818608E-02  0.1130116E+00
         25   -1    0    0    0    0  0.00000000000E+00  0.00000000000E+00  0.99999998245E-14  0.12500000000E+03  0.12500000000E+03 0.  0.
        -13    1    3    3    0    0 -0.30261248848E+01 -0.12519663112E+02  0.39693501462E+02  0.41731098938E+02  0.10566000000E+00 0.  1.
         23    2    1    0    0    0 -0.10933978249E+02 -0.26369025700E+02 -0.10643570112E+02  0.94534232629E+02  0.89490547866E+02 0.  0.
         13    1    3    3    0    0 -0.79078533642E+01 -0.13849362588E+02 -0.50337071574E+02  0.52803133691E+02  0.10566000000E+00 0. -1.
         22    1    1    0    0    0  0.10933978249E+02  0.26369025700E+02  0.10643570112E+02  0.30465767371E+02  0.00000000000E+00 0. -1.
</event>
<event>
 5    1  0.1325686E-009  0.9118800E+02  0.7818608E-02  0.1130116E+00
         25   -1    0    0    0    0  0.00000000000E+00  0.00000000000E+00  0.99999998245E-14  0.12500000000E+03  0.12500000000E+03 0.  0.
        -13    1    3    3    0    0 -0.12600886637E+01  0.29978601715E+01 -0.42839375084E+02  0.42962753760E+02  0.10566000000E+00 0.  1.
         23    2    1    0    0    0  0.12408181845E+02  0.26589268312E+02  0.21610028572E+01  0.95578543554E+02  0.90937538391E+02 0.  0.
         13    1    3    3    0    0  0.13668270508E+02  0.23591408140E+02  0.45000377941E+02  0.52615789794E+02  0.10566000000E+00 0. -1.
         22    1    1    0    0    0 -0.12408181845E+02 -0.26589268312E+02 -0.21610028572E+01  0.29421456446E+02  0.00000000000E+00 0. -1.
</event>
<event>
 5    1  0.1325686E-009  0.9118800E+02  0.7818608E-02  0.1130116E+00
         25   -1    0    0    0    0  0.00000000000E+00  0.00000000000E+00  0.99999998245E-14  0.12500000000E+03  0.12500000000E+03 0.  0.
        -13    1    3    3    0    0 -0.14918511239E+02  0.33600815040E+02  0.60372639654E+01  0.37256361459E+02  0.10566000000E+00 0. -1.
         23    2    1    0    0    0 -0.18457942136E+02 -0.23747955222E+02  0.21444662600E+01  0.94846065917E+02  0.89925060352E+02 0.  0.
         13    1    3    3    0    0 -0.35394308974E+01 -0.57348770262E+02 -0.38927977055E+01  0.57589704459E+02  0.10566000000E+00 0.  1.
         22    1    1    0    0    0  0.18457942136E+02  0.23747955222E+02 -0.21444662600E+01  0.30153934083E+02  0.00000000000E+00 0.  1.
</event>
<event>
 5    1  0.1325686E-009  0.9118800E+02  0.7818608E-02  0.1130116E+00
         25   -1    0    0    0    0  0.00000000000E+00  0.00000000000E+00  0.99999998245E-14  0.12500000000E+03  0.12500000000E+03 0.  0.
        -13    1    3    3    0    0 -0.56964573137E+01  0.55535378042E+01 -0.56565371877E+02  0.57122183674E+02  0.10566000000E+00 0.  1.
         23    2    1    0    0    0  0.14664557358E+02 -0.34027069063E+01 -0.26512432475E+02  0.94511695152E+02  0.89459062078E+02 0.  0.
         13    1    3    3    0    0  0.20361014672E+02 -0.89562447105E+01  0.30052939402E+02  0.37389511477E+02  0.10566000000E+00 0. -1.
         22    1    1    0    0    0 -0.14664557358E+02  0.34027069063E+01  0.26512432475E+02  0.30488304848E+02  0.00000000000E+00 0.  1.
</event>
<event>
 5    1  0.1325686E-009  0.9118800E+02  0.7818608E-02  0.1130116E+00
         25   -1    0    0    0    0  0.00000000000E+00  0.00000000000E+00  0.99999998245E-14  0.12500000000E+03  0.12500000000E+03 0.  0.
        -13    1    3    3    0    0  0.39429246017E+02  0.93316354790E+01  0.13584024438E+02  0.42735017798E+02  0.10566000000E+00 0. -1.
         23    2    1    0    0    0 -0.18500513638E+01  0.11472158715E+02 -0.23829880190E+02  0.98487808361E+02  0.94852264550E+02 0.  0.
         13    1    3    3    0    0 -0.41279297381E+02  0.21405232362E+01 -0.37413904628E+02  0.55752790563E+02  0.10566000000E+00 0.  1.
         22    1    1    0    0    0  0.18500513638E+01 -0.11472158715E+02  0.23829880190E+02  0.26512191639E+02  0.00000000000E+00 0.  1.
</event>
<event>
 5    1  0.1325686E-009  0.9118800E+02  0.7818608E-02  0.1130116E+00
         25   -1    0    0    0    0  0.00000000000E+00  0.00000000000E+00  0.99999998245E-14  0.12500000000E+03  0.12500000000E+03 0.  0.
        -13    1    3    3    0    0  0.55379507257E+02  0.28673035948E+02  0.32016203269E-01  0.62362208136E+02  0.10566000000E+00 0.  1.
         23    2    1    0    0    0  0.26404310218E+02  0.11908689724E+02 -0.24581398586E+01  0.95930308901E+02  0.91419785743E+02 0.  0.
         13    1    3    3    0    0 -0.28975197039E+02 -0.16764346224E+02 -0.24901560618E+01  0.33568100765E+02  0.10566000000E+00 0. -1.
         22    1    1    0    0    0 -0.26404310218E+02 -0.11908689724E+02  0.24581398586E+01  0.29069691099E+02  0.00000000000E+00 0.  1.
</event>
<event>
 5    1  0.1325686E-009  0.9118800E+02  0.7818608E-02  0.1130116E+00
         25   -1    0    0    0    0  0.00000000000E+00  0.00000000000E+00  0.99999998245E-14  0.12500000000E+03  0.12500000000E+03 0.  0.
        -13    1    3    3    0    0 -0.23718294326E+02  0.11684248751E+01 -0.23383556711E+02  0.33327535026E+02  0.10566000000E+00 0. -1.
         23    2    1    0    0    0  0.17585504539E+02  0.13703709671E+02  0.20378606657E+02  0.94795211672E+02  0.89854342789E+02 0.  0.
         13    1    3    3    0    0  0.41303798865E+02  0.12535284796E+02  0.43762163368E+02  0.61467676646E+02  0.10566000000E+00 0.  1.
         22    1    1    0    0    0 -0.17585504539E+02 -0.13703709671E+02 -0.20378606657E+02  0.30204788328E+02  0.00000000000E+00 0.  1.
</event>
<event>
 5    1  0.1325686E-009  0.9118800E+02  0.7818608E-02  0.1130116E+00
         25   -1    0    0    0    0  0.00000000000E+00  0.00000000000E+00  0.99999998245E-14  0.12500000000E+03  0.12500000000E+03 0.  0.
        -13    1    3    3    0    0  0.46263474172E+02 -0.64206111406E+00  0.31274214193E+01  0.46373626273E+02  0.10566000000E+00 0.  1.
         23    2    1    0    0    0  0.45241535621E+01 -0.24167668676E+02 -0.13326850662E+02  0.97033070901E+02  0.92915379379E+02 0.  0.
         13    1    3    3    0    0 -0.41739320610E+02 -0.23525607562E+02 -0.16454272082E+02  0.50659444627E+02  0.10566000000E+00 0. -1.
         22    1    1    0    0    0 -0.45241535621E+01  0.24167668676E+02  0.13326850662E+02  0.27966929099E+02  0.00000000000E+00 0. -1.
</event>
<event>
 5    1  0.1325686E-009  0.9118800E+02  0.7818608E-02  0.1130116E+00
         25   -1    0    0    0    0  0.00000000000E+00  0.00000000000E+00  0.99999998245E-14  0.12500000000E+03  0.12500000000E+03 0.  0.
        -13    1    3    3    0    0 -0.17978738357E+02  0.36955565144E+02  0.82221075756E+01  0.41911371309E+02  0.10566000000E+00 0.  1.
         23    2    1    0    0    0  0.57033803066E+01 -0.91163301864E+01  0.26147699509E+02  0.96727430032E+02  0.92503283769E+02 0.  0.
         13    1    3    3    0    0  0.23682118664E+02 -0.46071895330E+02  0.17925591933E+02  0.54816058723E+02  0.10566000000E+00 0. -1.
         22    1    1    0    0    0 -0.57033803066E+01  0.91163301864E+01 -0.26147699509E+02  0.28272569968E+02  0.00000000000E+00 0.  1.
</event>
<event>
 5    1  0.1325686E-009  0.9118800E+02  0.7818608E-02  0.1130116E+00
         25   -1    0    0    0    0  0.00000000000E+00  0.00000000000E+00  0.99999998245E-14  0.12500000000E+03  0.12500000000E+03 0.  0.
        -13    1    3    3    0    0 -0.41994357422E+02 -0.26219313425E+01 -0.60469573760E+01  0.42508557219E+02  0.10566000000E+00 0. -1.
         23    2    1    0    0    0  0.71376825782E+00  0.26194530483E+02 -0.15007261422E+02  0.94802636080E+02  0.89864670588E+02 0.  0.
         13    1    3    3    0    0  0.42708125680E+02  0.28816461826E+02 -0.89603040460E+01  0.52294078861E+02  0.10566000000E+00 0.  1.
         22    1    1    0    0    0 -0.71376825782E+00 -0.26194530483E+02  0.15007261422E+02  0.30197363920E+02  0.00000000000E+00 0.  1.
</event>
<event>
 5    1  0.1325686E-009  0.9118800E+02  0.7818608E-02  0.1130116E+00
         25   -1    0    0    0    0  0.00000000000E+00  0.00000000000E+00  0.99999998245E-14  0.12500000000E+03  0.12500000000E+03 0.  0.
        -13    1    3    3    0    0 -0.24500725468E+02 -0.54779249394E+02  0.14545389864E+02  0.61746507941E+02  0.10566000000E+00 0.  1.
         23    2    1    0    0    0 -0.15920265889E+02 -0.27735741588E+02  0.13909535226E+02  0.90125920835E+02  0.83105235748E+02 0.  0.
         13    1    3    3    0    0  0.85804595798E+01  0.27043507805E+02 -0.63585463858E+00  0.28379412894E+02  0.10566000000E+00 0. -1.
         22    1    1    0    0    0  0.15920265889E+02  0.27735741588E+02 -0.13909535226E+02  0.34874079165E+02  0.00000000000E+00 0.  1.
</event>
<event>
 5    1  0.1325686E-009  0.9118800E+02  0.7818608E-02  0.1130116E+00
         25   -1    0    0    0    0  0.00000000000E+00  0.00000000000E+00  0.99999998245E-14  0.12500000000E+03  0.12500000000E+03 0.  0.
        -13    1    3    3    0    0  0.21716544072E+02 -0.34056871831E+02 -0.97337692042E+01  0.41547999137E+02  0.10566000000E+00 0. -1.
         23    2    1    0    0    0 -0.15004423216E+02 -0.96744541663E+01  0.22588931390E+02  0.96207855224E+02  0.91798495663E+02 0.  0.
         13    1    3    3    0    0 -0.36720967288E+02  0.24382417665E+02  0.32322700594E+02  0.54659856087E+02  0.10566000000E+00 0.  1.
         22    1    1    0    0    0  0.15004423216E+02  0.96744541663E+01 -0.22588931390E+02  0.28792144776E+02  0.00000000000E+00 0.  1.
</event>
<event>
 5    1  0.1325686E-009  0.9118800E+02  0.7818608E-02  0.1130116E+00
         25   -1    0    0    0    0  0.00000000000E+00  0.00000000000E+00  0.99999998245E-14  0.12500000000E+03  0.12500000000E+03 0.  0.
        -13    1    3    3    0    0  0.66995005854E+01  0.37606014950E+02  0.13174214595E+02  0.40406271329E+02  0.10566000000E+00 0.  1.
         23    2    1    0    0    0  0.12414482220E+02 -0.19176964259E+02 -0.72683066006E+01  0.10102702338E+03  0.98141509292E+02 0.  0.
         13    1    3    3    0    0  0.57149816343E+01 -0.56782979209E+02 -0.20442521196E+02  0.60620752055E+02  0.10566000000E+00 0. -1.
         22    1    1    0    0    0 -0.12414482220E+02  0.19176964259E+02  0.72683066006E+01  0.23972976616E+02  0.00000000000E+00 0. -1.
</event>
<event>
 5    1  0.1325686E-009  0.9118800E+02  0.7818608E-02  0.1130116E+00
         25   -1    0    0    0    0  0.00000000000E+00  0.00000000000E+00  0.99999998245E-14  0.12500000000E+03  0.12500000000E+03 0.  0.
        -13    1    3    3    0    0  0.36266172002E+01 -0.60549763893E+01 -0.44812273954E+02  0.45364811830E+02  0.10566000000E+00 0. -1.
         23    2    1    0    0    0 -0.19310809222E+01  0.28299657260E+02 -0.91466530648E+01  0.95196293236E+02  0.90410581842E+02 0.  0.
         13    1    3    3    0    0 -0.55576981224E+01  0.34354633650E+02  0.35665620890E+02  0.49831481406E+02  0.10566000000E+00 0.  1.
         22    1    1    0    0    0  0.19310809222E+01 -0.28299657260E+02  0.91466530648E+01  0.29803706764E+02  0.00000000000E+00 0. -1.
</event>
<event>
 5    1  0.1325686E-009  0.9118800E+02  0.7818608E-02  0.1130116E+00
         25   -1    0    0    0    0  0.00000000000E+00  0.00000000000E+00  0.99999998245E-14  0.12500000000E+03  0.12500000000E+03 0.  0.
        -13    1    3    3    0    0 -0.41159710428E+02 -0.41208297656E+02  0.16949344053E+02  0.60659187153E+02  0.10566000000E+00 0.  1.
         23    2    1    0    0    0 -0.10463080121E+02 -0.24725721516E+02  0.10904031115E+02  0.96021814331E+02  0.91544817345E+02 0.  0.
         13    1    3    3    0    0  0.30696630307E+02  0.16482576139E+02 -0.60453129374E+01  0.35362627178E+02  0.10566000000E+00 0. -1.
         22    1    1    0    0    0  0.10463080121E+02  0.24725721516E+02 -0.10904031115E+02  0.28978185669E+02  0.00000000000E+00 0.  1.
</event>
<event>
 5    1  0.1325686E-009  0.9118800E+02  0.7818608E-02  0.1130116E+00
         25   -1    0    0    0    0  0.00000000000E+00  0.00000000000E+00  0.99999998245E-14  0.12500000000E+03  0.12500000000E+03 0.  0.
        -13    1    3    3    0    0 -0.32458805803E+02  0.18858118612E+02 -0.17634065549E+01  0.37580892465E+02  0.10566000000E+00 0. -1.
         23    2    1    0    0    0  0.23272445457E+02  0.12568014713E+02 -0.14129599117E+02  0.95013214867E+02  0.90157105748E+02 0.  0.
         13    1    3    3    0    0  0.55731251260E+02 -0.62901038992E+01 -0.12366192562E+02  0.57432322403E+02  0.10566000000E+00 0.  1.
         22    1    1    0    0    0 -0.23272445457E+02 -0.12568014713E+02  0.14129599117E+02  0.29986785133E+02  0.00000000000E+00 0.  1.
</event>
<event>
 5    1  0.1325686E-009  0.9118800E+02  0.7818608E-02  0.1130116E+00
         25   -1    0    0    0    0  0.00000000000E+00  0.00000000000E+00  0.99999998245E-14  0.12500000000E+03  0.12500000000E+03 0.  0.
        -13    1    3    3    0    0  0.34241466163E+02 -0.34796242374E+01 -0.34323485667E+02  0.48607598400E+02  0.10566000000E+00 0.  1.
         23    2    1    0    0    0 -0.92689815788E+01 -0.13838835141E+02 -0.26030512498E+02  0.94096683698E+02  0.88877280136E+02 0.  0.
         13    1    3    3    0    0 -0.43510447742E+02 -0.10359210904E+02  0.82929731694E+01  0.45489085298E+02  0.10566000000E+00 0. -1.
         22    1    1    0    0    0  0.92689815788E+01  0.13838835141E+02  0.26030512498E+02  0.30903316302E+02  0.00000000000E+00 0. -1.
</event>
<event>
 5    1  0.1325686E-009  0.9118800E+02  0.7818608E-02  0.1130116E+00
         25   -1    0    0    0    0  0.00000000000E+00  0.00000000000E+00  0.99999998245E-14  0.12500000000E+03  0.12500000000E+03 0.  0.
        -13    1    3    3    0    0  0.18836753831E+02 -0.71526468527E+01  0.34700134601E+02  0.40125978583E+02  0.10566000000E+00 0. -1.
         23    2    1    0    0    0 -0.25039373329E+02 -0.15807311800E+02  0.25801920353E+02  0.85724302464E+02  0.76197608992E+02 0.  0.
         13    1    3    3    0    0 -0.43876127160E+02 -0.86546649469E+01 -0.88982142487E+01  0.45598323881E+02  0.10566000000E+00 0.  1.
         22    1    1    0    0    0  0.25039373329E+02  0.15807311800E+02 -0.25801920353E+02  0.39275697536E+02  0.00000000000E+00 0.  1.
</event>
<event>
 5    1  0.1325686E-009  0.9118800E+02  0.7818608E-02  0.1130116E+00
         25   -1    0    0    0    0  0.00000000000E+00  0.00000000000E+00  0.99999998245E-14  0.12500000000E+03  0.12500000000E+03 0.  0.
        -13    1    3    3    0    0  0.53361390965E+02  0.19742716094E+02  0.21232646668E+02  0.60729311976E+02  0.10566000000E+00 0. -1.
         23    2    1    0    0    0  0.21136792469E+02  0.77025300285E+01  0.19590561985E+02  0.95169091808E+02  0.90372965824E+02 0.  0.
         13    1    3    3    0    0 -0.32224598496E+02 -0.12040186066E+02 -0.16420846834E+01  0.34439779832E+02  0.10566000000E+00 0.  1.
         22    1    1    0    0    0 -0.21136792469E+02 -0.77025300285E+01 -0.19590561985E+02  0.29830908192E+02  0.00000000000E+00 0. -1.
</event>
<event>
 5    1  0.1325686E-009  0.9118800E+02  0.7818608E-02  0.1130116E+00
         25   -1    0    0    0    0  0.00000000000E+00  0.00000000000E+00  0.99999998245E-14  0.12500000000E+03  0.12500000000E+03 0.  0.
        -13    1    3    3    0    0 -0.45979624638E+02 -0.10924583820E+02  0.40046754950E+02  0.61945348168E+02  0.10566000000E+00 0.  1.
         23    2    1    0    0    0 -0.23143206266E+02 -0.81808506898E+01  0.13815475380E+02  0.96832613287E+02  0.92645309227E+02 0.  0.
         13    1    3    3    0    0  0.22836418373E+02  0.27437331300E+01 -0.26231279571E+02  0.34887265120E+02  0.10566000000E+00 0. -1.
         22    1    1    0    0    0  0.23143206266E+02  0.81808506898E+01 -0.13815475380E+02  0.28167386713E+02  0.00000000000E+00 0.  1.
</event>
<event>
 5    1  0.1325686E-009  0.9118800E+02  0.7818608E-02  0.1130116E+00
         25   -1    0    0    0    0  0.00000000000E+00  0.00000000000E+00  0.99999998245E-14  0.12500000000E+03  0.12500000000E+03 0.  0.
        -13    1    3    3    0    0 -0.41085054425E+02  0.21527018049E+02 -0.37534828253E+01  0.46534868653E+02  0.10566000000E+00 0.  1.
         23    2    1    0    0    0  0.11713918606E+02  0.62810435572E+01  0.15330051613E+02  0.10471015328E+03  0.10272554853E+03 0.  0.
         13    1    3    3    0    0  0.52798973030E+02 -0.15245974492E+02  0.19083534439E+02  0.58175284632E+02  0.10566000000E+00 0. -1.
         22    1    1    0    0    0 -0.11713918606E+02 -0.62810435572E+01 -0.15330051613E+02  0.20289846715E+02  0.00000000000E+00 0. -1.
</event>
<event>
 5    1  0.1325686E-009  0.9118800E+02  0.7818608E-02  0.1130116E+00
         25   -1    0    0    0    0  0.00000000000E+00  0.00000000000E+00  0.99999998245E-14  0.12500000000E+03  0.12500000000E+03 0.  0.
        -13    1    3    3    0    0  0.29964673350E+02  0.98139107603E+01  0.17607534924E+02  0.36114137723E+02  0.10566000000E+00 0. -1.
         23    2    1    0    0    0 -0.59529710605E+01 -0.94475542143E+01 -0.26544995945E+02  0.96201893208E+02  0.91790376957E+02 0.  0.
         13    1    3    3    0    0 -0.35917644410E+02 -0.19261464975E+02 -0.44152530870E+02  0.60087755484E+02  0.10566000000E+00 0.  1.
         22    1    1    0    0    0  0.59529710605E+01  0.94475542143E+01  0.26544995945E+02  0.28798106792E+02  0.00000000000E+00 0.  1.
</event>
<event>
 5    1  0.1325686E-009  0.9118800E+02  0.7818608E-02  0.1130116E+00
         25   -1    0    0    0    0  0.00000000000E+00  0.00000000000E+00  0.99999998245E-14  0.12500000000E+03  0.12500000000E+03 0.  0.
        -13    1    3    3    0    0 -0.24244613147E+02 -0.25290987546E+02 -0.19198323993E+02  0.39950245630E+02  0.10566000000E+00 0.  1.
         23    2    1    0    0    0 -0.88159930513E+01  0.26952060032E+02 -0.75368890234E+01  0.95658221431E+02  0.91046995325E+02 0.  0.
         13    1    3    3    0    0  0.15428620096E+02  0.52243047578E+02  0.11661434969E+02  0.55707975801E+02  0.10566000000E+00 0. -1.
         22    1    1    0    0    0  0.88159930513E+01 -0.26952060032E+02  0.75368890234E+01  0.29341778569E+02  0.00000000000E+00 0. -1.
</event>
<event>
 5    1  0.1325686E-009  0.9118800E+02  0.7818608E-02  0.1130116E+00
         25   -1    0    0    0    0  0.00000000000E+00  0.00000000000E+00  0.99999998245E-14  0.12500000000E+03  0.12500000000E+03 0.  0.
        -13    1    3    3    0    0 -0.15971451208E+02 -0.21831412897E+02 -0.26834411871E+02  0.38102423378E+02  0.10566000000E+00 0. -1.
         23    2    1    0    0    0  0.14626208969E+02 -0.14770760553E+02  0.21083071689E+02  0.95392614638E+02  0.90681605960E+02 0.  0.
         13    1    3    3    0    0  0.30597660178E+02  0.70606523441E+01  0.47917483560E+02  0.57290191260E+02  0.10566000000E+00 0.  1.
         22    1    1    0    0    0 -0.14626208969E+02  0.14770760553E+02 -0.21083071689E+02  0.29607385362E+02  0.00000000000E+00 0.  1.
</event>
<event>
 5    1  0.1325686E-009  0.9118800E+02  0.7818608E-02  0.1130116E+00
         25   -1    0    0    0    0  0.00000000000E+00  0.00000000000E+00  0.99999998245E-14  0.12500000000E+03  0.12500000000E+03 0.  0.
        -13    1    3    3    0    0 -0.37894515543E+02  0.37726946318E+02  0.28104471538E+02  0.60408519856E+02  0.10566000000E+00 0. -1.
         23    2    1    0    0    0 -0.19051774013E+02  0.87864922466E+01  0.20284963172E+02  0.95816918087E+02  0.91264612648E+02 0.  0.
         13    1    3    3    0    0  0.18842741530E+02 -0.28940454071E+02 -0.78195083662E+01  0.35408398232E+02  0.10566000000E+00 0.  1.
         22    1    1    0    0    0  0.19051774013E+02 -0.87864922466E+01 -0.20284963172E+02  0.29183081913E+02  0.00000000000E+00 0. -1.
</event>
<event>
 5    1  0.1325686E-009  0.9118800E+02  0.7818608E-02  0.1130116E+00
         25   -1    0    0    0    0  0.00000000000E+00  0.00000000000E+00  0.99999998245E-14  0.12500000000E+03  0.12500000000E+03 0.  0.
        -13    1    3    3    0    0 -0.27033625843E+00  0.13344870413E+02  0.33222147610E+02  0.35803364422E+02  0.10566000000E+00 0. -1.
         23    2    1    0    0    0 -0.19163982046E+02 -0.65826365099E+01 -0.20524127685E+02  0.96158551900E+02  0.91731335840E+02 0.  0.
         13    1    3    3    0    0 -0.18893645787E+02 -0.19927506923E+02 -0.53746275296E+02  0.60355187478E+02  0.10566000000E+00 0.  1.
         22    1    1    0    0    0  0.19163982046E+02  0.65826365099E+01  0.20524127685E+02  0.28841448100E+02  0.00000000000E+00 0.  1.
</event>
<event>
 5    1  0.1325686E-009  0.9118800E+02  0.7818608E-02  0.1130116E+00
         25   -1    0    0    0    0  0.00000000000E+00  0.00000000000E+00  0.99999998245E-14  0.12500000000E+03  0.12500000000E+03 0.  0.
        -13    1    3    3    0    0  0.45645375927E+02  0.17375830230E+02  0.26796478326E+02  0.55708906240E+02  0.10566000000E+00 0. -1.
         23    2    1    0    0    0  0.29790669005E+02 -0.68288279323E+01  0.26347613707E+02  0.84647632055E+02  0.74410402591E+02 0.  0.
         13    1    3    3    0    0 -0.15854706922E+02 -0.24204658162E+02 -0.44886461900E+00  0.28938725815E+02  0.10566000000E+00 0.  1.
         22    1    1    0    0    0 -0.29790669005E+02  0.68288279323E+01 -0.26347613707E+02  0.40352367945E+02  0.00000000000E+00 0. -1.
</event>
<event>
 5    1  0.1325686E-009  0.9118800E+02  0.7818608E-02  0.1130116E+00
         25   -1    0    0    0    0  0.00000000000E+00  0.00000000000E+00  0.99999998245E-14  0.12500000000E+03  0.12500000000E+03 0.  0.
        -13    1    3    3    0    0 -0.15959418932E+01  0.49384957769E+02  0.13867000757E+02  0.51319839813E+02  0.10566000000E+00 0. -1.
         23    2    1    0    0    0 -0.23662541483E+02  0.96745110559E+01  0.11926095846E+02  0.96791068866E+02  0.92589239204E+02 0.  0.
         13    1    3    3    0    0 -0.22066599590E+02 -0.39710446714E+02 -0.19409049112E+01  0.45471229053E+02  0.10566000000E+00 0.  1.
         22    1    1    0    0    0  0.23662541483E+02 -0.96745110559E+01 -0.11926095846E+02  0.28208931134E+02  0.00000000000E+00 0. -1.
</event>
<event>
 5    1  0.1325686E-009  0.9118800E+02  0.7818608E-02  0.1130116E+00
         25   -1    0    0    0    0  0.00000000000E+00  0.00000000000E+00  0.99999998245E-14  0.12500000000E+03  0.12500000000E+03 0.  0.
        -13    1    3    3    0    0 -0.20953407330E+02 -0.23280860732E+02 -0.15787966879E+02  0.35075843787E+02  0.10566000000E+00 0. -1.
         23    2    1    0    0    0  0.22336428437E+02  0.17088877012E+02  0.17792256767E+01  0.96820017799E+02  0.92628313435E+02 0.  0.
         13    1    3    3    0    0  0.43289835766E+02  0.40369737744E+02  0.17567192555E+02  0.61744174013E+02  0.10566000000E+00 0.  1.
         22    1    1    0    0    0 -0.22336428437E+02 -0.17088877012E+02 -0.17792256767E+01  0.28179982201E+02  0.00000000000E+00 0.  1.
</event>
<event>
 5    1  0.1325686E-009  0.9118800E+02  0.7818608E-02  0.1130116E+00
         25   -1    0    0    0    0  0.00000000000E+00  0.00000000000E+00  0.99999998245E-14  0.12500000000E+03  0.12500000000E+03 0.  0.
        -13    1    3    3    0    0  0.31414401617E+02 -0.84473876682E+01  0.14612529155E+02  0.35661746448E+02  0.10566000000E+00 0.  1.
         23    2    1    0    0    0 -0.24789142463E+02  0.10998447786E+02 -0.30697336992E+01  0.97707314116E+02  0.93818060783E+02 0.  0.
         13    1    3    3    0    0 -0.56203544080E+02  0.19445835455E+02 -0.17682262854E+02  0.62045567669E+02  0.10566000000E+00 0. -1.
         22    1    1    0    0    0  0.24789142463E+02 -0.10998447786E+02  0.30697336992E+01  0.27292685884E+02  0.00000000000E+00 0. -1.
</event>
<event>
 5    1  0.1325686E-009  0.9118800E+02  0.7818608E-02  0.1130116E+00
         25   -1    0    0    0    0  0.00000000000E+00  0.00000000000E+00  0.99999998245E-14  0.12500000000E+03  0.12500000000E+03 0.  0.
        -13    1    3    3    0    0  0.51507273907E+02 -0.96919137119E+01 -0.49488035689E+01  0.52644413546E+02  0.10566000000E+00 0. -1.
         23    2    1    0    0    0  0.20775053964E+02 -0.73365845927E+01 -0.26710599708E+02  0.90375088774E+02  0.83479172213E+02 0.  0.
         13    1    3    3    0    0 -0.30732219944E+02  0.23553291192E+01 -0.21761796139E+02  0.37730675228E+02  0.10566000000E+00 0.  1.
         22    1    1    0    0    0 -0.20775053964E+02  0.73365845927E+01  0.26710599708E+02  0.34624911226E+02  0.00000000000E+00 0. -1.
</event>
<event>
 5    1  0.1325686E-009  0.9118800E+02  0.7818608E-02  0.1130116E+00
         25   -1    0    0    0    0  0.00000000000E+00  0.00000000000E+00  0.99999998245E-14  0.12500000000E+03  0.12500000000E+03 0.  0.
        -13    1    3    3    0    0  0.57134668447E+01  0.30992512602E+02 -0.34093368447E+02  0.46427884691E+02  0.10566000000E+00 0.  1.
         23    2    1    0    0    0 -0.12938073200E+02  0.20323429913E+02  0.12588089051E+02  0.97817367171E+02  0.93964577330E+02 0.  0.
         13    1    3    3    0    0 -0.18651540045E+02 -0.10669082689E+02  0.46681457498E+02  0.51389482480E+02  0.10566000000E+00 0. -1.
         22    1    1    0    0    0  0.12938073200E+02 -0.20323429913E+02 -0.12588089051E+02  0.27182632829E+02  0.00000000000E+00 0. -1.
</event>
<event>
 5    1  0.1325686E-009  0.9118800E+02  0.7818608E-02  0.1130116E+00
         25   -1    0    0    0    0  0.00000000000E+00  0.00000000000E+00  0.99999998245E-14  0.12500000000E+03  0.12500000000E+03 0.  0.
        -13    1    3    3    0    0 -0.32990281493E+02  0.18345524416E+01  0.29632771643E+02  0.44382840997E+02  0.10566000000E+00 0. -1.
         23    2    1    0    0    0  0.43133716270E+01  0.28300548757E+02  0.64764663147E+01  0.95649176321E+02  0.91034576289E+02 0.  0.
         13    1    3    3    0    0  0.37303653120E+02  0.26465996315E+02 -0.23156305328E+02  0.51266335324E+02  0.10566000000E+00 0.  1.
         22    1    1    0    0    0 -0.43133716270E+01 -0.28300548757E+02 -0.64764663147E+01  0.29350823679E+02  0.00000000000E+00 0.  1.
</event>
<event>
 5    1  0.1325686E-009  0.9118800E+02  0.7818608E-02  0.1130116E+00
         25   -1    0    0    0    0  0.00000000000E+00  0.00000000000E+00  0.99999998245E-14  0.12500000000E+03  0.12500000000E+03 0.  0.
        -13    1    3    3    0    0 -0.13830314823E+02  0.17575732626E+02 -0.45655786854E+02  0.50839414068E+02  0.10566000000E+00 0. -1.
         23    2    1    0    0    0 -0.10419192030E+02  0.25124617505E+02  0.56299336231E+00  0.97794799599E+02  0.93934551150E+02 0.  0.
         13    1    3    3    0    0  0.34111227938E+01  0.75488848791E+01  0.46218780217E+02  0.46955385531E+02  0.10566000000E+00 0.  1.
         22    1    1    0    0    0  0.10419192030E+02 -0.25124617505E+02 -0.56299336231E+00  0.27205200401E+02  0.00000000000E+00 0. -1.
</event>
<event>
 5    1  0.1325686E-009  0.9118800E+02  0.7818608E-02  0.1130116E+00
         25   -1    0    0    0    0  0.00000000000E+00  0.00000000000E+00  0.99999998245E-14  0.12500000000E+03  0.12500000000E+03 0.  0.
        -13    1    3    3    0    0 -0.31220893237E+02 -0.14927084165E+02  0.91366692619E+01  0.35791785446E+02  0.10566000000E+00 0.  1.
         23    2    1    0    0    0 -0.86557354803E+01  0.30980223162E+02 -0.11342123834E+02  0.90892233188E+02  0.84249975056E+02 0.  0.
         13    1    3    3    0    0  0.22565157757E+02  0.45907307327E+02 -0.20478793096E+02  0.55100447741E+02  0.10566000000E+00 0. -1.
         22    1    1    0    0    0  0.86557354803E+01 -0.30980223162E+02  0.11342123834E+02  0.34107766812E+02  0.00000000000E+00 0. -1.
</event>
<event>
 5    1  0.1325686E-009  0.9118800E+02  0.7818608E-02  0.1130116E+00
         25   -1    0    0    0    0  0.00000000000E+00  0.00000000000E+00  0.99999998245E-14  0.12500000000E+03  0.12500000000E+03 0.  0.
        -13    1    3    3    0    0 -0.19819277225E+02  0.36226340184E+02 -0.22094586230E+02  0.46833037245E+02  0.10566000000E+00 0.  1.
         23    2    1    0    0    0  0.15990874445E+02  0.31146061758E+01 -0.24401204867E+02  0.95660135718E+02  0.91049623445E+02 0.  0.
         13    1    3    3    0    0  0.35810151670E+02 -0.33111734008E+02 -0.23066186372E+01  0.48827098473E+02  0.10566000000E+00 0. -1.
         22    1    1    0    0    0 -0.15990874445E+02 -0.31146061758E+01  0.24401204867E+02  0.29339864282E+02  0.00000000000E+00 0. -1.
</event>
<event>
 5    1  0.1325686E-009  0.9118800E+02  0.7818608E-02  0.1130116E+00
         25   -1    0    0    0    0  0.00000000000E+00  0.00000000000E+00  0.99999998245E-14  0.12500000000E+03  0.12500000000E+03 0.  0.
        -13    1    3    3    0    0 -0.27057035201E+02 -0.51694007392E+02  0.21646379126E+02  0.62232872723E+02  0.10566000000E+00 0. -1.
         23    2    1    0    0    0 -0.12458270786E+02 -0.22491382910E+02  0.13834519742E+02  0.95803000965E+02  0.91245549159E+02 0.  0.
         13    1    3    3    0    0  0.14598764415E+02  0.29202624482E+02 -0.78118593842E+01  0.33570128242E+02  0.10566000000E+00 0.  1.
         22    1    1    0    0    0  0.12458270786E+02  0.22491382910E+02 -0.13834519742E+02  0.29196999035E+02  0.00000000000E+00 0. -1.
</event>
<event>
 5    1  0.1325686E-009  0.9118800E+02  0.7818608E-02  0.1130116E+00
         25   -1    0    0    0    0  0.00000000000E+00  0.00000000000E+00  0.99999998245E-14  0.12500000000E+03  0.12500000000E+03 0.  0.
        -13    1    3    3    0    0 -0.57282661698E+02  0.42468109746E+01  0.20423600961E+02  0.60962885225E+02  0.10566000000E+00 0.  1.
         23    2    1    0    0    0 -0.26253468836E+02 -0.75353292519E+01  0.11735358351E+02  0.95272160380E+02  0.90515413577E+02 0.  0.
         13    1    3    3    0    0  0.31029192862E+02 -0.11782140227E+02 -0.86882426105E+01  0.34309275155E+02  0.10566000000E+00 0. -1.
         22    1    1    0    0    0  0.26253468836E+02  0.75353292519E+01 -0.11735358351E+02  0.29727839620E+02  0.00000000000E+00 0.  1.
</event>
<event>
 5    1  0.1325686E-009  0.9118800E+02  0.7818608E-02  0.1130116E+00
         25   -1    0    0    0    0  0.00000000000E+00  0.00000000000E+00  0.99999998245E-14  0.12500000000E+03  0.12500000000E+03 0.  0.
        -13    1    3    3    0    0  0.36733742267E+02 -0.22513518282E+02 -0.40906996302E+02  0.59410603741E+02  0.10566000000E+00 0. -1.
         23    2    1    0    0    0  0.11479769406E+02 -0.22424292690E+02 -0.14574969600E+02  0.95895640411E+02  0.91372370566E+02 0.  0.
         13    1    3    3    0    0 -0.25253972862E+02  0.89225591943E-01  0.26332026703E+02  0.36485036670E+02  0.10566000000E+00 0.  1.
         22    1    1    0    0    0 -0.11479769406E+02  0.22424292690E+02  0.14574969600E+02  0.29104359589E+02  0.00000000000E+00 0. -1.
</event>
<event>
 5    1  0.1325686E-009  0.9118800E+02  0.7818608E-02  0.1130116E+00
         25   -1    0    0    0    0  0.00000000000E+00  0.00000000000E+00  0.99999998245E-14  0.12500000000E+03  0.12500000000E+03 0.  0.
        -13    1    3    3    0    0 -0.23260985284E+02 -0.24871153325E+02  0.77134842835E+01  0.34916424616E+02  0.10566000000E+00 0. -1.
         23    2    1    0    0    0  0.49736098168E+00  0.36777562896E+01 -0.34016609535E+02  0.90781540311E+02  0.84085581866E+02 0.  0.
         13    1    3    3    0    0  0.23758346266E+02  0.28548909615E+02 -0.41730093818E+02  0.55865115695E+02  0.10566000000E+00 0.  1.
         22    1    1    0    0    0 -0.49736098168E+00 -0.36777562896E+01  0.34016609535E+02  0.34218459689E+02  0.00000000000E+00 0.  1.
</event>
<event>
 5    1  0.1325686E-009  0.9118800E+02  0.7818608E-02  0.1130116E+00
         25   -1    0    0    0    0  0.00000000000E+00  0.00000000000E+00  0.99999998245E-14  0.12500000000E+03  0.12500000000E+03 0.  0.
        -13    1    3    3    0    0  0.53847238252E+02 -0.25663433702E+02 -0.41733902517E+01  0.59796030362E+02  0.10566000000E+00 0.  1.
         23    2    1    0    0    0  0.18492331069E+02 -0.20945108902E+02  0.49776046751E+01  0.96619717345E+02  0.92357616558E+02 0.  0.
         13    1    3    3    0    0 -0.35354907183E+02  0.47183248001E+01  0.91509949268E+01  0.36823686983E+02  0.10566000000E+00 0. -1.
         22    1    1    0    0    0 -0.18492331069E+02  0.20945108902E+02 -0.49776046751E+01  0.28380282655E+02  0.00000000000E+00 0.  1.
</event>
<event>
 5    1  0.1325686E-009  0.9118800E+02  0.7818608E-02  0.1130116E+00
         25   -1    0    0    0    0  0.00000000000E+00  0.00000000000E+00  0.99999998245E-14  0.12500000000E+03  0.12500000000E+03 0.  0.
        -13    1    3    3    0    0  0.23081809629E+02 -0.32145695946E+02 -0.89544589137E+01  0.40574736007E+02  0.10566000000E+00 0. -1.
         23    2    1    0    0    0 -0.22704581004E+02 -0.36400912139E+01 -0.18673404433E+02  0.95378313759E+02  0.90661890780E+02 0.  0.
         13    1    3    3    0    0 -0.45786390634E+02  0.28505604732E+02 -0.97189455189E+01  0.54803577752E+02  0.10566000000E+00 0.  1.
         22    1    1    0    0    0  0.22704581004E+02  0.36400912139E+01  0.18673404433E+02  0.29621686241E+02  0.00000000000E+00 0.  1.
</event>
<event>
 5    1  0.1325686E-009  0.9118800E+02  0.7818608E-02  0.1130116E+00
         25   -1    0    0    0    0  0.00000000000E+00  0.00000000000E+00  0.99999998245E-14  0.12500000000E+03  0.12500000000E+03 0.  0.
        -13    1    3    3    0    0 -0.30191298163E+02  0.75397045181E+01 -0.10869089244E+02  0.32962249529E+02  0.10566000000E+00 0.  1.
         23    2    1    0    0    0  0.22042907259E+02 -0.12321040924E+02  0.16140408579E+02  0.95029838189E+02  0.90180150517E+02 0.  0.
         13    1    3    3    0    0  0.52234205421E+02 -0.19860745442E+02  0.27009497822E+02  0.62067588661E+02  0.10566000000E+00 0. -1.
         22    1    1    0    0    0 -0.22042907259E+02  0.12321040924E+02 -0.16140408579E+02  0.29970161811E+02  0.00000000000E+00 0. -1.
</event>
<event>
 5    1  0.1325686E-009  0.9118800E+02  0.7818608E-02  0.1130116E+00
         25   -1    0    0    0    0  0.00000000000E+00  0.00000000000E+00  0.99999998245E-14  0.12500000000E+03  0.12500000000E+03 0.  0.
        -13    1    3    3    0    0 -0.32289949751E+02 -0.28097014783E+02  0.12096212787E+02  0.44479350517E+02  0.10566000000E+00 0. -1.
         23    2    1    0    0    0 -0.53773272266E+01  0.12274693589E+02  0.26680012347E+02  0.95143563347E+02  0.90337649055E+02 0.  0.
         13    1    3    3    0    0  0.26912622524E+02  0.40371708372E+02  0.14583799560E+02  0.50664212830E+02  0.10566000000E+00 0.  1.
         22    1    1    0    0    0  0.53773272266E+01 -0.12274693589E+02 -0.26680012347E+02  0.29856436653E+02  0.00000000000E+00 0.  1.
</event>
<event>
 5    1  0.1325686E-009  0.9118800E+02  0.7818608E-02  0.1130116E+00
         25   -1    0    0    0    0  0.00000000000E+00  0.00000000000E+00  0.99999998245E-14  0.12500000000E+03  0.12500000000E+03 0.  0.
        -13    1    3    3    0    0 -0.77468257179E+01 -0.16693860091E+02 -0.26242211935E+02  0.32052505748E+02  0.10566000000E+00 0. -1.
         23    2    1    0    0    0  0.59744152796E+01  0.14944526286E+02  0.25864071861E+02  0.94537191248E+02  0.89494680356E+02 0.  0.
         13    1    3    3    0    0  0.13721240998E+02  0.31638386377E+02  0.52106283795E+02  0.62484685500E+02  0.10566000000E+00 0.  1.
         22    1    1    0    0    0 -0.59744152796E+01 -0.14944526286E+02 -0.25864071861E+02  0.30462808752E+02  0.00000000000E+00 0.  1.
</event>
<event>
 5    1  0.1325686E-009  0.9118800E+02  0.7818608E-02  0.1130116E+00
         25   -1    0    0    0    0  0.00000000000E+00  0.00000000000E+00  0.99999998245E-14  0.12500000000E+03  0.12500000000E+03 0.  0.
        -13    1    3    3    0    0  0.38701183467E+02 -0.11722118875E+02 -0.48334276843E+01  0.40725457148E+02  0.10566000000E+00 0. -1.
         23    2    1    0    0    0 -0.70160037288E+01 -0.14045062886E+02  0.25081662953E+02  0.95409834129E+02  0.90705339051E+02 0.  0.
         13    1    3    3    0    0 -0.45717187196E+02 -0.23229440115E+01  0.29915090637E+02  0.54684376981E+02  0.10566000000E+00 0.  1.
         22    1    1    0    0    0  0.70160037288E+01  0.14045062886E+02 -0.25081662953E+02  0.29590165871E+02  0.00000000000E+00 0.  1.
</event>
<event>
 5    1  0.1325686E-009  0.9118800E+02  0.7818608E-02  0.1130116E+00
         25   -1    0    0    0    0  0.00000000000E+00  0.00000000000E+00  0.99999998245E-14  0.12500000000E+03  0.12500000000E+03 0.  0.
        -13    1    3    3    0    0 -0.45124996546E+02  0.12366619513E+02  0.81016513980E+01  0.47485224132E+02  0.10566000000E+00 0.  1.
         23    2    1    0    0    0 -0.62846608330E+01  0.20031309484E+02 -0.19976183256E+02  0.96020727771E+02  0.91543333689E+02 0.  0.
         13    1    3    3    0    0  0.38840335713E+02  0.76646899703E+01 -0.28077834654E+02  0.48535503639E+02  0.10566000000E+00 0. -1.
         22    1    1    0    0    0  0.62846608330E+01 -0.20031309484E+02  0.19976183256E+02  0.28979272229E+02  0.00000000000E+00 0. -1.
</event>
<event>
 5    1  0.1325686E-009  0.9118800E+02  0.7818608E-02  0.1130116E+00
         25   -1    0    0    0    0  0.00000000000E+00  0.00000000000E+00  0.99999998245E-14  0.12500000000E+03  0.12500000000E+03 0.  0.
        -13    1    3    3    0    0  0.14619738865E+02 -0.20734749929E+02  0.23473979965E+01  0.25479169149E+02  0.10566000000E+00 0. -1.
         23    2    1    0    0    0 -0.39258005619E+02 -0.69652947804E+01  0.14808363975E+02  0.82467730132E+02  0.70653609483E+02 0.  0.
         13    1    3    3    0    0 -0.53877744484E+02  0.13769455149E+02  0.12460965978E+02  0.56988560983E+02  0.10566000000E+00 0.  1.
         22    1    1    0    0    0  0.39258005619E+02  0.69652947804E+01 -0.14808363975E+02  0.42532269868E+02  0.00000000000E+00 0.  1.
</event>
<event>
 5    1  0.1325686E-009  0.9118800E+02  0.7818608E-02  0.1130116E+00
         25   -1    0    0    0    0  0.00000000000E+00  0.00000000000E+00  0.99999998245E-14  0.12500000000E+03  0.12500000000E+03 0.  0.
        -13    1    3    3    0    0 -0.58340046993E+00 -0.28446348042E+02  0.16896259746E+02  0.33091234949E+02  0.10566000000E+00 0.  1.
         23    2    1    0    0    0 -0.21738306079E+01  0.22838356363E+02 -0.18586125856E+02  0.95474415582E+02  0.90794294400E+02 0.  0.
         13    1    3    3    0    0 -0.15904301379E+01  0.51284704405E+02 -0.35482385601E+02  0.62383180633E+02  0.10566000000E+00 0. -1.
         22    1    1    0    0    0  0.21738306079E+01 -0.22838356363E+02  0.18586125856E+02  0.29525584418E+02  0.00000000000E+00 0. -1.
</event>
<event>
 5    1  0.1325686E-009  0.9118800E+02  0.7818608E-02  0.1130116E+00
         25   -1    0    0    0    0  0.00000000000E+00  0.00000000000E+00  0.99999998245E-14  0.12500000000E+03  0.12500000000E+03 0.  0.
        -13    1    3    3    0    0 -0.95878516988E+01  0.51463423008E+02  0.21524956936E+01  0.52393274470E+02  0.10566000000E+00 0.  1.
         23    2    1    0    0    0 -0.22151622742E+02  0.11837772746E+02  0.14803747737E+02  0.95845614382E+02  0.91303907887E+02 0.  0.
         13    1    3    3    0    0 -0.12563771044E+02 -0.39625650262E+02  0.12651252044E+02  0.43452339912E+02  0.10566000000E+00 0. -1.
         22    1    1    0    0    0  0.22151622742E+02 -0.11837772746E+02 -0.14803747737E+02  0.29154385618E+02  0.00000000000E+00 0.  1.
</event>
<event>
 5    1  0.1325686E-009  0.9118800E+02  0.7818608E-02  0.1130116E+00
         25   -1    0    0    0    0  0.00000000000E+00  0.00000000000E+00  0.99999998245E-14  0.12500000000E+03  0.12500000000E+03 0.  0.
        -13    1    3    3    0    0 -0.35711260896E+02  0.38253132163E+01  0.47938631400E+02  0.59900339903E+02  0.10566000000E+00 0.  1.
         23    2    1    0    0    0 -0.25480838476E+02 -0.74985363171E+01  0.19943834741E+02  0.91784676420E+02  0.85563830589E+02 0.  0.
         13    1    3    3    0    0  0.10230422420E+02 -0.11323849533E+02 -0.27994796658E+02  0.31884336517E+02  0.10566000000E+00 0. -1.
         22    1    1    0    0    0  0.25480838476E+02  0.74985363171E+01 -0.19943834741E+02  0.33215323580E+02  0.00000000000E+00 0.  1.
</event>
<event>
 5    1  0.1325686E-009  0.9118800E+02  0.7818608E-02  0.1130116E+00
         25   -1    0    0    0    0  0.00000000000E+00  0.00000000000E+00  0.99999998245E-14  0.12500000000E+03  0.12500000000E+03 0.  0.
        -13    1    3    3    0    0  0.22769128272E+01  0.22919413183E+01  0.22360427324E+02  0.22592857305E+02  0.10566000000E+00 0. -1.
         23    2    1    0    0    0 -0.99145467448E+01  0.75265362214E+01 -0.38321043093E+02  0.84707949564E+02  0.74511659429E+02 0.  0.
         13    1    3    3    0    0 -0.12191459572E+02  0.52345949031E+01 -0.60681470417E+02  0.62115092259E+02  0.10566000000E+00 0.  1.
         22    1    1    0    0    0  0.99145467448E+01 -0.75265362214E+01  0.38321043093E+02  0.40292050436E+02  0.00000000000E+00 0.  1.
</event>
<event>
 5    1  0.1325686E-009  0.9118800E+02  0.7818608E-02  0.1130116E+00
         25   -1    0    0    0    0  0.00000000000E+00  0.00000000000E+00  0.99999998245E-14  0.12500000000E+03  0.12500000000E+03 0.  0.
        -13    1    3    3    0    0  0.27333179881E+02  0.49045471895E+02 -0.20923284006E+02  0.59919579550E+02  0.10566000000E+00 0. -1.
         23    2    1    0    0    0  0.42357669521E+01  0.26867570009E+02 -0.18648637349E+02  0.92021526493E+02  0.85909147495E+02 0.  0.
         13    1    3    3    0    0 -0.23097412929E+02 -0.22177901887E+02  0.22746466565E+01  0.32101946943E+02  0.10566000000E+00 0.  1.
         22    1    1    0    0    0 -0.42357669521E+01 -0.26867570009E+02  0.18648637349E+02  0.32978473507E+02  0.00000000000E+00 0. -1.
</event>
<event>
 5    1  0.1325686E-009  0.9118800E+02  0.7818608E-02  0.1130116E+00
         25   -1    0    0    0    0  0.00000000000E+00  0.00000000000E+00  0.99999998245E-14  0.12500000000E+03  0.12500000000E+03 0.  0.
        -13    1    3    3    0    0  0.38711912775E+02  0.17588267112E+02 -0.26872959962E+02  0.50300362542E+02  0.10566000000E+00 0.  1.
         23    2    1    0    0    0  0.22917921367E+02 -0.18056844946E+02 -0.38710454315E+01  0.95567606929E+02  0.90922503992E+02 0.  0.
         13    1    3    3    0    0 -0.15793991408E+02 -0.35645112058E+02  0.23001914531E+02  0.45267244386E+02  0.10566000000E+00 0. -1.
         22    1    1    0    0    0 -0.22917921367E+02  0.18056844946E+02  0.38710454315E+01  0.29432393071E+02  0.00000000000E+00 0. -1.
</event>
<event>
 5    1  0.1325686E-009  0.9118800E+02  0.7818608E-02  0.1130116E+00
         25   -1    0    0    0    0  0.00000000000E+00  0.00000000000E+00  0.99999998245E-14  0.12500000000E+03  0.12500000000E+03 0.  0.
        -13    1    3    3    0    0 -0.75126941802E+01 -0.20075737539E+02 -0.40341560985E+02  0.45682912761E+02  0.10566000000E+00 0. -1.
         23    2    1    0    0    0  0.35643329281E+01 -0.36191316537E+02 -0.21739790614E+01  0.88568666689E+02  0.80728970464E+02 0.  0.
         13    1    3    3    0    0  0.11077027108E+02 -0.16115578998E+02  0.38167581924E+02  0.42885753928E+02  0.10566000000E+00 0.  1.
         22    1    1    0    0    0 -0.35643329281E+01  0.36191316537E+02  0.21739790614E+01  0.36431333311E+02  0.00000000000E+00 0. -1.
</event>
<event>
 5    1  0.1325686E-009  0.9118800E+02  0.7818608E-02  0.1130116E+00
         25   -1    0    0    0    0  0.00000000000E+00  0.00000000000E+00  0.99999998245E-14  0.12500000000E+03  0.12500000000E+03 0.  0.
        -13    1    3    3    0    0  0.63435897517E+01  0.46423290119E+02 -0.15229473530E+02  0.49267748319E+02  0.10566000000E+00 0. -1.
         23    2    1    0    0    0  0.14341549325E+02  0.98664021221E+00 -0.24752710641E+02  0.96375706471E+02  0.92026771202E+02 0.  0.
         13    1    3    3    0    0  0.79979595738E+01 -0.45436649907E+02 -0.95232371109E+01  0.47107958152E+02  0.10566000000E+00 0.  1.
         22    1    1    0    0    0 -0.14341549325E+02 -0.98664021221E+00  0.24752710641E+02  0.28624293529E+02  0.00000000000E+00 0.  1.
</event>
<event>
 5    1  0.1325686E-009  0.9118800E+02  0.7818608E-02  0.1130116E+00
         25   -1    0    0    0    0  0.00000000000E+00  0.00000000000E+00  0.99999998245E-14  0.12500000000E+03  0.12500000000E+03 0.  0.
        -13    1    3    3    0    0  0.16062624952E+02  0.30158010689E+02  0.51587254660E+02  0.61877051776E+02  0.10566000000E+00 0.  1.
         23    2    1    0    0    0  0.28373336232E+01  0.10838063312E+02  0.26690869820E+02  0.96053210711E+02  0.91587677543E+02 0.  0.
         13    1    3    3    0    0 -0.13225291329E+02 -0.19319947377E+02 -0.24896384840E+02  0.34176158935E+02  0.10566000000E+00 0. -1.
         22    1    1    0    0    0 -0.28373336232E+01 -0.10838063312E+02 -0.26690869820E+02  0.28946789289E+02  0.00000000000E+00 0.  1.
</event>
<event>
 5    1  0.1325686E-009  0.9118800E+02  0.7818608E-02  0.1130116E+00
         25   -1    0    0    0    0  0.00000000000E+00  0.00000000000E+00  0.99999998245E-14  0.12500000000E+03  0.12500000000E+03 0.  0.
        -13    1    3    3    0    0  0.23915011072E+02 -0.24097029375E+01  0.17017959368E+02  0.29450917268E+02  0.10566000000E+00 0.  1.
         23    2    1    0    0    0 -0.17246919816E+02  0.27864302808E+02 -0.14152704316E+02  0.89304416889E+02  0.81860272552E+02 0.  0.
         13    1    3    3    0    0 -0.41161930889E+02  0.30274005746E+02 -0.31170663684E+02  0.59853499621E+02  0.10566000000E+00 0. -1.
         22    1    1    0    0    0  0.17246919816E+02 -0.27864302808E+02  0.14152704316E+02  0.35695583111E+02  0.00000000000E+00 0. -1.
</event>
<event>
 5    1  0.1325686E-009  0.9118800E+02  0.7818608E-02  0.1130116E+00
         25   -1    0    0    0    0  0.00000000000E+00  0.00000000000E+00  0.99999998245E-14  0.12500000000E+03  0.12500000000E+03 0.  0.
        -13    1    3    3    0    0 -0.17128122944E+02 -0.13465894488E+02  0.31421110359E+02  0.38236111860E+02  0.10566000000E+00 0. -1.
         23    2    1    0    0    0  0.92046191257E+01  0.26444715859E+02 -0.25394525655E+01  0.96884224545E+02  0.92714918628E+02 0.  0.
         13    1    3    3    0    0  0.26332742070E+02  0.39910610347E+02 -0.33960562925E+02  0.58648112684E+02  0.10566000000E+00 0.  1.
         22    1    1    0    0    0 -0.92046191257E+01 -0.26444715859E+02  0.25394525655E+01  0.28115775455E+02  0.00000000000E+00 0.  1.
</event>
<event>
 5    1  0.1325686E-009  0.9118800E+02  0.7818608E-02  0.1130116E+00
         25   -1    0    0    0    0  0.00000000000E+00  0.00000000000E+00  0.99999998245E-14  0.12500000000E+03  0.12500000000E+03 0.  0.
        -13    1    3    3    0    0 -0.17389206670E+02  0.50601404044E+02  0.11740093778E+02  0.54778897085E+02  0.10566000000E+00 0.  1.
         23    2    1    0    0    0 -0.87525971125E+01  0.26369688188E+02 -0.16264155584E+02  0.92805417098E+02  0.87042255684E+02 0.  0.
         13    1    3    3    0    0  0.86366095577E+01 -0.24231715856E+02 -0.28004249362E+02  0.38026520014E+02  0.10566000000E+00 0. -1.
         22    1    1    0    0    0  0.87525971125E+01 -0.26369688188E+02  0.16264155584E+02  0.32194582902E+02  0.00000000000E+00 0.  1.
</event>
<event>
 5    1  0.1325686E-009  0.9118800E+02  0.7818608E-02  0.1130116E+00
         25   -1    0    0    0    0  0.00000000000E+00  0.00000000000E+00  0.99999998245E-14  0.12500000000E+03  0.12500000000E+03 0.  0.
        -13    1    3    3    0    0 -0.22222644857E+02  0.53357172624E+01  0.47089596375E+02  0.52342688830E+02  0.10566000000E+00 0. -1.
         23    2    1    0    0    0 -0.22334471014E+02  0.80040252529E+01 -0.17078197954E+01  0.10121324604E+03  0.98378409770E+02 0.  0.
         13    1    3    3    0    0 -0.11182615670E+00  0.26683079905E+01 -0.48797416170E+02  0.48870557205E+02  0.10566000000E+00 0.  1.
         22    1    1    0    0    0  0.22334471014E+02 -0.80040252529E+01  0.17078197954E+01  0.23786753965E+02  0.00000000000E+00 0.  1.
</event>
<event>
 5    1  0.1325686E-009  0.9118800E+02  0.7818608E-02  0.1130116E+00
         25   -1    0    0    0    0  0.00000000000E+00  0.00000000000E+00  0.99999998245E-14  0.12500000000E+03  0.12500000000E+03 0.  0.
        -13    1    3    3    0    0 -0.12128913548E+02  0.28188079774E+01  0.40779942302E+02  0.42638844737E+02  0.10566000000E+00 0.  1.
         23    2    1    0    0    0  0.27294643522E+02  0.10096287607E+02  0.69877374005E+01  0.95070732344E+02  0.90236816688E+02 0.  0.
         13    1    3    3    0    0  0.39423557071E+02  0.72774796296E+01 -0.33792204902E+02  0.52431887607E+02  0.10566000000E+00 0. -1.
         22    1    1    0    0    0 -0.27294643522E+02 -0.10096287607E+02 -0.69877374005E+01  0.29929267656E+02  0.00000000000E+00 0. -1.
</event>
<event>
 5    1  0.1325686E-009  0.9118800E+02  0.7818608E-02  0.1130116E+00
         25   -1    0    0    0    0  0.00000000000E+00  0.00000000000E+00  0.99999998245E-14  0.12500000000E+03  0.12500000000E+03 0.  0.
        -13    1    3    3    0    0 -0.30447738539E+02  0.38138735808E+02  0.38179704213E+02  0.61962318622E+02  0.10566000000E+00 0. -1.
         23    2    1    0    0    0 -0.10997135248E+02  0.22443680999E+02  0.16468316150E+02  0.95069058864E+02  0.90234498481E+02 0.  0.
         13    1    3    3    0    0  0.19450603292E+02 -0.15695054809E+02 -0.21711388063E+02  0.33106740243E+02  0.10566000000E+00 0.  1.
         22    1    1    0    0    0  0.10997135248E+02 -0.22443680999E+02 -0.16468316150E+02  0.29930941136E+02  0.00000000000E+00 0. -1.
</event>
<event>
 5    1  0.1325686E-009  0.9118800E+02  0.7818608E-02  0.1130116E+00
         25   -1    0    0    0    0  0.00000000000E+00  0.00000000000E+00  0.99999998245E-14  0.12500000000E+03  0.12500000000E+03 0.  0.
        -13    1    3    3    0    0  0.23961295639E+02 -0.47987254087E+02 -0.16312388389E+02  0.56062691895E+02  0.10566000000E+00 0.  1.
         23    2    1    0    0    0  0.22959704256E+02 -0.69034355271E+01 -0.14028427250E+02  0.97222271282E+02  0.93169564883E+02 0.  0.
         13    1    3    3    0    0 -0.10015913828E+01  0.41083818560E+02  0.22839611385E+01  0.41159579387E+02  0.10566000000E+00 0. -1.
         22    1    1    0    0    0 -0.22959704256E+02  0.69034355271E+01  0.14028427250E+02  0.27777728718E+02  0.00000000000E+00 0. -1.
</event>
<event>
 5    1  0.1325686E-009  0.9118800E+02  0.7818608E-02  0.1130116E+00
         25   -1    0    0    0    0  0.00000000000E+00  0.00000000000E+00  0.99999998245E-14  0.12500000000E+03  0.12500000000E+03 0.  0.
        -13    1    3    3    0    0  0.32411015779E+02  0.15545808142E+02 -0.56027101011E+00  0.35950954956E+02  0.10566000000E+00 0.  1.
         23    2    1    0    0    0 -0.20581606842E+02 -0.14557941717E+02 -0.10478591624E+02  0.97699137566E+02  0.93807165992E+02 0.  0.
         13    1    3    3    0    0 -0.52992622621E+02 -0.30103749859E+02 -0.99183206140E+01  0.61748182610E+02  0.10566000000E+00 0. -1.
         22    1    1    0    0    0  0.20581606842E+02  0.14557941717E+02  0.10478591624E+02  0.27300862434E+02  0.00000000000E+00 0. -1.
</event>
<event>
 5    1  0.1325686E-009  0.9118800E+02  0.7818608E-02  0.1130116E+00
         25   -1    0    0    0    0  0.00000000000E+00  0.00000000000E+00  0.99999998245E-14  0.12500000000E+03  0.12500000000E+03 0.  0.
        -13    1    3    3    0    0 -0.20072166652E+01  0.43016653421E+02  0.35236056815E+02  0.55642180530E+02  0.10566000000E+00 0. -1.
         23    2    1    0    0    0  0.13870472833E+02  0.23468727590E+02  0.15589623116E+01  0.97694294464E+02  0.93800712237E+02 0.  0.
         13    1    3    3    0    0  0.15877689498E+02 -0.19547925831E+02 -0.33677094503E+02  0.42052113934E+02  0.10566000000E+00 0.  1.
         22    1    1    0    0    0 -0.13870472833E+02 -0.23468727590E+02 -0.15589623116E+01  0.27305705536E+02  0.00000000000E+00 0. -1.
</event>
<event>
 5    1  0.1325686E-009  0.9118800E+02  0.7818608E-02  0.1130116E+00
         25   -1    0    0    0    0  0.00000000000E+00  0.00000000000E+00  0.99999998245E-14  0.12500000000E+03  0.12500000000E+03 0.  0.
        -13    1    3    3    0    0 -0.15659993114E+02 -0.18402019392E+02  0.33982792760E+02  0.41697854500E+02  0.10566000000E+00 0. -1.
         23    2    1    0    0    0 -0.24623381957E+02  0.70393660838E+01 -0.13306510696E+02  0.96139528058E+02  0.91705408861E+02 0.  0.
         13    1    3    3    0    0 -0.89633888422E+01  0.25441385476E+02 -0.47289303456E+02  0.54441673558E+02  0.10566000000E+00 0.  1.
         22    1    1    0    0    0  0.24623381957E+02 -0.70393660838E+01  0.13306510696E+02  0.28860471942E+02  0.00000000000E+00 0.  1.
</event>
<event>
 5    1  0.1325686E-009  0.9118800E+02  0.7818608E-02  0.1130116E+00
         25   -1    0    0    0    0  0.00000000000E+00  0.00000000000E+00  0.99999998245E-14  0.12500000000E+03  0.12500000000E+03 0.  0.
        -13    1    3    3    0    0 -0.10519435762E+02  0.33531984103E+02  0.52247156247E+01  0.35529724233E+02  0.10566000000E+00 0.  1.
         23    2    1    0    0    0  0.27236672946E+02  0.15642583981E+02 -0.23104387668E+02  0.86008468659E+02  0.76662358200E+02 0.  0.
         13    1    3    3    0    0  0.37756108708E+02 -0.17889400123E+02 -0.28329103293E+02  0.50478744427E+02  0.10566000000E+00 0. -1.
         22    1    1    0    0    0 -0.27236672946E+02 -0.15642583981E+02  0.23104387668E+02  0.38991531341E+02  0.00000000000E+00 0. -1.
</event>
<event>
 5    1  0.1325686E-009  0.9118800E+02  0.7818608E-02  0.1130116E+00
         25   -1    0    0    0    0  0.00000000000E+00  0.00000000000E+00  0.99999998245E-14  0.12500000000E+03  0.12500000000E+03 0.  0.
        -13    1    3    3    0    0  0.24540785734E+02  0.27538951850E+02 -0.18052027580E+01  0.36931205700E+02  0.10566000000E+00 0.  1.
         23    2    1    0    0    0  0.73271282597E+00 -0.25822097269E+02 -0.12449183904E+02  0.96324230520E+02  0.91956824814E+02 0.  0.
         13    1    3    3    0    0 -0.23808072908E+02 -0.53361049118E+02 -0.10643981146E+02  0.59393024820E+02  0.10566000000E+00 0. -1.
         22    1    1    0    0    0 -0.73271282597E+00  0.25822097269E+02  0.12449183904E+02  0.28675769480E+02  0.00000000000E+00 0. -1.
</event>
<event>
 5    1  0.1325686E-009  0.9118800E+02  0.7818608E-02  0.1130116E+00
         25   -1    0    0    0    0  0.00000000000E+00  0.00000000000E+00  0.99999998245E-14  0.12500000000E+03  0.12500000000E+03 0.  0.
        -13    1    3    3    0    0  0.32859151111E+02 -0.12368523749E+02 -0.37132188334E+02  0.51102981968E+02  0.10566000000E+00 0. -1.
         23    2    1    0    0    0  0.23936377128E+02 -0.18961419568E+02  0.44508898159E+01  0.94140706388E+02  0.88939173580E+02 0.  0.
         13    1    3    3    0    0 -0.89227739829E+01 -0.65928958193E+01  0.41583078150E+02  0.43037724421E+02  0.10566000000E+00 0.  1.
         22    1    1    0    0    0 -0.23936377128E+02  0.18961419568E+02 -0.44508898159E+01  0.30859293612E+02  0.00000000000E+00 0. -1.
</event>
<event>
 5    1  0.1325686E-009  0.9118800E+02  0.7818608E-02  0.1130116E+00
         25   -1    0    0    0    0  0.00000000000E+00  0.00000000000E+00  0.99999998245E-14  0.12500000000E+03  0.12500000000E+03 0.  0.
        -13    1    3    3    0    0 -0.37740404625E+02 -0.15353574045E+02 -0.34731653270E+02  0.53538484103E+02  0.10566000000E+00 0.  1.
         23    2    1    0    0    0 -0.18720393189E+02  0.16080744005E+02 -0.20420501955E+02  0.92968135412E+02  0.87275620037E+02 0.  0.
         13    1    3    3    0    0  0.19020011436E+02  0.31434318050E+02  0.14311151315E+02  0.39429651308E+02  0.10566000000E+00 0. -1.
         22    1    1    0    0    0  0.18720393189E+02 -0.16080744005E+02  0.20420501955E+02  0.32031864588E+02  0.00000000000E+00 0.  1.
</event>
<event>
 5    1  0.1325686E-009  0.9118800E+02  0.7818608E-02  0.1130116E+00
         25   -1    0    0    0    0  0.00000000000E+00  0.00000000000E+00  0.99999998245E-14  0.12500000000E+03  0.12500000000E+03 0.  0.
        -13    1    3    3    0    0 -0.34583427742E+02 -0.41813742917E+01 -0.66595671437E+00  0.34841814357E+02  0.10566000000E+00 0.  1.
         23    2    1    0    0    0  0.15782201316E+02  0.26377003643E+02 -0.47626569759E+01  0.93895223822E+02  0.88593487095E+02 0.  0.
         13    1    3    3    0    0  0.50365629058E+02  0.30558377935E+02 -0.40967002616E+01  0.59053409465E+02  0.10566000000E+00 0. -1.
         22    1    1    0    0    0 -0.15782201316E+02 -0.26377003643E+02  0.47626569759E+01  0.31104776178E+02  0.00000000000E+00 0. -1.
</event>
<event>
 5    1  0.1325686E-009  0.9118800E+02  0.7818608E-02  0.1130116E+00
         25   -1    0    0    0    0  0.00000000000E+00  0.00000000000E+00  0.99999998245E-14  0.12500000000E+03  0.12500000000E+03 0.  0.
        -13    1    3    3    0    0 -0.24814330829E+02  0.26060370121E+02 -0.13586751828E+01  0.36010429984E+02  0.10566000000E+00 0. -1.
         23    2    1    0    0    0  0.29262050828E+02  0.75369179981E+00 -0.14105703344E+00  0.95727904635E+02  0.91142614395E+02 0.  0.
         13    1    3    3    0    0  0.54076381656E+02 -0.25306678322E+02  0.12176181494E+01  0.59717474651E+02  0.10566000000E+00 0.  1.
         22    1    1    0    0    0 -0.29262050828E+02 -0.75369179981E+00  0.14105703344E+00  0.29272095365E+02  0.00000000000E+00 0.  1.
</event>
<event>
 5    1  0.1325686E-009  0.9118800E+02  0.7818608E-02  0.1130116E+00
         25   -1    0    0    0    0  0.00000000000E+00  0.00000000000E+00  0.99999998245E-14  0.12500000000E+03  0.12500000000E+03 0.  0.
        -13    1    3    3    0    0  0.22483464903E+02  0.39134619708E+02  0.19172605831E+02  0.49036972094E+02  0.10566000000E+00 0. -1.
         23    2    1    0    0    0  0.20888689632E+02 -0.67999740991E+01  0.20407505619E+02  0.95015949442E+02  0.90160897070E+02 0.  0.
         13    1    3    3    0    0 -0.15947752717E+01 -0.45934593808E+02  0.12348997887E+01  0.45978977348E+02  0.10566000000E+00 0.  1.
         22    1    1    0    0    0 -0.20888689632E+02  0.67999740991E+01 -0.20407505619E+02  0.29984050558E+02  0.00000000000E+00 0.  1.
</event>
<event>
 5    1  0.1325686E-009  0.9118800E+02  0.7818608E-02  0.1130116E+00
         25   -1    0    0    0    0  0.00000000000E+00  0.00000000000E+00  0.99999998245E-14  0.12500000000E+03  0.12500000000E+03 0.  0.
        -13    1    3    3    0    0  0.37847390003E+02 -0.39014274330E+02 -0.20444286461E+02  0.58073389297E+02  0.10566000000E+00 0.  1.
         23    2    1    0    0    0  0.88552888855E+01 -0.26496943008E+02  0.22662096590E+01  0.96970732506E+02  0.92831477024E+02 0.  0.
         13    1    3    3    0    0 -0.28992101118E+02  0.12517331321E+02  0.22710496121E+02  0.38897343209E+02  0.10566000000E+00 0. -1.
         22    1    1    0    0    0 -0.88552888855E+01  0.26496943008E+02 -0.22662096590E+01  0.28029267494E+02  0.00000000000E+00 0.  1.
</event>
<event>
 5    1  0.1325686E-009  0.9118800E+02  0.7818608E-02  0.1130116E+00
         25   -1    0    0    0    0  0.00000000000E+00  0.00000000000E+00  0.99999998245E-14  0.12500000000E+03  0.12500000000E+03 0.  0.
        -13    1    3    3    0    0 -0.36919610267E+02  0.18323150161E+01 -0.36992027726E+02  0.52295662152E+02  0.10566000000E+00 0.  1.
         23    2    1    0    0    0 -0.94994355929E+01  0.12802993768E+02 -0.39959255178E+02  0.81977935889E+02  0.69781687943E+02 0.  0.
         13    1    3    3    0    0  0.27420174674E+02  0.10970678752E+02 -0.29672274521E+01  0.29682273737E+02  0.10566000000E+00 0. -1.
         22    1    1    0    0    0  0.94994355929E+01 -0.12802993768E+02  0.39959255178E+02  0.43022064111E+02  0.00000000000E+00 0.  1.
</event>
<event>
 5    1  0.1325686E-009  0.9118800E+02  0.7818608E-02  0.1130116E+00
         25   -1    0    0    0    0  0.00000000000E+00  0.00000000000E+00  0.99999998245E-14  0.12500000000E+03  0.12500000000E+03 0.  0.
        -13    1    3    3    0    0  0.24995384386E+02  0.77648715867E+01 -0.28784306736E+02  0.38905140402E+02  0.10566000000E+00 0.  1.
         23    2    1    0    0    0 -0.27344540543E+02 -0.35954846276E+01 -0.10064684657E+02  0.95641027190E+02  0.91023385993E+02 0.  0.
         13    1    3    3    0    0 -0.52339924929E+02 -0.11360356214E+02  0.18719622080E+02  0.56735886789E+02  0.10566000000E+00 0. -1.
         22    1    1    0    0    0  0.27344540543E+02  0.35954846276E+01  0.10064684657E+02  0.29358972810E+02  0.00000000000E+00 0. -1.
</event>
<event>
 5    1  0.1325686E-009  0.9118800E+02  0.7818608E-02  0.1130116E+00
         25   -1    0    0    0    0  0.00000000000E+00  0.00000000000E+00  0.99999998245E-14  0.12500000000E+03  0.12500000000E+03 0.  0.
        -13    1    3    3    0    0 -0.40991339471E+02 -0.24732415973E+02 -0.32549372186E+02  0.57891753344E+02  0.10566000000E+00 0.  1.
         23    2    1    0    0    0 -0.16209242178E+02 -0.24021071441E+02 -0.39303631518E+01  0.95756211605E+02  0.91181428489E+02 0.  0.
         13    1    3    3    0    0  0.24782097293E+02  0.71134453161E+00  0.28619009035E+02  0.37864458262E+02  0.10566000000E+00 0. -1.
         22    1    1    0    0    0  0.16209242178E+02  0.24021071441E+02  0.39303631518E+01  0.29243788395E+02  0.00000000000E+00 0.  1.
</event>
<event>
 5    1  0.1325686E-009  0.9118800E+02  0.7818608E-02  0.1130116E+00
         25   -1    0    0    0    0  0.00000000000E+00  0.00000000000E+00  0.99999998245E-14  0.12500000000E+03  0.12500000000E+03 0.  0.
        -13    1    3    3    0    0  0.29487325123E+02 -0.41979012750E+01  0.25604194726E+02  0.39277355685E+02  0.10566000000E+00 0.  1.
         23    2    1    0    0    0  0.21417508922E+01 -0.79932237500E+01 -0.25952243945E+02  0.97760365484E+02  0.93888718018E+02 0.  0.
         13    1    3    3    0    0 -0.27345574231E+02 -0.37953224750E+01 -0.51556438671E+02  0.58483009799E+02  0.10566000000E+00 0. -1.
         22    1    1    0    0    0 -0.21417508922E+01  0.79932237500E+01  0.25952243945E+02  0.27239634516E+02  0.00000000000E+00 0. -1.
</event>
<event>
 5    1  0.1325686E-009  0.9118800E+02  0.7818608E-02  0.1130116E+00
         25   -1    0    0    0    0  0.00000000000E+00  0.00000000000E+00  0.99999998245E-14  0.12500000000E+03  0.12500000000E+03 0.  0.
        -13    1    3    3    0    0 -0.21793760624E+02 -0.27695304629E+02 -0.84145428910E+00  0.35252192981E+02  0.10566000000E+00 0.  1.
         23    2    1    0    0    0 -0.63317514731E+01  0.29267809984E+02 -0.58511601332E+01  0.94488824132E+02  0.89427098985E+02 0.  0.
         13    1    3    3    0    0  0.15462009151E+02  0.56963114613E+02 -0.50097058441E+01  0.59236631150E+02  0.10566000000E+00 0. -1.
         22    1    1    0    0    0  0.63317514731E+01 -0.29267809984E+02  0.58511601332E+01  0.30511175868E+02  0.00000000000E+00 0. -1.
</event>
<event>
 5    1  0.1325686E-009  0.9118800E+02  0.7818608E-02  0.1130116E+00
         25   -1    0    0    0    0  0.00000000000E+00  0.00000000000E+00  0.99999998245E-14  0.12500000000E+03  0.12500000000E+03 0.  0.
        -13    1    3    3    0    0 -0.51208951126E+02 -0.26306857851E+02  0.22396137094E+02  0.61773825899E+02  0.10566000000E+00 0.  1.
         23    2    1    0    0    0 -0.21524171712E+02 -0.10179698068E+02  0.16409608828E+02  0.96083024320E+02  0.91628358492E+02 0.  0.
         13    1    3    3    0    0  0.29684779414E+02  0.16127159784E+02 -0.59865282660E+01  0.34309198421E+02  0.10566000000E+00 0. -1.
         22    1    1    0    0    0  0.21524171712E+02  0.10179698068E+02 -0.16409608828E+02  0.28916975680E+02  0.00000000000E+00 0.  1.
</event>
<event>
 5    1  0.1325686E-009  0.9118800E+02  0.7818608E-02  0.1130116E+00
         25   -1    0    0    0    0  0.00000000000E+00  0.00000000000E+00  0.99999998245E-14  0.12500000000E+03  0.12500000000E+03 0.  0.
        -13    1    3    3    0    0  0.34377090498E+02 -0.36285708105E+02  0.27039935029E+02  0.56829624442E+02  0.10566000000E+00 0. -1.
         23    2    1    0    0    0  0.26634141220E+02 -0.13596510663E+01  0.13772998208E+02  0.94984643777E+02  0.90117484120E+02 0.  0.
         13    1    3    3    0    0 -0.77429492780E+01  0.34926057039E+02 -0.13266936821E+02  0.38155019335E+02  0.10566000000E+00 0.  1.
         22    1    1    0    0    0 -0.26634141220E+02  0.13596510663E+01 -0.13772998208E+02  0.30015356223E+02  0.00000000000E+00 0. -1.
</event>
<event>
 5    1  0.1325686E-009  0.9118800E+02  0.7818608E-02  0.1130116E+00
         25   -1    0    0    0    0  0.00000000000E+00  0.00000000000E+00  0.99999998245E-14  0.12500000000E+03  0.12500000000E+03 0.  0.
        -13    1    3    3    0    0  0.25827279017E+02  0.25772016023E+02  0.17271402372E+02  0.40367779915E+02  0.10566000000E+00 0. -1.
         23    2    1    0    0    0  0.30589265796E+02 -0.19572353900E+02  0.14003385035E+02  0.86078604707E+02  0.76776631710E+02 0.  0.
         13    1    3    3    0    0  0.47619867788E+01 -0.45344369923E+02 -0.32680173368E+01  0.45710824792E+02  0.10566000000E+00 0.  1.
         22    1    1    0    0    0 -0.30589265796E+02  0.19572353900E+02 -0.14003385035E+02  0.38921395293E+02  0.00000000000E+00 0.  1.
</event>
<event>
 5    1  0.1325686E-009  0.9118800E+02  0.7818608E-02  0.1130116E+00
         25   -1    0    0    0    0  0.00000000000E+00  0.00000000000E+00  0.99999998245E-14  0.12500000000E+03  0.12500000000E+03 0.  0.
        -13    1    3    3    0    0 -0.15099556026E+02 -0.27794636012E+02 -0.93667738083E+01  0.32989180026E+02  0.10566000000E+00 0.  1.
         23    2    1    0    0    0  0.19981016726E+02  0.76263865505E+01  0.23904349908E+02  0.92924764292E+02  0.87213479882E+02 0.  0.
         13    1    3    3    0    0  0.35080572751E+02  0.35421022562E+02  0.33271123716E+02  0.59935584266E+02  0.10566000000E+00 0. -1.
         22    1    1    0    0    0 -0.19981016726E+02 -0.76263865505E+01 -0.23904349908E+02  0.32075235708E+02  0.00000000000E+00 0. -1.
</event>
<event>
 5    1  0.1325686E-009  0.9118800E+02  0.7818608E-02  0.1130116E+00
         25   -1    0    0    0    0  0.00000000000E+00  0.00000000000E+00  0.99999998245E-14  0.12500000000E+03  0.12500000000E+03 0.  0.
        -13    1    3    3    0    0  0.28389220511E+02  0.37166216202E+02 -0.70032045887E+01  0.47289866848E+02  0.10566000000E+00 0.  1.
         23    2    1    0    0    0  0.73517136567E+01  0.98438384863E+01  0.26762614632E+02  0.95551971344E+02  0.90901005692E+02 0.  0.
         13    1    3    3    0    0 -0.21037506854E+02 -0.27322377716E+02  0.33765819220E+02  0.48262104495E+02  0.10566000000E+00 0. -1.
         22    1    1    0    0    0 -0.73517136567E+01 -0.98438384863E+01 -0.26762614632E+02  0.29448028656E+02  0.00000000000E+00 0. -1.
</event>
<event>
 5    1  0.1325686E-009  0.9118800E+02  0.7818608E-02  0.1130116E+00
         25   -1    0    0    0    0  0.00000000000E+00  0.00000000000E+00  0.99999998245E-14  0.12500000000E+03  0.12500000000E+03 0.  0.
        -13    1    3    3    0    0 -0.81600710041E+01 -0.55342116897E+02  0.23032412626E+02  0.60496610292E+02  0.10566000000E+00 0. -1.
         23    2    1    0    0    0 -0.11163936598E+02 -0.26801358034E+02  0.23496567695E+01  0.95871540381E+02  0.91339395090E+02 0.  0.
         13    1    3    3    0    0 -0.30038655939E+01  0.28540758863E+02 -0.20682755856E+02  0.35374930089E+02  0.10566000000E+00 0.  1.
         22    1    1    0    0    0  0.11163936598E+02  0.26801358034E+02 -0.23496567695E+01  0.29128459619E+02  0.00000000000E+00 0. -1.
</event>
<event>
 5    1  0.1325686E-009  0.9118800E+02  0.7818608E-02  0.1130116E+00
         25   -1    0    0    0    0  0.00000000000E+00  0.00000000000E+00  0.99999998245E-14  0.12500000000E+03  0.12500000000E+03 0.  0.
        -13    1    3    3    0    0 -0.48548411280E+02  0.25467914344E+02  0.26741261749E+02  0.60997287996E+02  0.10566000000E+00 0.  1.
         23    2    1    0    0    0 -0.16998045704E+02  0.19793183573E+02  0.11776078815E+02  0.96375190726E+02  0.92026070662E+02 0.  0.
         13    1    3    3    0    0  0.31550365576E+02 -0.56747307703E+01 -0.14965182934E+02  0.35377902730E+02  0.10566000000E+00 0. -1.
         22    1    1    0    0    0  0.16998045704E+02 -0.19793183573E+02 -0.11776078815E+02  0.28624809274E+02  0.00000000000E+00 0.  1.
</event>
<event>
 5    1  0.1325686E-009  0.9118800E+02  0.7818608E-02  0.1130116E+00
         25   -1    0    0    0    0  0.00000000000E+00  0.00000000000E+00  0.99999998245E-14  0.12500000000E+03  0.12500000000E+03 0.  0.
        -13    1    3    3    0    0  0.13203471127E+02 -0.50422201074E+02  0.21334612417E+02  0.56319684498E+02  0.10566000000E+00 0. -1.
         23    2    1    0    0    0  0.12743215794E+02 -0.28509082499E+02 -0.78333457861E+01  0.92804990450E+02  0.87041642979E+02 0.  0.
         13    1    3    3    0    0 -0.46025533279E+00  0.21913118575E+02 -0.29167958203E+02  0.36485305952E+02  0.10566000000E+00 0.  1.
         22    1    1    0    0    0 -0.12743215794E+02  0.28509082499E+02  0.78333457861E+01  0.32195009550E+02  0.00000000000E+00 0. -1.
</event>
<event>
 5    1  0.1325686E-009  0.9118800E+02  0.7818608E-02  0.1130116E+00
         25   -1    0    0    0    0  0.00000000000E+00  0.00000000000E+00  0.99999998245E-14  0.12500000000E+03  0.12500000000E+03 0.  0.
        -13    1    3    3    0    0 -0.31003016425E+02  0.33031985809E+02 -0.36185485325E+02  0.57980165800E+02  0.10566000000E+00 0.  1.
         23    2    1    0    0    0 -0.54727619741E+01  0.38583436389E+01 -0.26123433900E+02  0.98032023843E+02  0.94249700056E+02 0.  0.
         13    1    3    3    0    0  0.25530254451E+02 -0.29173642170E+02  0.10062051424E+02  0.40051858043E+02  0.10566000000E+00 0. -1.
         22    1    1    0    0    0  0.54727619741E+01 -0.38583436389E+01  0.26123433900E+02  0.26967976157E+02  0.00000000000E+00 0.  1.
</event>
<event>
 5    1  0.1325686E-009  0.9118800E+02  0.7818608E-02  0.1130116E+00
         25   -1    0    0    0    0  0.00000000000E+00  0.00000000000E+00  0.99999998245E-14  0.12500000000E+03  0.12500000000E+03 0.  0.
        -13    1    3    3    0    0  0.37293330771E+02  0.37783832292E+01 -0.48185291086E+02  0.61048359035E+02  0.10566000000E+00 0.  1.
         23    2    1    0    0    0  0.26249492150E+02  0.53746470747E+01 -0.19402663220E+02  0.91918494452E+02  0.85759102216E+02 0.  0.
         13    1    3    3    0    0 -0.11043838621E+02  0.15962638455E+01  0.28782627866E+02  0.30870135417E+02  0.10566000000E+00 0. -1.
         22    1    1    0    0    0 -0.26249492150E+02 -0.53746470747E+01  0.19402663220E+02  0.33081505548E+02  0.00000000000E+00 0.  1.
</event>
<event>
 5    1  0.1325686E-009  0.9118800E+02  0.7818608E-02  0.1130116E+00
         25   -1    0    0    0    0  0.00000000000E+00  0.00000000000E+00  0.99999998245E-14  0.12500000000E+03  0.12500000000E+03 0.  0.
        -13    1    3    3    0    0 -0.31375591338E+02 -0.78618286815E+01 -0.17017062527E+02  0.36548976226E+02  0.10566000000E+00 0. -1.
         23    2    1    0    0    0  0.14665781842E+02  0.25462615922E+02 -0.10670881015E+02  0.93738239521E+02  0.88371714254E+02 0.  0.
         13    1    3    3    0    0  0.46041373180E+02  0.33324444604E+02  0.63461815128E+01  0.57189263295E+02  0.10566000000E+00 0.  1.
         22    1    1    0    0    0 -0.14665781842E+02 -0.25462615922E+02  0.10670881015E+02  0.31261760479E+02  0.00000000000E+00 0.  1.
</event>
<event>
 5    1  0.1325686E-009  0.9118800E+02  0.7818608E-02  0.1130116E+00
         25   -1    0    0    0    0  0.00000000000E+00  0.00000000000E+00  0.99999998245E-14  0.12500000000E+03  0.12500000000E+03 0.  0.
        -13    1    3    3    0    0  0.29066629865E+01 -0.36971062886E+02  0.92431273659E+01  0.38219821404E+02  0.10566000000E+00 0. -1.
         23    2    1    0    0    0 -0.33071305186E+02 -0.34498897113E+02 -0.49053388665E+01  0.76958898035E+02  0.60122579025E+02 0.  0.
         13    1    3    3    0    0 -0.35977968172E+02  0.24721657733E+01 -0.14148466232E+02  0.38739076630E+02  0.10566000000E+00 0.  1.
         22    1    1    0    0    0  0.33071305186E+02  0.34498897113E+02  0.49053388665E+01  0.48041101965E+02  0.00000000000E+00 0. -1.
</event>
<event>
 5    1  0.1325686E-009  0.9118800E+02  0.7818608E-02  0.1130116E+00
         25   -1    0    0    0    0  0.00000000000E+00  0.00000000000E+00  0.99999998245E-14  0.12500000000E+03  0.12500000000E+03 0.  0.
        -13    1    3    3    0    0  0.37863446310E+02 -0.10274403357E+02  0.79677743995E+01  0.40033742315E+02  0.10566000000E+00 0.  1.
         23    2    1    0    0    0 -0.16958673101E+02 -0.22115381800E+02  0.75681582244E+01  0.96121569911E+02  0.91680927557E+02 0.  0.
         13    1    3    3    0    0 -0.54822119412E+02 -0.11840978443E+02 -0.39961617509E+00  0.56087827596E+02  0.10566000000E+00 0. -1.
         22    1    1    0    0    0  0.16958673101E+02  0.22115381800E+02 -0.75681582244E+01  0.28878430089E+02  0.00000000000E+00 0. -1.
</event>
<event>
 5    1  0.1325686E-009  0.9118800E+02  0.7818608E-02  0.1130116E+00
         25   -1    0    0    0    0  0.00000000000E+00  0.00000000000E+00  0.99999998245E-14  0.12500000000E+03  0.12500000000E+03 0.  0.
        -13    1    3    3    0    0  0.21255952185E+02 -0.24657564462E+02 -0.44381689978E+01  0.32856042010E+02  0.10566000000E+00 0.  1.
         23    2    1    0    0    0 -0.19841941448E+02  0.20195791744E+02  0.92564312859E+01  0.95213188073E+02  0.90433937315E+02 0.  0.
         13    1    3    3    0    0 -0.41097893634E+02  0.44853356206E+02  0.13694600284E+02  0.62357146063E+02  0.10566000000E+00 0. -1.
         22    1    1    0    0    0  0.19841941448E+02 -0.20195791744E+02 -0.92564312859E+01  0.29786811927E+02  0.00000000000E+00 0. -1.
</event>
<event>
 5    1  0.1325686E-009  0.9118800E+02  0.7818608E-02  0.1130116E+00
         25   -1    0    0    0    0  0.00000000000E+00  0.00000000000E+00  0.99999998245E-14  0.12500000000E+03  0.12500000000E+03 0.  0.
        -13    1    3    3    0    0 -0.67473079276E+01  0.20100175493E+02 -0.39430338679E+02  0.44769476114E+02  0.10566000000E+00 0. -1.
         23    2    1    0    0    0 -0.13790190795E+02  0.24186002997E+02  0.10414215552E+02  0.95274792033E+02  0.90519047765E+02 0.  0.
         13    1    3    3    0    0 -0.70428828673E+01  0.40858275038E+01  0.49844554232E+02  0.50505315919E+02  0.10566000000E+00 0.  1.
         22    1    1    0    0    0  0.13790190795E+02 -0.24186002997E+02 -0.10414215552E+02  0.29725207967E+02  0.00000000000E+00 0.  1.
</event>
<event>
 4    1  0.1325686E-009  0.9118800E+02  0.7818608E-02  0.1130116E+00
         25   -1    0    0    0    0  0.00000000000E+00  0.00000000000E+00  0.99999998245E-14  0.12500000000E+03  0.12500000000E+03 0.  0.
        -13    1    1    0    0    0  0.23872684289E+02 -0.32049493534E+02 -0.96621726539E+01  0.41115007423E+02  0.10566000000E+00 0.  1.
         13    1    1    0    0    0  0.26492122492E+02  0.11401767954E+02  0.47589095735E+01  0.29231682315E+02  0.10566000000E+00 0. -1.
         22    1    1    0    0    0 -0.50364806781E+02  0.20647725580E+02  0.49032630804E+01  0.54653310262E+02  0.00000000000E+00 0.  1.
</event>
<event>
 5    1  0.1325686E-009  0.9118800E+02  0.7818608E-02  0.1130116E+00
         25   -1    0    0    0    0  0.00000000000E+00  0.00000000000E+00  0.99999998245E-14  0.12500000000E+03  0.12500000000E+03 0.  0.
        -13    1    3    3    0    0  0.13833289061E+02 -0.16460558571E+02 -0.32789211903E+02  0.39210374341E+02  0.10566000000E+00 0. -1.
         23    2    1    0    0    0 -0.28795124578E+02 -0.69914540954E+00  0.15213762975E+01  0.96156238290E+02  0.91728183087E+02 0.  0.
         13    1    3    3    0    0 -0.42628413639E+02  0.15761413161E+02  0.34310588200E+02  0.56945863949E+02  0.10566000000E+00 0.  1.
         22    1    1    0    0    0  0.28795124578E+02  0.69914540954E+00 -0.15213762975E+01  0.28843761710E+02  0.00000000000E+00 0.  1.
</event>
<event>
 5    1  0.1325686E-009  0.9118800E+02  0.7818608E-02  0.1130116E+00
         25   -1    0    0    0    0  0.00000000000E+00  0.00000000000E+00  0.99999998245E-14  0.12500000000E+03  0.12500000000E+03 0.  0.
        -13    1    3    3    0    0 -0.38846735643E+01  0.48800420202E+02 -0.18649492287E+02  0.52386891750E+02  0.10566000000E+00 0. -1.
         23    2    1    0    0    0 -0.10845013287E+02  0.21448710156E+02  0.15279145738E+02  0.96519940747E+02  0.92222476581E+02 0.  0.
         13    1    3    3    0    0 -0.69603397227E+01 -0.27351710046E+02  0.33928638025E+02  0.44133048997E+02  0.10566000000E+00 0.  1.
         22    1    1    0    0    0  0.10845013287E+02 -0.21448710156E+02 -0.15279145738E+02  0.28480059253E+02  0.00000000000E+00 0. -1.
</event>
<event>
 5    1  0.1325686E-009  0.9118800E+02  0.7818608E-02  0.1130116E+00
         25   -1    0    0    0    0  0.00000000000E+00  0.00000000000E+00  0.99999998245E-14  0.12500000000E+03  0.12500000000E+03 0.  0.
        -13    1    3    3    0    0  0.69787821913E+01  0.17317552066E+01 -0.41467162332E+02  0.42086091442E+02  0.10566000000E+00 0.  1.
         23    2    1    0    0    0 -0.10267205210E+02 -0.23353815655E+02  0.62939806514E+01  0.98723957663E+02  0.95162962416E+02 0.  0.
         13    1    3    3    0    0 -0.17245987401E+02 -0.25085570861E+02  0.47761142984E+02  0.56637866221E+02  0.10566000000E+00 0. -1.
         22    1    1    0    0    0  0.10267205210E+02  0.23353815655E+02 -0.62939806514E+01  0.26276042337E+02  0.00000000000E+00 0. -1.
</event>
<event>
 5    1  0.1325686E-009  0.9118800E+02  0.7818608E-02  0.1130116E+00
         25   -1    0    0    0    0  0.00000000000E+00  0.00000000000E+00  0.99999998245E-14  0.12500000000E+03  0.12500000000E+03 0.  0.
        -13    1    3    3    0    0  0.24356691105E+02  0.41457752289E+01  0.18138952460E+02  0.30650752262E+02  0.10566000000E+00 0. -1.
         23    2    1    0    0    0 -0.28593074346E+02  0.21494132903E+02  0.14214681627E+02  0.86508197969E+02  0.77472895211E+02 0.  0.
         13    1    3    3    0    0 -0.52949765452E+02  0.17348357674E+02 -0.39242708329E+01  0.55857445708E+02  0.10566000000E+00 0.  1.
         22    1    1    0    0    0  0.28593074346E+02 -0.21494132903E+02 -0.14214681627E+02  0.38491802031E+02  0.00000000000E+00 0.  1.
</event>
<event>
 5    1  0.1325686E-009  0.9118800E+02  0.7818608E-02  0.1130116E+00
         25   -1    0    0    0    0  0.00000000000E+00  0.00000000000E+00  0.99999998245E-14  0.12500000000E+03  0.12500000000E+03 0.  0.
        -13    1    3    3    0    0  0.66358158266E+01  0.11588839526E+02  0.47744198882E+02  0.49576758104E+02  0.10566000000E+00 0. -1.
         23    2    1    0    0    0 -0.24707632659E+02  0.76321845545E+01  0.14872734282E+02  0.95168547173E+02  0.90372212507E+02 0.  0.
         13    1    3    3    0    0 -0.31343448486E+02 -0.39566549714E+01 -0.32871464599E+02  0.45591789069E+02  0.10566000000E+00 0.  1.
         22    1    1    0    0    0  0.24707632659E+02 -0.76321845545E+01 -0.14872734282E+02  0.29831452827E+02  0.00000000000E+00 0. -1.
</event>
<event>
 5    1  0.1325686E-009  0.9118800E+02  0.7818608E-02  0.1130116E+00
         25   -1    0    0    0    0  0.00000000000E+00  0.00000000000E+00  0.99999998245E-14  0.12500000000E+03  0.12500000000E+03 0.  0.
        -13    1    3    3    0    0 -0.24744929036E+02  0.43901702464E+02  0.11021671752E+02  0.51586426552E+02  0.10566000000E+00 0.  1.
         23    2    1    0    0    0 -0.27739625447E+02 -0.75791458082E+00  0.58040972044E+01  0.96649536180E+02  0.92397965590E+02 0.  0.
         13    1    3    3    0    0 -0.29946964110E+01 -0.44659617045E+02 -0.52175745476E+01  0.45063109628E+02  0.10566000000E+00 0. -1.
         22    1    1    0    0    0  0.27739625447E+02  0.75791458082E+00 -0.58040972044E+01  0.28350463820E+02  0.00000000000E+00 0.  1.
</event>
<event>
 5    1  0.1325686E-009  0.9118800E+02  0.7818608E-02  0.1130116E+00
         25   -1    0    0    0    0  0.00000000000E+00  0.00000000000E+00  0.99999998245E-14  0.12500000000E+03  0.12500000000E+03 0.  0.
        -13    1    3    3    0    0  0.14736468499E+02 -0.27551712811E+02  0.23727745573E+02  0.39233626606E+02  0.10566000000E+00 0.  1.
         23    2    1    0    0    0 -0.19777561253E+02 -0.85665836365E+01 -0.18220159403E+02  0.96777447086E+02  0.92570847309E+02 0.  0.
         13    1    3    3    0    0 -0.34514029751E+02  0.18985129175E+02 -0.41947904977E+02  0.57543820480E+02  0.10566000000E+00 0. -1.
         22    1    1    0    0    0  0.19777561253E+02  0.85665836365E+01  0.18220159403E+02  0.28222552914E+02  0.00000000000E+00 0. -1.
</event>
<event>
 5    1  0.1325686E-009  0.9118800E+02  0.7818608E-02  0.1130116E+00
         25   -1    0    0    0    0  0.00000000000E+00  0.00000000000E+00  0.99999998245E-14  0.12500000000E+03  0.12500000000E+03 0.  0.
        -13    1    3    3    0    0 -0.30483132894E+02  0.16631945424E+02 -0.47322320222E+02  0.58696304440E+02  0.10566000000E+00 0. -1.
         23    2    1    0    0    0 -0.25686845034E+02  0.64038523848E+00 -0.14561897477E+02  0.95465732459E+02  0.90782339223E+02 0.  0.
         13    1    3    3    0    0  0.47962878599E+01 -0.15991560185E+02  0.32760422745E+02  0.36769428019E+02  0.10566000000E+00 0.  1.
         22    1    1    0    0    0  0.25686845034E+02 -0.64038523848E+00  0.14561897477E+02  0.29534267541E+02  0.00000000000E+00 0. -1.
</event>
<event>
 5    1  0.1325686E-009  0.9118800E+02  0.7818608E-02  0.1130116E+00
         25   -1    0    0    0    0  0.00000000000E+00  0.00000000000E+00  0.99999998245E-14  0.12500000000E+03  0.12500000000E+03 0.  0.
        -13    1    3    3    0    0  0.41438818472E+02  0.20401378929E+02 -0.13363719469E+02  0.48083178978E+02  0.10566000000E+00 0.  1.
         23    2    1    0    0    0  0.17064831066E+02  0.17083069414E+01  0.23398560487E+02  0.95989322572E+02  0.91500440671E+02 0.  0.
         13    1    3    3    0    0 -0.24373987406E+02 -0.18693071988E+02  0.36762279956E+02  0.47906143594E+02  0.10566000000E+00 0. -1.
         22    1    1    0    0    0 -0.17064831066E+02 -0.17083069414E+01 -0.23398560487E+02  0.29010677428E+02  0.00000000000E+00 0. -1.
</event>
<event>
 5    1  0.1325686E-009  0.9118800E+02  0.7818608E-02  0.1130116E+00
         25   -1    0    0    0    0  0.00000000000E+00  0.00000000000E+00  0.99999998245E-14  0.12500000000E+03  0.12500000000E+03 0.  0.
        -13    1    3    3    0    0 -0.51285969898E+02 -0.31012969781E+02  0.14443920693E+01  0.59951250491E+02  0.10566000000E+00 0.  1.
         23    2    1    0    0    0 -0.19412926230E+02 -0.18524130226E+02 -0.10468242635E+02  0.96197409677E+02  0.91784271089E+02 0.  0.
         13    1    3    3    0    0  0.31873043668E+02  0.12488839555E+02 -0.11912634704E+02  0.36246159186E+02  0.10566000000E+00 0. -1.
         22    1    1    0    0    0  0.19412926230E+02  0.18524130226E+02  0.10468242635E+02  0.28802590323E+02  0.00000000000E+00 0.  1.
</event>
<event>
 5    1  0.1325686E-009  0.9118800E+02  0.7818608E-02  0.1130116E+00
         25   -1    0    0    0    0  0.00000000000E+00  0.00000000000E+00  0.99999998245E-14  0.12500000000E+03  0.12500000000E+03 0.  0.
        -13    1    3    3    0    0  0.30292841740E+02  0.29725450473E+01 -0.48617958532E+02  0.57360346412E+02  0.10566000000E+00 0.  1.
         23    2    1    0    0    0  0.25874885455E+02 -0.10165105317E+02 -0.15710455987E+02  0.93067923796E+02  0.87418424539E+02 0.  0.
         13    1    3    3    0    0 -0.44179562850E+01 -0.13137650364E+02  0.32907502545E+02  0.35707577383E+02  0.10566000000E+00 0. -1.
         22    1    1    0    0    0 -0.25874885455E+02  0.10165105317E+02  0.15710455987E+02  0.31932076204E+02  0.00000000000E+00 0.  1.
</event>
<event>
 5    1  0.1325686E-009  0.9118800E+02  0.7818608E-02  0.1130116E+00
         25   -1    0    0    0    0  0.00000000000E+00  0.00000000000E+00  0.99999998245E-14  0.12500000000E+03  0.12500000000E+03 0.  0.
        -13    1    3    3    0    0 -0.78234295725E+01  0.35395613506E+02 -0.46706695391E+02  0.59123447668E+02  0.10566000000E+00 0.  1.
         23    2    1    0    0    0 -0.16565069953E+02  0.20478072930E+02 -0.16527568661E+02  0.93904766614E+02  0.88606950368E+02 0.  0.
         13    1    3    3    0    0 -0.87416403805E+01 -0.14917540577E+02  0.30179126730E+02  0.34781318946E+02  0.10566000000E+00 0. -1.
         22    1    1    0    0    0  0.16565069953E+02 -0.20478072930E+02  0.16527568661E+02  0.31095233386E+02  0.00000000000E+00 0.  1.
</event>
<event>
 5    1  0.1325686E-009  0.9118800E+02  0.7818608E-02  0.1130116E+00
         25   -1    0    0    0    0  0.00000000000E+00  0.00000000000E+00  0.99999998245E-14  0.12500000000E+03  0.12500000000E+03 0.  0.
        -13    1    3    3    0    0  0.70944868881E+00  0.33796962121E+02  0.12380471802E+02  0.36000350167E+02  0.10566000000E+00 0. -1.
         23    2    1    0    0    0 -0.48728387354E+01 -0.67265403974E+01 -0.29386400489E+02  0.94462294834E+02  0.89390008998E+02 0.  0.
         13    1    3    3    0    0 -0.55822874242E+01 -0.40523502519E+02 -0.41766872292E+02  0.58461944668E+02  0.10566000000E+00 0.  1.
         22    1    1    0    0    0  0.48728387354E+01  0.67265403974E+01  0.29386400489E+02  0.30537705166E+02  0.00000000000E+00 0.  1.
</event>
<event>
 5    1  0.1325686E-009  0.9118800E+02  0.7818608E-02  0.1130116E+00
         25   -1    0    0    0    0  0.00000000000E+00  0.00000000000E+00  0.99999998245E-14  0.12500000000E+03  0.12500000000E+03 0.  0.
        -13    1    3    3    0    0 -0.22922199651E+02  0.74204358066E+01 -0.46598326218E+02  0.52458605345E+02  0.10566000000E+00 0.  1.
         23    2    1    0    0    0  0.11877812019E+02 -0.75346222241E+01 -0.25658571682E+02  0.95738843988E+02  0.91157616231E+02 0.  0.
         13    1    3    3    0    0  0.34800011670E+02 -0.14955058031E+02  0.20939754536E+02  0.43280238643E+02  0.10566000000E+00 0. -1.
         22    1    1    0    0    0 -0.11877812019E+02  0.75346222241E+01  0.25658571682E+02  0.29261156012E+02  0.00000000000E+00 0.  1.
</event>
<event>
 5    1  0.1325686E-009  0.9118800E+02  0.7818608E-02  0.1130116E+00
         25   -1    0    0    0    0  0.00000000000E+00  0.00000000000E+00  0.99999998245E-14  0.12500000000E+03  0.12500000000E+03 0.  0.
        -13    1    3    3    0    0  0.44730227801E+02 -0.88500325783E+01 -0.71626369066E+01  0.46156590941E+02  0.10566000000E+00 0.  1.
         23    2    1    0    0    0  0.90853728756E+01 -0.11721355522E+02  0.26090769763E+02  0.94988961324E+02  0.90123472698E+02 0.  0.
         13    1    3    3    0    0 -0.35644854926E+02 -0.28713229438E+01  0.33253406669E+02  0.48832370384E+02  0.10566000000E+00 0. -1.
         22    1    1    0    0    0 -0.90853728756E+01  0.11721355522E+02 -0.26090769763E+02  0.30011038676E+02  0.00000000000E+00 0. -1.
</event>
<event>
 5    1  0.1325686E-009  0.9118800E+02  0.7818608E-02  0.1130116E+00
         25   -1    0    0    0    0  0.00000000000E+00  0.00000000000E+00  0.99999998245E-14  0.12500000000E+03  0.12500000000E+03 0.  0.
        -13    1    3    3    0    0  0.10428383972E+02 -0.16285176538E+02 -0.33441123183E+02  0.38630014897E+02  0.10566000000E+00 0.  1.
         23    2    1    0    0    0 -0.27541866521E+02 -0.45107774870E+01  0.79107315742E+01  0.95991704651E+02  0.91503694804E+02 0.  0.
         13    1    3    3    0    0 -0.37970250493E+02  0.11774399051E+02  0.41351854758E+02  0.57361689754E+02  0.10566000000E+00 0. -1.
         22    1    1    0    0    0  0.27541866521E+02  0.45107774870E+01 -0.79107315742E+01  0.29008295349E+02  0.00000000000E+00 0. -1.
</event>
<event>
 5    1  0.1325686E-009  0.9118800E+02  0.7818608E-02  0.1130116E+00
         25   -1    0    0    0    0  0.00000000000E+00  0.00000000000E+00  0.99999998245E-14  0.12500000000E+03  0.12500000000E+03 0.  0.
        -13    1    3    3    0    0 -0.33061747080E+02  0.19198742175E+02  0.44287411444E+02  0.58506895299E+02  0.10566000000E+00 0. -1.
         23    2    1    0    0    0 -0.21369021588E+02 -0.48375415196E+01  0.26507401393E+02  0.90609896479E+02  0.83830031132E+02 0.  0.
         13    1    3    3    0    0  0.11692725492E+02 -0.24036283695E+02 -0.17780010051E+02  0.32103001180E+02  0.10566000000E+00 0.  1.
         22    1    1    0    0    0  0.21369021588E+02  0.48375415196E+01 -0.26507401393E+02  0.34390103521E+02  0.00000000000E+00 0. -1.
</event>
<event>
 5    1  0.1325686E-009  0.9118800E+02  0.7818608E-02  0.1130116E+00
         25   -1    0    0    0    0  0.00000000000E+00  0.00000000000E+00  0.99999998245E-14  0.12500000000E+03  0.12500000000E+03 0.  0.
        -13    1    3    3    0    0  0.33415497023E+02  0.16632791946E+02  0.48914369036E+02  0.61529439063E+02  0.10566000000E+00 0.  1.
         23    2    1    0    0    0  0.19710557218E+02  0.12939664737E+01  0.21487709391E+02  0.95812638524E+02  0.91258750983E+02 0.  0.
         13    1    3    3    0    0 -0.13704939805E+02 -0.15338825472E+02 -0.27426659646E+02  0.34283199461E+02  0.10566000000E+00 0. -1.
         22    1    1    0    0    0 -0.19710557218E+02 -0.12939664737E+01 -0.21487709391E+02  0.29187361476E+02  0.00000000000E+00 0.  1.
</event>
<event>
 5    1  0.1325686E-009  0.9118800E+02  0.7818608E-02  0.1130116E+00
         25   -1    0    0    0    0  0.00000000000E+00  0.00000000000E+00  0.99999998245E-14  0.12500000000E+03  0.12500000000E+03 0.  0.
        -13    1    3    3    0    0 -0.45060323932E+02 -0.12695515383E+02  0.14102709470E+02  0.48892806037E+02  0.10566000000E+00 0.  1.
         23    2    1    0    0    0 -0.18061355792E+02  0.20905467703E+02 -0.64252948364E+01  0.96635663825E+02  0.92379196556E+02 0.  0.
         13    1    3    3    0    0  0.26998968140E+02  0.33600983086E+02 -0.20528004306E+02  0.47742857788E+02  0.10566000000E+00 0. -1.
         22    1    1    0    0    0  0.18061355792E+02 -0.20905467703E+02  0.64252948364E+01  0.28364336175E+02  0.00000000000E+00 0.  1.
</event>
<event>
 5    1  0.1325686E-009  0.9118800E+02  0.7818608E-02  0.1130116E+00
         25   -1    0    0    0    0  0.00000000000E+00  0.00000000000E+00  0.99999998245E-14  0.12500000000E+03  0.12500000000E+03 0.  0.
        -13    1    3    3    0    0 -0.20401293942E+02  0.23668874138E+01  0.30017396183E+02  0.36371282465E+02  0.10566000000E+00 0.  1.
         23    2    1    0    0    0  0.25133321414E+02 -0.15636879056E+02 -0.27242743392E+01  0.95274295591E+02  0.90518362214E+02 0.  0.
         13    1    3    3    0    0  0.45534615356E+02 -0.18003766469E+02 -0.32741670522E+02  0.58903013126E+02  0.10566000000E+00 0. -1.
         22    1    1    0    0    0 -0.25133321414E+02  0.15636879056E+02  0.27242743392E+01  0.29725704409E+02  0.00000000000E+00 0. -1.
</event>
<event>
 5    1  0.1325686E-009  0.9118800E+02  0.7818608E-02  0.1130116E+00
         25   -1    0    0    0    0  0.00000000000E+00  0.00000000000E+00  0.99999998245E-14  0.12500000000E+03  0.12500000000E+03 0.  0.
        -13    1    3    3    0    0 -0.43180446996E+02 -0.19116531110E+02 -0.35813222183E+02  0.59267114082E+02  0.10566000000E+00 0. -1.
         23    2    1    0    0    0 -0.28205030251E+02 -0.44385832505E+01 -0.58247884528E+01  0.95859771565E+02  0.91323287781E+02 0.  0.
         13    1    3    3    0    0  0.14975416745E+02  0.14677947860E+02  0.29988433730E+02  0.36592657483E+02  0.10566000000E+00 0.  1.
         22    1    1    0    0    0  0.28205030251E+02  0.44385832505E+01  0.58247884528E+01  0.29140228435E+02  0.00000000000E+00 0. -1.
</event>
<event>
 5    1  0.1325686E-009  0.9118800E+02  0.7818608E-02  0.1130116E+00
         25   -1    0    0    0    0  0.00000000000E+00  0.00000000000E+00  0.99999998245E-14  0.12500000000E+03  0.12500000000E+03 0.  0.
        -13    1    3    3    0    0 -0.29908819128E+02  0.12226891179E+02 -0.54498725777E+01  0.32768072947E+02  0.10566000000E+00 0.  1.
         23    2    1    0    0    0  0.16892622604E+02 -0.26008893061E+02  0.32136965828E+01  0.93820662893E+02  0.88488223642E+02 0.  0.
         13    1    3    3    0    0  0.46801441732E+02 -0.38235784239E+02  0.86635691606E+01  0.61052589947E+02  0.10566000000E+00 0. -1.
         22    1    1    0    0    0 -0.16892622604E+02  0.26008893061E+02 -0.32136965828E+01  0.31179337107E+02  0.00000000000E+00 0. -1.
</event>
<event>
 5    1  0.1325686E-009  0.9118800E+02  0.7818608E-02  0.1130116E+00
         25   -1    0    0    0    0  0.00000000000E+00  0.00000000000E+00  0.99999998245E-14  0.12500000000E+03  0.12500000000E+03 0.  0.
        -13    1    3    3    0    0  0.20427582681E+02  0.14801006264E+02  0.33678266799E+02  0.42078411795E+02  0.10566000000E+00 0. -1.
         23    2    1    0    0    0 -0.26280672000E+02  0.10694746037E+02  0.80844520945E+01  0.95497293697E+02  0.90825786119E+02 0.  0.
         13    1    3    3    0    0 -0.46708254681E+02 -0.41062602273E+01 -0.25593814704E+02  0.53418881901E+02  0.10566000000E+00 0.  1.
         22    1    1    0    0    0  0.26280672000E+02 -0.10694746037E+02 -0.80844520945E+01  0.29502706303E+02  0.00000000000E+00 0.  1.
</event>
<event>
 5    1  0.1325686E-009  0.9118800E+02  0.7818608E-02  0.1130116E+00
         25   -1    0    0    0    0  0.00000000000E+00  0.00000000000E+00  0.99999998245E-14  0.12500000000E+03  0.12500000000E+03 0.  0.
        -13    1    3    3    0    0 -0.90960702790E+01  0.30193334839E+02 -0.17679312419E+02  0.36151697261E+02  0.10566000000E+00 0.  1.
         23    2    1    0    0    0  0.23190819164E+02 -0.78343791244E+01  0.15466317312E+02  0.96044887136E+02  0.91576316720E+02 0.  0.
         13    1    3    3    0    0  0.32286889443E+02 -0.38027713963E+02  0.33145629731E+02  0.59893189875E+02  0.10566000000E+00 0. -1.
         22    1    1    0    0    0 -0.23190819164E+02  0.78343791244E+01 -0.15466317312E+02  0.28955112864E+02  0.00000000000E+00 0. -1.
</event>
<event>
 5    1  0.1325686E-009  0.9118800E+02  0.7818608E-02  0.1130116E+00
         25   -1    0    0    0    0  0.00000000000E+00  0.00000000000E+00  0.99999998245E-14  0.12500000000E+03  0.12500000000E+03 0.  0.
        -13    1    3    3    0    0 -0.20395433000E+02 -0.65175320926E+01  0.37774703806E+02  0.43421093071E+02  0.10566000000E+00 0.  1.
         23    2    1    0    0    0 -0.22530286301E+02 -0.12292981767E+02 -0.14138058582E+02  0.95697851581E+02  0.91101387998E+02 0.  0.
         13    1    3    3    0    0 -0.21348533011E+01 -0.57754496743E+01 -0.51912762387E+02  0.52276758510E+02  0.10566000000E+00 0. -1.
         22    1    1    0    0    0  0.22530286301E+02  0.12292981767E+02  0.14138058582E+02  0.29302148419E+02  0.00000000000E+00 0. -1.
</event>
<event>
 5    1  0.1325686E-009  0.9118800E+02  0.7818608E-02  0.1130116E+00
         25   -1    0    0    0    0  0.00000000000E+00  0.00000000000E+00  0.99999998245E-14  0.12500000000E+03  0.12500000000E+03 0.  0.
        -13    1    3    3    0    0  0.46903770264E+02 -0.37579788507E+02 -0.10655434068E+02  0.61038951567E+02  0.10566000000E+00 0. -1.
         23    2    1    0    0    0  0.26728230095E+02 -0.10310835381E+02 -0.88819712575E+01  0.95006650343E+02  0.90148003781E+02 0.  0.
         13    1    3    3    0    0 -0.20175540169E+02  0.27268953126E+02  0.17734628100E+01  0.33967698775E+02  0.10566000000E+00 0.  1.
         22    1    1    0    0    0 -0.26728230095E+02  0.10310835381E+02  0.88819712575E+01  0.29993349657E+02  0.00000000000E+00 0. -1.
</event>
<event>
 5    1  0.1325686E-009  0.9118800E+02  0.7818608E-02  0.1130116E+00
         25   -1    0    0    0    0  0.00000000000E+00  0.00000000000E+00  0.99999998245E-14  0.12500000000E+03  0.12500000000E+03 0.  0.
        -13    1    3    3    0    0 -0.34190910094E+02 -0.15813346893E+02  0.19553801845E+02  0.42443404713E+02  0.10566000000E+00 0.  1.
         23    2    1    0    0    0  0.20830898083E+02 -0.14055662358E+02  0.71443604272E+01  0.98874727844E+02  0.95360798870E+02 0.  0.
         13    1    3    3    0    0  0.55021808177E+02  0.17576845344E+01 -0.12409441418E+02  0.56431323131E+02  0.10566000000E+00 0. -1.
         22    1    1    0    0    0 -0.20830898083E+02  0.14055662358E+02 -0.71443604272E+01  0.26125272156E+02  0.00000000000E+00 0. -1.
</event>
<event>
 5    1  0.1325686E-009  0.9118800E+02  0.7818608E-02  0.1130116E+00
         25   -1    0    0    0    0  0.00000000000E+00  0.00000000000E+00  0.99999998245E-14  0.12500000000E+03  0.12500000000E+03 0.  0.
        -13    1    3    3    0    0 -0.41166960251E+02 -0.21133435285E+02  0.41749962593E+02  0.62325045077E+02  0.10566000000E+00 0. -1.
         23    2    1    0    0    0 -0.18536941408E+02 -0.12112063373E+02  0.23054591660E+02  0.93033854275E+02  0.87369694796E+02 0.  0.
         13    1    3    3    0    0  0.22630018843E+02  0.90213719129E+01 -0.18695370934E+02  0.30708809199E+02  0.10566000000E+00 0.  1.
         22    1    1    0    0    0  0.18536941408E+02  0.12112063373E+02 -0.23054591660E+02  0.31966145725E+02  0.00000000000E+00 0. -1.
</event>
<event>
 5    1  0.1325686E-009  0.9118800E+02  0.7818608E-02  0.1130116E+00
         25   -1    0    0    0    0  0.00000000000E+00  0.00000000000E+00  0.99999998245E-14  0.12500000000E+03  0.12500000000E+03 0.  0.
        -13    1    3    3    0    0  0.23663993936E+01 -0.43306066549E+01 -0.45005563523E+02  0.45275444914E+02  0.10566000000E+00 0.  1.
         23    2    1    0    0    0 -0.93949546511E+01 -0.30714635170E+02 -0.86002116346E+01  0.91749171037E+02  0.85511945127E+02 0.  0.
         13    1    3    3    0    0 -0.11761354045E+02 -0.26384028515E+02  0.36405351888E+02  0.46473726124E+02  0.10566000000E+00 0. -1.
         22    1    1    0    0    0  0.93949546511E+01  0.30714635170E+02  0.86002116346E+01  0.33250828963E+02  0.00000000000E+00 0.  1.
</event>
<event>
 5    1  0.1325686E-009  0.9118800E+02  0.7818608E-02  0.1130116E+00
         25   -1    0    0    0    0  0.00000000000E+00  0.00000000000E+00  0.99999998245E-14  0.12500000000E+03  0.12500000000E+03 0.  0.
        -13    1    3    3    0    0  0.11448937022E+02  0.18067806525E+02 -0.46963984922E+02  0.51605724831E+02  0.10566000000E+00 0. -1.
         23    2    1    0    0    0 -0.66224002693E+01 -0.15153907220E+02 -0.24010640907E+02  0.95845103908E+02  0.91303209018E+02 0.  0.
         13    1    3    3    0    0 -0.18071337292E+02 -0.33221713744E+02  0.22953344015E+02  0.44239379077E+02  0.10566000000E+00 0.  1.
         22    1    1    0    0    0  0.66224002693E+01  0.15153907220E+02  0.24010640907E+02  0.29154896092E+02  0.00000000000E+00 0. -1.
</event>
<event>
 5    1  0.1325686E-009  0.9118800E+02  0.7818608E-02  0.1130116E+00
         25   -1    0    0    0    0  0.00000000000E+00  0.00000000000E+00  0.99999998245E-14  0.12500000000E+03  0.12500000000E+03 0.  0.
        -13    1    3    3    0    0 -0.12412511310E+02  0.24584850259E+02 -0.52907546906E+02  0.59646500174E+02  0.10566000000E+00 0.  1.
         23    2    1    0    0    0 -0.14685464432E+02  0.19540990800E+02 -0.18899644068E+02  0.94101622487E+02  0.88884225944E+02 0.  0.
         13    1    3    3    0    0 -0.22729531219E+01 -0.50438594587E+01  0.34007902838E+02  0.34455122313E+02  0.10566000000E+00 0. -1.
         22    1    1    0    0    0  0.14685464432E+02 -0.19540990800E+02  0.18899644068E+02  0.30898377513E+02  0.00000000000E+00 0. -1.
</event>
<event>
 5    1  0.1325686E-009  0.9118800E+02  0.7818608E-02  0.1130116E+00
         25   -1    0    0    0    0  0.00000000000E+00  0.00000000000E+00  0.99999998245E-14  0.12500000000E+03  0.12500000000E+03 0.  0.
        -13    1    3    3    0    0 -0.36094701094E+01  0.34794561572E+02 -0.50507322072E+01  0.35344177022E+02  0.10566000000E+00 0. -1.
         23    2    1    0    0    0  0.29258900877E+02 -0.11064495526E+02 -0.10440444553E+02  0.92022595247E+02  0.85910702545E+02 0.  0.
         13    1    3    3    0    0  0.32868370986E+02 -0.45859057099E+02 -0.53897123462E+01  0.56678418225E+02  0.10566000000E+00 0.  1.
         22    1    1    0    0    0 -0.29258900877E+02  0.11064495526E+02  0.10440444553E+02  0.32977404753E+02  0.00000000000E+00 0.  1.
</event>
<event>
 5    1  0.1325686E-009  0.9118800E+02  0.7818608E-02  0.1130116E+00
         25   -1    0    0    0    0  0.00000000000E+00  0.00000000000E+00  0.99999998245E-14  0.12500000000E+03  0.12500000000E+03 0.  0.
        -13    1    3    3    0    0  0.21304234971E+02 -0.24935626727E+02  0.21369306281E+02  0.39144786663E+02  0.10566000000E+00 0.  1.
         23    2    1    0    0    0 -0.70071494798E+01  0.23989697860E+02  0.14549931946E+02  0.96081039665E+02  0.91625650973E+02 0.  0.
         13    1    3    3    0    0 -0.28311384450E+02  0.48925324587E+02 -0.68193743354E+01  0.56936253001E+02  0.10566000000E+00 0. -1.
         22    1    1    0    0    0  0.70071494798E+01 -0.23989697860E+02 -0.14549931946E+02  0.28918960335E+02  0.00000000000E+00 0. -1.
</event>
<event>
 5    1  0.1325686E-009  0.9118800E+02  0.7818608E-02  0.1130116E+00
         25   -1    0    0    0    0  0.00000000000E+00  0.00000000000E+00  0.99999998245E-14  0.12500000000E+03  0.12500000000E+03 0.  0.
        -13    1    3    3    0    0 -0.39066578699E+02 -0.82481578448E+01  0.76977845789E+01  0.40663211021E+02  0.10566000000E+00 0. -1.
         23    2    1    0    0    0  0.44835011057E+01  0.15025700214E+02 -0.21773143004E+02  0.98168242596E+02  0.94430189289E+02 0.  0.
         13    1    3    3    0    0  0.43550079804E+02  0.23273858059E+02 -0.29470927583E+02  0.57505031576E+02  0.10566000000E+00 0.  1.
         22    1    1    0    0    0 -0.44835011057E+01 -0.15025700214E+02  0.21773143004E+02  0.26831757404E+02  0.00000000000E+00 0.  1.
</event>
<event>
 5    1  0.1325686E-009  0.9118800E+02  0.7818608E-02  0.1130116E+00
         25   -1    0    0    0    0  0.00000000000E+00  0.00000000000E+00  0.99999998245E-14  0.12500000000E+03  0.12500000000E+03 0.  0.
        -13    1    3    3    0    0 -0.25194002292E+01 -0.35872056850E+01  0.39594507614E+02  0.39836561340E+02  0.10566000000E+00 0. -1.
         23    2    1    0    0    0  0.18347069644E+02  0.22582439570E+02 -0.48789768564E+01  0.95497695740E+02  0.90826339434E+02 0.  0.
         13    1    3    3    0    0  0.20866469873E+02  0.26169645255E+02 -0.44473484470E+02  0.55661134400E+02  0.10566000000E+00 0.  1.
         22    1    1    0    0    0 -0.18347069644E+02 -0.22582439570E+02  0.48789768564E+01  0.29502304260E+02  0.00000000000E+00 0.  1.
</event>
<event>
 5    1  0.1325686E-009  0.9118800E+02  0.7818608E-02  0.1130116E+00
         25   -1    0    0    0    0  0.00000000000E+00  0.00000000000E+00  0.99999998245E-14  0.12500000000E+03  0.12500000000E+03 0.  0.
        -13    1    3    3    0    0 -0.38460054945E+01  0.35074045383E+02 -0.41018611806E+02  0.54106543932E+02  0.10566000000E+00 0.  1.
         23    2    1    0    0    0  0.43059134851E+00  0.42344421642E+02 -0.17343826643E+02  0.79239276932E+02  0.64690178799E+02 0.  0.
         13    1    3    3    0    0  0.42765968430E+01  0.72703762584E+01  0.23674785163E+02  0.25132733000E+02  0.10566000000E+00 0. -1.
         22    1    1    0    0    0 -0.43059134851E+00 -0.42344421642E+02  0.17343826643E+02  0.45760723068E+02  0.00000000000E+00 0.  1.
</event>
<event>
 5    1  0.1325686E-009  0.9118800E+02  0.7818608E-02  0.1130116E+00
         25   -1    0    0    0    0  0.00000000000E+00  0.00000000000E+00  0.99999998245E-14  0.12500000000E+03  0.12500000000E+03 0.  0.
        -13    1    3    3    0    0  0.19984286193E+02  0.29384015362E+02 -0.24869538369E+01  0.35622860032E+02  0.10566000000E+00 0.  1.
         23    2    1    0    0    0  0.31617497348E+01 -0.28410573631E+02 -0.54928666786E+01  0.95891084875E+02  0.91366138250E+02 0.  0.
         13    1    3    3    0    0 -0.16822536458E+02 -0.57794588993E+02 -0.30059128416E+01  0.60268224843E+02  0.10566000000E+00 0. -1.
         22    1    1    0    0    0 -0.31617497348E+01  0.28410573631E+02  0.54928666786E+01  0.29108915125E+02  0.00000000000E+00 0. -1.
</event>
<event>
 5    1  0.1325686E-009  0.9118800E+02  0.7818608E-02  0.1130116E+00
         25   -1    0    0    0    0  0.00000000000E+00  0.00000000000E+00  0.99999998245E-14  0.12500000000E+03  0.12500000000E+03 0.  0.
        -13    1    3    3    0    0  0.14844877494E+02 -0.27493086521E+02  0.44722308802E+02  0.54555808700E+02  0.10566000000E+00 0.  1.
         23    2    1    0    0    0  0.23676319516E+01  0.90978655252E+01  0.25684619689E+02  0.97649012326E+02  0.93740349271E+02 0.  0.
         13    1    3    3    0    0 -0.12477245542E+02  0.36590952046E+02 -0.19037689113E+02  0.43093203626E+02  0.10566000000E+00 0. -1.
         22    1    1    0    0    0 -0.23676319516E+01 -0.90978655252E+01 -0.25684619689E+02  0.27350987674E+02  0.00000000000E+00 0.  1.
</event>
<event>
 5    1  0.1325686E-009  0.9118800E+02  0.7818608E-02  0.1130116E+00
         25   -1    0    0    0    0  0.00000000000E+00  0.00000000000E+00  0.99999998245E-14  0.12500000000E+03  0.12500000000E+03 0.  0.
        -13    1    3    3    0    0  0.23562750895E+02 -0.15369478240E+02 -0.19555786561E+02  0.34261699362E+02  0.10566000000E+00 0. -1.
         23    2    1    0    0    0 -0.30261410328E+02 -0.91535289004E+01  0.35917653879E+01  0.93181124706E+02  0.87580141450E+02 0.  0.
         13    1    3    3    0    0 -0.53824161223E+02  0.62159493397E+01  0.23147551949E+02  0.58919425344E+02  0.10566000000E+00 0.  1.
         22    1    1    0    0    0  0.30261410328E+02  0.91535289004E+01 -0.35917653879E+01  0.31818875294E+02  0.00000000000E+00 0.  1.
</event>
<event>
 5    1  0.1325686E-009  0.9118800E+02  0.7818608E-02  0.1130116E+00
         25   -1    0    0    0    0  0.00000000000E+00  0.00000000000E+00  0.99999998245E-14  0.12500000000E+03  0.12500000000E+03 0.  0.
        -13    1    3    3    0    0 -0.23229059757E+02 -0.18379337543E+02  0.37546570305E+02  0.47824108684E+02  0.10566000000E+00 0. -1.
         23    2    1    0    0    0  0.97574263945E+01  0.12688865228E+02  0.25803571643E+02  0.94634905234E+02  0.89631056607E+02 0.  0.
         13    1    3    3    0    0  0.32986486151E+02  0.31068202771E+02 -0.11742998662E+02  0.46810796550E+02  0.10566000000E+00 0.  1.
         22    1    1    0    0    0 -0.97574263945E+01 -0.12688865228E+02 -0.25803571643E+02  0.30365094766E+02  0.00000000000E+00 0.  1.
</event>
<event>
 5    1  0.1325686E-009  0.9118800E+02  0.7818608E-02  0.1130116E+00
         25   -1    0    0    0    0  0.00000000000E+00  0.00000000000E+00  0.99999998245E-14  0.12500000000E+03  0.12500000000E+03 0.  0.
        -13    1    3    3    0    0 -0.14832992794E+02 -0.30844689977E+02 -0.48945617145E+02  0.59725180425E+02  0.10566000000E+00 0.  1.
         23    2    1    0    0    0  0.54974217890E+01 -0.84341777654E+01 -0.24115868569E+02  0.98867030063E+02  0.95350707998E+02 0.  0.
         13    1    3    3    0    0  0.20330414583E+02  0.22410512211E+02  0.24829748576E+02  0.39141849638E+02  0.10566000000E+00 0. -1.
         22    1    1    0    0    0 -0.54974217890E+01  0.84341777654E+01  0.24115868569E+02  0.26132969937E+02  0.00000000000E+00 0.  1.
</event>
<event>
 5    1  0.1325686E-009  0.9118800E+02  0.7818608E-02  0.1130116E+00
         25   -1    0    0    0    0  0.00000000000E+00  0.00000000000E+00  0.99999998245E-14  0.12500000000E+03  0.12500000000E+03 0.  0.
        -13    1    3    3    0    0  0.39159525929E+02 -0.22912342514E+01  0.22538869177E+01  0.39291339957E+02  0.10566000000E+00 0.  1.
         23    2    1    0    0    0 -0.13812556251E+02 -0.24198834962E+02 -0.35646348107E+01  0.96909486565E+02  0.92748971106E+02 0.  0.
         13    1    3    3    0    0 -0.52972082180E+02 -0.21907600711E+02 -0.58185217284E+01  0.57618146608E+02  0.10566000000E+00 0. -1.
         22    1    1    0    0    0  0.13812556251E+02  0.24198834962E+02  0.35646348107E+01  0.28090513435E+02  0.00000000000E+00 0. -1.
</event>
<event>
 5    1  0.1325686E-009  0.9118800E+02  0.7818608E-02  0.1130116E+00
         25   -1    0    0    0    0  0.00000000000E+00  0.00000000000E+00  0.99999998245E-14  0.12500000000E+03  0.12500000000E+03 0.  0.
        -13    1    3    3    0    0  0.37846963604E+02 -0.42932263404E+02 -0.16309526886E+02  0.59511206729E+02  0.10566000000E+00 0.  1.
         23    2    1    0    0    0  0.86557990623E+01 -0.27312148840E+02 -0.15798978743E+00  0.96348624947E+02  0.91989979002E+02 0.  0.
         13    1    3    3    0    0 -0.29191164542E+02  0.15620114564E+02  0.16151537098E+02  0.36837418218E+02  0.10566000000E+00 0. -1.
         22    1    1    0    0    0 -0.86557990623E+01  0.27312148840E+02  0.15798978743E+00  0.28651375053E+02  0.00000000000E+00 0.  1.
</event>
<event>
 5    1  0.1325686E-009  0.9118800E+02  0.7818608E-02  0.1130116E+00
         25   -1    0    0    0    0  0.00000000000E+00  0.00000000000E+00  0.99999998245E-14  0.12500000000E+03  0.12500000000E+03 0.  0.
        -13    1    3    3    0    0  0.56990216480E+02  0.18352531278E+01 -0.88345262785E+00  0.57026700598E+02  0.10566000000E+00 0. -1.
         23    2    1    0    0    0  0.18261558138E+02  0.17906006779E+02  0.35003724571E+01  0.99186007830E+02  0.95767958929E+02 0.  0.
         13    1    3    3    0    0 -0.38728658342E+02  0.16070753652E+02  0.43838250850E+01  0.42159307232E+02  0.10566000000E+00 0.  1.
         22    1    1    0    0    0 -0.18261558138E+02 -0.17906006779E+02 -0.35003724571E+01  0.25813992170E+02  0.00000000000E+00 0. -1.
</event>
<event>
 5    1  0.1325686E-009  0.9118800E+02  0.7818608E-02  0.1130116E+00
         25   -1    0    0    0    0  0.00000000000E+00  0.00000000000E+00  0.99999998245E-14  0.12500000000E+03  0.12500000000E+03 0.  0.
        -13    1    3    3    0    0  0.47396968039E+02  0.90273540999E+01  0.92524534985E+01  0.49128248097E+02  0.10566000000E+00 0.  1.
         23    2    1    0    0    0  0.16895910780E+02  0.10702717354E+01 -0.24441040457E+02  0.95268169561E+02  0.90509902166E+02 0.  0.
         13    1    3    3    0    0 -0.30501057259E+02 -0.79570823645E+01 -0.33693493955E+02  0.46139921463E+02  0.10566000000E+00 0. -1.
         22    1    1    0    0    0 -0.16895910780E+02 -0.10702717354E+01  0.24441040457E+02  0.29731830439E+02  0.00000000000E+00 0. -1.
</event>
<event>
 5    1  0.1325686E-009  0.9118800E+02  0.7818608E-02  0.1130116E+00
         25   -1    0    0    0    0  0.00000000000E+00  0.00000000000E+00  0.99999998245E-14  0.12500000000E+03  0.12500000000E+03 0.  0.
        -13    1    3    3    0    0  0.24128508959E+02 -0.10495704474E+02  0.28493700908E+02  0.38784622113E+02  0.10566000000E+00 0.  1.
         23    2    1    0    0    0  0.16247266274E+02  0.21928532096E+01 -0.25432401090E+02  0.94741293951E+02  0.89779304339E+02 0.  0.
         13    1    3    3    0    0 -0.78812426849E+01  0.12688557684E+02 -0.53926101998E+02  0.55956671837E+02  0.10566000000E+00 0. -1.
         22    1    1    0    0    0 -0.16247266274E+02 -0.21928532096E+01  0.25432401090E+02  0.30258706049E+02  0.00000000000E+00 0. -1.
</event>
<event>
 5    1  0.1325686E-009  0.9118800E+02  0.7818608E-02  0.1130116E+00
         25   -1    0    0    0    0  0.00000000000E+00  0.00000000000E+00  0.99999998245E-14  0.12500000000E+03  0.12500000000E+03 0.  0.
        -13    1    3    3    0    0 -0.11049952777E+02  0.29671770197E+02  0.14916809632E+02  0.35000539662E+02  0.10566000000E+00 0. -1.
         23    2    1    0    0    0  0.20550077144E+02 -0.11416617471E+02 -0.17103798148E+02  0.95927938907E+02  0.91416545148E+02 0.  0.
         13    1    3    3    0    0  0.31600029921E+02 -0.41088387668E+02 -0.32020607780E+02  0.60927399245E+02  0.10566000000E+00 0.  1.
         22    1    1    0    0    0 -0.20550077144E+02  0.11416617471E+02  0.17103798148E+02  0.29072061093E+02  0.00000000000E+00 0.  1.
</event>
<event>
 5    1  0.1325686E-009  0.9118800E+02  0.7818608E-02  0.1130116E+00
         25   -1    0    0    0    0  0.00000000000E+00  0.00000000000E+00  0.99999998245E-14  0.12500000000E+03  0.12500000000E+03 0.  0.
        -13    1    3    3    0    0 -0.32523772640E+02 -0.22838111342E+02  0.21107979464E+02  0.44999256410E+02  0.10566000000E+00 0. -1.
         23    2    1    0    0    0 -0.21018585298E+02  0.20707441159E+02 -0.16223378976E+01  0.95449855710E+02  0.90760475581E+02 0.  0.
         13    1    3    3    0    0  0.11505187342E+02  0.43545552501E+02 -0.22730317361E+02  0.50450599300E+02  0.10566000000E+00 0.  1.
         22    1    1    0    0    0  0.21018585298E+02 -0.20707441159E+02  0.16223378976E+01  0.29550144290E+02  0.00000000000E+00 0.  1.
</event>
<event>
 5    1  0.1325686E-009  0.9118800E+02  0.7818608E-02  0.1130116E+00
         25   -1    0    0    0    0  0.00000000000E+00  0.00000000000E+00  0.99999998245E-14  0.12500000000E+03  0.12500000000E+03 0.  0.
        -13    1    3    3    0    0  0.97635667668E+01  0.10589600251E+02  0.36575998954E+02  0.39310071648E+02  0.10566000000E+00 0.  1.
         23    2    1    0    0    0 -0.26305908197E+02  0.14172359663E+02 -0.52550777567E+01  0.94660711499E+02  0.89667038954E+02 0.  0.
         13    1    3    3    0    0 -0.36069474964E+02  0.35827594125E+01 -0.41831076710E+02  0.55350639851E+02  0.10566000000E+00 0. -1.
         22    1    1    0    0    0  0.26305908197E+02 -0.14172359663E+02  0.52550777567E+01  0.30339288501E+02  0.00000000000E+00 0. -1.
</event>
<event>
 5    1  0.1325686E-009  0.9118800E+02  0.7818608E-02  0.1130116E+00
         25   -1    0    0    0    0  0.00000000000E+00  0.00000000000E+00  0.99999998245E-14  0.12500000000E+03  0.12500000000E+03 0.  0.
        -13    1    3    3    0    0 -0.29478349040E+02 -0.73276076674E+01  0.40981898988E+02  0.51011705568E+02  0.10566000000E+00 0. -1.
         23    2    1    0    0    0 -0.94196907907E+01 -0.27058533178E+02  0.63130112709E+01  0.95661477480E+02  0.91051465502E+02 0.  0.
         13    1    3    3    0    0  0.20058658249E+02 -0.19730925510E+02 -0.34668887717E+02  0.44649771912E+02  0.10566000000E+00 0.  1.
         22    1    1    0    0    0  0.94196907907E+01  0.27058533178E+02 -0.63130112709E+01  0.29338522520E+02  0.00000000000E+00 0. -1.
</event>
<event>
 5    1  0.1325686E-009  0.9118800E+02  0.7818608E-02  0.1130116E+00
         25   -1    0    0    0    0  0.00000000000E+00  0.00000000000E+00  0.99999998245E-14  0.12500000000E+03  0.12500000000E+03 0.  0.
        -13    1    3    3    0    0  0.30240074846E+02 -0.29712846205E+02  0.10035076882E+02  0.43566377958E+02  0.10566000000E+00 0. -1.
         23    2    1    0    0    0 -0.12828381318E+02 -0.56741995785E+01  0.26040895328E+02  0.95421424348E+02  0.90721309994E+02 0.  0.
         13    1    3    3    0    0 -0.43068456164E+02  0.24038646627E+02  0.16005818446E+02  0.51855046391E+02  0.10566000000E+00 0.  1.
         22    1    1    0    0    0  0.12828381318E+02  0.56741995785E+01 -0.26040895328E+02  0.29578575652E+02  0.00000000000E+00 0.  1.
</event>
<event>
 5    1  0.1325686E-009  0.9118800E+02  0.7818608E-02  0.1130116E+00
         25   -1    0    0    0    0  0.00000000000E+00  0.00000000000E+00  0.99999998245E-14  0.12500000000E+03  0.12500000000E+03 0.  0.
        -13    1    3    3    0    0  0.46901118839E+01 -0.40270342014E+02 -0.42799388382E+02  0.58953340917E+02  0.10566000000E+00 0. -1.
         23    2    1    0    0    0  0.16879491961E+02 -0.18005684383E+02 -0.17885680086E+02  0.94520179280E+02  0.89470916057E+02 0.  0.
         13    1    3    3    0    0  0.12189380077E+02  0.22264657631E+02  0.24913708296E+02  0.35566838363E+02  0.10566000000E+00 0.  1.
         22    1    1    0    0    0 -0.16879491961E+02  0.18005684383E+02  0.17885680086E+02  0.30479820720E+02  0.00000000000E+00 0. -1.
</event>
<event>
 5    1  0.1325686E-009  0.9118800E+02  0.7818608E-02  0.1130116E+00
         25   -1    0    0    0    0  0.00000000000E+00  0.00000000000E+00  0.99999998245E-14  0.12500000000E+03  0.12500000000E+03 0.  0.
        -13    1    3    3    0    0  0.73941141182E+01  0.31376206470E+02 -0.14431626459E+02  0.35318865530E+02  0.10566000000E+00 0.  1.
         23    2    1    0    0    0 -0.29019904457E+02 -0.54283055981E+01  0.11613139993E+02  0.93274830546E+02  0.87713782478E+02 0.  0.
         13    1    3    3    0    0 -0.36414018575E+02 -0.36804512069E+02  0.26044766451E+02  0.57955965016E+02  0.10566000000E+00 0. -1.
         22    1    1    0    0    0  0.29019904457E+02  0.54283055981E+01 -0.11613139993E+02  0.31725169454E+02  0.00000000000E+00 0. -1.
</event>
<event>
 5    1  0.1325686E-009  0.9118800E+02  0.7818608E-02  0.1130116E+00
         25   -1    0    0    0    0  0.00000000000E+00  0.00000000000E+00  0.99999998245E-14  0.12500000000E+03  0.12500000000E+03 0.  0.
        -13    1    3    3    0    0  0.10055179338E+01 -0.26455224199E+02 -0.13580300798E+02  0.29754422991E+02  0.10566000000E+00 0. -1.
         23    2    1    0    0    0 -0.15687674439E+01  0.33861643964E+02 -0.45426886134E+01  0.90799006110E+02  0.84111542178E+02 0.  0.
         13    1    3    3    0    0 -0.25742853777E+01  0.60316868163E+02  0.90376121848E+01  0.61044583119E+02  0.10566000000E+00 0.  1.
         22    1    1    0    0    0  0.15687674439E+01 -0.33861643964E+02  0.45426886134E+01  0.34200993890E+02  0.00000000000E+00 0.  1.
</event>
<event>
 5    1  0.1325686E-009  0.9118800E+02  0.7818608E-02  0.1130116E+00
         25   -1    0    0    0    0  0.00000000000E+00  0.00000000000E+00  0.99999998245E-14  0.12500000000E+03  0.12500000000E+03 0.  0.
        -13    1    3    3    0    0  0.17114704909E+02  0.35245324112E+02  0.42841564536E+02  0.58056496723E+02  0.10566000000E+00 0.  1.
         23    2    1    0    0    0 -0.72585643094E+01  0.22926391196E+02  0.18181116148E+02  0.94852709019E+02  0.89934294098E+02 0.  0.
         13    1    3    3    0    0 -0.24373269219E+02 -0.12318932917E+02 -0.24660448388E+02  0.36796212296E+02  0.10566000000E+00 0. -1.
         22    1    1    0    0    0  0.72585643094E+01 -0.22926391196E+02 -0.18181116148E+02  0.30147290981E+02  0.00000000000E+00 0.  1.
</event>
<event>
 5    1  0.1325686E-009  0.9118800E+02  0.7818608E-02  0.1130116E+00
         25   -1    0    0    0    0  0.00000000000E+00  0.00000000000E+00  0.99999998245E-14  0.12500000000E+03  0.12500000000E+03 0.  0.
        -13    1    3    3    0    0 -0.28226234726E+02 -0.33064955317E+02  0.30702115287E+02  0.53222576451E+02  0.10566000000E+00 0. -1.
         23    2    1    0    0    0  0.10254754940E+02 -0.19707623888E+02  0.19427630846E+02  0.95487574168E+02  0.90812408525E+02 0.  0.
         13    1    3    3    0    0  0.38480989666E+02  0.13357331429E+02 -0.11274484440E+02  0.42264997717E+02  0.10566000000E+00 0.  1.
         22    1    1    0    0    0 -0.10254754940E+02  0.19707623888E+02 -0.19427630846E+02  0.29512425832E+02  0.00000000000E+00 0. -1.
</event>
<event>
 5    1  0.1325686E-009  0.9118800E+02  0.7818608E-02  0.1130116E+00
         25   -1    0    0    0    0  0.00000000000E+00  0.00000000000E+00  0.99999998245E-14  0.12500000000E+03  0.12500000000E+03 0.  0.
        -13    1    3    3    0    0 -0.42710912352E+02 -0.14949984890E+02  0.39774202601E+02  0.60247177849E+02  0.10566000000E+00 0.  1.
         23    2    1    0    0    0 -0.18221205483E+02  0.34285633642E+01  0.23944869201E+02  0.94715942526E+02  0.89744000533E+02 0.  0.
         13    1    3    3    0    0  0.24489706869E+02  0.18378548255E+02 -0.15829333400E+02  0.34468764678E+02  0.10566000000E+00 0. -1.
         22    1    1    0    0    0  0.18221205483E+02 -0.34285633642E+01 -0.23944869201E+02  0.30284057474E+02  0.00000000000E+00 0.  1.
</event>
<event>
 5    1  0.1325686E-009  0.9118800E+02  0.7818608E-02  0.1130116E+00
         25   -1    0    0    0    0  0.00000000000E+00  0.00000000000E+00  0.99999998245E-14  0.12500000000E+03  0.12500000000E+03 0.  0.
        -13    1    3    3    0    0  0.47930659491E+02 -0.37979381476E+02  0.61222895234E+01  0.61459540590E+02  0.10566000000E+00 0. -1.
         23    2    1    0    0    0  0.26372846412E+02 -0.10986276930E+02  0.74674319945E+00  0.96420585484E+02  0.92087710206E+02 0.  0.
         13    1    3    3    0    0 -0.21557813078E+02  0.26993104546E+02 -0.53755463239E+01  0.34961044894E+02  0.10566000000E+00 0.  1.
         22    1    1    0    0    0 -0.26372846412E+02  0.10986276930E+02 -0.74674319945E+00  0.28579414516E+02  0.00000000000E+00 0. -1.
</event>
<event>
 5    1  0.1325686E-009  0.9118800E+02  0.7818608E-02  0.1130116E+00
         25   -1    0    0    0    0  0.00000000000E+00  0.00000000000E+00  0.99999998245E-14  0.12500000000E+03  0.12500000000E+03 0.  0.
        -13    1    3    3    0    0  0.34137531778E+02 -0.38878453333E+01  0.43458260073E+02  0.55399620485E+02  0.10566000000E+00 0. -1.
         23    2    1    0    0    0  0.12812402877E+02 -0.22207262460E+02  0.15542922753E+02  0.95018295226E+02  0.90164149231E+02 0.  0.
         13    1    3    3    0    0 -0.21325128901E+02 -0.18319417126E+02 -0.27915337321E+02  0.39618674741E+02  0.10566000000E+00 0.  1.
         22    1    1    0    0    0 -0.12812402877E+02  0.22207262460E+02 -0.15542922753E+02  0.29981704774E+02  0.00000000000E+00 0. -1.
</event>
<event>
 5    1  0.1325686E-009  0.9118800E+02  0.7818608E-02  0.1130116E+00
         25   -1    0    0    0    0  0.00000000000E+00  0.00000000000E+00  0.99999998245E-14  0.12500000000E+03  0.12500000000E+03 0.  0.
        -13    1    3    3    0    0  0.16398873983E+00 -0.39948837163E+02 -0.25075268720E+02  0.47166903104E+02  0.10566000000E+00 0.  1.
         23    2    1    0    0    0 -0.15435301227E+02 -0.18517705614E+02  0.16009830706E+02  0.96060949836E+02  0.91598239388E+02 0.  0.
         13    1    3    3    0    0 -0.15599289967E+02  0.21431131549E+02  0.41085099426E+02  0.48894046732E+02  0.10566000000E+00 0. -1.
         22    1    1    0    0    0  0.15435301227E+02  0.18517705614E+02 -0.16009830706E+02  0.28939050164E+02  0.00000000000E+00 0.  1.
</event>
<event>
 5    1  0.1325686E-009  0.9118800E+02  0.7818608E-02  0.1130116E+00
         25   -1    0    0    0    0  0.00000000000E+00  0.00000000000E+00  0.99999998245E-14  0.12500000000E+03  0.12500000000E+03 0.  0.
        -13    1    3    3    0    0  0.34578469119E+02 -0.19236264551E+01 -0.58318187635E+01  0.35119683077E+02  0.10566000000E+00 0. -1.
         23    2    1    0    0    0 -0.16469736669E+02  0.13741166931E+02  0.21089061707E+02  0.94919766985E+02  0.90027449959E+02 0.  0.
         13    1    3    3    0    0 -0.51048205787E+02  0.15664793386E+02  0.26920880471E+02  0.59800083907E+02  0.10566000000E+00 0.  1.
         22    1    1    0    0    0  0.16469736669E+02 -0.13741166931E+02 -0.21089061707E+02  0.30080233015E+02  0.00000000000E+00 0.  1.
</event>
<event>
 5    1  0.1325686E-009  0.9118800E+02  0.7818608E-02  0.1130116E+00
         25   -1    0    0    0    0  0.00000000000E+00  0.00000000000E+00  0.99999998245E-14  0.12500000000E+03  0.12500000000E+03 0.  0.
        -13    1    3    3    0    0 -0.32800857229E+02  0.26867204249E+02  0.25602412420E+02  0.49530168431E+02  0.10566000000E+00 0.  1.
         23    2    1    0    0    0  0.10835609242E+02  0.24772003991E+02  0.66178969012E+01  0.97163707705E+02  0.93090960496E+02 0.  0.
         13    1    3    3    0    0  0.43636466471E+02 -0.20952002579E+01 -0.18984515519E+02  0.47633539273E+02  0.10566000000E+00 0. -1.
         22    1    1    0    0    0 -0.10835609242E+02 -0.24772003991E+02 -0.66178969012E+01  0.27836292295E+02  0.00000000000E+00 0. -1.
</event>
<event>
 5    1  0.1325686E-009  0.9118800E+02  0.7818608E-02  0.1130116E+00
         25   -1    0    0    0    0  0.00000000000E+00  0.00000000000E+00  0.99999998245E-14  0.12500000000E+03  0.12500000000E+03 0.  0.
        -13    1    3    3    0    0  0.10488137704E+01  0.22683473667E+02 -0.23234797272E+02  0.32488566547E+02  0.10566000000E+00 0.  1.
         23    2    1    0    0    0 -0.96134326630E+01 -0.21560094697E+02  0.19091952064E+02  0.94639525621E+02  0.89637499995E+02 0.  0.
         13    1    3    3    0    0 -0.10662246433E+02 -0.44243568364E+02  0.42326749336E+02  0.62150959075E+02  0.10566000000E+00 0. -1.
         22    1    1    0    0    0  0.96134326630E+01  0.21560094697E+02 -0.19091952064E+02  0.30360474379E+02  0.00000000000E+00 0. -1.
</event>
<event>
 5    1  0.1325686E-009  0.9118800E+02  0.7818608E-02  0.1130116E+00
         25   -1    0    0    0    0  0.00000000000E+00  0.00000000000E+00  0.99999998245E-14  0.12500000000E+03  0.12500000000E+03 0.  0.
        -13    1    3    3    0    0 -0.28609417703E+02  0.60623272201E+01 -0.27402922187E+02  0.40077199267E+02  0.10566000000E+00 0. -1.
         23    2    1    0    0    0 -0.75332464020E+01 -0.14009074425E+02  0.22260595662E+02  0.97640575905E+02  0.93729098876E+02 0.  0.
         13    1    3    3    0    0  0.21076171301E+02 -0.20071401645E+02  0.49663517850E+02  0.57563376638E+02  0.10566000000E+00 0.  1.
         22    1    1    0    0    0  0.75332464020E+01  0.14009074425E+02 -0.22260595662E+02  0.27359424095E+02  0.00000000000E+00 0.  1.
</event>
<event>
 5    1  0.1325686E-009  0.9118800E+02  0.7818608E-02  0.1130116E+00
         25   -1    0    0    0    0  0.00000000000E+00  0.00000000000E+00  0.99999998245E-14  0.12500000000E+03  0.12500000000E+03 0.  0.
        -13    1    3    3    0    0 -0.34393780654E+02 -0.17325187589E+02  0.14369850715E+02  0.41104720486E+02  0.10566000000E+00 0.  1.
         23    2    1    0    0    0  0.17023374895E+02  0.11518281853E+02  0.14125542144E+02  0.10006013131E+03  0.96902181742E+02 0.  0.
         13    1    3    3    0    0  0.51417155548E+02  0.28843469442E+02 -0.24430857087E+00  0.58955410819E+02  0.10566000000E+00 0. -1.
         22    1    1    0    0    0 -0.17023374895E+02 -0.11518281853E+02 -0.14125542144E+02  0.24939868695E+02  0.00000000000E+00 0. -1.
</event>
<event>
 5    1  0.1325686E-009  0.9118800E+02  0.7818608E-02  0.1130116E+00
         25   -1    0    0    0    0  0.00000000000E+00  0.00000000000E+00  0.99999998245E-14  0.12500000000E+03  0.12500000000E+03 0.  0.
        -13    1    3    3    0    0  0.35289831436E+02  0.42163789505E+02 -0.26934423133E+01  0.55049279230E+02  0.10566000000E+00 0.  1.
         23    2    1    0    0    0 -0.16781157151E+01  0.28465099348E+02  0.69807455386E+01  0.95643420473E+02  0.91026672565E+02 0.  0.
         13    1    3    3    0    0 -0.36967947151E+02 -0.13698690157E+02  0.96741878520E+01  0.40594141243E+02  0.10566000000E+00 0. -1.
         22    1    1    0    0    0  0.16781157151E+01 -0.28465099348E+02 -0.69807455386E+01  0.29356579527E+02  0.00000000000E+00 0. -1.
</event>
<event>
 5    1  0.1325686E-009  0.9118800E+02  0.7818608E-02  0.1130116E+00
         25   -1    0    0    0    0  0.00000000000E+00  0.00000000000E+00  0.99999998245E-14  0.12500000000E+03  0.12500000000E+03 0.  0.
        -13    1    3    3    0    0  0.33913558450E+02 -0.11019697620E+02 -0.23460617055E+02  0.42684597914E+02  0.10566000000E+00 0. -1.
         23    2    1    0    0    0 -0.65326269907E+01  0.12737302611E+02 -0.31614771578E+02  0.90295419969E+02  0.83359792419E+02 0.  0.
         13    1    3    3    0    0 -0.40446185441E+02  0.23757000232E+02 -0.81541545231E+01  0.47610822055E+02  0.10566000000E+00 0.  1.
         22    1    1    0    0    0  0.65326269907E+01 -0.12737302611E+02  0.31614771578E+02  0.34704580031E+02  0.00000000000E+00 0.  1.
</event>
<event>
 5    1  0.1325686E-009  0.9118800E+02  0.7818608E-02  0.1130116E+00
         25   -1    0    0    0    0  0.00000000000E+00  0.00000000000E+00  0.99999998245E-14  0.12500000000E+03  0.12500000000E+03 0.  0.
        -13    1    3    3    0    0  0.42210943112E+02  0.12785495679E+02  0.28080030732E+02  0.52285102162E+02  0.10566000000E+00 0.  1.
         23    2    1    0    0    0  0.26105386885E+02  0.12261197685E+02 -0.10666777104E+02  0.94249254856E+02  0.89091602938E+02 0.  0.
         13    1    3    3    0    0 -0.16105556227E+02 -0.52429799409E+00 -0.38746807837E+02  0.41964152694E+02  0.10566000000E+00 0. -1.
         22    1    1    0    0    0 -0.26105386885E+02 -0.12261197685E+02  0.10666777104E+02  0.30750745144E+02  0.00000000000E+00 0. -1.
</event>
<event>
 5    1  0.1325686E-009  0.9118800E+02  0.7818608E-02  0.1130116E+00
         25   -1    0    0    0    0  0.00000000000E+00  0.00000000000E+00  0.99999998245E-14  0.12500000000E+03  0.12500000000E+03 0.  0.
        -13    1    3    3    0    0 -0.20289064169E+02 -0.48987466327E+02 -0.25906401630E+02  0.59013310290E+02  0.10566000000E+00 0.  1.
         23    2    1    0    0    0 -0.20307040136E+02 -0.13865069600E+02 -0.49341377091E+01  0.99920890187E+02  0.96722399406E+02 0.  0.
         13    1    3    3    0    0 -0.17975966371E-01  0.35122396728E+02  0.20972263920E+02  0.40907579897E+02  0.10566000000E+00 0. -1.
         22    1    1    0    0    0  0.20307040136E+02  0.13865069600E+02  0.49341377091E+01  0.25079109813E+02  0.00000000000E+00 0.  1.
</event>
<event>
 5    1  0.1325686E-009  0.9118800E+02  0.7818608E-02  0.1130116E+00
         25   -1    0    0    0    0  0.00000000000E+00  0.00000000000E+00  0.99999998245E-14  0.12500000000E+03  0.12500000000E+03 0.  0.
        -13    1    3    3    0    0 -0.16716382903E+01 -0.52805050930E+01 -0.49620538506E+02  0.49928820478E+02  0.10566000000E+00 0. -1.
         23    2    1    0    0    0 -0.25472622724E+02 -0.96452898255E+01 -0.10746366532E+02  0.95719110022E+02  0.91130551987E+02 0.  0.
         13    1    3    3    0    0 -0.23800984434E+02 -0.43647847325E+01  0.38874171974E+02  0.45790289544E+02  0.10566000000E+00 0.  1.
         22    1    1    0    0    0  0.25472622724E+02  0.96452898255E+01  0.10746366532E+02  0.29280889978E+02  0.00000000000E+00 0. -1.
</event>
<event>
 5    1  0.1325686E-009  0.9118800E+02  0.7818608E-02  0.1130116E+00
         25   -1    0    0    0    0  0.00000000000E+00  0.00000000000E+00  0.99999998245E-14  0.12500000000E+03  0.12500000000E+03 0.  0.
        -13    1    3    3    0    0 -0.19541445160E+01  0.35296480156E+02  0.25562069746E+01  0.35442990144E+02  0.10566000000E+00 0.  1.
         23    2    1    0    0    0 -0.91907014841E+01 -0.22004653808E+02  0.17876332577E+02  0.95196693986E+02  0.90411135909E+02 0.  0.
         13    1    3    3    0    0 -0.72365569680E+01 -0.57301133964E+02  0.15320125602E+02  0.59753703842E+02  0.10566000000E+00 0. -1.
         22    1    1    0    0    0  0.91907014841E+01  0.22004653808E+02 -0.17876332577E+02  0.29803306014E+02  0.00000000000E+00 0. -1.
</event>
<event>
 5    1  0.1325686E-009  0.9118800E+02  0.7818608E-02  0.1130116E+00
         25   -1    0    0    0    0  0.00000000000E+00  0.00000000000E+00  0.99999998245E-14  0.12500000000E+03  0.12500000000E+03 0.  0.
        -13    1    3    3    0    0  0.66715710480E+01  0.14245009263E+02  0.33068620353E+02  0.36619325024E+02  0.10566000000E+00 0.  1.
         23    2    1    0    0    0  0.19571011776E+02 -0.16639812722E+01 -0.22079706796E+02  0.95448235453E+02  0.90758244052E+02 0.  0.
         13    1    3    3    0    0  0.12899440728E+02 -0.15908990535E+02 -0.55148327149E+02  0.58828910429E+02  0.10566000000E+00 0. -1.
         22    1    1    0    0    0 -0.19571011776E+02  0.16639812722E+01  0.22079706796E+02  0.29551764547E+02  0.00000000000E+00 0. -1.
</event>
<event>
 5    1  0.1325686E-009  0.9118800E+02  0.7818608E-02  0.1130116E+00
         25   -1    0    0    0    0  0.00000000000E+00  0.00000000000E+00  0.99999998245E-14  0.12500000000E+03  0.12500000000E+03 0.  0.
        -13    1    3    3    0    0  0.31512492517E+02  0.23375594598E+02 -0.65372646405E+01  0.39776910394E+02  0.10566000000E+00 0. -1.
         23    2    1    0    0    0  0.32794211115E+01 -0.18992884539E+02  0.20027836539E+02  0.97204343822E+02  0.93145509583E+02 0.  0.
         13    1    3    3    0    0 -0.28233071406E+02 -0.42368479137E+02  0.26565101179E+02  0.57427433428E+02  0.10566000000E+00 0.  1.
         22    1    1    0    0    0 -0.32794211115E+01  0.18992884539E+02 -0.20027836539E+02  0.27795656178E+02  0.00000000000E+00 0.  1.
</event>
<event>
 5    1  0.1325686E-009  0.9118800E+02  0.7818608E-02  0.1130116E+00
         25   -1    0    0    0    0  0.00000000000E+00  0.00000000000E+00  0.99999998245E-14  0.12500000000E+03  0.12500000000E+03 0.  0.
        -13    1    3    3    0    0 -0.23951995474E+02  0.19144137787E+02  0.48467365926E+02  0.57352356731E+02  0.10566000000E+00 0. -1.
         23    2    1    0    0    0 -0.10950728299E+02  0.20851065465E+02  0.76305280116E+01  0.10024297395E+03  0.97137755206E+02 0.  0.
         13    1    3    3    0    0  0.13001267175E+02  0.17069276775E+01 -0.40836837914E+02  0.42890617215E+02  0.10566000000E+00 0.  1.
         22    1    1    0    0    0  0.10950728299E+02 -0.20851065465E+02 -0.76305280116E+01  0.24757026054E+02  0.00000000000E+00 0. -1.
</event>
<event>
 5    1  0.1325686E-009  0.9118800E+02  0.7818608E-02  0.1130116E+00
         25   -1    0    0    0    0  0.00000000000E+00  0.00000000000E+00  0.99999998245E-14  0.12500000000E+03  0.12500000000E+03 0.  0.
        -13    1    3    3    0    0  0.49304787986E+01  0.36101490054E+02 -0.73636009816E+01  0.37173390870E+02  0.10566000000E+00 0. -1.
         23    2    1    0    0    0 -0.17979582112E+02 -0.51395415578E+01  0.24556035017E+02  0.94134499581E+02  0.88930449765E+02 0.  0.
         13    1    3    3    0    0 -0.22910060910E+02 -0.41241031612E+02  0.31919635999E+02  0.56961108712E+02  0.10566000000E+00 0.  1.
         22    1    1    0    0    0  0.17979582112E+02  0.51395415578E+01 -0.24556035017E+02  0.30865500419E+02  0.00000000000E+00 0.  1.
</event>
<event>
 5    1  0.1325686E-009  0.9118800E+02  0.7818608E-02  0.1130116E+00
         25   -1    0    0    0    0  0.00000000000E+00  0.00000000000E+00  0.99999998245E-14  0.12500000000E+03  0.12500000000E+03 0.  0.
        -13    1    3    3    0    0  0.15071501163E+02 -0.16318544541E+02  0.56825967607E+01  0.22929197832E+02  0.10566000000E+00 0.  1.
         23    2    1    0    0    0 -0.15734325920E+02  0.59892680947E+01 -0.39542912338E+02  0.82022305080E+02  0.69861121305E+02 0.  0.
         13    1    3    3    0    0 -0.30805827083E+02  0.22307812636E+02 -0.45225509099E+02  0.59093107248E+02  0.10566000000E+00 0. -1.
         22    1    1    0    0    0  0.15734325920E+02 -0.59892680947E+01  0.39542912338E+02  0.42977694920E+02  0.00000000000E+00 0. -1.
</event>
<event>
 5    1  0.1325686E-009  0.9118800E+02  0.7818608E-02  0.1130116E+00
         25   -1    0    0    0    0  0.00000000000E+00  0.00000000000E+00  0.99999998245E-14  0.12500000000E+03  0.12500000000E+03 0.  0.
        -13    1    3    3    0    0 -0.19081713756E+02  0.69368262172E+01 -0.33500687371E+02  0.39173186955E+02  0.10566000000E+00 0. -1.
         23    2    1    0    0    0 -0.20235814489E+02 -0.18516587761E+02  0.14837022739E+02  0.93815236828E+02  0.88480558356E+02 0.  0.
         13    1    3    3    0    0 -0.11541007333E+01 -0.25453413978E+02  0.48337710110E+02  0.54642049873E+02  0.10566000000E+00 0.  1.
         22    1    1    0    0    0  0.20235814489E+02  0.18516587761E+02 -0.14837022739E+02  0.31184763172E+02  0.00000000000E+00 0.  1.
</event>
<event>
 5    1  0.1325686E-009  0.9118800E+02  0.7818608E-02  0.1130116E+00
         25   -1    0    0    0    0  0.00000000000E+00  0.00000000000E+00  0.99999998245E-14  0.12500000000E+03  0.12500000000E+03 0.  0.
        -13    1    3    3    0    0 -0.49489154864E+02 -0.57535829669E+01  0.15665964374E+02  0.52227519278E+02  0.10566000000E+00 0. -1.
         23    2    1    0    0    0 -0.11132507298E+02 -0.88740073220E+01  0.28785890048E+02  0.92886012540E+02  0.87157920668E+02 0.  0.
         13    1    3    3    0    0  0.38356647566E+02 -0.31204243552E+01  0.13119925674E+02  0.40658493262E+02  0.10566000000E+00 0.  1.
         22    1    1    0    0    0  0.11132507298E+02  0.88740073220E+01 -0.28785890048E+02  0.32113987460E+02  0.00000000000E+00 0. -1.
</event>
<event>
 5    1  0.1325686E-009  0.9118800E+02  0.7818608E-02  0.1130116E+00
         25   -1    0    0    0    0  0.00000000000E+00  0.00000000000E+00  0.99999998245E-14  0.12500000000E+03  0.12500000000E+03 0.  0.
        -13    1    3    3    0    0  0.69585156195E+00 -0.87003731535E+01  0.39139717910E+02  0.40101239189E+02  0.10566000000E+00 0. -1.
         23    2    1    0    0    0 -0.56477463682E+00 -0.27511976498E+02 -0.12278457661E+02  0.94867155067E+02  0.89954370470E+02 0.  0.
         13    1    3    3    0    0 -0.12606261988E+01 -0.18811603345E+02 -0.51418175571E+02  0.54765915877E+02  0.10566000000E+00 0.  1.
         22    1    1    0    0    0  0.56477463682E+00  0.27511976498E+02  0.12278457661E+02  0.30132844933E+02  0.00000000000E+00 0.  1.
</event>
<event>
 5    1  0.1325686E-009  0.9118800E+02  0.7818608E-02  0.1130116E+00
         25   -1    0    0    0    0  0.00000000000E+00  0.00000000000E+00  0.99999998245E-14  0.12500000000E+03  0.12500000000E+03 0.  0.
        -13    1    3    3    0    0 -0.26799984873E+02 -0.20543356026E+02  0.16909532432E+02  0.37765223648E+02  0.10566000000E+00 0.  1.
         23    2    1    0    0    0  0.14910774857E+02 -0.14132777511E+02 -0.21810210903E+02  0.95037491650E+02  0.90190758465E+02 0.  0.
         13    1    3    3    0    0  0.41710759730E+02  0.64105785155E+01 -0.38719743335E+02  0.57272268002E+02  0.10566000000E+00 0. -1.
         22    1    1    0    0    0 -0.14910774857E+02  0.14132777511E+02  0.21810210903E+02  0.29962508350E+02  0.00000000000E+00 0. -1.
</event>
<event>
 5    1  0.1325686E-009  0.9118800E+02  0.7818608E-02  0.1130116E+00
         25   -1    0    0    0    0  0.00000000000E+00  0.00000000000E+00  0.99999998245E-14  0.12500000000E+03  0.12500000000E+03 0.  0.
        -13    1    3    3    0    0  0.55362831191E+01  0.31361432785E+02 -0.95710436799E+01  0.33253660525E+02  0.10566000000E+00 0.  1.
         23    2    1    0    0    0  0.83097692418E+01 -0.29292185170E+02 -0.13809175405E+01  0.94520641245E+02  0.89471561466E+02 0.  0.
         13    1    3    3    0    0  0.27734861227E+01 -0.60653617955E+02  0.81901261393E+01  0.61266980720E+02  0.10566000000E+00 0. -1.
         22    1    1    0    0    0 -0.83097692418E+01  0.29292185170E+02  0.13809175405E+01  0.30479358755E+02  0.00000000000E+00 0. -1.
</event>
<event>
 5    1  0.1325686E-009  0.9118800E+02  0.7818608E-02  0.1130116E+00
         25   -1    0    0    0    0  0.00000000000E+00  0.00000000000E+00  0.99999998245E-14  0.12500000000E+03  0.12500000000E+03 0.  0.
        -13    1    3    3    0    0 -0.18122522186E+02 -0.33540871559E+02  0.21686490741E+02  0.43860357044E+02  0.10566000000E+00 0.  1.
         23    2    1    0    0    0  0.24524008041E+02 -0.45508387765E+01  0.15090756762E+02  0.95847503647E+02  0.91306494357E+02 0.  0.
         13    1    3    3    0    0  0.42646530227E+02  0.28990032783E+02 -0.65957339786E+01  0.51987146603E+02  0.10566000000E+00 0. -1.
         22    1    1    0    0    0 -0.24524008041E+02  0.45508387765E+01 -0.15090756762E+02  0.29152496353E+02  0.00000000000E+00 0.  1.
</event>
<event>
 5    1  0.1325686E-009  0.9118800E+02  0.7818608E-02  0.1130116E+00
         25   -1    0    0    0    0  0.00000000000E+00  0.00000000000E+00  0.99999998245E-14  0.12500000000E+03  0.12500000000E+03 0.  0.
        -13    1    3    3    0    0  0.14377483921E+02  0.54179560306E+02  0.54890280594E-01  0.56054892524E+02  0.10566000000E+00 0.  1.
         23    2    1    0    0    0  0.90442641035E+01  0.25442463448E+02  0.19963721061E+02  0.91419234403E+02  0.85028281182E+02 0.  0.
         13    1    3    3    0    0 -0.53332198177E+01 -0.28737096858E+02  0.19908830781E+02  0.35364341879E+02  0.10566000000E+00 0. -1.
         22    1    1    0    0    0 -0.90442641035E+01 -0.25442463448E+02 -0.19963721061E+02  0.33580765597E+02  0.00000000000E+00 0.  1.
</event>
<event>
 5    1  0.1325686E-009  0.9118800E+02  0.7818608E-02  0.1130116E+00
         25   -1    0    0    0    0  0.00000000000E+00  0.00000000000E+00  0.99999998245E-14  0.12500000000E+03  0.12500000000E+03 0.  0.
        -13    1    3    3    0    0 -0.58478105402E+02  0.18109811860E+01  0.23186361791E+00  0.58506695249E+02  0.10566000000E+00 0.  1.
         23    2    1    0    0    0 -0.24611385250E+02 -0.13842743633E+02 -0.54358036200E+01  0.96244308455E+02  0.91848119817E+02 0.  0.
         13    1    3    3    0    0  0.33866720152E+02 -0.15653724819E+02 -0.56676672379E+01  0.37737613206E+02  0.10566000000E+00 0. -1.
         22    1    1    0    0    0  0.24611385250E+02  0.13842743633E+02  0.54358036200E+01  0.28755691545E+02  0.00000000000E+00 0.  1.
</event>
<event>
 5    1  0.1325686E-009  0.9118800E+02  0.7818608E-02  0.1130116E+00
         25   -1    0    0    0    0  0.00000000000E+00  0.00000000000E+00  0.99999998245E-14  0.12500000000E+03  0.12500000000E+03 0.  0.
        -13    1    3    3    0    0  0.11537511703E+02  0.10749356457E+02 -0.18324619777E+02  0.24175725315E+02  0.10566000000E+00 0. -1.
         23    2    1    0    0    0  0.82471346260E+01  0.29332114873E+02  0.33729917418E+02  0.79545676537E+02  0.65279546063E+02 0.  0.
         13    1    3    3    0    0 -0.32903770768E+01  0.18582758416E+02  0.52054537195E+02  0.55369951221E+02  0.10566000000E+00 0.  1.
         22    1    1    0    0    0 -0.82471346260E+01 -0.29332114873E+02 -0.33729917418E+02  0.45454323463E+02  0.00000000000E+00 0.  1.
</event>
<event>
 5    1  0.1325686E-009  0.9118800E+02  0.7818608E-02  0.1130116E+00
         25   -1    0    0    0    0  0.00000000000E+00  0.00000000000E+00  0.99999998245E-14  0.12500000000E+03  0.12500000000E+03 0.  0.
        -13    1    3    3    0    0 -0.32107329619E+02  0.26775094365E+02  0.39211395819E+02  0.57317807177E+02  0.10566000000E+00 0. -1.
         23    2    1    0    0    0 -0.27652597307E+02  0.54691202846E+01  0.74119527399E+01  0.95853568693E+02  0.91314797121E+02 0.  0.
         13    1    3    3    0    0  0.44547323118E+01 -0.21305974080E+02 -0.31799443079E+02  0.38535761516E+02  0.10566000000E+00 0.  1.
         22    1    1    0    0    0  0.27652597307E+02 -0.54691202846E+01 -0.74119527399E+01  0.29146431307E+02  0.00000000000E+00 0. -1.
</event>
<event>
 5    1  0.1325686E-009  0.9118800E+02  0.7818608E-02  0.1130116E+00
         25   -1    0    0    0    0  0.00000000000E+00  0.00000000000E+00  0.99999998245E-14  0.12500000000E+03  0.12500000000E+03 0.  0.
        -13    1    3    3    0    0 -0.49984111294E+02  0.21969883713E+02  0.17133977898E+02  0.57224745826E+02  0.10566000000E+00 0.  1.
         23    2    1    0    0    0 -0.24073081278E+02  0.18088928077E+02 -0.83264895059E+01  0.93758153245E+02  0.88399877326E+02 0.  0.
         13    1    3    3    0    0  0.25911030017E+02 -0.38809556365E+01 -0.25460467404E+02  0.36533407419E+02  0.10566000000E+00 0. -1.
         22    1    1    0    0    0  0.24073081278E+02 -0.18088928077E+02  0.83264895059E+01  0.31241846755E+02  0.00000000000E+00 0.  1.
</event>
<event>
 5    1  0.1325686E-009  0.9118800E+02  0.7818608E-02  0.1130116E+00
         25   -1    0    0    0    0  0.00000000000E+00  0.00000000000E+00  0.99999998245E-14  0.12500000000E+03  0.12500000000E+03 0.  0.
        -13    1    3    3    0    0 -0.21484520800E+02 -0.38015621346E+02  0.79923883135E+01  0.44392133710E+02  0.10566000000E+00 0.  1.
         23    2    1    0    0    0  0.77810058727E+01 -0.12147377048E+02 -0.25406228016E+02  0.95783921489E+02  0.91219407871E+02 0.  0.
         13    1    3    3    0    0  0.29265526672E+02  0.25868244298E+02 -0.33398616329E+02  0.51391787780E+02  0.10566000000E+00 0. -1.
         22    1    1    0    0    0 -0.77810058727E+01  0.12147377048E+02  0.25406228016E+02  0.29216078511E+02  0.00000000000E+00 0. -1.
</event>
<event>
 5    1  0.1325686E-009  0.9118800E+02  0.7818608E-02  0.1130116E+00
         25   -1    0    0    0    0  0.00000000000E+00  0.00000000000E+00  0.99999998245E-14  0.12500000000E+03  0.12500000000E+03 0.  0.
        -13    1    3    3    0    0  0.32605123803E+02 -0.85475565618E+01  0.16162417693E+02  0.37381676409E+02  0.10566000000E+00 0. -1.
         23    2    1    0    0    0 -0.25364803769E+02 -0.11807805426E+02  0.35525317341E+01  0.96796843777E+02  0.92597035288E+02 0.  0.
         13    1    3    3    0    0 -0.57969927573E+02 -0.32602488637E+01 -0.12609885959E+02  0.59415167368E+02  0.10566000000E+00 0.  1.
         22    1    1    0    0    0  0.25364803769E+02  0.11807805426E+02 -0.35525317341E+01  0.28203156223E+02  0.00000000000E+00 0.  1.
</event>
<event>
 5    1  0.1325686E-009  0.9118800E+02  0.7818608E-02  0.1130116E+00
         25   -1    0    0    0    0  0.00000000000E+00  0.00000000000E+00  0.99999998245E-14  0.12500000000E+03  0.12500000000E+03 0.  0.
        -13    1    3    3    0    0 -0.30180763812E+02  0.23222003640E+02  0.60996283803E+00  0.38085734548E+02  0.10566000000E+00 0.  1.
         23    2    1    0    0    0  0.20418796203E+02 -0.76015251788E+01 -0.13990622691E+02  0.99106990389E+02  0.95664766749E+02 0.  0.
         13    1    3    3    0    0  0.50599560015E+02 -0.30823528819E+02 -0.14600585529E+02  0.61021255841E+02  0.10566000000E+00 0. -1.
         22    1    1    0    0    0 -0.20418796203E+02  0.76015251788E+01  0.13990622691E+02  0.25893009611E+02  0.00000000000E+00 0. -1.
</event>
<event>
 5    1  0.1325686E-009  0.9118800E+02  0.7818608E-02  0.1130116E+00
         25   -1    0    0    0    0  0.00000000000E+00  0.00000000000E+00  0.99999998245E-14  0.12500000000E+03  0.12500000000E+03 0.  0.
        -13    1    3    3    0    0  0.98291295583E+01 -0.35409652299E+02 -0.20978443733E+02  0.42315027228E+02  0.10566000000E+00 0. -1.
         23    2    1    0    0    0  0.16023734447E+02  0.17306137959E+02 -0.17731593352E+02  0.95492850366E+02  0.90819670730E+02 0.  0.
         13    1    3    3    0    0  0.61946048891E+01  0.52715790258E+02  0.32468503811E+01  0.53177823138E+02  0.10566000000E+00 0.  1.
         22    1    1    0    0    0 -0.16023734447E+02 -0.17306137959E+02  0.17731593352E+02  0.29507149634E+02  0.00000000000E+00 0.  1.
</event>
<event>
 5    1  0.1325686E-009  0.9118800E+02  0.7818608E-02  0.1130116E+00
         25   -1    0    0    0    0  0.00000000000E+00  0.00000000000E+00  0.99999998245E-14  0.12500000000E+03  0.12500000000E+03 0.  0.
        -13    1    3    3    0    0  0.70105091358E+01  0.51197661856E+02  0.24012118555E+02  0.56981934149E+02  0.10566000000E+00 0. -1.
         23    2    1    0    0    0  0.12529947069E+02  0.13250011165E+02  0.23399005041E+02  0.95333928364E+02  0.90600673788E+02 0.  0.
         13    1    3    3    0    0  0.55194379335E+01 -0.37947650690E+02 -0.61311351435E+00  0.38351994215E+02  0.10566000000E+00 0.  1.
         22    1    1    0    0    0 -0.12529947069E+02 -0.13250011165E+02 -0.23399005041E+02  0.29666071636E+02  0.00000000000E+00 0. -1.
</event>
<event>
 5    1  0.1325686E-009  0.9118800E+02  0.7818608E-02  0.1130116E+00
         25   -1    0    0    0    0  0.00000000000E+00  0.00000000000E+00  0.99999998245E-14  0.12500000000E+03  0.12500000000E+03 0.  0.
        -13    1    3    3    0    0  0.42510715401E+02 -0.96881097994E+01  0.32377299121E+01  0.43720869781E+02  0.10566000000E+00 0. -1.
         23    2    1    0    0    0  0.54860152539E+01  0.21910161998E+02 -0.17297680839E+02  0.96550723655E+02  0.92264190853E+02 0.  0.
         13    1    3    3    0    0 -0.37024700147E+02  0.31598271797E+02 -0.20535410751E+02  0.52829853874E+02  0.10566000000E+00 0.  1.
         22    1    1    0    0    0 -0.54860152539E+01 -0.21910161998E+02  0.17297680839E+02  0.28449276345E+02  0.00000000000E+00 0.  1.
</event>
<event>
 5    1  0.1325686E-009  0.9118800E+02  0.7818608E-02  0.1130116E+00
         25   -1    0    0    0    0  0.00000000000E+00  0.00000000000E+00  0.99999998245E-14  0.12500000000E+03  0.12500000000E+03 0.  0.
        -13    1    3    3    0    0 -0.45523261539E+02  0.13557235163E+02 -0.35056347100E+01  0.47628422241E+02  0.10566000000E+00 0. -1.
         23    2    1    0    0    0  0.32736798738E+01  0.24283901574E+02 -0.10984114996E+02  0.98147148423E+02  0.94402262185E+02 0.  0.
         13    1    3    3    0    0  0.48796941413E+02  0.10726666411E+02 -0.74784802857E+01  0.50518726182E+02  0.10566000000E+00 0.  1.
         22    1    1    0    0    0 -0.32736798738E+01 -0.24283901574E+02  0.10984114996E+02  0.26852851577E+02  0.00000000000E+00 0.  1.
</event>
<event>
 5    1  0.1325686E-009  0.9118800E+02  0.7818608E-02  0.1130116E+00
         25   -1    0    0    0    0  0.00000000000E+00  0.00000000000E+00  0.99999998245E-14  0.12500000000E+03  0.12500000000E+03 0.  0.
        -13    1    3    3    0    0  0.41018440047E+01 -0.34366948329E+02  0.32451068586E+01  0.34762827047E+02  0.10566000000E+00 0. -1.
         23    2    1    0    0    0  0.80956060520E+01  0.25620273305E+02  0.12101297517E+02  0.95531734982E+02  0.90873173960E+02 0.  0.
         13    1    3    3    0    0  0.39937620473E+01  0.59987221634E+02  0.88561906585E+01  0.60768907936E+02  0.10566000000E+00 0.  1.
         22    1    1    0    0    0 -0.80956060520E+01 -0.25620273305E+02 -0.12101297517E+02  0.29468265018E+02  0.00000000000E+00 0.  1.
</event>
<event>
 5    1  0.1325686E-009  0.9118800E+02  0.7818608E-02  0.1130116E+00
         25   -1    0    0    0    0  0.00000000000E+00  0.00000000000E+00  0.99999998245E-14  0.12500000000E+03  0.12500000000E+03 0.  0.
        -13    1    3    3    0    0 -0.32230293746E+02  0.29246698485E+01  0.15882385252E+01  0.32401839366E+02  0.10566000000E+00 0. -1.
         23    2    1    0    0    0  0.29668781787E+02 -0.35238958001E+01  0.48975742753E+01  0.94723925483E+02  0.89755118912E+02 0.  0.
         13    1    3    3    0    0  0.61899075533E+02 -0.64485656487E+01  0.33093357501E+01  0.62322086117E+02  0.10566000000E+00 0.  1.
         22    1    1    0    0    0 -0.29668781787E+02  0.35238958001E+01 -0.48975742753E+01  0.30276074517E+02  0.00000000000E+00 0.  1.
</event>
<event>
 5    1  0.1325686E-009  0.9118800E+02  0.7818608E-02  0.1130116E+00
         25   -1    0    0    0    0  0.00000000000E+00  0.00000000000E+00  0.99999998245E-14  0.12500000000E+03  0.12500000000E+03 0.  0.
        -13    1    3    3    0    0  0.28405151920E+02 -0.17695547895E+02 -0.11571059826E+02  0.35410247958E+02  0.10566000000E+00 0.  1.
         23    2    1    0    0    0 -0.28159103557E+02 -0.12156198647E+02 -0.11496352989E+02  0.92245238350E+02  0.86234039611E+02 0.  0.
         13    1    3    3    0    0 -0.56564255477E+02  0.55393492475E+01  0.74706836835E-01  0.56834990392E+02  0.10566000000E+00 0. -1.
         22    1    1    0    0    0  0.28159103557E+02  0.12156198647E+02  0.11496352989E+02  0.32754761650E+02  0.00000000000E+00 0. -1.
</event>
<event>
 5    1  0.1325686E-009  0.9118800E+02  0.7818608E-02  0.1130116E+00
         25   -1    0    0    0    0  0.00000000000E+00  0.00000000000E+00  0.99999998245E-14  0.12500000000E+03  0.12500000000E+03 0.  0.
        -13    1    3    3    0    0  0.18700706969E+02 -0.39461474340E+02  0.13642866152E+02  0.45750009389E+02  0.10566000000E+00 0.  1.
         23    2    1    0    0    0 -0.11953617791E+02 -0.10770818894E+02  0.30118259056E+02  0.90853125377E+02  0.84191931587E+02 0.  0.
         13    1    3    3    0    0 -0.30654324760E+02  0.28690655447E+02  0.16475392904E+02  0.45103115988E+02  0.10566000000E+00 0. -1.
         22    1    1    0    0    0  0.11953617791E+02  0.10770818894E+02 -0.30118259056E+02  0.34146874623E+02  0.00000000000E+00 0. -1.
</event>
<event>
 5    1  0.1325686E-009  0.9118800E+02  0.7818608E-02  0.1130116E+00
         25   -1    0    0    0    0  0.00000000000E+00  0.00000000000E+00  0.99999998245E-14  0.12500000000E+03  0.12500000000E+03 0.  0.
        -13    1    3    3    0    0 -0.14327445998E+02  0.59274663141E+01  0.33846834387E+02  0.37229422878E+02  0.10566000000E+00 0. -1.
         23    2    1    0    0    0  0.27808509394E+02 -0.70362007515E+01 -0.48729337285E+01  0.95904179014E+02  0.91384050870E+02 0.  0.
         13    1    3    3    0    0  0.42135955393E+02 -0.12963667066E+02 -0.38719768116E+02  0.58674756136E+02  0.10566000000E+00 0.  1.
         22    1    1    0    0    0 -0.27808509394E+02  0.70362007515E+01  0.48729337285E+01  0.29095820986E+02  0.00000000000E+00 0.  1.
</event>
<event>
 5    1  0.1325686E-009  0.9118800E+02  0.7818608E-02  0.1130116E+00
         25   -1    0    0    0    0  0.00000000000E+00  0.00000000000E+00  0.99999998245E-14  0.12500000000E+03  0.12500000000E+03 0.  0.
        -13    1    3    3    0    0 -0.24459778056E+02  0.19972020237E+01 -0.34519155361E+02  0.42353899577E+02  0.10566000000E+00 0.  1.
         23    2    1    0    0    0  0.24947045296E+02 -0.34084955208E+01 -0.14567487540E+02  0.95910747621E+02  0.91393035322E+02 0.  0.
         13    1    3    3    0    0  0.49406823352E+02 -0.54056975445E+01  0.19951667821E+02  0.53556848045E+02  0.10566000000E+00 0. -1.
         22    1    1    0    0    0 -0.24947045296E+02  0.34084955208E+01  0.14567487540E+02  0.29089252379E+02  0.00000000000E+00 0.  1.
</event>
<event>
 5    1  0.1325686E-009  0.9118800E+02  0.7818608E-02  0.1130116E+00
         25   -1    0    0    0    0  0.00000000000E+00  0.00000000000E+00  0.99999998245E-14  0.12500000000E+03  0.12500000000E+03 0.  0.
        -13    1    3    3    0    0 -0.26028460314E+02 -0.94067803346E+01  0.23703237416E+02  0.36439304200E+02  0.10566000000E+00 0.  1.
         23    2    1    0    0    0  0.22509129403E+01  0.14129218437E+02 -0.24227639284E+02  0.96863192648E+02  0.92686558691E+02 0.  0.
         13    1    3    3    0    0  0.28279373254E+02  0.23535998772E+02 -0.47930876700E+02  0.60423888447E+02  0.10566000000E+00 0. -1.
         22    1    1    0    0    0 -0.22509129403E+01 -0.14129218437E+02  0.24227639284E+02  0.28136807352E+02  0.00000000000E+00 0. -1.
</event>
<event>
 5    1  0.1325686E-009  0.9118800E+02  0.7818608E-02  0.1130116E+00
         25   -1    0    0    0    0  0.00000000000E+00  0.00000000000E+00  0.99999998245E-14  0.12500000000E+03  0.12500000000E+03 0.  0.
        -13    1    3    3    0    0 -0.10542018597E+02 -0.17234397727E+02 -0.33592238314E+02  0.39199595152E+02  0.10566000000E+00 0.  1.
         23    2    1    0    0    0  0.29221775609E+02  0.74664001571E+01 -0.40118006911E+01  0.94573796724E+02  0.89545793764E+02 0.  0.
         13    1    3    3    0    0  0.39763794206E+02  0.24700797884E+02  0.29580437623E+02  0.55374201572E+02  0.10566000000E+00 0. -1.
         22    1    1    0    0    0 -0.29221775609E+02 -0.74664001571E+01  0.40118006911E+01  0.30426203276E+02  0.00000000000E+00 0. -1.
</event>
<event>
 5    1  0.1325686E-009  0.9118800E+02  0.7818608E-02  0.1130116E+00
         25   -1    0    0    0    0  0.00000000000E+00  0.00000000000E+00  0.99999998245E-14  0.12500000000E+03  0.12500000000E+03 0.  0.
        -13    1    3    3    0    0 -0.34802163452E+02 -0.27805991143E+02  0.32570709707E+02  0.55183566569E+02  0.10566000000E+00 0.  1.
         23    2    1    0    0    0 -0.35966494073E+01 -0.11704351272E+01  0.28317698140E+02  0.96430823720E+02  0.92101606555E+02 0.  0.
         13    1    3    3    0    0  0.31205514045E+02  0.26635556016E+02 -0.42530115668E+01  0.41247257151E+02  0.10566000000E+00 0. -1.
         22    1    1    0    0    0  0.35966494073E+01  0.11704351272E+01 -0.28317698140E+02  0.28569176280E+02  0.00000000000E+00 0.  1.
</event>
<event>
 5    1  0.1325686E-009  0.9118800E+02  0.7818608E-02  0.1130116E+00
         25   -1    0    0    0    0  0.00000000000E+00  0.00000000000E+00  0.99999998245E-14  0.12500000000E+03  0.12500000000E+03 0.  0.
        -13    1    3    3    0    0  0.50523049365E+02 -0.14057273146E+02  0.24096385085E+02  0.57713363995E+02  0.10566000000E+00 0.  1.
         23    2    1    0    0    0  0.27906266220E+02 -0.13755864885E+01 -0.49227505878E+01  0.96629497610E+02  0.92370852559E+02 0.  0.
         13    1    3    3    0    0 -0.22616783145E+02  0.12681686657E+02 -0.29019135673E+02  0.38916133615E+02  0.10566000000E+00 0. -1.
         22    1    1    0    0    0 -0.27906266220E+02  0.13755864885E+01  0.49227505878E+01  0.28370502390E+02  0.00000000000E+00 0.  1.
</event>
<event>
 5    1  0.1325686E-009  0.9118800E+02  0.7818608E-02  0.1130116E+00
         25   -1    0    0    0    0  0.00000000000E+00  0.00000000000E+00  0.99999998245E-14  0.12500000000E+03  0.12500000000E+03 0.  0.
        -13    1    3    3    0    0 -0.52106501356E+01 -0.24918544331E+02  0.30486555493E+02  0.39718080974E+02  0.10566000000E+00 0.  1.
         23    2    1    0    0    0 -0.17497597623E+02  0.17636276839E+02 -0.85175695113E+01  0.98736847605E+02  0.95179892316E+02 0.  0.
         13    1    3    3    0    0 -0.12286947487E+02  0.42554821170E+02 -0.39004125004E+02  0.59018766632E+02  0.10566000000E+00 0. -1.
         22    1    1    0    0    0  0.17497597623E+02 -0.17636276839E+02  0.85175695113E+01  0.26263152395E+02  0.00000000000E+00 0. -1.
</event>
<event>
 5    1  0.1325686E-009  0.9118800E+02  0.7818608E-02  0.1130116E+00
         25   -1    0    0    0    0  0.00000000000E+00  0.00000000000E+00  0.99999998245E-14  0.12500000000E+03  0.12500000000E+03 0.  0.
        -13    1    3    3    0    0  0.25231093438E+02  0.43770431950E+02  0.19058718008E+02  0.53997265535E+02  0.10566000000E+00 0.  1.
         23    2    1    0    0    0 -0.13457555224E-01  0.24169176027E+02 -0.11515911962E+02  0.98227523849E+02  0.94508629035E+02 0.  0.
         13    1    3    3    0    0 -0.25244550993E+02 -0.19601255922E+02 -0.30574629971E+02  0.44230258313E+02  0.10566000000E+00 0. -1.
         22    1    1    0    0    0  0.13457555224E-01 -0.24169176027E+02  0.11515911962E+02  0.26772476151E+02  0.00000000000E+00 0.  1.
</event>
<event>
 5    1  0.1325686E-009  0.9118800E+02  0.7818608E-02  0.1130116E+00
         25   -1    0    0    0    0  0.00000000000E+00  0.00000000000E+00  0.99999998245E-14  0.12500000000E+03  0.12500000000E+03 0.  0.
        -13    1    3    3    0    0  0.35312227703E+02 -0.99945314100E+01  0.27403504168E+02  0.45801826253E+02  0.10566000000E+00 0.  1.
         23    2    1    0    0    0 -0.60896193774E+01  0.15560989607E+02  0.25524625140E+02  0.94492060865E+02  0.89431623134E+02 0.  0.
         13    1    3    3    0    0 -0.41401847080E+02  0.25555521017E+02 -0.18788790283E+01  0.48690234612E+02  0.10566000000E+00 0. -1.
         22    1    1    0    0    0  0.60896193774E+01 -0.15560989607E+02 -0.25524625140E+02  0.30507939135E+02  0.00000000000E+00 0. -1.
</event>
<event>
 5    1  0.1325686E-009  0.9118800E+02  0.7818608E-02  0.1130116E+00
         25   -1    0    0    0    0  0.00000000000E+00  0.00000000000E+00  0.99999998245E-14  0.12500000000E+03  0.12500000000E+03 0.  0.
        -13    1    3    3    0    0 -0.48929853045E+02  0.14270425149E+02 -0.13092127602E+02  0.52623098751E+02  0.10566000000E+00 0.  1.
         23    2    1    0    0    0 -0.13999919053E+02 -0.13150694165E+02 -0.19660897999E+02  0.97513832558E+02  0.93559917376E+02 0.  0.
         13    1    3    3    0    0  0.34929933992E+02 -0.27421119314E+02 -0.65687703971E+01  0.44890733807E+02  0.10566000000E+00 0. -1.
         22    1    1    0    0    0  0.13999919053E+02  0.13150694165E+02  0.19660897999E+02  0.27486167442E+02  0.00000000000E+00 0.  1.
</event>
<event>
 5    1  0.1325686E-009  0.9118800E+02  0.7818608E-02  0.1130116E+00
         25   -1    0    0    0    0  0.00000000000E+00  0.00000000000E+00  0.99999998245E-14  0.12500000000E+03  0.12500000000E+03 0.  0.
        -13    1    3    3    0    0 -0.24960281240E+02 -0.25096101297E+02 -0.46323243008E+02  0.58298232792E+02  0.10566000000E+00 0.  1.
         23    2    1    0    0    0 -0.24894500154E+02 -0.90569009450E+01 -0.12550041755E+02  0.95686741214E+02  0.91086142214E+02 0.  0.
         13    1    3    3    0    0  0.65781086433E-01  0.16039200352E+02  0.33773201253E+02  0.37388508421E+02  0.10566000000E+00 0. -1.
         22    1    1    0    0    0  0.24894500154E+02  0.90569009450E+01  0.12550041755E+02  0.29313258786E+02  0.00000000000E+00 0.  1.
</event>
<event>
 5    1  0.1325686E-009  0.9118800E+02  0.7818608E-02  0.1130116E+00
         25   -1    0    0    0    0  0.00000000000E+00  0.00000000000E+00  0.99999998245E-14  0.12500000000E+03  0.12500000000E+03 0.  0.
        -13    1    3    3    0    0  0.28539206090E+02  0.26128078176E+02  0.11389639829E+02  0.40334821344E+02  0.10566000000E+00 0. -1.
         23    2    1    0    0    0  0.47207727467E+01 -0.22620747111E+02  0.18949777884E+02  0.95115589732E+02  0.90298933732E+02 0.  0.
         13    1    3    3    0    0 -0.23818433343E+02 -0.48748825287E+02  0.75601380548E+01  0.54780768388E+02  0.10566000000E+00 0.  1.
         22    1    1    0    0    0 -0.47207727467E+01  0.22620747111E+02 -0.18949777884E+02  0.29884410268E+02  0.00000000000E+00 0.  1.
</event>
<event>
 5    1  0.1325686E-009  0.9118800E+02  0.7818608E-02  0.1130116E+00
         25   -1    0    0    0    0  0.00000000000E+00  0.00000000000E+00  0.99999998245E-14  0.12500000000E+03  0.12500000000E+03 0.  0.
        -13    1    3    3    0    0 -0.26372173612E+02  0.24500466771E+02 -0.12261114213E+02  0.38027759581E+02  0.10566000000E+00 0.  1.
         23    2    1    0    0    0  0.23198464559E+02  0.87074413795E+01  0.14246913997E+02  0.96417437978E+02  0.92083437678E+02 0.  0.
         13    1    3    3    0    0  0.49570638171E+02 -0.15793025391E+02  0.26508028210E+02  0.58389678397E+02  0.10566000000E+00 0. -1.
         22    1    1    0    0    0 -0.23198464559E+02 -0.87074413795E+01 -0.14246913997E+02  0.28582562022E+02  0.00000000000E+00 0. -1.
</event>
<event>
 5    1  0.1325686E-009  0.9118800E+02  0.7818608E-02  0.1130116E+00
         25   -1    0    0    0    0  0.00000000000E+00  0.00000000000E+00  0.99999998245E-14  0.12500000000E+03  0.12500000000E+03 0.  0.
        -13    1    3    3    0    0  0.46148699543E+02 -0.21035779695E+02  0.31439264101E+02  0.59671140329E+02  0.10566000000E+00 0.  1.
         23    2    1    0    0    0  0.12088214719E+02 -0.97911291320E+01  0.24150576141E+02  0.96272983575E+02  0.91887136715E+02 0.  0.
         13    1    3    3    0    0 -0.34060484824E+02  0.11244650563E+02 -0.72886879608E+01  0.36601843246E+02  0.10566000000E+00 0. -1.
         22    1    1    0    0    0 -0.12088214719E+02  0.97911291320E+01 -0.24150576141E+02  0.28727016425E+02  0.00000000000E+00 0.  1.
</event>
<event>
 5    1  0.1325686E-009  0.9118800E+02  0.7818608E-02  0.1130116E+00
         25   -1    0    0    0    0  0.00000000000E+00  0.00000000000E+00  0.99999998245E-14  0.12500000000E+03  0.12500000000E+03 0.  0.
        -13    1    3    3    0    0 -0.13721762446E+02  0.45440368011E+02  0.68516460960E+01  0.47959045319E+02  0.10566000000E+00 0.  1.
         23    2    1    0    0    0 -0.98106718590E+01  0.16137739065E+02 -0.26456514660E+02  0.92494260932E+02  0.86594256351E+02 0.  0.
         13    1    3    3    0    0  0.39110905867E+01 -0.29302628946E+02 -0.33308160756E+02  0.44535215613E+02  0.10566000000E+00 0. -1.
         22    1    1    0    0    0  0.98106718590E+01 -0.16137739065E+02  0.26456514660E+02  0.32505739068E+02  0.00000000000E+00 0. -1.
</event>
<event>
 5    1  0.1325686E-009  0.9118800E+02  0.7818608E-02  0.1130116E+00
         25   -1    0    0    0    0  0.00000000000E+00  0.00000000000E+00  0.99999998245E-14  0.12500000000E+03  0.12500000000E+03 0.  0.
        -13    1    3    3    0    0 -0.39430173418E+02 -0.75850149615E+01 -0.42666706931E+01  0.40379285167E+02  0.10566000000E+00 0.  1.
         23    2    1    0    0    0  0.44702972869E+01 -0.45802100760E+00  0.28832480844E+02  0.95819436388E+02  0.91268061758E+02 0.  0.
         13    1    3    3    0    0  0.43900470705E+02  0.71269939539E+01  0.33099151537E+02  0.55440151221E+02  0.10566000000E+00 0. -1.
         22    1    1    0    0    0 -0.44702972869E+01  0.45802100760E+00 -0.28832480844E+02  0.29180563612E+02  0.00000000000E+00 0. -1.
</event>
<event>
 5    1  0.1325686E-009  0.9118800E+02  0.7818608E-02  0.1130116E+00
         25   -1    0    0    0    0  0.00000000000E+00  0.00000000000E+00  0.99999998245E-14  0.12500000000E+03  0.12500000000E+03 0.  0.
        -13    1    3    3    0    0  0.17902235419E+02  0.27706998335E+01 -0.38228403627E+02  0.42303531986E+02  0.10566000000E+00 0.  1.
         23    2    1    0    0    0 -0.61100905103E+01  0.23126620082E+02  0.93200518002E+01  0.99328281553E+02  0.95953480334E+02 0.  0.
         13    1    3    3    0    0 -0.24012325930E+02  0.20355920248E+02  0.47548455427E+02  0.57024749567E+02  0.10566000000E+00 0. -1.
         22    1    1    0    0    0  0.61100905103E+01 -0.23126620082E+02 -0.93200518002E+01  0.25671718447E+02  0.00000000000E+00 0.  1.
</event>
<event>
 5    1  0.1325686E-009  0.9118800E+02  0.7818608E-02  0.1130116E+00
         25   -1    0    0    0    0  0.00000000000E+00  0.00000000000E+00  0.99999998245E-14  0.12500000000E+03  0.12500000000E+03 0.  0.
        -13    1    3    3    0    0 -0.35187504920E+02 -0.17388674105E+02 -0.24426491722E+02  0.46229764779E+02  0.10566000000E+00 0. -1.
         23    2    1    0    0    0 -0.18902255180E+02  0.21667384674E+02  0.20959456124E+01  0.96170088493E+02  0.91747055120E+02 0.  0.
         13    1    3    3    0    0  0.16285249740E+02  0.39056058779E+02  0.26522437334E+02  0.49940323714E+02  0.10566000000E+00 0.  1.
         22    1    1    0    0    0  0.18902255180E+02 -0.21667384674E+02 -0.20959456124E+01  0.28829911507E+02  0.00000000000E+00 0. -1.
</event>
<event>
 5    1  0.1325686E-009  0.9118800E+02  0.7818608E-02  0.1130116E+00
         25   -1    0    0    0    0  0.00000000000E+00  0.00000000000E+00  0.99999998245E-14  0.12500000000E+03  0.12500000000E+03 0.  0.
        -13    1    3    3    0    0 -0.28662760357E+02 -0.41188631487E+02 -0.36867224768E+02  0.62267653089E+02  0.10566000000E+00 0.  1.
         23    2    1    0    0    0 -0.96913537773E+01 -0.20091300889E+02 -0.14526246763E+02  0.98380560591E+02  0.94710823815E+02 0.  0.
         13    1    3    3    0    0  0.18971406580E+02  0.21097330598E+02  0.22340978005E+02  0.36112907502E+02  0.10566000000E+00 0. -1.
         22    1    1    0    0    0  0.96913537773E+01  0.20091300889E+02  0.14526246763E+02  0.26619439409E+02  0.00000000000E+00 0.  1.
</event>
<event>
 5    1  0.1325686E-009  0.9118800E+02  0.7818608E-02  0.1130116E+00
         25   -1    0    0    0    0  0.00000000000E+00  0.00000000000E+00  0.99999998245E-14  0.12500000000E+03  0.12500000000E+03 0.  0.
        -13    1    3    3    0    0 -0.16460750937E+02  0.18382210855E+02  0.37745211059E+02  0.45095167361E+02  0.10566000000E+00 0.  1.
         23    2    1    0    0    0  0.22291048554E+02  0.44241814015E+01  0.30575724280E+02  0.86903554733E+02  0.78108185764E+02 0.  0.
         13    1    3    3    0    0  0.38751799491E+02 -0.13958029453E+02 -0.71694867792E+01  0.41808387373E+02  0.10566000000E+00 0. -1.
         22    1    1    0    0    0 -0.22291048554E+02 -0.44241814015E+01 -0.30575724280E+02  0.38096445267E+02  0.00000000000E+00 0.  1.
</event>
<event>
 5    1  0.1325686E-009  0.9118800E+02  0.7818608E-02  0.1130116E+00
         25   -1    0    0    0    0  0.00000000000E+00  0.00000000000E+00  0.99999998245E-14  0.12500000000E+03  0.12500000000E+03 0.  0.
        -13    1    3    3    0    0 -0.41281602803E+02  0.64755857791E+01  0.45148148123E+02  0.61518049255E+02  0.10566000000E+00 0.  1.
         23    2    1    0    0    0 -0.15867352308E+02  0.72603680158E+00  0.28299509181E+02  0.92547539098E+02  0.86671129995E+02 0.  0.
         13    1    3    3    0    0  0.25414250495E+02 -0.57495489775E+01 -0.16848638942E+02  0.31029489843E+02  0.10566000000E+00 0. -1.
         22    1    1    0    0    0  0.15867352308E+02 -0.72603680158E+00 -0.28299509181E+02  0.32452460902E+02  0.00000000000E+00 0.  1.
</event>
<event>
 5    1  0.1325686E-009  0.9118800E+02  0.7818608E-02  0.1130116E+00
         25   -1    0    0    0    0  0.00000000000E+00  0.00000000000E+00  0.99999998245E-14  0.12500000000E+03  0.12500000000E+03 0.  0.
        -13    1    3    3    0    0 -0.31494566020E+02  0.23340654879E+02  0.32832109526E+02  0.51133672262E+02  0.10566000000E+00 0. -1.
         23    2    1    0    0    0  0.62288071399E+01  0.24278236562E+02  0.24851886531E+02  0.89703441059E+02  0.82467328468E+02 0.  0.
         13    1    3    3    0    0  0.37723373160E+02  0.93758168214E+00 -0.79802229948E+01  0.38569768797E+02  0.10566000000E+00 0.  1.
         22    1    1    0    0    0 -0.62288071399E+01 -0.24278236562E+02 -0.24851886531E+02  0.35296558941E+02  0.00000000000E+00 0. -1.
</event>
<event>
 5    1  0.1325686E-009  0.9118800E+02  0.7818608E-02  0.1130116E+00
         25   -1    0    0    0    0  0.00000000000E+00  0.00000000000E+00  0.99999998245E-14  0.12500000000E+03  0.12500000000E+03 0.  0.
        -13    1    3    3    0    0 -0.30226899083E+02  0.42191636240E+02  0.17479364412E+02  0.54766220803E+02  0.10566000000E+00 0.  1.
         23    2    1    0    0    0 -0.12877282297E+02  0.56071136979E+01  0.25354708484E+02  0.96015083825E+02  0.91535626704E+02 0.  0.
         13    1    3    3    0    0  0.17349616786E+02 -0.36584522542E+02  0.78753440726E+01  0.41248863021E+02  0.10566000000E+00 0. -1.
         22    1    1    0    0    0  0.12877282297E+02 -0.56071136979E+01 -0.25354708484E+02  0.28984916175E+02  0.00000000000E+00 0.  1.
</event>
<event>
 5    1  0.1325686E-009  0.9118800E+02  0.7818608E-02  0.1130116E+00
         25   -1    0    0    0    0  0.00000000000E+00  0.00000000000E+00  0.99999998245E-14  0.12500000000E+03  0.12500000000E+03 0.  0.
        -13    1    3    3    0    0 -0.25544041885E+02 -0.26851467377E+02  0.36876344099E+02  0.52281691770E+02  0.10566000000E+00 0. -1.
         23    2    1    0    0    0  0.12541663791E+02 -0.20515747193E+02  0.15040531668E+02  0.96637933672E+02  0.92382267876E+02 0.  0.
         13    1    3    3    0    0  0.38085705676E+02  0.63357201835E+01 -0.21835812431E+02  0.44356241902E+02  0.10566000000E+00 0.  1.
         22    1    1    0    0    0 -0.12541663791E+02  0.20515747193E+02 -0.15040531668E+02  0.28362066328E+02  0.00000000000E+00 0. -1.
</event>
<event>
 5    1  0.1325686E-009  0.9118800E+02  0.7818608E-02  0.1130116E+00
         25   -1    0    0    0    0  0.00000000000E+00  0.00000000000E+00  0.99999998245E-14  0.12500000000E+03  0.12500000000E+03 0.  0.
        -13    1    3    3    0    0 -0.42635041191E+02 -0.96336553611E+00  0.37567399120E+02  0.56833048935E+02  0.10566000000E+00 0. -1.
         23    2    1    0    0    0 -0.18417052049E+02  0.17891025886E+02  0.12596262172E+02  0.96400307097E+02  0.92060180178E+02 0.  0.
         13    1    3    3    0    0  0.24217989142E+02  0.18854391422E+02 -0.24971136948E+02  0.39567258162E+02  0.10566000000E+00 0.  1.
         22    1    1    0    0    0  0.18417052049E+02 -0.17891025886E+02 -0.12596262172E+02  0.28599692903E+02  0.00000000000E+00 0. -1.
</event>
<event>
 5    1  0.1325686E-009  0.9118800E+02  0.7818608E-02  0.1130116E+00
         25   -1    0    0    0    0  0.00000000000E+00  0.00000000000E+00  0.99999998245E-14  0.12500000000E+03  0.12500000000E+03 0.  0.
        -13    1    3    3    0    0  0.39331570592E+02 -0.13631450935E+02  0.38553512234E+02  0.56737759644E+02  0.10566000000E+00 0. -1.
         23    2    1    0    0    0  0.14226388795E+02 -0.23141399465E+02  0.96835554404E+01  0.96161037582E+02  0.91734722955E+02 0.  0.
         13    1    3    3    0    0 -0.25105181797E+02 -0.95099485300E+01 -0.28869956794E+02  0.39423277938E+02  0.10566000000E+00 0.  1.
         22    1    1    0    0    0 -0.14226388795E+02  0.23141399465E+02 -0.96835554404E+01  0.28838962418E+02  0.00000000000E+00 0. -1.
</event>
<event>
 5    1  0.1325686E-009  0.9118800E+02  0.7818608E-02  0.1130116E+00
         25   -1    0    0    0    0  0.00000000000E+00  0.00000000000E+00  0.99999998245E-14  0.12500000000E+03  0.12500000000E+03 0.  0.
        -13    1    3    3    0    0  0.13009566510E+02 -0.52265082549E+02  0.31069792595E+02  0.62179022593E+02  0.10566000000E+00 0.  1.
         23    2    1    0    0    0  0.66022475854E+01 -0.26765326293E+02  0.10741595649E+02  0.95413613910E+02  0.90710547775E+02 0.  0.
         13    1    3    3    0    0 -0.64073189245E+01  0.25499756256E+02 -0.20328196946E+02  0.33234591317E+02  0.10566000000E+00 0. -1.
         22    1    1    0    0    0 -0.66022475854E+01  0.26765326293E+02 -0.10741595649E+02  0.29586386090E+02  0.00000000000E+00 0.  1.
</event>
<event>
 5    1  0.1325686E-009  0.9118800E+02  0.7818608E-02  0.1130116E+00
         25   -1    0    0    0    0  0.00000000000E+00  0.00000000000E+00  0.99999998245E-14  0.12500000000E+03  0.12500000000E+03 0.  0.
        -13    1    3    3    0    0  0.51040444487E+02 -0.92736781308E+01  0.34349185474E+02  0.62217407422E+02  0.10566000000E+00 0. -1.
         23    2    1    0    0    0  0.21010838467E+02 -0.70620487669E+01  0.17765841433E+02  0.96593082045E+02  0.92321560382E+02 0.  0.
         13    1    3    3    0    0 -0.30029606020E+02  0.22116293639E+01 -0.16583344041E+02  0.34375674623E+02  0.10566000000E+00 0.  1.
         22    1    1    0    0    0 -0.21010838467E+02  0.70620487669E+01 -0.17765841433E+02  0.28406917955E+02  0.00000000000E+00 0. -1.
</event>
<event>
 5    1  0.1325686E-009  0.9118800E+02  0.7818608E-02  0.1130116E+00
         25   -1    0    0    0    0  0.00000000000E+00  0.00000000000E+00  0.99999998245E-14  0.12500000000E+03  0.12500000000E+03 0.  0.
        -13    1    3    3    0    0 -0.81656806031E+01 -0.51731109569E+02  0.30112571492E+02  0.60411622746E+02  0.10566000000E+00 0.  1.
         23    2    1    0    0    0  0.75370428124E+01 -0.24124593931E+02  0.15290413283E+02  0.95460199983E+02  0.90774721128E+02 0.  0.
         13    1    3    3    0    0  0.15702723415E+02  0.27606515638E+02 -0.14822158210E+02  0.35048577237E+02  0.10566000000E+00 0. -1.
         22    1    1    0    0    0 -0.75370428124E+01  0.24124593931E+02 -0.15290413283E+02  0.29539800017E+02  0.00000000000E+00 0.  1.
</event>
<event>
 5    1  0.1325686E-009  0.9118800E+02  0.7818608E-02  0.1130116E+00
         25   -1    0    0    0    0  0.00000000000E+00  0.00000000000E+00  0.99999998245E-14  0.12500000000E+03  0.12500000000E+03 0.  0.
        -13    1    3    3    0    0 -0.18942551753E+02 -0.39488487336E+02  0.86472777071E+01  0.44642440287E+02  0.10566000000E+00 0.  1.
         23    2    1    0    0    0 -0.61029555904E+01 -0.69985922095E+01 -0.28135684021E+02  0.95371583316E+02  0.90652610712E+02 0.  0.
         13    1    3    3    0    0  0.12839596162E+02  0.32489895126E+02 -0.36782961729E+02  0.50729143029E+02  0.10566000000E+00 0. -1.
         22    1    1    0    0    0  0.61029555904E+01  0.69985922095E+01  0.28135684021E+02  0.29628416684E+02  0.00000000000E+00 0. -1.
</event>
<event>
 5    1  0.1325686E-009  0.9118800E+02  0.7818608E-02  0.1130116E+00
         25   -1    0    0    0    0  0.00000000000E+00  0.00000000000E+00  0.99999998245E-14  0.12500000000E+03  0.12500000000E+03 0.  0.
        -13    1    3    3    0    0 -0.26051199101E+02 -0.52341691748E+02 -0.18761976991E+02  0.61403099386E+02  0.10566000000E+00 0.  1.
         23    2    1    0    0    0 -0.50405117708E+01 -0.28397519613E+02 -0.10432848974E+02  0.94329652484E+02  0.89204333532E+02 0.  0.
         13    1    3    3    0    0  0.21010687330E+02  0.23944172135E+02  0.83291280171E+01  0.32926553097E+02  0.10566000000E+00 0. -1.
         22    1    1    0    0    0  0.50405117708E+01  0.28397519613E+02  0.10432848974E+02  0.30670347516E+02  0.00000000000E+00 0.  1.
</event>
<event>
 5    1  0.1325686E-009  0.9118800E+02  0.7818608E-02  0.1130116E+00
         25   -1    0    0    0    0  0.00000000000E+00  0.00000000000E+00  0.99999998245E-14  0.12500000000E+03  0.12500000000E+03 0.  0.
        -13    1    3    3    0    0 -0.41830777963E+02 -0.45154386092E+02 -0.24235409069E+01  0.61600464957E+02  0.10566000000E+00 0.  1.
         23    2    1    0    0    0 -0.14685226225E+02 -0.25025313272E+02 -0.52498711536E+01  0.95512997427E+02  0.90847395982E+02 0.  0.
         13    1    3    3    0    0  0.27145551739E+02  0.20129072820E+02 -0.28263302466E+01  0.33912532470E+02  0.10566000000E+00 0. -1.
         22    1    1    0    0    0  0.14685226225E+02  0.25025313272E+02  0.52498711536E+01  0.29487002573E+02  0.00000000000E+00 0.  1.
</event>
<event>
 5    1  0.1325686E-009  0.9118800E+02  0.7818608E-02  0.1130116E+00
         25   -1    0    0    0    0  0.00000000000E+00  0.00000000000E+00  0.99999998245E-14  0.12500000000E+03  0.12500000000E+03 0.  0.
        -13    1    3    3    0    0  0.41107387751E+02 -0.16528998154E+02  0.42925773674E+02  0.61690017971E+02  0.10566000000E+00 0.  1.
         23    2    1    0    0    0  0.18172291889E+02 -0.13829899268E+02  0.16256719682E+02  0.96968245843E+02  0.92828128608E+02 0.  0.
         13    1    3    3    0    0 -0.22935095862E+02  0.26990988856E+01 -0.26669053992E+02  0.35278227873E+02  0.10566000000E+00 0. -1.
         22    1    1    0    0    0 -0.18172291889E+02  0.13829899268E+02 -0.16256719682E+02  0.28031754157E+02  0.00000000000E+00 0.  1.
</event>
<event>
 4    1  0.1325686E-009  0.9118800E+02  0.7818608E-02  0.1130116E+00
         25   -1    0    0    0    0  0.00000000000E+00  0.00000000000E+00  0.99999998245E-14  0.12500000000E+03  0.12500000000E+03 0.  0.
        -13    1    1    0    0    0  0.34279824944E+02  0.98283625653E+01  0.36402463879E+02  0.50959333290E+02  0.10566000000E+00 0.  1.
         13    1    1    0    0    0 -0.10376235161E+02  0.65049240477E+01  0.12316301294E+02  0.17369016512E+02  0.10566000000E+00 0. -1.
         22    1    1    0    0    0 -0.23903589783E+02 -0.16333286613E+02 -0.48718765173E+02  0.56671650198E+02  0.00000000000E+00 0.  1.
</event>
<event>
 5    1  0.1325686E-009  0.9118800E+02  0.7818608E-02  0.1130116E+00
         25   -1    0    0    0    0  0.00000000000E+00  0.00000000000E+00  0.99999998245E-14  0.12500000000E+03  0.12500000000E+03 0.  0.
        -13    1    3    3    0    0  0.49350071020E+02  0.32349130091E+02 -0.99573376430E+01  0.59841920627E+02  0.10566000000E+00 0.  1.
         23    2    1    0    0    0  0.14366189633E+02  0.20076231818E+02 -0.13106250668E+02  0.97049753218E+02  0.92937819560E+02 0.  0.
         13    1    3    3    0    0 -0.34983881386E+02 -0.12272898273E+02 -0.31489130254E+01  0.37207832591E+02  0.10566000000E+00 0. -1.
         22    1    1    0    0    0 -0.14366189633E+02 -0.20076231818E+02  0.13106250668E+02  0.27950246782E+02  0.00000000000E+00 0.  1.
</event>
<event>
 5    1  0.1325686E-009  0.9118800E+02  0.7818608E-02  0.1130116E+00
         25   -1    0    0    0    0  0.00000000000E+00  0.00000000000E+00  0.99999998245E-14  0.12500000000E+03  0.12500000000E+03 0.  0.
        -13    1    3    3    0    0  0.46137078123E+02 -0.10070907821E+02  0.16517741921E+02  0.50028992837E+02  0.10566000000E+00 0. -1.
         23    2    1    0    0    0  0.14904779413E+01 -0.22026702748E+02  0.18360907532E+02  0.96285542251E+02  0.91904219504E+02 0.  0.
         13    1    3    3    0    0 -0.44646600182E+02 -0.11955794927E+02  0.18431656111E+01  0.46256549413E+02  0.10566000000E+00 0.  1.
         22    1    1    0    0    0 -0.14904779413E+01  0.22026702748E+02 -0.18360907532E+02  0.28714457749E+02  0.00000000000E+00 0. -1.
</event>
<event>
 5    1  0.1325686E-009  0.9118800E+02  0.7818608E-02  0.1130116E+00
         25   -1    0    0    0    0  0.00000000000E+00  0.00000000000E+00  0.99999998245E-14  0.12500000000E+03  0.12500000000E+03 0.  0.
        -13    1    3    3    0    0 -0.10742158014E+02 -0.17440414577E+02 -0.48572832886E+02  0.52715209172E+02  0.10566000000E+00 0. -1.
         23    2    1    0    0    0 -0.19360310791E+02 -0.15340797173E+02 -0.18977892793E+01  0.10022575337E+03  0.97115592688E+02 0.  0.
         13    1    3    3    0    0 -0.86181527765E+01  0.20996174044E+01  0.46675043607E+02  0.47510544201E+02  0.10566000000E+00 0.  1.
         22    1    1    0    0    0  0.19360310791E+02  0.15340797173E+02  0.18977892793E+01  0.24774246627E+02  0.00000000000E+00 0.  1.
</event>
<event>
 5    1  0.1325686E-009  0.9118800E+02  0.7818608E-02  0.1130116E+00
         25   -1    0    0    0    0  0.00000000000E+00  0.00000000000E+00  0.99999998245E-14  0.12500000000E+03  0.12500000000E+03 0.  0.
        -13    1    3    3    0    0  0.76256557847E+01 -0.42985835795E+01 -0.48723201477E+02  0.49503433953E+02  0.10566000000E+00 0.  1.
         23    2    1    0    0    0  0.64739086490E+01  0.24688654865E+02 -0.10712897233E+02  0.97319549510E+02  0.93299985945E+02 0.  0.
         13    1    3    3    0    0 -0.11517471357E+01  0.28987238444E+02  0.38010304245E+02  0.47816115556E+02  0.10566000000E+00 0. -1.
         22    1    1    0    0    0 -0.64739086490E+01 -0.24688654865E+02  0.10712897233E+02  0.27680450490E+02  0.00000000000E+00 0. -1.
</event>
<event>
 5    1  0.1325686E-009  0.9118800E+02  0.7818608E-02  0.1130116E+00
         25   -1    0    0    0    0  0.00000000000E+00  0.00000000000E+00  0.99999998245E-14  0.12500000000E+03  0.12500000000E+03 0.  0.
        -13    1    3    3    0    0 -0.12627466548E+02 -0.13678454906E+02  0.42978025639E+02  0.46836683186E+02  0.10566000000E+00 0.  1.
         23    2    1    0    0    0 -0.76636865350E+01 -0.29413049630E+02 -0.17939332142E+01  0.94552048078E+02  0.89515428947E+02 0.  0.
         13    1    3    3    0    0  0.49637800131E+01 -0.15734594724E+02 -0.44771958853E+02  0.47715364892E+02  0.10566000000E+00 0. -1.
         22    1    1    0    0    0  0.76636865350E+01  0.29413049630E+02  0.17939332142E+01  0.30447951922E+02  0.00000000000E+00 0.  1.
</event>
<event>
 5    1  0.1325686E-009  0.9118800E+02  0.7818608E-02  0.1130116E+00
         25   -1    0    0    0    0  0.00000000000E+00  0.00000000000E+00  0.99999998245E-14  0.12500000000E+03  0.12500000000E+03 0.  0.
        -13    1    3    3    0    0  0.36077999102E+02  0.37634511117E+02 -0.23251964409E+02  0.57084529070E+02  0.10566000000E+00 0.  1.
         23    2    1    0    0    0  0.29322097103E+02  0.61787644524E+01 -0.35168156752E+01  0.94828316235E+02  0.89900384086E+02 0.  0.
         13    1    3    3    0    0 -0.67559019991E+01 -0.31455746664E+02  0.19735148734E+02  0.37743787166E+02  0.10566000000E+00 0. -1.
         22    1    1    0    0    0 -0.29322097103E+02 -0.61787644524E+01  0.35168156752E+01  0.30171683765E+02  0.00000000000E+00 0.  1.
</event>
<event>
 5    1  0.1325686E-009  0.9118800E+02  0.7818608E-02  0.1130116E+00
         25   -1    0    0    0    0  0.00000000000E+00  0.00000000000E+00  0.99999998245E-14  0.12500000000E+03  0.12500000000E+03 0.  0.
        -13    1    3    3    0    0 -0.48965690456E+02 -0.38591791949E+01 -0.37015930880E+01  0.49256929069E+02  0.10566000000E+00 0.  1.
         23    2    1    0    0    0 -0.11487186465E+02  0.99529058195E+01 -0.25911801407E+02  0.94959406809E+02  0.90082471670E+02 0.  0.
         13    1    3    3    0    0  0.37478503991E+02  0.13812085014E+02 -0.22210208319E+02  0.45702477739E+02  0.10566000000E+00 0. -1.
         22    1    1    0    0    0  0.11487186465E+02 -0.99529058195E+01  0.25911801407E+02  0.30040593191E+02  0.00000000000E+00 0.  1.
</event>
<event>
 5    1  0.1325686E-009  0.9118800E+02  0.7818608E-02  0.1130116E+00
         25   -1    0    0    0    0  0.00000000000E+00  0.00000000000E+00  0.99999998245E-14  0.12500000000E+03  0.12500000000E+03 0.  0.
        -13    1    3    3    0    0 -0.14652982988E+02  0.17830819244E+02  0.51850594068E+02  0.56755116902E+02  0.10566000000E+00 0.  1.
         23    2    1    0    0    0 -0.55418988356E+01 -0.10230985554E+02  0.27948652230E+02  0.94726036441E+02  0.89758058748E+02 0.  0.
         13    1    3    3    0    0  0.91110841520E+01 -0.28061804798E+02 -0.23901941838E+02  0.37970919538E+02  0.10566000000E+00 0. -1.
         22    1    1    0    0    0  0.55418988356E+01  0.10230985554E+02 -0.27948652230E+02  0.30273963559E+02  0.00000000000E+00 0. -1.
</event>
<event>
 5    1  0.1325686E-009  0.9118800E+02  0.7818608E-02  0.1130116E+00
         25   -1    0    0    0    0  0.00000000000E+00  0.00000000000E+00  0.99999998245E-14  0.12500000000E+03  0.12500000000E+03 0.  0.
        -13    1    3    3    0    0 -0.12955189348E+02  0.30260445869E+02 -0.48934330102E+02  0.58975514765E+02  0.10566000000E+00 0. -1.
         23    2    1    0    0    0 -0.98725126180E+01  0.24393293833E+02 -0.12756227089E+02  0.95755844704E+02  0.91180925506E+02 0.  0.
         13    1    3    3    0    0  0.30826767298E+01 -0.58671520357E+01  0.36178103013E+02  0.36780329940E+02  0.10566000000E+00 0.  1.
         22    1    1    0    0    0  0.98725126180E+01 -0.24393293833E+02  0.12756227089E+02  0.29244155296E+02  0.00000000000E+00 0. -1.
</event>
<event>
 5    1  0.1325686E-009  0.9118800E+02  0.7818608E-02  0.1130116E+00
         25   -1    0    0    0    0  0.00000000000E+00  0.00000000000E+00  0.99999998245E-14  0.12500000000E+03  0.12500000000E+03 0.  0.
        -13    1    3    3    0    0  0.73080705376E+01  0.28138853867E+02  0.44813542399E+02  0.53417859732E+02  0.10566000000E+00 0. -1.
         23    2    1    0    0    0 -0.72508360987E+01  0.28861518756E+02  0.63216570240E+01  0.94577553739E+02  0.89551038155E+02 0.  0.
         13    1    3    3    0    0 -0.14558906636E+02  0.72266488879E+00 -0.38491885375E+02  0.41159694007E+02  0.10566000000E+00 0.  1.
         22    1    1    0    0    0  0.72508360987E+01 -0.28861518756E+02 -0.63216570240E+01  0.30422446261E+02  0.00000000000E+00 0. -1.
</event>
<event>
 5    1  0.1325686E-009  0.9118800E+02  0.7818608E-02  0.1130116E+00
         25   -1    0    0    0    0  0.00000000000E+00  0.00000000000E+00  0.99999998245E-14  0.12500000000E+03  0.12500000000E+03 0.  0.
        -13    1    3    3    0    0 -0.41612007938E+02  0.74300841708E+01  0.25335936819E+02  0.49281702628E+02  0.10566000000E+00 0.  1.
         23    2    1    0    0    0 -0.67485402975E+01  0.28696631853E+02  0.43338446778E+01  0.95203663220E+02  0.90420770871E+02 0.  0.
         13    1    3    3    0    0  0.34863467640E+02  0.21266547682E+02 -0.21002092142E+02  0.45921960591E+02  0.10566000000E+00 0. -1.
         22    1    1    0    0    0  0.67485402975E+01 -0.28696631853E+02 -0.43338446778E+01  0.29796336780E+02  0.00000000000E+00 0.  1.
</event>
<event>
 5    1  0.1325686E-009  0.9118800E+02  0.7818608E-02  0.1130116E+00
         25   -1    0    0    0    0  0.00000000000E+00  0.00000000000E+00  0.99999998245E-14  0.12500000000E+03  0.12500000000E+03 0.  0.
        -13    1    3    3    0    0 -0.23258491456E+02 -0.26413339152E+02  0.17663117443E+02  0.39377897250E+02  0.10566000000E+00 0.  1.
         23    2    1    0    0    0  0.19146745759E+02 -0.15682952085E+02 -0.16818483649E+02  0.95076526747E+02  0.90244842992E+02 0.  0.
         13    1    3    3    0    0  0.42405237215E+02  0.10730387067E+02 -0.34481601092E+02  0.55698629497E+02  0.10566000000E+00 0. -1.
         22    1    1    0    0    0 -0.19146745759E+02  0.15682952085E+02  0.16818483649E+02  0.29923473253E+02  0.00000000000E+00 0. -1.
</event>
<event>
 5    1  0.1325686E-009  0.9118800E+02  0.7818608E-02  0.1130116E+00
         25   -1    0    0    0    0  0.00000000000E+00  0.00000000000E+00  0.99999998245E-14  0.12500000000E+03  0.12500000000E+03 0.  0.
        -13    1    3    3    0    0  0.46426953402E+02 -0.52159735456E+01  0.18741690704E+02  0.50338161634E+02  0.10566000000E+00 0. -1.
         23    2    1    0    0    0  0.23278106342E+02  0.22310684860E+02 -0.34063620632E+01  0.92577165512E+02  0.86713847671E+02 0.  0.
         13    1    3    3    0    0 -0.23148847060E+02  0.27526658405E+02 -0.22148052767E+02  0.42239003878E+02  0.10566000000E+00 0.  1.
         22    1    1    0    0    0 -0.23278106342E+02 -0.22310684860E+02  0.34063620632E+01  0.32422834488E+02  0.00000000000E+00 0.  1.
</event>
<event>
 5    1  0.1325686E-009  0.9118800E+02  0.7818608E-02  0.1130116E+00
         25   -1    0    0    0    0  0.00000000000E+00  0.00000000000E+00  0.99999998245E-14  0.12500000000E+03  0.12500000000E+03 0.  0.
        -13    1    3    3    0    0  0.10533528053E+02 -0.34666177332E+02  0.24116005706E+01  0.36311513951E+02  0.10566000000E+00 0. -1.
         23    2    1    0    0    0 -0.16139274460E+02  0.10918687809E+02 -0.22944418262E+02  0.94897836407E+02  0.89996994960E+02 0.  0.
         13    1    3    3    0    0 -0.26672802513E+02  0.45584865141E+02 -0.25356018833E+02  0.58586322456E+02  0.10566000000E+00 0.  1.
         22    1    1    0    0    0  0.16139274460E+02 -0.10918687809E+02  0.22944418262E+02  0.30102163593E+02  0.00000000000E+00 0.  1.
</event>
<event>
 5    1  0.1325686E-009  0.9118800E+02  0.7818608E-02  0.1130116E+00
         25   -1    0    0    0    0  0.00000000000E+00  0.00000000000E+00  0.99999998245E-14  0.12500000000E+03  0.12500000000E+03 0.  0.
        -13    1    3    3    0    0 -0.29425858458E+02  0.19752224296E+02 -0.18221679463E+02  0.39850624551E+02  0.10566000000E+00 0. -1.
         23    2    1    0    0    0  0.15750206665E+02 -0.12738109438E+02 -0.21330513635E+02  0.95583690680E+02  0.90944613200E+02 0.  0.
         13    1    3    3    0    0  0.45176065123E+02 -0.32490333734E+02 -0.31088341721E+01  0.55733066129E+02  0.10566000000E+00 0.  1.
         22    1    1    0    0    0 -0.15750206665E+02  0.12738109438E+02  0.21330513635E+02  0.29416309320E+02  0.00000000000E+00 0.  1.
</event>
<event>
 5    1  0.1325686E-009  0.9118800E+02  0.7818608E-02  0.1130116E+00
         25   -1    0    0    0    0  0.00000000000E+00  0.00000000000E+00  0.99999998245E-14  0.12500000000E+03  0.12500000000E+03 0.  0.
        -13    1    3    3    0    0 -0.29772592570E+02 -0.28579722722E+02  0.32030923981E+02  0.52241736900E+02  0.10566000000E+00 0. -1.
         23    2    1    0    0    0 -0.41878190387E+02 -0.10157299157E+02  0.18523296332E+02  0.78095138170E+02  0.62440247778E+02 0.  0.
         13    1    3    3    0    0 -0.12105597817E+02  0.18422423565E+02 -0.13507627648E+02  0.25853401270E+02  0.10566000000E+00 0.  1.
         22    1    1    0    0    0  0.41878190387E+02  0.10157299157E+02 -0.18523296332E+02  0.46904861830E+02  0.00000000000E+00 0. -1.
</event>
<event>
 5    1  0.1325686E-009  0.9118800E+02  0.7818608E-02  0.1130116E+00
         25   -1    0    0    0    0  0.00000000000E+00  0.00000000000E+00  0.99999998245E-14  0.12500000000E+03  0.12500000000E+03 0.  0.
        -13    1    3    3    0    0 -0.38238427599E+02 -0.11838057607E+02  0.11445334377E+02  0.41633205452E+02  0.10566000000E+00 0.  1.
         23    2    1    0    0    0  0.96698420128E+00  0.26664352113E+02  0.96956189893E+01  0.96611133175E+02  0.92345997713E+02 0.  0.
         13    1    3    3    0    0  0.39205411801E+02  0.38502409720E+02 -0.17497153877E+01  0.54977927723E+02  0.10566000000E+00 0. -1.
         22    1    1    0    0    0 -0.96698420128E+00 -0.26664352113E+02 -0.96956189893E+01  0.28388866825E+02  0.00000000000E+00 0. -1.
</event>
<event>
 5    1  0.1325686E-009  0.9118800E+02  0.7818608E-02  0.1130116E+00
         25   -1    0    0    0    0  0.00000000000E+00  0.00000000000E+00  0.99999998245E-14  0.12500000000E+03  0.12500000000E+03 0.  0.
        -13    1    3    3    0    0 -0.17281291684E+02 -0.54471006339E+02 -0.97751818249E+01  0.57976710130E+02  0.10566000000E+00 0.  1.
         23    2    1    0    0    0  0.81577506746E+01 -0.27188324651E+02  0.28675629984E+00  0.96612747182E+02  0.92348182416E+02 0.  0.
         13    1    3    3    0    0  0.25439042358E+02  0.27282681688E+02  0.10061938125E+02  0.38636037052E+02  0.10566000000E+00 0. -1.
         22    1    1    0    0    0 -0.81577506746E+01  0.27188324651E+02 -0.28675629984E+00  0.28387252818E+02  0.00000000000E+00 0.  1.
</event>
<event>
 5    1  0.1325686E-009  0.9118800E+02  0.7818608E-02  0.1130116E+00
         25   -1    0    0    0    0  0.00000000000E+00  0.00000000000E+00  0.99999998245E-14  0.12500000000E+03  0.12500000000E+03 0.  0.
        -13    1    3    3    0    0 -0.42126544944E+02  0.25333784384E+02 -0.34383294806E+02  0.59988903523E+02  0.10566000000E+00 0. -1.
         23    2    1    0    0    0 -0.14213031930E+02  0.43919593301E+01 -0.24636425280E+02  0.96220614426E+02  0.91815867945E+02 0.  0.
         13    1    3    3    0    0  0.27913513014E+02 -0.20941825054E+02  0.97468695258E+01  0.36231710903E+02  0.10566000000E+00 0.  1.
         22    1    1    0    0    0  0.14213031930E+02 -0.43919593301E+01  0.24636425280E+02  0.28779385574E+02  0.00000000000E+00 0. -1.
</event>
<event>
 5    1  0.1325686E-009  0.9118800E+02  0.7818608E-02  0.1130116E+00
         25   -1    0    0    0    0  0.00000000000E+00  0.00000000000E+00  0.99999998245E-14  0.12500000000E+03  0.12500000000E+03 0.  0.
        -13    1    3    3    0    0  0.18465374010E+02 -0.43088063285E+02  0.44432553091E+01  0.47088267295E+02  0.10566000000E+00 0.  1.
         23    2    1    0    0    0 -0.25947755120E-01 -0.14366162702E+02 -0.27574642779E+02  0.93907424866E+02  0.88610700350E+02 0.  0.
         13    1    3    3    0    0 -0.18491321766E+02  0.28721900583E+02 -0.32017898088E+02  0.46819157572E+02  0.10566000000E+00 0. -1.
         22    1    1    0    0    0  0.25947755120E-01  0.14366162702E+02  0.27574642779E+02  0.31092575134E+02  0.00000000000E+00 0.  1.
</event>
<event>
 5    1  0.1325686E-009  0.9118800E+02  0.7818608E-02  0.1130116E+00
         25   -1    0    0    0    0  0.00000000000E+00  0.00000000000E+00  0.99999998245E-14  0.12500000000E+03  0.12500000000E+03 0.  0.
        -13    1    3    3    0    0 -0.15690673741E+02 -0.20309805187E+02 -0.30272787649E+02  0.39688011606E+02  0.10566000000E+00 0.  1.
         23    2    1    0    0    0  0.16260629347E+02  0.58131798588E+00  0.17674428479E+02  0.10097644033E+03  0.98077061953E+02 0.  0.
         13    1    3    3    0    0  0.31951303088E+02  0.20891123173E+02  0.47947216128E+02  0.61288428720E+02  0.10566000000E+00 0. -1.
         22    1    1    0    0    0 -0.16260629347E+02 -0.58131798588E+00 -0.17674428479E+02  0.24023559674E+02  0.00000000000E+00 0. -1.
</event>
<event>
 5    1  0.1325686E-009  0.9118800E+02  0.7818608E-02  0.1130116E+00
         25   -1    0    0    0    0  0.00000000000E+00  0.00000000000E+00  0.99999998245E-14  0.12500000000E+03  0.12500000000E+03 0.  0.
        -13    1    3    3    0    0  0.33615376952E+02 -0.21820797107E+02 -0.35909460523E+02  0.53811163090E+02  0.10566000000E+00 0.  1.
         23    2    1    0    0    0  0.46367236290E+00 -0.26773833397E+02 -0.91508662741E+01  0.96701740329E+02  0.92468562670E+02 0.  0.
         13    1    3    3    0    0 -0.33151704589E+02 -0.49530362901E+01  0.26758594249E+02  0.42890577239E+02  0.10566000000E+00 0. -1.
         22    1    1    0    0    0 -0.46367236290E+00  0.26773833397E+02  0.91508662741E+01  0.28298259671E+02  0.00000000000E+00 0.  1.
</event>
<event>
 5    1  0.1325686E-009  0.9118800E+02  0.7818608E-02  0.1130116E+00
         25   -1    0    0    0    0  0.00000000000E+00  0.00000000000E+00  0.99999998245E-14  0.12500000000E+03  0.12500000000E+03 0.  0.
        -13    1    3    3    0    0 -0.30339106868E+02  0.16666856402E+02 -0.19725021341E+02  0.39841349611E+02  0.10566000000E+00 0.  1.
         23    2    1    0    0    0  0.63927488288E+00  0.20370454591E+02  0.23973381317E+02  0.93534350406E+02  0.88082845103E+02 0.  0.
         13    1    3    3    0    0  0.30978381751E+02  0.37035981883E+01  0.43698402658E+02  0.53693000795E+02  0.10566000000E+00 0. -1.
         22    1    1    0    0    0 -0.63927488288E+00 -0.20370454591E+02 -0.23973381317E+02  0.31465649594E+02  0.00000000000E+00 0. -1.
</event>
<event>
 5    1  0.1325686E-009  0.9118800E+02  0.7818608E-02  0.1130116E+00
         25   -1    0    0    0    0  0.00000000000E+00  0.00000000000E+00  0.99999998245E-14  0.12500000000E+03  0.12500000000E+03 0.  0.
        -13    1    3    3    0    0 -0.47974942554E+02  0.14397605151E+02 -0.15330042859E+02  0.52382320732E+02  0.10566000000E+00 0. -1.
         23    2    1    0    0    0 -0.17318494357E+02 -0.18707613474E+02 -0.91060895960E+01  0.97929242411E+02  0.94113286006E+02 0.  0.
         13    1    3    3    0    0  0.30656448197E+02 -0.33105218625E+02  0.62239532633E+01  0.45546921680E+02  0.10566000000E+00 0.  1.
         22    1    1    0    0    0  0.17318494357E+02  0.18707613474E+02  0.91060895960E+01  0.27070757589E+02  0.00000000000E+00 0. -1.
</event>
<event>
 5    1  0.1325686E-009  0.9118800E+02  0.7818608E-02  0.1130116E+00
         25   -1    0    0    0    0  0.00000000000E+00  0.00000000000E+00  0.99999998245E-14  0.12500000000E+03  0.12500000000E+03 0.  0.
        -13    1    3    3    0    0  0.35130389135E+02  0.11390177882E+02  0.21650459324E+02  0.42809274065E+02  0.10566000000E+00 0. -1.
         23    2    1    0    0    0  0.14441914883E+02  0.11465811324E+01 -0.25705740038E+02  0.95492905520E+02  0.90819746641E+02 0.  0.
         13    1    3    3    0    0 -0.20688474252E+02 -0.10243596750E+02 -0.47356199362E+02  0.52683631455E+02  0.10566000000E+00 0.  1.
         22    1    1    0    0    0 -0.14441914883E+02 -0.11465811324E+01  0.25705740038E+02  0.29507094480E+02  0.00000000000E+00 0. -1.
</event>
<event>
 5    1  0.1325686E-009  0.9118800E+02  0.7818608E-02  0.1130116E+00
         25   -1    0    0    0    0  0.00000000000E+00  0.00000000000E+00  0.99999998245E-14  0.12500000000E+03  0.12500000000E+03 0.  0.
        -13    1    3    3    0    0 -0.32588156363E+02  0.28773577992E+02 -0.32229808544E+02  0.54117265715E+02  0.10566000000E+00 0. -1.
         23    2    1    0    0    0  0.47583341096E+00  0.25992320061E+01 -0.28417902450E+02  0.96459509392E+02  0.92140530431E+02 0.  0.
         13    1    3    3    0    0  0.33063989774E+02 -0.26174345986E+02  0.38119060940E+01  0.42342243678E+02  0.10566000000E+00 0.  1.
         22    1    1    0    0    0 -0.47583341096E+00 -0.25992320061E+01  0.28417902450E+02  0.28540490608E+02  0.00000000000E+00 0.  1.
</event>
<event>
 5    1  0.1325686E-009  0.9118800E+02  0.7818608E-02  0.1130116E+00
         25   -1    0    0    0    0  0.00000000000E+00  0.00000000000E+00  0.99999998245E-14  0.12500000000E+03  0.12500000000E+03 0.  0.
        -13    1    3    3    0    0 -0.33816061668E+02 -0.23516870496E+02 -0.39764567487E+02  0.57252084819E+02  0.10566000000E+00 0. -1.
         23    2    1    0    0    0 -0.22686438306E+02  0.58618914939E+01 -0.17301100882E+02  0.95873305257E+02  0.91341810330E+02 0.  0.
         13    1    3    3    0    0  0.11129623362E+02  0.29378761990E+02  0.22463466604E+02  0.38621220438E+02  0.10566000000E+00 0.  1.
         22    1    1    0    0    0  0.22686438306E+02 -0.58618914939E+01  0.17301100882E+02  0.29126694743E+02  0.00000000000E+00 0. -1.
</event>
<event>
 5    1  0.1325686E-009  0.9118800E+02  0.7818608E-02  0.1130116E+00
         25   -1    0    0    0    0  0.00000000000E+00  0.00000000000E+00  0.99999998245E-14  0.12500000000E+03  0.12500000000E+03 0.  0.
        -13    1    3    3    0    0 -0.26685414237E+02 -0.26481714825E+01 -0.30033554362E+02  0.40263503286E+02  0.10566000000E+00 0.  1.
         23    2    1    0    0    0 -0.10769418724E+02  0.19223297812E+02  0.18765194019E+02  0.96057849683E+02  0.91594008651E+02 0.  0.
         13    1    3    3    0    0  0.15915995513E+02  0.21871469294E+02  0.48798748381E+02  0.55794346397E+02  0.10566000000E+00 0. -1.
         22    1    1    0    0    0  0.10769418724E+02 -0.19223297812E+02 -0.18765194019E+02  0.28942150317E+02  0.00000000000E+00 0. -1.
</event>
<event>
 5    1  0.1325686E-009  0.9118800E+02  0.7818608E-02  0.1130116E+00
         25   -1    0    0    0    0  0.00000000000E+00  0.00000000000E+00  0.99999998245E-14  0.12500000000E+03  0.12500000000E+03 0.  0.
        -13    1    3    3    0    0 -0.32828123240E+02 -0.11484572263E+02  0.35718656640E+02  0.49853933363E+02  0.10566000000E+00 0.  1.
         23    2    1    0    0    0  0.61128050852E+01 -0.24345920100E+02  0.13229608229E+02  0.96625491275E+02  0.92365430864E+02 0.  0.
         13    1    3    3    0    0  0.38940928325E+02 -0.12861347837E+02 -0.22489048411E+02  0.46771557912E+02  0.10566000000E+00 0. -1.
         22    1    1    0    0    0 -0.61128050852E+01  0.24345920100E+02 -0.13229608229E+02  0.28374508725E+02  0.00000000000E+00 0.  1.
</event>
<event>
 5    1  0.1325686E-009  0.9118800E+02  0.7818608E-02  0.1130116E+00
         25   -1    0    0    0    0  0.00000000000E+00  0.00000000000E+00  0.99999998245E-14  0.12500000000E+03  0.12500000000E+03 0.  0.
        -13    1    3    3    0    0 -0.30757969307E+02  0.23642828607E+01 -0.20474460634E+02  0.37025088948E+02  0.10566000000E+00 0. -1.
         23    2    1    0    0    0  0.28769645895E+01 -0.31656057582E+02  0.73584786376E+01  0.92372862296E+02  0.86418838074E+02 0.  0.
         13    1    3    3    0    0  0.33634933897E+02 -0.34020340442E+02  0.27832939272E+02  0.55347773348E+02  0.10566000000E+00 0.  1.
         22    1    1    0    0    0 -0.28769645895E+01  0.31656057582E+02 -0.73584786376E+01  0.32627137704E+02  0.00000000000E+00 0.  1.
</event>
<event>
 5    1  0.1325686E-009  0.9118800E+02  0.7818608E-02  0.1130116E+00
         25   -1    0    0    0    0  0.00000000000E+00  0.00000000000E+00  0.99999998245E-14  0.12500000000E+03  0.12500000000E+03 0.  0.
        -13    1    3    3    0    0 -0.20591969658E+02 -0.34970525211E+01 -0.57405469953E+02  0.61087296022E+02  0.10566000000E+00 0.  1.
         23    2    1    0    0    0 -0.17374726129E+02 -0.60386155525E+01 -0.23908510368E+02  0.94834409440E+02  0.89908855848E+02 0.  0.
         13    1    3    3    0    0  0.32172435291E+01 -0.25415630314E+01  0.33496959585E+02  0.33747113418E+02  0.10566000000E+00 0. -1.
         22    1    1    0    0    0  0.17374726129E+02  0.60386155525E+01  0.23908510368E+02  0.30165590560E+02  0.00000000000E+00 0.  1.
</event>
<event>
 5    1  0.1325686E-009  0.9118800E+02  0.7818608E-02  0.1130116E+00
         25   -1    0    0    0    0  0.00000000000E+00  0.00000000000E+00  0.99999998245E-14  0.12500000000E+03  0.12500000000E+03 0.  0.
        -13    1    3    3    0    0  0.31344709360E+02  0.41824172886E+02  0.14198578833E+02  0.54160530346E+02  0.10566000000E+00 0.  1.
         23    2    1    0    0    0 -0.73256454322E+01  0.26745975230E+02  0.80840624381E+01  0.96114634544E+02  0.91671471222E+02 0.  0.
         13    1    3    3    0    0 -0.38670354792E+02 -0.15078197655E+02 -0.61145163954E+01  0.41954104198E+02  0.10566000000E+00 0. -1.
         22    1    1    0    0    0  0.73256454322E+01 -0.26745975230E+02 -0.80840624381E+01  0.28885365456E+02  0.00000000000E+00 0.  1.
</event>
<event>
 5    1  0.1325686E-009  0.9118800E+02  0.7818608E-02  0.1130116E+00
         25   -1    0    0    0    0  0.00000000000E+00  0.00000000000E+00  0.99999998245E-14  0.12500000000E+03  0.12500000000E+03 0.  0.
        -13    1    3    3    0    0 -0.12199021341E+02  0.44208568436E+02  0.16095061255E+02  0.48603248921E+02  0.10566000000E+00 0.  1.
         23    2    1    0    0    0 -0.29992777947E+02  0.40465618875E+01  0.22894051187E+01  0.94649007135E+02  0.89650721045E+02 0.  0.
         13    1    3    3    0    0 -0.17793756605E+02 -0.40162006549E+02 -0.13805656136E+02  0.46045758214E+02  0.10566000000E+00 0. -1.
         22    1    1    0    0    0  0.29992777947E+02 -0.40465618875E+01 -0.22894051187E+01  0.30350992865E+02  0.00000000000E+00 0.  1.
</event>
<event>
 5    1  0.1325686E-009  0.9118800E+02  0.7818608E-02  0.1130116E+00
         25   -1    0    0    0    0  0.00000000000E+00  0.00000000000E+00  0.99999998245E-14  0.12500000000E+03  0.12500000000E+03 0.  0.
        -13    1    3    3    0    0 -0.12422599877E+02 -0.41014595007E+02 -0.53673541150E+01  0.43189554820E+02  0.10566000000E+00 0.  1.
         23    2    1    0    0    0 -0.27750141531E+02  0.87503692942E+01 -0.61166485977E+01  0.95266976140E+02  0.90508253961E+02 0.  0.
         13    1    3    3    0    0 -0.15327541654E+02  0.49764964302E+02 -0.74929448271E+00  0.52077421320E+02  0.10566000000E+00 0. -1.
         22    1    1    0    0    0  0.27750141531E+02 -0.87503692942E+01  0.61166485977E+01  0.29733023860E+02  0.00000000000E+00 0. -1.
</event>
<event>
 5    1  0.1325686E-009  0.9118800E+02  0.7818608E-02  0.1130116E+00
         25   -1    0    0    0    0  0.00000000000E+00  0.00000000000E+00  0.99999998245E-14  0.12500000000E+03  0.12500000000E+03 0.  0.
        -13    1    3    3    0    0  0.29935329008E+02  0.14615479332E+02 -0.21273357482E+02  0.39525979577E+02  0.10566000000E+00 0. -1.
         23    2    1    0    0    0 -0.54750195501E+00  0.21557631068E+02  0.22836015727E+02  0.93591166371E+02  0.88163436825E+02 0.  0.
         13    1    3    3    0    0 -0.30482830963E+02  0.69421517361E+01  0.44109373208E+02  0.54065186794E+02  0.10566000000E+00 0.  1.
         22    1    1    0    0    0  0.54750195501E+00 -0.21557631068E+02 -0.22836015727E+02  0.31408833629E+02  0.00000000000E+00 0.  1.
</event>
<event>
 5    1  0.1325686E-009  0.9118800E+02  0.7818608E-02  0.1130116E+00
         25   -1    0    0    0    0  0.00000000000E+00  0.00000000000E+00  0.99999998245E-14  0.12500000000E+03  0.12500000000E+03 0.  0.
        -13    1    3    3    0    0  0.13190610341E+02 -0.29491588867E+02  0.35709500136E+02  0.48155223798E+02  0.10566000000E+00 0.  1.
         23    2    1    0    0    0  0.24417881363E+02  0.10355352823E+02  0.11712031679E+02  0.96006242941E+02  0.91523552899E+02 0.  0.
         13    1    3    3    0    0  0.11227271022E+02  0.39846941690E+02 -0.23997468457E+02  0.47851019143E+02  0.10566000000E+00 0. -1.
         22    1    1    0    0    0 -0.24417881363E+02 -0.10355352823E+02 -0.11712031679E+02  0.28993757059E+02  0.00000000000E+00 0. -1.
</event>
<event>
 5    1  0.1325686E-009  0.9118800E+02  0.7818608E-02  0.1130116E+00
         25   -1    0    0    0    0  0.00000000000E+00  0.00000000000E+00  0.99999998245E-14  0.12500000000E+03  0.12500000000E+03 0.  0.
        -13    1    3    3    0    0  0.58372023511E+02  0.87803550714E+01 -0.13971311595E+02  0.60659677510E+02  0.10566000000E+00 0. -1.
         23    2    1    0    0    0  0.24062904996E+02 -0.19392019037E+01 -0.14926352360E+02  0.96617260604E+02  0.92354291459E+02 0.  0.
         13    1    3    3    0    0 -0.34309118515E+02 -0.10719556975E+02 -0.95504076488E+00  0.35957583093E+02  0.10566000000E+00 0.  1.
         22    1    1    0    0    0 -0.24062904996E+02  0.19392019037E+01  0.14926352360E+02  0.28382739396E+02  0.00000000000E+00 0. -1.
</event>
<event>
 5    1  0.1325686E-009  0.9118800E+02  0.7818608E-02  0.1130116E+00
         25   -1    0    0    0    0  0.00000000000E+00  0.00000000000E+00  0.99999998245E-14  0.12500000000E+03  0.12500000000E+03 0.  0.
        -13    1    3    3    0    0 -0.33756780046E+01 -0.22251113114E+02 -0.28272120774E+02  0.36136286664E+02  0.10566000000E+00 0.  1.
         23    2    1    0    0    0 -0.90808593849E+01  0.27783855710E+02  0.33155027113E+01  0.95582365773E+02  0.90942792145E+02 0.  0.
         13    1    3    3    0    0 -0.57051813802E+01  0.50034968825E+02  0.31587623485E+02  0.59446079108E+02  0.10566000000E+00 0. -1.
         22    1    1    0    0    0  0.90808593849E+01 -0.27783855710E+02 -0.33155027113E+01  0.29417634227E+02  0.00000000000E+00 0. -1.
</event>
<event>
 5    1  0.1325686E-009  0.9118800E+02  0.7818608E-02  0.1130116E+00
         25   -1    0    0    0    0  0.00000000000E+00  0.00000000000E+00  0.99999998245E-14  0.12500000000E+03  0.12500000000E+03 0.  0.
        -13    1    3    3    0    0  0.72004415730E+01  0.30689743130E+02 -0.35212145032E+02  0.47261115243E+02  0.10566000000E+00 0.  1.
         23    2    1    0    0    0  0.33131375393E+02  0.99597482914E+01 -0.26026589136E+02  0.81707183465E+02  0.69294991640E+02 0.  0.
         13    1    3    3    0    0  0.25930933820E+02 -0.20729994839E+02  0.91855558964E+01  0.34446068222E+02  0.10566000000E+00 0. -1.
         22    1    1    0    0    0 -0.33131375393E+02 -0.99597482914E+01  0.26026589136E+02  0.43292816535E+02  0.00000000000E+00 0.  1.
</event>
<event>
 5    1  0.1325686E-009  0.9118800E+02  0.7818608E-02  0.1130116E+00
         25   -1    0    0    0    0  0.00000000000E+00  0.00000000000E+00  0.99999998245E-14  0.12500000000E+03  0.12500000000E+03 0.  0.
        -13    1    3    3    0    0  0.47578219065E+02  0.14596851189E+02 -0.80090582785E+01  0.50407451558E+02  0.10566000000E+00 0.  1.
         23    2    1    0    0    0  0.11574723005E+02  0.15209374856E+02  0.20968427846E+02  0.96627931650E+02  0.92368733414E+02 0.  0.
         13    1    3    3    0    0 -0.36003496060E+02  0.61252366619E+00  0.28977486124E+02  0.46220480092E+02  0.10566000000E+00 0. -1.
         22    1    1    0    0    0 -0.11574723005E+02 -0.15209374856E+02 -0.20968427846E+02  0.28372068350E+02  0.00000000000E+00 0. -1.
</event>
<event>
 5    1  0.1325686E-009  0.9118800E+02  0.7818608E-02  0.1130116E+00
         25   -1    0    0    0    0  0.00000000000E+00  0.00000000000E+00  0.99999998245E-14  0.12500000000E+03  0.12500000000E+03 0.  0.
        -13    1    3    3    0    0  0.55361929844E+01 -0.37032175389E+02  0.32942155141E+02  0.49872118424E+02  0.10566000000E+00 0.  1.
         23    2    1    0    0    0 -0.23464231356E+02 -0.17781896849E+02  0.37110145024E+01  0.95326145560E+02  0.90589935368E+02 0.  0.
         13    1    3    3    0    0 -0.29000424341E+02  0.19250278540E+02 -0.29231140638E+02  0.45454027136E+02  0.10566000000E+00 0. -1.
         22    1    1    0    0    0  0.23464231356E+02  0.17781896849E+02 -0.37110145024E+01  0.29673854440E+02  0.00000000000E+00 0.  1.
</event>
<event>
 5    1  0.1325686E-009  0.9118800E+02  0.7818608E-02  0.1130116E+00
         25   -1    0    0    0    0  0.00000000000E+00  0.00000000000E+00  0.99999998245E-14  0.12500000000E+03  0.12500000000E+03 0.  0.
        -13    1    3    3    0    0  0.23096733683E+02 -0.26472509294E+01 -0.48740899763E+02  0.54001421445E+02  0.10566000000E+00 0. -1.
         23    2    1    0    0    0  0.20398478260E+02 -0.18163526476E+02 -0.98421114460E+01  0.95967625535E+02  0.91470795250E+02 0.  0.
         13    1    3    3    0    0 -0.26982554232E+01 -0.15516275547E+02  0.38898788317E+02  0.41966204090E+02  0.10566000000E+00 0.  1.
         22    1    1    0    0    0 -0.20398478260E+02  0.18163526476E+02  0.98421114460E+01  0.29032374465E+02  0.00000000000E+00 0.  1.
</event>
<event>
 5    1  0.1325686E-009  0.9118800E+02  0.7818608E-02  0.1130116E+00
         25   -1    0    0    0    0  0.00000000000E+00  0.00000000000E+00  0.99999998245E-14  0.12500000000E+03  0.12500000000E+03 0.  0.
        -13    1    3    3    0    0  0.17475133599E+02 -0.53793888921E+02  0.12069005077E+02  0.57834547004E+02  0.10566000000E+00 0.  1.
         23    2    1    0    0    0  0.23669181516E+02 -0.18561707805E+02  0.82455034232E+01  0.93810971849E+02  0.88474532846E+02 0.  0.
         13    1    3    3    0    0  0.61940479169E+01  0.35232181116E+02 -0.38235016540E+01  0.35976424846E+02  0.10566000000E+00 0. -1.
         22    1    1    0    0    0 -0.23669181516E+02  0.18561707805E+02 -0.82455034232E+01  0.31189028151E+02  0.00000000000E+00 0.  1.
</event>
<event>
 5    1  0.1325686E-009  0.9118800E+02  0.7818608E-02  0.1130116E+00
         25   -1    0    0    0    0  0.00000000000E+00  0.00000000000E+00  0.99999998245E-14  0.12500000000E+03  0.12500000000E+03 0.  0.
        -13    1    3    3    0    0  0.17488824368E+02 -0.39528997015E+02 -0.42440920228E+02  0.60577582129E+02  0.10566000000E+00 0.  1.
         23    2    1    0    0    0  0.21807387812E+02 -0.24944987794E+02 -0.26916834399E+02  0.82311236217E+02  0.70376196646E+02 0.  0.
         13    1    3    3    0    0  0.43185634440E+01  0.14584009221E+02  0.15524085829E+02  0.21733654088E+02  0.10566000000E+00 0. -1.
         22    1    1    0    0    0 -0.21807387812E+02  0.24944987794E+02  0.26916834399E+02  0.42688763783E+02  0.00000000000E+00 0.  1.
</event>
<event>
 5    1  0.1325686E-009  0.9118800E+02  0.7818608E-02  0.1130116E+00
         25   -1    0    0    0    0  0.00000000000E+00  0.00000000000E+00  0.99999998245E-14  0.12500000000E+03  0.12500000000E+03 0.  0.
        -13    1    3    3    0    0  0.24430121800E+02  0.23271073537E+02  0.13057064081E+02  0.36178333311E+02  0.10566000000E+00 0.  1.
         23    2    1    0    0    0 -0.16776547191E+02 -0.14626619426E+01 -0.23165716684E+02  0.96360126658E+02  0.92005606701E+02 0.  0.
         13    1    3    3    0    0 -0.41206668990E+02 -0.24733735479E+02 -0.36222780765E+02  0.60181793347E+02  0.10566000000E+00 0. -1.
         22    1    1    0    0    0  0.16776547191E+02  0.14626619426E+01  0.23165716684E+02  0.28639873342E+02  0.00000000000E+00 0. -1.
</event>
<event>
 5    1  0.1325686E-009  0.9118800E+02  0.7818608E-02  0.1130116E+00
         25   -1    0    0    0    0  0.00000000000E+00  0.00000000000E+00  0.99999998245E-14  0.12500000000E+03  0.12500000000E+03 0.  0.
        -13    1    3    3    0    0 -0.57740903651E+02 -0.10599107009E+02 -0.48137917867E+01  0.58902773952E+02  0.10566000000E+00 0. -1.
         23    2    1    0    0    0 -0.23898775876E+02  0.76849818269E+00 -0.15900038969E+02  0.96284963572E+02  0.91903432434E+02 0.  0.
         13    1    3    3    0    0  0.33842127775E+02  0.11367605192E+02 -0.11086247182E+02  0.37382189620E+02  0.10566000000E+00 0.  1.
         22    1    1    0    0    0  0.23898775876E+02 -0.76849818269E+00  0.15900038969E+02  0.28715036428E+02  0.00000000000E+00 0. -1.
</event>
<event>
 5    1  0.1325686E-009  0.9118800E+02  0.7818608E-02  0.1130116E+00
         25   -1    0    0    0    0  0.00000000000E+00  0.00000000000E+00  0.99999998245E-14  0.12500000000E+03  0.12500000000E+03 0.  0.
        -13    1    3    3    0    0  0.14075603400E+02 -0.43480935343E+02 -0.35015795785E+02  0.57574573102E+02  0.10566000000E+00 0.  1.
         23    2    1    0    0    0  0.79886509811E+01 -0.28843518430E+02 -0.10563943996E+01  0.95051993906E+02  0.90210855646E+02 0.  0.
         13    1    3    3    0    0 -0.60869524187E+01  0.14637416913E+02  0.33959401385E+02  0.37477420804E+02  0.10566000000E+00 0. -1.
         22    1    1    0    0    0 -0.79886509811E+01  0.28843518430E+02  0.10563943996E+01  0.29948006094E+02  0.00000000000E+00 0.  1.
</event>
<event>
 5    1  0.1325686E-009  0.9118800E+02  0.7818608E-02  0.1130116E+00
         25   -1    0    0    0    0  0.00000000000E+00  0.00000000000E+00  0.99999998245E-14  0.12500000000E+03  0.12500000000E+03 0.  0.
        -13    1    3    3    0    0 -0.23817601898E+02  0.56940024136E+02  0.88612703137E+00  0.61727148759E+02  0.10566000000E+00 0. -1.
         23    2    1    0    0    0 -0.17081369269E+02  0.23733959757E+02  0.25262997523E+01  0.95649425691E+02  0.91034918700E+02 0.  0.
         13    1    3    3    0    0  0.67362326284E+01 -0.33206064380E+02  0.16401727209E+01  0.33922276931E+02  0.10566000000E+00 0.  1.
         22    1    1    0    0    0  0.17081369269E+02 -0.23733959757E+02 -0.25262997523E+01  0.29350574309E+02  0.00000000000E+00 0. -1.
</event>
<event>
 5    1  0.1325686E-009  0.9118800E+02  0.7818608E-02  0.1130116E+00
         25   -1    0    0    0    0  0.00000000000E+00  0.00000000000E+00  0.99999998245E-14  0.12500000000E+03  0.12500000000E+03 0.  0.
        -13    1    3    3    0    0  0.44142825936E+02  0.11505668483E+02 -0.29771893077E+02  0.54473353764E+02  0.10566000000E+00 0. -1.
         23    2    1    0    0    0  0.37217533501E+01  0.19901616369E+02 -0.19217630843E+02  0.97085073575E+02  0.92985312785E+02 0.  0.
         13    1    3    3    0    0 -0.40421072586E+02  0.83959478852E+01  0.10554262233E+02  0.42611719811E+02  0.10566000000E+00 0.  1.
         22    1    1    0    0    0 -0.37217533501E+01 -0.19901616369E+02  0.19217630843E+02  0.27914926425E+02  0.00000000000E+00 0. -1.
</event>
<event>
 5    1  0.1325686E-009  0.9118800E+02  0.7818608E-02  0.1130116E+00
         25   -1    0    0    0    0  0.00000000000E+00  0.00000000000E+00  0.99999998245E-14  0.12500000000E+03  0.12500000000E+03 0.  0.
        -13    1    3    3    0    0  0.25163393760E+01 -0.54598928095E+02  0.23479799082E+02  0.59486864449E+02  0.10566000000E+00 0. -1.
         23    2    1    0    0    0  0.77975098074E+01 -0.28272457554E+02 -0.76192625893E+00  0.95662080050E+02  0.91052292736E+02 0.  0.
         13    1    3    3    0    0  0.52811704314E+01  0.26326470541E+02 -0.24241725341E+02  0.36175215601E+02  0.10566000000E+00 0.  1.
         22    1    1    0    0    0 -0.77975098074E+01  0.28272457554E+02  0.76192625893E+00  0.29337919950E+02  0.00000000000E+00 0. -1.
</event>
<event>
 5    1  0.1325686E-009  0.9118800E+02  0.7818608E-02  0.1130116E+00
         25   -1    0    0    0    0  0.00000000000E+00  0.00000000000E+00  0.99999998245E-14  0.12500000000E+03  0.12500000000E+03 0.  0.
        -13    1    3    3    0    0  0.31642102175E+02 -0.14080669535E+02  0.18530528002E+02  0.39279505046E+02  0.10566000000E+00 0.  1.
         23    2    1    0    0    0 -0.24170246145E+02 -0.44343111155E+01  0.15386764759E+02  0.96006613797E+02  0.91524059401E+02 0.  0.
         13    1    3    3    0    0 -0.55812348320E+02  0.96463584195E+01 -0.31437632431E+01  0.56727108750E+02  0.10566000000E+00 0. -1.
         22    1    1    0    0    0  0.24170246145E+02  0.44343111155E+01 -0.15386764759E+02  0.28993386203E+02  0.00000000000E+00 0. -1.
</event>
<event>
 5    1  0.1325686E-009  0.9118800E+02  0.7818608E-02  0.1130116E+00
         25   -1    0    0    0    0  0.00000000000E+00  0.00000000000E+00  0.99999998245E-14  0.12500000000E+03  0.12500000000E+03 0.  0.
        -13    1    3    3    0    0 -0.17732640029E+02 -0.21533586982E+02  0.78507069283E+01  0.28979072690E+02  0.10566000000E+00 0.  1.
         23    2    1    0    0    0  0.12805103388E+02  0.14433052236E+02 -0.29906883833E+02  0.89409195426E+02  0.82020112512E+02 0.  0.
         13    1    3    3    0    0  0.30537743418E+02  0.35966639217E+02 -0.37757590762E+02  0.60430122735E+02  0.10566000000E+00 0. -1.
         22    1    1    0    0    0 -0.12805103388E+02 -0.14433052236E+02  0.29906883833E+02  0.35590804574E+02  0.00000000000E+00 0. -1.
</event>
<event>
 5    1  0.1325686E-009  0.9118800E+02  0.7818608E-02  0.1130116E+00
         25   -1    0    0    0    0  0.00000000000E+00  0.00000000000E+00  0.99999998245E-14  0.12500000000E+03  0.12500000000E+03 0.  0.
        -13    1    3    3    0    0 -0.27373507324E+02  0.18755866603E+02 -0.18706890672E+02  0.38092654908E+02  0.10566000000E+00 0.  1.
         23    2    1    0    0    0 -0.44255898919E+01 -0.13234739768E+02  0.24660218081E+02  0.96665029762E+02  0.92418923606E+02 0.  0.
         13    1    3    3    0    0  0.22947917432E+02 -0.31990606371E+02  0.43367108753E+02  0.58572374854E+02  0.10566000000E+00 0. -1.
         22    1    1    0    0    0  0.44255898919E+01  0.13234739768E+02 -0.24660218081E+02  0.28334970238E+02  0.00000000000E+00 0. -1.
</event>
<event>
 5    1  0.1325686E-009  0.9118800E+02  0.7818608E-02  0.1130116E+00
         25   -1    0    0    0    0  0.00000000000E+00  0.00000000000E+00  0.99999998245E-14  0.12500000000E+03  0.12500000000E+03 0.  0.
        -13    1    3    3    0    0 -0.22765154926E+02 -0.39509785201E+02 -0.32436515788E+02  0.55959039716E+02  0.10566000000E+00 0. -1.
         23    2    1    0    0    0  0.66212801589E+01 -0.17701868864E+02 -0.25588101540E+02  0.93188862758E+02  0.87591184999E+02 0.  0.
         13    1    3    3    0    0  0.29386435085E+02  0.21807916337E+02  0.68484142485E+01  0.37229823042E+02  0.10566000000E+00 0.  1.
         22    1    1    0    0    0 -0.66212801589E+01  0.17701868864E+02  0.25588101540E+02  0.31811137242E+02  0.00000000000E+00 0. -1.
</event>
<event>
 5    1  0.1325686E-009  0.9118800E+02  0.7818608E-02  0.1130116E+00
         25   -1    0    0    0    0  0.00000000000E+00  0.00000000000E+00  0.99999998245E-14  0.12500000000E+03  0.12500000000E+03 0.  0.
        -13    1    3    3    0    0  0.18618172890E+02  0.21858206096E+02  0.65098205099E+01  0.29441577108E+02  0.10566000000E+00 0.  1.
         23    2    1    0    0    0 -0.36241146277E+02 -0.10301183035E+00  0.20919206587E+01  0.88698382585E+02  0.80929572137E+02 0.  0.
         13    1    3    3    0    0 -0.54859319167E+02 -0.21961217926E+02 -0.44178998512E+01  0.59256805477E+02  0.10566000000E+00 0. -1.
         22    1    1    0    0    0  0.36241146277E+02  0.10301183035E+00 -0.20919206587E+01  0.36301617415E+02  0.00000000000E+00 0. -1.
</event>
<event>
 5    1  0.1325686E-009  0.9118800E+02  0.7818608E-02  0.1130116E+00
         25   -1    0    0    0    0  0.00000000000E+00  0.00000000000E+00  0.99999998245E-14  0.12500000000E+03  0.12500000000E+03 0.  0.
        -13    1    3    3    0    0 -0.20919320390E+02 -0.29528776980E+02 -0.38224165904E+02  0.52637103441E+02  0.10566000000E+00 0. -1.
         23    2    1    0    0    0  0.12579783138E+02 -0.64920934948E+01 -0.26510431393E+02  0.94946694119E+02  0.90064829594E+02 0.  0.
         13    1    3    3    0    0  0.33499103528E+02  0.23036683486E+02  0.11713734511E+02  0.42309590679E+02  0.10566000000E+00 0.  1.
         22    1    1    0    0    0 -0.12579783138E+02  0.64920934948E+01  0.26510431393E+02  0.30053305881E+02  0.00000000000E+00 0. -1.
</event>
<event>
 5    1  0.1325686E-009  0.9118800E+02  0.7818608E-02  0.1130116E+00
         25   -1    0    0    0    0  0.00000000000E+00  0.00000000000E+00  0.99999998245E-14  0.12500000000E+03  0.12500000000E+03 0.  0.
        -13    1    3    3    0    0 -0.54057093917E+02  0.22330955291E+02  0.15419328703E+01  0.58508372802E+02  0.10566000000E+00 0.  1.
         23    2    1    0    0    0 -0.29724733548E+02  0.45622740987E+00 -0.10644094597E+02  0.93423669027E+02  0.87925634810E+02 0.  0.
         13    1    3    3    0    0  0.24332360369E+02 -0.21874727881E+02 -0.12186027468E+02  0.34915296225E+02  0.10566000000E+00 0. -1.
         22    1    1    0    0    0  0.29724733548E+02 -0.45622740987E+00  0.10644094597E+02  0.31576330973E+02  0.00000000000E+00 0.  1.
</event>
<event>
 5    1  0.1325686E-009  0.9118800E+02  0.7818608E-02  0.1130116E+00
         25   -1    0    0    0    0  0.00000000000E+00  0.00000000000E+00  0.99999998245E-14  0.12500000000E+03  0.12500000000E+03 0.  0.
        -13    1    3    3    0    0  0.63109776504E+01 -0.36035053809E+02  0.27520360564E+02  0.45779197803E+02  0.10566000000E+00 0.  1.
         23    2    1    0    0    0 -0.24545271566E+02 -0.14683888040E+02 -0.56304896465E+01  0.95848853575E+02  0.91308342411E+02 0.  0.
         13    1    3    3    0    0 -0.30856249217E+02  0.21351165769E+02 -0.33150850210E+02  0.50069655772E+02  0.10566000000E+00 0. -1.
         22    1    1    0    0    0  0.24545271566E+02  0.14683888040E+02  0.56304896465E+01  0.29151146425E+02  0.00000000000E+00 0. -1.
</event>
<event>
 5    1  0.1325686E-009  0.9118800E+02  0.7818608E-02  0.1130116E+00
         25   -1    0    0    0    0  0.00000000000E+00  0.00000000000E+00  0.99999998245E-14  0.12500000000E+03  0.12500000000E+03 0.  0.
        -13    1    3    3    0    0 -0.11296355152E+01  0.32858858249E+02  0.17341084418E+02  0.37171292884E+02  0.10566000000E+00 0.  1.
         23    2    1    0    0    0  0.15103119753E+02 -0.10227812147E+02 -0.21068995768E+02  0.97132187918E+02  0.93048626962E+02 0.  0.
         13    1    3    3    0    0  0.16232755268E+02 -0.43086670396E+02 -0.38410080186E+02  0.59960895034E+02  0.10566000000E+00 0. -1.
         22    1    1    0    0    0 -0.15103119753E+02  0.10227812147E+02  0.21068995768E+02  0.27867812082E+02  0.00000000000E+00 0. -1.
</event>
<event>
 5    1  0.1325686E-009  0.9118800E+02  0.7818608E-02  0.1130116E+00
         25   -1    0    0    0    0  0.00000000000E+00  0.00000000000E+00  0.99999998245E-14  0.12500000000E+03  0.12500000000E+03 0.  0.
        -13    1    3    3    0    0  0.41814788087E+02  0.16117981520E+02  0.27352731017E+02  0.52501894148E+02  0.10566000000E+00 0. -1.
         23    2    1    0    0    0 -0.10598715966E+01  0.11509164854E+02  0.27005584961E+02  0.95625081744E+02  0.91001485900E+02 0.  0.
         13    1    3    3    0    0 -0.42874659683E+02 -0.46088166661E+01 -0.34714605578E+00  0.43123187596E+02  0.10566000000E+00 0.  1.
         22    1    1    0    0    0  0.10598715966E+01 -0.11509164854E+02 -0.27005584961E+02  0.29374918256E+02  0.00000000000E+00 0. -1.
</event>
<event>
 5    1  0.1325686E-009  0.9118800E+02  0.7818608E-02  0.1130116E+00
         25   -1    0    0    0    0  0.00000000000E+00  0.00000000000E+00  0.99999998245E-14  0.12500000000E+03  0.12500000000E+03 0.  0.
        -13    1    3    3    0    0 -0.51323180244E+00 -0.53029358721E+02  0.21439111374E+02  0.57201599224E+02  0.10566000000E+00 0.  1.
         23    2    1    0    0    0 -0.11871636620E+02 -0.24002580431E+02 -0.46157455410E+01  0.97827132461E+02  0.93977567085E+02 0.  0.
         13    1    3    3    0    0 -0.11358404818E+02  0.29026778290E+02 -0.26054856915E+02  0.40625533237E+02  0.10566000000E+00 0. -1.
         22    1    1    0    0    0  0.11871636620E+02  0.24002580431E+02  0.46157455410E+01  0.27172867539E+02  0.00000000000E+00 0.  1.
</event>
<event>
 5    1  0.1325686E-009  0.9118800E+02  0.7818608E-02  0.1130116E+00
         25   -1    0    0    0    0  0.00000000000E+00  0.00000000000E+00  0.99999998245E-14  0.12500000000E+03  0.12500000000E+03 0.  0.
        -13    1    3    3    0    0 -0.18375938339E+02  0.21536887269E+01  0.47941582497E+01  0.19113047960E+02  0.10566000000E+00 0.  1.
         23    2    1    0    0    0  0.38407125913E+02  0.54485875260E+01 -0.20226557923E+02  0.81251764923E+02  0.68468541906E+02 0.  0.
         13    1    3    3    0    0  0.56783064252E+02  0.32948987992E+01 -0.25020716173E+02  0.62138716963E+02  0.10566000000E+00 0. -1.
         22    1    1    0    0    0 -0.38407125913E+02 -0.54485875260E+01  0.20226557923E+02  0.43748235077E+02  0.00000000000E+00 0. -1.
</event>
<event>
 5    1  0.1325686E-009  0.9118800E+02  0.7818608E-02  0.1130116E+00
         25   -1    0    0    0    0  0.00000000000E+00  0.00000000000E+00  0.99999998245E-14  0.12500000000E+03  0.12500000000E+03 0.  0.
        -13    1    3    3    0    0 -0.25458013179E+01 -0.35652695334E+02  0.27789003688E+02  0.45275111032E+02  0.10566000000E+00 0. -1.
         23    2    1    0    0    0  0.90164644478E+01 -0.20461335789E+02 -0.18903784477E+02  0.95720041650E+02  0.91131829854E+02 0.  0.
         13    1    3    3    0    0  0.11562265766E+02  0.15191359545E+02 -0.46692788165E+02  0.50444930619E+02  0.10566000000E+00 0.  1.
         22    1    1    0    0    0 -0.90164644478E+01  0.20461335789E+02  0.18903784477E+02  0.29279958350E+02  0.00000000000E+00 0.  1.
</event>
<event>
 5    1  0.1325686E-009  0.9118800E+02  0.7818608E-02  0.1130116E+00
         25   -1    0    0    0    0  0.00000000000E+00  0.00000000000E+00  0.99999998245E-14  0.12500000000E+03  0.12500000000E+03 0.  0.
        -13    1    3    3    0    0 -0.13266122711E+02 -0.23019937812E+02 -0.43476721455E+02  0.50952370123E+02  0.10566000000E+00 0. -1.
         23    2    1    0    0    0 -0.28057305153E+02  0.10969526714E+01 -0.90795600004E+01  0.95489763006E+02  0.90815421331E+02 0.  0.
         13    1    3    3    0    0 -0.14791182442E+02  0.24116890484E+02  0.34397161455E+02  0.44537392883E+02  0.10566000000E+00 0.  1.
         22    1    1    0    0    0  0.28057305153E+02 -0.10969526714E+01  0.90795600004E+01  0.29510236994E+02  0.00000000000E+00 0. -1.
</event>
<event>
 5    1  0.1325686E-009  0.9118800E+02  0.7818608E-02  0.1130116E+00
         25   -1    0    0    0    0  0.00000000000E+00  0.00000000000E+00  0.99999998245E-14  0.12500000000E+03  0.12500000000E+03 0.  0.
        -13    1    3    3    0    0  0.34390484138E+02 -0.14585441911E+02 -0.34816947902E+02  0.51065365369E+02  0.10566000000E+00 0.  1.
         23    2    1    0    0    0  0.13931248671E+02 -0.25435891186E+02  0.34500459252E+01  0.95794400078E+02  0.91233765785E+02 0.  0.
         13    1    3    3    0    0 -0.20459235467E+02 -0.10850449275E+02  0.38266993828E+02  0.44729034709E+02  0.10566000000E+00 0. -1.
         22    1    1    0    0    0 -0.13931248671E+02  0.25435891186E+02 -0.34500459252E+01  0.29205599922E+02  0.00000000000E+00 0.  1.
</event>
<event>
 5    1  0.1325686E-009  0.9118800E+02  0.7818608E-02  0.1130116E+00
         25   -1    0    0    0    0  0.00000000000E+00  0.00000000000E+00  0.99999998245E-14  0.12500000000E+03  0.12500000000E+03 0.  0.
        -13    1    3    3    0    0 -0.44022864605E+02  0.79862841068E+01 -0.95157516471E+01  0.45742256561E+02  0.10566000000E+00 0.  1.
         23    2    1    0    0    0 -0.97750328230E+01 -0.83773495771E+01 -0.32450127502E+02  0.90089514074E+02  0.83050457667E+02 0.  0.
         13    1    3    3    0    0  0.34247831782E+02 -0.16363633684E+02 -0.22934375855E+02  0.44347257514E+02  0.10566000000E+00 0. -1.
         22    1    1    0    0    0  0.97750328230E+01  0.83773495771E+01  0.32450127502E+02  0.34910485926E+02  0.00000000000E+00 0. -1.
</event>
<event>
 5    1  0.1325686E-009  0.9118800E+02  0.7818608E-02  0.1130116E+00
         25   -1    0    0    0    0  0.00000000000E+00  0.00000000000E+00  0.99999998245E-14  0.12500000000E+03  0.12500000000E+03 0.  0.
        -13    1    3    3    0    0 -0.18860901447E+02  0.26074726665E+02  0.96297842115E+01  0.33591202450E+02  0.10566000000E+00 0.  1.
         23    2    1    0    0    0  0.10538675572E+01 -0.30702969801E+02  0.38974664602E+01  0.94032706992E+02  0.88787255549E+02 0.  0.
         13    1    3    3    0    0  0.19914769004E+02 -0.56777696466E+02 -0.57323177513E+01  0.60441504542E+02  0.10566000000E+00 0. -1.
         22    1    1    0    0    0 -0.10538675572E+01  0.30702969801E+02 -0.38974664602E+01  0.30967293008E+02  0.00000000000E+00 0. -1.
</event>
<event>
 5    1  0.1325686E-009  0.9118800E+02  0.7818608E-02  0.1130116E+00
         25   -1    0    0    0    0  0.00000000000E+00  0.00000000000E+00  0.99999998245E-14  0.12500000000E+03  0.12500000000E+03 0.  0.
        -13    1    3    3    0    0  0.14492309136E+02 -0.23368229047E+02  0.30690760049E+02  0.41207221082E+02  0.10566000000E+00 0. -1.
         23    2    1    0    0    0  0.24499604731E+02  0.43964681287E+01 -0.15248328753E+02  0.95809743171E+02  0.91254785040E+02 0.  0.
         13    1    3    3    0    0  0.10007295595E+02  0.27764697176E+02 -0.45939088802E+02  0.54602522089E+02  0.10566000000E+00 0.  1.
         22    1    1    0    0    0 -0.24499604731E+02 -0.43964681287E+01  0.15248328753E+02  0.29190256829E+02  0.00000000000E+00 0.  1.
</event>
<event>
 5    1  0.1325686E-009  0.9118800E+02  0.7818608E-02  0.1130116E+00
         25   -1    0    0    0    0  0.00000000000E+00  0.00000000000E+00  0.99999998245E-14  0.12500000000E+03  0.12500000000E+03 0.  0.
        -13    1    3    3    0    0  0.42628833269E+02  0.32015422928E+02 -0.14818999571E+02  0.55333702600E+02  0.10566000000E+00 0.  1.
         23    2    1    0    0    0  0.52935008746E+01  0.29484213062E+02 -0.11540526493E+02  0.92898228660E+02  0.87175439001E+02 0.  0.
         13    1    3    3    0    0 -0.37335332394E+02 -0.25312098654E+01  0.32784730777E+01  0.37564526060E+02  0.10566000000E+00 0. -1.
         22    1    1    0    0    0 -0.52935008746E+01 -0.29484213062E+02  0.11540526493E+02  0.32101771340E+02  0.00000000000E+00 0.  1.
</event>
<event>
 5    1  0.1325686E-009  0.9118800E+02  0.7818608E-02  0.1130116E+00
         25   -1    0    0    0    0  0.00000000000E+00  0.00000000000E+00  0.99999998245E-14  0.12500000000E+03  0.12500000000E+03 0.  0.
        -13    1    3    3    0    0 -0.29138470220E+02 -0.32861607656E+02 -0.39729104292E+02  0.59222872240E+02  0.10566000000E+00 0.  1.
         23    2    1    0    0    0 -0.24343789473E+02 -0.64927923742E+01 -0.15071649822E+02  0.95641337444E+02  0.91023812054E+02 0.  0.
         13    1    3    3    0    0  0.47946807464E+01  0.26368815282E+02  0.24657454469E+02  0.36418465204E+02  0.10566000000E+00 0. -1.
         22    1    1    0    0    0  0.24343789473E+02  0.64927923742E+01  0.15071649822E+02  0.29358662556E+02  0.00000000000E+00 0.  1.
</event>
<event>
 5    1  0.1325686E-009  0.9118800E+02  0.7818608E-02  0.1130116E+00
         25   -1    0    0    0    0  0.00000000000E+00  0.00000000000E+00  0.99999998245E-14  0.12500000000E+03  0.12500000000E+03 0.  0.
        -13    1    3    3    0    0 -0.35972956731E+02 -0.10768498338E+02 -0.35075687836E+01  0.37713769041E+02  0.10566000000E+00 0.  1.
         23    2    1    0    0    0  0.23559760821E+02 -0.11055707992E+02 -0.89107334069E+01  0.97491961557E+02  0.93530692231E+02 0.  0.
         13    1    3    3    0    0  0.59532717552E+02 -0.28720965433E+00 -0.54031646233E+01  0.59778192516E+02  0.10566000000E+00 0. -1.
         22    1    1    0    0    0 -0.23559760821E+02  0.11055707992E+02  0.89107334069E+01  0.27508038443E+02  0.00000000000E+00 0. -1.
</event>
<event>
 5    1  0.1325686E-009  0.9118800E+02  0.7818608E-02  0.1130116E+00
         25   -1    0    0    0    0  0.00000000000E+00  0.00000000000E+00  0.99999998245E-14  0.12500000000E+03  0.12500000000E+03 0.  0.
        -13    1    3    3    0    0  0.30886803313E+02  0.23606838776E+02 -0.45237070411E+02  0.59646300466E+02  0.10566000000E+00 0. -1.
         23    2    1    0    0    0  0.25784350248E+02  0.75838770555E+01 -0.15061979983E+02  0.94190729482E+02  0.89009451017E+02 0.  0.
         13    1    3    3    0    0 -0.51024530656E+01 -0.16022961720E+02  0.30175090429E+02  0.34544429015E+02  0.10566000000E+00 0.  1.
         22    1    1    0    0    0 -0.25784350248E+02 -0.75838770555E+01  0.15061979983E+02  0.30809270518E+02  0.00000000000E+00 0. -1.
</event>
<event>
 5    1  0.1325686E-009  0.9118800E+02  0.7818608E-02  0.1130116E+00
         25   -1    0    0    0    0  0.00000000000E+00  0.00000000000E+00  0.99999998245E-14  0.12500000000E+03  0.12500000000E+03 0.  0.
        -13    1    3    3    0    0  0.26347938945E+02 -0.29971257569E+01 -0.35194222693E+02  0.44066326423E+02  0.10566000000E+00 0. -1.
         23    2    1    0    0    0  0.21343620450E+02 -0.61309526213E+01  0.17274007049E+02  0.96865856446E+02  0.92690151103E+02 0.  0.
         13    1    3    3    0    0 -0.50043184943E+01 -0.31338268644E+01  0.52468229742E+02  0.52799530023E+02  0.10566000000E+00 0.  1.
         22    1    1    0    0    0 -0.21343620450E+02  0.61309526213E+01 -0.17274007049E+02  0.28134143554E+02  0.00000000000E+00 0.  1.
</event>
<event>
 5    1  0.1325686E-009  0.9118800E+02  0.7818608E-02  0.1130116E+00
         25   -1    0    0    0    0  0.00000000000E+00  0.00000000000E+00  0.99999998245E-14  0.12500000000E+03  0.12500000000E+03 0.  0.
        -13    1    3    3    0    0 -0.32754890847E+02 -0.14983889015E+02 -0.99783355840E+01  0.37376170878E+02  0.10566000000E+00 0.  1.
         23    2    1    0    0    0  0.11866172863E+02 -0.84067890000E+01  0.26092110928E+02  0.95128970350E+02  0.90317454500E+02 0.  0.
         13    1    3    3    0    0  0.44621063710E+02  0.65771000148E+01  0.36070446512E+02  0.57752799472E+02  0.10566000000E+00 0. -1.
         22    1    1    0    0    0 -0.11866172863E+02  0.84067890000E+01 -0.26092110928E+02  0.29871029650E+02  0.00000000000E+00 0. -1.
</event>
<event>
 5    1  0.1325686E-009  0.9118800E+02  0.7818608E-02  0.1130116E+00
         25   -1    0    0    0    0  0.00000000000E+00  0.00000000000E+00  0.99999998245E-14  0.12500000000E+03  0.12500000000E+03 0.  0.
        -13    1    3    3    0    0 -0.33338156273E+02  0.48899370871E+02  0.50440618122E+01  0.59397263059E+02  0.10566000000E+00 0.  1.
         23    2    1    0    0    0 -0.26435606349E+02  0.15428078649E+02 -0.21292547125E+01  0.94317747484E+02  0.89187649767E+02 0.  0.
         13    1    3    3    0    0  0.69025499241E+01 -0.33471292222E+02 -0.71733165246E+01  0.34920484425E+02  0.10566000000E+00 0. -1.
         22    1    1    0    0    0  0.26435606349E+02 -0.15428078649E+02  0.21292547125E+01  0.30682252516E+02  0.00000000000E+00 0.  1.
</event>
<event>
 5    1  0.1325686E-009  0.9118800E+02  0.7818608E-02  0.1130116E+00
         25   -1    0    0    0    0  0.00000000000E+00  0.00000000000E+00  0.99999998245E-14  0.12500000000E+03  0.12500000000E+03 0.  0.
        -13    1    3    3    0    0 -0.24853091772E+02 -0.10146094403E+01 -0.26711365000E+02  0.36499503930E+02  0.10566000000E+00 0. -1.
         23    2    1    0    0    0  0.12245955147E+02 -0.22991410415E+02  0.13675300776E+02  0.95579221261E+02  0.90938469941E+02 0.  0.
         13    1    3    3    0    0  0.37099046918E+02 -0.21976800974E+02  0.40386665776E+02  0.59079717331E+02  0.10566000000E+00 0.  1.
         22    1    1    0    0    0 -0.12245955147E+02  0.22991410415E+02 -0.13675300776E+02  0.29420778739E+02  0.00000000000E+00 0.  1.
</event>
<event>
 5    1  0.1325686E-009  0.9118800E+02  0.7818608E-02  0.1130116E+00
         25   -1    0    0    0    0  0.00000000000E+00  0.00000000000E+00  0.99999998245E-14  0.12500000000E+03  0.12500000000E+03 0.  0.
        -13    1    3    3    0    0 -0.29423369125E+01 -0.33417558164E+02 -0.20262000968E+02  0.39191202934E+02  0.10566000000E+00 0. -1.
         23    2    1    0    0    0  0.18768658511E+02  0.18423236991E+02 -0.12335556123E+02  0.95951004348E+02  0.91448078640E+02 0.  0.
         13    1    3    3    0    0  0.21710995424E+02  0.51840795155E+02  0.79264448447E+01  0.56759801414E+02  0.10566000000E+00 0.  1.
         22    1    1    0    0    0 -0.18768658511E+02 -0.18423236991E+02  0.12335556123E+02  0.29048995652E+02  0.00000000000E+00 0.  1.
</event>
<event>
 5    1  0.1325686E-009  0.9118800E+02  0.7818608E-02  0.1130116E+00
         25   -1    0    0    0    0  0.00000000000E+00  0.00000000000E+00  0.99999998245E-14  0.12500000000E+03  0.12500000000E+03 0.  0.
        -13    1    3    3    0    0  0.78202800017E+01 -0.36271206231E+02 -0.24282073463E+02  0.44343967306E+02  0.10566000000E+00 0.  1.
         23    2    1    0    0    0 -0.21881691954E+02 -0.15150216144E+02  0.12030912556E+02  0.95792460753E+02  0.91231108664E+02 0.  0.
         13    1    3    3    0    0 -0.29701971955E+02  0.21120990087E+02  0.36312986019E+02  0.51448493447E+02  0.10566000000E+00 0. -1.
         22    1    1    0    0    0  0.21881691954E+02  0.15150216144E+02 -0.12030912556E+02  0.29207539247E+02  0.00000000000E+00 0.  1.
</event>
<event>
 5    1  0.1325686E-009  0.9118800E+02  0.7818608E-02  0.1130116E+00
         25   -1    0    0    0    0  0.00000000000E+00  0.00000000000E+00  0.99999998245E-14  0.12500000000E+03  0.12500000000E+03 0.  0.
        -13    1    3    3    0    0 -0.22591468266E+02 -0.33081836752E+02  0.36820330445E+02  0.54410754998E+02  0.10566000000E+00 0. -1.
         23    2    1    0    0    0 -0.28064735883E+02 -0.62078110996E+01  0.60547005131E+01  0.95626104836E+02  0.91002891212E+02 0.  0.
         13    1    3    3    0    0 -0.54732676164E+01  0.26874025652E+02 -0.30765629932E+02  0.41215349838E+02  0.10566000000E+00 0.  1.
         22    1    1    0    0    0  0.28064735883E+02  0.62078110996E+01 -0.60547005131E+01  0.29373895164E+02  0.00000000000E+00 0. -1.
</event>
<event>
 5    1  0.1325686E-009  0.9118800E+02  0.7818608E-02  0.1130116E+00
         25   -1    0    0    0    0  0.00000000000E+00  0.00000000000E+00  0.99999998245E-14  0.12500000000E+03  0.12500000000E+03 0.  0.
        -13    1    3    3    0    0  0.44270047436E+02 -0.28926717338E+02  0.28561102864E+02  0.60102744004E+02  0.10566000000E+00 0. -1.
         23    2    1    0    0    0  0.12597398734E+02 -0.15609476810E+02  0.22262352948E+02  0.95033976241E+02  0.90185886148E+02 0.  0.
         13    1    3    3    0    0 -0.31672648702E+02  0.13317240528E+02 -0.62987499156E+01  0.34931232237E+02  0.10566000000E+00 0.  1.
         22    1    1    0    0    0 -0.12597398734E+02  0.15609476810E+02 -0.22262352948E+02  0.29966023759E+02  0.00000000000E+00 0. -1.
</event>
<event>
 5    1  0.1325686E-009  0.9118800E+02  0.7818608E-02  0.1130116E+00
         25   -1    0    0    0    0  0.00000000000E+00  0.00000000000E+00  0.99999998245E-14  0.12500000000E+03  0.12500000000E+03 0.  0.
        -13    1    3    3    0    0  0.25398567833E+02  0.54659472704E+01  0.36790903346E+02  0.45039377888E+02  0.10566000000E+00 0.  1.
         23    2    1    0    0    0 -0.87598772243E+01  0.26402189221E+02  0.38289768874E+01  0.96920254477E+02  0.92763482143E+02 0.  0.
         13    1    3    3    0    0 -0.34158445057E+02  0.20936241950E+02 -0.32961926459E+02  0.51880876589E+02  0.10566000000E+00 0. -1.
         22    1    1    0    0    0  0.87598772243E+01 -0.26402189221E+02 -0.38289768874E+01  0.28079745523E+02  0.00000000000E+00 0. -1.
</event>
<event>
 5    1  0.1325686E-009  0.9118800E+02  0.7818608E-02  0.1130116E+00
         25   -1    0    0    0    0  0.00000000000E+00  0.00000000000E+00  0.99999998245E-14  0.12500000000E+03  0.12500000000E+03 0.  0.
        -13    1    3    3    0    0 -0.20356616097E+02 -0.82579660792E+01  0.25573307756E+02  0.33713366137E+02  0.10566000000E+00 0. -1.
         23    2    1    0    0    0  0.25447492790E+02  0.12721919030E+02 -0.93932766769E+01  0.95039096145E+02  0.90192982189E+02 0.  0.
         13    1    3    3    0    0  0.45804108887E+02  0.20979885109E+02 -0.34966584433E+02  0.61325730008E+02  0.10566000000E+00 0.  1.
         22    1    1    0    0    0 -0.25447492790E+02 -0.12721919030E+02  0.93932766769E+01  0.29960903855E+02  0.00000000000E+00 0.  1.
</event>
<event>
 5    1  0.1325686E-009  0.9118800E+02  0.7818608E-02  0.1130116E+00
         25   -1    0    0    0    0  0.00000000000E+00  0.00000000000E+00  0.99999998245E-14  0.12500000000E+03  0.12500000000E+03 0.  0.
        -13    1    3    3    0    0  0.21099447190E+02 -0.34917667765E+02 -0.14809238106E+02  0.43402245232E+02  0.10566000000E+00 0. -1.
         23    2    1    0    0    0 -0.23002734196E+02 -0.49760460977E+01 -0.15688668760E+02  0.96715355001E+02  0.92486965300E+02 0.  0.
         13    1    3    3    0    0 -0.44102181385E+02  0.29941621667E+02 -0.87943065404E+00  0.53313109770E+02  0.10566000000E+00 0.  1.
         22    1    1    0    0    0  0.23002734196E+02  0.49760460977E+01  0.15688668760E+02  0.28284644999E+02  0.00000000000E+00 0.  1.
</event>
<event>
 5    1  0.1325686E-009  0.9118800E+02  0.7818608E-02  0.1130116E+00
         25   -1    0    0    0    0  0.00000000000E+00  0.00000000000E+00  0.99999998245E-14  0.12500000000E+03  0.12500000000E+03 0.  0.
        -13    1    3    3    0    0 -0.43861156016E+02 -0.34932514460E+02 -0.21666704861E+01  0.56114055268E+02  0.10566000000E+00 0.  1.
         23    2    1    0    0    0 -0.19086493900E+02 -0.10321669568E+02  0.18320763130E+02  0.96601382538E+02  0.92332798260E+02 0.  0.
         13    1    3    3    0    0  0.24774662116E+02  0.24610844892E+02  0.20487433616E+02  0.40487327270E+02  0.10566000000E+00 0. -1.
         22    1    1    0    0    0  0.19086493900E+02  0.10321669568E+02 -0.18320763130E+02  0.28398617462E+02  0.00000000000E+00 0.  1.
</event>
<event>
 5    1  0.1325686E-009  0.9118800E+02  0.7818608E-02  0.1130116E+00
         25   -1    0    0    0    0  0.00000000000E+00  0.00000000000E+00  0.99999998245E-14  0.12500000000E+03  0.12500000000E+03 0.  0.
        -13    1    3    3    0    0 -0.11166134739E+02 -0.33592981271E+02  0.23118912700E+02  0.42280802312E+02  0.10566000000E+00 0.  1.
         23    2    1    0    0    0 -0.26847511787E+02  0.74187984058E+01 -0.79089734801E+01  0.96045219385E+02  0.91576770233E+02 0.  0.
         13    1    3    3    0    0 -0.15681377048E+02  0.41011779677E+02 -0.31027886180E+02  0.53764417073E+02  0.10566000000E+00 0. -1.
         22    1    1    0    0    0  0.26847511787E+02 -0.74187984058E+01  0.79089734801E+01  0.28954780615E+02  0.00000000000E+00 0.  1.
</event>
<event>
 5    1  0.1325686E-009  0.9118800E+02  0.7818608E-02  0.1130116E+00
         25   -1    0    0    0    0  0.00000000000E+00  0.00000000000E+00  0.99999998245E-14  0.12500000000E+03  0.12500000000E+03 0.  0.
        -13    1    3    3    0    0  0.27098434407E+01 -0.52989674709E+02  0.22406837470E+02  0.57596236046E+02  0.10566000000E+00 0.  1.
         23    2    1    0    0    0 -0.14724682979E+02 -0.19888173025E+02  0.15943470478E+02  0.95562779241E+02  0.90915866659E+02 0.  0.
         13    1    3    3    0    0 -0.17434526420E+02  0.33101501685E+02 -0.64633669910E+01  0.37966543195E+02  0.10566000000E+00 0. -1.
         22    1    1    0    0    0  0.14724682979E+02  0.19888173025E+02 -0.15943470478E+02  0.29437220759E+02  0.00000000000E+00 0.  1.
</event>
<event>
 5    1  0.1325686E-009  0.9118800E+02  0.7818608E-02  0.1130116E+00
         25   -1    0    0    0    0  0.00000000000E+00  0.00000000000E+00  0.99999998245E-14  0.12500000000E+03  0.12500000000E+03 0.  0.
        -13    1    3    3    0    0 -0.37177735435E+02 -0.88611004200E+00 -0.11005478897E+02  0.38782740141E+02  0.10566000000E+00 0.  1.
         23    2    1    0    0    0  0.77218365383E+01 -0.21309588897E+02  0.18045358298E+02  0.96028284576E+02  0.91553651725E+02 0.  0.
         13    1    3    3    0    0  0.44899571973E+02 -0.20423478855E+02  0.29050837195E+02  0.57245544435E+02  0.10566000000E+00 0. -1.
         22    1    1    0    0    0 -0.77218365383E+01  0.21309588897E+02 -0.18045358298E+02  0.28971715424E+02  0.00000000000E+00 0. -1.
</event>
<event>
 5    1  0.1325686E-009  0.9118800E+02  0.7818608E-02  0.1130116E+00
         25   -1    0    0    0    0  0.00000000000E+00  0.00000000000E+00  0.99999998245E-14  0.12500000000E+03  0.12500000000E+03 0.  0.
        -13    1    3    3    0    0 -0.42667367260E+02  0.22335168611E+02  0.48880920204E+01  0.48407319627E+02  0.10566000000E+00 0. -1.
         23    2    1    0    0    0 -0.14189906527E+02 -0.17407768671E+02 -0.11232898676E+02  0.99889008980E+02  0.96681188682E+02 0.  0.
         13    1    3    3    0    0  0.28477460733E+02 -0.39742937282E+02 -0.16120990696E+02  0.51481689353E+02  0.10566000000E+00 0.  1.
         22    1    1    0    0    0  0.14189906527E+02  0.17407768671E+02  0.11232898676E+02  0.25110991020E+02  0.00000000000E+00 0.  1.
</event>
<event>
 5    1  0.1325686E-009  0.9118800E+02  0.7818608E-02  0.1130116E+00
         25   -1    0    0    0    0  0.00000000000E+00  0.00000000000E+00  0.99999998245E-14  0.12500000000E+03  0.12500000000E+03 0.  0.
        -13    1    3    3    0    0  0.26302128698E+02  0.27171189286E+02 -0.56425285795E+01  0.38235125135E+02  0.10566000000E+00 0. -1.
         23    2    1    0    0    0 -0.14052200613E+02 -0.64070694482E+01 -0.26177810643E+02  0.94606042524E+02  0.89590795459E+02 0.  0.
         13    1    3    3    0    0 -0.40354329312E+02 -0.33578258734E+02 -0.20535282064E+02  0.56370917389E+02  0.10566000000E+00 0.  1.
         22    1    1    0    0    0  0.14052200613E+02  0.64070694482E+01  0.26177810643E+02  0.30393957476E+02  0.00000000000E+00 0.  1.
</event>
<event>
 5    1  0.1325686E-009  0.9118800E+02  0.7818608E-02  0.1130116E+00
         25   -1    0    0    0    0  0.00000000000E+00  0.00000000000E+00  0.99999998245E-14  0.12500000000E+03  0.12500000000E+03 0.  0.
        -13    1    3    3    0    0 -0.17706587368E+02  0.36083424063E+02  0.23581017235E+02  0.46600560793E+02  0.10566000000E+00 0.  1.
         23    2    1    0    0    0  0.19679921844E+02  0.68046595978E+01  0.22839053266E+02  0.94093284385E+02  0.88872499100E+02 0.  0.
         13    1    3    3    0    0  0.37386509211E+02 -0.29278764466E+02 -0.74196396966E+00  0.47492723592E+02  0.10566000000E+00 0. -1.
         22    1    1    0    0    0 -0.19679921844E+02 -0.68046595978E+01 -0.22839053266E+02  0.30906715615E+02  0.00000000000E+00 0. -1.
</event>
<event>
 5    1  0.1325686E-009  0.9118800E+02  0.7818608E-02  0.1130116E+00
         25   -1    0    0    0    0  0.00000000000E+00  0.00000000000E+00  0.99999998245E-14  0.12500000000E+03  0.12500000000E+03 0.  0.
        -13    1    3    3    0    0  0.54735782328E+02  0.11087772509E+02 -0.67790753467E+01  0.56257546986E+02  0.10566000000E+00 0. -1.
         23    2    1    0    0    0  0.11428307900E+02  0.21393388339E+01 -0.19520781181E+02  0.10227899892E+03  0.99723366020E+02 0.  0.
         13    1    3    3    0    0 -0.43307474429E+02 -0.89484336751E+01 -0.12741705834E+02  0.46021451935E+02  0.10566000000E+00 0.  1.
         22    1    1    0    0    0 -0.11428307900E+02 -0.21393388339E+01  0.19520781181E+02  0.22721001079E+02  0.00000000000E+00 0. -1.
</event>
<event>
 5    1  0.1325686E-009  0.9118800E+02  0.7818608E-02  0.1130116E+00
         25   -1    0    0    0    0  0.00000000000E+00  0.00000000000E+00  0.99999998245E-14  0.12500000000E+03  0.12500000000E+03 0.  0.
        -13    1    3    3    0    0 -0.18880965566E+02 -0.34523694801E+02 -0.28123534428E+02  0.48366524748E+02  0.10566000000E+00 0.  1.
         23    2    1    0    0    0  0.20757987310E+02 -0.14503432878E+02 -0.18049774269E+02  0.93902766143E+02  0.88604128209E+02 0.  0.
         13    1    3    3    0    0  0.39638952876E+02  0.20020261923E+02  0.10073760159E+02  0.45536241395E+02  0.10566000000E+00 0. -1.
         22    1    1    0    0    0 -0.20757987310E+02  0.14503432878E+02  0.18049774269E+02  0.31097233857E+02  0.00000000000E+00 0. -1.
</event>
<event>
 5    1  0.1325686E-009  0.9118800E+02  0.7818608E-02  0.1130116E+00
         25   -1    0    0    0    0  0.00000000000E+00  0.00000000000E+00  0.99999998245E-14  0.12500000000E+03  0.12500000000E+03 0.  0.
        -13    1    3    3    0    0  0.52100509584E+01 -0.29160122549E+02  0.35499472823E+02  0.46235063673E+02  0.10566000000E+00 0. -1.
         23    2    1    0    0    0  0.25138565540E+02  0.76646184151E+01  0.23378097943E+02  0.89825729342E+02  0.82652479307E+02 0.  0.
         13    1    3    3    0    0  0.19928514581E+02  0.36824740964E+02 -0.12121374880E+02  0.43590665670E+02  0.10566000000E+00 0.  1.
         22    1    1    0    0    0 -0.25138565540E+02 -0.76646184151E+01 -0.23378097943E+02  0.35174270658E+02  0.00000000000E+00 0. -1.
</event>
<event>
 5    1  0.1325686E-009  0.9118800E+02  0.7818608E-02  0.1130116E+00
         25   -1    0    0    0    0  0.00000000000E+00  0.00000000000E+00  0.99999998245E-14  0.12500000000E+03  0.12500000000E+03 0.  0.
        -13    1    3    3    0    0  0.23379532461E+02  0.69931145982E+01 -0.26504697173E+02  0.36027993646E+02  0.10566000000E+00 0.  1.
         23    2    1    0    0    0 -0.28844028008E+01 -0.21483618823E+02  0.19271040999E+02  0.95995885146E+02  0.91509405454E+02 0.  0.
         13    1    3    3    0    0 -0.26263935262E+02 -0.28476733422E+02  0.45775738172E+02  0.59967891500E+02  0.10566000000E+00 0. -1.
         22    1    1    0    0    0  0.28844028008E+01  0.21483618823E+02 -0.19271040999E+02  0.29004114854E+02  0.00000000000E+00 0. -1.
</event>
<event>
 5    1  0.1325686E-009  0.9118800E+02  0.7818608E-02  0.1130116E+00
         25   -1    0    0    0    0  0.00000000000E+00  0.00000000000E+00  0.99999998245E-14  0.12500000000E+03  0.12500000000E+03 0.  0.
        -13    1    3    3    0    0 -0.17938225255E+02 -0.30718696571E+02  0.85487162623E+01  0.36585652353E+02  0.10566000000E+00 0. -1.
         23    2    1    0    0    0 -0.43786446362E+02 -0.35562480738E+01  0.21283619262E+02  0.76185122818E+02  0.58491714837E+02 0.  0.
         13    1    3    3    0    0 -0.25848221107E+02  0.27162448497E+02  0.12734903000E+02  0.39599470466E+02  0.10566000000E+00 0.  1.
         22    1    1    0    0    0  0.43786446362E+02  0.35562480738E+01 -0.21283619262E+02  0.48814877182E+02  0.00000000000E+00 0.  1.
</event>
<event>
 5    1  0.1325686E-009  0.9118800E+02  0.7818608E-02  0.1130116E+00
         25   -1    0    0    0    0  0.00000000000E+00  0.00000000000E+00  0.99999998245E-14  0.12500000000E+03  0.12500000000E+03 0.  0.
        -13    1    3    3    0    0 -0.37048804908E+02  0.17638646297E+02  0.53925723411E+01  0.41386311611E+02  0.10566000000E+00 0.  1.
         23    2    1    0    0    0  0.38826932305E+01 -0.90096263226E+01  0.28091158799E+02  0.95244968898E+02  0.90477854884E+02 0.  0.
         13    1    3    3    0    0  0.40931498138E+02 -0.26648272620E+02  0.22698586458E+02  0.53858657287E+02  0.10566000000E+00 0. -1.
         22    1    1    0    0    0 -0.38826932305E+01  0.90096263226E+01 -0.28091158799E+02  0.29755031102E+02  0.00000000000E+00 0. -1.
</event>
<event>
 5    1  0.1325686E-009  0.9118800E+02  0.7818608E-02  0.1130116E+00
         25   -1    0    0    0    0  0.00000000000E+00  0.00000000000E+00  0.99999998245E-14  0.12500000000E+03  0.12500000000E+03 0.  0.
        -13    1    3    3    0    0  0.92500440612E+01  0.60914931137E+00 -0.59198554672E+02  0.59920066900E+02  0.10566000000E+00 0.  1.
         23    2    1    0    0    0 -0.68619975614E+01 -0.56957386411E+01 -0.28239172782E+02  0.95386163224E+02  0.90672712577E+02 0.  0.
         13    1    3    3    0    0 -0.16112041623E+02 -0.63048879524E+01  0.30959381891E+02  0.35466096323E+02  0.10566000000E+00 0. -1.
         22    1    1    0    0    0  0.68619975614E+01  0.56957386411E+01  0.28239172782E+02  0.29613836776E+02  0.00000000000E+00 0.  1.
</event>
<event>
 5    1  0.1325686E-009  0.9118800E+02  0.7818608E-02  0.1130116E+00
         25   -1    0    0    0    0  0.00000000000E+00  0.00000000000E+00  0.99999998245E-14  0.12500000000E+03  0.12500000000E+03 0.  0.
        -13    1    3    3    0    0 -0.39125712495E+02  0.35998317893E+02 -0.15824915014E+02  0.55471969215E+02  0.10566000000E+00 0.  1.
         23    2    1    0    0    0 -0.97332912680E+01  0.30086557834E+02  0.63300200951E+01  0.92750859304E+02  0.86963870809E+02 0.  0.
         13    1    3    3    0    0  0.29392421227E+02 -0.59117600592E+01  0.22154935109E+02  0.37278890089E+02  0.10566000000E+00 0. -1.
         22    1    1    0    0    0  0.97332912680E+01 -0.30086557834E+02 -0.63300200951E+01  0.32249140696E+02  0.00000000000E+00 0.  1.
</event>
<event>
 5    1  0.1325686E-009  0.9118800E+02  0.7818608E-02  0.1130116E+00
         25   -1    0    0    0    0  0.00000000000E+00  0.00000000000E+00  0.99999998245E-14  0.12500000000E+03  0.12500000000E+03 0.  0.
        -13    1    3    3    0    0 -0.38380852471E+02 -0.12087781045E+02 -0.25789982603E+02  0.47794755504E+02  0.10566000000E+00 0.  1.
         23    2    1    0    0    0 -0.21390606474E+01 -0.29332176074E+02  0.16167560980E+00  0.95589487038E+02  0.90952579730E+02 0.  0.
         13    1    3    3    0    0  0.36241791823E+02 -0.17244395028E+02  0.25951658213E+02  0.47794731535E+02  0.10566000000E+00 0. -1.
         22    1    1    0    0    0  0.21390606474E+01  0.29332176074E+02 -0.16167560980E+00  0.29410512962E+02  0.00000000000E+00 0.  1.
</event>
<event>
 5    1  0.1325686E-009  0.9118800E+02  0.7818608E-02  0.1130116E+00
         25   -1    0    0    0    0  0.00000000000E+00  0.00000000000E+00  0.99999998245E-14  0.12500000000E+03  0.12500000000E+03 0.  0.
        -13    1    3    3    0    0  0.28897346675E+02 -0.44402941460E+02 -0.32501754365E+02  0.62153463749E+02  0.10566000000E+00 0. -1.
         23    2    1    0    0    0  0.16550025746E+02 -0.19335916643E+02 -0.11707197901E+02  0.96985012809E+02  0.92850703833E+02 0.  0.
         13    1    3    3    0    0 -0.12347320929E+02  0.25067024817E+02  0.20794556464E+02  0.34831549060E+02  0.10566000000E+00 0.  1.
         22    1    1    0    0    0 -0.16550025746E+02  0.19335916643E+02  0.11707197901E+02  0.28014987191E+02  0.00000000000E+00 0. -1.
</event>
<event>
 5    1  0.1325686E-009  0.9118800E+02  0.7818608E-02  0.1130116E+00
         25   -1    0    0    0    0  0.00000000000E+00  0.00000000000E+00  0.99999998245E-14  0.12500000000E+03  0.12500000000E+03 0.  0.
        -13    1    3    3    0    0  0.48740802517E+02 -0.97752038255E+01 -0.89520645274E+01  0.50511098416E+02  0.10566000000E+00 0. -1.
         23    2    1    0    0    0  0.29776615315E+02 -0.21248127126E+02  0.17018777116E+02  0.84654386849E+02  0.74421748920E+02 0.  0.
         13    1    3    3    0    0 -0.18964187202E+02 -0.11472923301E+02  0.25970841644E+02  0.34143288433E+02  0.10566000000E+00 0.  1.
         22    1    1    0    0    0 -0.29776615315E+02  0.21248127126E+02 -0.17018777116E+02  0.40345613151E+02  0.00000000000E+00 0. -1.
</event>
<event>
 5    1  0.1325686E-009  0.9118800E+02  0.7818608E-02  0.1130116E+00
         25   -1    0    0    0    0  0.00000000000E+00  0.00000000000E+00  0.99999998245E-14  0.12500000000E+03  0.12500000000E+03 0.  0.
        -13    1    3    3    0    0 -0.22260078492E+02 -0.23248911464E+02 -0.46811854816E+02  0.56810068598E+02  0.10566000000E+00 0. -1.
         23    2    1    0    0    0 -0.24809204225E+02 -0.13123455447E+02 -0.97918096364E+01  0.95274569253E+02  0.90518740122E+02 0.  0.
         13    1    3    3    0    0 -0.25491257323E+01  0.10125456017E+02  0.37020045180E+02  0.38464500656E+02  0.10566000000E+00 0.  1.
         22    1    1    0    0    0  0.24809204225E+02  0.13123455447E+02  0.97918096364E+01  0.29725430747E+02  0.00000000000E+00 0. -1.
</event>
<event>
 5    1  0.1325686E-009  0.9118800E+02  0.7818608E-02  0.1130116E+00
         25   -1    0    0    0    0  0.00000000000E+00  0.00000000000E+00  0.99999998245E-14  0.12500000000E+03  0.12500000000E+03 0.  0.
        -13    1    3    3    0    0 -0.25759232654E+02 -0.18293357876E+02  0.26404248258E+02  0.41174998475E+02  0.10566000000E+00 0. -1.
         23    2    1    0    0    0  0.23480129779E+02 -0.19082838988E+02  0.85364728210E+01  0.93562083299E+02  0.88122192578E+02 0.  0.
         13    1    3    3    0    0  0.49239362433E+02 -0.78948111180E+00 -0.17867775437E+02  0.52387084824E+02  0.10566000000E+00 0.  1.
         22    1    1    0    0    0 -0.23480129779E+02  0.19082838988E+02 -0.85364728210E+01  0.31437916701E+02  0.00000000000E+00 0. -1.
</event>
<event>
 5    1  0.1325686E-009  0.9118800E+02  0.7818608E-02  0.1130116E+00
         25   -1    0    0    0    0  0.00000000000E+00  0.00000000000E+00  0.99999998245E-14  0.12500000000E+03  0.12500000000E+03 0.  0.
        -13    1    3    3    0    0 -0.19828874013E+02 -0.52367088198E+02 -0.84514624739E+01  0.56629802691E+02  0.10566000000E+00 0.  1.
         23    2    1    0    0    0  0.74883610710E+01 -0.26393576887E+02 -0.13078042169E+02  0.94607046221E+02  0.89592195839E+02 0.  0.
         13    1    3    3    0    0  0.27317235084E+02  0.25973511311E+02 -0.46265796953E+01  0.37977243530E+02  0.10566000000E+00 0. -1.
         22    1    1    0    0    0 -0.74883610710E+01  0.26393576887E+02  0.13078042169E+02  0.30392953779E+02  0.00000000000E+00 0.  1.
</event>
<event>
 5    1  0.1325686E-009  0.9118800E+02  0.7818608E-02  0.1130116E+00
         25   -1    0    0    0    0  0.00000000000E+00  0.00000000000E+00  0.99999998245E-14  0.12500000000E+03  0.12500000000E+03 0.  0.
        -13    1    3    3    0    0 -0.18552452989E+02  0.37294356879E+02  0.44859464187E+02  0.61216380636E+02  0.10566000000E+00 0. -1.
         23    2    1    0    0    0 -0.16563068638E+02  0.22427763885E+02  0.18515672191E+02  0.91531059887E+02  0.85192517111E+02 0.  0.
         13    1    3    3    0    0  0.19893843506E+01 -0.14866592994E+02 -0.26343791996E+02  0.30314679251E+02  0.10566000000E+00 0.  1.
         22    1    1    0    0    0  0.16563068638E+02 -0.22427763885E+02 -0.18515672191E+02  0.33468940113E+02  0.00000000000E+00 0. -1.
</event>
<event>
 5    1  0.1325686E-009  0.9118800E+02  0.7818608E-02  0.1130116E+00
         25   -1    0    0    0    0  0.00000000000E+00  0.00000000000E+00  0.99999998245E-14  0.12500000000E+03  0.12500000000E+03 0.  0.
        -13    1    3    3    0    0 -0.16782721914E+02 -0.13835441383E+02  0.32744546028E+02  0.39310248686E+02  0.10566000000E+00 0. -1.
         23    2    1    0    0    0  0.11876896772E+02  0.25898000327E+02  0.36859940307E+01  0.96271031173E+02  0.91884480699E+02 0.  0.
         13    1    3    3    0    0  0.28659618686E+02  0.39733441710E+02 -0.29058551997E+02  0.56960782487E+02  0.10566000000E+00 0.  1.
         22    1    1    0    0    0 -0.11876896772E+02 -0.25898000327E+02 -0.36859940307E+01  0.28728968827E+02  0.00000000000E+00 0.  1.
</event>
<event>
 5    1  0.1325686E-009  0.9118800E+02  0.7818608E-02  0.1130116E+00
         25   -1    0    0    0    0  0.00000000000E+00  0.00000000000E+00  0.99999998245E-14  0.12500000000E+03  0.12500000000E+03 0.  0.
        -13    1    3    3    0    0  0.20072888257E+02  0.30034403538E+02 -0.11589892521E+02  0.37938410767E+02  0.10566000000E+00 0.  1.
         23    2    1    0    0    0 -0.15072247902E+02 -0.16071347463E+02 -0.18378423231E+02  0.96308061994E+02  0.91934843767E+02 0.  0.
         13    1    3    3    0    0 -0.35145136159E+02 -0.46105751001E+02 -0.67885307100E+01  0.58369651226E+02  0.10566000000E+00 0. -1.
         22    1    1    0    0    0  0.15072247902E+02  0.16071347463E+02  0.18378423231E+02  0.28691938006E+02  0.00000000000E+00 0. -1.
</event>
<event>
 5    1  0.1325686E-009  0.9118800E+02  0.7818608E-02  0.1130116E+00
         25   -1    0    0    0    0  0.00000000000E+00  0.00000000000E+00  0.99999998245E-14  0.12500000000E+03  0.12500000000E+03 0.  0.
        -13    1    3    3    0    0 -0.83552240642E+01  0.55669616639E+01 -0.51651889590E+02  0.52618719992E+02  0.10566000000E+00 0. -1.
         23    2    1    0    0    0 -0.21036695590E+02  0.21649685537E+02 -0.32141546165E+02  0.80905437579E+02  0.67833320683E+02 0.  0.
         13    1    3    3    0    0 -0.12681471525E+02  0.16082723874E+02  0.19510343425E+02  0.28286717587E+02  0.10566000000E+00 0.  1.
         22    1    1    0    0    0  0.21036695590E+02 -0.21649685537E+02  0.32141546165E+02  0.44094562421E+02  0.00000000000E+00 0. -1.
</event>
<event>
 5    1  0.1325686E-009  0.9118800E+02  0.7818608E-02  0.1130116E+00
         25   -1    0    0    0    0  0.00000000000E+00  0.00000000000E+00  0.99999998245E-14  0.12500000000E+03  0.12500000000E+03 0.  0.
        -13    1    3    3    0    0  0.28762006488E+02  0.24411472034E+02  0.13080892438E+02  0.39928609982E+02  0.10566000000E+00 0.  1.
         23    2    1    0    0    0  0.71403172939E+01 -0.26842749998E+02  0.93913931008E+01  0.95679092393E+02  0.91075644924E+02 0.  0.
         13    1    3    3    0    0 -0.21621689194E+02 -0.51254222032E+02 -0.36894993371E+01  0.55750482411E+02  0.10566000000E+00 0. -1.
         22    1    1    0    0    0 -0.71403172939E+01  0.26842749998E+02 -0.93913931008E+01  0.29320907607E+02  0.00000000000E+00 0. -1.
</event>
<event>
 5    1  0.1325686E-009  0.9118800E+02  0.7818608E-02  0.1130116E+00
         25   -1    0    0    0    0  0.00000000000E+00  0.00000000000E+00  0.99999998245E-14  0.12500000000E+03  0.12500000000E+03 0.  0.
        -13    1    3    3    0    0  0.18229731541E+02  0.14636767169E+02  0.45313686175E+02  0.50989208506E+02  0.10566000000E+00 0. -1.
         23    2    1    0    0    0  0.24490843373E+02  0.16298054636E+02  0.12197308535E+01  0.95556567160E+02  0.90907325282E+02 0.  0.
         13    1    3    3    0    0  0.62611118322E+01  0.16612874671E+01 -0.44093955322E+02  0.44567358654E+02  0.10566000000E+00 0.  1.
         22    1    1    0    0    0 -0.24490843373E+02 -0.16298054636E+02 -0.12197308535E+01  0.29443432840E+02  0.00000000000E+00 0. -1.
</event>
<event>
 5    1  0.1325686E-009  0.9118800E+02  0.7818608E-02  0.1130116E+00
         25   -1    0    0    0    0  0.00000000000E+00  0.00000000000E+00  0.99999998245E-14  0.12500000000E+03  0.12500000000E+03 0.  0.
        -13    1    3    3    0    0 -0.29562992385E+02 -0.19807324823E+02  0.27869469076E+02  0.45199768871E+02  0.10566000000E+00 0.  1.
         23    2    1    0    0    0 -0.14565198194E+02  0.23956776089E+02  0.62017393232E+01  0.96285305335E+02  0.91903897273E+02 0.  0.
         13    1    3    3    0    0  0.14997794190E+02  0.43764100912E+02 -0.21667729753E+02  0.51085536465E+02  0.10566000000E+00 0. -1.
         22    1    1    0    0    0  0.14565198194E+02 -0.23956776089E+02 -0.62017393232E+01  0.28714694665E+02  0.00000000000E+00 0. -1.
</event>
<event>
 5    1  0.1325686E-009  0.9118800E+02  0.7818608E-02  0.1130116E+00
         25   -1    0    0    0    0  0.00000000000E+00  0.00000000000E+00  0.99999998245E-14  0.12500000000E+03  0.12500000000E+03 0.  0.
        -13    1    3    3    0    0 -0.34463612687E+01 -0.58927805775E+02 -0.15060586931E+01  0.59047803314E+02  0.10566000000E+00 0.  1.
         23    2    1    0    0    0 -0.53049293039E+01 -0.22450359131E+02  0.13199615101E+02  0.98421987681E+02  0.94765483802E+02 0.  0.
         13    1    3    3    0    0 -0.18585680352E+01  0.36477446644E+02  0.14705673794E+02  0.39374184367E+02  0.10566000000E+00 0. -1.
         22    1    1    0    0    0  0.53049293039E+01  0.22450359131E+02 -0.13199615101E+02  0.26578012319E+02  0.00000000000E+00 0.  1.
</event>
<event>
 5    1  0.1325686E-009  0.9118800E+02  0.7818608E-02  0.1130116E+00
         25   -1    0    0    0    0  0.00000000000E+00  0.00000000000E+00  0.99999998245E-14  0.12500000000E+03  0.12500000000E+03 0.  0.
        -13    1    3    3    0    0 -0.28060669439E+01  0.57905991591E+01  0.55250042701E+02  0.55623587018E+02  0.10566000000E+00 0. -1.
         23    2    1    0    0    0 -0.36438864695E+01  0.22395737634E+02  0.19379185238E+02  0.95160432422E+02  0.90360987741E+02 0.  0.
         13    1    3    3    0    0 -0.83781952552E+00  0.16605138475E+02 -0.35870857463E+02  0.39536845403E+02  0.10566000000E+00 0.  1.
         22    1    1    0    0    0  0.36438864695E+01 -0.22395737634E+02 -0.19379185238E+02  0.29839567578E+02  0.00000000000E+00 0. -1.
</event>
<event>
 5    1  0.1325686E-009  0.9118800E+02  0.7818608E-02  0.1130116E+00
         25   -1    0    0    0    0  0.00000000000E+00  0.00000000000E+00  0.99999998245E-14  0.12500000000E+03  0.12500000000E+03 0.  0.
        -13    1    3    3    0    0 -0.11601052834E+02  0.36593487150E+02 -0.15948077236E+02  0.41569460668E+02  0.10566000000E+00 0.  1.
         23    2    1    0    0    0 -0.20852856535E+02 -0.11901123437E+02  0.11847940606E+02  0.98225906899E+02  0.94506490385E+02 0.  0.
         13    1    3    3    0    0 -0.92518037014E+01 -0.48494610587E+02  0.27796017842E+02  0.56656446232E+02  0.10566000000E+00 0. -1.
         22    1    1    0    0    0  0.20852856535E+02  0.11901123437E+02 -0.11847940606E+02  0.26774093101E+02  0.00000000000E+00 0. -1.
</event>
<event>
 5    1  0.1325686E-009  0.9118800E+02  0.7818608E-02  0.1130116E+00
         25   -1    0    0    0    0  0.00000000000E+00  0.00000000000E+00  0.99999998245E-14  0.12500000000E+03  0.12500000000E+03 0.  0.
        -13    1    3    3    0    0  0.40073273108E+01 -0.46404497359E+02 -0.37113105140E+02  0.59555266639E+02  0.10566000000E+00 0.  1.
         23    2    1    0    0    0  0.14548997702E+02 -0.17122908177E+02 -0.19071500195E+02  0.95528158554E+02  0.90868254294E+02 0.  0.
         13    1    3    3    0    0  0.10541670391E+02  0.29281589182E+02  0.18041604945E+02  0.35972891915E+02  0.10566000000E+00 0. -1.
         22    1    1    0    0    0 -0.14548997702E+02  0.17122908177E+02  0.19071500195E+02  0.29471841446E+02  0.00000000000E+00 0.  1.
</event>
<event>
 5    1  0.1325686E-009  0.9118800E+02  0.7818608E-02  0.1130116E+00
         25   -1    0    0    0    0  0.00000000000E+00  0.00000000000E+00  0.99999998245E-14  0.12500000000E+03  0.12500000000E+03 0.  0.
        -13    1    3    3    0    0 -0.40071447368E+02 -0.42618380998E+02  0.13459173175E+02  0.60026725712E+02  0.10566000000E+00 0. -1.
         23    2    1    0    0    0 -0.17775095633E+02 -0.14692306533E+02  0.17584763762E+02  0.95999279102E+02  0.91514041412E+02 0.  0.
         13    1    3    3    0    0  0.22296351735E+02  0.27926074465E+02  0.41255905867E+01  0.35972553391E+02  0.10566000000E+00 0.  1.
         22    1    1    0    0    0  0.17775095633E+02  0.14692306533E+02 -0.17584763762E+02  0.29000720898E+02  0.00000000000E+00 0.  1.
</event>
<event>
 5    1  0.1325686E-009  0.9118800E+02  0.7818608E-02  0.1130116E+00
         25   -1    0    0    0    0  0.00000000000E+00  0.00000000000E+00  0.99999998245E-14  0.12500000000E+03  0.12500000000E+03 0.  0.
        -13    1    3    3    0    0 -0.35658789969E+02 -0.41985642805E+02  0.15667339135E+02  0.57269714364E+02  0.10566000000E+00 0.  1.
         23    2    1    0    0    0 -0.50096018593E+00 -0.27847747076E+02  0.88763164274E+01  0.95767535656E+02  0.91196951231E+02 0.  0.
         13    1    3    3    0    0  0.35157829784E+02  0.14137895728E+02 -0.67910227073E+01  0.38497821291E+02  0.10566000000E+00 0. -1.
         22    1    1    0    0    0  0.50096018593E+00  0.27847747076E+02 -0.88763164274E+01  0.29232464344E+02  0.00000000000E+00 0.  1.
</event>
<event>
 5    1  0.1325686E-009  0.9118800E+02  0.7818608E-02  0.1130116E+00
         25   -1    0    0    0    0  0.00000000000E+00  0.00000000000E+00  0.99999998245E-14  0.12500000000E+03  0.12500000000E+03 0.  0.
        -13    1    3    3    0    0  0.35949872426E+02 -0.10342509668E+02  0.47453518033E+02  0.60425229594E+02  0.10566000000E+00 0. -1.
         23    2    1    0    0    0  0.10310196939E+02  0.17642423513E+01  0.28784501362E+02  0.94373863603E+02  0.89266264068E+02 0.  0.
         13    1    3    3    0    0 -0.25639675487E+02  0.12106752020E+02 -0.18669016671E+02  0.33948634009E+02  0.10566000000E+00 0.  1.
         22    1    1    0    0    0 -0.10310196939E+02 -0.17642423513E+01 -0.28784501362E+02  0.30626136397E+02  0.00000000000E+00 0. -1.
</event>
<event>
 5    1  0.1325686E-009  0.9118800E+02  0.7818608E-02  0.1130116E+00
         25   -1    0    0    0    0  0.00000000000E+00  0.00000000000E+00  0.99999998245E-14  0.12500000000E+03  0.12500000000E+03 0.  0.
        -13    1    3    3    0    0 -0.19605146697E+02  0.12125137276E+02  0.25397897766E+02  0.34299345561E+02  0.10566000000E+00 0. -1.
         23    2    1    0    0    0  0.28453097989E+00 -0.49397217651E+01 -0.29476722348E+02  0.95110888782E+02  0.90292426014E+02 0.  0.
         13    1    3    3    0    0  0.19889677677E+02 -0.17064859041E+02 -0.54874620114E+02  0.60811543221E+02  0.10566000000E+00 0.  1.
         22    1    1    0    0    0 -0.28453097989E+00  0.49397217651E+01  0.29476722348E+02  0.29889111218E+02  0.00000000000E+00 0.  1.
</event>
<event>
 5    1  0.1325686E-009  0.9118800E+02  0.7818608E-02  0.1130116E+00
         25   -1    0    0    0    0  0.00000000000E+00  0.00000000000E+00  0.99999998245E-14  0.12500000000E+03  0.12500000000E+03 0.  0.
        -13    1    3    3    0    0  0.20756395350E+02  0.31411257664E+01  0.54333935490E+02  0.58248453447E+02  0.10566000000E+00 0.  1.
         23    2    1    0    0    0  0.22544975713E+02 -0.65970120027E+01  0.19474532155E+02  0.94486824158E+02  0.89424303406E+02 0.  0.
         13    1    3    3    0    0  0.17885803635E+01 -0.97381377691E+01 -0.34859403335E+02  0.36238370712E+02  0.10566000000E+00 0. -1.
         22    1    1    0    0    0 -0.22544975713E+02  0.65970120027E+01 -0.19474532155E+02  0.30513175842E+02  0.00000000000E+00 0.  1.
</event>
<event>
 5    1  0.1325686E-009  0.9118800E+02  0.7818608E-02  0.1130116E+00
         25   -1    0    0    0    0  0.00000000000E+00  0.00000000000E+00  0.99999998245E-14  0.12500000000E+03  0.12500000000E+03 0.  0.
        -13    1    3    3    0    0  0.53188004867E+02  0.85625604718E+00 -0.67545026884E+01  0.53622117701E+02  0.10566000000E+00 0. -1.
         23    2    1    0    0    0  0.24048877292E+02  0.23587512723E+02 -0.70706448174E+01  0.90580335946E+02  0.83785941460E+02 0.  0.
         13    1    3    3    0    0 -0.29139127575E+02  0.22731256676E+02 -0.31614212895E+00  0.36958218244E+02  0.10566000000E+00 0.  1.
         22    1    1    0    0    0 -0.24048877292E+02 -0.23587512723E+02  0.70706448174E+01  0.34419664054E+02  0.00000000000E+00 0. -1.
</event>
<event>
 5    1  0.1325686E-009  0.9118800E+02  0.7818608E-02  0.1130116E+00
         25   -1    0    0    0    0  0.00000000000E+00  0.00000000000E+00  0.99999998245E-14  0.12500000000E+03  0.12500000000E+03 0.  0.
        -13    1    3    3    0    0  0.24112308577E+02  0.13648787496E+02  0.20239949261E+02  0.34312673098E+02  0.10566000000E+00 0.  1.
         23    2    1    0    0    0 -0.15254461227E+02 -0.27052630558E+02  0.16956624508E+01  0.93896645220E+02  0.88595492577E+02 0.  0.
         13    1    3    3    0    0 -0.39366769804E+02 -0.40701418054E+02 -0.18544286810E+02  0.59583972121E+02  0.10566000000E+00 0. -1.
         22    1    1    0    0    0  0.15254461227E+02  0.27052630558E+02 -0.16956624508E+01  0.31103354780E+02  0.00000000000E+00 0. -1.
</event>
<event>
 5    1  0.1325686E-009  0.9118800E+02  0.7818608E-02  0.1130116E+00
         25   -1    0    0    0    0  0.00000000000E+00  0.00000000000E+00  0.99999998245E-14  0.12500000000E+03  0.12500000000E+03 0.  0.
        -13    1    3    3    0    0  0.58851283804E+01 -0.26928569230E+02  0.30859996678E+02  0.41377930540E+02  0.10566000000E+00 0.  1.
         23    2    1    0    0    0 -0.11591243530E+02  0.21970927536E+02  0.16225343666E+02  0.95329469832E+02  0.90594522229E+02 0.  0.
         13    1    3    3    0    0 -0.17476371910E+02  0.48899496766E+02 -0.14634653012E+02  0.53951539291E+02  0.10566000000E+00 0. -1.
         22    1    1    0    0    0  0.11591243530E+02 -0.21970927536E+02 -0.16225343666E+02  0.29670530168E+02  0.00000000000E+00 0. -1.
</event>
<event>
 5    1  0.1325686E-009  0.9118800E+02  0.7818608E-02  0.1130116E+00
         25   -1    0    0    0    0  0.00000000000E+00  0.00000000000E+00  0.99999998245E-14  0.12500000000E+03  0.12500000000E+03 0.  0.
        -13    1    3    3    0    0  0.15378779117E+02  0.36378573701E+02 -0.33678620755E+02  0.51905376712E+02  0.10566000000E+00 0. -1.
         23    2    1    0    0    0  0.13927829142E+02  0.25335983506E+02  0.79636048162E+01  0.95011410729E+02  0.90154604331E+02 0.  0.
         13    1    3    3    0    0 -0.14509499742E+01 -0.11042590195E+02  0.41642225572E+02  0.43106034016E+02  0.10566000000E+00 0.  1.
         22    1    1    0    0    0 -0.13927829142E+02 -0.25335983506E+02 -0.79636048162E+01  0.29988589271E+02  0.00000000000E+00 0.  1.
</event>
<event>
 5    1  0.1325686E-009  0.9118800E+02  0.7818608E-02  0.1130116E+00
         25   -1    0    0    0    0  0.00000000000E+00  0.00000000000E+00  0.99999998245E-14  0.12500000000E+03  0.12500000000E+03 0.  0.
        -13    1    3    3    0    0 -0.21899470724E+02 -0.35718109383E+02  0.29817187004E+02  0.51424176812E+02  0.10566000000E+00 0.  1.
         23    2    1    0    0    0 -0.26003168718E+02 -0.57817482494E+01 -0.53919326898E+01  0.97821583299E+02  0.93970185830E+02 0.  0.
         13    1    3    3    0    0 -0.41036979939E+01  0.29936361134E+02 -0.35209119694E+02  0.46397406488E+02  0.10566000000E+00 0. -1.
         22    1    1    0    0    0  0.26003168718E+02  0.57817482494E+01  0.53919326898E+01  0.27178416701E+02  0.00000000000E+00 0.  1.
</event>
<event>
 5    1  0.1325686E-009  0.9118800E+02  0.7818608E-02  0.1130116E+00
         25   -1    0    0    0    0  0.00000000000E+00  0.00000000000E+00  0.99999998245E-14  0.12500000000E+03  0.12500000000E+03 0.  0.
        -13    1    3    3    0    0  0.33158762978E+02 -0.14334524563E+02 -0.47874243767E+02  0.59974465709E+02  0.10566000000E+00 0. -1.
         23    2    1    0    0    0  0.18507337881E+02  0.54707280076E+01 -0.22851614130E+02  0.95089354926E+02  0.90262609820E+02 0.  0.
         13    1    3    3    0    0 -0.14651425097E+02  0.19805252571E+02  0.25022629637E+02  0.35114889217E+02  0.10566000000E+00 0.  1.
         22    1    1    0    0    0 -0.18507337881E+02 -0.54707280076E+01  0.22851614130E+02  0.29910645074E+02  0.00000000000E+00 0. -1.
</event>
<event>
 5    1  0.1325686E-009  0.9118800E+02  0.7818608E-02  0.1130116E+00
         25   -1    0    0    0    0  0.00000000000E+00  0.00000000000E+00  0.99999998245E-14  0.12500000000E+03  0.12500000000E+03 0.  0.
        -13    1    3    3    0    0 -0.30286968514E+02 -0.14778983686E+01 -0.10701466616E+02  0.32156137783E+02  0.10566000000E+00 0. -1.
         23    2    1    0    0    0  0.56505493055E+01  0.21817546383E+01  0.34473705573E+02  0.89998212378E+02  0.82912924774E+02 0.  0.
         13    1    3    3    0    0  0.35937517819E+02  0.36596530069E+01  0.45175172189E+02  0.57842074595E+02  0.10566000000E+00 0.  1.
         22    1    1    0    0    0 -0.56505493055E+01 -0.21817546383E+01 -0.34473705573E+02  0.35001787622E+02  0.00000000000E+00 0.  1.
</event>
<event>
 5    1  0.1325686E-009  0.9118800E+02  0.7818608E-02  0.1130116E+00
         25   -1    0    0    0    0  0.00000000000E+00  0.00000000000E+00  0.99999998245E-14  0.12500000000E+03  0.12500000000E+03 0.  0.
        -13    1    3    3    0    0 -0.20367632883E+02 -0.30190644665E+02 -0.43544746625E+02  0.56766817924E+02  0.10566000000E+00 0.  1.
         23    2    1    0    0    0 -0.22880115161E+02 -0.19779240097E+01 -0.26940272277E+02  0.89599574530E+02  0.82309742026E+02 0.  0.
         13    1    3    3    0    0 -0.25124822774E+01  0.28212720655E+02  0.16604474348E+02  0.32832756606E+02  0.10566000000E+00 0. -1.
         22    1    1    0    0    0  0.22880115161E+02  0.19779240097E+01  0.26940272277E+02  0.35400425470E+02  0.00000000000E+00 0.  1.
</event>
<event>
 5    1  0.1325686E-009  0.9118800E+02  0.7818608E-02  0.1130116E+00
         25   -1    0    0    0    0  0.00000000000E+00  0.00000000000E+00  0.99999998245E-14  0.12500000000E+03  0.12500000000E+03 0.  0.
        -13    1    3    3    0    0  0.16208652765E+01  0.24196140984E+02 -0.46907864525E+02  0.52805675463E+02  0.10566000000E+00 0.  1.
         23    2    1    0    0    0  0.22489285120E+02 -0.51221623341E+00 -0.20631066718E+02  0.94476710129E+02  0.89410164591E+02 0.  0.
         13    1    3    3    0    0  0.20868419843E+02 -0.24708357217E+02  0.26276797807E+02  0.41671034666E+02  0.10566000000E+00 0. -1.
         22    1    1    0    0    0 -0.22489285120E+02  0.51221623341E+00  0.20631066718E+02  0.30523289871E+02  0.00000000000E+00 0.  1.
</event>
<event>
 5    1  0.1325686E-009  0.9118800E+02  0.7818608E-02  0.1130116E+00
         25   -1    0    0    0    0  0.00000000000E+00  0.00000000000E+00  0.99999998245E-14  0.12500000000E+03  0.12500000000E+03 0.  0.
        -13    1    3    3    0    0  0.26440350139E+02  0.28525801859E+02 -0.70259312059E+01  0.39524528593E+02  0.10566000000E+00 0. -1.
         23    2    1    0    0    0  0.10331551565E+02 -0.23389947054E+02 -0.16312473780E+02  0.94669695324E+02  0.89679561946E+02 0.  0.
         13    1    3    3    0    0 -0.16108798573E+02 -0.51915748913E+02 -0.92865425738E+01  0.55145166730E+02  0.10566000000E+00 0.  1.
         22    1    1    0    0    0 -0.10331551565E+02  0.23389947054E+02  0.16312473780E+02  0.30330304676E+02  0.00000000000E+00 0.  1.
</event>
<event>
 5    1  0.1325686E-009  0.9118800E+02  0.7818608E-02  0.1130116E+00
         25   -1    0    0    0    0  0.00000000000E+00  0.00000000000E+00  0.99999998245E-14  0.12500000000E+03  0.12500000000E+03 0.  0.
        -13    1    3    3    0    0 -0.18567465564E+02  0.20599367961E+02 -0.26381435006E+02  0.38276311406E+02  0.10566000000E+00 0.  1.
         23    2    1    0    0    0  0.12621450939E+02 -0.24625301092E+02 -0.93168870482E+01  0.95802211352E+02  0.91244467437E+02 0.  0.
         13    1    3    3    0    0  0.31188916503E+02 -0.45224669053E+02  0.17064547957E+02  0.57525899946E+02  0.10566000000E+00 0. -1.
         22    1    1    0    0    0 -0.12621450939E+02  0.24625301092E+02  0.93168870482E+01  0.29197788648E+02  0.00000000000E+00 0. -1.
</event>
<event>
 5    1  0.1325686E-009  0.9118800E+02  0.7818608E-02  0.1130116E+00
         25   -1    0    0    0    0  0.00000000000E+00  0.00000000000E+00  0.99999998245E-14  0.12500000000E+03  0.12500000000E+03 0.  0.
        -13    1    3    3    0    0 -0.60870392631E+01  0.13698976507E+02 -0.33198940185E+02  0.36426567197E+02  0.10566000000E+00 0.  1.
         23    2    1    0    0    0  0.21284639474E+02 -0.18655527144E+02  0.80583119966E+01  0.95572105702E+02  0.90928688682E+02 0.  0.
         13    1    3    3    0    0  0.27371678737E+02 -0.32354503651E+02  0.41257252181E+02  0.59145538505E+02  0.10566000000E+00 0. -1.
         22    1    1    0    0    0 -0.21284639474E+02  0.18655527144E+02 -0.80583119966E+01  0.29427894298E+02  0.00000000000E+00 0. -1.
</event>
<event>
 5    1  0.1325686E-009  0.9118800E+02  0.7818608E-02  0.1130116E+00
         25   -1    0    0    0    0  0.00000000000E+00  0.00000000000E+00  0.99999998245E-14  0.12500000000E+03  0.12500000000E+03 0.  0.
        -13    1    3    3    0    0  0.36211030862E+02 -0.47503587203E+02  0.17775114944E+02  0.62320104529E+02  0.10566000000E+00 0. -1.
         23    2    1    0    0    0  0.15808193146E+02 -0.23615655067E+02  0.54658057619E+01  0.96060871343E+02  0.91598132273E+02 0.  0.
         13    1    3    3    0    0 -0.20402837716E+02  0.23887932136E+02 -0.12309309182E+02  0.33740766814E+02  0.10566000000E+00 0.  1.
         22    1    1    0    0    0 -0.15808193146E+02  0.23615655067E+02 -0.54658057619E+01  0.28939128657E+02  0.00000000000E+00 0. -1.
</event>
<event>
 5    1  0.1325686E-009  0.9118800E+02  0.7818608E-02  0.1130116E+00
         25   -1    0    0    0    0  0.00000000000E+00  0.00000000000E+00  0.99999998245E-14  0.12500000000E+03  0.12500000000E+03 0.  0.
        -13    1    3    3    0    0 -0.40895630252E+02  0.17168483044E+01  0.66884925822E+01  0.41474657791E+02  0.10566000000E+00 0. -1.
         23    2    1    0    0    0  0.22313330337E+01 -0.27003845227E+02 -0.10312924202E+02  0.96007881938E+02  0.91525791362E+02 0.  0.
         13    1    3    3    0    0  0.43126963286E+02 -0.28720693531E+02 -0.17001416785E+02  0.54533224147E+02  0.10566000000E+00 0.  1.
         22    1    1    0    0    0 -0.22313330337E+01  0.27003845227E+02  0.10312924202E+02  0.28992118062E+02  0.00000000000E+00 0.  1.
</event>
<event>
 5    1  0.1325686E-009  0.9118800E+02  0.7818608E-02  0.1130116E+00
         25   -1    0    0    0    0  0.00000000000E+00  0.00000000000E+00  0.99999998245E-14  0.12500000000E+03  0.12500000000E+03 0.  0.
        -13    1    3    3    0    0 -0.20824787870E+02 -0.21715138176E+01 -0.26788333450E+02  0.34000194634E+02  0.10566000000E+00 0. -1.
         23    2    1    0    0    0  0.11626524315E+02  0.18958029462E+02  0.20246521594E+02  0.94925017284E+02  0.90034739523E+02 0.  0.
         13    1    3    3    0    0  0.32451312185E+02  0.21129543279E+02  0.47034855044E+02  0.60924822649E+02  0.10566000000E+00 0.  1.
         22    1    1    0    0    0 -0.11626524315E+02 -0.18958029462E+02 -0.20246521594E+02  0.30074982716E+02  0.00000000000E+00 0.  1.
</event>
<event>
 5    1  0.1325686E-009  0.9118800E+02  0.7818608E-02  0.1130116E+00
         25   -1    0    0    0    0  0.00000000000E+00  0.00000000000E+00  0.99999998245E-14  0.12500000000E+03  0.12500000000E+03 0.  0.
        -13    1    3    3    0    0  0.15280805197E+02 -0.28720860189E+02 -0.39451671075E+02  0.51135470391E+02  0.10566000000E+00 0.  1.
         23    2    1    0    0    0  0.13127795644E+02  0.12396393428E+02 -0.23668789701E+02  0.95230532514E+02  0.90457908049E+02 0.  0.
         13    1    3    3    0    0 -0.21530095534E+01  0.41117253617E+02  0.15782881374E+02  0.44095062123E+02  0.10566000000E+00 0. -1.
         22    1    1    0    0    0 -0.13127795644E+02 -0.12396393428E+02  0.23668789701E+02  0.29769467486E+02  0.00000000000E+00 0.  1.
</event>
<event>
 5    1  0.1325686E-009  0.9118800E+02  0.7818608E-02  0.1130116E+00
         25   -1    0    0    0    0  0.00000000000E+00  0.00000000000E+00  0.99999998245E-14  0.12500000000E+03  0.12500000000E+03 0.  0.
        -13    1    3    3    0    0  0.19321013912E+02 -0.19445995420E+02 -0.45784156530E+02  0.53363362615E+02  0.10566000000E+00 0. -1.
         23    2    1    0    0    0  0.24016681654E+02 -0.14847047455E+02 -0.30497255415E+01  0.96600411241E+02  0.92331483310E+02 0.  0.
         13    1    3    3    0    0  0.46956677423E+01  0.45989479649E+01  0.42734430988E+02  0.43237048626E+02  0.10566000000E+00 0.  1.
         22    1    1    0    0    0 -0.24016681654E+02  0.14847047455E+02  0.30497255415E+01  0.28399588759E+02  0.00000000000E+00 0. -1.
</event>
<event>
 5    1  0.1325686E-009  0.9118800E+02  0.7818608E-02  0.1130116E+00
         25   -1    0    0    0    0  0.00000000000E+00  0.00000000000E+00  0.99999998245E-14  0.12500000000E+03  0.12500000000E+03 0.  0.
        -13    1    3    3    0    0  0.83668517894E+01  0.23091850227E+01 -0.49902325685E+02  0.50651651673E+02  0.10566000000E+00 0. -1.
         23    2    1    0    0    0 -0.16023123916E+02  0.18807494081E+02 -0.15963291209E+02  0.95584204926E+02  0.90945320008E+02 0.  0.
         13    1    3    3    0    0 -0.24389975705E+02  0.16498309058E+02  0.33939034476E+02  0.44932553253E+02  0.10566000000E+00 0.  1.
         22    1    1    0    0    0  0.16023123916E+02 -0.18807494081E+02  0.15963291209E+02  0.29415795074E+02  0.00000000000E+00 0.  1.
</event>
<event>
 5    1  0.1325686E-009  0.9118800E+02  0.7818608E-02  0.1130116E+00
         25   -1    0    0    0    0  0.00000000000E+00  0.00000000000E+00  0.99999998245E-14  0.12500000000E+03  0.12500000000E+03 0.  0.
        -13    1    3    3    0    0 -0.96996926100E+01  0.16205049424E+02  0.32182955136E+02  0.37315431512E+02  0.10566000000E+00 0. -1.
         23    2    1    0    0    0 -0.62797032374E+01  0.66280088198E+01 -0.26550789298E+02  0.96923148574E+02  0.92767381894E+02 0.  0.
         13    1    3    3    0    0  0.34199893725E+01 -0.95770406037E+01 -0.58733744434E+02  0.59607717062E+02  0.10566000000E+00 0.  1.
         22    1    1    0    0    0  0.62797032374E+01 -0.66280088198E+01  0.26550789298E+02  0.28076851426E+02  0.00000000000E+00 0.  1.
</event>
<event>
 5    1  0.1325686E-009  0.9118800E+02  0.7818608E-02  0.1130116E+00
         25   -1    0    0    0    0  0.00000000000E+00  0.00000000000E+00  0.99999998245E-14  0.12500000000E+03  0.12500000000E+03 0.  0.
        -13    1    3    3    0    0  0.20466321053E+02 -0.48209126777E+02 -0.20799668189E+02  0.56352706793E+02  0.10566000000E+00 0.  1.
         23    2    1    0    0    0  0.24683656319E+02 -0.15384101719E+02  0.85401299988E+00  0.95902185423E+02  0.91381323889E+02 0.  0.
         13    1    3    3    0    0  0.42173352655E+01  0.32825025059E+02  0.21653681189E+02  0.39549478630E+02  0.10566000000E+00 0. -1.
         22    1    1    0    0    0 -0.24683656319E+02  0.15384101719E+02 -0.85401299988E+00  0.29097814577E+02  0.00000000000E+00 0.  1.
</event>
<event>
 5    1  0.1325686E-009  0.9118800E+02  0.7818608E-02  0.1130116E+00
         25   -1    0    0    0    0  0.00000000000E+00  0.00000000000E+00  0.99999998245E-14  0.12500000000E+03  0.12500000000E+03 0.  0.
        -13    1    3    3    0    0 -0.16422167032E+02  0.14636178117E+02  0.35790927316E+02  0.42010795304E+02  0.10566000000E+00 0.  1.
         23    2    1    0    0    0  0.20857594872E+02 -0.16183475230E+02  0.10550539236E+02  0.96570121130E+02  0.92290466910E+02 0.  0.
         13    1    3    3    0    0  0.37279761905E+02 -0.30819653347E+02 -0.25240388080E+02  0.54559325826E+02  0.10566000000E+00 0. -1.
         22    1    1    0    0    0 -0.20857594872E+02  0.16183475230E+02 -0.10550539236E+02  0.28429878870E+02  0.00000000000E+00 0. -1.
</event>
<event>
 5    1  0.1325686E-009  0.9118800E+02  0.7818608E-02  0.1130116E+00
         25   -1    0    0    0    0  0.00000000000E+00  0.00000000000E+00  0.99999998245E-14  0.12500000000E+03  0.12500000000E+03 0.  0.
        -13    1    3    3    0    0 -0.22408640513E+02 -0.11134385143E+02  0.50222078217E+02  0.56110516008E+02  0.10566000000E+00 0.  1.
         23    2    1    0    0    0 -0.51442041111E+01 -0.23562669996E+02  0.17254454180E+02  0.95345684255E+02  0.90616891713E+02 0.  0.
         13    1    3    3    0    0  0.17264436402E+02 -0.12428284853E+02 -0.32967624037E+02  0.39235168247E+02  0.10566000000E+00 0. -1.
         22    1    1    0    0    0  0.51442041111E+01  0.23562669996E+02 -0.17254454180E+02  0.29654315745E+02  0.00000000000E+00 0.  1.
</event>
<event>
 5    1  0.1325686E-009  0.9118800E+02  0.7818608E-02  0.1130116E+00
         25   -1    0    0    0    0  0.00000000000E+00  0.00000000000E+00  0.99999998245E-14  0.12500000000E+03  0.12500000000E+03 0.  0.
        -13    1    3    3    0    0 -0.28508806877E+02  0.43253339940E+02 -0.19297308578E+02  0.55281106790E+02  0.10566000000E+00 0. -1.
         23    2    1    0    0    0 -0.27050556803E+02  0.99655557723E+01  0.39407801985E+01  0.95904043686E+02  0.91383865762E+02 0.  0.
         13    1    3    3    0    0  0.14582500731E+01 -0.33287784168E+02  0.23238088777E+02  0.40622936897E+02  0.10566000000E+00 0.  1.
         22    1    1    0    0    0  0.27050556803E+02 -0.99655557723E+01 -0.39407801985E+01  0.29095956314E+02  0.00000000000E+00 0. -1.
</event>
<event>
 5    1  0.1325686E-009  0.9118800E+02  0.7818608E-02  0.1130116E+00
         25   -1    0    0    0    0  0.00000000000E+00  0.00000000000E+00  0.99999998245E-14  0.12500000000E+03  0.12500000000E+03 0.  0.
        -13    1    3    3    0    0 -0.80001198010E+01  0.54734528736E+02 -0.17786056514E+02  0.58105296860E+02  0.10566000000E+00 0. -1.
         23    2    1    0    0    0  0.77300721190E+01  0.27269806945E+02  0.37799438465E+01  0.96404819266E+02  0.92066306629E+02 0.  0.
         13    1    3    3    0    0  0.15730191920E+02 -0.27464721791E+02  0.21566000361E+02  0.38299522406E+02  0.10566000000E+00 0.  1.
         22    1    1    0    0    0 -0.77300721190E+01 -0.27269806945E+02 -0.37799438465E+01  0.28595180734E+02  0.00000000000E+00 0. -1.
</event>
<event>
 4    1  0.1325686E-009  0.9118800E+02  0.7818608E-02  0.1130116E+00
         25   -1    0    0    0    0  0.00000000000E+00  0.00000000000E+00  0.99999998245E-14  0.12500000000E+03  0.12500000000E+03 0.  0.
        -13    1    1    0    0    0  0.36299617071E+02  0.17727614382E+02  0.30231858753E+02  0.50456981270E+02  0.10566000000E+00 0. -1.
         13    1    1    0    0    0  0.12627828235E+02 -0.14302029583E+02 -0.90640464421E+01  0.21122930622E+02  0.10566000000E+00 0.  1.
         22    1    1    0    0    0 -0.48927445306E+02 -0.34255847995E+01 -0.21167812311E+02  0.53420088108E+02  0.00000000000E+00 0. -1.
</event>
<event>
 5    1  0.1325686E-009  0.9118800E+02  0.7818608E-02  0.1130116E+00
         25   -1    0    0    0    0  0.00000000000E+00  0.00000000000E+00  0.99999998245E-14  0.12500000000E+03  0.12500000000E+03 0.  0.
        -13    1    3    3    0    0  0.15639642894E+02  0.21147431102E+02 -0.16430737078E+02  0.31012780543E+02  0.10566000000E+00 0. -1.
         23    2    1    0    0    0 -0.77266103880E+01 -0.32792386479E+02 -0.76976932717E+01  0.90441417842E+02  0.83578432986E+02 0.  0.
         13    1    3    3    0    0 -0.23366253282E+02 -0.53939817581E+02  0.87330438059E+01  0.59428637299E+02  0.10566000000E+00 0.  1.
         22    1    1    0    0    0  0.77266103880E+01  0.32792386479E+02  0.76976932717E+01  0.34558582158E+02  0.00000000000E+00 0.  1.
</event>
<event>
 5    1  0.1325686E-009  0.9118800E+02  0.7818608E-02  0.1130116E+00
         25   -1    0    0    0    0  0.00000000000E+00  0.00000000000E+00  0.99999998245E-14  0.12500000000E+03  0.12500000000E+03 0.  0.
        -13    1    3    3    0    0  0.31961210548E+02 -0.33339491745E+01 -0.14182395419E+02  0.35125285773E+02  0.10566000000E+00 0.  1.
         23    2    1    0    0    0 -0.25928459361E+02  0.12150416690E+02 -0.18492297946E+01  0.96306145581E+02  0.91932238063E+02 0.  0.
         13    1    3    3    0    0 -0.57889669909E+02  0.15484365864E+02  0.12333165625E+02  0.61180859808E+02  0.10566000000E+00 0. -1.
         22    1    1    0    0    0  0.25928459361E+02 -0.12150416690E+02  0.18492297946E+01  0.28693854419E+02  0.00000000000E+00 0. -1.
</event>
<event>
 5    1  0.1325686E-009  0.9118800E+02  0.7818608E-02  0.1130116E+00
         25   -1    0    0    0    0  0.00000000000E+00  0.00000000000E+00  0.99999998245E-14  0.12500000000E+03  0.12500000000E+03 0.  0.
        -13    1    3    3    0    0 -0.14169011760E+02 -0.21033968044E+02 -0.22992488644E+02  0.34232359019E+02  0.10566000000E+00 0.  1.
         23    2    1    0    0    0 -0.74613107098E+01  0.13031234638E+02  0.26412764138E+02  0.94617137346E+02  0.89606273979E+02 0.  0.
         13    1    3    3    0    0  0.67077010497E+01  0.34065202682E+02  0.49405252781E+02  0.60384778327E+02  0.10566000000E+00 0. -1.
         22    1    1    0    0    0  0.74613107098E+01 -0.13031234638E+02 -0.26412764138E+02  0.30382862654E+02  0.00000000000E+00 0. -1.
</event>
<event>
 5    1  0.1325686E-009  0.9118800E+02  0.7818608E-02  0.1130116E+00
         25   -1    0    0    0    0  0.00000000000E+00  0.00000000000E+00  0.99999998245E-14  0.12500000000E+03  0.12500000000E+03 0.  0.
        -13    1    3    3    0    0  0.17049703921E+02  0.26802583970E+02  0.19112689691E+02  0.37072590718E+02  0.10566000000E+00 0. -1.
         23    2    1    0    0    0 -0.16419934286E+02 -0.20692523609E+02  0.13181580093E+02  0.95477994156E+02  0.90799221027E+02 0.  0.
         13    1    3    3    0    0 -0.33469638208E+02 -0.47495107579E+02 -0.59311095981E+01  0.58405403439E+02  0.10566000000E+00 0.  1.
         22    1    1    0    0    0  0.16419934286E+02  0.20692523609E+02 -0.13181580093E+02  0.29522005844E+02  0.00000000000E+00 0.  1.
</event>
<event>
 5    1  0.1325686E-009  0.9118800E+02  0.7818608E-02  0.1130116E+00
         25   -1    0    0    0    0  0.00000000000E+00  0.00000000000E+00  0.99999998245E-14  0.12500000000E+03  0.12500000000E+03 0.  0.
        -13    1    3    3    0    0  0.87246004541E+01  0.19755478192E+02  0.30867578314E+02  0.37672485008E+02  0.10566000000E+00 0.  1.
         23    2    1    0    0    0  0.85925287839E+01 -0.27107486777E+02 -0.42684299667E+01  0.96244706841E+02  0.91848661995E+02 0.  0.
         13    1    3    3    0    0 -0.13207167013E+00 -0.46862964969E+02 -0.35136008280E+02  0.58572221833E+02  0.10566000000E+00 0. -1.
         22    1    1    0    0    0 -0.85925287839E+01  0.27107486777E+02  0.42684299667E+01  0.28755293159E+02  0.00000000000E+00 0. -1.
</event>
<event>
 5    1  0.1325686E-009  0.9118800E+02  0.7818608E-02  0.1130116E+00
         25   -1    0    0    0    0  0.00000000000E+00  0.00000000000E+00  0.99999998245E-14  0.12500000000E+03  0.12500000000E+03 0.  0.
        -13    1    3    3    0    0 -0.37330172035E+02 -0.14708624067E+02 -0.52647519039E+01  0.40467445468E+02  0.10566000000E+00 0. -1.
         23    2    1    0    0    0  0.16486337434E+02 -0.23332774648E+02  0.51860385818E+01  0.95963597141E+02  0.91465290058E+02 0.  0.
         13    1    3    3    0    0  0.53816509469E+02 -0.86241505816E+01  0.10450790486E+02  0.55496151673E+02  0.10566000000E+00 0.  1.
         22    1    1    0    0    0 -0.16486337434E+02  0.23332774648E+02 -0.51860385818E+01  0.29036402859E+02  0.00000000000E+00 0.  1.
</event>
<event>
 5    1  0.1325686E-009  0.9118800E+02  0.7818608E-02  0.1130116E+00
         25   -1    0    0    0    0  0.00000000000E+00  0.00000000000E+00  0.99999998245E-14  0.12500000000E+03  0.12500000000E+03 0.  0.
        -13    1    3    3    0    0  0.99654454465E+01 -0.13844316392E+02 -0.58143249957E+02  0.60593926089E+02  0.10566000000E+00 0. -1.
         23    2    1    0    0    0  0.15151172107E+02 -0.65778755132E+01 -0.24137980340E+02  0.95751605901E+02  0.91175114342E+02 0.  0.
         13    1    3    3    0    0  0.51857266604E+01  0.72664408784E+01  0.34005269617E+02  0.35157679812E+02  0.10566000000E+00 0.  1.
         22    1    1    0    0    0 -0.15151172107E+02  0.65778755132E+01  0.24137980340E+02  0.29248394099E+02  0.00000000000E+00 0. -1.
</event>
<event>
 5    1  0.1325686E-009  0.9118800E+02  0.7818608E-02  0.1130116E+00
         25   -1    0    0    0    0  0.00000000000E+00  0.00000000000E+00  0.99999998245E-14  0.12500000000E+03  0.12500000000E+03 0.  0.
        -13    1    3    3    0    0  0.40689498358E+02 -0.73419157717E+01  0.24746190589E+02  0.48186347823E+02  0.10566000000E+00 0. -1.
         23    2    1    0    0    0  0.16672092317E+02 -0.16944830044E+02 -0.15925850283E+02  0.96386740230E+02  0.92041757140E+02 0.  0.
         13    1    3    3    0    0 -0.24017406041E+02 -0.96029142720E+01 -0.40672040872E+02  0.48200392407E+02  0.10566000000E+00 0.  1.
         22    1    1    0    0    0 -0.16672092317E+02  0.16944830044E+02  0.15925850283E+02  0.28613259770E+02  0.00000000000E+00 0. -1.
</event>
<event>
 5    1  0.1325686E-009  0.9118800E+02  0.7818608E-02  0.1130116E+00
         25   -1    0    0    0    0  0.00000000000E+00  0.00000000000E+00  0.99999998245E-14  0.12500000000E+03  0.12500000000E+03 0.  0.
        -13    1    3    3    0    0 -0.37166056126E+02 -0.12352523882E+01  0.28373345041E+02  0.46774987432E+02  0.10566000000E+00 0. -1.
         23    2    1    0    0    0 -0.12243880182E+02  0.25516764359E+02 -0.49778058331E+01  0.96263326285E+02  0.91873998342E+02 0.  0.
         13    1    3    3    0    0  0.24922175943E+02  0.26752016747E+02 -0.33351150874E+02  0.49488338853E+02  0.10566000000E+00 0.  1.
         22    1    1    0    0    0  0.12243880182E+02 -0.25516764359E+02  0.49778058331E+01  0.28736673715E+02  0.00000000000E+00 0.  1.
</event>
<event>
 5    1  0.1325686E-009  0.9118800E+02  0.7818608E-02  0.1130116E+00
         25   -1    0    0    0    0  0.00000000000E+00  0.00000000000E+00  0.99999998245E-14  0.12500000000E+03  0.12500000000E+03 0.  0.
        -13    1    3    3    0    0  0.10097707962E+02 -0.35069763349E+01 -0.36630246025E+02  0.38158205894E+02  0.10566000000E+00 0.  1.
         23    2    1    0    0    0  0.18355888672E+02  0.20365741739E+01  0.21226470461E+02  0.96863736361E+02  0.92687291957E+02 0.  0.
         13    1    3    3    0    0  0.82581807104E+01  0.55435505088E+01  0.57856716486E+02  0.58705530468E+02  0.10566000000E+00 0. -1.
         22    1    1    0    0    0 -0.18355888672E+02 -0.20365741739E+01 -0.21226470461E+02  0.28136263639E+02  0.00000000000E+00 0. -1.
</event>
<event>
 5    1  0.1325686E-009  0.9118800E+02  0.7818608E-02  0.1130116E+00
         25   -1    0    0    0    0  0.00000000000E+00  0.00000000000E+00  0.99999998245E-14  0.12500000000E+03  0.12500000000E+03 0.  0.
        -13    1    3    3    0    0 -0.40845633881E+02 -0.16273586359E+02 -0.10857901683E+02  0.45289078298E+02  0.10566000000E+00 0.  1.
         23    2    1    0    0    0 -0.23866937498E+02  0.24420391591E+02  0.60252307257E+00  0.90848144046E+02  0.84184535466E+02 0.  0.
         13    1    3    3    0    0  0.16978696382E+02  0.40693977950E+02  0.11460424755E+02  0.45559065748E+02  0.10566000000E+00 0. -1.
         22    1    1    0    0    0  0.23866937498E+02 -0.24420391591E+02 -0.60252307257E+00  0.34151855954E+02  0.00000000000E+00 0.  1.
</event>
<event>
 5    1  0.1325686E-009  0.9118800E+02  0.7818608E-02  0.1130116E+00
         25   -1    0    0    0    0  0.00000000000E+00  0.00000000000E+00  0.99999998245E-14  0.12500000000E+03  0.12500000000E+03 0.  0.
        -13    1    3    3    0    0  0.16737948034E+02  0.56132619158E+02 -0.64018106534E+01  0.58923884644E+02  0.10566000000E+00 0. -1.
         23    2    1    0    0    0 -0.64350574772E+01  0.25845418070E+02 -0.82875028885E+01  0.97105945005E+02  0.93013365982E+02 0.  0.
         13    1    3    3    0    0 -0.23173005511E+02 -0.30287201088E+02 -0.18856922350E+01  0.38182060361E+02  0.10566000000E+00 0.  1.
         22    1    1    0    0    0  0.64350574772E+01 -0.25845418070E+02  0.82875028885E+01  0.27894054995E+02  0.00000000000E+00 0. -1.
</event>
<event>
 5    1  0.1325686E-009  0.9118800E+02  0.7818608E-02  0.1130116E+00
         25   -1    0    0    0    0  0.00000000000E+00  0.00000000000E+00  0.99999998245E-14  0.12500000000E+03  0.12500000000E+03 0.  0.
        -13    1    3    3    0    0  0.10836805654E+02  0.47356048225E+02  0.12603457079E+02  0.50188544058E+02  0.10566000000E+00 0.  1.
         23    2    1    0    0    0  0.20089786865E+02  0.24762701769E+01  0.19928831466E+02  0.96594194715E+02  0.92323066883E+02 0.  0.
         13    1    3    3    0    0  0.92529812115E+01 -0.44879778048E+02  0.73253743879E+01  0.46405650657E+02  0.10566000000E+00 0. -1.
         22    1    1    0    0    0 -0.20089786865E+02 -0.24762701769E+01 -0.19928831466E+02  0.28405805285E+02  0.00000000000E+00 0.  1.
</event>
<event>
 5    1  0.1325686E-009  0.9118800E+02  0.7818608E-02  0.1130116E+00
         25   -1    0    0    0    0  0.00000000000E+00  0.00000000000E+00  0.99999998245E-14  0.12500000000E+03  0.12500000000E+03 0.  0.
        -13    1    3    3    0    0  0.42676683122E+02  0.43562468272E+01  0.17341595852E+02  0.46271138731E+02  0.10566000000E+00 0. -1.
         23    2    1    0    0    0 -0.51341896075E+01 -0.78947503204E+01  0.26860629454E+02  0.96536331927E+02  0.92244690805E+02 0.  0.
         13    1    3    3    0    0 -0.47810872730E+02 -0.12250997148E+02  0.95190336019E+01  0.50265193196E+02  0.10566000000E+00 0.  1.
         22    1    1    0    0    0  0.51341896075E+01  0.78947503204E+01 -0.26860629454E+02  0.28463668073E+02  0.00000000000E+00 0.  1.
</event>
<event>
 5    1  0.1325686E-009  0.9118800E+02  0.7818608E-02  0.1130116E+00
         25   -1    0    0    0    0  0.00000000000E+00  0.00000000000E+00  0.99999998245E-14  0.12500000000E+03  0.12500000000E+03 0.  0.
        -13    1    3    3    0    0 -0.58155067508E+01  0.25089793534E+02 -0.30652410498E+02  0.40036224743E+02  0.10566000000E+00 0.  1.
         23    2    1    0    0    0  0.10807337358E+01  0.10590378023E+02  0.24930530104E+02  0.97891783103E+02  0.94063519898E+02 0.  0.
         13    1    3    3    0    0  0.68962404866E+01 -0.14499415510E+02  0.55582940602E+02  0.57855558359E+02  0.10566000000E+00 0. -1.
         22    1    1    0    0    0 -0.10807337358E+01 -0.10590378023E+02 -0.24930530104E+02  0.27108216897E+02  0.00000000000E+00 0. -1.
</event>
<event>
 5    1  0.1325686E-009  0.9118800E+02  0.7818608E-02  0.1130116E+00
         25   -1    0    0    0    0  0.00000000000E+00  0.00000000000E+00  0.99999998245E-14  0.12500000000E+03  0.12500000000E+03 0.  0.
        -13    1    3    3    0    0 -0.26426593322E+02 -0.74443450259E+00  0.50919089970E+02  0.57373198488E+02  0.10566000000E+00 0.  1.
         23    2    1    0    0    0 -0.16100008444E+02  0.17169636130E+02  0.30926267936E+02  0.86135611092E+02  0.76869387750E+02 0.  0.
         13    1    3    3    0    0  0.10326584878E+02  0.17914070633E+02 -0.19992822034E+02  0.28762412604E+02  0.10566000000E+00 0. -1.
         22    1    1    0    0    0  0.16100008444E+02 -0.17169636130E+02 -0.30926267936E+02  0.38864388908E+02  0.00000000000E+00 0. -1.
</event>
<event>
 5    1  0.1325686E-009  0.9118800E+02  0.7818608E-02  0.1130116E+00
         25   -1    0    0    0    0  0.00000000000E+00  0.00000000000E+00  0.99999998245E-14  0.12500000000E+03  0.12500000000E+03 0.  0.
        -13    1    3    3    0    0 -0.13893755078E+02  0.38859501291E+02 -0.38687703911E+02  0.56567188977E+02  0.10566000000E+00 0.  1.
         23    2    1    0    0    0 -0.23392248740E+02  0.89713087762E+01 -0.16030597619E+02  0.95256736186E+02  0.90494110562E+02 0.  0.
         13    1    3    3    0    0 -0.94984936624E+01 -0.29888192515E+02  0.22657106292E+02  0.38689547209E+02  0.10566000000E+00 0. -1.
         22    1    1    0    0    0  0.23392248740E+02 -0.89713087762E+01  0.16030597619E+02  0.29743263814E+02  0.00000000000E+00 0.  1.
</event>
<event>
 5    1  0.1325686E-009  0.9118800E+02  0.7818608E-02  0.1130116E+00
         25   -1    0    0    0    0  0.00000000000E+00  0.00000000000E+00  0.99999998245E-14  0.12500000000E+03  0.12500000000E+03 0.  0.
        -13    1    3    3    0    0  0.22745752760E+02 -0.31156286872E+02 -0.15852139001E+02  0.41705934293E+02  0.10566000000E+00 0. -1.
         23    2    1    0    0    0 -0.21602445265E+02  0.19895860423E-01 -0.19308635896E+02  0.96026055543E+02  0.91550608330E+02 0.  0.
         13    1    3    3    0    0 -0.44348198025E+02  0.31176182732E+02 -0.34564968951E+01  0.54320121250E+02  0.10566000000E+00 0.  1.
         22    1    1    0    0    0  0.21602445265E+02 -0.19895860423E-01  0.19308635896E+02  0.28973944457E+02  0.00000000000E+00 0.  1.
</event>
<event>
 5    1  0.1325686E-009  0.9118800E+02  0.7818608E-02  0.1130116E+00
         25   -1    0    0    0    0  0.00000000000E+00  0.00000000000E+00  0.99999998245E-14  0.12500000000E+03  0.12500000000E+03 0.  0.
        -13    1    3    3    0    0  0.18207631472E+02  0.35971879370E+02 -0.10180727667E+02  0.41583077437E+02  0.10566000000E+00 0.  1.
         23    2    1    0    0    0  0.11251550453E+02 -0.16458512271E+02 -0.21508650152E+02  0.95672503599E+02  0.91066601451E+02 0.  0.
         13    1    3    3    0    0 -0.69560810186E+01 -0.52430391641E+02 -0.11327922485E+02  0.54089426163E+02  0.10566000000E+00 0. -1.
         22    1    1    0    0    0 -0.11251550453E+02  0.16458512271E+02  0.21508650152E+02  0.29327496401E+02  0.00000000000E+00 0. -1.
</event>
<event>
 5    1  0.1325686E-009  0.9118800E+02  0.7818608E-02  0.1130116E+00
         25   -1    0    0    0    0  0.00000000000E+00  0.00000000000E+00  0.99999998245E-14  0.12500000000E+03  0.12500000000E+03 0.  0.
        -13    1    3    3    0    0  0.14927019176E+02 -0.29174733926E+02  0.17025996633E+02  0.36930701680E+02  0.10566000000E+00 0.  1.
         23    2    1    0    0    0 -0.32129917305E+01  0.25180936511E+02 -0.63736155891E+01  0.98827001412E+02  0.95298217995E+02 0.  0.
         13    1    3    3    0    0 -0.18140010906E+02  0.54355670437E+02 -0.23399612222E+02  0.61896299732E+02  0.10566000000E+00 0. -1.
         22    1    1    0    0    0  0.32129917305E+01 -0.25180936511E+02  0.63736155891E+01  0.26172998588E+02  0.00000000000E+00 0. -1.
</event>
<event>
 5    1  0.1325686E-009  0.9118800E+02  0.7818608E-02  0.1130116E+00
         25   -1    0    0    0    0  0.00000000000E+00  0.00000000000E+00  0.99999998245E-14  0.12500000000E+03  0.12500000000E+03 0.  0.
        -13    1    3    3    0    0  0.10989731429E+02  0.46529749251E+02 -0.74521725290E+01  0.48387372337E+02  0.10566000000E+00 0.  1.
         23    2    1    0    0    0 -0.23146087025E+02  0.20072191589E+02 -0.12582399838E+02  0.91879749315E+02  0.85702609813E+02 0.  0.
         13    1    3    3    0    0 -0.34135818454E+02 -0.26457557661E+02 -0.51302273094E+01  0.43492376978E+02  0.10566000000E+00 0. -1.
         22    1    1    0    0    0  0.23146087025E+02 -0.20072191589E+02  0.12582399838E+02  0.33120250685E+02  0.00000000000E+00 0.  1.
</event>
<event>
 5    1  0.1325686E-009  0.9118800E+02  0.7818608E-02  0.1130116E+00
         25   -1    0    0    0    0  0.00000000000E+00  0.00000000000E+00  0.99999998245E-14  0.12500000000E+03  0.12500000000E+03 0.  0.
        -13    1    3    3    0    0  0.50140840858E+02 -0.67891221973E+01  0.34318234447E+02  0.61138764149E+02  0.10566000000E+00 0. -1.
         23    2    1    0    0    0  0.19931759217E+02 -0.10873109685E+02  0.19671252953E+02  0.94959065719E+02  0.90081998367E+02 0.  0.
         13    1    3    3    0    0 -0.30209081641E+02 -0.40839874881E+01 -0.14646981494E+02  0.33820301570E+02  0.10566000000E+00 0.  1.
         22    1    1    0    0    0 -0.19931759217E+02  0.10873109685E+02 -0.19671252953E+02  0.30040934281E+02  0.00000000000E+00 0. -1.
</event>
<event>
 5    1  0.1325686E-009  0.9118800E+02  0.7818608E-02  0.1130116E+00
         25   -1    0    0    0    0  0.00000000000E+00  0.00000000000E+00  0.99999998245E-14  0.12500000000E+03  0.12500000000E+03 0.  0.
        -13    1    3    3    0    0  0.87553929970E+00  0.26389174591E+02 -0.44494996752E+02  0.51739453077E+02  0.10566000000E+00 0.  1.
         23    2    1    0    0    0  0.61274688939E+01 -0.11385433702E+02 -0.29629470486E+02  0.92672310678E+02  0.86850893314E+02 0.  0.
         13    1    3    3    0    0  0.52519295942E+01 -0.37774608293E+02  0.14865526266E+02  0.40932857601E+02  0.10566000000E+00 0. -1.
         22    1    1    0    0    0 -0.61274688939E+01  0.11385433702E+02  0.29629470486E+02  0.32327689322E+02  0.00000000000E+00 0.  1.
</event>
<event>
 5    1  0.1325686E-009  0.9118800E+02  0.7818608E-02  0.1130116E+00
         25   -1    0    0    0    0  0.00000000000E+00  0.00000000000E+00  0.99999998245E-14  0.12500000000E+03  0.12500000000E+03 0.  0.
        -13    1    3    3    0    0 -0.20647318083E+02  0.16425320247E+02  0.22361350520E+02  0.34585315531E+02  0.10566000000E+00 0. -1.
         23    2    1    0    0    0  0.49334632741E+01 -0.57582769593E+01 -0.28400942360E+02  0.95604246219E+02  0.90972861639E+02 0.  0.
         13    1    3    3    0    0  0.25580781357E+02 -0.22183597206E+02 -0.50762292880E+02  0.61018930688E+02  0.10566000000E+00 0.  1.
         22    1    1    0    0    0 -0.49334632741E+01  0.57582769593E+01  0.28400942360E+02  0.29395753781E+02  0.00000000000E+00 0.  1.
</event>
<event>
 5    1  0.1325686E-009  0.9118800E+02  0.7818608E-02  0.1130116E+00
         25   -1    0    0    0    0  0.00000000000E+00  0.00000000000E+00  0.99999998245E-14  0.12500000000E+03  0.12500000000E+03 0.  0.
        -13    1    3    3    0    0  0.31463962540E+02  0.11410976838E+02  0.36615484039E+02  0.49607420479E+02  0.10566000000E+00 0.  1.
         23    2    1    0    0    0  0.45438936963E+01  0.26856843124E+02 -0.20116728717E+00  0.97760736779E+02  0.93889212346E+02 0.  0.
         13    1    3    3    0    0 -0.26920068844E+02  0.15445866286E+02 -0.36816651326E+02  0.48153316301E+02  0.10566000000E+00 0. -1.
         22    1    1    0    0    0 -0.45438936963E+01 -0.26856843124E+02  0.20116728717E+00  0.27239263221E+02  0.00000000000E+00 0. -1.
</event>
<event>
 5    1  0.1325686E-009  0.9118800E+02  0.7818608E-02  0.1130116E+00
         25   -1    0    0    0    0  0.00000000000E+00  0.00000000000E+00  0.99999998245E-14  0.12500000000E+03  0.12500000000E+03 0.  0.
        -13    1    3    3    0    0  0.15251831450E+02  0.19501487294E+01  0.50566442133E+02  0.52852603311E+02  0.10566000000E+00 0.  1.
         23    2    1    0    0    0  0.14006263510E+02 -0.22158633743E+02  0.18846591523E+02  0.92714175264E+02  0.86911125962E+02 0.  0.
         13    1    3    3    0    0 -0.12455679405E+01 -0.24108782472E+02 -0.31719850610E+02  0.39861571953E+02  0.10566000000E+00 0. -1.
         22    1    1    0    0    0 -0.14006263510E+02  0.22158633743E+02 -0.18846591523E+02  0.32285824736E+02  0.00000000000E+00 0.  1.
</event>
<event>
 5    1  0.1325686E-009  0.9118800E+02  0.7818608E-02  0.1130116E+00
         25   -1    0    0    0    0  0.00000000000E+00  0.00000000000E+00  0.99999998245E-14  0.12500000000E+03  0.12500000000E+03 0.  0.
        -13    1    3    3    0    0  0.22408551507E+02  0.43470776790E+02  0.54949007506E+01  0.49214395390E+02  0.10566000000E+00 0. -1.
         23    2    1    0    0    0 -0.48182606798E+01  0.30840355341E+02 -0.19433333279E+02  0.88230480070E+02  0.80203615988E+02 0.  0.
         13    1    3    3    0    0 -0.27226812187E+02 -0.12630421449E+02 -0.24928234030E+02  0.39016084680E+02  0.10566000000E+00 0.  1.
         22    1    1    0    0    0  0.48182606798E+01 -0.30840355341E+02  0.19433333279E+02  0.36769519930E+02  0.00000000000E+00 0. -1.
</event>
<event>
 4    1  0.1325686E-009  0.9118800E+02  0.7818608E-02  0.1130116E+00
         25   -1    0    0    0    0  0.00000000000E+00  0.00000000000E+00  0.99999998245E-14  0.12500000000E+03  0.12500000000E+03 0.  0.
        -13    1    1    0    0    0  0.29897466910E+02  0.10776946079E+02  0.25433862824E+02  0.40704958378E+02  0.10566000000E+00 0.  1.
         13    1    1    0    0    0  0.20415601034E+02 -0.18699798953E+02 -0.17486953351E+02  0.32745747022E+02  0.10566000000E+00 0. -1.
         22    1    1    0    0    0 -0.50313067944E+02  0.79228528742E+01 -0.79469094731E+01  0.51549294600E+02  0.00000000000E+00 0. -1.
</event>
<event>
 5    1  0.1325686E-009  0.9118800E+02  0.7818608E-02  0.1130116E+00
         25   -1    0    0    0    0  0.00000000000E+00  0.00000000000E+00  0.99999998245E-14  0.12500000000E+03  0.12500000000E+03 0.  0.
        -13    1    3    3    0    0  0.45535876319E+01 -0.34881274501E+02  0.77242957232E+00  0.35185881865E+02  0.10566000000E+00 0.  1.
         23    2    1    0    0    0 -0.14718152945E+02  0.23315701790E+02 -0.57416782586E+01  0.96835965394E+02  0.92649831886E+02 0.  0.
         13    1    3    3    0    0 -0.19271740577E+02  0.58196976291E+02 -0.65141078309E+01  0.61650083529E+02  0.10566000000E+00 0. -1.
         22    1    1    0    0    0  0.14718152945E+02 -0.23315701790E+02  0.57416782586E+01  0.28164034606E+02  0.00000000000E+00 0. -1.
</event>
<event>
 5    1  0.1325686E-009  0.9118800E+02  0.7818608E-02  0.1130116E+00
         25   -1    0    0    0    0  0.00000000000E+00  0.00000000000E+00  0.99999998245E-14  0.12500000000E+03  0.12500000000E+03 0.  0.
        -13    1    3    3    0    0 -0.51130903691E+02 -0.15545968106E+01 -0.30337029852E+02  0.59473797825E+02  0.10566000000E+00 0. -1.
         23    2    1    0    0    0 -0.32056712712E+02  0.16291439827E+01 -0.32749960973E+01  0.92735274068E+02  0.86941466039E+02 0.  0.
         13    1    3    3    0    0  0.19074190979E+02  0.31837407933E+01  0.27062033754E+02  0.33261476243E+02  0.10566000000E+00 0.  1.
         22    1    1    0    0    0  0.32056712712E+02 -0.16291439827E+01  0.32749960973E+01  0.32264725932E+02  0.00000000000E+00 0. -1.
</event>
<event>
 5    1  0.1325686E-009  0.9118800E+02  0.7818608E-02  0.1130116E+00
         25   -1    0    0    0    0  0.00000000000E+00  0.00000000000E+00  0.99999998245E-14  0.12500000000E+03  0.12500000000E+03 0.  0.
        -13    1    3    3    0    0  0.56204014044E+02  0.14267579773E+02  0.80957302655E+01  0.58549184792E+02  0.10566000000E+00 0.  1.
         23    2    1    0    0    0  0.22721614767E+02  0.17448062998E+02 -0.71449617438E+01  0.95474465994E+02  0.90794363804E+02 0.  0.
         13    1    3    3    0    0 -0.33482399277E+02  0.31804832250E+01 -0.15240692009E+02  0.36925281202E+02  0.10566000000E+00 0. -1.
         22    1    1    0    0    0 -0.22721614767E+02 -0.17448062998E+02  0.71449617438E+01  0.29525534006E+02  0.00000000000E+00 0.  1.
</event>
<event>
 5    1  0.1325686E-009  0.9118800E+02  0.7818608E-02  0.1130116E+00
         25   -1    0    0    0    0  0.00000000000E+00  0.00000000000E+00  0.99999998245E-14  0.12500000000E+03  0.12500000000E+03 0.  0.
        -13    1    3    3    0    0 -0.74140091162E+01  0.18191353622E+02 -0.36989942727E+02  0.41882692186E+02  0.10566000000E+00 0. -1.
         23    2    1    0    0    0  0.26548775864E+02  0.13905767843E+02  0.34111160077E+01  0.94836386297E+02  0.89911604225E+02 0.  0.
         13    1    3    3    0    0  0.33962784980E+02 -0.42855857783E+01  0.40401058735E+02  0.52953694111E+02  0.10566000000E+00 0.  1.
         22    1    1    0    0    0 -0.26548775864E+02 -0.13905767843E+02 -0.34111160077E+01  0.30163613703E+02  0.00000000000E+00 0.  1.
</event>
<event>
 5    1  0.1325686E-009  0.9118800E+02  0.7818608E-02  0.1130116E+00
         25   -1    0    0    0    0  0.00000000000E+00  0.00000000000E+00  0.99999998245E-14  0.12500000000E+03  0.12500000000E+03 0.  0.
        -13    1    3    3    0    0  0.51296733903E+01  0.34843888219E+02  0.86711140708E+01  0.36271331359E+02  0.10566000000E+00 0. -1.
         23    2    1    0    0    0  0.12867598814E+02 -0.10671896024E+02 -0.26055630060E+02  0.94042604732E+02  0.88801189085E+02 0.  0.
         13    1    3    3    0    0  0.77379254233E+01 -0.45515784243E+02 -0.34726744131E+02  0.57771273372E+02  0.10566000000E+00 0.  1.
         22    1    1    0    0    0 -0.12867598814E+02  0.10671896024E+02  0.26055630060E+02  0.30957395268E+02  0.00000000000E+00 0.  1.
</event>
<event>
 5    1  0.1325686E-009  0.9118800E+02  0.7818608E-02  0.1130116E+00
         25   -1    0    0    0    0  0.00000000000E+00  0.00000000000E+00  0.99999998245E-14  0.12500000000E+03  0.12500000000E+03 0.  0.
        -13    1    3    3    0    0 -0.31244152412E+02 -0.20602969341E+02  0.38760479617E+02  0.53880101612E+02  0.10566000000E+00 0.  1.
         23    2    1    0    0    0 -0.21224315750E+02 -0.19518598300E+02 -0.22181235161E+01  0.96079983911E+02  0.91624210653E+02 0.  0.
         13    1    3    3    0    0  0.10019836662E+02  0.10843710417E+01 -0.40978603133E+02  0.42199882299E+02  0.10566000000E+00 0. -1.
         22    1    1    0    0    0  0.21224315750E+02  0.19518598300E+02  0.22181235161E+01  0.28920016089E+02  0.00000000000E+00 0.  1.
</event>
<event>
 5    1  0.1325686E-009  0.9118800E+02  0.7818608E-02  0.1130116E+00
         25   -1    0    0    0    0  0.00000000000E+00  0.00000000000E+00  0.99999998245E-14  0.12500000000E+03  0.12500000000E+03 0.  0.
        -13    1    3    3    0    0 -0.44804106741E+02 -0.25971285568E+02  0.28003954062E+02  0.58874003279E+02  0.10566000000E+00 0. -1.
         23    2    1    0    0    0 -0.26518534474E+02 -0.90651711915E+01 -0.81580822148E+00  0.96962961240E+02  0.92821012223E+02 0.  0.
         13    1    3    3    0    0  0.18285572268E+02  0.16906114377E+02 -0.28819762283E+02  0.38088957961E+02  0.10566000000E+00 0.  1.
         22    1    1    0    0    0  0.26518534474E+02  0.90651711915E+01  0.81580822148E+00  0.28037038760E+02  0.00000000000E+00 0. -1.
</event>
<event>
 5    1  0.1325686E-009  0.9118800E+02  0.7818608E-02  0.1130116E+00
         25   -1    0    0    0    0  0.00000000000E+00  0.00000000000E+00  0.99999998245E-14  0.12500000000E+03  0.12500000000E+03 0.  0.
        -13    1    3    3    0    0  0.30826063442E+02  0.46276852776E+02  0.22369606643E+02  0.59934996084E+02  0.10566000000E+00 0. -1.
         23    2    1    0    0    0  0.27823340213E+01  0.26818110532E+02  0.10194920837E+02  0.96174857399E+02  0.91753552246E+02 0.  0.
         13    1    3    3    0    0 -0.28043729421E+02 -0.19458742244E+02 -0.12174685806E+02  0.36239861315E+02  0.10566000000E+00 0.  1.
         22    1    1    0    0    0 -0.27823340213E+01 -0.26818110532E+02 -0.10194920837E+02  0.28825142601E+02  0.00000000000E+00 0. -1.
</event>
<event>
 5    1  0.1325686E-009  0.9118800E+02  0.7818608E-02  0.1130116E+00
         25   -1    0    0    0    0  0.00000000000E+00  0.00000000000E+00  0.99999998245E-14  0.12500000000E+03  0.12500000000E+03 0.  0.
        -13    1    3    3    0    0 -0.11068356781E+02 -0.49133656960E+02 -0.33742634684E+02  0.60623438764E+02  0.10566000000E+00 0.  1.
         23    2    1    0    0    0 -0.62124176441E+01 -0.24424697932E+02 -0.41867446250E+01  0.99452224507E+02  0.96114807011E+02 0.  0.
         13    1    3    3    0    0  0.48559391364E+01  0.24708959027E+02  0.29555890059E+02  0.38828785744E+02  0.10566000000E+00 0. -1.
         22    1    1    0    0    0  0.62124176441E+01  0.24424697932E+02  0.41867446250E+01  0.25547775493E+02  0.00000000000E+00 0.  1.
</event>
<event>
 5    1  0.1325686E-009  0.9118800E+02  0.7818608E-02  0.1130116E+00
         25   -1    0    0    0    0  0.00000000000E+00  0.00000000000E+00  0.99999998245E-14  0.12500000000E+03  0.12500000000E+03 0.  0.
        -13    1    3    3    0    0 -0.97808203455E+01  0.33241730379E+02  0.17642790343E+02  0.38883882269E+02  0.10566000000E+00 0. -1.
         23    2    1    0    0    0 -0.26227886432E+01 -0.24973766165E+02  0.97320951364E+01  0.98068945574E+02  0.94298655311E+02 0.  0.
         13    1    3    3    0    0  0.71580317023E+01 -0.58215496544E+02 -0.79106952068E+01  0.59185063305E+02  0.10566000000E+00 0.  1.
         22    1    1    0    0    0  0.26227886432E+01  0.24973766165E+02 -0.97320951364E+01  0.26931054426E+02  0.00000000000E+00 0.  1.
</event>
<event>
 5    1  0.1325686E-009  0.9118800E+02  0.7818608E-02  0.1130116E+00
         25   -1    0    0    0    0  0.00000000000E+00  0.00000000000E+00  0.99999998245E-14  0.12500000000E+03  0.12500000000E+03 0.  0.
        -13    1    3    3    0    0  0.42983540646E+01  0.40060998896E+02  0.14798924302E+02  0.42922940309E+02  0.10566000000E+00 0.  1.
         23    2    1    0    0    0  0.26000334183E+02  0.58425569178E+01 -0.16086917204E+02  0.93872170746E+02  0.88560954638E+02 0.  0.
         13    1    3    3    0    0  0.21701980118E+02 -0.34218441979E+02 -0.30885841506E+02  0.50949230437E+02  0.10566000000E+00 0. -1.
         22    1    1    0    0    0 -0.26000334183E+02 -0.58425569178E+01  0.16086917204E+02  0.31127829254E+02  0.00000000000E+00 0. -1.
</event>
<event>
 5    1  0.1325686E-009  0.9118800E+02  0.7818608E-02  0.1130116E+00
         25   -1    0    0    0    0  0.00000000000E+00  0.00000000000E+00  0.99999998245E-14  0.12500000000E+03  0.12500000000E+03 0.  0.
        -13    1    3    3    0    0 -0.81912125099E+01 -0.26600519440E+01  0.46146360360E+02  0.46943259125E+02  0.10566000000E+00 0. -1.
         23    2    1    0    0    0  0.16626025182E+02  0.21079781160E+02  0.11293265017E+02  0.95874071314E+02  0.91342858661E+02 0.  0.
         13    1    3    3    0    0  0.24817237691E+02  0.23739833104E+02 -0.34853095343E+02  0.48930812189E+02  0.10566000000E+00 0.  1.
         22    1    1    0    0    0 -0.16626025182E+02 -0.21079781160E+02 -0.11293265017E+02  0.29125928686E+02  0.00000000000E+00 0.  1.
</event>
<event>
 5    1  0.1325686E-009  0.9118800E+02  0.7818608E-02  0.1130116E+00
         25   -1    0    0    0    0  0.00000000000E+00  0.00000000000E+00  0.99999998245E-14  0.12500000000E+03  0.12500000000E+03 0.  0.
        -13    1    3    3    0    0 -0.35342581001E+02 -0.33335454375E+01  0.42928788041E+02  0.55705498505E+02  0.10566000000E+00 0.  1.
         23    2    1    0    0    0  0.28495549538E+00 -0.87947709666E+01  0.29575339609E+02  0.94143397644E+02  0.88942955937E+02 0.  0.
         13    1    3    3    0    0  0.35627536496E+02 -0.54612255291E+01 -0.13353448432E+02  0.38437899138E+02  0.10566000000E+00 0. -1.
         22    1    1    0    0    0 -0.28495549538E+00  0.87947709666E+01 -0.29575339609E+02  0.30856602356E+02  0.00000000000E+00 0.  1.
</event>
<event>
 5    1  0.1325686E-009  0.9118800E+02  0.7818608E-02  0.1130116E+00
         25   -1    0    0    0    0  0.00000000000E+00  0.00000000000E+00  0.99999998245E-14  0.12500000000E+03  0.12500000000E+03 0.  0.
        -13    1    3    3    0    0  0.22134502019E+02  0.19690709591E+02  0.49869721240E+02  0.58005693551E+02  0.10566000000E+00 0.  1.
         23    2    1    0    0    0  0.60051283885E+01  0.24082828627E+02  0.16896734888E+02  0.94974280166E+02  0.90103107835E+02 0.  0.
         13    1    3    3    0    0 -0.16129373630E+02  0.43921190362E+01 -0.32972986351E+02  0.36968586615E+02  0.10566000000E+00 0. -1.
         22    1    1    0    0    0 -0.60051283885E+01 -0.24082828627E+02 -0.16896734888E+02  0.30025719834E+02  0.00000000000E+00 0.  1.
</event>
<event>
 5    1  0.1325686E-009  0.9118800E+02  0.7818608E-02  0.1130116E+00
         25   -1    0    0    0    0  0.00000000000E+00  0.00000000000E+00  0.99999998245E-14  0.12500000000E+03  0.12500000000E+03 0.  0.
        -13    1    3    3    0    0  0.28147037020E+02  0.25103628655E+02  0.22221095446E+01  0.37780905224E+02  0.10566000000E+00 0.  1.
         23    2    1    0    0    0 -0.25124365958E+01 -0.25072216481E+02 -0.10089024610E+02  0.97857472584E+02  0.94017913963E+02 0.  0.
         13    1    3    3    0    0 -0.30659473616E+02 -0.50175845136E+02 -0.12311134155E+02  0.60076567360E+02  0.10566000000E+00 0. -1.
         22    1    1    0    0    0  0.25124365958E+01  0.25072216481E+02  0.10089024610E+02  0.27142527416E+02  0.00000000000E+00 0. -1.
</event>
<event>
 5    1  0.1325686E-009  0.9118800E+02  0.7818608E-02  0.1130116E+00
         25   -1    0    0    0    0  0.00000000000E+00  0.00000000000E+00  0.99999998245E-14  0.12500000000E+03  0.12500000000E+03 0.  0.
        -13    1    3    3    0    0 -0.35393071941E+02  0.14792183262E+01 -0.27652671788E+02  0.44939281807E+02  0.10566000000E+00 0.  1.
         23    2    1    0    0    0  0.79934456570E+01  0.24398885454E+02 -0.13415563347E+02  0.96031428672E+02  0.91557944320E+02 0.  0.
         13    1    3    3    0    0  0.43386517598E+02  0.22919667128E+02  0.14237108442E+02  0.51092146865E+02  0.10566000000E+00 0. -1.
         22    1    1    0    0    0 -0.79934456570E+01 -0.24398885454E+02  0.13415563347E+02  0.28968571328E+02  0.00000000000E+00 0.  1.
</event>
<event>
 5    1  0.1325686E-009  0.9118800E+02  0.7818608E-02  0.1130116E+00
         25   -1    0    0    0    0  0.00000000000E+00  0.00000000000E+00  0.99999998245E-14  0.12500000000E+03  0.12500000000E+03 0.  0.
        -13    1    3    3    0    0  0.27030068533E+02 -0.31800586460E+02  0.72200675366E+01  0.42356138202E+02  0.10566000000E+00 0.  1.
         23    2    1    0    0    0  0.79139957505E+01  0.16226465769E+02 -0.17678861997E+02  0.99732002818E+02  0.96477980413E+02 0.  0.
         13    1    3    3    0    0 -0.19116072783E+02  0.48027052230E+02 -0.24898929533E+02  0.57375864616E+02  0.10566000000E+00 0. -1.
         22    1    1    0    0    0 -0.79139957505E+01 -0.16226465769E+02  0.17678861997E+02  0.25267997182E+02  0.00000000000E+00 0. -1.
</event>
<event>
 5    1  0.1325686E-009  0.9118800E+02  0.7818608E-02  0.1130116E+00
         25   -1    0    0    0    0  0.00000000000E+00  0.00000000000E+00  0.99999998245E-14  0.12500000000E+03  0.12500000000E+03 0.  0.
        -13    1    3    3    0    0  0.33719710597E+02  0.31048283411E+02 -0.37688443219E+01  0.45991631164E+02  0.10566000000E+00 0. -1.
         23    2    1    0    0    0  0.26576699639E+02 -0.15909394399E+02 -0.55921354374E+01  0.93524584632E+02  0.88068985222E+02 0.  0.
         13    1    3    3    0    0 -0.71430109581E+01 -0.46957677810E+02 -0.18232911155E+01  0.47532953468E+02  0.10566000000E+00 0.  1.
         22    1    1    0    0    0 -0.26576699639E+02  0.15909394399E+02  0.55921354374E+01  0.31475415368E+02  0.00000000000E+00 0.  1.
</event>
<event>
 5    1  0.1325686E-009  0.9118800E+02  0.7818608E-02  0.1130116E+00
         25   -1    0    0    0    0  0.00000000000E+00  0.00000000000E+00  0.99999998245E-14  0.12500000000E+03  0.12500000000E+03 0.  0.
        -13    1    3    3    0    0 -0.39735485333E+02  0.24254217484E+02 -0.32699496009E+02  0.56889753592E+02  0.10566000000E+00 0.  1.
         23    2    1    0    0    0 -0.65839569352E+01  0.25673433060E+02 -0.12994235145E+02  0.95481805594E+02  0.90804467943E+02 0.  0.
         13    1    3    3    0    0  0.33151528398E+02  0.14192155761E+01  0.19705260864E+02  0.38592052002E+02  0.10566000000E+00 0. -1.
         22    1    1    0    0    0  0.65839569352E+01 -0.25673433060E+02  0.12994235145E+02  0.29518194406E+02  0.00000000000E+00 0.  1.
</event>
<event>
 5    1  0.1325686E-009  0.9118800E+02  0.7818608E-02  0.1130116E+00
         25   -1    0    0    0    0  0.00000000000E+00  0.00000000000E+00  0.99999998245E-14  0.12500000000E+03  0.12500000000E+03 0.  0.
        -13    1    3    3    0    0  0.81421643506E+01  0.38847001137E+02  0.98105919871E+00  0.39703374905E+02  0.10566000000E+00 0.  1.
         23    2    1    0    0    0 -0.16672656380E+02 -0.47063520043E+01 -0.23753219979E+02  0.95600294571E+02  0.90967431769E+02 0.  0.
         13    1    3    3    0    0 -0.24814820730E+02 -0.43553353141E+02 -0.24734279178E+02  0.55896919666E+02  0.10566000000E+00 0. -1.
         22    1    1    0    0    0  0.16672656380E+02  0.47063520043E+01  0.23753219979E+02  0.29399705429E+02  0.00000000000E+00 0. -1.
</event>
<event>
 5    1  0.1325686E-009  0.9118800E+02  0.7818608E-02  0.1130116E+00
         25   -1    0    0    0    0  0.00000000000E+00  0.00000000000E+00  0.99999998245E-14  0.12500000000E+03  0.12500000000E+03 0.  0.
        -13    1    3    3    0    0  0.20121074749E+02  0.29778448237E+02 -0.44211463970E+01  0.36210099806E+02  0.10566000000E+00 0.  1.
         23    2    1    0    0    0 -0.13416870745E+02 -0.16531042975E+02 -0.20331588566E+02  0.95560888328E+02  0.90913266810E+02 0.  0.
         13    1    3    3    0    0 -0.33537945493E+02 -0.46309491212E+02 -0.15910442168E+02  0.59350788523E+02  0.10566000000E+00 0. -1.
         22    1    1    0    0    0  0.13416870745E+02  0.16531042975E+02  0.20331588566E+02  0.29439111672E+02  0.00000000000E+00 0. -1.
</event>
<event>
 5    1  0.1325686E-009  0.9118800E+02  0.7818608E-02  0.1130116E+00
         25   -1    0    0    0    0  0.00000000000E+00  0.00000000000E+00  0.99999998245E-14  0.12500000000E+03  0.12500000000E+03 0.  0.
        -13    1    3    3    0    0  0.10893088935E+02 -0.72068835413E+01 -0.45794600727E+02  0.47620953127E+02  0.10566000000E+00 0. -1.
         23    2    1    0    0    0  0.23698134071E+02  0.16503075406E+02 -0.62839912188E+01  0.95445954559E+02  0.90755102555E+02 0.  0.
         13    1    3    3    0    0  0.12805045135E+02  0.23709958948E+02  0.39510609508E+02  0.47825001432E+02  0.10566000000E+00 0.  1.
         22    1    1    0    0    0 -0.23698134071E+02 -0.16503075406E+02  0.62839912188E+01  0.29554045441E+02  0.00000000000E+00 0. -1.
</event>
<event>
 5    1  0.1325686E-009  0.9118800E+02  0.7818608E-02  0.1130116E+00
         25   -1    0    0    0    0  0.00000000000E+00  0.00000000000E+00  0.99999998245E-14  0.12500000000E+03  0.12500000000E+03 0.  0.
        -13    1    3    3    0    0  0.81770921153E+01 -0.31697603180E+02  0.10098124160E+02  0.34257643795E+02  0.10566000000E+00 0.  1.
         23    2    1    0    0    0 -0.31811287890E+02  0.16478492864E+01 -0.12188023943E+02  0.90893968684E+02  0.84252549937E+02 0.  0.
         13    1    3    3    0    0 -0.39988380006E+02  0.33345452466E+02 -0.22286148103E+02  0.56636324889E+02  0.10566000000E+00 0. -1.
         22    1    1    0    0    0  0.31811287890E+02 -0.16478492864E+01  0.12188023943E+02  0.34106031316E+02  0.00000000000E+00 0. -1.
</event>
<event>
 5    1  0.1325686E-009  0.9118800E+02  0.7818608E-02  0.1130116E+00
         25   -1    0    0    0    0  0.00000000000E+00  0.00000000000E+00  0.99999998245E-14  0.12500000000E+03  0.12500000000E+03 0.  0.
        -13    1    3    3    0    0  0.32641542433E+02  0.10070209627E+02  0.10400384691E+02  0.35707962419E+02  0.10566000000E+00 0.  1.
         23    2    1    0    0    0 -0.24665986266E+02  0.13481733409E+02 -0.76141377548E+01  0.95877103373E+02  0.91347007851E+02 0.  0.
         13    1    3    3    0    0 -0.57307528700E+02  0.34115237816E+01 -0.18014522446E+02  0.60169140954E+02  0.10566000000E+00 0. -1.
         22    1    1    0    0    0  0.24665986266E+02 -0.13481733409E+02  0.76141377548E+01  0.29122896627E+02  0.00000000000E+00 0. -1.
</event>
<event>
 5    1  0.1325686E-009  0.9118800E+02  0.7818608E-02  0.1130116E+00
         25   -1    0    0    0    0  0.00000000000E+00  0.00000000000E+00  0.99999998245E-14  0.12500000000E+03  0.12500000000E+03 0.  0.
        -13    1    3    3    0    0  0.63275950663E+01 -0.50808467746E+02  0.17800270345E+02  0.54207007319E+02  0.10566000000E+00 0. -1.
         23    2    1    0    0    0  0.19674258657E+02 -0.10636400330E+02  0.17602035026E+02  0.96538778966E+02  0.92248006707E+02 0.  0.
         13    1    3    3    0    0  0.13346663591E+02  0.40172067417E+02 -0.19823531842E+00  0.42331771647E+02  0.10566000000E+00 0.  1.
         22    1    1    0    0    0 -0.19674258657E+02  0.10636400330E+02 -0.17602035026E+02  0.28461221034E+02  0.00000000000E+00 0. -1.
</event>
<event>
 5    1  0.1325686E-009  0.9118800E+02  0.7818608E-02  0.1130116E+00
         25   -1    0    0    0    0  0.00000000000E+00  0.00000000000E+00  0.99999998245E-14  0.12500000000E+03  0.12500000000E+03 0.  0.
        -13    1    3    3    0    0  0.57921912553E+02  0.10287298413E+02  0.17209708415E+02  0.61294059175E+02  0.10566000000E+00 0. -1.
         23    2    1    0    0    0  0.19606931738E+02 -0.40967874017E+01  0.23595830794E+01  0.10483113609E+03  0.10287265925E+03 0.  0.
         13    1    3    3    0    0 -0.38314980814E+02 -0.14384085815E+02 -0.14850125336E+02  0.43537076912E+02  0.10566000000E+00 0.  1.
         22    1    1    0    0    0 -0.19606931738E+02  0.40967874017E+01 -0.23595830794E+01  0.20168863913E+02  0.00000000000E+00 0. -1.
</event>
<event>
 5    1  0.1325686E-009  0.9118800E+02  0.7818608E-02  0.1130116E+00
         25   -1    0    0    0    0  0.00000000000E+00  0.00000000000E+00  0.99999998245E-14  0.12500000000E+03  0.12500000000E+03 0.  0.
        -13    1    3    3    0    0 -0.94428530352E+01  0.41462209999E+02 -0.39973737739E+02  0.58362601076E+02  0.10566000000E+00 0.  1.
         23    2    1    0    0    0  0.65942548081E+01  0.28392661960E+02 -0.11261780326E+02  0.93751717715E+02  0.88390776831E+02 0.  0.
         13    1    3    3    0    0  0.16037107843E+02 -0.13069548039E+02  0.28711957414E+02  0.35389116639E+02  0.10566000000E+00 0. -1.
         22    1    1    0    0    0 -0.65942548081E+01 -0.28392661960E+02  0.11261780326E+02  0.31248282285E+02  0.00000000000E+00 0.  1.
</event>
<event>
 5    1  0.1325686E-009  0.9118800E+02  0.7818608E-02  0.1130116E+00
         25   -1    0    0    0    0  0.00000000000E+00  0.00000000000E+00  0.99999998245E-14  0.12500000000E+03  0.12500000000E+03 0.  0.
        -13    1    3    3    0    0  0.27894710696E+02 -0.24258577564E+02 -0.19118778874E+02  0.41618894026E+02  0.10566000000E+00 0. -1.
         23    2    1    0    0    0 -0.11849130664E+02 -0.22019028886E+02  0.16505513830E+02  0.95038833178E+02  0.90192617738E+02 0.  0.
         13    1    3    3    0    0 -0.39743841360E+02  0.22395486780E+01  0.35624292703E+02  0.53419939152E+02  0.10566000000E+00 0.  1.
         22    1    1    0    0    0  0.11849130664E+02  0.22019028886E+02 -0.16505513830E+02  0.29961166822E+02  0.00000000000E+00 0.  1.
</event>
<event>
 5    1  0.1325686E-009  0.9118800E+02  0.7818608E-02  0.1130116E+00
         25   -1    0    0    0    0  0.00000000000E+00  0.00000000000E+00  0.99999998245E-14  0.12500000000E+03  0.12500000000E+03 0.  0.
        -13    1    3    3    0    0  0.14708077925E+02  0.27736686008E+02 -0.18690492514E+02  0.36537610505E+02  0.10566000000E+00 0. -1.
         23    2    1    0    0    0 -0.28552548790E+02 -0.44250431905E+01  0.54412766020E+01  0.95598698316E+02  0.90965238301E+02 0.  0.
         13    1    3    3    0    0 -0.43260626715E+02 -0.32161729198E+02  0.24131769116E+02  0.59061087812E+02  0.10566000000E+00 0.  1.
         22    1    1    0    0    0  0.28552548790E+02  0.44250431905E+01 -0.54412766020E+01  0.29401301684E+02  0.00000000000E+00 0.  1.
</event>
<event>
 5    1  0.1325686E-009  0.9118800E+02  0.7818608E-02  0.1130116E+00
         25   -1    0    0    0    0  0.00000000000E+00  0.00000000000E+00  0.99999998245E-14  0.12500000000E+03  0.12500000000E+03 0.  0.
        -13    1    3    3    0    0  0.27376589501E+02  0.16964841981E+02 -0.43471863750E+02  0.54102658142E+02  0.10566000000E+00 0. -1.
         23    2    1    0    0    0  0.21274882570E+02 -0.13284434986E+02 -0.17796916172E+02  0.94245698407E+02  0.89086612921E+02 0.  0.
         13    1    3    3    0    0 -0.61017069313E+01 -0.30249276967E+02  0.25674947578E+02  0.40143040265E+02  0.10566000000E+00 0.  1.
         22    1    1    0    0    0 -0.21274882570E+02  0.13284434986E+02  0.17796916172E+02  0.30754301593E+02  0.00000000000E+00 0. -1.
</event>
<event>
 5    1  0.1325686E-009  0.9118800E+02  0.7818608E-02  0.1130116E+00
         25   -1    0    0    0    0  0.00000000000E+00  0.00000000000E+00  0.99999998245E-14  0.12500000000E+03  0.12500000000E+03 0.  0.
        -13    1    3    3    0    0 -0.58541519277E+01  0.34410167132E+02 -0.12811650829E+02  0.37181719404E+02  0.10566000000E+00 0. -1.
         23    2    1    0    0    0  0.24272887559E+02 -0.12628896865E+02  0.75152018255E+01  0.96625004582E+02  0.92364772211E+02 0.  0.
         13    1    3    3    0    0  0.30127039487E+02 -0.47039063997E+02  0.20326852654E+02  0.59443285178E+02  0.10566000000E+00 0.  1.
         22    1    1    0    0    0 -0.24272887559E+02  0.12628896865E+02 -0.75152018255E+01  0.28374995418E+02  0.00000000000E+00 0.  1.
</event>
<event>
 5    1  0.1325686E-009  0.9118800E+02  0.7818608E-02  0.1130116E+00
         25   -1    0    0    0    0  0.00000000000E+00  0.00000000000E+00  0.99999998245E-14  0.12500000000E+03  0.12500000000E+03 0.  0.
        -13    1    3    3    0    0 -0.39109785933E+02 -0.29920698048E+02  0.15442326854E+02  0.51607171499E+02  0.10566000000E+00 0. -1.
         23    2    1    0    0    0 -0.10825003554E+02  0.60843511621E+00  0.27914435607E+02  0.95053938314E+02  0.90213549861E+02 0.  0.
         13    1    3    3    0    0  0.28284782378E+02  0.30529133164E+02  0.12472108752E+02  0.43446766816E+02  0.10566000000E+00 0.  1.
         22    1    1    0    0    0  0.10825003554E+02 -0.60843511621E+00 -0.27914435607E+02  0.29946061686E+02  0.00000000000E+00 0. -1.
</event>
<event>
 5    1  0.1325686E-009  0.9118800E+02  0.7818608E-02  0.1130116E+00
         25   -1    0    0    0    0  0.00000000000E+00  0.00000000000E+00  0.99999998245E-14  0.12500000000E+03  0.12500000000E+03 0.  0.
        -13    1    3    3    0    0 -0.38866328936E+02  0.90929523739E+00 -0.24141425704E+01  0.38951990850E+02  0.10566000000E+00 0.  1.
         23    2    1    0    0    0  0.94622107827E+01 -0.59978786577E+01  0.26874810371E+02  0.95883622928E+02  0.91355928828E+02 0.  0.
         13    1    3    3    0    0  0.48328539719E+02 -0.69071738951E+01  0.29288952942E+02  0.56931632078E+02  0.10566000000E+00 0. -1.
         22    1    1    0    0    0 -0.94622107827E+01  0.59978786577E+01 -0.26874810371E+02  0.29116377072E+02  0.00000000000E+00 0. -1.
</event>
<event>
 5    1  0.1325686E-009  0.9118800E+02  0.7818608E-02  0.1130116E+00
         25   -1    0    0    0    0  0.00000000000E+00  0.00000000000E+00  0.99999998245E-14  0.12500000000E+03  0.12500000000E+03 0.  0.
        -13    1    3    3    0    0 -0.55093917683E+02 -0.46919281491E+01  0.18031326149E+02  0.58159211154E+02  0.10566000000E+00 0. -1.
         23    2    1    0    0    0 -0.16252745579E+02  0.15182991400E+01  0.21902358651E+02  0.97683882311E+02  0.93786835845E+02 0.  0.
         13    1    3    3    0    0  0.38841172104E+02  0.62102272891E+01  0.38710325017E+01  0.39524671157E+02  0.10566000000E+00 0.  1.
         22    1    1    0    0    0  0.16252745579E+02 -0.15182991400E+01 -0.21902358651E+02  0.27316117689E+02  0.00000000000E+00 0. -1.
</event>
<event>
 5    1  0.1325686E-009  0.9118800E+02  0.7818608E-02  0.1130116E+00
         25   -1    0    0    0    0  0.00000000000E+00  0.00000000000E+00  0.99999998245E-14  0.12500000000E+03  0.12500000000E+03 0.  0.
        -13    1    3    3    0    0  0.18581086422E+02  0.34068498792E+02  0.36706477386E+02  0.53416252477E+02  0.10566000000E+00 0. -1.
         23    2    1    0    0    0  0.24735797998E+02  0.16864735735E+02 -0.70765699599E+00  0.95053718220E+02  0.90213244898E+02 0.  0.
         13    1    3    3    0    0  0.61547115761E+01 -0.17203763057E+02 -0.37414134382E+02  0.41637465743E+02  0.10566000000E+00 0.  1.
         22    1    1    0    0    0 -0.24735797998E+02 -0.16864735735E+02  0.70765699599E+00  0.29946281780E+02  0.00000000000E+00 0. -1.
</event>
<event>
 5    1  0.1325686E-009  0.9118800E+02  0.7818608E-02  0.1130116E+00
         25   -1    0    0    0    0  0.00000000000E+00  0.00000000000E+00  0.99999998245E-14  0.12500000000E+03  0.12500000000E+03 0.  0.
        -13    1    3    3    0    0 -0.20198125384E+02  0.27669038746E+01 -0.28117207843E+02  0.34730513486E+02  0.10566000000E+00 0.  1.
         23    2    1    0    0    0  0.20877811170E+02 -0.21771148193E+01  0.18472349762E+02  0.97038409668E+02  0.92922561399E+02 0.  0.
         13    1    3    3    0    0  0.41075936554E+02 -0.49440186939E+01  0.46589557605E+02  0.62307896181E+02  0.10566000000E+00 0. -1.
         22    1    1    0    0    0 -0.20877811170E+02  0.21771148193E+01 -0.18472349762E+02  0.27961590332E+02  0.00000000000E+00 0. -1.
</event>
<event>
 5    1  0.1325686E-009  0.9118800E+02  0.7818608E-02  0.1130116E+00
         25   -1    0    0    0    0  0.00000000000E+00  0.00000000000E+00  0.99999998245E-14  0.12500000000E+03  0.12500000000E+03 0.  0.
        -13    1    3    3    0    0  0.12237641924E+02  0.19203689890E+02  0.28771787311E+02  0.36692894331E+02  0.10566000000E+00 0.  1.
         23    2    1    0    0    0  0.13001880465E+01  0.12686142055E+02 -0.27659207682E+02  0.94542481080E+02  0.89502068523E+02 0.  0.
         13    1    3    3    0    0 -0.10937453878E+02 -0.65175478352E+01 -0.56430994993E+02  0.57849586749E+02  0.10566000000E+00 0. -1.
         22    1    1    0    0    0 -0.13001880465E+01 -0.12686142055E+02  0.27659207682E+02  0.30457518920E+02  0.00000000000E+00 0. -1.
</event>
<event>
 5    1  0.1325686E-009  0.9118800E+02  0.7818608E-02  0.1130116E+00
         25   -1    0    0    0    0  0.00000000000E+00  0.00000000000E+00  0.99999998245E-14  0.12500000000E+03  0.12500000000E+03 0.  0.
        -13    1    3    3    0    0 -0.42707446279E+01  0.41295016845E+02  0.25045009301E+02  0.48484856716E+02  0.10566000000E+00 0.  1.
         23    2    1    0    0    0  0.22417426218E+02  0.61362810317E+01 -0.41270158037E+01  0.10139433961E+03  0.98608239523E+02 0.  0.
         13    1    3    3    0    0  0.26688170846E+02 -0.35158735813E+02 -0.29172025104E+02  0.52909482891E+02  0.10566000000E+00 0. -1.
         22    1    1    0    0    0 -0.22417426218E+02 -0.61362810317E+01  0.41270158037E+01  0.23605660393E+02  0.00000000000E+00 0. -1.
</event>
<event>
 5    1  0.1325686E-009  0.9118800E+02  0.7818608E-02  0.1130116E+00
         25   -1    0    0    0    0  0.00000000000E+00  0.00000000000E+00  0.99999998245E-14  0.12500000000E+03  0.12500000000E+03 0.  0.
        -13    1    3    3    0    0  0.29597981368E+02  0.17843317344E+02 -0.14307575397E+02  0.37405111317E+02  0.10566000000E+00 0.  1.
         23    2    1    0    0    0 -0.72313777097E+01  0.86344871420E+01  0.28341347980E+02  0.94502800176E+02  0.89446632379E+02 0.  0.
         13    1    3    3    0    0 -0.36829359078E+02 -0.92088302016E+01  0.42648923377E+02  0.57097688859E+02  0.10566000000E+00 0. -1.
         22    1    1    0    0    0  0.72313777097E+01 -0.86344871420E+01 -0.28341347980E+02  0.30497199824E+02  0.00000000000E+00 0.  1.
</event>
<event>
 5    1  0.1325686E-009  0.9118800E+02  0.7818608E-02  0.1130116E+00
         25   -1    0    0    0    0  0.00000000000E+00  0.00000000000E+00  0.99999998245E-14  0.12500000000E+03  0.12500000000E+03 0.  0.
        -13    1    3    3    0    0  0.14512561928E+02  0.32187920091E+02 -0.23440506870E+02  0.42380953031E+02  0.10566000000E+00 0.  1.
         23    2    1    0    0    0 -0.20483555300E+02 -0.97387904667E+01 -0.15405504423E+02  0.97581946751E+02  0.93650876598E+02 0.  0.
         13    1    3    3    0    0 -0.34996117228E+02 -0.41926710558E+02  0.80350024470E+01  0.55200993719E+02  0.10566000000E+00 0. -1.
         22    1    1    0    0    0  0.20483555300E+02  0.97387904667E+01  0.15405504423E+02  0.27418053249E+02  0.00000000000E+00 0. -1.
</event>
<event>
 5    1  0.1325686E-009  0.9118800E+02  0.7818608E-02  0.1130116E+00
         25   -1    0    0    0    0  0.00000000000E+00  0.00000000000E+00  0.99999998245E-14  0.12500000000E+03  0.12500000000E+03 0.  0.
        -13    1    3    3    0    0  0.28657889233E+02  0.17405777033E+02 -0.43360762082E+02  0.54812430541E+02  0.10566000000E+00 0.  1.
         23    2    1    0    0    0  0.19137393908E+01  0.24326102826E+02 -0.87926655824E+01  0.99062909855E+02  0.95607151740E+02 0.  0.
         13    1    3    3    0    0 -0.26744149843E+02  0.69203257929E+01  0.34568096500E+02  0.44250479314E+02  0.10566000000E+00 0. -1.
         22    1    1    0    0    0 -0.19137393908E+01 -0.24326102826E+02  0.87926655824E+01  0.25937090145E+02  0.00000000000E+00 0.  1.
</event>
<event>
 5    1  0.1325686E-009  0.9118800E+02  0.7818608E-02  0.1130116E+00
         25   -1    0    0    0    0  0.00000000000E+00  0.00000000000E+00  0.99999998245E-14  0.12500000000E+03  0.12500000000E+03 0.  0.
        -13    1    3    3    0    0 -0.53771147547E+01 -0.35466432010E+02 -0.10051451312E+02  0.37253509904E+02  0.10566000000E+00 0.  1.
         23    2    1    0    0    0  0.89652261383E+01  0.13698412349E+02  0.21929919277E+02  0.97633174461E+02  0.93719227564E+02 0.  0.
         13    1    3    3    0    0  0.14342340893E+02  0.49164844359E+02  0.31981370590E+02  0.60379664557E+02  0.10566000000E+00 0. -1.
         22    1    1    0    0    0 -0.89652261383E+01 -0.13698412349E+02 -0.21929919277E+02  0.27366825539E+02  0.00000000000E+00 0. -1.
</event>
<event>
 5    1  0.1325686E-009  0.9118800E+02  0.7818608E-02  0.1130116E+00
         25   -1    0    0    0    0  0.00000000000E+00  0.00000000000E+00  0.99999998245E-14  0.12500000000E+03  0.12500000000E+03 0.  0.
        -13    1    3    3    0    0  0.51339663584E-01  0.48000962234E+02 -0.17472166920E+02  0.51082118125E+02  0.10566000000E+00 0. -1.
         23    2    1    0    0    0  0.16861603092E+02  0.21470100747E+02  0.12928629176E+02  0.94793571259E+02  0.89852060715E+02 0.  0.
         13    1    3    3    0    0  0.16810263429E+02 -0.26530861487E+02  0.30400796096E+02  0.43711453134E+02  0.10566000000E+00 0.  1.
         22    1    1    0    0    0 -0.16861603092E+02 -0.21470100747E+02 -0.12928629176E+02  0.30206428741E+02  0.00000000000E+00 0. -1.
</event>
<event>
 5    1  0.1325686E-009  0.9118800E+02  0.7818608E-02  0.1130116E+00
         25   -1    0    0    0    0  0.00000000000E+00  0.00000000000E+00  0.99999998245E-14  0.12500000000E+03  0.12500000000E+03 0.  0.
        -13    1    3    3    0    0  0.42178096067E+02 -0.27504733705E+02  0.33779298205E+02  0.60634596686E+02  0.10566000000E+00 0.  1.
         23    2    1    0    0    0  0.26422223772E+02 -0.84748561295E+01  0.85066074200E+01  0.95977259515E+02  0.91483959680E+02 0.  0.
         13    1    3    3    0    0 -0.15755872295E+02  0.19029877576E+02 -0.25272690785E+02  0.35342662829E+02  0.10566000000E+00 0. -1.
         22    1    1    0    0    0 -0.26422223772E+02  0.84748561295E+01 -0.85066074200E+01  0.29022740485E+02  0.00000000000E+00 0.  1.
</event>
<event>
 5    1  0.1325686E-009  0.9118800E+02  0.7818608E-02  0.1130116E+00
         25   -1    0    0    0    0  0.00000000000E+00  0.00000000000E+00  0.99999998245E-14  0.12500000000E+03  0.12500000000E+03 0.  0.
        -13    1    3    3    0    0  0.27960693770E+02 -0.20860413070E+02 -0.62685201529E+01  0.35443796897E+02  0.10566000000E+00 0.  1.
         23    2    1    0    0    0  0.82093544658E+01  0.30364879598E+02 -0.13406302710E+02  0.90807188385E+02  0.84123701157E+02 0.  0.
         13    1    3    3    0    0 -0.19751339304E+02  0.51225292668E+02 -0.71377825570E+01  0.55363391488E+02  0.10566000000E+00 0. -1.
         22    1    1    0    0    0 -0.82093544658E+01 -0.30364879598E+02  0.13406302710E+02  0.34192811615E+02  0.00000000000E+00 0. -1.
</event>
<event>
 5    1  0.1325686E-009  0.9118800E+02  0.7818608E-02  0.1130116E+00
         25   -1    0    0    0    0  0.00000000000E+00  0.00000000000E+00  0.99999998245E-14  0.12500000000E+03  0.12500000000E+03 0.  0.
        -13    1    3    3    0    0  0.29021005053E+02  0.89130350677E+01 -0.19783193384E+02  0.36235988091E+02  0.10566000000E+00 0.  1.
         23    2    1    0    0    0 -0.51763472454E+01  0.84402598685E+01  0.28172683020E+02  0.95138107461E+02  0.90330099443E+02 0.  0.
         13    1    3    3    0    0 -0.34197352299E+02 -0.47277519924E+00  0.47955876404E+02  0.58902119370E+02  0.10566000000E+00 0. -1.
         22    1    1    0    0    0  0.51763472454E+01 -0.84402598685E+01 -0.28172683020E+02  0.29861892539E+02  0.00000000000E+00 0. -1.
</event>
<event>
 5    1  0.1325686E-009  0.9118800E+02  0.7818608E-02  0.1130116E+00
         25   -1    0    0    0    0  0.00000000000E+00  0.00000000000E+00  0.99999998245E-14  0.12500000000E+03  0.12500000000E+03 0.  0.
        -13    1    3    3    0    0 -0.28351617940E+02 -0.49944287298E+00 -0.29601635742E+02  0.40991849015E+02  0.10566000000E+00 0. -1.
         23    2    1    0    0    0  0.34234687835E+01  0.29391834212E+02  0.27182686035E+01  0.95284868483E+02  0.90532961515E+02 0.  0.
         13    1    3    3    0    0  0.31775086723E+02  0.29891277085E+02  0.32319904346E+02  0.54293019468E+02  0.10566000000E+00 0.  1.
         22    1    1    0    0    0 -0.34234687835E+01 -0.29391834212E+02 -0.27182686035E+01  0.29715131517E+02  0.00000000000E+00 0. -1.
</event>
<event>
 5    1  0.1325686E-009  0.9118800E+02  0.7818608E-02  0.1130116E+00
         25   -1    0    0    0    0  0.00000000000E+00  0.00000000000E+00  0.99999998245E-14  0.12500000000E+03  0.12500000000E+03 0.  0.
        -13    1    3    3    0    0 -0.21899956591E+02 -0.11764710371E+02 -0.31093007542E+02  0.39809581646E+02  0.10566000000E+00 0.  1.
         23    2    1    0    0    0  0.25767754281E+02  0.83621937084E+01 -0.15191368848E+02  0.93940683655E+02  0.88657604941E+02 0.  0.
         13    1    3    3    0    0  0.47667710872E+02  0.20126904080E+02  0.15901638693E+02  0.54131102010E+02  0.10566000000E+00 0. -1.
         22    1    1    0    0    0 -0.25767754281E+02 -0.83621937084E+01  0.15191368848E+02  0.31059316345E+02  0.00000000000E+00 0. -1.
</event>
<event>
 5    1  0.1325686E-009  0.9118800E+02  0.7818608E-02  0.1130116E+00
         25   -1    0    0    0    0  0.00000000000E+00  0.00000000000E+00  0.99999998245E-14  0.12500000000E+03  0.12500000000E+03 0.  0.
        -13    1    3    3    0    0 -0.99689161841E+01  0.29713238196E+02  0.29842623954E+02  0.43276427561E+02  0.10566000000E+00 0. -1.
         23    2    1    0    0    0  0.24047144686E+02  0.25207480959E+02 -0.20221198293E+01  0.90103420907E+02  0.83071386329E+02 0.  0.
         13    1    3    3    0    0  0.34016060870E+02 -0.45057572369E+01 -0.31864743783E+02  0.46826993346E+02  0.10566000000E+00 0.  1.
         22    1    1    0    0    0 -0.24047144686E+02 -0.25207480959E+02  0.20221198293E+01  0.34896579093E+02  0.00000000000E+00 0. -1.
</event>
<event>
 5    1  0.1325686E-009  0.9118800E+02  0.7818608E-02  0.1130116E+00
         25   -1    0    0    0    0  0.00000000000E+00  0.00000000000E+00  0.99999998245E-14  0.12500000000E+03  0.12500000000E+03 0.  0.
        -13    1    3    3    0    0 -0.34908742601E+01 -0.11470126349E+02 -0.55321236876E+02  0.56605657094E+02  0.10566000000E+00 0. -1.
         23    2    1    0    0    0 -0.19181951383E+02  0.15286479206E+01 -0.21023043924E+02  0.96499957910E+02  0.92195387506E+02 0.  0.
         13    1    3    3    0    0 -0.15691077123E+02  0.12998774270E+02  0.34298192951E+02  0.39894300815E+02  0.10566000000E+00 0.  1.
         22    1    1    0    0    0  0.19181951383E+02 -0.15286479206E+01  0.21023043924E+02  0.28500042090E+02  0.00000000000E+00 0. -1.
</event>
<event>
 5    1  0.1325686E-009  0.9118800E+02  0.7818608E-02  0.1130116E+00
         25   -1    0    0    0    0  0.00000000000E+00  0.00000000000E+00  0.99999998245E-14  0.12500000000E+03  0.12500000000E+03 0.  0.
        -13    1    3    3    0    0 -0.74416925469E+01  0.26652148466E+02  0.26234060438E+02  0.38130734283E+02  0.10566000000E+00 0.  1.
         23    2    1    0    0    0 -0.11566424951E+02 -0.26792545231E+02  0.10309874783E+02  0.94049778933E+02  0.88811287195E+02 0.  0.
         13    1    3    3    0    0 -0.41247324043E+01 -0.53444693697E+02 -0.15924185655E+02  0.55919044650E+02  0.10566000000E+00 0. -1.
         22    1    1    0    0    0  0.11566424951E+02  0.26792545231E+02 -0.10309874783E+02  0.30950221067E+02  0.00000000000E+00 0.  1.
</event>
<event>
 5    1  0.1325686E-009  0.9118800E+02  0.7818608E-02  0.1130116E+00
         25   -1    0    0    0    0  0.00000000000E+00  0.00000000000E+00  0.99999998245E-14  0.12500000000E+03  0.12500000000E+03 0.  0.
        -13    1    3    3    0    0 -0.73415615086E+01  0.27952223870E+01 -0.57797047130E+02  0.58328566025E+02  0.10566000000E+00 0. -1.
         23    2    1    0    0    0  0.75075230237E+01  0.13117844346E+02 -0.24771123526E+02  0.95981914209E+02  0.91490319445E+02 0.  0.
         13    1    3    3    0    0  0.14849084532E+02  0.10322621959E+02  0.33025923604E+02  0.37653348184E+02  0.10566000000E+00 0.  1.
         22    1    1    0    0    0 -0.75075230237E+01 -0.13117844346E+02  0.24771123526E+02  0.29018085791E+02  0.00000000000E+00 0. -1.
</event>
<event>
 5    1  0.1325686E-009  0.9118800E+02  0.7818608E-02  0.1130116E+00
         25   -1    0    0    0    0  0.00000000000E+00  0.00000000000E+00  0.99999998245E-14  0.12500000000E+03  0.12500000000E+03 0.  0.
        -13    1    3    3    0    0 -0.33137619381E+01  0.79797178574E+01 -0.22925309283E+02  0.24499752755E+02  0.10566000000E+00 0. -1.
         23    2    1    0    0    0  0.16367776196E+02  0.28089177647E+02  0.27614568081E+02  0.82344749810E+02  0.70435697289E+02 0.  0.
         13    1    3    3    0    0  0.19681538134E+02  0.20109459789E+02  0.50539877364E+02  0.57844997056E+02  0.10566000000E+00 0.  1.
         22    1    1    0    0    0 -0.16367776196E+02 -0.28089177647E+02 -0.27614568081E+02  0.42655250190E+02  0.00000000000E+00 0.  1.
</event>
<event>
 5    1  0.1325686E-009  0.9118800E+02  0.7818608E-02  0.1130116E+00
         25   -1    0    0    0    0  0.00000000000E+00  0.00000000000E+00  0.99999998245E-14  0.12500000000E+03  0.12500000000E+03 0.  0.
        -13    1    3    3    0    0  0.12437921009E+02  0.33147611575E+02 -0.17661435351E+02  0.39565180334E+02  0.10566000000E+00 0. -1.
         23    2    1    0    0    0 -0.10810899936E+02 -0.18560530416E+02 -0.19069362532E+02  0.96277022541E+02  0.91892631017E+02 0.  0.
         13    1    3    3    0    0 -0.23248820945E+02 -0.51708141991E+02 -0.14079271806E+01  0.56711842207E+02  0.10566000000E+00 0.  1.
         22    1    1    0    0    0  0.10810899936E+02  0.18560530416E+02  0.19069362532E+02  0.28722977459E+02  0.00000000000E+00 0.  1.
</event>
<event>
 5    1  0.1325686E-009  0.9118800E+02  0.7818608E-02  0.1130116E+00
         25   -1    0    0    0    0  0.00000000000E+00  0.00000000000E+00  0.99999998245E-14  0.12500000000E+03  0.12500000000E+03 0.  0.
        -13    1    3    3    0    0  0.42525526795E+01 -0.75117265044E+01 -0.41978714403E+02  0.42857133203E+02  0.10566000000E+00 0.  1.
         23    2    1    0    0    0 -0.69785834475E+01 -0.27831172664E+02  0.55702644204E+01  0.95771543925E+02  0.91202445040E+02 0.  0.
         13    1    3    3    0    0 -0.11231136127E+02 -0.20319446160E+02  0.47548978824E+02  0.52914410723E+02  0.10566000000E+00 0. -1.
         22    1    1    0    0    0  0.69785834475E+01  0.27831172664E+02 -0.55702644204E+01  0.29228456075E+02  0.00000000000E+00 0. -1.
</event>
<event>
 5    1  0.1325686E-009  0.9118800E+02  0.7818608E-02  0.1130116E+00
         25   -1    0    0    0    0  0.00000000000E+00  0.00000000000E+00  0.99999998245E-14  0.12500000000E+03  0.12500000000E+03 0.  0.
        -13    1    3    3    0    0 -0.52933527684E+02  0.69114847268E+01  0.25627746935E+02  0.59215872460E+02  0.10566000000E+00 0.  1.
         23    2    1    0    0    0 -0.19614508483E+02 -0.66937211281E+01  0.20988241630E+02  0.95503540343E+02  0.90834382729E+02 0.  0.
         13    1    3    3    0    0  0.33319019201E+02 -0.13605205855E+02 -0.46395053048E+01  0.36287667883E+02  0.10566000000E+00 0. -1.
         22    1    1    0    0    0  0.19614508483E+02  0.66937211281E+01 -0.20988241630E+02  0.29496459657E+02  0.00000000000E+00 0.  1.
</event>
<event>
 5    1  0.1325686E-009  0.9118800E+02  0.7818608E-02  0.1130116E+00
         25   -1    0    0    0    0  0.00000000000E+00  0.00000000000E+00  0.99999998245E-14  0.12500000000E+03  0.12500000000E+03 0.  0.
        -13    1    3    3    0    0 -0.22048510208E+02 -0.16813406280E+02 -0.12572059609E+02  0.30444954918E+02  0.10566000000E+00 0.  1.
         23    2    1    0    0    0  0.62985621428E+01  0.32867236746E+02  0.68295286094E+01  0.90844918425E+02  0.84179745820E+02 0.  0.
         13    1    3    3    0    0  0.28347072350E+02  0.49680643025E+02  0.19401588219E+02  0.60399963507E+02  0.10566000000E+00 0. -1.
         22    1    1    0    0    0 -0.62985621428E+01 -0.32867236746E+02 -0.68295286094E+01  0.34155081575E+02  0.00000000000E+00 0. -1.
</event>
<event>
 5    1  0.1325686E-009  0.9118800E+02  0.7818608E-02  0.1130116E+00
         25   -1    0    0    0    0  0.00000000000E+00  0.00000000000E+00  0.99999998245E-14  0.12500000000E+03  0.12500000000E+03 0.  0.
        -13    1    3    3    0    0 -0.32123805119E+02  0.98981510549E+01  0.29349182549E+02  0.44623961388E+02  0.10566000000E+00 0. -1.
         23    2    1    0    0    0  0.69850657094E+01 -0.19583957334E+02  0.22974516823E+02  0.94013697363E+02  0.88760488625E+02 0.  0.
         13    1    3    3    0    0  0.39108870829E+02 -0.29482108389E+02 -0.63746657261E+01  0.49389735975E+02  0.10566000000E+00 0.  1.
         22    1    1    0    0    0 -0.69850657094E+01  0.19583957334E+02 -0.22974516823E+02  0.30986302637E+02  0.00000000000E+00 0.  1.
</event>
<event>
 5    1  0.1325686E-009  0.9118800E+02  0.7818608E-02  0.1130116E+00
         25   -1    0    0    0    0  0.00000000000E+00  0.00000000000E+00  0.99999998245E-14  0.12500000000E+03  0.12500000000E+03 0.  0.
        -13    1    3    3    0    0  0.51992725416E+01 -0.23072792580E+02 -0.30157511257E+02  0.38325876920E+02  0.10566000000E+00 0. -1.
         23    2    1    0    0    0  0.10014168846E+02 -0.56245768661E+01  0.25596597024E+02  0.96944604408E+02  0.92796288191E+02 0.  0.
         13    1    3    3    0    0  0.48148963045E+01  0.17448215714E+02  0.55754108282E+02  0.58618727488E+02  0.10566000000E+00 0.  1.
         22    1    1    0    0    0 -0.10014168846E+02  0.56245768661E+01 -0.25596597024E+02  0.28055395592E+02  0.00000000000E+00 0.  1.
</event>
<event>
 5    1  0.1325686E-009  0.9118800E+02  0.7818608E-02  0.1130116E+00
         25   -1    0    0    0    0  0.00000000000E+00  0.00000000000E+00  0.99999998245E-14  0.12500000000E+03  0.12500000000E+03 0.  0.
        -13    1    3    3    0    0  0.21297302832E+02 -0.53742481655E+02 -0.14049557606E+02  0.59491433629E+02  0.10566000000E+00 0. -1.
         23    2    1    0    0    0 -0.21961655295E+01 -0.26999934721E+02 -0.12616753641E+02  0.95116859429E+02  0.90300691344E+02 0.  0.
         13    1    3    3    0    0 -0.23493468362E+02  0.26742546934E+02  0.14328039650E+01  0.35625425800E+02  0.10566000000E+00 0.  1.
         22    1    1    0    0    0  0.21961655295E+01  0.26999934721E+02  0.12616753641E+02  0.29883140571E+02  0.00000000000E+00 0. -1.
</event>
<event>
 5    1  0.1325686E-009  0.9118800E+02  0.7818608E-02  0.1130116E+00
         25   -1    0    0    0    0  0.00000000000E+00  0.00000000000E+00  0.99999998245E-14  0.12500000000E+03  0.12500000000E+03 0.  0.
        -13    1    3    3    0    0 -0.13316223628E+02 -0.31193647410E+02  0.17088342212E+02  0.37978784262E+02  0.10566000000E+00 0.  1.
         23    2    1    0    0    0 -0.78471653519E+00  0.24472676683E+02  0.17267263152E+02  0.95038590473E+02  0.90192281368E+02 0.  0.
         13    1    3    3    0    0  0.12531507093E+02  0.55666324093E+02  0.17892094026E+00  0.57059806211E+02  0.10566000000E+00 0. -1.
         22    1    1    0    0    0  0.78471653519E+00 -0.24472676683E+02 -0.17267263152E+02  0.29961409527E+02  0.00000000000E+00 0. -1.
</event>
<event>
 5    1  0.1325686E-009  0.9118800E+02  0.7818608E-02  0.1130116E+00
         25   -1    0    0    0    0  0.00000000000E+00  0.00000000000E+00  0.99999998245E-14  0.12500000000E+03  0.12500000000E+03 0.  0.
        -13    1    3    3    0    0 -0.18537261680E+01 -0.41079260511E+02  0.16313612132E+02  0.44238976589E+02  0.10566000000E+00 0. -1.
         23    2    1    0    0    0  0.90309051249E+01  0.83084576186E+01  0.26471863846E+02  0.95822143827E+02  0.91271769769E+02 0.  0.
         13    1    3    3    0    0  0.10884631293E+02  0.49387718129E+02  0.10158251714E+02  0.51583167238E+02  0.10566000000E+00 0.  1.
         22    1    1    0    0    0 -0.90309051249E+01 -0.83084576186E+01 -0.26471863846E+02  0.29177856173E+02  0.00000000000E+00 0.  1.
</event>
<event>
 5    1  0.1325686E-009  0.9118800E+02  0.7818608E-02  0.1130116E+00
         25   -1    0    0    0    0  0.00000000000E+00  0.00000000000E+00  0.99999998245E-14  0.12500000000E+03  0.12500000000E+03 0.  0.
        -13    1    3    3    0    0 -0.20965563761E+02  0.32581845109E+02  0.68377601517E+01  0.39343330089E+02  0.10566000000E+00 0.  1.
         23    2    1    0    0    0 -0.16761152283E+02 -0.23650655869E+02  0.18408025552E+01  0.95953859070E+02  0.91451980664E+02 0.  0.
         13    1    3    3    0    0  0.42044114785E+01 -0.56232500979E+02 -0.49969575965E+01  0.56610528981E+02  0.10566000000E+00 0. -1.
         22    1    1    0    0    0  0.16761152283E+02  0.23650655869E+02 -0.18408025552E+01  0.29046140930E+02  0.00000000000E+00 0. -1.
</event>
<event>
 5    1  0.1325686E-009  0.9118800E+02  0.7818608E-02  0.1130116E+00
         25   -1    0    0    0    0  0.00000000000E+00  0.00000000000E+00  0.99999998245E-14  0.12500000000E+03  0.12500000000E+03 0.  0.
        -13    1    3    3    0    0  0.84251869883E+01 -0.39323087432E+02  0.10825727275E+02  0.41647287019E+02  0.10566000000E+00 0.  1.
         23    2    1    0    0    0 -0.27489532679E+02 -0.10741285192E+01  0.13845537086E+02  0.94201833558E+02  0.89025043609E+02 0.  0.
         13    1    3    3    0    0 -0.35914719667E+02  0.38248958912E+02  0.30198098106E+01  0.52554546540E+02  0.10566000000E+00 0. -1.
         22    1    1    0    0    0  0.27489532679E+02  0.10741285192E+01 -0.13845537086E+02  0.30798166442E+02  0.00000000000E+00 0. -1.
</event>
<event>
 5    1  0.1325686E-009  0.9118800E+02  0.7818608E-02  0.1130116E+00
         25   -1    0    0    0    0  0.00000000000E+00  0.00000000000E+00  0.99999998245E-14  0.12500000000E+03  0.12500000000E+03 0.  0.
        -13    1    3    3    0    0  0.39378017121E+02  0.30647338634E+02 -0.16189877984E+02  0.52459612188E+02  0.10566000000E+00 0. -1.
         23    2    1    0    0    0  0.12236379319E+02  0.13586119871E+00 -0.27556445839E+02  0.94848629477E+02  0.89928623748E+02 0.  0.
         13    1    3    3    0    0 -0.27141637802E+02 -0.30511477435E+02 -0.11366567856E+02  0.42389017289E+02  0.10566000000E+00 0.  1.
         22    1    1    0    0    0 -0.12236379319E+02 -0.13586119871E+00  0.27556445839E+02  0.30151370523E+02  0.00000000000E+00 0.  1.
</event>
<event>
 5    1  0.1325686E-009  0.9118800E+02  0.7818608E-02  0.1130116E+00
         25   -1    0    0    0    0  0.00000000000E+00  0.00000000000E+00  0.99999998245E-14  0.12500000000E+03  0.12500000000E+03 0.  0.
        -13    1    3    3    0    0 -0.11064546979E+02 -0.63025311874E+00  0.30855044301E+02  0.32785154289E+02  0.10566000000E+00 0. -1.
         23    2    1    0    0    0  0.10354809493E+02  0.12560914498E+02 -0.25640656431E+02  0.94628271125E+02  0.89621804162E+02 0.  0.
         13    1    3    3    0    0  0.21419356472E+02  0.13191167617E+02 -0.56495700732E+02  0.61843116836E+02  0.10566000000E+00 0.  1.
         22    1    1    0    0    0 -0.10354809493E+02 -0.12560914498E+02  0.25640656431E+02  0.30371728875E+02  0.00000000000E+00 0.  1.
</event>
<event>
 5    1  0.1325686E-009  0.9118800E+02  0.7818608E-02  0.1130116E+00
         25   -1    0    0    0    0  0.00000000000E+00  0.00000000000E+00  0.99999998245E-14  0.12500000000E+03  0.12500000000E+03 0.  0.
        -13    1    3    3    0    0 -0.24341972567E+02 -0.14871605033E+02 -0.50887162918E+02  0.58337044651E+02  0.10566000000E+00 0.  1.
         23    2    1    0    0    0 -0.32758234725E+01  0.46309809985E+01 -0.31535705112E+02  0.92958188233E+02  0.87261372085E+02 0.  0.
         13    1    3    3    0    0  0.21066149095E+02  0.19502586032E+02  0.19351457807E+02  0.34621143582E+02  0.10566000000E+00 0. -1.
         22    1    1    0    0    0  0.32758234725E+01 -0.46309809985E+01  0.31535705112E+02  0.32041811767E+02  0.00000000000E+00 0.  1.
</event>
<event>
 5    1  0.1325686E-009  0.9118800E+02  0.7818608E-02  0.1130116E+00
         25   -1    0    0    0    0  0.00000000000E+00  0.00000000000E+00  0.99999998245E-14  0.12500000000E+03  0.12500000000E+03 0.  0.
        -13    1    3    3    0    0 -0.14946860667E+02 -0.27969327105E+02 -0.14913182721E+02  0.35044344557E+02  0.10566000000E+00 0. -1.
         23    2    1    0    0    0  0.11261679362E+02 -0.40475768850E+02  0.18310025239E+02  0.79170202812E+02  0.64556569790E+02 0.  0.
         13    1    3    3    0    0  0.26208540029E+02 -0.12506441744E+02  0.33223207960E+02  0.44125858255E+02  0.10566000000E+00 0.  1.
         22    1    1    0    0    0 -0.11261679362E+02  0.40475768850E+02 -0.18310025239E+02  0.45829797188E+02  0.00000000000E+00 0.  1.
</event>
<event>
 5    1  0.1325686E-009  0.9118800E+02  0.7818608E-02  0.1130116E+00
         25   -1    0    0    0    0  0.00000000000E+00  0.00000000000E+00  0.99999998245E-14  0.12500000000E+03  0.12500000000E+03 0.  0.
        -13    1    3    3    0    0  0.28823830419E+02  0.28031223824E+02  0.42411786829E+02  0.58440855017E+02  0.10566000000E+00 0.  1.
         23    2    1    0    0    0  0.26735902364E+02  0.11144612421E+02  0.11287383592E+02  0.93912769671E+02  0.88618239757E+02 0.  0.
         13    1    3    3    0    0 -0.20879280554E+01 -0.16886611403E+02 -0.31124403238E+02  0.35471914653E+02  0.10566000000E+00 0. -1.
         22    1    1    0    0    0 -0.26735902364E+02 -0.11144612421E+02 -0.11287383592E+02  0.31087230329E+02  0.00000000000E+00 0.  1.
</event>
<event>
 5    1  0.1325686E-009  0.9118800E+02  0.7818608E-02  0.1130116E+00
         25   -1    0    0    0    0  0.00000000000E+00  0.00000000000E+00  0.99999998245E-14  0.12500000000E+03  0.12500000000E+03 0.  0.
        -13    1    3    3    0    0 -0.20275387533E+02 -0.39528597136E+02  0.77520304623E+01  0.45096634813E+02  0.10566000000E+00 0. -1.
         23    2    1    0    0    0 -0.80532703336E+01 -0.13928222993E+01  0.32040788210E+02  0.91933291272E+02  0.85780666924E+02 0.  0.
         13    1    3    3    0    0  0.12222117199E+02  0.38135774837E+02  0.24288757747E+02  0.46836656458E+02  0.10566000000E+00 0.  1.
         22    1    1    0    0    0  0.80532703336E+01  0.13928222993E+01 -0.32040788210E+02  0.33066708728E+02  0.00000000000E+00 0.  1.
</event>
<event>
 5    1  0.1325686E-009  0.9118800E+02  0.7818608E-02  0.1130116E+00
         25   -1    0    0    0    0  0.00000000000E+00  0.00000000000E+00  0.99999998245E-14  0.12500000000E+03  0.12500000000E+03 0.  0.
        -13    1    3    3    0    0 -0.57466259455E+02 -0.12817892999E+02 -0.10658624938E+01  0.58888170149E+02  0.10566000000E+00 0.  1.
         23    2    1    0    0    0 -0.27185296517E+02 -0.86229455619E+00  0.13594732493E+02  0.94592753328E+02  0.89572252020E+02 0.  0.
         13    1    3    3    0    0  0.30280962937E+02  0.11955598443E+02  0.14660594986E+02  0.35704583178E+02  0.10566000000E+00 0. -1.
         22    1    1    0    0    0  0.27185296517E+02  0.86229455619E+00 -0.13594732493E+02  0.30407246672E+02  0.00000000000E+00 0.  1.
</event>
<event>
 5    1  0.1325686E-009  0.9118800E+02  0.7818608E-02  0.1130116E+00
         25   -1    0    0    0    0  0.00000000000E+00  0.00000000000E+00  0.99999998245E-14  0.12500000000E+03  0.12500000000E+03 0.  0.
        -13    1    3    3    0    0 -0.28883204827E+02 -0.31186834200E+02 -0.19087542725E+02  0.46596175807E+02  0.10566000000E+00 0. -1.
         23    2    1    0    0    0  0.18831461861E+02 -0.15197782927E+02  0.10011997733E+01  0.10078019483E+03  0.97826625754E+02 0.  0.
         13    1    3    3    0    0  0.47714666688E+02  0.15989051274E+02  0.20088742499E+02  0.54184019018E+02  0.10566000000E+00 0.  1.
         22    1    1    0    0    0 -0.18831461861E+02  0.15197782927E+02 -0.10011997733E+01  0.24219805174E+02  0.00000000000E+00 0. -1.
</event>
<event>
 5    1  0.1325686E-009  0.9118800E+02  0.7818608E-02  0.1130116E+00
         25   -1    0    0    0    0  0.00000000000E+00  0.00000000000E+00  0.99999998245E-14  0.12500000000E+03  0.12500000000E+03 0.  0.
        -13    1    3    3    0    0 -0.84211588596E+01 -0.28751146425E+02  0.22316839816E+02  0.37357687839E+02  0.10566000000E+00 0. -1.
         23    2    1    0    0    0  0.28090770325E+02  0.75800151983E+01 -0.47098151553E+01  0.95525767751E+02  0.90864965404E+02 0.  0.
         13    1    3    3    0    0  0.36511929185E+02  0.36331161623E+02 -0.27026654972E+02  0.58168079912E+02  0.10566000000E+00 0.  1.
         22    1    1    0    0    0 -0.28090770325E+02 -0.75800151983E+01  0.47098151553E+01  0.29474232249E+02  0.00000000000E+00 0.  1.
</event>
<event>
 5    1  0.1325686E-009  0.9118800E+02  0.7818608E-02  0.1130116E+00
         25   -1    0    0    0    0  0.00000000000E+00  0.00000000000E+00  0.99999998245E-14  0.12500000000E+03  0.12500000000E+03 0.  0.
        -13    1    3    3    0    0  0.17772887149E+02  0.31732275401E+02 -0.69114577658E+01  0.37021510399E+02  0.10566000000E+00 0. -1.
         23    2    1    0    0    0 -0.29344305785E+02 -0.22025956588E+01  0.57342169481E+00  0.95567560039E+02  0.90922439528E+02 0.  0.
         13    1    3    3    0    0 -0.47117192934E+02 -0.33934871060E+02  0.74848794606E+01  0.58546049640E+02  0.10566000000E+00 0.  1.
         22    1    1    0    0    0  0.29344305785E+02  0.22025956588E+01 -0.57342169481E+00  0.29432439961E+02  0.00000000000E+00 0.  1.
</event>
<event>
 5    1  0.1325686E-009  0.9118800E+02  0.7818608E-02  0.1130116E+00
         25   -1    0    0    0    0  0.00000000000E+00  0.00000000000E+00  0.99999998245E-14  0.12500000000E+03  0.12500000000E+03 0.  0.
        -13    1    3    3    0    0  0.24454512331E+02  0.16554642029E+02  0.10868568647E+02  0.31467702403E+02  0.10566000000E+00 0. -1.
         23    2    1    0    0    0  0.11832631456E+02 -0.33351390833E+02 -0.11773474551E+02  0.87704676691E+02  0.79379904087E+02 0.  0.
         13    1    3    3    0    0 -0.12621880875E+02 -0.49906032863E+02 -0.22642043198E+02  0.56236974288E+02  0.10566000000E+00 0.  1.
         22    1    1    0    0    0 -0.11832631456E+02  0.33351390833E+02  0.11773474551E+02  0.37295323309E+02  0.00000000000E+00 0.  1.
</event>
<event>
 5    1  0.1325686E-009  0.9118800E+02  0.7818608E-02  0.1130116E+00
         25   -1    0    0    0    0  0.00000000000E+00  0.00000000000E+00  0.99999998245E-14  0.12500000000E+03  0.12500000000E+03 0.  0.
        -13    1    3    3    0    0 -0.43947385165E+01 -0.10372403609E+02  0.38831474533E+02  0.40432598998E+02  0.10566000000E+00 0.  1.
         23    2    1    0    0    0  0.19544562943E+02 -0.18655861915E+02 -0.10599171625E+02  0.95976327532E+02  0.91482686247E+02 0.  0.
         13    1    3    3    0    0  0.23939301459E+02 -0.82834583056E+01 -0.49430646158E+02  0.55543728534E+02  0.10566000000E+00 0. -1.
         22    1    1    0    0    0 -0.19544562943E+02  0.18655861915E+02  0.10599171625E+02  0.29023672468E+02  0.00000000000E+00 0. -1.
</event>
