<event>
 4    1  0.1956828E-002  0.9118800E+02  0.7818608E-02  0.1130116E+00
         25   -1    0    0    0    0  0.00000000000E+00  0.00000000000E+00  0.99999998245E-14  0.12500000000E+03  0.12500000000E+03 0.  0.
        -11    1    1    0    0    0  0.84497329933E+00  0.17440808359E+02  0.14922507667E+01  0.17524913372E+02  0.51100000000E-03 0. -1.
         11    1    1    0    0    0  0.71442255806E+00  0.44631346079E+02  0.55690128339E+01  0.44983123019E+02  0.51100000000E-03 0.  1.
         22    1    1    0    0    0 -0.15593958574E+01 -0.62072154438E+02 -0.70612636006E+01  0.62491963608E+02  0.00000000000E+00 0. -1.
</event>
<event>
 4    1  0.1956828E-002  0.9118800E+02  0.7818608E-02  0.1130116E+00
         25   -1    0    0    0    0  0.00000000000E+00  0.00000000000E+00  0.99999998245E-14  0.12500000000E+03  0.12500000000E+03 0.  0.
        -11    1    1    0    0    0  0.12829573797E+02 -0.12290499626E+02 -0.86777532335E+01  0.19772651474E+02  0.51100000000E-03 0.  1.
         11    1    1    0    0    0  0.24342921371E+02 -0.30621677819E+02 -0.17323559979E+02  0.42782831883E+02  0.51100000000E-03 0. -1.
         22    1    1    0    0    0 -0.37172495168E+02  0.42912177445E+02  0.26001313213E+02  0.62444516643E+02  0.00000000000E+00 0. -1.
</event>
<event>
 4    1  0.1956828E-002  0.9118800E+02  0.7818608E-02  0.1130116E+00
         25   -1    0    0    0    0  0.00000000000E+00  0.00000000000E+00  0.99999998245E-14  0.12500000000E+03  0.12500000000E+03 0.  0.
        -11    1    1    0    0    0 -0.16134639152E+02  0.36836838354E+01  0.14999807397E+02  0.22335853003E+02  0.51100000000E-03 0. -1.
         11    1    1    0    0    0 -0.29147177822E+02  0.61935160479E+01  0.26930980567E+02  0.40164602956E+02  0.51100000000E-03 0.  1.
         22    1    1    0    0    0  0.45281816974E+02 -0.98771998832E+01 -0.41930787964E+02  0.62499544041E+02  0.00000000000E+00 0.  1.
</event>
<event>
 4    1  0.1956828E-002  0.9118800E+02  0.7818608E-02  0.1130116E+00
         25   -1    0    0    0    0  0.00000000000E+00  0.00000000000E+00  0.99999998245E-14  0.12500000000E+03  0.12500000000E+03 0.  0.
        -11    1    1    0    0    0 -0.11824097803E+01 -0.11141853269E+02 -0.39844358002E+02  0.41389755399E+02  0.51100000000E-03 0. -1.
         11    1    1    0    0    0 -0.60311966232E+00 -0.56821240536E+01 -0.20322208052E+02  0.21110244609E+02  0.51100000000E-03 0.  1.
         22    1    1    0    0    0  0.17855294426E+01  0.16823977323E+02  0.60166566053E+02  0.62499999992E+02  0.00000000000E+00 0.  1.
</event>
<event>
 4    1  0.1956828E-002  0.9118800E+02  0.7818608E-02  0.1130116E+00
         25   -1    0    0    0    0  0.00000000000E+00  0.00000000000E+00  0.99999998245E-14  0.12500000000E+03  0.12500000000E+03 0.  0.
        -11    1    1    0    0    0  0.11480648565E+02 -0.11067148099E+02 -0.36968344394E+02  0.40260968021E+02  0.51100000000E-03 0. -1.
         11    1    1    0    0    0  0.61934955212E+01 -0.62019628882E+01 -0.20439191048E+02  0.22239250468E+02  0.51100000000E-03 0.  1.
         22    1    1    0    0    0 -0.17674144086E+02  0.17269110987E+02  0.57407535441E+02  0.62499781511E+02  0.00000000000E+00 0. -1.
</event>
<event>
 4    1  0.1956828E-002  0.9118800E+02  0.7818608E-02  0.1130116E+00
         25   -1    0    0    0    0  0.00000000000E+00  0.00000000000E+00  0.99999998245E-14  0.12500000000E+03  0.12500000000E+03 0.  0.
        -11    1    1    0    0    0 -0.33306754771E+02 -0.29701763021E+02  0.30990644679E+02  0.54331893928E+02  0.51100000000E-03 0.  1.
         11    1    1    0    0    0 -0.53468353922E+01 -0.35821884243E+00  0.69121888799E+01  0.87461605761E+01  0.51100000000E-03 0. -1.
         22    1    1    0    0    0  0.38653590163E+02  0.30059981864E+02 -0.37902833559E+02  0.61921945496E+02  0.00000000000E+00 0.  1.
</event>
<event>
 4    1  0.1956828E-002  0.9118800E+02  0.7818608E-02  0.1130116E+00
         25   -1    0    0    0    0  0.00000000000E+00  0.00000000000E+00  0.99999998245E-14  0.12500000000E+03  0.12500000000E+03 0.  0.
        -11    1    1    0    0    0  0.67854401836E+01 -0.51845394617E+01 -0.62520940122E+01  0.10583493172E+02  0.51100000000E-03 0. -1.
         11    1    1    0    0    0  0.32431720048E+02 -0.23238495369E+02 -0.33234107243E+02  0.51926390369E+02  0.51100000000E-03 0.  1.
         22    1    1    0    0    0 -0.39217160231E+02  0.28423034831E+02  0.39486201255E+02  0.62490116460E+02  0.00000000000E+00 0.  1.
</event>
<event>
 4    1  0.1956828E-002  0.9118800E+02  0.7818608E-02  0.1130116E+00
         25   -1    0    0    0    0  0.00000000000E+00  0.00000000000E+00  0.99999998245E-14  0.12500000000E+03  0.12500000000E+03 0.  0.
        -11    1    1    0    0    0 -0.23192745462E+02 -0.37045259828E+02 -0.22117330477E+02  0.48983987440E+02  0.51100000000E-03 0. -1.
         11    1    1    0    0    0 -0.72944340506E+01 -0.99750200747E+01 -0.55176848691E+01  0.13533463717E+02  0.51100000000E-03 0.  1.
         22    1    1    0    0    0  0.30487179513E+02  0.47020279903E+02  0.27635015346E+02  0.62482548843E+02  0.00000000000E+00 0. -1.
</event>
<event>
 4    1  0.1956828E-002  0.9118800E+02  0.7818608E-02  0.1130116E+00
         25   -1    0    0    0    0  0.00000000000E+00  0.00000000000E+00  0.99999998245E-14  0.12500000000E+03  0.12500000000E+03 0.  0.
        -11    1    1    0    0    0 -0.13941718848E+02 -0.29068067948E+02  0.64027860046E+01  0.32868218199E+02  0.51100000000E-03 0.  1.
         11    1    1    0    0    0 -0.12571092542E+02 -0.26205880085E+02  0.57673201572E+01  0.29631781938E+02  0.51100000000E-03 0. -1.
         22    1    1    0    0    0  0.26512811391E+02  0.55273948033E+02 -0.12170106162E+02  0.62499999864E+02  0.00000000000E+00 0.  1.
</event>
<event>
 4    1  0.1956828E-002  0.9118800E+02  0.7818608E-02  0.1130116E+00
         25   -1    0    0    0    0  0.00000000000E+00  0.00000000000E+00  0.99999998245E-14  0.12500000000E+03  0.12500000000E+03 0.  0.
        -11    1    1    0    0    0  0.10335338201E+02  0.25995479510E+02 -0.34692247538E+01  0.28188999474E+02  0.51100000000E-03 0.  1.
         11    1    1    0    0    0  0.12580248266E+02  0.31640714611E+02 -0.42246053683E+01  0.34311000544E+02  0.51100000000E-03 0. -1.
         22    1    1    0    0    0 -0.22915586467E+02 -0.57636194121E+02  0.76938301221E+01  0.62499999983E+02  0.00000000000E+00 0.  1.
</event>
<event>
 4    1  0.1956828E-002  0.9118800E+02  0.7818608E-02  0.1130116E+00
         25   -1    0    0    0    0  0.00000000000E+00  0.00000000000E+00  0.99999998245E-14  0.12500000000E+03  0.12500000000E+03 0.  0.
        -11    1    1    0    0    0 -0.98740327668E+01 -0.14324455415E+02 -0.69204251919E+01  0.18723750456E+02  0.51100000000E-03 0. -1.
         11    1    1    0    0    0 -0.23497333247E+02 -0.32927328450E+02 -0.16737559510E+02  0.43777614453E+02  0.51100000000E-03 0.  1.
         22    1    1    0    0    0  0.33371366014E+02  0.47251783866E+02  0.23657984702E+02  0.62498635091E+02  0.00000000000E+00 0.  1.
</event>
<event>
 4    1  0.1956828E-002  0.9118800E+02  0.7818608E-02  0.1130116E+00
         25   -1    0    0    0    0  0.00000000000E+00  0.00000000000E+00  0.99999998245E-14  0.12500000000E+03  0.12500000000E+03 0.  0.
        -11    1    1    0    0    0 -0.44789921929E+01  0.68494965737E+01 -0.10431722248E+02  0.13258876411E+02  0.51100000000E-03 0. -1.
         11    1    1    0    0    0 -0.16837016089E+02  0.21862539107E+02 -0.40804958799E+02  0.49259520803E+02  0.51100000000E-03 0.  1.
         22    1    1    0    0    0  0.21316008281E+02 -0.28712035681E+02  0.51236681046E+02  0.62481602785E+02  0.00000000000E+00 0.  1.
</event>
<event>
 4    1  0.1956828E-002  0.9118800E+02  0.7818608E-02  0.1130116E+00
         25   -1    0    0    0    0  0.00000000000E+00  0.00000000000E+00  0.99999998245E-14  0.12500000000E+03  0.12500000000E+03 0.  0.
        -11    1    1    0    0    0 -0.92982244823E+01  0.57709122001E+02 -0.24070049886E+01  0.58502935088E+02  0.51100000000E-03 0. -1.
         11    1    1    0    0    0 -0.93568956970E+00  0.38596627735E+01 -0.57222265943E+00  0.40124743898E+01  0.51100000000E-03 0.  1.
         22    1    1    0    0    0  0.10233914052E+02 -0.61568784774E+02  0.29792276480E+01  0.62484590522E+02  0.00000000000E+00 0. -1.
</event>
<event>
 4    1  0.1956828E-002  0.9118800E+02  0.7818608E-02  0.1130116E+00
         25   -1    0    0    0    0  0.00000000000E+00  0.00000000000E+00  0.99999998245E-14  0.12500000000E+03  0.12500000000E+03 0.  0.
        -11    1    1    0    0    0  0.91198846688E+01  0.83591428407E+01  0.54610082617E+00  0.12383286792E+02  0.51100000000E-03 0. -1.
         11    1    1    0    0    0  0.35866042689E+02  0.34976716849E+02  0.14933487814E+01  0.50119595275E+02  0.51100000000E-03 0.  1.
         22    1    1    0    0    0 -0.44985927358E+02 -0.43335859689E+02 -0.20394496076E+01  0.62497117933E+02  0.00000000000E+00 0.  1.
</event>
<event>
 4    1  0.1956828E-002  0.9118800E+02  0.7818608E-02  0.1130116E+00
         25   -1    0    0    0    0  0.00000000000E+00  0.00000000000E+00  0.99999998245E-14  0.12500000000E+03  0.12500000000E+03 0.  0.
        -11    1    1    0    0    0  0.82409742527E+01  0.11035337000E+02 -0.38729668721E+02  0.41105711998E+02  0.51100000000E-03 0. -1.
         11    1    1    0    0    0 -0.19401980908E+02  0.52044029253E+01 -0.16028194340E+02  0.25698748745E+02  0.51100000000E-03 0.  1.
         22    1    1    0    0    0  0.11161006655E+02 -0.16239739925E+02  0.54757863062E+02  0.58195539258E+02  0.00000000000E+00 0. -1.
</event>
<event>
 4    1  0.1956828E-002  0.9118800E+02  0.7818608E-02  0.1130116E+00
         25   -1    0    0    0    0  0.00000000000E+00  0.00000000000E+00  0.99999998245E-14  0.12500000000E+03  0.12500000000E+03 0.  0.
        -11    1    1    0    0    0  0.33338234551E+02 -0.45859867218E+02  0.20383656873E+02  0.60249969062E+02  0.51100000000E-03 0. -1.
         11    1    1    0    0    0  0.12574851704E+01 -0.17050246351E+01  0.75787164439E+00  0.22500550328E+01  0.51100000000E-03 0.  1.
         22    1    1    0    0    0 -0.34595719721E+02  0.47564891853E+02 -0.21141528517E+02  0.62499975905E+02  0.00000000000E+00 0. -1.
</event>
<event>
 4    1  0.1956828E-002  0.9118800E+02  0.7818608E-02  0.1130116E+00
         25   -1    0    0    0    0  0.00000000000E+00  0.00000000000E+00  0.99999998245E-14  0.12500000000E+03  0.12500000000E+03 0.  0.
        -11    1    1    0    0    0 -0.21036493987E+02 -0.33905789473E+02 -0.18856989073E+02  0.44133011184E+02  0.51100000000E-03 0. -1.
         11    1    1    0    0    0 -0.87649875037E+01 -0.14098602234E+02 -0.78581685715E+01  0.18366992254E+02  0.51100000000E-03 0.  1.
         22    1    1    0    0    0  0.29801481491E+02  0.48004391707E+02  0.26715157644E+02  0.62499996562E+02  0.00000000000E+00 0. -1.
</event>
<event>
 4    1  0.1956828E-002  0.9118800E+02  0.7818608E-02  0.1130116E+00
         25   -1    0    0    0    0  0.00000000000E+00  0.00000000000E+00  0.99999998245E-14  0.12500000000E+03  0.12500000000E+03 0.  0.
        -11    1    1    0    0    0  0.19747652919E+02  0.18776255629E+02 -0.31163718741E+02  0.41396798636E+02  0.51100000000E-03 0. -1.
         11    1    1    0    0    0  0.10067769671E+02  0.95709532057E+01 -0.15886534448E+02  0.21103201379E+02  0.51100000000E-03 0.  1.
         22    1    1    0    0    0 -0.29815422590E+02 -0.28347208835E+02  0.47050253189E+02  0.62499999985E+02  0.00000000000E+00 0. -1.
</event>
<event>
 4    1  0.1956828E-002  0.9118800E+02  0.7818608E-02  0.1130116E+00
         25   -1    0    0    0    0  0.00000000000E+00  0.00000000000E+00  0.99999998245E-14  0.12500000000E+03  0.12500000000E+03 0.  0.
        -11    1    1    0    0    0  0.68218886211E+01 -0.20365948143E+02  0.13419677967E+02  0.25325831973E+02  0.51100000000E-03 0. -1.
         11    1    1    0    0    0 -0.34914236108E+02  0.47985140110E+02 -0.68953035111E+01  0.59742135593E+02  0.51100000000E-03 0.  1.
         22    1    1    0    0    0  0.28092347487E+02 -0.27619191967E+02 -0.65243744562E+01  0.39932032434E+02  0.00000000000E+00 0.  1.
</event>
<event>
 4    1  0.1956828E-002  0.9118800E+02  0.7818608E-02  0.1130116E+00
         25   -1    0    0    0    0  0.00000000000E+00  0.00000000000E+00  0.99999998245E-14  0.12500000000E+03  0.12500000000E+03 0.  0.
        -11    1    1    0    0    0 -0.15642306099E+01  0.54029477195E+01 -0.80869702597E+01  0.98507740662E+01  0.51100000000E-03 0.  1.
         11    1    1    0    0    0 -0.83664216982E+01  0.28877015227E+02 -0.43221082525E+02  0.52649225971E+02  0.51100000000E-03 0. -1.
         22    1    1    0    0    0  0.99306523081E+01 -0.34279962947E+02  0.51308052784E+02  0.62499999963E+02  0.00000000000E+00 0.  1.
</event>
<event>
 4    1  0.1956828E-002  0.9118800E+02  0.7818608E-02  0.1130116E+00
         25   -1    0    0    0    0  0.00000000000E+00  0.00000000000E+00  0.99999998245E-14  0.12500000000E+03  0.12500000000E+03 0.  0.
        -11    1    1    0    0    0  0.32626135299E+01  0.90249968977E+01 -0.17289505201E+02  0.19774281439E+02  0.51100000000E-03 0.  1.
         11    1    1    0    0    0  0.69987644253E+01  0.19445554971E+02 -0.37394863533E+02  0.42725731480E+02  0.51100000000E-03 0. -1.
         22    1    1    0    0    0 -0.10261377955E+02 -0.28470551869E+02  0.54684368734E+02  0.62499987081E+02  0.00000000000E+00 0. -1.
</event>
<event>
 4    1  0.1956828E-002  0.9118800E+02  0.7818608E-02  0.1130116E+00
         25   -1    0    0    0    0  0.00000000000E+00  0.00000000000E+00  0.99999998245E-14  0.12500000000E+03  0.12500000000E+03 0.  0.
        -11    1    1    0    0    0 -0.11283898767E+02 -0.24143822824E+02 -0.14221882090E+02  0.30207821543E+02  0.51100000000E-03 0.  1.
         11    1    1    0    0    0 -0.11993930049E+02 -0.25840850452E+02 -0.15204678543E+02  0.32292199677E+02  0.51100000000E-03 0. -1.
         22    1    1    0    0    0  0.23277828816E+02  0.49984673276E+02  0.29426560633E+02  0.62499978780E+02  0.00000000000E+00 0. -1.
</event>
<event>
 4    1  0.1956828E-002  0.9118800E+02  0.7818608E-02  0.1130116E+00
         25   -1    0    0    0    0  0.00000000000E+00  0.00000000000E+00  0.99999998245E-14  0.12500000000E+03  0.12500000000E+03 0.  0.
        -11    1    1    0    0    0 -0.53521077486E+02 -0.19087044274E+02 -0.22780420671E+02  0.61219021232E+02  0.51100000000E-03 0.  1.
         11    1    1    0    0    0  0.36578977620E+01  0.64881527487E+01 -0.19808074814E+00  0.74508776914E+01  0.51100000000E-03 0. -1.
         22    1    1    0    0    0  0.49863179724E+02  0.12598891526E+02  0.22978501420E+02  0.56330101077E+02  0.00000000000E+00 0.  1.
</event>
<event>
 4    1  0.1956828E-002  0.9118800E+02  0.7818608E-02  0.1130116E+00
         25   -1    0    0    0    0  0.00000000000E+00  0.00000000000E+00  0.99999998245E-14  0.12500000000E+03  0.12500000000E+03 0.  0.
        -11    1    1    0    0    0  0.18380568118E+01 -0.20948869797E+00 -0.38363736258E+01  0.42591197701E+01  0.51100000000E-03 0. -1.
         11    1    1    0    0    0  0.25119002409E+02 -0.29776701147E+01 -0.52461126310E+02  0.58240884053E+02  0.51100000000E-03 0.  1.
         22    1    1    0    0    0 -0.26957059221E+02  0.31871588126E+01  0.56297499935E+02  0.62499996177E+02  0.00000000000E+00 0.  1.
</event>
<event>
 4    1  0.1956828E-002  0.9118800E+02  0.7818608E-02  0.1130116E+00
         25   -1    0    0    0    0  0.00000000000E+00  0.00000000000E+00  0.99999998245E-14  0.12500000000E+03  0.12500000000E+03 0.  0.
        -11    1    1    0    0    0  0.28191978354E+01 -0.14122243467E+01 -0.14332397156E+01  0.34635863471E+01  0.51100000000E-03 0.  1.
         11    1    1    0    0    0  0.48025221195E+02 -0.24069716062E+02 -0.24485202562E+02  0.59036414584E+02  0.51100000000E-03 0. -1.
         22    1    1    0    0    0 -0.50844419031E+02  0.25481940409E+02  0.25918442277E+02  0.62499999069E+02  0.00000000000E+00 0. -1.
</event>
<event>
 4    1  0.1956828E-002  0.9118800E+02  0.7818608E-02  0.1130116E+00
         25   -1    0    0    0    0  0.00000000000E+00  0.00000000000E+00  0.99999998245E-14  0.12500000000E+03  0.12500000000E+03 0.  0.
        -11    1    1    0    0    0  0.42158978485E+02 -0.28606845968E+02 -0.12891534710E+01  0.50964625183E+02  0.51100000000E-03 0.  1.
         11    1    1    0    0    0  0.85490042401E+01 -0.78145005161E+01  0.62777600268E+00  0.11599396311E+02  0.51100000000E-03 0. -1.
         22    1    1    0    0    0 -0.50707982725E+02  0.36421346484E+02  0.66137746834E+00  0.62435978505E+02  0.00000000000E+00 0.  1.
</event>
<event>
 4    1  0.1956828E-002  0.9118800E+02  0.7818608E-02  0.1130116E+00
         25   -1    0    0    0    0  0.00000000000E+00  0.00000000000E+00  0.99999998245E-14  0.12500000000E+03  0.12500000000E+03 0.  0.
        -11    1    1    0    0    0  0.52020679943E+01 -0.11219880173E+02 -0.10210764126E+02  0.16037672113E+02  0.51100000000E-03 0. -1.
         11    1    1    0    0    0  0.15275947109E+02 -0.33284982381E+02 -0.28595654404E+02  0.46464567826E+02  0.51100000000E-03 0.  1.
         22    1    1    0    0    0 -0.20478015104E+02  0.44504862554E+02  0.38806418530E+02  0.62497760061E+02  0.00000000000E+00 0.  1.
</event>
<event>
 4    1  0.1956828E-002  0.9118800E+02  0.7818608E-02  0.1130116E+00
         25   -1    0    0    0    0  0.00000000000E+00  0.00000000000E+00  0.99999998245E-14  0.12500000000E+03  0.12500000000E+03 0.  0.
        -11    1    1    0    0    0 -0.76311205485E+00  0.24069562942E+02 -0.15123419632E+01  0.24129098175E+02  0.51100000000E-03 0.  1.
         11    1    1    0    0    0 -0.12230229528E+01  0.38275149027E+02 -0.24172992666E+01  0.38370902442E+02  0.51100000000E-03 0. -1.
         22    1    1    0    0    0  0.19861350076E+01 -0.62344711969E+02  0.39296412298E+01  0.62499999384E+02  0.00000000000E+00 0. -1.
</event>
<event>
 4    1  0.1956828E-002  0.9118800E+02  0.7818608E-02  0.1130116E+00
         25   -1    0    0    0    0  0.00000000000E+00  0.00000000000E+00  0.99999998245E-14  0.12500000000E+03  0.12500000000E+03 0.  0.
        -11    1    1    0    0    0  0.50871824123E+00 -0.22659787788E+02  0.11410959245E+02  0.25375869798E+02  0.51100000000E-03 0.  1.
         11    1    1    0    0    0  0.26203914905E-01 -0.32699311117E+02  0.17585873592E+02  0.37128272037E+02  0.51100000000E-03 0. -1.
         22    1    1    0    0    0 -0.53492215614E+00  0.55359098905E+02 -0.28996832837E+02  0.62495858166E+02  0.00000000000E+00 0. -1.
</event>
<event>
 4    1  0.1956828E-002  0.9118800E+02  0.7818608E-02  0.1130116E+00
         25   -1    0    0    0    0  0.00000000000E+00  0.00000000000E+00  0.99999998245E-14  0.12500000000E+03  0.12500000000E+03 0.  0.
        -11    1    1    0    0    0  0.40395407498E+02  0.31853868161E-01  0.19554196922E+01  0.40442720334E+02  0.51100000000E-03 0. -1.
         11    1    1    0    0    0  0.22031337670E+02  0.17812193695E-01  0.10693138228E+01  0.22057279731E+02  0.51100000000E-03 0.  1.
         22    1    1    0    0    0 -0.62426745168E+02 -0.49666061856E-01 -0.30247335150E+01  0.62499999935E+02  0.00000000000E+00 0. -1.
</event>
<event>
 4    1  0.1956828E-002  0.9118800E+02  0.7818608E-02  0.1130116E+00
         25   -1    0    0    0    0  0.00000000000E+00  0.00000000000E+00  0.99999998245E-14  0.12500000000E+03  0.12500000000E+03 0.  0.
        -11    1    1    0    0    0 -0.25456023839E+02  0.10511267095E+02  0.20034999013E+02  0.34057261653E+02  0.51100000000E-03 0.  1.
         11    1    1    0    0    0 -0.21286119781E+02  0.85606339689E+01  0.16811330771E+02  0.28442998995E+02  0.51100000000E-03 0. -1.
         22    1    1    0    0    0  0.46742143620E+02 -0.19071901064E+02 -0.36846329784E+02  0.62499739351E+02  0.00000000000E+00 0.  1.
</event>
<event>
 4    1  0.1956828E-002  0.9118800E+02  0.7818608E-02  0.1130116E+00
         25   -1    0    0    0    0  0.00000000000E+00  0.00000000000E+00  0.99999998245E-14  0.12500000000E+03  0.12500000000E+03 0.  0.
        -11    1    1    0    0    0 -0.27447285660E+02 -0.38827157372E+01  0.28892914111E+02  0.40040347871E+02  0.51100000000E-03 0.  1.
         11    1    1    0    0    0  0.94600442560E+00  0.10039617737E+02  0.23694469215E+02  0.25751052801E+02  0.51100000000E-03 0. -1.
         22    1    1    0    0    0  0.26501281234E+02 -0.61569020001E+01 -0.52587383326E+02  0.59208599328E+02  0.00000000000E+00 0.  1.
</event>
<event>
 4    1  0.1956828E-002  0.9118800E+02  0.7818608E-02  0.1130116E+00
         25   -1    0    0    0    0  0.00000000000E+00  0.00000000000E+00  0.99999998245E-14  0.12500000000E+03  0.12500000000E+03 0.  0.
        -11    1    1    0    0    0 -0.33409864412E+02 -0.30318210645E+02 -0.23729973130E+02  0.50975725221E+02  0.51100000000E-03 0.  1.
         11    1    1    0    0    0 -0.75497286415E+01 -0.68561362586E+01 -0.53669274576E+01  0.11524275142E+02  0.51100000000E-03 0. -1.
         22    1    1    0    0    0  0.40959593053E+02  0.37174346904E+02  0.29096900588E+02  0.62499999637E+02  0.00000000000E+00 0.  1.
</event>
<event>
 4    1  0.1956828E-002  0.9118800E+02  0.7818608E-02  0.1130116E+00
         25   -1    0    0    0    0  0.00000000000E+00  0.00000000000E+00  0.99999998245E-14  0.12500000000E+03  0.12500000000E+03 0.  0.
        -11    1    1    0    0    0 -0.50562280947E+01  0.23455040685E+02  0.12780893739E+02  0.27185577446E+02  0.51100000000E-03 0. -1.
         11    1    1    0    0    0 -0.65677789381E+01  0.30471169707E+02  0.16597606571E+02  0.35314422657E+02  0.51100000000E-03 0.  1.
         22    1    1    0    0    0  0.11624007033E+02 -0.53926210391E+02 -0.29378500310E+02  0.62499999897E+02  0.00000000000E+00 0.  1.
</event>
<event>
 4    1  0.1956828E-002  0.9118800E+02  0.7818608E-02  0.1130116E+00
         25   -1    0    0    0    0  0.00000000000E+00  0.00000000000E+00  0.99999998245E-14  0.12500000000E+03  0.12500000000E+03 0.  0.
        -11    1    1    0    0    0  0.38854793388E+02 -0.15269772299E+02 -0.27685092899E+02  0.50093166044E+02  0.51100000000E-03 0.  1.
         11    1    1    0    0    0  0.96566464063E+01 -0.37353132062E+01 -0.68357617406E+01  0.12406894188E+02  0.51100000000E-03 0. -1.
         22    1    1    0    0    0 -0.48511439794E+02  0.19005085505E+02  0.34520854639E+02  0.62499939768E+02  0.00000000000E+00 0.  1.
</event>
<event>
 4    1  0.1956828E-002  0.9118800E+02  0.7818608E-02  0.1130116E+00
         25   -1    0    0    0    0  0.00000000000E+00  0.00000000000E+00  0.99999998245E-14  0.12500000000E+03  0.12500000000E+03 0.  0.
        -11    1    1    0    0    0 -0.47597093201E+02 -0.12397119381E+00  0.18497014722E+01  0.47633182193E+02  0.51100000000E-03 0.  1.
         11    1    1    0    0    0 -0.14849797550E+02 -0.65674551928E-01  0.71330863700E+00  0.14867064602E+02  0.51100000000E-03 0. -1.
         22    1    1    0    0    0  0.62446890750E+02  0.18964574573E+00 -0.25630101092E+01  0.62499753205E+02  0.00000000000E+00 0.  1.
</event>
<event>
 4    1  0.1956828E-002  0.9118800E+02  0.7818608E-02  0.1130116E+00
         25   -1    0    0    0    0  0.00000000000E+00  0.00000000000E+00  0.99999998245E-14  0.12500000000E+03  0.12500000000E+03 0.  0.
        -11    1    1    0    0    0 -0.14806365842E+00  0.14998483747E+02 -0.34437642428E+01  0.15389475299E+02  0.51100000000E-03 0. -1.
         11    1    1    0    0    0  0.26632507851E+01  0.46533089329E+02 -0.70515287154E+01  0.47139636875E+02  0.51100000000E-03 0.  1.
         22    1    1    0    0    0 -0.25151871267E+01 -0.61531573076E+02  0.10495292958E+02  0.62470887826E+02  0.00000000000E+00 0.  1.
</event>
<event>
 4    1  0.1956828E-002  0.9118800E+02  0.7818608E-02  0.1130116E+00
         25   -1    0    0    0    0  0.00000000000E+00  0.00000000000E+00  0.99999998245E-14  0.12500000000E+03  0.12500000000E+03 0.  0.
        -11    1    1    0    0    0  0.26413353539E+02  0.25701529515E+02  0.49238511515E+02  0.61503372924E+02  0.51100000000E-03 0.  1.
         11    1    1    0    0    0  0.42021594954E+00  0.39849505259E+00  0.81127240878E+00  0.99676623817E+00  0.51100000000E-03 0. -1.
         22    1    1    0    0    0 -0.26833569488E+02 -0.26100024567E+02 -0.50049783924E+02  0.62499860838E+02  0.00000000000E+00 0.  1.
</event>
<event>
 4    1  0.1956828E-002  0.9118800E+02  0.7818608E-02  0.1130116E+00
         25   -1    0    0    0    0  0.00000000000E+00  0.00000000000E+00  0.99999998245E-14  0.12500000000E+03  0.12500000000E+03 0.  0.
        -11    1    1    0    0    0  0.24902506981E+02  0.60583919223E+01 -0.68994062764E+01  0.26541303168E+02  0.51100000000E-03 0.  1.
         11    1    1    0    0    0  0.33737994666E+02  0.82104247901E+01 -0.93468989448E+01  0.35958696854E+02  0.51100000000E-03 0.  1.
         22    1    1    0    0    0 -0.58640501647E+02 -0.14268816712E+02  0.16246305221E+02  0.62499999977E+02  0.00000000000E+00 0.  1.
</event>
<event>
 4    1  0.1956828E-002  0.9118800E+02  0.7818608E-02  0.1130116E+00
         25   -1    0    0    0    0  0.00000000000E+00  0.00000000000E+00  0.99999998245E-14  0.12500000000E+03  0.12500000000E+03 0.  0.
        -11    1    1    0    0    0  0.26612816602E+01  0.11150473998E+02 -0.54812017103E+00  0.11476755920E+02  0.51100000000E-03 0.  1.
         11    1    1    0    0    0  0.11831104953E+02  0.49572852715E+02 -0.24348853344E+01  0.51023244091E+02  0.51100000000E-03 0. -1.
         22    1    1    0    0    0 -0.14492386614E+02 -0.60723326713E+02  0.29830055054E+01  0.62499999989E+02  0.00000000000E+00 0. -1.
</event>
<event>
 4    1  0.1956828E-002  0.9118800E+02  0.7818608E-02  0.1130116E+00
         25   -1    0    0    0    0  0.00000000000E+00  0.00000000000E+00  0.99999998245E-14  0.12500000000E+03  0.12500000000E+03 0.  0.
        -11    1    1    0    0    0 -0.37461519494E+01  0.15054755929E+01 -0.24483056881E+01  0.47216853127E+01  0.51100000000E-03 0. -1.
         11    1    1    0    0    0 -0.45841547052E+02  0.18422432781E+02 -0.29958307428E+02  0.57778314703E+02  0.51100000000E-03 0. -1.
         22    1    1    0    0    0  0.49587699002E+02 -0.19927908374E+02  0.32406613116E+02  0.62499999984E+02  0.00000000000E+00 0. -1.
</event>
<event>
 4    1  0.1956828E-002  0.9118800E+02  0.7818608E-02  0.1130116E+00
         25   -1    0    0    0    0  0.00000000000E+00  0.00000000000E+00  0.99999998245E-14  0.12500000000E+03  0.12500000000E+03 0.  0.
        -11    1    1    0    0    0  0.16649878702E+02 -0.23604682768E+01 -0.78706536646E+01  0.18567106954E+02  0.51100000000E-03 0.  1.
         11    1    1    0    0    0  0.39395159129E+02 -0.55846611767E+01 -0.18626113117E+02  0.43932893068E+02  0.51100000000E-03 0. -1.
         22    1    1    0    0    0 -0.56045037830E+02  0.79451294535E+01  0.26496766781E+02  0.62499999978E+02  0.00000000000E+00 0.  1.
</event>
<event>
 4    1  0.1956828E-002  0.9118800E+02  0.7818608E-02  0.1130116E+00
         25   -1    0    0    0    0  0.00000000000E+00  0.00000000000E+00  0.99999998245E-14  0.12500000000E+03  0.12500000000E+03 0.  0.
        -11    1    1    0    0    0 -0.10558173547E+02  0.17203120812E+02 -0.18166352543E+02  0.27155823672E+02  0.51100000000E-03 0.  1.
         11    1    1    0    0    0 -0.13743628600E+02  0.22389729975E+02 -0.23643677078E+02  0.35344176344E+02  0.51100000000E-03 0.  1.
         22    1    1    0    0    0  0.24301802147E+02 -0.39592850787E+02  0.41810029621E+02  0.62499999984E+02  0.00000000000E+00 0.  1.
</event>
<event>
 4    1  0.1956828E-002  0.9118800E+02  0.7818608E-02  0.1130116E+00
         25   -1    0    0    0    0  0.00000000000E+00  0.00000000000E+00  0.99999998245E-14  0.12500000000E+03  0.12500000000E+03 0.  0.
        -11    1    1    0    0    0 -0.26442832092E+02  0.91953091760E+01 -0.98697939221E+01  0.29684843140E+02  0.51100000000E-03 0. -1.
         11    1    1    0    0    0 -0.29013718971E+02  0.10315381587E+02 -0.11344285650E+02  0.32816090611E+02  0.51100000000E-03 0.  1.
         22    1    1    0    0    0  0.55456551064E+02 -0.19510690763E+02  0.21214079572E+02  0.62499066249E+02  0.00000000000E+00 0.  1.
</event>
<event>
 4    1  0.1956828E-002  0.9118800E+02  0.7818608E-02  0.1130116E+00
         25   -1    0    0    0    0  0.00000000000E+00  0.00000000000E+00  0.99999998245E-14  0.12500000000E+03  0.12500000000E+03 0.  0.
        -11    1    1    0    0    0 -0.16261550071E+01 -0.19897926252E+01  0.25507432460E+02  0.25636551362E+02  0.51100000000E-03 0. -1.
         11    1    1    0    0    0  0.43823396319E+01  0.42579817003E+02 -0.37543950920E+02  0.56936754101E+02  0.51100000000E-03 0.  1.
         22    1    1    0    0    0 -0.27561846248E+01 -0.40590024377E+02  0.12036518461E+02  0.42426694536E+02  0.00000000000E+00 0.  1.
</event>
<event>
 4    1  0.1956828E-002  0.9118800E+02  0.7818608E-02  0.1130116E+00
         25   -1    0    0    0    0  0.00000000000E+00  0.00000000000E+00  0.99999998245E-14  0.12500000000E+03  0.12500000000E+03 0.  0.
        -11    1    1    0    0    0  0.79552106914E+00  0.11125450524E+02 -0.38746418504E+01  0.11807681943E+02  0.51100000000E-03 0.  1.
         11    1    1    0    0    0  0.33048165310E+01  0.47809240554E+02 -0.16524778490E+02  0.50692342608E+02  0.51100000000E-03 0. -1.
         22    1    1    0    0    0 -0.41003376001E+01 -0.58934691078E+02  0.20399420341E+02  0.62499975449E+02  0.00000000000E+00 0. -1.
</event>
<event>
 4    1  0.1956828E-002  0.9118800E+02  0.7818608E-02  0.1130116E+00
         25   -1    0    0    0    0  0.00000000000E+00  0.00000000000E+00  0.99999998245E-14  0.12500000000E+03  0.12500000000E+03 0.  0.
        -11    1    1    0    0    0 -0.13545859455E+02 -0.33779603515E+01 -0.25105947384E+02  0.28726460255E+02  0.51100000000E-03 0.  1.
         11    1    1    0    0    0 -0.14681874147E+02 -0.38555910281E+01 -0.30177607678E+02  0.33780334753E+02  0.51100000000E-03 0. -1.
         22    1    1    0    0    0  0.28227733602E+02  0.72335513796E+01  0.55283555061E+02  0.62493204991E+02  0.00000000000E+00 0.  1.
</event>
<event>
 4    1  0.1956828E-002  0.9118800E+02  0.7818608E-02  0.1130116E+00
         25   -1    0    0    0    0  0.00000000000E+00  0.00000000000E+00  0.99999998245E-14  0.12500000000E+03  0.12500000000E+03 0.  0.
        -11    1    1    0    0    0 -0.14462187587E+02  0.25350162084E+02 -0.48242459562E+02  0.56383689950E+02  0.51100000000E-03 0.  1.
         11    1    1    0    0    0 -0.15590746578E+01  0.27521914551E+01 -0.52348852279E+01  0.61163138575E+01  0.51100000000E-03 0. -1.
         22    1    1    0    0    0  0.16021262245E+02 -0.28102353539E+02  0.53477344790E+02  0.62499996193E+02  0.00000000000E+00 0.  1.
</event>
<event>
 4    1  0.1956828E-002  0.9118800E+02  0.7818608E-02  0.1130116E+00
         25   -1    0    0    0    0  0.00000000000E+00  0.00000000000E+00  0.99999998245E-14  0.12500000000E+03  0.12500000000E+03 0.  0.
        -11    1    1    0    0    0  0.24938306895E+02  0.48038610079E+02 -0.37990107330E+01  0.54259189930E+02  0.51100000000E-03 0. -1.
         11    1    1    0    0    0  0.37983350228E+01  0.72911193373E+01 -0.56856986122E+00  0.82408156201E+01  0.51100000000E-03 0.  1.
         22    1    1    0    0    0 -0.28736641917E+02 -0.55329729416E+02  0.43675805942E+01  0.62499994450E+02  0.00000000000E+00 0. -1.
</event>
<event>
 4    1  0.1956828E-002  0.9118800E+02  0.7818608E-02  0.1130116E+00
         25   -1    0    0    0    0  0.00000000000E+00  0.00000000000E+00  0.99999998245E-14  0.12500000000E+03  0.12500000000E+03 0.  0.
        -11    1    1    0    0    0  0.12285258507E+02 -0.38176118914E+01 -0.15068134358E+02  0.19812884960E+02  0.51100000000E-03 0.  1.
         11    1    1    0    0    0 -0.20989197563E+02 -0.44766808341E+02  0.24109363186E+02  0.55007953397E+02  0.51100000000E-03 0. -1.
         22    1    1    0    0    0  0.87039390559E+01  0.48584420233E+02 -0.90412288278E+01  0.50179161643E+02  0.00000000000E+00 0.  1.
</event>
<event>
 4    1  0.1956828E-002  0.9118800E+02  0.7818608E-02  0.1130116E+00
         25   -1    0    0    0    0  0.00000000000E+00  0.00000000000E+00  0.99999998245E-14  0.12500000000E+03  0.12500000000E+03 0.  0.
        -11    1    1    0    0    0  0.18573000797E+02  0.37191209057E+02  0.35127624949E+02  0.54425108402E+02  0.51100000000E-03 0. -1.
         11    1    1    0    0    0  0.27367362029E+01  0.55483152875E+01  0.51895201293E+01  0.80749394429E+01  0.51100000000E-03 0.  1.
         22    1    1    0    0    0 -0.21309737000E+02 -0.42739524345E+02 -0.40317145078E+02  0.62499952155E+02  0.00000000000E+00 0. -1.
</event>
<event>
 4    1  0.1956828E-002  0.9118800E+02  0.7818608E-02  0.1130116E+00
         25   -1    0    0    0    0  0.00000000000E+00  0.00000000000E+00  0.99999998245E-14  0.12500000000E+03  0.12500000000E+03 0.  0.
        -11    1    1    0    0    0  0.60518615014E+02 -0.13909706493E+02  0.28796201405E+01  0.62163292307E+02  0.51100000000E-03 0.  1.
         11    1    1    0    0    0  0.26502154627E+00 -0.20535759702E+00  0.13850552692E+00  0.36275639863E+00  0.51100000000E-03 0. -1.
         22    1    1    0    0    0 -0.60783636561E+02  0.14115064090E+02 -0.30181256674E+01  0.62473951295E+02  0.00000000000E+00 0.  1.
</event>
<event>
 4    1  0.1956828E-002  0.9118800E+02  0.7818608E-02  0.1130116E+00
         25   -1    0    0    0    0  0.00000000000E+00  0.00000000000E+00  0.99999998245E-14  0.12500000000E+03  0.12500000000E+03 0.  0.
        -11    1    1    0    0    0 -0.58260759448E+01 -0.10005685197E+02  0.15008040308E+02  0.18955162129E+02  0.51100000000E-03 0.  1.
         11    1    1    0    0    0 -0.13280547094E+02 -0.23084484048E+02  0.34451266713E+02  0.43544874707E+02  0.51100000000E-03 0. -1.
         22    1    1    0    0    0  0.19106623039E+02  0.33090169245E+02 -0.49459307020E+02  0.62499963164E+02  0.00000000000E+00 0. -1.
</event>
<event>
 4    1  0.1956828E-002  0.9118800E+02  0.7818608E-02  0.1130116E+00
         25   -1    0    0    0    0  0.00000000000E+00  0.00000000000E+00  0.99999998245E-14  0.12500000000E+03  0.12500000000E+03 0.  0.
        -11    1    1    0    0    0 -0.70819917248E+01  0.12396043720E+02 -0.29325543684E+02  0.32616008635E+02  0.51100000000E-03 0.  1.
         11    1    1    0    0    0 -0.64887569803E+01  0.11356664922E+02 -0.26869594990E+02  0.29883991374E+02  0.51100000000E-03 0. -1.
         22    1    1    0    0    0  0.13570748705E+02 -0.23752708642E+02  0.56195138673E+02  0.62499999990E+02  0.00000000000E+00 0.  1.
</event>
<event>
 4    1  0.1956828E-002  0.9118800E+02  0.7818608E-02  0.1130116E+00
         25   -1    0    0    0    0  0.00000000000E+00  0.00000000000E+00  0.99999998245E-14  0.12500000000E+03  0.12500000000E+03 0.  0.
        -11    1    1    0    0    0  0.41722117375E+02  0.11244858692E+02  0.27136192597E+02  0.51025041638E+02  0.51100000000E-03 0. -1.
         11    1    1    0    0    0  0.92359111687E+01  0.38006459776E+01  0.57147855425E+01  0.11506769269E+02  0.51100000000E-03 0.  1.
         22    1    1    0    0    0 -0.50958028543E+02 -0.15045504669E+02 -0.32850978140E+02  0.62468189093E+02  0.00000000000E+00 0. -1.
</event>
<event>
 4    1  0.1956828E-002  0.9118800E+02  0.7818608E-02  0.1130116E+00
         25   -1    0    0    0    0  0.00000000000E+00  0.00000000000E+00  0.99999998245E-14  0.12500000000E+03  0.12500000000E+03 0.  0.
        -11    1    1    0    0    0 -0.30230626697E+02  0.24828071897E+02 -0.61098607751E+01  0.39593614935E+02  0.51100000000E-03 0. -1.
         11    1    1    0    0    0 -0.17647457556E+02  0.14135932621E+02 -0.36708805523E+01  0.22907045063E+02  0.51100000000E-03 0.  1.
         22    1    1    0    0    0  0.47878084253E+02 -0.38964004518E+02  0.97807413274E+01  0.62499340002E+02  0.00000000000E+00 0. -1.
</event>
<event>
 4    1  0.1956828E-002  0.9118800E+02  0.7818608E-02  0.1130116E+00
         25   -1    0    0    0    0  0.00000000000E+00  0.00000000000E+00  0.99999998245E-14  0.12500000000E+03  0.12500000000E+03 0.  0.
        -11    1    1    0    0    0  0.11641648378E+02 -0.26142995518E+01  0.10210628812E+02  0.15704123029E+02  0.51100000000E-03 0.  1.
         11    1    1    0    0    0  0.82893972951E+01  0.49113837502E+02  0.16003936835E+02  0.52316432754E+02  0.51100000000E-03 0. -1.
         22    1    1    0    0    0 -0.19931045673E+02 -0.46499537950E+02 -0.26214565647E+02  0.56979444217E+02  0.00000000000E+00 0. -1.
</event>
<event>
 4    1  0.1956828E-002  0.9118800E+02  0.7818608E-02  0.1130116E+00
         25   -1    0    0    0    0  0.00000000000E+00  0.00000000000E+00  0.99999998245E-14  0.12500000000E+03  0.12500000000E+03 0.  0.
        -11    1    1    0    0    0 -0.94231311708E+00 -0.44655682776E+02  0.66455588476E+01  0.45157296319E+02  0.51100000000E-03 0. -1.
         11    1    1    0    0    0 -0.35978590316E+00 -0.17149070377E+02  0.25591657839E+01  0.17342704243E+02  0.51100000000E-03 0.  1.
         22    1    1    0    0    0  0.13020990202E+01  0.61804753153E+02 -0.92047246315E+01  0.62499999438E+02  0.00000000000E+00 0. -1.
</event>
<event>
 4    1  0.1956828E-002  0.9118800E+02  0.7818608E-02  0.1130116E+00
         25   -1    0    0    0    0  0.00000000000E+00  0.00000000000E+00  0.99999998245E-14  0.12500000000E+03  0.12500000000E+03 0.  0.
        -11    1    1    0    0    0  0.17779429809E+01  0.17063024698E+01 -0.19659568088E+01  0.31523857310E+01  0.51100000000E-03 0. -1.
         11    1    1    0    0    0  0.33462455761E+02  0.32131332672E+02 -0.37013252233E+02  0.59347614325E+02  0.51100000000E-03 0.  1.
         22    1    1    0    0    0 -0.35240398742E+02 -0.33837635142E+02  0.38979209042E+02  0.62499999944E+02  0.00000000000E+00 0.  1.
</event>
<event>
 4    1  0.1956828E-002  0.9118800E+02  0.7818608E-02  0.1130116E+00
         25   -1    0    0    0    0  0.00000000000E+00  0.00000000000E+00  0.99999998245E-14  0.12500000000E+03  0.12500000000E+03 0.  0.
        -11    1    1    0    0    0  0.21249191923E+02  0.36840354357E+02  0.15814362572E+02  0.45374375262E+02  0.51100000000E-03 0.  1.
         11    1    1    0    0    0  0.80204473651E+01  0.13904688235E+02  0.59681732500E+01  0.17125624750E+02  0.51100000000E-03 0. -1.
         22    1    1    0    0    0 -0.29269639288E+02 -0.50745042593E+02 -0.21782535822E+02  0.62499999989E+02  0.00000000000E+00 0.  1.
</event>
<event>
 4    1  0.1956828E-002  0.9118800E+02  0.7818608E-02  0.1130116E+00
         25   -1    0    0    0    0  0.00000000000E+00  0.00000000000E+00  0.99999998245E-14  0.12500000000E+03  0.12500000000E+03 0.  0.
        -11    1    1    0    0    0  0.11369585003E+02 -0.39923803891E+02 -0.33635709005E+02  0.53427881306E+02  0.51100000000E-03 0. -1.
         11    1    1    0    0    0  0.18322223515E+01 -0.67716650616E+01 -0.57528901614E+01  0.90723884354E+01  0.51100000000E-03 0.  1.
         22    1    1    0    0    0 -0.13201807354E+02  0.46695468953E+02  0.39388599167E+02  0.62499730259E+02  0.00000000000E+00 0. -1.
</event>
<event>
 4    1  0.1956828E-002  0.9118800E+02  0.7818608E-02  0.1130116E+00
         25   -1    0    0    0    0  0.00000000000E+00  0.00000000000E+00  0.99999998245E-14  0.12500000000E+03  0.12500000000E+03 0.  0.
        -11    1    1    0    0    0 -0.17290932099E+01  0.39691057095E+01  0.27585481192E+01  0.51335320637E+01  0.51100000000E-03 0.  1.
         11    1    1    0    0    0 -0.19310852881E+02  0.44354610160E+02  0.30832955917E+02  0.57366468013E+02  0.51100000000E-03 0.  1.
         22    1    1    0    0    0  0.21039946091E+02 -0.48323715870E+02 -0.33591504036E+02  0.62499999923E+02  0.00000000000E+00 0.  1.
</event>
<event>
 4    1  0.1956828E-002  0.9118800E+02  0.7818608E-02  0.1130116E+00
         25   -1    0    0    0    0  0.00000000000E+00  0.00000000000E+00  0.99999998245E-14  0.12500000000E+03  0.12500000000E+03 0.  0.
        -11    1    1    0    0    0  0.35835591725E+02  0.41750433193E+02 -0.22300640252E+02  0.59368399524E+02  0.51100000000E-03 0. -1.
         11    1    1    0    0    0  0.17189329265E+01  0.23059309026E+01 -0.12475314233E+01  0.31350251429E+01  0.51100000000E-03 0.  1.
         22    1    1    0    0    0 -0.37554524652E+02 -0.44056364095E+02  0.23548171676E+02  0.62496575333E+02  0.00000000000E+00 0. -1.
</event>
<event>
 4    1  0.1956828E-002  0.9118800E+02  0.7818608E-02  0.1130116E+00
         25   -1    0    0    0    0  0.00000000000E+00  0.00000000000E+00  0.99999998245E-14  0.12500000000E+03  0.12500000000E+03 0.  0.
        -11    1    1    0    0    0 -0.82320608267E+01  0.27081005126E+02 -0.27404115646E+02  0.39397121960E+02  0.51100000000E-03 0. -1.
         11    1    1    0    0    0 -0.46747412781E+01  0.15907785092E+02 -0.16088499725E+02  0.23103044306E+02  0.51100000000E-03 0.  1.
         22    1    1    0    0    0  0.12906802105E+02 -0.42988790217E+02  0.43492615372E+02  0.62499833734E+02  0.00000000000E+00 0.  1.
</event>
<event>
 4    1  0.1956828E-002  0.9118800E+02  0.7818608E-02  0.1130116E+00
         25   -1    0    0    0    0  0.00000000000E+00  0.00000000000E+00  0.99999998245E-14  0.12500000000E+03  0.12500000000E+03 0.  0.
        -11    1    1    0    0    0 -0.89129118475E+01 -0.26573571320E+02 -0.99015701442E+01  0.29726011873E+02  0.51100000000E-03 0. -1.
         11    1    1    0    0    0 -0.10171215515E+02 -0.29137022863E+02 -0.11034139703E+02  0.32774562783E+02  0.51100000000E-03 0.  1.
         22    1    1    0    0    0  0.19084127362E+02  0.55710594184E+02  0.20935709847E+02  0.62499425343E+02  0.00000000000E+00 0.  1.
</event>
<event>
 4    1  0.1956828E-002  0.9118800E+02  0.7818608E-02  0.1130116E+00
         25   -1    0    0    0    0  0.00000000000E+00  0.00000000000E+00  0.99999998245E-14  0.12500000000E+03  0.12500000000E+03 0.  0.
        -11    1    1    0    0    0  0.35214653995E+01 -0.15327919884E+01  0.41646210209E+01  0.56651776978E+01  0.51100000000E-03 0.  1.
         11    1    1    0    0    0  0.32059695351E+02 -0.26336706582E+02  0.38923660313E+02  0.56890223343E+02  0.51100000000E-03 0. -1.
         22    1    1    0    0    0 -0.35581160750E+02  0.27869498571E+02 -0.43088281333E+02  0.62444598959E+02  0.00000000000E+00 0. -1.
</event>
<event>
 4    1  0.1956828E-002  0.9118800E+02  0.7818608E-02  0.1130116E+00
         25   -1    0    0    0    0  0.00000000000E+00  0.00000000000E+00  0.99999998245E-14  0.12500000000E+03  0.12500000000E+03 0.  0.
        -11    1    1    0    0    0  0.78195036442E+01 -0.42132821501E+02  0.27333095580E+02  0.50827329255E+02  0.51100000000E-03 0. -1.
         11    1    1    0    0    0  0.17903372959E+01 -0.96817486844E+01  0.62697468001E+01  0.11672672805E+02  0.51100000000E-03 0.  1.
         22    1    1    0    0    0 -0.96098409401E+01  0.51814570186E+02 -0.33602842380E+02  0.62499997940E+02  0.00000000000E+00 0. -1.
</event>
<event>
 4    1  0.1956828E-002  0.9118800E+02  0.7818608E-02  0.1130116E+00
         25   -1    0    0    0    0  0.00000000000E+00  0.00000000000E+00  0.99999998245E-14  0.12500000000E+03  0.12500000000E+03 0.  0.
        -11    1    1    0    0    0  0.76206466168E+01 -0.58564732274E+01  0.75947838971E+01  0.12249623514E+02  0.51100000000E-03 0.  1.
         11    1    1    0    0    0  0.31270554703E+02 -0.24022494455E+02  0.31147592532E+02  0.50250376636E+02  0.51100000000E-03 0. -1.
         22    1    1    0    0    0 -0.38891201320E+02  0.29878967683E+02 -0.38742376429E+02  0.62499999850E+02  0.00000000000E+00 0. -1.
</event>
<event>
 4    1  0.1956828E-002  0.9118800E+02  0.7818608E-02  0.1130116E+00
         25   -1    0    0    0    0  0.00000000000E+00  0.00000000000E+00  0.99999998245E-14  0.12500000000E+03  0.12500000000E+03 0.  0.
        -11    1    1    0    0    0 -0.10087745500E+02  0.34067076055E+02  0.20719106109E+01  0.35589620594E+02  0.51100000000E-03 0.  1.
         11    1    1    0    0    0 -0.14550525167E+02  0.22459143691E+02 -0.66617474500E+01  0.27577342100E+02  0.51100000000E-03 0. -1.
         22    1    1    0    0    0  0.24638270667E+02 -0.56526219746E+02  0.45898368391E+01  0.61833037306E+02  0.00000000000E+00 0. -1.
</event>
<event>
 4    1  0.1956828E-002  0.9118800E+02  0.7818608E-02  0.1130116E+00
         25   -1    0    0    0    0  0.00000000000E+00  0.00000000000E+00  0.99999998245E-14  0.12500000000E+03  0.12500000000E+03 0.  0.
        -11    1    1    0    0    0 -0.75019696861E+00  0.30385490050E+01  0.99355165632E+01  0.10416816461E+02  0.51100000000E-03 0. -1.
         11    1    1    0    0    0 -0.37537316602E+01  0.15189290703E+02  0.49677489431E+02  0.52083183561E+02  0.51100000000E-03 0. -1.
         22    1    1    0    0    0  0.45039286288E+01 -0.18227839707E+02 -0.59613005994E+02  0.62499999978E+02  0.00000000000E+00 0. -1.
</event>
<event>
 4    1  0.1956828E-002  0.9118800E+02  0.7818608E-02  0.1130116E+00
         25   -1    0    0    0    0  0.00000000000E+00  0.00000000000E+00  0.99999998245E-14  0.12500000000E+03  0.12500000000E+03 0.  0.
        -11    1    1    0    0    0  0.36196808442E+01  0.14113530200E+02 -0.70574197234E+01  0.16189533580E+02  0.51100000000E-03 0. -1.
         11    1    1    0    0    0  0.10330410739E+02  0.40358983173E+02 -0.20226088986E+02  0.46310469494E+02  0.51100000000E-03 0.  1.
         22    1    1    0    0    0 -0.13950091583E+02 -0.54472513373E+02  0.27283508709E+02  0.62499996927E+02  0.00000000000E+00 0.  1.
</event>
<event>
 4    1  0.1956828E-002  0.9118800E+02  0.7818608E-02  0.1130116E+00
         25   -1    0    0    0    0  0.00000000000E+00  0.00000000000E+00  0.99999998245E-14  0.12500000000E+03  0.12500000000E+03 0.  0.
        -11    1    1    0    0    0  0.11595295003E+02  0.28811390696E+02  0.31293290127E+02  0.44088741276E+02  0.51100000000E-03 0.  1.
         11    1    1    0    0    0  0.48414564892E+01  0.12031717560E+02  0.13067996003E+02  0.18411258734E+02  0.51100000000E-03 0. -1.
         22    1    1    0    0    0 -0.16436751492E+02 -0.40843108256E+02 -0.44361286130E+02  0.62499999990E+02  0.00000000000E+00 0.  1.
</event>
<event>
 4    1  0.1956828E-002  0.9118800E+02  0.7818608E-02  0.1130116E+00
         25   -1    0    0    0    0  0.00000000000E+00  0.00000000000E+00  0.99999998245E-14  0.12500000000E+03  0.12500000000E+03 0.  0.
        -11    1    1    0    0    0 -0.35324250613E+02  0.20262859771E+02  0.21381805826E+00  0.40723849105E+02  0.51100000000E-03 0.  1.
         11    1    1    0    0    0 -0.18889027178E+02  0.10834782649E+02  0.11351311384E+00  0.21776150906E+02  0.51100000000E-03 0.  1.
         22    1    1    0    0    0  0.54213277792E+02 -0.31097642419E+02 -0.32733117210E+00  0.62499999989E+02  0.00000000000E+00 0.  1.
</event>
<event>
 4    1  0.1956828E-002  0.9118800E+02  0.7818608E-02  0.1130116E+00
         25   -1    0    0    0    0  0.00000000000E+00  0.00000000000E+00  0.99999998245E-14  0.12500000000E+03  0.12500000000E+03 0.  0.
        -11    1    1    0    0    0  0.34291387276E+02  0.44606442347E+02 -0.26679134281E+02  0.62268853742E+02  0.51100000000E-03 0. -1.
         11    1    1    0    0    0  0.10744836056E+00  0.11980396588E+00 -0.17885500778E+00  0.24059824471E+00  0.51100000000E-03 0.  1.
         22    1    1    0    0    0 -0.34398835637E+02 -0.44726246312E+02  0.26857989288E+02  0.62490548013E+02  0.00000000000E+00 0. -1.
</event>
<event>
 4    1  0.1956828E-002  0.9118800E+02  0.7818608E-02  0.1130116E+00
         25   -1    0    0    0    0  0.00000000000E+00  0.00000000000E+00  0.99999998245E-14  0.12500000000E+03  0.12500000000E+03 0.  0.
        -11    1    1    0    0    0  0.98939982256E-01 -0.50830279716E+00  0.12697072728E+00  0.53318165797E+00  0.51100000000E-03 0. -1.
         11    1    1    0    0    0  0.13080802987E+02 -0.58708641395E+02  0.14902548369E+02  0.61966909955E+02  0.51100000000E-03 0.  1.
         22    1    1    0    0    0 -0.13179742969E+02  0.59216944192E+02 -0.15029519097E+02  0.62499908387E+02  0.00000000000E+00 0.  1.
</event>
<event>
 4    1  0.1956828E-002  0.9118800E+02  0.7818608E-02  0.1130116E+00
         25   -1    0    0    0    0  0.00000000000E+00  0.00000000000E+00  0.99999998245E-14  0.12500000000E+03  0.12500000000E+03 0.  0.
        -11    1    1    0    0    0  0.15145645937E+01  0.72526382299E+00 -0.13878242603E+01  0.21785247210E+01  0.51100000000E-03 0.  1.
         11    1    1    0    0    0  0.41942405880E+02  0.19928823592E+02 -0.38501395642E+02  0.60321479486E+02  0.51100000000E-03 0. -1.
         22    1    1    0    0    0 -0.43456970473E+02 -0.20654087415E+02  0.39889219903E+02  0.62499995793E+02  0.00000000000E+00 0. -1.
</event>
<event>
 4    1  0.1956828E-002  0.9118800E+02  0.7818608E-02  0.1130116E+00
         25   -1    0    0    0    0  0.00000000000E+00  0.00000000000E+00  0.99999998245E-14  0.12500000000E+03  0.12500000000E+03 0.  0.
        -11    1    1    0    0    0  0.93218183177E+01 -0.33132631754E+01 -0.46525289471E+01  0.10932521918E+02  0.51100000000E-03 0. -1.
         11    1    1    0    0    0  0.43384899155E+02 -0.16711061778E+02 -0.22312328102E+02  0.51568876719E+02  0.51100000000E-03 0.  1.
         22    1    1    0    0    0 -0.52706717473E+02  0.20024324953E+02  0.26964857050E+02  0.62498601363E+02  0.00000000000E+00 0. -1.
</event>
<event>
 4    1  0.1956828E-002  0.9118800E+02  0.7818608E-02  0.1130116E+00
         25   -1    0    0    0    0  0.00000000000E+00  0.00000000000E+00  0.99999998245E-14  0.12500000000E+03  0.12500000000E+03 0.  0.
        -11    1    1    0    0    0 -0.19594235447E+01 -0.86871958472E+01 -0.43813173876E+00  0.89162027790E+01  0.51100000000E-03 0.  1.
         11    1    1    0    0    0 -0.11786562404E+02 -0.52204674968E+02 -0.26404917335E+01  0.53583797352E+02  0.51100000000E-03 0.  1.
         22    1    1    0    0    0  0.13745985948E+02  0.60891870815E+02  0.30786234723E+01  0.62499999869E+02  0.00000000000E+00 0.  1.
</event>
<event>
 4    1  0.1956828E-002  0.9118800E+02  0.7818608E-02  0.1130116E+00
         25   -1    0    0    0    0  0.00000000000E+00  0.00000000000E+00  0.99999998245E-14  0.12500000000E+03  0.12500000000E+03 0.  0.
        -11    1    1    0    0    0  0.35809233299E+02  0.98528567566E+01  0.69745652715E+01  0.37789211909E+02  0.51100000000E-03 0.  1.
         11    1    1    0    0    0  0.23446710978E+02  0.62624838891E+01  0.46549861939E+01  0.24711047264E+02  0.51100000000E-03 0. -1.
         22    1    1    0    0    0 -0.59255944276E+02 -0.16115340646E+02 -0.11629551465E+02  0.62499740828E+02  0.00000000000E+00 0.  1.
</event>
<event>
 4    1  0.1956828E-002  0.9118800E+02  0.7818608E-02  0.1130116E+00
         25   -1    0    0    0    0  0.00000000000E+00  0.00000000000E+00  0.99999998245E-14  0.12500000000E+03  0.12500000000E+03 0.  0.
        -11    1    1    0    0    0  0.38902113099E+01  0.57875928511E+02  0.63348984543E+01  0.58351416296E+02  0.51100000000E-03 0. -1.
         11    1    1    0    0    0  0.35219238939E+00  0.41151794522E+01  0.39509673679E+00  0.41490773788E+01  0.51100000000E-03 0.  1.
         22    1    1    0    0    0 -0.42424036993E+01 -0.61991107963E+02 -0.67299951911E+01  0.62499506325E+02  0.00000000000E+00 0. -1.
</event>
<event>
 4    1  0.1956828E-002  0.9118800E+02  0.7818608E-02  0.1130116E+00
         25   -1    0    0    0    0  0.00000000000E+00  0.00000000000E+00  0.99999998245E-14  0.12500000000E+03  0.12500000000E+03 0.  0.
        -11    1    1    0    0    0  0.24834539910E+02  0.10146615781E+02 -0.37747011990E+02  0.46309233407E+02  0.51100000000E-03 0.  1.
         11    1    1    0    0    0  0.83661964595E+01  0.45246911740E+01 -0.13117476505E+02  0.16202909107E+02  0.51100000000E-03 0. -1.
         22    1    1    0    0    0 -0.33200736369E+02 -0.14671306955E+02  0.50864488495E+02  0.62487857485E+02  0.00000000000E+00 0.  1.
</event>
<event>
 4    1  0.1956828E-002  0.9118800E+02  0.7818608E-02  0.1130116E+00
         25   -1    0    0    0    0  0.00000000000E+00  0.00000000000E+00  0.99999998245E-14  0.12500000000E+03  0.12500000000E+03 0.  0.
        -11    1    1    0    0    0 -0.28664025380E+02  0.11893433663E+02  0.45005697571E+00  0.31036795370E+02  0.51100000000E-03 0.  1.
         11    1    1    0    0    0 -0.29109045029E+02  0.11918307993E+02  0.76102476808E+00  0.31463657239E+02  0.51100000000E-03 0. -1.
         22    1    1    0    0    0  0.57773070409E+02 -0.23811741656E+02 -0.12110817438E+01  0.62499547391E+02  0.00000000000E+00 0.  1.
</event>
<event>
 4    1  0.1956828E-002  0.9118800E+02  0.7818608E-02  0.1130116E+00
         25   -1    0    0    0    0  0.00000000000E+00  0.00000000000E+00  0.99999998245E-14  0.12500000000E+03  0.12500000000E+03 0.  0.
        -11    1    1    0    0    0 -0.10195115152E+02  0.63871429971E+01  0.18459617306E+02  0.22033915675E+02  0.51100000000E-03 0. -1.
         11    1    1    0    0    0 -0.14778347292E+02  0.13542365959E+02 -0.52550092774E+02  0.56243288269E+02  0.51100000000E-03 0.  1.
         22    1    1    0    0    0  0.24973462444E+02 -0.19929508956E+02  0.34090475468E+02  0.46722796056E+02  0.00000000000E+00 0.  1.
</event>
<event>
 4    1  0.1956828E-002  0.9118800E+02  0.7818608E-02  0.1130116E+00
         25   -1    0    0    0    0  0.00000000000E+00  0.00000000000E+00  0.99999998245E-14  0.12500000000E+03  0.12500000000E+03 0.  0.
        -11    1    1    0    0    0 -0.24350343687E+01  0.73105565480E+01 -0.24055415595E+02  0.25259387347E+02  0.51100000000E-03 0. -1.
         11    1    1    0    0    0 -0.35066551632E+01  0.10824365532E+02 -0.35459858352E+02  0.37240637403E+02  0.51100000000E-03 0.  1.
         22    1    1    0    0    0  0.59416895319E+01 -0.18134922080E+02  0.59515273947E+02  0.62499975250E+02  0.00000000000E+00 0.  1.
</event>
<event>
 4    1  0.1956828E-002  0.9118800E+02  0.7818608E-02  0.1130116E+00
         25   -1    0    0    0    0  0.00000000000E+00  0.00000000000E+00  0.99999998245E-14  0.12500000000E+03  0.12500000000E+03 0.  0.
        -11    1    1    0    0    0  0.41863129733E+02 -0.15040417027E+02  0.11140242248E+02  0.45856741849E+02  0.51100000000E-03 0.  1.
         11    1    1    0    0    0  0.15192587792E+02 -0.54628820455E+01  0.40423068654E+01  0.16643258368E+02  0.51100000000E-03 0. -1.
         22    1    1    0    0    0 -0.57055717525E+02  0.20503299073E+02 -0.15182549113E+02  0.62499999782E+02  0.00000000000E+00 0.  1.
</event>
<event>
 4    1  0.1956828E-002  0.9118800E+02  0.7818608E-02  0.1130116E+00
         25   -1    0    0    0    0  0.00000000000E+00  0.00000000000E+00  0.99999998245E-14  0.12500000000E+03  0.12500000000E+03 0.  0.
        -11    1    1    0    0    0  0.19203222792E+02 -0.23048042692E+02 -0.21213977594E+02  0.36742467026E+02  0.51100000000E-03 0. -1.
         11    1    1    0    0    0  0.87625961673E+01 -0.16733241652E+02 -0.17769208317E+02  0.25933168573E+02  0.51100000000E-03 0.  1.
         22    1    1    0    0    0 -0.27965818959E+02  0.39781284345E+02  0.38983185911E+02  0.62324364401E+02  0.00000000000E+00 0.  1.
</event>
<event>
 4    1  0.1956828E-002  0.9118800E+02  0.7818608E-02  0.1130116E+00
         25   -1    0    0    0    0  0.00000000000E+00  0.00000000000E+00  0.99999998245E-14  0.12500000000E+03  0.12500000000E+03 0.  0.
        -11    1    1    0    0    0  0.60785839182E+01  0.21756152006E+02 -0.40260622299E+02  0.46164889697E+02  0.51100000000E-03 0. -1.
         11    1    1    0    0    0  0.21600778536E+01  0.77019509809E+01 -0.14242537833E+02  0.16335111553E+02  0.51100000000E-03 0.  1.
         22    1    1    0    0    0 -0.82386617718E+01 -0.29458102987E+02  0.54503160132E+02  0.62499998750E+02  0.00000000000E+00 0. -1.
</event>
<event>
 4    1  0.1956828E-002  0.9118800E+02  0.7818608E-02  0.1130116E+00
         25   -1    0    0    0    0  0.00000000000E+00  0.00000000000E+00  0.99999998245E-14  0.12500000000E+03  0.12500000000E+03 0.  0.
        -11    1    1    0    0    0  0.64370780678E+01  0.21520480057E+02  0.20928728258E+02  0.30701444635E+02  0.51100000000E-03 0. -1.
         11    1    1    0    0    0  0.66671959772E+01  0.22288232021E+02  0.21677899697E+02  0.31798555382E+02  0.51100000000E-03 0.  1.
         22    1    1    0    0    0 -0.13104274045E+02 -0.43808712078E+02 -0.42606627955E+02  0.62499999983E+02  0.00000000000E+00 0.  1.
</event>
<event>
 4    1  0.1956828E-002  0.9118800E+02  0.7818608E-02  0.1130116E+00
         25   -1    0    0    0    0  0.00000000000E+00  0.00000000000E+00  0.99999998245E-14  0.12500000000E+03  0.12500000000E+03 0.  0.
        -11    1    1    0    0    0 -0.26393513048E+02 -0.19122104862E+02 -0.13732947665E+02  0.35367587947E+02  0.51100000000E-03 0.  1.
         11    1    1    0    0    0 -0.20148320898E+02 -0.14819986722E+02 -0.10516189884E+02  0.27132583573E+02  0.51100000000E-03 0. -1.
         22    1    1    0    0    0  0.46541833946E+02  0.33942091584E+02  0.24249137549E+02  0.62499828480E+02  0.00000000000E+00 0.  1.
</event>
<event>
 4    1  0.1956828E-002  0.9118800E+02  0.7818608E-02  0.1130116E+00
         25   -1    0    0    0    0  0.00000000000E+00  0.00000000000E+00  0.99999998245E-14  0.12500000000E+03  0.12500000000E+03 0.  0.
        -11    1    1    0    0    0 -0.23214569383E+02  0.48384407782E+02  0.29146945527E+02  0.61069727213E+02  0.51100000000E-03 0.  1.
         11    1    1    0    0    0 -0.43540081755E+00  0.12403003562E+01  0.57830098222E+00  0.14360888317E+01  0.51100000000E-03 0. -1.
         22    1    1    0    0    0  0.23649970201E+02 -0.49624708138E+02 -0.29725246509E+02  0.62494183956E+02  0.00000000000E+00 0.  1.
</event>
<event>
 4    1  0.1956828E-002  0.9118800E+02  0.7818608E-02  0.1130116E+00
         25   -1    0    0    0    0  0.00000000000E+00  0.00000000000E+00  0.99999998245E-14  0.12500000000E+03  0.12500000000E+03 0.  0.
        -11    1    1    0    0    0 -0.96494988056E+01  0.55557859153E+02  0.21473226555E+02  0.60339771294E+02  0.51100000000E-03 0.  1.
         11    1    1    0    0    0 -0.33873218138E+00  0.19910371376E+01  0.76658050621E+00  0.21602347807E+01  0.51100000000E-03 0. -1.
         22    1    1    0    0    0  0.99882309870E+01 -0.57548896291E+02 -0.22239807061E+02  0.62499993925E+02  0.00000000000E+00 0.  1.
</event>
<event>
 4    1  0.1956828E-002  0.9118800E+02  0.7818608E-02  0.1130116E+00
         25   -1    0    0    0    0  0.00000000000E+00  0.00000000000E+00  0.99999998245E-14  0.12500000000E+03  0.12500000000E+03 0.  0.
        -11    1    1    0    0    0  0.55086682246E+02 -0.26893279672E+02  0.11146323970E+02  0.62305951487E+02  0.51100000000E-03 0.  1.
         11    1    1    0    0    0 -0.66421855140E+01  0.59183238490E+01 -0.19756497098E+01  0.91130882593E+01  0.51100000000E-03 0. -1.
         22    1    1    0    0    0 -0.48444496732E+02  0.20974955823E+02 -0.91706742601E+01  0.53580960254E+02  0.00000000000E+00 0.  1.
</event>
<event>
 4    1  0.1956828E-002  0.9118800E+02  0.7818608E-02  0.1130116E+00
         25   -1    0    0    0    0  0.00000000000E+00  0.00000000000E+00  0.99999998245E-14  0.12500000000E+03  0.12500000000E+03 0.  0.
        -11    1    1    0    0    0 -0.43454368123E+02 -0.19814930336E+02 -0.24403431082E+02  0.53632462390E+02  0.51100000000E-03 0.  1.
         11    1    1    0    0    0 -0.71847798735E+01 -0.32773494242E+01 -0.40337505087E+01  0.88675376800E+01  0.51100000000E-03 0. -1.
         22    1    1    0    0    0  0.50639147997E+02  0.23092279760E+02  0.28437181591E+02  0.62499999930E+02  0.00000000000E+00 0.  1.
</event>
<event>
 4    1  0.1956828E-002  0.9118800E+02  0.7818608E-02  0.1130116E+00
         25   -1    0    0    0    0  0.00000000000E+00  0.00000000000E+00  0.99999998245E-14  0.12500000000E+03  0.12500000000E+03 0.  0.
        -11    1    1    0    0    0 -0.28522044495E+01 -0.58633057486E+01 -0.81551525058E+01  0.10441261283E+02  0.51100000000E-03 0. -1.
         11    1    1    0    0    0 -0.13695689397E+02 -0.29301491391E+02 -0.40792006880E+02  0.52058977433E+02  0.51100000000E-03 0.  1.
         22    1    1    0    0    0  0.16547893847E+02  0.35164797140E+02  0.48947159386E+02  0.62499761284E+02  0.00000000000E+00 0.  1.
</event>
<event>
 4    1  0.1956828E-002  0.9118800E+02  0.7818608E-02  0.1130116E+00
         25   -1    0    0    0    0  0.00000000000E+00  0.00000000000E+00  0.99999998245E-14  0.12500000000E+03  0.12500000000E+03 0.  0.
        -11    1    1    0    0    0  0.56311247985E+01  0.38341695676E+02  0.13816212392E+01  0.38777623333E+02  0.51100000000E-03 0. -1.
         11    1    1    0    0    0  0.34440735575E+01  0.23455804110E+02  0.84543820927E+00  0.23722376676E+02  0.51100000000E-03 0.  1.
         22    1    1    0    0    0 -0.90751983561E+01 -0.61797499787E+02 -0.22270594484E+01  0.62499999991E+02  0.00000000000E+00 0. -1.
</event>
<event>
 4    1  0.1956828E-002  0.9118800E+02  0.7818608E-02  0.1130116E+00
         25   -1    0    0    0    0  0.00000000000E+00  0.00000000000E+00  0.99999998245E-14  0.12500000000E+03  0.12500000000E+03 0.  0.
        -11    1    1    0    0    0 -0.18952328031E+02 -0.86107472171E+01  0.22317629740E+01  0.20936008971E+02  0.51100000000E-03 0. -1.
         11    1    1    0    0    0 -0.37486655140E+02 -0.17489643338E+02  0.40596581685E+01  0.41564621524E+02  0.51100000000E-03 0.  1.
         22    1    1    0    0    0  0.56438983171E+02  0.26100390556E+02 -0.62914211425E+01  0.62499369505E+02  0.00000000000E+00 0.  1.
</event>
<event>
 4    1  0.1956828E-002  0.9118800E+02  0.7818608E-02  0.1130116E+00
         25   -1    0    0    0    0  0.00000000000E+00  0.00000000000E+00  0.99999998245E-14  0.12500000000E+03  0.12500000000E+03 0.  0.
        -11    1    1    0    0    0  0.25454645329E+02  0.61091198420E+01  0.44817588871E+01  0.26558359834E+02  0.51100000000E-03 0. -1.
         11    1    1    0    0    0  0.34378714762E+02  0.82997136615E+01  0.64067343585E+01  0.35942002184E+02  0.51100000000E-03 0.  1.
         22    1    1    0    0    0 -0.59833360092E+02 -0.14408833504E+02 -0.10888493246E+02  0.62499637982E+02  0.00000000000E+00 0.  1.
</event>
<event>
 4    1  0.1956828E-002  0.9118800E+02  0.7818608E-02  0.1130116E+00
         25   -1    0    0    0    0  0.00000000000E+00  0.00000000000E+00  0.99999998245E-14  0.12500000000E+03  0.12500000000E+03 0.  0.
        -11    1    1    0    0    0  0.51026169523E+02  0.25243353457E+02  0.18715986497E+02  0.59926496817E+02  0.51100000000E-03 0. -1.
         11    1    1    0    0    0  0.20209529852E+01  0.11739784531E+01  0.11054086593E+01  0.25854216178E+01  0.51100000000E-03 0.  1.
         22    1    1    0    0    0 -0.53047122509E+02 -0.26417331910E+02 -0.19821395157E+02  0.62488081565E+02  0.00000000000E+00 0. -1.
</event>
<event>
 4    1  0.1956828E-002  0.9118800E+02  0.7818608E-02  0.1130116E+00
         25   -1    0    0    0    0  0.00000000000E+00  0.00000000000E+00  0.99999998245E-14  0.12500000000E+03  0.12500000000E+03 0.  0.
        -11    1    1    0    0    0  0.11943127767E+02  0.61195059904E+01  0.26841758193E+00  0.13422321062E+02  0.51100000000E-03 0. -1.
         11    1    1    0    0    0 -0.65447725520E+01  0.41923541417E+01 -0.55038444046E+02  0.55584532060E+02  0.51100000000E-03 0.  1.
         22    1    1    0    0    0 -0.53983552155E+01 -0.10311860132E+02  0.54770026464E+02  0.55993146878E+02  0.00000000000E+00 0.  1.
</event>
<event>
 4    1  0.1956828E-002  0.9118800E+02  0.7818608E-02  0.1130116E+00
         25   -1    0    0    0    0  0.00000000000E+00  0.00000000000E+00  0.99999998245E-14  0.12500000000E+03  0.12500000000E+03 0.  0.
        -11    1    1    0    0    0 -0.84829929829E+01  0.47473148516E+02  0.16385806191E+02  0.50932854277E+02  0.51100000000E-03 0.  1.
         11    1    1    0    0    0 -0.21286669823E+01  0.10734147757E+02  0.37501475186E+01  0.11567919340E+02  0.51100000000E-03 0. -1.
         22    1    1    0    0    0  0.10611659965E+02 -0.58207296273E+02 -0.20135953710E+02  0.62499226383E+02  0.00000000000E+00 0.  1.
</event>
<event>
 4    1  0.1956828E-002  0.9118800E+02  0.7818608E-02  0.1130116E+00
         25   -1    0    0    0    0  0.00000000000E+00  0.00000000000E+00  0.99999998245E-14  0.12500000000E+03  0.12500000000E+03 0.  0.
        -11    1    1    0    0    0  0.18301776048E+02  0.12433337852E+02  0.19958287849E+02  0.29797250725E+02  0.51100000000E-03 0. -1.
         11    1    1    0    0    0  0.24456425139E+02  0.19613374526E+01  0.22470523930E+02  0.33269926678E+02  0.51100000000E-03 0.  1.
         22    1    1    0    0    0 -0.42758201187E+02 -0.14394675304E+02 -0.42428811779E+02  0.61932822597E+02  0.00000000000E+00 0. -1.
</event>
<event>
 4    1  0.1956828E-002  0.9118800E+02  0.7818608E-02  0.1130116E+00
         25   -1    0    0    0    0  0.00000000000E+00  0.00000000000E+00  0.99999998245E-14  0.12500000000E+03  0.12500000000E+03 0.  0.
        -11    1    1    0    0    0 -0.19624752652E+02  0.16552645029E+01 -0.14479564161E+02  0.24444398044E+02  0.51100000000E-03 0.  1.
         11    1    1    0    0    0 -0.30552057658E+02  0.25771259368E+01 -0.22542383083E+02  0.38055601960E+02  0.51100000000E-03 0. -1.
         22    1    1    0    0    0  0.50176810310E+02 -0.42323904397E+01  0.37021947243E+02  0.62499999995E+02  0.00000000000E+00 0. -1.
</event>
<event>
 4    1  0.1956828E-002  0.9118800E+02  0.7818608E-02  0.1130116E+00
         25   -1    0    0    0    0  0.00000000000E+00  0.00000000000E+00  0.99999998245E-14  0.12500000000E+03  0.12500000000E+03 0.  0.
        -11    1    1    0    0    0  0.14850053250E+02 -0.84878141791E+01 -0.19860115129E+02  0.26210517818E+02  0.51100000000E-03 0.  1.
         11    1    1    0    0    0  0.20780831896E+02 -0.11572175532E+02 -0.27407789204E+02  0.36289738634E+02  0.51100000000E-03 0. -1.
         22    1    1    0    0    0 -0.35630885146E+02  0.20059989711E+02  0.47267904333E+02  0.62499743548E+02  0.00000000000E+00 0. -1.
</event>
<event>
 4    1  0.1956828E-002  0.9118800E+02  0.7818608E-02  0.1130116E+00
         25   -1    0    0    0    0  0.00000000000E+00  0.00000000000E+00  0.99999998245E-14  0.12500000000E+03  0.12500000000E+03 0.  0.
        -11    1    1    0    0    0 -0.52999110323E+01 -0.54805993646E+02  0.16812587162E+02  0.57571252234E+02  0.51100000000E-03 0.  1.
         11    1    1    0    0    0 -0.93371988059E+00 -0.50324843131E+01 -0.89120486416E+00  0.51953804046E+01  0.51100000000E-03 0. -1.
         22    1    1    0    0    0  0.62336309129E+01  0.59838477959E+02 -0.15921382298E+02  0.62233367361E+02  0.00000000000E+00 0.  1.
</event>
<event>
 4    1  0.1956828E-002  0.9118800E+02  0.7818608E-02  0.1130116E+00
         25   -1    0    0    0    0  0.00000000000E+00  0.00000000000E+00  0.99999998245E-14  0.12500000000E+03  0.12500000000E+03 0.  0.
        -11    1    1    0    0    0  0.11101811978E+02 -0.51636314438E+02  0.33207941063E+02  0.62388512947E+02  0.51100000000E-03 0. -1.
         11    1    1    0    0    0  0.36174473601E-01 -0.55741157104E-01  0.97859689305E-01  0.11828968276E+00  0.51100000000E-03 0.  1.
         22    1    1    0    0    0 -0.11137986451E+02  0.51692055595E+02 -0.33305800752E+02  0.62493197370E+02  0.00000000000E+00 0. -1.
</event>
<event>
 4    1  0.1956828E-002  0.9118800E+02  0.7818608E-02  0.1130116E+00
         25   -1    0    0    0    0  0.00000000000E+00  0.00000000000E+00  0.99999998245E-14  0.12500000000E+03  0.12500000000E+03 0.  0.
        -11    1    1    0    0    0 -0.48746763429E+01  0.65339165380E+01 -0.18975249254E+01  0.83698946156E+01  0.51100000000E-03 0. -1.
         11    1    1    0    0    0 -0.31525552802E+02  0.42253866760E+02 -0.12280821630E+02  0.54130105448E+02  0.51100000000E-03 0. -1.
         22    1    1    0    0    0  0.36400229145E+02 -0.48787783298E+02  0.14178346555E+02  0.62499999936E+02  0.00000000000E+00 0. -1.
</event>
<event>
 4    1  0.1956828E-002  0.9118800E+02  0.7818608E-02  0.1130116E+00
         25   -1    0    0    0    0  0.00000000000E+00  0.00000000000E+00  0.99999998245E-14  0.12500000000E+03  0.12500000000E+03 0.  0.
        -11    1    1    0    0    0 -0.19601760612E+01  0.24298347749E+01 -0.14413318527E+01  0.34385789208E+01  0.51100000000E-03 0.  1.
         11    1    1    0    0    0  0.14161595264E+02  0.54125628037E+02 -0.20641125056E+02  0.59633802785E+02  0.51100000000E-03 0. -1.
         22    1    1    0    0    0 -0.12201419202E+02 -0.56555462812E+02  0.22082456909E+02  0.61927618294E+02  0.00000000000E+00 0. -1.
</event>
<event>
 4    1  0.1956828E-002  0.9118800E+02  0.7818608E-02  0.1130116E+00
         25   -1    0    0    0    0  0.00000000000E+00  0.00000000000E+00  0.99999998245E-14  0.12500000000E+03  0.12500000000E+03 0.  0.
        -11    1    1    0    0    0  0.12916902297E+01  0.12571842714E+02 -0.15015092621E+02  0.19625817169E+02  0.51100000000E-03 0.  1.
         11    1    1    0    0    0  0.21897563458E+01  0.27169960838E+02 -0.33095068801E+02  0.42875230425E+02  0.51100000000E-03 0. -1.
         22    1    1    0    0    0 -0.34814465755E+01 -0.39741803552E+02  0.48110161422E+02  0.62498952406E+02  0.00000000000E+00 0. -1.
</event>
<event>
 4    1  0.1956828E-002  0.9118800E+02  0.7818608E-02  0.1130116E+00
         25   -1    0    0    0    0  0.00000000000E+00  0.00000000000E+00  0.99999998245E-14  0.12500000000E+03  0.12500000000E+03 0.  0.
        -11    1    1    0    0    0 -0.87560268648E+01  0.40975023360E+02 -0.40362159820E+02  0.58178385087E+02  0.51100000000E-03 0. -1.
         11    1    1    0    0    0 -0.17240256800E+01  0.42531540605E+01 -0.93743797689E+00  0.46840553188E+01  0.51100000000E-03 0.  1.
         22    1    1    0    0    0  0.10480052545E+02 -0.45228177421E+02  0.41299597796E+02  0.62137559594E+02  0.00000000000E+00 0. -1.
</event>
<event>
 4    1  0.1956828E-002  0.9118800E+02  0.7818608E-02  0.1130116E+00
         25   -1    0    0    0    0  0.00000000000E+00  0.00000000000E+00  0.99999998245E-14  0.12500000000E+03  0.12500000000E+03 0.  0.
        -11    1    1    0    0    0 -0.45153309063E+02  0.44785347397E+01 -0.86414484626E+01  0.46190401866E+02  0.51100000000E-03 0.  1.
         11    1    1    0    0    0 -0.15919086017E+02  0.18006685758E+01 -0.30596247398E+01  0.16310150543E+02  0.51100000000E-03 0. -1.
         22    1    1    0    0    0  0.61072395080E+02 -0.62792033155E+01  0.11701073202E+02  0.62499447591E+02  0.00000000000E+00 0. -1.
</event>
<event>
 4    1  0.1956828E-002  0.9118800E+02  0.7818608E-02  0.1130116E+00
         25   -1    0    0    0    0  0.00000000000E+00  0.00000000000E+00  0.99999998245E-14  0.12500000000E+03  0.12500000000E+03 0.  0.
        -11    1    1    0    0    0  0.10783811744E+02  0.24918271894E+02 -0.80370984488E+01  0.28316175972E+02  0.51100000000E-03 0.  1.
         11    1    1    0    0    0  0.63685584775E+01  0.14125517616E+02 -0.33651180144E+02  0.37047141730E+02  0.51100000000E-03 0. -1.
         22    1    1    0    0    0 -0.17152370222E+02 -0.39043789510E+02  0.41688278593E+02  0.59636682298E+02  0.00000000000E+00 0.  1.
</event>
<event>
 4    1  0.1956828E-002  0.9118800E+02  0.7818608E-02  0.1130116E+00
         25   -1    0    0    0    0  0.00000000000E+00  0.00000000000E+00  0.99999998245E-14  0.12500000000E+03  0.12500000000E+03 0.  0.
        -11    1    1    0    0    0  0.41392140743E+02  0.39808530492E+02  0.15050699421E+02  0.59367937210E+02  0.51100000000E-03 0. -1.
         11    1    1    0    0    0  0.24541350963E+01  0.17352131376E+01  0.94042501646E+00  0.31493083648E+01  0.51100000000E-03 0.  1.
         22    1    1    0    0    0 -0.43846275839E+02 -0.41543743630E+02 -0.15991124437E+02  0.62482754425E+02  0.00000000000E+00 0. -1.
</event>
<event>
 4    1  0.1956828E-002  0.9118800E+02  0.7818608E-02  0.1130116E+00
         25   -1    0    0    0    0  0.00000000000E+00  0.00000000000E+00  0.99999998245E-14  0.12500000000E+03  0.12500000000E+03 0.  0.
        -11    1    1    0    0    0 -0.49921557662E+01  0.21565747208E+02  0.97782765626E+01  0.24199540587E+02  0.51100000000E-03 0.  1.
         11    1    1    0    0    0 -0.79000430033E+01  0.34128957015E+02  0.15483178511E+02  0.38300459572E+02  0.51100000000E-03 0. -1.
         22    1    1    0    0    0  0.12892198769E+02 -0.55694704223E+02 -0.25261455074E+02  0.62499999840E+02  0.00000000000E+00 0.  1.
</event>
<event>
 4    1  0.1956828E-002  0.9118800E+02  0.7818608E-02  0.1130116E+00
         25   -1    0    0    0    0  0.00000000000E+00  0.00000000000E+00  0.99999998245E-14  0.12500000000E+03  0.12500000000E+03 0.  0.
        -11    1    1    0    0    0  0.49359097393E+02 -0.91292420556E+01 -0.36149220561E+02  0.61858141771E+02  0.51100000000E-03 0. -1.
         11    1    1    0    0    0 -0.77785507969E+01 -0.20735556767E+01  0.23136030177E+01  0.83760518640E+01  0.51100000000E-03 0.  1.
         22    1    1    0    0    0 -0.41580546596E+02  0.11202797732E+02  0.33835617544E+02  0.54765806365E+02  0.00000000000E+00 0. -1.
</event>
<event>
 4    1  0.1956828E-002  0.9118800E+02  0.7818608E-02  0.1130116E+00
         25   -1    0    0    0    0  0.00000000000E+00  0.00000000000E+00  0.99999998245E-14  0.12500000000E+03  0.12500000000E+03 0.  0.
        -11    1    1    0    0    0  0.10621380901E+02 -0.61928757896E+01  0.57586734455E+01  0.13576736092E+02  0.51100000000E-03 0. -1.
         11    1    1    0    0    0  0.38252033822E+02 -0.22311390810E+02  0.20795907558E+02  0.48923266681E+02  0.51100000000E-03 0.  1.
         22    1    1    0    0    0 -0.48873414723E+02  0.28504266600E+02 -0.26554581003E+02  0.62499997227E+02  0.00000000000E+00 0. -1.
</event>
<event>
 4    1  0.1956828E-002  0.9118800E+02  0.7818608E-02  0.1130116E+00
         25   -1    0    0    0    0  0.00000000000E+00  0.00000000000E+00  0.99999998245E-14  0.12500000000E+03  0.12500000000E+03 0.  0.
        -11    1    1    0    0    0  0.87275132994E+01 -0.11655913334E+01 -0.28577219747E+02  0.29902935981E+02  0.51100000000E-03 0.  1.
         11    1    1    0    0    0  0.90991574125E+01 -0.13667404457E+01 -0.31272236041E+02  0.32597782015E+02  0.51100000000E-03 0. -1.
         22    1    1    0    0    0 -0.17826670712E+02  0.25323317791E+01  0.59849455788E+02  0.62499282004E+02  0.00000000000E+00 0. -1.
</event>
<event>
 4    1  0.1956828E-002  0.9118800E+02  0.7818608E-02  0.1130116E+00
         25   -1    0    0    0    0  0.00000000000E+00  0.00000000000E+00  0.99999998245E-14  0.12500000000E+03  0.12500000000E+03 0.  0.
        -11    1    1    0    0    0 -0.30470984729E+02  0.50699164676E+02 -0.10576276805E+02  0.60089465304E+02  0.51100000000E-03 0. -1.
         11    1    1    0    0    0 -0.12220811604E+01  0.20338332014E+01 -0.42510929936E+00  0.24105348020E+01  0.51100000000E-03 0. -1.
         22    1    1    0    0    0  0.31693065889E+02 -0.52732997877E+02  0.11001386104E+02  0.62499999894E+02  0.00000000000E+00 0. -1.
</event>
<event>
 4    1  0.1956828E-002  0.9118800E+02  0.7818608E-02  0.1130116E+00
         25   -1    0    0    0    0  0.00000000000E+00  0.00000000000E+00  0.99999998245E-14  0.12500000000E+03  0.12500000000E+03 0.  0.
        -11    1    1    0    0    0  0.40471936212E+02  0.15375461250E+02 -0.21720724611E+01  0.43348590847E+02  0.51100000000E-03 0.  1.
         11    1    1    0    0    0  0.17870251167E+02  0.68522528334E+01 -0.70748333422E+00  0.19152017611E+02  0.51100000000E-03 0. -1.
         22    1    1    0    0    0 -0.58342187379E+02 -0.22227714083E+02  0.28795557953E+01  0.62499391542E+02  0.00000000000E+00 0.  1.
</event>
<event>
 4    1  0.1956828E-002  0.9118800E+02  0.7818608E-02  0.1130116E+00
         25   -1    0    0    0    0  0.00000000000E+00  0.00000000000E+00  0.99999998245E-14  0.12500000000E+03  0.12500000000E+03 0.  0.
        -11    1    1    0    0    0  0.62152677835E-01  0.12887393178E+00 -0.81045719951E-01  0.16443878952E+00  0.51100000000E-03 0.  1.
         11    1    1    0    0    0  0.26505351151E+02  0.46775349627E+02 -0.31547951618E+02  0.62335705851E+02  0.51100000000E-03 0. -1.
         22    1    1    0    0    0 -0.26567503829E+02 -0.46904223559E+02  0.31628997338E+02  0.62499855360E+02  0.00000000000E+00 0. -1.
</event>
<event>
 4    1  0.1956828E-002  0.9118800E+02  0.7818608E-02  0.1130116E+00
         25   -1    0    0    0    0  0.00000000000E+00  0.00000000000E+00  0.99999998245E-14  0.12500000000E+03  0.12500000000E+03 0.  0.
        -11    1    1    0    0    0  0.41179225946E+02 -0.57043527237E+01 -0.16090260388E+02  0.44577626329E+02  0.51100000000E-03 0.  1.
         11    1    1    0    0    0  0.16573264780E+02 -0.22655949309E+01 -0.64347691107E+01  0.17922396034E+02  0.51100000000E-03 0. -1.
         22    1    1    0    0    0 -0.57752490726E+02  0.79699476546E+01  0.22525029498E+02  0.62499977636E+02  0.00000000000E+00 0.  1.
</event>
<event>
 4    1  0.1956828E-002  0.9118800E+02  0.7818608E-02  0.1130116E+00
         25   -1    0    0    0    0  0.00000000000E+00  0.00000000000E+00  0.99999998245E-14  0.12500000000E+03  0.12500000000E+03 0.  0.
        -11    1    1    0    0    0 -0.81908499348E+00 -0.40922594517E+01  0.10941915648E+01  0.43144806279E+01  0.51100000000E-03 0. -1.
         11    1    1    0    0    0 -0.12597083241E+02 -0.54304915053E+02  0.16675775590E+02  0.58187557062E+02  0.51100000000E-03 0.  1.
         22    1    1    0    0    0  0.13416168235E+02  0.58397174504E+02 -0.17769967155E+02  0.62497962310E+02  0.00000000000E+00 0.  1.
</event>
<event>
 4    1  0.1956828E-002  0.9118800E+02  0.7818608E-02  0.1130116E+00
         25   -1    0    0    0    0  0.00000000000E+00  0.00000000000E+00  0.99999998245E-14  0.12500000000E+03  0.12500000000E+03 0.  0.
        -11    1    1    0    0    0 -0.16603143039E+01  0.58572139907E+02 -0.81418645328E+01  0.59158618773E+02  0.51100000000E-03 0.  1.
         11    1    1    0    0    0 -0.38282033466E+01  0.14935067099E+01 -0.21752944435E+01  0.46494740920E+01  0.51100000000E-03 0. -1.
         22    1    1    0    0    0  0.54885176505E+01 -0.60065646616E+02  0.10317158976E+02  0.61191907135E+02  0.00000000000E+00 0.  1.
</event>
<event>
 4    1  0.1956828E-002  0.9118800E+02  0.7818608E-02  0.1130116E+00
         25   -1    0    0    0    0  0.00000000000E+00  0.00000000000E+00  0.99999998245E-14  0.12500000000E+03  0.12500000000E+03 0.  0.
        -11    1    1    0    0    0 -0.32007743283E+01 -0.33978080213E+01 -0.53162659301E+01  0.70747960642E+01  0.51100000000E-03 0. -1.
         11    1    1    0    0    0 -0.29347005696E+02 -0.29386601397E+02 -0.36741851370E+02  0.55450723416E+02  0.51100000000E-03 0.  1.
         22    1    1    0    0    0  0.32547780024E+02  0.32784409418E+02  0.42058117300E+02  0.62474480520E+02  0.00000000000E+00 0.  1.
</event>
<event>
 4    1  0.1956828E-002  0.9118800E+02  0.7818608E-02  0.1130116E+00
         25   -1    0    0    0    0  0.00000000000E+00  0.00000000000E+00  0.99999998245E-14  0.12500000000E+03  0.12500000000E+03 0.  0.
        -11    1    1    0    0    0 -0.86127970705E+01 -0.90103516597E+01  0.12658157159E+02  0.17765012056E+02  0.51100000000E-03 0. -1.
         11    1    1    0    0    0 -0.21691522293E+02 -0.22594912842E+02  0.31940081262E+02  0.44735008852E+02  0.51100000000E-03 0.  1.
         22    1    1    0    0    0  0.30304319363E+02  0.31605264501E+02 -0.44598238421E+02  0.62499979092E+02  0.00000000000E+00 0.  1.
</event>
<event>
 4    1  0.1956828E-002  0.9118800E+02  0.7818608E-02  0.1130116E+00
         25   -1    0    0    0    0  0.00000000000E+00  0.00000000000E+00  0.99999998245E-14  0.12500000000E+03  0.12500000000E+03 0.  0.
        -11    1    1    0    0    0  0.44606872761E-01  0.14027864391E+01 -0.49815675598E+00  0.14892816998E+01  0.51100000000E-03 0. -1.
         11    1    1    0    0    0  0.38514154940E+02 -0.30820258663E+01 -0.47943003029E+02  0.61574106196E+02  0.51100000000E-03 0.  1.
         22    1    1    0    0    0 -0.38558761813E+02  0.16792394272E+01  0.48441159785E+02  0.61936612104E+02  0.00000000000E+00 0.  1.
</event>
<event>
 4    1  0.1956828E-002  0.9118800E+02  0.7818608E-02  0.1130116E+00
         25   -1    0    0    0    0  0.00000000000E+00  0.00000000000E+00  0.99999998245E-14  0.12500000000E+03  0.12500000000E+03 0.  0.
        -11    1    1    0    0    0  0.36211336614E+02  0.21566628919E+02  0.96006100823E+01  0.43226752093E+02  0.51100000000E-03 0.  1.
         11    1    1    0    0    0  0.16517042898E+02  0.95664076876E+01  0.28144981816E+01  0.19293788182E+02  0.51100000000E-03 0. -1.
         22    1    1    0    0    0 -0.52728379512E+02 -0.31133036607E+02 -0.12415108264E+02  0.62479459725E+02  0.00000000000E+00 0.  1.
</event>
<event>
 4    1  0.1956828E-002  0.9118800E+02  0.7818608E-02  0.1130116E+00
         25   -1    0    0    0    0  0.00000000000E+00  0.00000000000E+00  0.99999998245E-14  0.12500000000E+03  0.12500000000E+03 0.  0.
        -11    1    1    0    0    0 -0.24329140834E+01 -0.54239865265E+01 -0.66447954488E+01  0.89158290469E+01  0.51100000000E-03 0.  1.
         11    1    1    0    0    0 -0.28541602747E+02 -0.39572954343E+02  0.29335562694E+02  0.56931687500E+02  0.51100000000E-03 0. -1.
         22    1    1    0    0    0  0.30974516830E+02  0.44996940870E+02 -0.22690767245E+02  0.59152483453E+02  0.00000000000E+00 0. -1.
</event>
<event>
 4    1  0.1956828E-002  0.9118800E+02  0.7818608E-02  0.1130116E+00
         25   -1    0    0    0    0  0.00000000000E+00  0.00000000000E+00  0.99999998245E-14  0.12500000000E+03  0.12500000000E+03 0.  0.
        -11    1    1    0    0    0 -0.45715986482E+01 -0.30651399959E+01 -0.31295771957E+01  0.63315757185E+01  0.51100000000E-03 0. -1.
         11    1    1    0    0    0 -0.40579750001E+02 -0.27174132037E+02 -0.27744231618E+02  0.56168424853E+02  0.51100000000E-03 0.  1.
         22    1    1    0    0    0  0.45151348650E+02  0.30239272033E+02  0.30873808813E+02  0.62499999429E+02  0.00000000000E+00 0.  1.
</event>
<event>
 4    1  0.1956828E-002  0.9118800E+02  0.7818608E-02  0.1130116E+00
         25   -1    0    0    0    0  0.00000000000E+00  0.00000000000E+00  0.99999998245E-14  0.12500000000E+03  0.12500000000E+03 0.  0.
        -11    1    1    0    0    0 -0.13323325923E+02  0.12762325554E+02  0.27004212814E+02  0.32704976336E+02  0.51100000000E-03 0.  1.
         11    1    1    0    0    0 -0.12139591166E+02  0.11625921476E+02  0.24601051041E+02  0.29795023686E+02  0.51100000000E-03 0. -1.
         22    1    1    0    0    0  0.25462917089E+02 -0.24388247030E+02 -0.51605263854E+02  0.62499999979E+02  0.00000000000E+00 0.  1.
</event>
<event>
 4    1  0.1956828E-002  0.9118800E+02  0.7818608E-02  0.1130116E+00
         25   -1    0    0    0    0  0.00000000000E+00  0.00000000000E+00  0.99999998245E-14  0.12500000000E+03  0.12500000000E+03 0.  0.
        -11    1    1    0    0    0  0.13530339857E+02  0.16841454096E+01  0.72347443751E+01  0.15435283245E+02  0.51100000000E-03 0.  1.
         11    1    1    0    0    0  0.41264286501E+02  0.51706799415E+01  0.22036572385E+02  0.47064719209E+02  0.51100000000E-03 0. -1.
         22    1    1    0    0    0 -0.54794626359E+02 -0.68548253510E+01 -0.29271316760E+02  0.62499997546E+02  0.00000000000E+00 0. -1.
</event>
<event>
 4    1  0.1956828E-002  0.9118800E+02  0.7818608E-02  0.1130116E+00
         25   -1    0    0    0    0  0.00000000000E+00  0.00000000000E+00  0.99999998245E-14  0.12500000000E+03  0.12500000000E+03 0.  0.
        -11    1    1    0    0    0  0.35578366330E+02 -0.34490851307E+02  0.68327388512E+01  0.50021248435E+02  0.51100000000E-03 0.  1.
         11    1    1    0    0    0  0.94635921320E+01 -0.62658317011E+01  0.60817828120E+01  0.12876657384E+02  0.51100000000E-03 0. -1.
         22    1    1    0    0    0 -0.45041958462E+02  0.40756683008E+02 -0.12914521663E+02  0.62102094181E+02  0.00000000000E+00 0.  1.
</event>
<event>
 4    1  0.1956828E-002  0.9118800E+02  0.7818608E-02  0.1130116E+00
         25   -1    0    0    0    0  0.00000000000E+00  0.00000000000E+00  0.99999998245E-14  0.12500000000E+03  0.12500000000E+03 0.  0.
        -11    1    1    0    0    0  0.51962091226E+01  0.34420157283E+01  0.20799480821E+01  0.65707112101E+01  0.51100000000E-03 0. -1.
         11    1    1    0    0    0  0.44073400905E+02  0.29520920412E+02  0.17723990782E+02  0.55929323783E+02  0.51100000000E-03 0.  1.
         22    1    1    0    0    0 -0.49269610028E+02 -0.32962936141E+02 -0.19803938864E+02  0.62499965007E+02  0.00000000000E+00 0.  1.
</event>
<event>
 4    1  0.1956828E-002  0.9118800E+02  0.7818608E-02  0.1130116E+00
         25   -1    0    0    0    0  0.00000000000E+00  0.00000000000E+00  0.99999998245E-14  0.12500000000E+03  0.12500000000E+03 0.  0.
        -11    1    1    0    0    0  0.20784422818E+02 -0.46456578600E+02  0.95217072780E+01  0.51777107266E+02  0.51100000000E-03 0.  1.
         11    1    1    0    0    0  0.43013537772E+01 -0.96190428065E+01  0.19881938610E+01  0.10722898112E+02  0.51100000000E-03 0. -1.
         22    1    1    0    0    0 -0.25085776595E+02  0.56075621407E+02 -0.11509901139E+02  0.62499994622E+02  0.00000000000E+00 0.  1.
</event>
<event>
 4    1  0.1956828E-002  0.9118800E+02  0.7818608E-02  0.1130116E+00
         25   -1    0    0    0    0  0.00000000000E+00  0.00000000000E+00  0.99999998245E-14  0.12500000000E+03  0.12500000000E+03 0.  0.
        -11    1    1    0    0    0 -0.16768794544E+00 -0.13147688559E+02 -0.21599943667E+01  0.13324991918E+02  0.51100000000E-03 0.  1.
         11    1    1    0    0    0 -0.63209367818E+00 -0.48518509511E+02 -0.79834921975E+01  0.49175008444E+02  0.51100000000E-03 0. -1.
         22    1    1    0    0    0  0.79978162363E+00  0.61666198070E+02  0.10143486564E+02  0.62499999638E+02  0.00000000000E+00 0. -1.
</event>
<event>
 4    1  0.1956828E-002  0.9118800E+02  0.7818608E-02  0.1130116E+00
         25   -1    0    0    0    0  0.00000000000E+00  0.00000000000E+00  0.99999998245E-14  0.12500000000E+03  0.12500000000E+03 0.  0.
        -11    1    1    0    0    0  0.15464945698E+02 -0.25296884674E+01  0.45417480233E+01  0.16315371420E+02  0.51100000000E-03 0. -1.
         11    1    1    0    0    0  0.43776903130E+02 -0.71609577027E+01  0.12857812984E+02  0.46184628588E+02  0.51100000000E-03 0. -1.
         22    1    1    0    0    0 -0.59241848828E+02  0.96906461700E+01 -0.17399561008E+02  0.62499999992E+02  0.00000000000E+00 0. -1.
</event>
<event>
 4    1  0.1956828E-002  0.9118800E+02  0.7818608E-02  0.1130116E+00
         25   -1    0    0    0    0  0.00000000000E+00  0.00000000000E+00  0.99999998245E-14  0.12500000000E+03  0.12500000000E+03 0.  0.
        -11    1    1    0    0    0 -0.14886385102E+02  0.11481775826E+02  0.30861202231E+02  0.36136538862E+02  0.51100000000E-03 0.  1.
         11    1    1    0    0    0 -0.10566953608E+02  0.99821707917E+01  0.22012973778E+02  0.26379447627E+02  0.51100000000E-03 0. -1.
         22    1    1    0    0    0  0.25453338711E+02 -0.21463946618E+02 -0.52874176009E+02  0.62484013512E+02  0.00000000000E+00 0.  1.
</event>
<event>
 4    1  0.1956828E-002  0.9118800E+02  0.7818608E-02  0.1130116E+00
         25   -1    0    0    0    0  0.00000000000E+00  0.00000000000E+00  0.99999998245E-14  0.12500000000E+03  0.12500000000E+03 0.  0.
        -11    1    1    0    0    0 -0.88430393324E+01  0.52792703953E+02  0.11567694067E+02  0.54763861091E+02  0.51100000000E-03 0.  1.
         11    1    1    0    0    0 -0.11884941354E+01 -0.69702806936E+00  0.12075257615E+02  0.12153609060E+02  0.51100000000E-03 0. -1.
         22    1    1    0    0    0  0.10031533468E+02 -0.52095675883E+02 -0.23642951683E+02  0.58082529849E+02  0.00000000000E+00 0.  1.
</event>
<event>
 4    1  0.1956828E-002  0.9118800E+02  0.7818608E-02  0.1130116E+00
         25   -1    0    0    0    0  0.00000000000E+00  0.00000000000E+00  0.99999998245E-14  0.12500000000E+03  0.12500000000E+03 0.  0.
        -11    1    1    0    0    0 -0.15463948311E+02  0.30753842058E+02  0.36441873839E+02  0.50129259598E+02  0.51100000000E-03 0.  1.
         11    1    1    0    0    0 -0.40243357167E+01  0.73220763422E+01  0.91258007648E+01  0.12372886477E+02  0.51100000000E-03 0. -1.
         22    1    1    0    0    0  0.19488284028E+02 -0.38075918400E+02 -0.45567674604E+02  0.62497853924E+02  0.00000000000E+00 0.  1.
</event>
<event>
 4    1  0.1956828E-002  0.9118800E+02  0.7818608E-02  0.1130116E+00
         25   -1    0    0    0    0  0.00000000000E+00  0.00000000000E+00  0.99999998245E-14  0.12500000000E+03  0.12500000000E+03 0.  0.
        -11    1    1    0    0    0 -0.24556336259E+01 -0.80546040332E+01  0.39418751010E+01  0.92975890536E+01  0.51100000000E-03 0. -1.
         11    1    1    0    0    0 -0.14090351237E+02 -0.46019032243E+02  0.22676171676E+02  0.53202425591E+02  0.51100000000E-03 0.  1.
         22    1    1    0    0    0  0.16545984863E+02  0.54073636276E+02 -0.26618046777E+02  0.62499985356E+02  0.00000000000E+00 0.  1.
</event>
<event>
 4    1  0.1956828E-002  0.9118800E+02  0.7818608E-02  0.1130116E+00
         25   -1    0    0    0    0  0.00000000000E+00  0.00000000000E+00  0.99999998245E-14  0.12500000000E+03  0.12500000000E+03 0.  0.
        -11    1    1    0    0    0  0.20737363663E+02  0.16841163571E+02  0.17904957968E+02  0.32159766203E+02  0.51100000000E-03 0. -1.
         11    1    1    0    0    0  0.19503379330E+02  0.15873979926E+02  0.16975498244E+02  0.30340279908E+02  0.51100000000E-03 0.  1.
         22    1    1    0    0    0 -0.40240742993E+02 -0.32715143497E+02 -0.34880456212E+02  0.62499953890E+02  0.00000000000E+00 0. -1.
</event>
<event>
 4    1  0.1956828E-002  0.9118800E+02  0.7818608E-02  0.1130116E+00
         25   -1    0    0    0    0  0.00000000000E+00  0.00000000000E+00  0.99999998245E-14  0.12500000000E+03  0.12500000000E+03 0.  0.
        -11    1    1    0    0    0  0.23283244512E+02 -0.17570518846E+02 -0.63275625631E+00  0.29175897386E+02  0.51100000000E-03 0.  1.
         11    1    1    0    0    0  0.22841775526E+02 -0.24422080481E+02 -0.27726950141E+00  0.33440418701E+02  0.51100000000E-03 0. -1.
         22    1    1    0    0    0 -0.46125020038E+02  0.41992599327E+02  0.91002575771E+00  0.62383683914E+02  0.00000000000E+00 0. -1.
</event>
<event>
 4    1  0.1956828E-002  0.9118800E+02  0.7818608E-02  0.1130116E+00
         25   -1    0    0    0    0  0.00000000000E+00  0.00000000000E+00  0.99999998245E-14  0.12500000000E+03  0.12500000000E+03 0.  0.
        -11    1    1    0    0    0 -0.18389272367E+01 -0.15083757875E+02 -0.72516068400E+01  0.16837078340E+02  0.51100000000E-03 0. -1.
         11    1    1    0    0    0  0.14423116579E+02  0.41204187453E+02 -0.35663841619E+02  0.56371277747E+02  0.51100000000E-03 0.  1.
         22    1    1    0    0    0 -0.12584189342E+02 -0.26120429579E+02  0.42915448459E+02  0.51791643913E+02  0.00000000000E+00 0.  1.
</event>
<event>
 4    1  0.1956828E-002  0.9118800E+02  0.7818608E-02  0.1130116E+00
         25   -1    0    0    0    0  0.00000000000E+00  0.00000000000E+00  0.99999998245E-14  0.12500000000E+03  0.12500000000E+03 0.  0.
        -11    1    1    0    0    0  0.52370657612E+02 -0.26473873202E+02  0.80741926221E+01  0.59234654787E+02  0.51100000000E-03 0.  1.
         11    1    1    0    0    0  0.28868036515E+01 -0.14595198828E+01  0.44569700172E+00  0.32653452634E+01  0.51100000000E-03 0. -1.
         22    1    1    0    0    0 -0.55257461263E+02  0.27933393085E+02 -0.85198896238E+01  0.62499999949E+02  0.00000000000E+00 0.  1.
</event>
<event>
 4    1  0.1956828E-002  0.9118800E+02  0.7818608E-02  0.1130116E+00
         25   -1    0    0    0    0  0.00000000000E+00  0.00000000000E+00  0.99999998245E-14  0.12500000000E+03  0.12500000000E+03 0.  0.
        -11    1    1    0    0    0 -0.28619194966E+02  0.92257533614E+01  0.53626403167E+02  0.61481411520E+02  0.51100000000E-03 0. -1.
         11    1    1    0    0    0  0.25015833446E+00 -0.48696375005E+00  0.11175521033E+01  0.12444419837E+01  0.51100000000E-03 0.  1.
         22    1    1    0    0    0  0.28369036632E+02 -0.87387896114E+01 -0.54743955270E+02  0.62274146497E+02  0.00000000000E+00 0. -1.
</event>
<event>
 4    1  0.1956828E-002  0.9118800E+02  0.7818608E-02  0.1130116E+00
         25   -1    0    0    0    0  0.00000000000E+00  0.00000000000E+00  0.99999998245E-14  0.12500000000E+03  0.12500000000E+03 0.  0.
        -11    1    1    0    0    0  0.39228342253E+02 -0.42770115606E+02  0.22492180568E+02  0.62241817228E+02  0.51100000000E-03 0. -1.
         11    1    1    0    0    0  0.16139458807E+00 -0.18168574458E+00  0.87338144092E-01  0.25823658799E+00  0.51100000000E-03 0.  1.
         22    1    1    0    0    0 -0.39389736841E+02  0.42951801351E+02 -0.22579518712E+02  0.62499946184E+02  0.00000000000E+00 0. -1.
</event>
<event>
 4    1  0.1956828E-002  0.9118800E+02  0.7818608E-02  0.1130116E+00
         25   -1    0    0    0    0  0.00000000000E+00  0.00000000000E+00  0.99999998245E-14  0.12500000000E+03  0.12500000000E+03 0.  0.
        -11    1    1    0    0    0 -0.63318860552E+00  0.27782270790E+00  0.28855610810E+00  0.74925173061E+00  0.51100000000E-03 0.  1.
         11    1    1    0    0    0 -0.51505954914E+02  0.25730874109E+02  0.22322126154E+02  0.61751263876E+02  0.51100000000E-03 0. -1.
         22    1    1    0    0    0  0.52139143519E+02 -0.26008696817E+02 -0.22610682262E+02  0.62499484393E+02  0.00000000000E+00 0. -1.
</event>
<event>
 4    1  0.1956828E-002  0.9118800E+02  0.7818608E-02  0.1130116E+00
         25   -1    0    0    0    0  0.00000000000E+00  0.00000000000E+00  0.99999998245E-14  0.12500000000E+03  0.12500000000E+03 0.  0.
        -11    1    1    0    0    0 -0.24341155921E+01 -0.41791153770E+02  0.99717167639E+01  0.43033249792E+02  0.51100000000E-03 0. -1.
         11    1    1    0    0    0 -0.11005641834E+01 -0.18904876878E+02  0.45109591456E+01  0.19466750216E+02  0.51100000000E-03 0. -1.
         22    1    1    0    0    0  0.35346797755E+01  0.60696030648E+02 -0.14482675910E+02  0.62499999992E+02  0.00000000000E+00 0. -1.
</event>
<event>
 4    1  0.1956828E-002  0.9118800E+02  0.7818608E-02  0.1130116E+00
         25   -1    0    0    0    0  0.00000000000E+00  0.00000000000E+00  0.99999998245E-14  0.12500000000E+03  0.12500000000E+03 0.  0.
        -11    1    1    0    0    0 -0.89772166184E+01  0.50699608429E+02 -0.10238382942E+02  0.52496335097E+02  0.51100000000E-03 0. -1.
         11    1    1    0    0    0 -0.17364482047E+01  0.96554144698E+01 -0.19573810306E+01  0.10003680408E+02  0.51100000000E-03 0.  1.
         22    1    1    0    0    0  0.10713664823E+02 -0.60355022899E+02  0.12195763972E+02  0.62499984495E+02  0.00000000000E+00 0. -1.
</event>
<event>
 4    1  0.1956828E-002  0.9118800E+02  0.7818608E-02  0.1130116E+00
         25   -1    0    0    0    0  0.00000000000E+00  0.00000000000E+00  0.99999998245E-14  0.12500000000E+03  0.12500000000E+03 0.  0.
        -11    1    1    0    0    0 -0.33990554162E+00  0.46712374684E+00 -0.15863226819E+00  0.59908666294E+00  0.51100000000E-03 0. -1.
         11    1    1    0    0    0 -0.35140991707E+02  0.48244162492E+02 -0.16411416114E+02  0.61900913497E+02  0.51100000000E-03 0. -1.
         22    1    1    0    0    0  0.35480897248E+02 -0.48711286239E+02  0.16570048382E+02  0.62499999840E+02  0.00000000000E+00 0. -1.
</event>
<event>
 4    1  0.1956828E-002  0.9118800E+02  0.7818608E-02  0.1130116E+00
         25   -1    0    0    0    0  0.00000000000E+00  0.00000000000E+00  0.99999998245E-14  0.12500000000E+03  0.12500000000E+03 0.  0.
        -11    1    1    0    0    0  0.20858912740E+02 -0.57736971755E+01 -0.16072972147E+02  0.26958676778E+02  0.51100000000E-03 0.  1.
         11    1    1    0    0    0  0.27490448767E+02 -0.78151779216E+01 -0.21128029767E+02  0.35541460598E+02  0.51100000000E-03 0. -1.
         22    1    1    0    0    0 -0.48349361506E+02  0.13588875097E+02  0.37201001914E+02  0.62499862623E+02  0.00000000000E+00 0. -1.
</event>
<event>
 4    1  0.1956828E-002  0.9118800E+02  0.7818608E-02  0.1130116E+00
         25   -1    0    0    0    0  0.00000000000E+00  0.00000000000E+00  0.99999998245E-14  0.12500000000E+03  0.12500000000E+03 0.  0.
        -11    1    1    0    0    0  0.34712288166E+02 -0.93947179325E+00 -0.60816817126E+01  0.35253544640E+02  0.51100000000E-03 0.  1.
         11    1    1    0    0    0  0.26818384422E+02 -0.76516378417E+00 -0.47496582913E+01  0.27246476337E+02  0.51100000000E-03 0. -1.
         22    1    1    0    0    0 -0.61530672588E+02  0.17046355774E+01  0.10831340004E+02  0.62499979023E+02  0.00000000000E+00 0.  1.
</event>
<event>
 4    1  0.1956828E-002  0.9118800E+02  0.7818608E-02  0.1130116E+00
         25   -1    0    0    0    0  0.00000000000E+00  0.00000000000E+00  0.99999998245E-14  0.12500000000E+03  0.12500000000E+03 0.  0.
        -11    1    1    0    0    0 -0.12374612247E+02  0.16350801321E+02 -0.45959137754E+02  0.50326156971E+02  0.51100000000E-03 0.  1.
         11    1    1    0    0    0 -0.32482853051E+01  0.38383358899E+01 -0.11088294514E+02  0.12175157302E+02  0.51100000000E-03 0. -1.
         22    1    1    0    0    0  0.15622897552E+02 -0.20189137211E+02  0.57047432268E+02  0.62498685727E+02  0.00000000000E+00 0.  1.
</event>
<event>
 4    1  0.1956828E-002  0.9118800E+02  0.7818608E-02  0.1130116E+00
         25   -1    0    0    0    0  0.00000000000E+00  0.00000000000E+00  0.99999998245E-14  0.12500000000E+03  0.12500000000E+03 0.  0.
        -11    1    1    0    0    0  0.59564805625E+02  0.15948052647E+02 -0.48746742398E+00  0.61664771767E+02  0.51100000000E-03 0.  1.
         11    1    1    0    0    0  0.80337957687E+00  0.22870544772E+00  0.22580216165E-02  0.83530251174E+00  0.51100000000E-03 0. -1.
         22    1    1    0    0    0 -0.60368185202E+02 -0.16176758094E+02  0.48520940236E+00  0.62499925721E+02  0.00000000000E+00 0.  1.
</event>
<event>
 4    1  0.1956828E-002  0.9118800E+02  0.7818608E-02  0.1130116E+00
         25   -1    0    0    0    0  0.00000000000E+00  0.00000000000E+00  0.99999998245E-14  0.12500000000E+03  0.12500000000E+03 0.  0.
        -11    1    1    0    0    0 -0.46586969865E+02 -0.33403588000E+02  0.34698601443E+00  0.57325961414E+02  0.51100000000E-03 0. -1.
         11    1    1    0    0    0 -0.42059449788E+01 -0.30132004543E+01  0.36602915462E-01  0.51740400247E+01  0.51100000000E-03 0.  1.
         22    1    1    0    0    0  0.50792914844E+02  0.36416788455E+02 -0.38358892989E+00  0.62499998561E+02  0.00000000000E+00 0. -1.
</event>
<event>
 4    1  0.1956828E-002  0.9118800E+02  0.7818608E-02  0.1130116E+00
         25   -1    0    0    0    0  0.00000000000E+00  0.00000000000E+00  0.99999998245E-14  0.12500000000E+03  0.12500000000E+03 0.  0.
        -11    1    1    0    0    0 -0.78376083290E+01  0.51671595076E+02  0.42722608734E+01  0.52436953146E+02  0.51100000000E-03 0.  1.
         11    1    1    0    0    0 -0.15403879814E+01  0.99082153498E+01  0.84871263242E+00  0.10063092961E+02  0.51100000000E-03 0. -1.
         22    1    1    0    0    0  0.93779963104E+01 -0.61579810426E+02 -0.51209735058E+01  0.62499953892E+02  0.00000000000E+00 0.  1.
</event>
<event>
 4    1  0.1956828E-002  0.9118800E+02  0.7818608E-02  0.1130116E+00
         25   -1    0    0    0    0  0.00000000000E+00  0.00000000000E+00  0.99999998245E-14  0.12500000000E+03  0.12500000000E+03 0.  0.
        -11    1    1    0    0    0  0.34680179037E+01  0.12766694277E+02  0.68642097880E+01  0.14904127187E+02  0.51100000000E-03 0. -1.
         11    1    1    0    0    0  0.10591957901E+02  0.41110313620E+02  0.21521623124E+02  0.47596509539E+02  0.51100000000E-03 0.  1.
         22    1    1    0    0    0 -0.14059975804E+02 -0.53877007897E+02 -0.28385832912E+02  0.62499363274E+02  0.00000000000E+00 0.  1.
</event>
<event>
 4    1  0.1956828E-002  0.9118800E+02  0.7818608E-02  0.1130116E+00
         25   -1    0    0    0    0  0.00000000000E+00  0.00000000000E+00  0.99999998245E-14  0.12500000000E+03  0.12500000000E+03 0.  0.
        -11    1    1    0    0    0  0.37258763724E+02  0.37940937285E+02 -0.20661778696E+02  0.57049446057E+02  0.51100000000E-03 0.  1.
         11    1    1    0    0    0  0.32740662213E+01  0.40581907033E+01 -0.16412567821E+01  0.54664563926E+01  0.51100000000E-03 0. -1.
         22    1    1    0    0    0 -0.40532829945E+02 -0.41999127988E+02  0.22303035478E+02  0.62484097550E+02  0.00000000000E+00 0.  1.
</event>
<event>
 4    1  0.1956828E-002  0.9118800E+02  0.7818608E-02  0.1130116E+00
         25   -1    0    0    0    0  0.00000000000E+00  0.00000000000E+00  0.99999998245E-14  0.12500000000E+03  0.12500000000E+03 0.  0.
        -11    1    1    0    0    0 -0.51241739583E+01 -0.49954163390E+01  0.33811572662E+01  0.79147689717E+01  0.51100000000E-03 0. -1.
         11    1    1    0    0    0 -0.30204841252E+02 -0.35542910965E+02  0.28413123275E+02  0.54616266162E+02  0.51100000000E-03 0.  1.
         22    1    1    0    0    0  0.35329015210E+02  0.40538327304E+02 -0.31794280542E+02  0.62468964867E+02  0.00000000000E+00 0.  1.
</event>
<event>
 4    1  0.1956828E-002  0.9118800E+02  0.7818608E-02  0.1130116E+00
         25   -1    0    0    0    0  0.00000000000E+00  0.00000000000E+00  0.99999998245E-14  0.12500000000E+03  0.12500000000E+03 0.  0.
        -11    1    1    0    0    0  0.26801995680E+02 -0.38908901455E+02 -0.30965562148E+02  0.56489960385E+02  0.51100000000E-03 0. -1.
         11    1    1    0    0    0  0.28493033531E+01 -0.41395705032E+01 -0.32963625888E+01  0.60100399438E+01  0.51100000000E-03 0.  1.
         22    1    1    0    0    0 -0.29651299033E+02  0.43048471958E+02  0.34261924737E+02  0.62499999672E+02  0.00000000000E+00 0. -1.
</event>
<event>
 4    1  0.1956828E-002  0.9118800E+02  0.7818608E-02  0.1130116E+00
         25   -1    0    0    0    0  0.00000000000E+00  0.00000000000E+00  0.99999998245E-14  0.12500000000E+03  0.12500000000E+03 0.  0.
        -11    1    1    0    0    0 -0.24988856562E+02 -0.48447499891E+02  0.21282991382E+02  0.58519816476E+02  0.51100000000E-03 0. -1.
         11    1    1    0    0    0 -0.17093795543E+01 -0.32978622386E+01  0.14297494727E+01  0.39802082384E+01  0.51100000000E-03 0.  1.
         22    1    1    0    0    0  0.26698236116E+02  0.51745362129E+02 -0.22712740855E+02  0.62499975286E+02  0.00000000000E+00 0. -1.
</event>
<event>
 4    1  0.1956828E-002  0.9118800E+02  0.7818608E-02  0.1130116E+00
         25   -1    0    0    0    0  0.00000000000E+00  0.00000000000E+00  0.99999998245E-14  0.12500000000E+03  0.12500000000E+03 0.  0.
        -11    1    1    0    0    0  0.11434515543E+02 -0.16105078850E+02  0.13768925774E+02  0.24077064350E+02  0.51100000000E-03 0. -1.
         11    1    1    0    0    0  0.19283026863E+02 -0.24160868554E+02  0.22837397866E+02  0.38433441634E+02  0.51100000000E-03 0.  1.
         22    1    1    0    0    0 -0.30717542407E+02  0.40265947405E+02 -0.36606323640E+02  0.62489494016E+02  0.00000000000E+00 0.  1.
</event>
<event>
 4    1  0.1956828E-002  0.9118800E+02  0.7818608E-02  0.1130116E+00
         25   -1    0    0    0    0  0.00000000000E+00  0.00000000000E+00  0.99999998245E-14  0.12500000000E+03  0.12500000000E+03 0.  0.
        -11    1    1    0    0    0 -0.52888746558E+01 -0.18686603937E+00 -0.80420184465E+01  0.96271062629E+01  0.51100000000E-03 0. -1.
         11    1    1    0    0    0 -0.31277033940E+02 -0.37526745429E+01 -0.42478028600E+02  0.52884008285E+02  0.51100000000E-03 0.  1.
         22    1    1    0    0    0  0.36565908596E+02  0.39395405823E+01  0.50520047046E+02  0.62488885452E+02  0.00000000000E+00 0.  1.
</event>
<event>
 4    1  0.1956828E-002  0.9118800E+02  0.7818608E-02  0.1130116E+00
         25   -1    0    0    0    0  0.00000000000E+00  0.00000000000E+00  0.99999998245E-14  0.12500000000E+03  0.12500000000E+03 0.  0.
        -11    1    1    0    0    0 -0.63361968055E+01 -0.60219569552E+02 -0.81503707260E+01  0.61098056354E+02  0.51100000000E-03 0.  1.
         11    1    1    0    0    0  0.16699322409E+00 -0.13654143771E+01 -0.37136056778E+00  0.14248340572E+01  0.51100000000E-03 0. -1.
         22    1    1    0    0    0  0.61692035815E+01  0.61584983929E+02  0.85217312938E+01  0.62477109589E+02  0.00000000000E+00 0.  1.
</event>
<event>
 4    1  0.1956828E-002  0.9118800E+02  0.7818608E-02  0.1130116E+00
         25   -1    0    0    0    0  0.00000000000E+00  0.00000000000E+00  0.99999998245E-14  0.12500000000E+03  0.12500000000E+03 0.  0.
        -11    1    1    0    0    0 -0.17951666747E+02  0.43409874204E+02 -0.12677976634E+02  0.48656043913E+02  0.51100000000E-03 0. -1.
         11    1    1    0    0    0 -0.55951107689E+01  0.11929082633E+02 -0.42882778002E+01  0.13856319992E+02  0.51100000000E-03 0.  1.
         22    1    1    0    0    0  0.23546777516E+02 -0.55338956837E+02  0.16966254434E+02  0.62487636095E+02  0.00000000000E+00 0. -1.
</event>
<event>
 4    1  0.1956828E-002  0.9118800E+02  0.7818608E-02  0.1130116E+00
         25   -1    0    0    0    0  0.00000000000E+00  0.00000000000E+00  0.99999998245E-14  0.12500000000E+03  0.12500000000E+03 0.  0.
        -11    1    1    0    0    0 -0.49293322661E+02  0.23759529751E+02  0.78751748802E+01  0.55284403701E+02  0.51100000000E-03 0.  1.
         11    1    1    0    0    0 -0.56312761742E+01  0.42823359286E+01  0.17808374668E+01  0.72952761907E+01  0.51100000000E-03 0. -1.
         22    1    1    0    0    0  0.54924598835E+02 -0.28041865680E+02 -0.96560123470E+01  0.62420320108E+02  0.00000000000E+00 0.  1.
</event>
<event>
 4    1  0.1956828E-002  0.9118800E+02  0.7818608E-02  0.1130116E+00
         25   -1    0    0    0    0  0.00000000000E+00  0.00000000000E+00  0.99999998245E-14  0.12500000000E+03  0.12500000000E+03 0.  0.
        -11    1    1    0    0    0  0.99331462787E+01  0.83600435435E+01  0.99460004389E+01  0.16354835616E+02  0.51100000000E-03 0. -1.
         11    1    1    0    0    0  0.27993657850E+02  0.23623348677E+02  0.28065441731E+02  0.46145167703E+02  0.51100000000E-03 0.  1.
         22    1    1    0    0    0 -0.37926804129E+02 -0.31983392220E+02 -0.38011442170E+02  0.62499996681E+02  0.00000000000E+00 0.  1.
</event>
<event>
 4    1  0.1956828E-002  0.9118800E+02  0.7818608E-02  0.1130116E+00
         25   -1    0    0    0    0  0.00000000000E+00  0.00000000000E+00  0.99999998245E-14  0.12500000000E+03  0.12500000000E+03 0.  0.
        -11    1    1    0    0    0 -0.14379413703E+02 -0.19900608034E+01  0.73928391935E+01  0.16290547936E+02  0.51100000000E-03 0.  1.
         11    1    1    0    0    0 -0.40789687389E+02 -0.56519063243E+01  0.20965944457E+02  0.46209452167E+02  0.51100000000E-03 0. -1.
         22    1    1    0    0    0  0.55169101092E+02  0.76419671278E+01 -0.28358783651E+02  0.62499999896E+02  0.00000000000E+00 0. -1.
</event>
<event>
 4    1  0.1956828E-002  0.9118800E+02  0.7818608E-02  0.1130116E+00
         25   -1    0    0    0    0  0.00000000000E+00  0.00000000000E+00  0.99999998245E-14  0.12500000000E+03  0.12500000000E+03 0.  0.
        -11    1    1    0    0    0  0.14398476046E+02  0.74681702659E+01 -0.40896786366E+02  0.43995872703E+02  0.51100000000E-03 0.  1.
         11    1    1    0    0    0  0.62296109983E+01  0.28773093798E+01 -0.17185777570E+02  0.18505078044E+02  0.51100000000E-03 0. -1.
         22    1    1    0    0    0 -0.20628087044E+02 -0.10345479646E+02  0.58082563936E+02  0.62499049253E+02  0.00000000000E+00 0.  1.
</event>
<event>
 4    1  0.1956828E-002  0.9118800E+02  0.7818608E-02  0.1130116E+00
         25   -1    0    0    0    0  0.00000000000E+00  0.00000000000E+00  0.99999998245E-14  0.12500000000E+03  0.12500000000E+03 0.  0.
        -11    1    1    0    0    0  0.75875397571E+00  0.94324977673E+00 -0.15501650883E+02  0.15548845877E+02  0.51100000000E-03 0. -1.
         11    1    1    0    0    0  0.22722624941E+01  0.28600756428E+01 -0.46808842390E+02  0.46951154786E+02  0.51100000000E-03 0.  1.
         22    1    1    0    0    0 -0.30310164698E+01 -0.38033254196E+01  0.62310493274E+02  0.62499999337E+02  0.00000000000E+00 0.  1.
</event>
<event>
 4    1  0.1956828E-002  0.9118800E+02  0.7818608E-02  0.1130116E+00
         25   -1    0    0    0    0  0.00000000000E+00  0.00000000000E+00  0.99999998245E-14  0.12500000000E+03  0.12500000000E+03 0.  0.
        -11    1    1    0    0    0  0.16545968837E+02 -0.59348997261E+01  0.25413375627E+01  0.17760926675E+02  0.51100000000E-03 0.  1.
         11    1    1    0    0    0  0.41315001899E+02 -0.14646530625E+02  0.90072842912E+01  0.44750211305E+02  0.51100000000E-03 0. -1.
         22    1    1    0    0    0 -0.57860970736E+02  0.20581430351E+02 -0.11548621854E+02  0.62488862020E+02  0.00000000000E+00 0. -1.
</event>
<event>
 4    1  0.1956828E-002  0.9118800E+02  0.7818608E-02  0.1130116E+00
         25   -1    0    0    0    0  0.00000000000E+00  0.00000000000E+00  0.99999998245E-14  0.12500000000E+03  0.12500000000E+03 0.  0.
        -11    1    1    0    0    0  0.42337073573E+01 -0.25312567763E+01  0.24495466146E+01  0.55074329531E+01  0.51100000000E-03 0.  1.
         11    1    1    0    0    0  0.43813434250E+02 -0.26190004571E+02  0.25349937685E+02  0.56992567069E+02  0.51100000000E-03 0.  1.
         22    1    1    0    0    0 -0.48047141607E+02  0.28721261347E+02 -0.27799484299E+02  0.62499999978E+02  0.00000000000E+00 0.  1.
</event>
<event>
 4    1  0.1956828E-002  0.9118800E+02  0.7818608E-02  0.1130116E+00
         25   -1    0    0    0    0  0.00000000000E+00  0.00000000000E+00  0.99999998245E-14  0.12500000000E+03  0.12500000000E+03 0.  0.
        -11    1    1    0    0    0 -0.15396278171E+02 -0.26674551174E+02  0.17544124882E+02  0.35445357665E+02  0.51100000000E-03 0. -1.
         11    1    1    0    0    0 -0.32013413716E+00 -0.25898820782E+02  0.10479640866E+02  0.27940548969E+02  0.51100000000E-03 0.  1.
         22    1    1    0    0    0  0.15716412309E+02  0.52573371956E+02 -0.28023765748E+02  0.61614093366E+02  0.00000000000E+00 0.  1.
</event>
<event>
 4    1  0.1956828E-002  0.9118800E+02  0.7818608E-02  0.1130116E+00
         25   -1    0    0    0    0  0.00000000000E+00  0.00000000000E+00  0.99999998245E-14  0.12500000000E+03  0.12500000000E+03 0.  0.
        -11    1    1    0    0    0 -0.14231725928E+02  0.18322689827E+02 -0.89373113917E+01  0.24862391691E+02  0.51100000000E-03 0. -1.
         11    1    1    0    0    0 -0.21543175463E+02  0.27738886510E+02 -0.13529054890E+02  0.37637608324E+02  0.51100000000E-03 0.  1.
         22    1    1    0    0    0  0.35774901392E+02 -0.46061576337E+02  0.22466366282E+02  0.62499999985E+02  0.00000000000E+00 0.  1.
</event>
<event>
 4    1  0.1956828E-002  0.9118800E+02  0.7818608E-02  0.1130116E+00
         25   -1    0    0    0    0  0.00000000000E+00  0.00000000000E+00  0.99999998245E-14  0.12500000000E+03  0.12500000000E+03 0.  0.
        -11    1    1    0    0    0 -0.36011514448E+01 -0.12054879114E+02  0.34476610130E+01  0.13045105171E+02  0.51100000000E-03 0.  1.
         11    1    1    0    0    0 -0.12825904004E+02 -0.46022052632E+02  0.12780620556E+02  0.49455812641E+02  0.51100000000E-03 0. -1.
         22    1    1    0    0    0  0.16427055448E+02  0.58076931746E+02 -0.16228281569E+02  0.62499082188E+02  0.00000000000E+00 0. -1.
</event>
<event>
 4    1  0.1956828E-002  0.9118800E+02  0.7818608E-02  0.1130116E+00
         25   -1    0    0    0    0  0.00000000000E+00  0.00000000000E+00  0.99999998245E-14  0.12500000000E+03  0.12500000000E+03 0.  0.
        -11    1    1    0    0    0 -0.37789049615E+02  0.11446373241E+02 -0.50091097638E+01  0.39801041595E+02  0.51100000000E-03 0.  1.
         11    1    1    0    0    0 -0.21552240021E+02  0.65269466186E+01 -0.28535301560E+01  0.22698958493E+02  0.51100000000E-03 0. -1.
         22    1    1    0    0    0  0.59341289636E+02 -0.17973319860E+02  0.78626399198E+01  0.62499999911E+02  0.00000000000E+00 0.  1.
</event>
<event>
 4    1  0.1956828E-002  0.9118800E+02  0.7818608E-02  0.1130116E+00
         25   -1    0    0    0    0  0.00000000000E+00  0.00000000000E+00  0.99999998245E-14  0.12500000000E+03  0.12500000000E+03 0.  0.
        -11    1    1    0    0    0  0.24755238536E+02  0.18140889995E+02  0.46374077620E+02  0.55609970330E+02  0.51100000000E-03 0. -1.
         11    1    1    0    0    0  0.60335940078E+00 -0.10289630482E+01  0.74148086059E+01  0.75101394424E+01  0.51100000000E-03 0.  1.
         22    1    1    0    0    0 -0.25358597936E+02 -0.17111926947E+02 -0.53788886226E+02  0.61879890227E+02  0.00000000000E+00 0. -1.
</event>
<event>
 4    1  0.1956828E-002  0.9118800E+02  0.7818608E-02  0.1130116E+00
         25   -1    0    0    0    0  0.00000000000E+00  0.00000000000E+00  0.99999998245E-14  0.12500000000E+03  0.12500000000E+03 0.  0.
        -11    1    1    0    0    0  0.25109917510E+02 -0.40353497870E+02  0.61958493341E+01  0.47930171051E+02  0.51100000000E-03 0.  1.
         11    1    1    0    0    0  0.78033741842E+01 -0.12183598862E+02  0.17235914004E+01  0.14570638197E+02  0.51100000000E-03 0. -1.
         22    1    1    0    0    0 -0.32913291694E+02  0.52537096732E+02 -0.79194407345E+01  0.62499190753E+02  0.00000000000E+00 0.  1.
</event>
<event>
 4    1  0.1956828E-002  0.9118800E+02  0.7818608E-02  0.1130116E+00
         25   -1    0    0    0    0  0.00000000000E+00  0.00000000000E+00  0.99999998245E-14  0.12500000000E+03  0.12500000000E+03 0.  0.
        -11    1    1    0    0    0  0.99409091657E+01 -0.17138512293E+02 -0.27220022192E+02  0.33667193038E+02  0.51100000000E-03 0.  1.
         11    1    1    0    0    0  0.85154424821E+01 -0.14686581970E+02 -0.23304985323E+02  0.28832807560E+02  0.51100000000E-03 0. -1.
         22    1    1    0    0    0 -0.18456351648E+02  0.31825094263E+02  0.50525007514E+02  0.62499999403E+02  0.00000000000E+00 0.  1.
</event>
<event>
 4    1  0.1956828E-002  0.9118800E+02  0.7818608E-02  0.1130116E+00
         25   -1    0    0    0    0  0.00000000000E+00  0.00000000000E+00  0.99999998245E-14  0.12500000000E+03  0.12500000000E+03 0.  0.
        -11    1    1    0    0    0  0.16381504453E+02 -0.14628851609E+02 -0.38333608595E+01  0.22294655039E+02  0.51100000000E-03 0. -1.
         11    1    1    0    0    0  0.29539837144E+02 -0.26417641444E+02 -0.67808080666E+01  0.40205386657E+02  0.51100000000E-03 0.  1.
         22    1    1    0    0    0 -0.45921341597E+02  0.41046493053E+02  0.10614168926E+02  0.62499958304E+02  0.00000000000E+00 0.  1.
</event>
<event>
 4    1  0.1956828E-002  0.9118800E+02  0.7818608E-02  0.1130116E+00
         25   -1    0    0    0    0  0.00000000000E+00  0.00000000000E+00  0.99999998245E-14  0.12500000000E+03  0.12500000000E+03 0.  0.
        -11    1    1    0    0    0 -0.36302312622E+02 -0.29148742820E+02 -0.31085901939E+02  0.55980714619E+02  0.51100000000E-03 0.  1.
         11    1    1    0    0    0 -0.53869689309E+01 -0.28025605957E+01 -0.26158409874E+01  0.66118382079E+01  0.51100000000E-03 0. -1.
         22    1    1    0    0    0  0.41689281553E+02  0.31951303415E+02  0.33701742926E+02  0.62407447173E+02  0.00000000000E+00 0.  1.
</event>
<event>
 4    1  0.1956828E-002  0.9118800E+02  0.7818608E-02  0.1130116E+00
         25   -1    0    0    0    0  0.00000000000E+00  0.00000000000E+00  0.99999998245E-14  0.12500000000E+03  0.12500000000E+03 0.  0.
        -11    1    1    0    0    0 -0.13643154281E+01 -0.37463040874E-01 -0.27156645855E+01  0.30393411241E+01  0.51100000000E-03 0. -1.
         11    1    1    0    0    0 -0.26703055455E+02  0.11289879600E+00 -0.53127407596E+02  0.59460805199E+02  0.51100000000E-03 0.  1.
         22    1    1    0    0    0  0.28067370883E+02 -0.75435755123E-01  0.55843072182E+02  0.62499853676E+02  0.00000000000E+00 0.  1.
</event>
<event>
 4    1  0.1956828E-002  0.9118800E+02  0.7818608E-02  0.1130116E+00
         25   -1    0    0    0    0  0.00000000000E+00  0.00000000000E+00  0.99999998245E-14  0.12500000000E+03  0.12500000000E+03 0.  0.
        -11    1    1    0    0    0  0.55341224089E+02  0.12144235597E+02 -0.25169652503E+02  0.61997136622E+02  0.51100000000E-03 0. -1.
         11    1    1    0    0    0  0.44896760631E+00  0.98213791463E-01 -0.20409222095E+00  0.50286355617E+00  0.51100000000E-03 0. -1.
         22    1    1    0    0    0 -0.55790191696E+02 -0.12242449388E+02  0.25373744723E+02  0.62499999822E+02  0.00000000000E+00 0. -1.
</event>
<event>
 4    1  0.1956828E-002  0.9118800E+02  0.7818608E-02  0.1130116E+00
         25   -1    0    0    0    0  0.00000000000E+00  0.00000000000E+00  0.99999998245E-14  0.12500000000E+03  0.12500000000E+03 0.  0.
        -11    1    1    0    0    0  0.11863836332E+02 -0.32913698481E+01  0.20927792521E+02  0.24280778984E+02  0.51100000000E-03 0. -1.
         11    1    1    0    0    0  0.18714666470E+02 -0.52310534303E+01  0.32910593830E+02  0.38219234000E+02  0.51100000000E-03 0.  1.
         22    1    1    0    0    0 -0.30578502803E+02  0.85224232784E+01 -0.53838386350E+02  0.62499987016E+02  0.00000000000E+00 0.  1.
</event>
<event>
 4    1  0.1956828E-002  0.9118800E+02  0.7818608E-02  0.1130116E+00
         25   -1    0    0    0    0  0.00000000000E+00  0.00000000000E+00  0.99999998245E-14  0.12500000000E+03  0.12500000000E+03 0.  0.
        -11    1    1    0    0    0 -0.37555694205E+02 -0.89001492950E+00  0.34598785047E+02  0.51071501063E+02  0.51100000000E-03 0. -1.
         11    1    1    0    0    0 -0.83978351931E+01 -0.20071146663E+00  0.77489806729E+01  0.11428500460E+02  0.51100000000E-03 0.  1.
         22    1    1    0    0    0  0.45953529398E+02  0.10907263961E+01 -0.42347765720E+02  0.62499998478E+02  0.00000000000E+00 0. -1.
</event>
<event>
 4    1  0.1956828E-002  0.9118800E+02  0.7818608E-02  0.1130116E+00
         25   -1    0    0    0    0  0.00000000000E+00  0.00000000000E+00  0.99999998245E-14  0.12500000000E+03  0.12500000000E+03 0.  0.
        -11    1    1    0    0    0 -0.27976323469E+02 -0.13556268758E+02  0.38537766610E+01  0.31325687419E+02  0.51100000000E-03 0.  1.
         11    1    1    0    0    0 -0.27986861013E+02 -0.13065972713E+02  0.42361024407E+01  0.31175769380E+02  0.51100000000E-03 0. -1.
         22    1    1    0    0    0  0.55963184482E+02  0.26622241471E+02 -0.80898791017E+01  0.62498543200E+02  0.00000000000E+00 0. -1.
</event>
<event>
 4    1  0.1956828E-002  0.9118800E+02  0.7818608E-02  0.1130116E+00
         25   -1    0    0    0    0  0.00000000000E+00  0.00000000000E+00  0.99999998245E-14  0.12500000000E+03  0.12500000000E+03 0.  0.
        -11    1    1    0    0    0 -0.35863102910E+02  0.20105653446E+02  0.60317671034E+01  0.41554562511E+02  0.51100000000E-03 0. -1.
         11    1    1    0    0    0 -0.18076138700E+02  0.10135189396E+02  0.30401476237E+01  0.20945437504E+02  0.51100000000E-03 0.  1.
         22    1    1    0    0    0  0.53939241610E+02 -0.30240842842E+02 -0.90719147272E+01  0.62499999985E+02  0.00000000000E+00 0. -1.
</event>
<event>
 4    1  0.1956828E-002  0.9118800E+02  0.7818608E-02  0.1130116E+00
         25   -1    0    0    0    0  0.00000000000E+00  0.00000000000E+00  0.99999998245E-14  0.12500000000E+03  0.12500000000E+03 0.  0.
        -11    1    1    0    0    0  0.28481539642E+02  0.28767797016E+02  0.45197757219E+02  0.60676366926E+02  0.51100000000E-03 0.  1.
         11    1    1    0    0    0  0.10445307331E+01  0.76322624159E+00  0.12947245603E+01  0.18302651984E+01  0.51100000000E-03 0. -1.
         22    1    1    0    0    0 -0.29526070375E+02 -0.29531023258E+02 -0.46492481779E+02  0.62493367875E+02  0.00000000000E+00 0.  1.
</event>
<event>
 4    1  0.1956828E-002  0.9118800E+02  0.7818608E-02  0.1130116E+00
         25   -1    0    0    0    0  0.00000000000E+00  0.00000000000E+00  0.99999998245E-14  0.12500000000E+03  0.12500000000E+03 0.  0.
        -11    1    1    0    0    0 -0.13395856146E+02 -0.28518247727E+01 -0.56697849061E+01  0.14823236069E+02  0.51100000000E-03 0.  1.
         11    1    1    0    0    0 -0.43776704585E+02 -0.93132148927E+01 -0.16443178824E+02  0.47681379657E+02  0.51100000000E-03 0. -1.
         22    1    1    0    0    0  0.57172560731E+02  0.12165039665E+02  0.22112963730E+02  0.62495384273E+02  0.00000000000E+00 0. -1.
</event>
<event>
 4    1  0.1956828E-002  0.9118800E+02  0.7818608E-02  0.1130116E+00
         25   -1    0    0    0    0  0.00000000000E+00  0.00000000000E+00  0.99999998245E-14  0.12500000000E+03  0.12500000000E+03 0.  0.
        -11    1    1    0    0    0  0.62045933358E+01  0.26814361775E+02  0.53946595475E+01  0.28046556433E+02  0.51100000000E-03 0. -1.
         11    1    1    0    0    0  0.78527420907E+01  0.32896015078E+02  0.65756656544E+01  0.34453631818E+02  0.51100000000E-03 0.  1.
         22    1    1    0    0    0 -0.14057335427E+02 -0.59710376853E+02 -0.11970325202E+02  0.62499811749E+02  0.00000000000E+00 0. -1.
</event>
<event>
 4    1  0.1956828E-002  0.9118800E+02  0.7818608E-02  0.1130116E+00
         25   -1    0    0    0    0  0.00000000000E+00  0.00000000000E+00  0.99999998245E-14  0.12500000000E+03  0.12500000000E+03 0.  0.
        -11    1    1    0    0    0  0.19011889296E+01 -0.43493915342E+02  0.44113312854E+02  0.61978379798E+02  0.51100000000E-03 0. -1.
         11    1    1    0    0    0  0.17739819659E-01 -0.36530406045E+00  0.37192437424E+00  0.52162223788E+00  0.51100000000E-03 0.  1.
         22    1    1    0    0    0 -0.19189287492E+01  0.43859219403E+02 -0.44485237229E+02  0.62499997964E+02  0.00000000000E+00 0. -1.
</event>
<event>
 4    1  0.1956828E-002  0.9118800E+02  0.7818608E-02  0.1130116E+00
         25   -1    0    0    0    0  0.00000000000E+00  0.00000000000E+00  0.99999998245E-14  0.12500000000E+03  0.12500000000E+03 0.  0.
        -11    1    1    0    0    0 -0.29068397944E+02  0.34421628162E+02  0.27034259184E+02  0.52542091834E+02  0.51100000000E-03 0.  1.
         11    1    1    0    0    0 -0.55075903970E+01  0.65238803684E+01  0.51249750921E+01  0.99579082642E+01  0.51100000000E-03 0. -1.
         22    1    1    0    0    0  0.34575988341E+02 -0.40945508530E+02 -0.32159234276E+02  0.62499999902E+02  0.00000000000E+00 0.  1.
</event>
<event>
 4    1  0.1956828E-002  0.9118800E+02  0.7818608E-02  0.1130116E+00
         25   -1    0    0    0    0  0.00000000000E+00  0.00000000000E+00  0.99999998245E-14  0.12500000000E+03  0.12500000000E+03 0.  0.
        -11    1    1    0    0    0  0.88591642187E+00  0.25448399712E+01 -0.10398290400E+01  0.28883045336E+01  0.51100000000E-03 0. -1.
         11    1    1    0    0    0 -0.33449256185E+02  0.42341058364E+02 -0.26590790638E+02  0.60155532661E+02  0.51100000000E-03 0.  1.
         22    1    1    0    0    0  0.32563339763E+02 -0.44885898335E+02  0.27630619678E+02  0.61956162806E+02  0.00000000000E+00 0.  1.
</event>
<event>
 4    1  0.1956828E-002  0.9118800E+02  0.7818608E-02  0.1130116E+00
         25   -1    0    0    0    0  0.00000000000E+00  0.00000000000E+00  0.99999998245E-14  0.12500000000E+03  0.12500000000E+03 0.  0.
        -11    1    1    0    0    0 -0.86559712741E+01  0.23751914494E+02 -0.44565056973E+02  0.51235959873E+02  0.51100000000E-03 0.  1.
         11    1    1    0    0    0  0.60412831464E+01  0.97253719550E+01 -0.61068020981E+01  0.12975861969E+02  0.51100000000E-03 0. -1.
         22    1    1    0    0    0  0.26146881276E+01 -0.33477286449E+02  0.50671859071E+02  0.60788178158E+02  0.00000000000E+00 0.  1.
</event>
<event>
 4    1  0.1956828E-002  0.9118800E+02  0.7818608E-02  0.1130116E+00
         25   -1    0    0    0    0  0.00000000000E+00  0.00000000000E+00  0.99999998245E-14  0.12500000000E+03  0.12500000000E+03 0.  0.
        -11    1    1    0    0    0  0.16186292971E+02  0.31507541910E+02 -0.29625345190E+02  0.46177725747E+02  0.51100000000E-03 0.  1.
         11    1    1    0    0    0  0.57365921761E+01  0.11129289782E+02 -0.10471254142E+02  0.16322277550E+02  0.51100000000E-03 0. -1.
         22    1    1    0    0    0 -0.21922885147E+02 -0.42636831692E+02  0.40096599332E+02  0.62499996703E+02  0.00000000000E+00 0.  1.
</event>
<event>
 4    1  0.1956828E-002  0.9118800E+02  0.7818608E-02  0.1130116E+00
         25   -1    0    0    0    0  0.00000000000E+00  0.00000000000E+00  0.99999998245E-14  0.12500000000E+03  0.12500000000E+03 0.  0.
        -11    1    1    0    0    0 -0.76597104244E+01  0.74926383938E+01 -0.16690858340E+02  0.19834201428E+02  0.51100000000E-03 0. -1.
         11    1    1    0    0    0 -0.41603480603E+01 -0.31368451646E+01 -0.43428959746E+02  0.43740402815E+02  0.51100000000E-03 0.  1.
         22    1    1    0    0    0  0.11820058485E+02 -0.43557932292E+01  0.60119818086E+02  0.61425395757E+02  0.00000000000E+00 0.  1.
</event>
<event>
 4    1  0.1956828E-002  0.9118800E+02  0.7818608E-02  0.1130116E+00
         25   -1    0    0    0    0  0.00000000000E+00  0.00000000000E+00  0.99999998245E-14  0.12500000000E+03  0.12500000000E+03 0.  0.
        -11    1    1    0    0    0  0.37141686010E+02  0.22388005310E+02 -0.24951538323E+02  0.50033057935E+02  0.51100000000E-03 0. -1.
         11    1    1    0    0    0 -0.47550650573E+01  0.11653695023E+02 -0.10270052528E+02  0.16244790875E+02  0.51100000000E-03 0.  1.
         22    1    1    0    0    0 -0.32386620953E+02 -0.34041700333E+02  0.35221590851E+02  0.58722151190E+02  0.00000000000E+00 0. -1.
</event>
<event>
 4    1  0.1956828E-002  0.9118800E+02  0.7818608E-02  0.1130116E+00
         25   -1    0    0    0    0  0.00000000000E+00  0.00000000000E+00  0.99999998245E-14  0.12500000000E+03  0.12500000000E+03 0.  0.
        -11    1    1    0    0    0 -0.13209462831E+02  0.34585701747E+02 -0.20258442493E+02  0.42202667761E+02  0.51100000000E-03 0.  1.
         11    1    1    0    0    0 -0.89756063932E+01  0.17366948102E+02 -0.60729599710E+01  0.20470789911E+02  0.51100000000E-03 0. -1.
         22    1    1    0    0    0  0.22185069224E+02 -0.51952649849E+02  0.26331402464E+02  0.62326542328E+02  0.00000000000E+00 0. -1.
</event>
<event>
 4    1  0.1956828E-002  0.9118800E+02  0.7818608E-02  0.1130116E+00
         25   -1    0    0    0    0  0.00000000000E+00  0.00000000000E+00  0.99999998245E-14  0.12500000000E+03  0.12500000000E+03 0.  0.
        -11    1    1    0    0    0  0.15964244965E+02  0.88429821879E+01  0.90782599440E+01  0.20383087479E+02  0.51100000000E-03 0. -1.
         11    1    1    0    0    0  0.32987631753E+02  0.18212226134E+02  0.18813994325E+02  0.42116925483E+02  0.51100000000E-03 0.  1.
         22    1    1    0    0    0 -0.48951876718E+02 -0.27055208322E+02 -0.27892254269E+02  0.62499987038E+02  0.00000000000E+00 0. -1.
</event>
<event>
 4    1  0.1956828E-002  0.9118800E+02  0.7818608E-02  0.1130116E+00
         25   -1    0    0    0    0  0.00000000000E+00  0.00000000000E+00  0.99999998245E-14  0.12500000000E+03  0.12500000000E+03 0.  0.
        -11    1    1    0    0    0 -0.25806327442E+02  0.27422455951E+02  0.34699827813E+02  0.51205816827E+02  0.51100000000E-03 0.  1.
         11    1    1    0    0    0 -0.49017671130E+01  0.40543231459E+01  0.95078637392E+01  0.11439594842E+02  0.51100000000E-03 0. -1.
         22    1    1    0    0    0  0.30708094555E+02 -0.31476779097E+02 -0.44207691553E+02  0.62354588331E+02  0.00000000000E+00 0.  1.
</event>
<event>
 4    1  0.1956828E-002  0.9118800E+02  0.7818608E-02  0.1130116E+00
         25   -1    0    0    0    0  0.00000000000E+00  0.00000000000E+00  0.99999998245E-14  0.12500000000E+03  0.12500000000E+03 0.  0.
        -11    1    1    0    0    0 -0.67226310513E+01  0.62449052958E+00  0.46942011730E+01  0.82230944046E+01  0.51100000000E-03 0. -1.
         11    1    1    0    0    0 -0.44485476332E+02  0.39793648279E+01  0.30841417693E+02  0.54276937962E+02  0.51100000000E-03 0.  1.
         22    1    1    0    0    0  0.51208107384E+02 -0.46038553575E+01 -0.35535618866E+02  0.62499967633E+02  0.00000000000E+00 0.  1.
</event>
<event>
 4    1  0.1956828E-002  0.9118800E+02  0.7818608E-02  0.1130116E+00
         25   -1    0    0    0    0  0.00000000000E+00  0.00000000000E+00  0.99999998245E-14  0.12500000000E+03  0.12500000000E+03 0.  0.
        -11    1    1    0    0    0 -0.31656103593E+01 -0.13363478526E+02 -0.40205063350E+02  0.42485889028E+02  0.51100000000E-03 0. -1.
         11    1    1    0    0    0 -0.13368090894E+01 -0.42482813197E+00 -0.20272753092E+02  0.20321221805E+02  0.51100000000E-03 0.  1.
         22    1    1    0    0    0  0.45024194487E+01  0.13788306658E+02  0.60477816442E+02  0.62192889167E+02  0.00000000000E+00 0.  1.
</event>
<event>
 4    1  0.1956828E-002  0.9118800E+02  0.7818608E-02  0.1130116E+00
         25   -1    0    0    0    0  0.00000000000E+00  0.00000000000E+00  0.99999998245E-14  0.12500000000E+03  0.12500000000E+03 0.  0.
        -11    1    1    0    0    0  0.31531545921E+02 -0.14363320398E+02  0.16925502933E+02  0.38561846569E+02  0.51100000000E-03 0. -1.
         11    1    1    0    0    0  0.19511178695E+02 -0.89054803531E+01  0.10632385657E+02  0.23938281046E+02  0.51100000000E-03 0.  1.
         22    1    1    0    0    0 -0.51042724616E+02  0.23268800751E+02 -0.27557888590E+02  0.62499872385E+02  0.00000000000E+00 0. -1.
</event>
<event>
 4    1  0.1956828E-002  0.9118800E+02  0.7818608E-02  0.1130116E+00
         25   -1    0    0    0    0  0.00000000000E+00  0.00000000000E+00  0.99999998245E-14  0.12500000000E+03  0.12500000000E+03 0.  0.
        -11    1    1    0    0    0  0.84399773430E+01  0.18468541947E+01 -0.10842306163E+02  0.13863610322E+02  0.51100000000E-03 0. -1.
         11    1    1    0    0    0  0.29571200623E+02  0.63888288172E+01 -0.38081841454E+02  0.48636402917E+02  0.51100000000E-03 0.  1.
         22    1    1    0    0    0 -0.38011177966E+02 -0.82356830119E+01  0.48924147617E+02  0.62499986761E+02  0.00000000000E+00 0.  1.
</event>
<event>
 4    1  0.1956828E-002  0.9118800E+02  0.7818608E-02  0.1130116E+00
         25   -1    0    0    0    0  0.00000000000E+00  0.00000000000E+00  0.99999998245E-14  0.12500000000E+03  0.12500000000E+03 0.  0.
        -11    1    1    0    0    0  0.23415660444E+02  0.90741563099E+01 -0.34993018156E+01  0.25355050389E+02  0.51100000000E-03 0.  1.
         11    1    1    0    0    0  0.17571615944E+02  0.33948167345E+02 -0.81682171203E+01  0.39089122836E+02  0.51100000000E-03 0. -1.
         22    1    1    0    0    0 -0.40987276388E+02 -0.43022323654E+02  0.11667518936E+02  0.60555826775E+02  0.00000000000E+00 0. -1.
</event>
<event>
 4    1  0.1956828E-002  0.9118800E+02  0.7818608E-02  0.1130116E+00
         25   -1    0    0    0    0  0.00000000000E+00  0.00000000000E+00  0.99999998245E-14  0.12500000000E+03  0.12500000000E+03 0.  0.
        -11    1    1    0    0    0 -0.34150727104E+02  0.66415194112E+01  0.31497514968E+02  0.46930537939E+02  0.51100000000E-03 0. -1.
         11    1    1    0    0    0 -0.15535574543E+02  0.98549684505E+01 -0.35978914950E+01  0.18746181024E+02  0.51100000000E-03 0.  1.
         22    1    1    0    0    0  0.49686301646E+02 -0.16496487862E+02 -0.27899623473E+02  0.59323281037E+02  0.00000000000E+00 0.  1.
</event>
<event>
 4    1  0.1956828E-002  0.9118800E+02  0.7818608E-02  0.1130116E+00
         25   -1    0    0    0    0  0.00000000000E+00  0.00000000000E+00  0.99999998245E-14  0.12500000000E+03  0.12500000000E+03 0.  0.
        -11    1    1    0    0    0 -0.19190347779E+02 -0.48168015600E+02 -0.15165702663E+02  0.54022455630E+02  0.51100000000E-03 0.  1.
         11    1    1    0    0    0 -0.20606323505E+01 -0.78346661522E+01 -0.25851027651E+01  0.85035848892E+01  0.51100000000E-03 0. -1.
         22    1    1    0    0    0  0.21250980130E+02  0.56002681752E+02  0.17750805428E+02  0.62473959481E+02  0.00000000000E+00 0.  1.
</event>
<event>
 4    1  0.1956828E-002  0.9118800E+02  0.7818608E-02  0.1130116E+00
         25   -1    0    0    0    0  0.00000000000E+00  0.00000000000E+00  0.99999998245E-14  0.12500000000E+03  0.12500000000E+03 0.  0.
        -11    1    1    0    0    0  0.18788070903E+02  0.49565788303E+01  0.69748691783E+01  0.20644807634E+02  0.51100000000E-03 0.  1.
         11    1    1    0    0    0  0.38093382088E+02  0.10046855042E+02  0.14135490067E+02  0.41855192448E+02  0.51100000000E-03 0. -1.
         22    1    1    0    0    0 -0.56881452991E+02 -0.15003433872E+02 -0.21110359245E+02  0.62499999918E+02  0.00000000000E+00 0. -1.
</event>
<event>
 4    1  0.1956828E-002  0.9118800E+02  0.7818608E-02  0.1130116E+00
         25   -1    0    0    0    0  0.00000000000E+00  0.00000000000E+00  0.99999998245E-14  0.12500000000E+03  0.12500000000E+03 0.  0.
        -11    1    1    0    0    0  0.46483673221E+02 -0.18165136987E+02 -0.29810348187E+02  0.58132271048E+02  0.51100000000E-03 0. -1.
         11    1    1    0    0    0  0.34934383894E+01 -0.13634367759E+01 -0.22391931376E+01  0.43677291344E+01  0.51100000000E-03 0.  1.
         22    1    1    0    0    0 -0.49977111611E+02  0.19528573763E+02  0.32049541324E+02  0.62499999818E+02  0.00000000000E+00 0. -1.
</event>
<event>
 4    1  0.1956828E-002  0.9118800E+02  0.7818608E-02  0.1130116E+00
         25   -1    0    0    0    0  0.00000000000E+00  0.00000000000E+00  0.99999998245E-14  0.12500000000E+03  0.12500000000E+03 0.  0.
        -11    1    1    0    0    0 -0.17694602252E+02  0.11329880864E+02 -0.15490293975E+02  0.26103914590E+02  0.51100000000E-03 0. -1.
         11    1    1    0    0    0 -0.18111117694E+02  0.92330389525E+01 -0.30776281037E+02  0.36884157400E+02  0.51100000000E-03 0.  1.
         22    1    1    0    0    0  0.35805719945E+02 -0.20562919816E+02  0.46266575012E+02  0.62011928010E+02  0.00000000000E+00 0.  1.
</event>
<event>
 4    1  0.1956828E-002  0.9118800E+02  0.7818608E-02  0.1130116E+00
         25   -1    0    0    0    0  0.00000000000E+00  0.00000000000E+00  0.99999998245E-14  0.12500000000E+03  0.12500000000E+03 0.  0.
        -11    1    1    0    0    0 -0.25748034512E+02 -0.15427489267E+01 -0.25010914875E+01  0.25915185015E+02  0.51100000000E-03 0. -1.
         11    1    1    0    0    0 -0.36855457877E+01  0.45472044554E+02  0.63766296263E+01  0.46064644678E+02  0.51100000000E-03 0.  1.
         22    1    1    0    0    0  0.29433580299E+02 -0.43929295627E+02 -0.38755381388E+01  0.53020170307E+02  0.00000000000E+00 0. -1.
</event>
<event>
 4    1  0.1956828E-002  0.9118800E+02  0.7818608E-02  0.1130116E+00
         25   -1    0    0    0    0  0.00000000000E+00  0.00000000000E+00  0.99999998245E-14  0.12500000000E+03  0.12500000000E+03 0.  0.
        -11    1    1    0    0    0  0.26293490508E+02 -0.31446215631E+02  0.10688007715E+02  0.42360897414E+02  0.51100000000E-03 0.  1.
         11    1    1    0    0    0  0.20599198913E+02 -0.55826920136E+01  0.23865695836E+01  0.21475315146E+02  0.51100000000E-03 0. -1.
         22    1    1    0    0    0 -0.46892689421E+02  0.37028907644E+02 -0.13074577299E+02  0.61163787440E+02  0.00000000000E+00 0.  1.
</event>
<event>
 4    1  0.1956828E-002  0.9118800E+02  0.7818608E-02  0.1130116E+00
         25   -1    0    0    0    0  0.00000000000E+00  0.00000000000E+00  0.99999998245E-14  0.12500000000E+03  0.12500000000E+03 0.  0.
        -11    1    1    0    0    0 -0.11347563694E+02 -0.40352221642E+02  0.26994607749E+01  0.42004238857E+02  0.51100000000E-03 0. -1.
         11    1    1    0    0    0 -0.55259849737E+01 -0.19691802410E+02  0.13314440216E+01  0.20495763843E+02  0.51100000000E-03 0.  1.
         22    1    1    0    0    0  0.16873548668E+02  0.60044024052E+02 -0.40309047965E+01  0.62499997300E+02  0.00000000000E+00 0. -1.
</event>
<event>
 4    1  0.1956828E-002  0.9118800E+02  0.7818608E-02  0.1130116E+00
         25   -1    0    0    0    0  0.00000000000E+00  0.00000000000E+00  0.99999998245E-14  0.12500000000E+03  0.12500000000E+03 0.  0.
        -11    1    1    0    0    0 -0.33540723332E+02 -0.31929090016E+02 -0.16217953848E+02  0.49065965171E+02  0.51100000000E-03 0.  1.
         11    1    1    0    0    0 -0.91654564831E+01 -0.87588528383E+01 -0.44441464329E+01  0.13434043820E+02  0.51100000000E-03 0. -1.
         22    1    1    0    0    0  0.42706179815E+02  0.40687942854E+02  0.20662100281E+02  0.62499991009E+02  0.00000000000E+00 0.  1.
</event>
<event>
 4    1  0.1956828E-002  0.9118800E+02  0.7818608E-02  0.1130116E+00
         25   -1    0    0    0    0  0.00000000000E+00  0.00000000000E+00  0.99999998245E-14  0.12500000000E+03  0.12500000000E+03 0.  0.
        -11    1    1    0    0    0 -0.28913678799E+02 -0.17714661203E+02  0.25053175558E+02  0.42160071739E+02  0.51100000000E-03 0.  1.
         11    1    1    0    0    0 -0.12715523928E+02 -0.72863473938E+01  0.14194620535E+02  0.20402516009E+02  0.51100000000E-03 0. -1.
         22    1    1    0    0    0  0.41629202728E+02  0.25001008597E+02 -0.39247796092E+02  0.62437412252E+02  0.00000000000E+00 0.  1.
</event>
<event>
 4    1  0.1956828E-002  0.9118800E+02  0.7818608E-02  0.1130116E+00
         25   -1    0    0    0    0  0.00000000000E+00  0.00000000000E+00  0.99999998245E-14  0.12500000000E+03  0.12500000000E+03 0.  0.
        -11    1    1    0    0    0  0.13501850146E+02  0.31896357322E+02 -0.27167160320E+02  0.44019679325E+02  0.51100000000E-03 0.  1.
         11    1    1    0    0    0  0.56678771748E+01  0.13390466232E+02 -0.11405824599E+02  0.18480320685E+02  0.51100000000E-03 0.  1.
         22    1    1    0    0    0 -0.19169727321E+02 -0.45286823554E+02  0.38572984919E+02  0.62499999990E+02  0.00000000000E+00 0.  1.
</event>
<event>
 4    1  0.1956828E-002  0.9118800E+02  0.7818608E-02  0.1130116E+00
         25   -1    0    0    0    0  0.00000000000E+00  0.00000000000E+00  0.99999998245E-14  0.12500000000E+03  0.12500000000E+03 0.  0.
        -11    1    1    0    0    0  0.18420529067E+02  0.36687626264E+02 -0.44579814389E+02  0.60602455917E+02  0.51100000000E-03 0.  1.
         11    1    1    0    0    0  0.68237611903E+00  0.87505730554E+00 -0.15568233218E+01  0.19118215325E+01  0.51100000000E-03 0. -1.
         22    1    1    0    0    0 -0.19102905186E+02 -0.37562683569E+02  0.46136637710E+02  0.62485722551E+02  0.00000000000E+00 0.  1.
</event>
<event>
 4    1  0.1956828E-002  0.9118800E+02  0.7818608E-02  0.1130116E+00
         25   -1    0    0    0    0  0.00000000000E+00  0.00000000000E+00  0.99999998245E-14  0.12500000000E+03  0.12500000000E+03 0.  0.
        -11    1    1    0    0    0 -0.94457138134E+01 -0.22424954538E+02 -0.13990372995E+02  0.28068320795E+02  0.51100000000E-03 0. -1.
         11    1    1    0    0    0 -0.11586741651E+02 -0.27508522245E+02 -0.17163017071E+02  0.34431679213E+02  0.51100000000E-03 0. -1.
         22    1    1    0    0    0  0.21032455464E+02  0.49933476782E+02  0.31153390066E+02  0.62499999992E+02  0.00000000000E+00 0. -1.
</event>
<event>
 4    1  0.1956828E-002  0.9118800E+02  0.7818608E-02  0.1130116E+00
         25   -1    0    0    0    0  0.00000000000E+00  0.00000000000E+00  0.99999998245E-14  0.12500000000E+03  0.12500000000E+03 0.  0.
        -11    1    1    0    0    0 -0.15291952332E+02  0.31224684717E+01  0.68717497921E+00  0.15622606223E+02  0.51100000000E-03 0.  1.
         11    1    1    0    0    0 -0.46454562087E+02 -0.75140946476E+01 -0.50092163214E+01  0.47324203168E+02  0.51100000000E-03 0. -1.
         22    1    1    0    0    0  0.61746514419E+02  0.43916261759E+01  0.43220413422E+01  0.62053190609E+02  0.00000000000E+00 0. -1.
</event>
<event>
 4    1  0.1956828E-002  0.9118800E+02  0.7818608E-02  0.1130116E+00
         25   -1    0    0    0    0  0.00000000000E+00  0.00000000000E+00  0.99999998245E-14  0.12500000000E+03  0.12500000000E+03 0.  0.
        -11    1    1    0    0    0  0.13091453616E+02 -0.16517300299E+01 -0.27048882951E+02  0.30095787729E+02  0.51100000000E-03 0. -1.
         11    1    1    0    0    0  0.14068266210E+02 -0.17719725329E+01 -0.29137213433E+02  0.32404215894E+02  0.51100000000E-03 0.  1.
         22    1    1    0    0    0 -0.27159719826E+02  0.34237025628E+01  0.56186096384E+02  0.62499996377E+02  0.00000000000E+00 0.  1.
</event>
<event>
 4    1  0.1956828E-002  0.9118800E+02  0.7818608E-02  0.1130116E+00
         25   -1    0    0    0    0  0.00000000000E+00  0.00000000000E+00  0.99999998245E-14  0.12500000000E+03  0.12500000000E+03 0.  0.
        -11    1    1    0    0    0  0.20519989274E+02  0.29659249333E+02 -0.34901744803E+02  0.50188373368E+02  0.51100000000E-03 0. -1.
         11    1    1    0    0    0  0.52272629170E+01  0.64669905053E+01 -0.91007886047E+01  0.12327635511E+02  0.51100000000E-03 0.  1.
         22    1    1    0    0    0 -0.25747252191E+02 -0.36126239838E+02  0.44002533407E+02  0.62483991121E+02  0.00000000000E+00 0. -1.
</event>
<event>
 4    1  0.1956828E-002  0.9118800E+02  0.7818608E-02  0.1130116E+00
         25   -1    0    0    0    0  0.00000000000E+00  0.00000000000E+00  0.99999998245E-14  0.12500000000E+03  0.12500000000E+03 0.  0.
        -11    1    1    0    0    0  0.36734751305E+02 -0.19295619865E+02  0.19875398078E+02  0.46008633412E+02  0.51100000000E-03 0.  1.
         11    1    1    0    0    0  0.13164330081E+02 -0.69125286364E+01  0.71332020724E+01  0.16491367763E+02  0.51100000000E-03 0. -1.
         22    1    1    0    0    0 -0.49899081386E+02  0.26208148502E+02 -0.27008600151E+02  0.62499998825E+02  0.00000000000E+00 0.  1.
</event>
<event>
 4    1  0.1956828E-002  0.9118800E+02  0.7818608E-02  0.1130116E+00
         25   -1    0    0    0    0  0.00000000000E+00  0.00000000000E+00  0.99999998245E-14  0.12500000000E+03  0.12500000000E+03 0.  0.
        -11    1    1    0    0    0  0.47391069844E+01 -0.74613313180E+01  0.75278003081E+01  0.11610270358E+02  0.51100000000E-03 0. -1.
         11    1    1    0    0    0  0.11335502182E+02 -0.29446135308E+02  0.40101882894E+02  0.51026752848E+02  0.51100000000E-03 0.  1.
         22    1    1    0    0    0 -0.16074609167E+02  0.36907466626E+02 -0.47629683203E+02  0.62362976794E+02  0.00000000000E+00 0.  1.
</event>
<event>
 4    1  0.1956828E-002  0.9118800E+02  0.7818608E-02  0.1130116E+00
         25   -1    0    0    0    0  0.00000000000E+00  0.00000000000E+00  0.99999998245E-14  0.12500000000E+03  0.12500000000E+03 0.  0.
        -11    1    1    0    0    0  0.94086412594E+00 -0.26846745089E+01 -0.12334141748E+02  0.12657952261E+02  0.51100000000E-03 0.  1.
         11    1    1    0    0    0  0.36367032857E+01 -0.10537727935E+02 -0.48579429806E+02  0.49842053744E+02  0.51100000000E-03 0. -1.
         22    1    1    0    0    0 -0.45775674116E+01  0.13222402444E+02  0.60913571555E+02  0.62499993995E+02  0.00000000000E+00 0. -1.
</event>
<event>
 4    1  0.1956828E-002  0.9118800E+02  0.7818608E-02  0.1130116E+00
         25   -1    0    0    0    0  0.00000000000E+00  0.00000000000E+00  0.99999998245E-14  0.12500000000E+03  0.12500000000E+03 0.  0.
        -11    1    1    0    0    0  0.49735057403E+01 -0.57290046681E+02 -0.18373382948E+02  0.60369416175E+02  0.51100000000E-03 0. -1.
         11    1    1    0    0    0  0.67694708878E+01  0.91742160132E+01  0.82637508250E+01  0.14081248294E+02  0.51100000000E-03 0.  1.
         22    1    1    0    0    0 -0.11742976628E+02  0.48115830668E+02  0.10109632123E+02  0.50549335531E+02  0.00000000000E+00 0. -1.
</event>
<event>
 4    1  0.1956828E-002  0.9118800E+02  0.7818608E-02  0.1130116E+00
         25   -1    0    0    0    0  0.00000000000E+00  0.00000000000E+00  0.99999998245E-14  0.12500000000E+03  0.12500000000E+03 0.  0.
        -11    1    1    0    0    0  0.55030924167E+02  0.95134903940E+01  0.15937162193E+02  0.58076692856E+02  0.51100000000E-03 0.  1.
         11    1    1    0    0    0  0.42538539067E+01  0.56030818604E+00  0.10855546915E+01  0.44257934398E+01  0.51100000000E-03 0. -1.
         22    1    1    0    0    0 -0.59284778073E+02 -0.10073798580E+02 -0.17022716885E+02  0.62497513704E+02  0.00000000000E+00 0.  1.
</event>
<event>
 4    1  0.1956828E-002  0.9118800E+02  0.7818608E-02  0.1130116E+00
         25   -1    0    0    0    0  0.00000000000E+00  0.00000000000E+00  0.99999998245E-14  0.12500000000E+03  0.12500000000E+03 0.  0.
        -11    1    1    0    0    0 -0.39494885471E+00 -0.14184413291E+01 -0.13075124779E+01  0.19691494466E+01  0.51100000000E-03 0.  1.
         11    1    1    0    0    0 -0.97931362747E+01 -0.37393618249E+02 -0.46595447343E+02  0.60541918678E+02  0.51100000000E-03 0. -1.
         22    1    1    0    0    0  0.10188085129E+02  0.38812059578E+02  0.47902959821E+02  0.62488931875E+02  0.00000000000E+00 0. -1.
</event>
<event>
 4    1  0.1956828E-002  0.9118800E+02  0.7818608E-02  0.1130116E+00
         25   -1    0    0    0    0  0.00000000000E+00  0.00000000000E+00  0.99999998245E-14  0.12500000000E+03  0.12500000000E+03 0.  0.
        -11    1    1    0    0    0  0.44154212329E+02 -0.26404636472E+02 -0.48743542916E+01  0.51677447921E+02  0.51100000000E-03 0.  1.
         11    1    1    0    0    0  0.92504507946E+01 -0.55248533870E+01 -0.10162736223E+01  0.10822553173E+02  0.51100000000E-03 0. -1.
         22    1    1    0    0    0 -0.53404663124E+02  0.31929489859E+02  0.58906279139E+01  0.62499998906E+02  0.00000000000E+00 0.  1.
</event>
<event>
 4    1  0.1956828E-002  0.9118800E+02  0.7818608E-02  0.1130116E+00
         25   -1    0    0    0    0  0.00000000000E+00  0.00000000000E+00  0.99999998245E-14  0.12500000000E+03  0.12500000000E+03 0.  0.
        -11    1    1    0    0    0  0.20165056735E+01 -0.71459738551E+01  0.69851840876E+01  0.10194313830E+02  0.51100000000E-03 0. -1.
         11    1    1    0    0    0  0.10348287469E+02 -0.36663976061E+02  0.35840627959E+02  0.52305686181E+02  0.51100000000E-03 0. -1.
         22    1    1    0    0    0 -0.12364793142E+02  0.43809949916E+02 -0.42825812047E+02  0.62499999988E+02  0.00000000000E+00 0. -1.
</event>
<event>
 4    1  0.1956828E-002  0.9118800E+02  0.7818608E-02  0.1130116E+00
         25   -1    0    0    0    0  0.00000000000E+00  0.00000000000E+00  0.99999998245E-14  0.12500000000E+03  0.12500000000E+03 0.  0.
        -11    1    1    0    0    0  0.17024085484E+01  0.48576347920E+01  0.11389963642E+01  0.52718235571E+01  0.51100000000E-03 0. -1.
         11    1    1    0    0    0  0.18542581524E+02  0.52721651125E+02  0.12315219135E+02  0.57228178807E+02  0.51100000000E-03 0.  1.
         22    1    1    0    0    0 -0.20244990072E+02 -0.57579285917E+02 -0.13454215499E+02  0.62499997636E+02  0.00000000000E+00 0.  1.
</event>
<event>
 4    1  0.1956828E-002  0.9118800E+02  0.7818608E-02  0.1130116E+00
         25   -1    0    0    0    0  0.00000000000E+00  0.00000000000E+00  0.99999998245E-14  0.12500000000E+03  0.12500000000E+03 0.  0.
        -11    1    1    0    0    0  0.11851723999E+02  0.20697252153E+02  0.33910819219E+02  0.41458211114E+02  0.51100000000E-03 0. -1.
         11    1    1    0    0    0  0.64545720303E+01  0.10179998114E+02  0.17250000244E+02  0.21044152878E+02  0.51100000000E-03 0.  1.
         22    1    1    0    0    0 -0.18306296029E+02 -0.30877250267E+02 -0.51160819463E+02  0.62497636007E+02  0.00000000000E+00 0. -1.
</event>
<event>
 4    1  0.1956828E-002  0.9118800E+02  0.7818608E-02  0.1130116E+00
         25   -1    0    0    0    0  0.00000000000E+00  0.00000000000E+00  0.99999998245E-14  0.12500000000E+03  0.12500000000E+03 0.  0.
        -11    1    1    0    0    0 -0.46619571213E+02 -0.49415356005E+01  0.19237597433E+02  0.50674336201E+02  0.51100000000E-03 0.  1.
         11    1    1    0    0    0 -0.11734233427E+02  0.41549368881E+01  0.11659574018E+01  0.12502607392E+02  0.51100000000E-03 0. -1.
         22    1    1    0    0    0  0.58353804641E+02  0.78659871247E+00 -0.20403554835E+02  0.61823056407E+02  0.00000000000E+00 0.  1.
</event>
<event>
 4    1  0.1956828E-002  0.9118800E+02  0.7818608E-02  0.1130116E+00
         25   -1    0    0    0    0  0.00000000000E+00  0.00000000000E+00  0.99999998245E-14  0.12500000000E+03  0.12500000000E+03 0.  0.
        -11    1    1    0    0    0 -0.32007293208E+02  0.18224727062E+02 -0.42744072836E+02  0.56423959962E+02  0.51100000000E-03 0.  1.
         11    1    1    0    0    0 -0.34394451756E+01  0.19781221525E+01 -0.46017003641E+01  0.60760510917E+01  0.51100000000E-03 0. -1.
         22    1    1    0    0    0  0.35446738383E+02 -0.20202849214E+02  0.47345773200E+02  0.62499988946E+02  0.00000000000E+00 0.  1.
</event>
<event>
 4    1  0.1956828E-002  0.9118800E+02  0.7818608E-02  0.1130116E+00
         25   -1    0    0    0    0  0.00000000000E+00  0.00000000000E+00  0.99999998245E-14  0.12500000000E+03  0.12500000000E+03 0.  0.
        -11    1    1    0    0    0 -0.23805306357E+01  0.34401770873E+02 -0.43132356485E+02  0.55222721244E+02  0.51100000000E-03 0. -1.
         11    1    1    0    0    0 -0.11979664114E+01  0.42314763421E+01 -0.58321615607E+01  0.73044249800E+01  0.51100000000E-03 0.  1.
         22    1    1    0    0    0  0.35784970471E+01 -0.38633247215E+02  0.48964518046E+02  0.62472853776E+02  0.00000000000E+00 0. -1.
</event>
<event>
 4    1  0.1956828E-002  0.9118800E+02  0.7818608E-02  0.1130116E+00
         25   -1    0    0    0    0  0.00000000000E+00  0.00000000000E+00  0.99999998245E-14  0.12500000000E+03  0.12500000000E+03 0.  0.
        -11    1    1    0    0    0 -0.10650920430E+02 -0.92533871882E+01 -0.44094818319E+01  0.14782111174E+02  0.51100000000E-03 0.  1.
         11    1    1    0    0    0 -0.34540717856E+02 -0.29749963344E+02 -0.14102558448E+02  0.47717959554E+02  0.51100000000E-03 0. -1.
         22    1    1    0    0    0  0.45191638286E+02  0.39003350532E+02  0.18512040280E+02  0.62499929272E+02  0.00000000000E+00 0. -1.
</event>
<event>
 4    1  0.1956828E-002  0.9118800E+02  0.7818608E-02  0.1130116E+00
         25   -1    0    0    0    0  0.00000000000E+00  0.00000000000E+00  0.99999998245E-14  0.12500000000E+03  0.12500000000E+03 0.  0.
        -11    1    1    0    0    0  0.90814790718E+01 -0.39554422136E+02  0.24781869296E+02  0.47551725717E+02  0.51100000000E-03 0. -1.
         11    1    1    0    0    0  0.28071643980E+01 -0.12403834077E+02  0.78561117808E+01  0.14948369956E+02  0.51100000000E-03 0.  1.
         22    1    1    0    0    0 -0.11888643470E+02  0.51958256212E+02 -0.32637981076E+02  0.62499904327E+02  0.00000000000E+00 0. -1.
</event>
<event>
 4    1  0.1956828E-002  0.9118800E+02  0.7818608E-02  0.1130116E+00
         25   -1    0    0    0    0  0.00000000000E+00  0.00000000000E+00  0.99999998245E-14  0.12500000000E+03  0.12500000000E+03 0.  0.
        -11    1    1    0    0    0 -0.67428742505E+00 -0.38731865573E+02  0.29253106972E+02  0.48542314964E+02  0.51100000000E-03 0. -1.
         11    1    1    0    0    0  0.18456869514E+01 -0.10341385491E+02  0.93082431992E+01  0.14035462440E+02  0.51100000000E-03 0.  1.
         22    1    1    0    0    0 -0.11713995263E+01  0.49073251064E+02 -0.38561350171E+02  0.62422222596E+02  0.00000000000E+00 0. -1.
</event>
<event>
 4    1  0.1956828E-002  0.9118800E+02  0.7818608E-02  0.1130116E+00
         25   -1    0    0    0    0  0.00000000000E+00  0.00000000000E+00  0.99999998245E-14  0.12500000000E+03  0.12500000000E+03 0.  0.
        -11    1    1    0    0    0  0.14313374232E+01  0.11603902559E+02 -0.14919947138E+02  0.18955318628E+02  0.51100000000E-03 0. -1.
         11    1    1    0    0    0  0.33553571101E+01  0.26685592853E+02 -0.34245597192E+02  0.43544692151E+02  0.51100000000E-03 0.  1.
         22    1    1    0    0    0 -0.47866945334E+01 -0.38289495412E+02  0.49165544329E+02  0.62499989221E+02  0.00000000000E+00 0.  1.
</event>
<event>
 4    1  0.1956828E-002  0.9118800E+02  0.7818608E-02  0.1130116E+00
         25   -1    0    0    0    0  0.00000000000E+00  0.00000000000E+00  0.99999998245E-14  0.12500000000E+03  0.12500000000E+03 0.  0.
        -11    1    1    0    0    0  0.10379723251E+02  0.40456626034E+02  0.54587318788E+01  0.42122143806E+02  0.51100000000E-03 0.  1.
         11    1    1    0    0    0  0.53924563545E+01  0.19495722661E+02  0.24803726693E+01  0.20379255052E+02  0.51100000000E-03 0. -1.
         22    1    1    0    0    0 -0.15772179605E+02 -0.59952348696E+02 -0.79391045480E+01  0.62498601142E+02  0.00000000000E+00 0.  1.
</event>
<event>
 4    1  0.1956828E-002  0.9118800E+02  0.7818608E-02  0.1130116E+00
         25   -1    0    0    0    0  0.00000000000E+00  0.00000000000E+00  0.99999998245E-14  0.12500000000E+03  0.12500000000E+03 0.  0.
        -11    1    1    0    0    0 -0.14315884752E+02  0.15847933625E+02 -0.55140642368E+02  0.59131987937E+02  0.51100000000E-03 0. -1.
         11    1    1    0    0    0 -0.81825432934E+00  0.90173950281E+00 -0.31401966858E+01  0.33680127323E+01  0.51100000000E-03 0.  1.
         22    1    1    0    0    0  0.15134139081E+02 -0.16749673127E+02  0.58280839053E+02  0.62499999331E+02  0.00000000000E+00 0. -1.
</event>
<event>
 4    1  0.1956828E-002  0.9118800E+02  0.7818608E-02  0.1130116E+00
         25   -1    0    0    0    0  0.00000000000E+00  0.00000000000E+00  0.99999998245E-14  0.12500000000E+03  0.12500000000E+03 0.  0.
        -11    1    1    0    0    0  0.30719540029E+00 -0.44667235176E+01  0.40979523695E+01  0.60695306145E+01  0.51100000000E-03 0. -1.
         11    1    1    0    0    0  0.28642791699E+01 -0.41533742175E+02  0.38093858407E+02  0.56430469454E+02  0.51100000000E-03 0.  1.
         22    1    1    0    0    0 -0.31714745702E+01  0.46000465692E+02 -0.42191810776E+02  0.62499999932E+02  0.00000000000E+00 0.  1.
</event>
<event>
 4    1  0.1956828E-002  0.9118800E+02  0.7818608E-02  0.1130116E+00
         25   -1    0    0    0    0  0.00000000000E+00  0.00000000000E+00  0.99999998245E-14  0.12500000000E+03  0.12500000000E+03 0.  0.
        -11    1    1    0    0    0 -0.40030407598E+01 -0.29489291613E+01 -0.21470678802E+01  0.54157565738E+01  0.51100000000E-03 0.  1.
         11    1    1    0    0    0 -0.42279571756E+02 -0.30968105985E+02 -0.22627990712E+02  0.57084251245E+02  0.51100000000E-03 0. -1.
         22    1    1    0    0    0  0.46282612516E+02  0.33917035147E+02  0.24775058592E+02  0.62499992182E+02  0.00000000000E+00 0. -1.
</event>
<event>
 4    1  0.1956828E-002  0.9118800E+02  0.7818608E-02  0.1130116E+00
         25   -1    0    0    0    0  0.00000000000E+00  0.00000000000E+00  0.99999998245E-14  0.12500000000E+03  0.12500000000E+03 0.  0.
        -11    1    1    0    0    0  0.78365796741E+01  0.37468377045E+02  0.13894971398E+02  0.40722984785E+02  0.51100000000E-03 0.  1.
         11    1    1    0    0    0  0.41909804013E+01  0.20036528627E+02  0.74304505600E+01  0.21777015221E+02  0.51100000000E-03 0.  1.
         22    1    1    0    0    0 -0.12027560075E+02 -0.57504905672E+02 -0.21325421958E+02  0.62499999995E+02  0.00000000000E+00 0.  1.
</event>
<event>
 4    1  0.1956828E-002  0.9118800E+02  0.7818608E-02  0.1130116E+00
         25   -1    0    0    0    0  0.00000000000E+00  0.00000000000E+00  0.99999998245E-14  0.12500000000E+03  0.12500000000E+03 0.  0.
        -11    1    1    0    0    0  0.51779339048E+01 -0.33200221439E+00  0.37037142396E+01  0.63748509334E+01  0.51100000000E-03 0. -1.
         11    1    1    0    0    0  0.46550355328E+02 -0.28874281352E+01  0.31223463478E+02  0.56126442024E+02  0.51100000000E-03 0.  1.
         22    1    1    0    0    0 -0.51728289233E+02  0.32194303496E+01 -0.34927177718E+02  0.62498707043E+02  0.00000000000E+00 0.  1.
</event>
<event>
 4    1  0.1956828E-002  0.9118800E+02  0.7818608E-02  0.1130116E+00
         25   -1    0    0    0    0  0.00000000000E+00  0.00000000000E+00  0.99999998245E-14  0.12500000000E+03  0.12500000000E+03 0.  0.
        -11    1    1    0    0    0  0.25200011521E+02 -0.33612444469E+02 -0.15782220766E+02  0.44876669845E+02  0.51100000000E-03 0. -1.
         11    1    1    0    0    0  0.10102776195E+02 -0.12620872847E+02 -0.70443064392E+01  0.17634476792E+02  0.51100000000E-03 0.  1.
         22    1    1    0    0    0 -0.35302787715E+02  0.46233317315E+02  0.22826527205E+02  0.62488853363E+02  0.00000000000E+00 0. -1.
</event>
<event>
 4    1  0.1956828E-002  0.9118800E+02  0.7818608E-02  0.1130116E+00
         25   -1    0    0    0    0  0.00000000000E+00  0.00000000000E+00  0.99999998245E-14  0.12500000000E+03  0.12500000000E+03 0.  0.
        -11    1    1    0    0    0 -0.11167086303E+02 -0.13666737248E+02  0.16845541877E+02  0.24397864761E+02  0.51100000000E-03 0.  1.
         11    1    1    0    0    0 -0.13977777701E+02  0.47988484097E+02  0.90483121122E+01  0.50795126024E+02  0.51100000000E-03 0. -1.
         22    1    1    0    0    0  0.25144864004E+02 -0.34321746850E+02 -0.25893853989E+02  0.49807009216E+02  0.00000000000E+00 0. -1.
</event>
<event>
 4    1  0.1956828E-002  0.9118800E+02  0.7818608E-02  0.1130116E+00
         25   -1    0    0    0    0  0.00000000000E+00  0.00000000000E+00  0.99999998245E-14  0.12500000000E+03  0.12500000000E+03 0.  0.
        -11    1    1    0    0    0 -0.21011345630E+01 -0.28700542028E+01  0.22338618763E+01  0.42002519832E+01  0.51100000000E-03 0.  1.
         11    1    1    0    0    0 -0.29170483059E+02 -0.39852639817E+02  0.30979197419E+02  0.58299748330E+02  0.51100000000E-03 0. -1.
         22    1    1    0    0    0  0.31271617622E+02  0.42722694020E+02 -0.33213059296E+02  0.62499999687E+02  0.00000000000E+00 0. -1.
</event>
<event>
 4    1  0.1956828E-002  0.9118800E+02  0.7818608E-02  0.1130116E+00
         25   -1    0    0    0    0  0.00000000000E+00  0.00000000000E+00  0.99999998245E-14  0.12500000000E+03  0.12500000000E+03 0.  0.
        -11    1    1    0    0    0 -0.63662714428E+00 -0.31564696737E+02  0.52781984985E+00  0.31575527997E+02  0.51100000000E-03 0.  1.
         11    1    1    0    0    0 -0.45585251436E+00 -0.30916260475E+02  0.55449328399E+00  0.30924592582E+02  0.51100000000E-03 0. -1.
         22    1    1    0    0    0  0.10924796586E+01  0.62480957212E+02 -0.10823131338E+01  0.62499879421E+02  0.00000000000E+00 0. -1.
</event>
<event>
 4    1  0.1956828E-002  0.9118800E+02  0.7818608E-02  0.1130116E+00
         25   -1    0    0    0    0  0.00000000000E+00  0.00000000000E+00  0.99999998245E-14  0.12500000000E+03  0.12500000000E+03 0.  0.
        -11    1    1    0    0    0  0.70193732363E+01  0.37081767929E+02  0.45255071300E+02  0.58926654342E+02  0.51100000000E-03 0. -1.
         11    1    1    0    0    0  0.42372305530E+00  0.22545898013E+01  0.27397282415E+01  0.35733496188E+01  0.51100000000E-03 0.  1.
         22    1    1    0    0    0 -0.74430962916E+01 -0.39336357730E+02 -0.47994799541E+02  0.62499996039E+02  0.00000000000E+00 0. -1.
</event>
<event>
 4    1  0.1956828E-002  0.9118800E+02  0.7818608E-02  0.1130116E+00
         25   -1    0    0    0    0  0.00000000000E+00  0.00000000000E+00  0.99999998245E-14  0.12500000000E+03  0.12500000000E+03 0.  0.
        -11    1    1    0    0    0 -0.22828930261E+02 -0.10191447411E+02 -0.27698188719E+02  0.37312401634E+02  0.51100000000E-03 0. -1.
         11    1    1    0    0    0 -0.16043923044E+01  0.33085395674E+02 -0.12470356939E+02  0.35393887665E+02  0.51100000000E-03 0.  1.
         22    1    1    0    0    0  0.24433322565E+02 -0.22893948263E+02  0.40168545658E+02  0.52293710701E+02  0.00000000000E+00 0.  1.
</event>
<event>
 4    1  0.1956828E-002  0.9118800E+02  0.7818608E-02  0.1130116E+00
         25   -1    0    0    0    0  0.00000000000E+00  0.00000000000E+00  0.99999998245E-14  0.12500000000E+03  0.12500000000E+03 0.  0.
        -11    1    1    0    0    0  0.18760008215E+02 -0.53782736160E+01 -0.34120798302E+02  0.39307666076E+02  0.51100000000E-03 0.  1.
         11    1    1    0    0    0  0.11066647606E+02 -0.31669364477E+01 -0.20134154881E+02  0.23192334266E+02  0.51100000000E-03 0. -1.
         22    1    1    0    0    0 -0.29826655821E+02  0.85452100637E+01  0.54254953182E+02  0.62499999658E+02  0.00000000000E+00 0.  1.
</event>
<event>
 4    1  0.1956828E-002  0.9118800E+02  0.7818608E-02  0.1130116E+00
         25   -1    0    0    0    0  0.00000000000E+00  0.00000000000E+00  0.99999998245E-14  0.12500000000E+03  0.12500000000E+03 0.  0.
        -11    1    1    0    0    0  0.15372349708E+02 -0.20987307104E+01  0.33805330554E+01  0.15878973838E+02  0.51100000000E-03 0. -1.
         11    1    1    0    0    0  0.45114118498E+02 -0.60404529379E+01  0.10087347436E+02  0.46621082550E+02  0.51100000000E-03 0.  1.
         22    1    1    0    0    0 -0.60486468207E+02  0.81391836483E+01 -0.13467880492E+02  0.62499943612E+02  0.00000000000E+00 0.  1.
</event>
<event>
 4    1  0.1956828E-002  0.9118800E+02  0.7818608E-02  0.1130116E+00
         25   -1    0    0    0    0  0.00000000000E+00  0.00000000000E+00  0.99999998245E-14  0.12500000000E+03  0.12500000000E+03 0.  0.
        -11    1    1    0    0    0  0.59771518381E+02  0.12018118166E+02  0.31819621132E+00  0.60968605223E+02  0.51100000000E-03 0.  1.
         11    1    1    0    0    0  0.13663922839E+01  0.75209274083E+00  0.19557920517E+00  0.15719169351E+01  0.51100000000E-03 0. -1.
         22    1    1    0    0    0 -0.61137910665E+02 -0.12770210907E+02 -0.51377541649E+00  0.62459477841E+02  0.00000000000E+00 0.  1.
</event>
<event>
 4    1  0.1956828E-002  0.9118800E+02  0.7818608E-02  0.1130116E+00
         25   -1    0    0    0    0  0.00000000000E+00  0.00000000000E+00  0.99999998245E-14  0.12500000000E+03  0.12500000000E+03 0.  0.
        -11    1    1    0    0    0 -0.13971414124E+02  0.10667881883E+02 -0.32651768141E+02  0.37082908185E+02  0.51100000000E-03 0. -1.
         11    1    1    0    0    0 -0.10930760751E+02  0.98763616039E+01 -0.20790671093E+02  0.25480895861E+02  0.51100000000E-03 0.  1.
         22    1    1    0    0    0  0.24902174875E+02 -0.20544243487E+02  0.53442439233E+02  0.62436195954E+02  0.00000000000E+00 0.  1.
</event>
<event>
 4    1  0.1956828E-002  0.9118800E+02  0.7818608E-02  0.1130116E+00
         25   -1    0    0    0    0  0.00000000000E+00  0.00000000000E+00  0.99999998245E-14  0.12500000000E+03  0.12500000000E+03 0.  0.
        -11    1    1    0    0    0  0.52093170907E+01 -0.57898627946E+01  0.35561954208E+01  0.85618935910E+01  0.51100000000E-03 0.  1.
         11    1    1    0    0    0  0.52712213719E+02 -0.30693317652E+01 -0.18532471451E+02  0.55959367142E+02  0.51100000000E-03 0. -1.
         22    1    1    0    0    0 -0.57921530809E+02  0.88591945599E+01  0.14976276030E+02  0.60478739267E+02  0.00000000000E+00 0. -1.
</event>
<event>
 4    1  0.1956828E-002  0.9118800E+02  0.7818608E-02  0.1130116E+00
         25   -1    0    0    0    0  0.00000000000E+00  0.00000000000E+00  0.99999998245E-14  0.12500000000E+03  0.12500000000E+03 0.  0.
        -11    1    1    0    0    0  0.18708946592E+01 -0.42357007377E+00  0.28586551046E+01  0.34426105939E+01  0.51100000000E-03 0.  1.
         11    1    1    0    0    0  0.52890146674E+02  0.25790505600E+02 -0.13254471867E+02  0.60317483527E+02  0.51100000000E-03 0. -1.
         22    1    1    0    0    0 -0.54761041333E+02 -0.25366935526E+02  0.10395816763E+02  0.61239905879E+02  0.00000000000E+00 0. -1.
</event>
<event>
 4    1  0.1956828E-002  0.9118800E+02  0.7818608E-02  0.1130116E+00
         25   -1    0    0    0    0  0.00000000000E+00  0.00000000000E+00  0.99999998245E-14  0.12500000000E+03  0.12500000000E+03 0.  0.
        -11    1    1    0    0    0  0.13427264005E+02 -0.90058192546E+01 -0.65017159241E+01  0.17426087034E+02  0.51100000000E-03 0. -1.
         11    1    1    0    0    0  0.36547263873E+02 -0.26132553669E+02  0.11194354118E+02  0.46302553086E+02  0.51100000000E-03 0.  1.
         22    1    1    0    0    0 -0.49974527878E+02  0.35138372924E+02 -0.46926381939E+01  0.61271359880E+02  0.00000000000E+00 0.  1.
</event>
<event>
 4    1  0.1956828E-002  0.9118800E+02  0.7818608E-02  0.1130116E+00
         25   -1    0    0    0    0  0.00000000000E+00  0.00000000000E+00  0.99999998245E-14  0.12500000000E+03  0.12500000000E+03 0.  0.
        -11    1    1    0    0    0  0.98560837328E+00 -0.36150446397E+01 -0.30567264317E+00  0.37594424638E+01  0.51100000000E-03 0.  1.
         11    1    1    0    0    0  0.15244508165E+02 -0.56591854531E+02 -0.39297189320E+01  0.58740750077E+02  0.51100000000E-03 0. -1.
         22    1    1    0    0    0 -0.16230116538E+02  0.60206899171E+02  0.42353915752E+01  0.62499807459E+02  0.00000000000E+00 0. -1.
</event>
<event>
 4    1  0.1956828E-002  0.9118800E+02  0.7818608E-02  0.1130116E+00
         25   -1    0    0    0    0  0.00000000000E+00  0.00000000000E+00  0.99999998245E-14  0.12500000000E+03  0.12500000000E+03 0.  0.
        -11    1    1    0    0    0 -0.68138358918E+01  0.46946132700E+00  0.19219407763E+02  0.20396921055E+02  0.51100000000E-03 0. -1.
         11    1    1    0    0    0 -0.14109909920E+02  0.11431498513E+01  0.39651964012E+02  0.42103142398E+02  0.51100000000E-03 0.  1.
         22    1    1    0    0    0  0.20923745812E+02 -0.16126111783E+01 -0.58871371775E+02  0.62499936547E+02  0.00000000000E+00 0.  1.
</event>
<event>
 4    1  0.1956828E-002  0.9118800E+02  0.7818608E-02  0.1130116E+00
         25   -1    0    0    0    0  0.00000000000E+00  0.00000000000E+00  0.99999998245E-14  0.12500000000E+03  0.12500000000E+03 0.  0.
        -11    1    1    0    0    0  0.26330440554E+02 -0.44601562961E+02 -0.92081028061E+01  0.52605899630E+02  0.51100000000E-03 0.  1.
         11    1    1    0    0    0  0.49227725657E+01 -0.84505951526E+01 -0.15067452293E+01  0.98952781474E+01  0.51100000000E-03 0. -1.
         22    1    1    0    0    0 -0.31253213119E+02  0.53052158114E+02  0.10714848035E+02  0.62498822223E+02  0.00000000000E+00 0.  1.
</event>
<event>
 4    1  0.1956828E-002  0.9118800E+02  0.7818608E-02  0.1130116E+00
         25   -1    0    0    0    0  0.00000000000E+00  0.00000000000E+00  0.99999998245E-14  0.12500000000E+03  0.12500000000E+03 0.  0.
        -11    1    1    0    0    0  0.66159027202E+01  0.28173317566E+00  0.29623285529E+01  0.72543044533E+01  0.51100000000E-03 0.  1.
         11    1    1    0    0    0  0.50375914982E+02  0.21238988128E+01  0.22579707143E+02  0.55245696044E+02  0.51100000000E-03 0. -1.
         22    1    1    0    0    0 -0.56991817702E+02 -0.24056319884E+01 -0.25542035696E+02  0.62499999502E+02  0.00000000000E+00 0. -1.
</event>
<event>
 4    1  0.1956828E-002  0.9118800E+02  0.7818608E-02  0.1130116E+00
         25   -1    0    0    0    0  0.00000000000E+00  0.00000000000E+00  0.99999998245E-14  0.12500000000E+03  0.12500000000E+03 0.  0.
        -11    1    1    0    0    0 -0.39655106669E+01  0.43545903102E+01 -0.63405414571E+01  0.86539122858E+01  0.51100000000E-03 0.  1.
         11    1    1    0    0    0 -0.19463693202E+02  0.22184539418E+02 -0.45101812340E+02  0.53899560470E+02  0.51100000000E-03 0. -1.
         22    1    1    0    0    0  0.23429203869E+02 -0.26539129729E+02  0.51442353797E+02  0.62446527244E+02  0.00000000000E+00 0. -1.
</event>
<event>
 4    1  0.1956828E-002  0.9118800E+02  0.7818608E-02  0.1130116E+00
         25   -1    0    0    0    0  0.00000000000E+00  0.00000000000E+00  0.99999998245E-14  0.12500000000E+03  0.12500000000E+03 0.  0.
        -11    1    1    0    0    0  0.19877364830E+02  0.43782249371E+02 -0.26375101435E+02  0.54841963573E+02  0.51100000000E-03 0. -1.
         11    1    1    0    0    0  0.31668028656E+01  0.58624953143E+01 -0.37878343393E+01  0.76645404913E+01  0.51100000000E-03 0.  1.
         22    1    1    0    0    0 -0.23044167696E+02 -0.49644744686E+02  0.30162935774E+02  0.62493495935E+02  0.00000000000E+00 0. -1.
</event>
<event>
 4    1  0.1956828E-002  0.9118800E+02  0.7818608E-02  0.1130116E+00
         25   -1    0    0    0    0  0.00000000000E+00  0.00000000000E+00  0.99999998245E-14  0.12500000000E+03  0.12500000000E+03 0.  0.
        -11    1    1    0    0    0  0.28454592689E+02  0.44876836988E+02  0.83330624793E+01  0.53786934042E+02  0.51100000000E-03 0.  1.
         11    1    1    0    0    0  0.37751363012E+01  0.74618281270E+01  0.26522077259E+01  0.87729549852E+01  0.51100000000E-03 0. -1.
         22    1    1    0    0    0 -0.32229728990E+02 -0.52338665115E+02 -0.10985270205E+02  0.62440110973E+02  0.00000000000E+00 0.  1.
</event>
<event>
 4    1  0.1956828E-002  0.9118800E+02  0.7818608E-02  0.1130116E+00
         25   -1    0    0    0    0  0.00000000000E+00  0.00000000000E+00  0.99999998245E-14  0.12500000000E+03  0.12500000000E+03 0.  0.
        -11    1    1    0    0    0 -0.80272837157E+01  0.45836438586E+01  0.36434944737E+01  0.99359009212E+01  0.51100000000E-03 0. -1.
         11    1    1    0    0    0 -0.43589017547E+02  0.21054411130E+02  0.20511623137E+02  0.52573922839E+02  0.51100000000E-03 0.  1.
         22    1    1    0    0    0  0.51616301263E+02 -0.25638054988E+02 -0.24155117611E+02  0.62490176239E+02  0.00000000000E+00 0. -1.
</event>
<event>
 4    1  0.1956828E-002  0.9118800E+02  0.7818608E-02  0.1130116E+00
         25   -1    0    0    0    0  0.00000000000E+00  0.00000000000E+00  0.99999998245E-14  0.12500000000E+03  0.12500000000E+03 0.  0.
        -11    1    1    0    0    0 -0.15726589363E+02  0.14903285658E+02 -0.26417212260E+02  0.34165810985E+02  0.51100000000E-03 0. -1.
         11    1    1    0    0    0 -0.63673190361E+01  0.12954839538E+02 -0.24675292839E+02  0.28587421991E+02  0.51100000000E-03 0.  1.
         22    1    1    0    0    0  0.22093908399E+02 -0.27858125196E+02  0.51092505099E+02  0.62246767024E+02  0.00000000000E+00 0.  1.
</event>
<event>
 4    1  0.1956828E-002  0.9118800E+02  0.7818608E-02  0.1130116E+00
         25   -1    0    0    0    0  0.00000000000E+00  0.00000000000E+00  0.99999998245E-14  0.12500000000E+03  0.12500000000E+03 0.  0.
        -11    1    1    0    0    0 -0.45207471555E+01  0.43822004151E+02 -0.97600823829E+01  0.45122770427E+02  0.51100000000E-03 0.  1.
         11    1    1    0    0    0  0.31724107450E+01  0.14920998759E+02 -0.95853214610E+01  0.18016070095E+02  0.51100000000E-03 0. -1.
         22    1    1    0    0    0  0.13483364105E+01 -0.58743002910E+02  0.19345403844E+02  0.61861159477E+02  0.00000000000E+00 0.  1.
</event>
<event>
 4    1  0.1956828E-002  0.9118800E+02  0.7818608E-02  0.1130116E+00
         25   -1    0    0    0    0  0.00000000000E+00  0.00000000000E+00  0.99999998245E-14  0.12500000000E+03  0.12500000000E+03 0.  0.
        -11    1    1    0    0    0  0.25851156995E+02 -0.62654438401E+01  0.10832371087E+01  0.26621636076E+02  0.51100000000E-03 0.  1.
         11    1    1    0    0    0  0.34837978795E+02 -0.84555587025E+01  0.14407863543E+01  0.35878365418E+02  0.51100000000E-03 0. -1.
         22    1    1    0    0    0 -0.60689135790E+02  0.14721002543E+02 -0.25240234631E+01  0.62499998506E+02  0.00000000000E+00 0.  1.
</event>
<event>
 4    1  0.1956828E-002  0.9118800E+02  0.7818608E-02  0.1130116E+00
         25   -1    0    0    0    0  0.00000000000E+00  0.00000000000E+00  0.99999998245E-14  0.12500000000E+03  0.12500000000E+03 0.  0.
        -11    1    1    0    0    0  0.10833829499E+02 -0.27056247824E+02 -0.20319244057E+02  0.35528637566E+02  0.51100000000E-03 0.  1.
         11    1    1    0    0    0  0.33092703770E+01 -0.22445050505E+02 -0.14856948839E+02  0.27119374839E+02  0.51100000000E-03 0. -1.
         22    1    1    0    0    0 -0.14143099876E+02  0.49501298329E+02  0.35176192896E+02  0.62351987595E+02  0.00000000000E+00 0. -1.
</event>
<event>
 4    1  0.1956828E-002  0.9118800E+02  0.7818608E-02  0.1130116E+00
         25   -1    0    0    0    0  0.00000000000E+00  0.00000000000E+00  0.99999998245E-14  0.12500000000E+03  0.12500000000E+03 0.  0.
        -11    1    1    0    0    0 -0.51433695572E+01 -0.10658304371E+02 -0.18522573147E+01  0.11978504075E+02  0.51100000000E-03 0. -1.
         11    1    1    0    0    0 -0.21433707347E+02 -0.45112462160E+02 -0.76089638966E+01  0.50521622941E+02  0.51100000000E-03 0.  1.
         22    1    1    0    0    0  0.26577076904E+02  0.55770766531E+02  0.94612212112E+01  0.62499872984E+02  0.00000000000E+00 0.  1.
</event>
<event>
 4    1  0.1956828E-002  0.9118800E+02  0.7818608E-02  0.1130116E+00
         25   -1    0    0    0    0  0.00000000000E+00  0.00000000000E+00  0.99999998245E-14  0.12500000000E+03  0.12500000000E+03 0.  0.
        -11    1    1    0    0    0  0.39414404738E+02  0.15201644125E+02 -0.35701477010E+02  0.55309861200E+02  0.51100000000E-03 0. -1.
         11    1    1    0    0    0  0.16005611443E+01  0.76468187413E+01 -0.34670145717E+01  0.85472699233E+01  0.51100000000E-03 0.  1.
         22    1    1    0    0    0 -0.41014965883E+02 -0.22848462866E+02  0.39168491582E+02  0.61142868877E+02  0.00000000000E+00 0. -1.
</event>
<event>
 4    1  0.1956828E-002  0.9118800E+02  0.7818608E-02  0.1130116E+00
         25   -1    0    0    0    0  0.00000000000E+00  0.00000000000E+00  0.99999998245E-14  0.12500000000E+03  0.12500000000E+03 0.  0.
        -11    1    1    0    0    0  0.17331036736E+02  0.17706177974E+02 -0.29514564133E+02  0.38535478056E+02  0.51100000000E-03 0.  1.
         11    1    1    0    0    0  0.10769357618E+02  0.10971107270E+02 -0.18383547785E+02  0.23964538127E+02  0.51100000000E-03 0. -1.
         22    1    1    0    0    0 -0.28100394354E+02 -0.28677285244E+02  0.47898111918E+02  0.62499983817E+02  0.00000000000E+00 0. -1.
</event>
<event>
 4    1  0.1956828E-002  0.9118800E+02  0.7818608E-02  0.1130116E+00
         25   -1    0    0    0    0  0.00000000000E+00  0.00000000000E+00  0.99999998245E-14  0.12500000000E+03  0.12500000000E+03 0.  0.
        -11    1    1    0    0    0  0.53589002103E+01 -0.89607353105E+00 -0.13047679176E+01  0.55877704692E+01  0.51100000000E-03 0. -1.
         11    1    1    0    0    0  0.38840834442E+02  0.20911754884E+02 -0.37014798141E+02  0.57584782662E+02  0.51100000000E-03 0.  1.
         22    1    1    0    0    0 -0.44199734653E+02 -0.20015681353E+02  0.38319566059E+02  0.61827446869E+02  0.00000000000E+00 0.  1.
</event>
<event>
 4    1  0.1956828E-002  0.9118800E+02  0.7818608E-02  0.1130116E+00
         25   -1    0    0    0    0  0.00000000000E+00  0.00000000000E+00  0.99999998245E-14  0.12500000000E+03  0.12500000000E+03 0.  0.
        -11    1    1    0    0    0 -0.54108618952E+00  0.40432876382E+01 -0.16035212415E+01  0.43831757691E+01  0.51100000000E-03 0. -1.
         11    1    1    0    0    0  0.46949043964E+02 -0.50001032297E+01  0.38817697909E+02  0.61123051566E+02  0.51100000000E-03 0.  1.
         22    1    1    0    0    0 -0.46407957775E+02  0.95681559149E+00 -0.37214176668E+02  0.59493772665E+02  0.00000000000E+00 0.  1.
</event>
<event>
 4    1  0.1956828E-002  0.9118800E+02  0.7818608E-02  0.1130116E+00
         25   -1    0    0    0    0  0.00000000000E+00  0.00000000000E+00  0.99999998245E-14  0.12500000000E+03  0.12500000000E+03 0.  0.
        -11    1    1    0    0    0  0.73379993187E+01 -0.40672368005E+02 -0.69109287283E+01  0.41902848224E+02  0.51100000000E-03 0.  1.
         11    1    1    0    0    0  0.38436188678E+01 -0.19651068690E+02 -0.49125070273E+01  0.20617241140E+02  0.51100000000E-03 0. -1.
         22    1    1    0    0    0 -0.11181618187E+02  0.60323436695E+02  0.11823435756E+02  0.62479910636E+02  0.00000000000E+00 0.  1.
</event>
<event>
 4    1  0.1956828E-002  0.9118800E+02  0.7818608E-02  0.1130116E+00
         25   -1    0    0    0    0  0.00000000000E+00  0.00000000000E+00  0.99999998245E-14  0.12500000000E+03  0.12500000000E+03 0.  0.
        -11    1    1    0    0    0  0.22277775065E+02  0.16014622036E+02 -0.39234150377E+01  0.27715709744E+02  0.51100000000E-03 0. -1.
         11    1    1    0    0    0  0.27960476441E+02  0.20089883519E+02 -0.49553427551E+01  0.34784293650E+02  0.51100000000E-03 0.  1.
         22    1    1    0    0    0 -0.50238251506E+02 -0.36104505555E+02  0.88787577928E+01  0.62499996606E+02  0.00000000000E+00 0.  1.
</event>
<event>
 4    1  0.1956828E-002  0.9118800E+02  0.7818608E-02  0.1130116E+00
         25   -1    0    0    0    0  0.00000000000E+00  0.00000000000E+00  0.99999998245E-14  0.12500000000E+03  0.12500000000E+03 0.  0.
        -11    1    1    0    0    0  0.46605943782E+01  0.85955606152E+01  0.29360384831E+02  0.30945710525E+02  0.51100000000E-03 0. -1.
         11    1    1    0    0    0  0.47556174180E+01  0.87619036462E+01  0.29938041625E+02  0.31554289552E+02  0.51100000000E-03 0.  1.
         22    1    1    0    0    0 -0.94162117962E+01 -0.17357464261E+02 -0.59298426456E+02  0.62499999923E+02  0.00000000000E+00 0.  1.
</event>
<event>
 4    1  0.1956828E-002  0.9118800E+02  0.7818608E-02  0.1130116E+00
         25   -1    0    0    0    0  0.00000000000E+00  0.00000000000E+00  0.99999998245E-14  0.12500000000E+03  0.12500000000E+03 0.  0.
        -11    1    1    0    0    0 -0.15418592832E+02 -0.19819935169E+02 -0.11043316429E+02  0.27432055574E+02  0.51100000000E-03 0.  1.
         11    1    1    0    0    0 -0.19693906620E+02 -0.25372589379E+02 -0.14076334172E+02  0.35067954513E+02  0.51100000000E-03 0. -1.
         22    1    1    0    0    0  0.35112499452E+02  0.45192524547E+02  0.25119650602E+02  0.62499989913E+02  0.00000000000E+00 0. -1.
</event>
<event>
 4    1  0.1956828E-002  0.9118800E+02  0.7818608E-02  0.1130116E+00
         25   -1    0    0    0    0  0.00000000000E+00  0.00000000000E+00  0.99999998245E-14  0.12500000000E+03  0.12500000000E+03 0.  0.
        -11    1    1    0    0    0 -0.54334917137E+02 -0.76825341929E+01  0.27601264674E+02  0.61425844429E+02  0.51100000000E-03 0.  1.
         11    1    1    0    0    0 -0.95041133452E+00 -0.13364439991E+00  0.48235656095E+00  0.10741557817E+01  0.51100000000E-03 0.  1.
         22    1    1    0    0    0  0.55285328472E+02  0.78161785928E+01 -0.28083621234E+02  0.62499999789E+02  0.00000000000E+00 0.  1.
</event>
<event>
 4    1  0.1956828E-002  0.9118800E+02  0.7818608E-02  0.1130116E+00
         25   -1    0    0    0    0  0.00000000000E+00  0.00000000000E+00  0.99999998245E-14  0.12500000000E+03  0.12500000000E+03 0.  0.
        -11    1    1    0    0    0 -0.85500579538E+00  0.61263211283E+00  0.96581922282E+01  0.97152987805E+01  0.51100000000E-03 0.  1.
         11    1    1    0    0    0 -0.45168656915E+02 -0.20349168792E+02  0.23898574794E+02  0.55003982724E+02  0.51100000000E-03 0. -1.
         22    1    1    0    0    0  0.46023662711E+02  0.19736536679E+02 -0.33556767022E+02  0.60280718496E+02  0.00000000000E+00 0. -1.
</event>
<event>
 4    1  0.1956828E-002  0.9118800E+02  0.7818608E-02  0.1130116E+00
         25   -1    0    0    0    0  0.00000000000E+00  0.00000000000E+00  0.99999998245E-14  0.12500000000E+03  0.12500000000E+03 0.  0.
        -11    1    1    0    0    0  0.70507518812E+01  0.19154155111E+02 -0.41615654247E+02  0.46351455627E+02  0.51100000000E-03 0. -1.
         11    1    1    0    0    0  0.38008505414E+01  0.86510948692E+01 -0.13199939781E+02  0.16233493702E+02  0.51100000000E-03 0.  1.
         22    1    1    0    0    0 -0.10851602423E+02 -0.27805249980E+02  0.54815594028E+02  0.62415050671E+02  0.00000000000E+00 0. -1.
</event>
<event>
 4    1  0.1956828E-002  0.9118800E+02  0.7818608E-02  0.1130116E+00
         25   -1    0    0    0    0  0.00000000000E+00  0.00000000000E+00  0.99999998245E-14  0.12500000000E+03  0.12500000000E+03 0.  0.
        -11    1    1    0    0    0  0.77207761806E+01 -0.75021275649E+01  0.90352033116E+01  0.14054437092E+02  0.51100000000E-03 0. -1.
         11    1    1    0    0    0  0.44172395311E+02 -0.26074824650E+01 -0.30651335795E+02  0.53828466991E+02  0.51100000000E-03 0.  1.
         22    1    1    0    0    0 -0.51893171492E+02  0.10109610030E+02  0.21616132484E+02  0.57117095917E+02  0.00000000000E+00 0.  1.
</event>
<event>
 4    1  0.1956828E-002  0.9118800E+02  0.7818608E-02  0.1130116E+00
         25   -1    0    0    0    0  0.00000000000E+00  0.00000000000E+00  0.99999998245E-14  0.12500000000E+03  0.12500000000E+03 0.  0.
        -11    1    1    0    0    0  0.11211481057E+02  0.39555094609E+01 -0.83194792345E+01  0.14510585708E+02  0.51100000000E-03 0.  1.
         11    1    1    0    0    0  0.35378434858E+02  0.14988907617E+02 -0.28768444672E+02  0.47999212636E+02  0.51100000000E-03 0. -1.
         22    1    1    0    0    0 -0.46589915915E+02 -0.18944417078E+02  0.37087923907E+02  0.62490201657E+02  0.00000000000E+00 0. -1.
</event>
<event>
 4    1  0.1956828E-002  0.9118800E+02  0.7818608E-02  0.1130116E+00
         25   -1    0    0    0    0  0.00000000000E+00  0.00000000000E+00  0.99999998245E-14  0.12500000000E+03  0.12500000000E+03 0.  0.
        -11    1    1    0    0    0 -0.13446223067E+02  0.16792358676E+02 -0.47319630671E+02  0.51980108424E+02  0.51100000000E-03 0.  1.
         11    1    1    0    0    0 -0.13551651851E+01  0.37753420078E+01 -0.97688217815E+01  0.10560282156E+02  0.51100000000E-03 0. -1.
         22    1    1    0    0    0  0.14801388252E+02 -0.20567700684E+02  0.57088452452E+02  0.62459609421E+02  0.00000000000E+00 0.  1.
</event>
<event>
 4    1  0.1956828E-002  0.9118800E+02  0.7818608E-02  0.1130116E+00
         25   -1    0    0    0    0  0.00000000000E+00  0.00000000000E+00  0.99999998245E-14  0.12500000000E+03  0.12500000000E+03 0.  0.
        -11    1    1    0    0    0  0.17357066428E+02  0.11840403486E+02  0.17223324895E+02  0.27168103180E+02  0.51100000000E-03 0. -1.
         11    1    1    0    0    0  0.22499358788E+02  0.15426889282E+02  0.22452947656E+02  0.35331924905E+02  0.51100000000E-03 0.  1.
         22    1    1    0    0    0 -0.39856425216E+02 -0.27267292768E+02 -0.39676272551E+02  0.62499971915E+02  0.00000000000E+00 0.  1.
</event>
<event>
 4    1  0.1956828E-002  0.9118800E+02  0.7818608E-02  0.1130116E+00
         25   -1    0    0    0    0  0.00000000000E+00  0.00000000000E+00  0.99999998245E-14  0.12500000000E+03  0.12500000000E+03 0.  0.
        -11    1    1    0    0    0  0.11831542165E+01  0.32395543984E+02 -0.74213170445E+01  0.33255782518E+02  0.51100000000E-03 0. -1.
         11    1    1    0    0    0  0.10179306298E+01  0.28483097752E+02 -0.65499242198E+01  0.29244222470E+02  0.51100000000E-03 0.  1.
         22    1    1    0    0    0 -0.22010848463E+01 -0.60878641736E+02  0.13971241264E+02  0.62499995013E+02  0.00000000000E+00 0. -1.
</event>
<event>
 4    1  0.1956828E-002  0.9118800E+02  0.7818608E-02  0.1130116E+00
         25   -1    0    0    0    0  0.00000000000E+00  0.00000000000E+00  0.99999998245E-14  0.12500000000E+03  0.12500000000E+03 0.  0.
        -11    1    1    0    0    0  0.15359911435E+01  0.12284004290E+01 -0.42911359983E+01  0.47203903254E+01  0.51100000000E-03 0.  1.
         11    1    1    0    0    0  0.19182313356E+02  0.13701164701E+02 -0.52752961800E+02  0.57780256479E+02  0.51100000000E-03 0. -1.
         22    1    1    0    0    0 -0.20718304499E+02 -0.14929565130E+02  0.57044097798E+02  0.62499353196E+02  0.00000000000E+00 0. -1.
</event>
<event>
 4    1  0.1956828E-002  0.9118800E+02  0.7818608E-02  0.1130116E+00
         25   -1    0    0    0    0  0.00000000000E+00  0.00000000000E+00  0.99999998245E-14  0.12500000000E+03  0.12500000000E+03 0.  0.
        -11    1    1    0    0    0 -0.32543535812E+02  0.78238608644E+01  0.29619270356E+02  0.44694470560E+02  0.51100000000E-03 0.  1.
         11    1    1    0    0    0 -0.19281766708E+02  0.27878770932E+01  0.38947171967E+00  0.19486161104E+02  0.51100000000E-03 0. -1.
         22    1    1    0    0    0  0.51825302520E+02 -0.10611737958E+02 -0.30008742076E+02  0.60819368336E+02  0.00000000000E+00 0. -1.
</event>
<event>
 4    1  0.1956828E-002  0.9118800E+02  0.7818608E-02  0.1130116E+00
         25   -1    0    0    0    0  0.00000000000E+00  0.00000000000E+00  0.99999998245E-14  0.12500000000E+03  0.12500000000E+03 0.  0.
        -11    1    1    0    0    0 -0.41980340511E+02 -0.25548422661E+01  0.16366098963E+02  0.45130094216E+02  0.51100000000E-03 0.  1.
         11    1    1    0    0    0 -0.15662462062E+02 -0.45151881495E+01  0.63733265006E+01  0.17501969399E+02  0.51100000000E-03 0. -1.
         22    1    1    0    0    0  0.57642802573E+02  0.70700304157E+01 -0.22739425464E+02  0.62367936386E+02  0.00000000000E+00 0.  1.
</event>
<event>
 4    1  0.1956828E-002  0.9118800E+02  0.7818608E-02  0.1130116E+00
         25   -1    0    0    0    0  0.00000000000E+00  0.00000000000E+00  0.99999998245E-14  0.12500000000E+03  0.12500000000E+03 0.  0.
        -11    1    1    0    0    0 -0.24886522648E+01 -0.25226505038E+02  0.20038718016E+02  0.32312848319E+02  0.51100000000E-03 0.  1.
         11    1    1    0    0    0 -0.17954506999E+01 -0.23275608829E+02  0.19142281303E+02  0.30189477361E+02  0.51100000000E-03 0. -1.
         22    1    1    0    0    0  0.42841029647E+01  0.48502113867E+02 -0.39180999319E+02  0.62497674320E+02  0.00000000000E+00 0. -1.
</event>
<event>
 4    1  0.1956828E-002  0.9118800E+02  0.7818608E-02  0.1130116E+00
         25   -1    0    0    0    0  0.00000000000E+00  0.00000000000E+00  0.99999998245E-14  0.12500000000E+03  0.12500000000E+03 0.  0.
        -11    1    1    0    0    0 -0.49036556609E+00  0.52086919450E+00  0.25109551565E-01  0.71581691576E+00  0.51100000000E-03 0.  1.
         11    1    1    0    0    0  0.53645907781E+02  0.15198898605E+02 -0.27777748558E+02  0.62293605255E+02  0.51100000000E-03 0. -1.
         22    1    1    0    0    0 -0.53155542214E+02 -0.15719767800E+02  0.27752639007E+02  0.61990577829E+02  0.00000000000E+00 0. -1.
</event>
<event>
 4    1  0.1956828E-002  0.9118800E+02  0.7818608E-02  0.1130116E+00
         25   -1    0    0    0    0  0.00000000000E+00  0.00000000000E+00  0.99999998245E-14  0.12500000000E+03  0.12500000000E+03 0.  0.
        -11    1    1    0    0    0  0.10324357762E+02  0.77911199266E+01 -0.41436094756E+01  0.13581730841E+02  0.51100000000E-03 0.  1.
         11    1    1    0    0    0  0.36872388395E+02  0.27913817865E+02 -0.15948979471E+02  0.48919568684E+02  0.51100000000E-03 0. -1.
         22    1    1    0    0    0 -0.47196746156E+02 -0.35704937792E+02  0.20092588947E+02  0.62498700475E+02  0.00000000000E+00 0. -1.
</event>
<event>
 4    1  0.1956828E-002  0.9118800E+02  0.7818608E-02  0.1130116E+00
         25   -1    0    0    0    0  0.00000000000E+00  0.00000000000E+00  0.99999998245E-14  0.12500000000E+03  0.12500000000E+03 0.  0.
        -11    1    1    0    0    0  0.15502337949E+02 -0.30490548688E+02  0.16602814092E+02  0.38021697453E+02  0.51100000000E-03 0.  1.
         11    1    1    0    0    0  0.99719584965E+01 -0.19635326892E+02  0.10686501290E+02  0.24478303219E+02  0.51100000000E-03 0. -1.
         22    1    1    0    0    0 -0.25474296446E+02  0.50125875579E+02 -0.27289315382E+02  0.62499999328E+02  0.00000000000E+00 0.  1.
</event>
<event>
 4    1  0.1956828E-002  0.9118800E+02  0.7818608E-02  0.1130116E+00
         25   -1    0    0    0    0  0.00000000000E+00  0.00000000000E+00  0.99999998245E-14  0.12500000000E+03  0.12500000000E+03 0.  0.
        -11    1    1    0    0    0  0.18091480447E+02  0.34705120656E+02  0.71828156232E+01  0.39791203865E+02  0.51100000000E-03 0. -1.
         11    1    1    0    0    0  0.94219383905E+01  0.20100653723E+02  0.48309214984E+01  0.22718868940E+02  0.51100000000E-03 0.  1.
         22    1    1    0    0    0 -0.27513418837E+02 -0.54805774378E+02 -0.12013737122E+02  0.62489927196E+02  0.00000000000E+00 0. -1.
</event>
<event>
 4    1  0.1956828E-002  0.9118800E+02  0.7818608E-02  0.1130116E+00
         25   -1    0    0    0    0  0.00000000000E+00  0.00000000000E+00  0.99999998245E-14  0.12500000000E+03  0.12500000000E+03 0.  0.
        -11    1    1    0    0    0  0.88533186189E+01  0.49494796715E+02  0.18381555932E+02  0.53535014253E+02  0.51100000000E-03 0.  1.
         11    1    1    0    0    0  0.14824600429E+01  0.82879697970E+01  0.30794218521E+01  0.89649857969E+01  0.51100000000E-03 0. -1.
         22    1    1    0    0    0 -0.10335778662E+02 -0.57782766512E+02 -0.21460977784E+02  0.62499999950E+02  0.00000000000E+00 0.  1.
</event>
<event>
 4    1  0.1956828E-002  0.9118800E+02  0.7818608E-02  0.1130116E+00
         25   -1    0    0    0    0  0.00000000000E+00  0.00000000000E+00  0.99999998245E-14  0.12500000000E+03  0.12500000000E+03 0.  0.
        -11    1    1    0    0    0 -0.18457373311E+02 -0.29207067587E+02  0.65958847333E+01  0.35174324759E+02  0.51100000000E-03 0.  1.
         11    1    1    0    0    0 -0.14327583548E+02 -0.22696373171E+02  0.51271407326E+01  0.27325676163E+02  0.51100000000E-03 0. -1.
         22    1    1    0    0    0  0.32784956859E+02  0.51903440757E+02 -0.11723025466E+02  0.62499999078E+02  0.00000000000E+00 0. -1.
</event>
<event>
 4    1  0.1956828E-002  0.9118800E+02  0.7818608E-02  0.1130116E+00
         25   -1    0    0    0    0  0.00000000000E+00  0.00000000000E+00  0.99999998245E-14  0.12500000000E+03  0.12500000000E+03 0.  0.
        -11    1    1    0    0    0  0.54573921341E+02  0.65170602458E+01  0.71839089319E+01  0.55429175644E+02  0.51100000000E-03 0.  1.
         11    1    1    0    0    0  0.39650892606E+01  0.66950083076E+01 -0.55129267081E+01  0.95361119034E+01  0.51100000000E-03 0. -1.
         22    1    1    0    0    0 -0.58539010602E+02 -0.13212068553E+02 -0.16709822238E+01  0.60034712453E+02  0.00000000000E+00 0.  1.
</event>
<event>
 4    1  0.1956828E-002  0.9118800E+02  0.7818608E-02  0.1130116E+00
         25   -1    0    0    0    0  0.00000000000E+00  0.00000000000E+00  0.99999998245E-14  0.12500000000E+03  0.12500000000E+03 0.  0.
        -11    1    1    0    0    0 -0.35041451673E+02 -0.16533455723E+02 -0.35092516771E+02  0.52275646596E+02  0.51100000000E-03 0. -1.
         11    1    1    0    0    0 -0.68538804975E+01 -0.32342260890E+01 -0.68630537243E+01  0.10224353425E+02  0.51100000000E-03 0.  1.
         22    1    1    0    0    0  0.41895332170E+02  0.19767681812E+02  0.41955570495E+02  0.62499999979E+02  0.00000000000E+00 0. -1.
</event>
<event>
 4    1  0.1956828E-002  0.9118800E+02  0.7818608E-02  0.1130116E+00
         25   -1    0    0    0    0  0.00000000000E+00  0.00000000000E+00  0.99999998245E-14  0.12500000000E+03  0.12500000000E+03 0.  0.
        -11    1    1    0    0    0  0.53487361722E+01  0.21094597214E+02 -0.10821011990E+02  0.24304018413E+02  0.51100000000E-03 0.  1.
         11    1    1    0    0    0  0.84099614688E+01  0.33149671927E+02 -0.17008962765E+02  0.38195981665E+02  0.51100000000E-03 0.  1.
         22    1    1    0    0    0 -0.13758697641E+02 -0.54244269141E+02  0.27829974755E+02  0.62499999922E+02  0.00000000000E+00 0.  1.
</event>
<event>
 4    1  0.1956828E-002  0.9118800E+02  0.7818608E-02  0.1130116E+00
         25   -1    0    0    0    0  0.00000000000E+00  0.00000000000E+00  0.99999998245E-14  0.12500000000E+03  0.12500000000E+03 0.  0.
        -11    1    1    0    0    0 -0.30885938202E+02  0.27060064171E+02  0.10196906600E+02  0.42310343370E+02  0.51100000000E-03 0. -1.
         11    1    1    0    0    0 -0.14738406339E+02  0.12912414162E+02  0.48653030693E+01  0.20189656637E+02  0.51100000000E-03 0. -1.
         22    1    1    0    0    0  0.45624344542E+02 -0.39972478333E+02 -0.15062209669E+02  0.62499999993E+02  0.00000000000E+00 0. -1.
</event>
<event>
 4    1  0.1956828E-002  0.9118800E+02  0.7818608E-02  0.1130116E+00
         25   -1    0    0    0    0  0.00000000000E+00  0.00000000000E+00  0.99999998245E-14  0.12500000000E+03  0.12500000000E+03 0.  0.
        -11    1    1    0    0    0  0.13037016964E+02  0.10696939226E+02  0.85283019661E+01  0.18897625639E+02  0.51100000000E-03 0. -1.
         11    1    1    0    0    0  0.40885876972E+02  0.11346370264E+02  0.12394813747E+02  0.44204371526E+02  0.51100000000E-03 0.  1.
         22    1    1    0    0    0 -0.53922893936E+02 -0.22043309490E+02 -0.20923115713E+02  0.61898002834E+02  0.00000000000E+00 0.  1.
</event>
<event>
 4    1  0.1956828E-002  0.9118800E+02  0.7818608E-02  0.1130116E+00
         25   -1    0    0    0    0  0.00000000000E+00  0.00000000000E+00  0.99999998245E-14  0.12500000000E+03  0.12500000000E+03 0.  0.
        -11    1    1    0    0    0 -0.19538618658E+02 -0.15661106461E+02 -0.14110052228E+02  0.28742328520E+02  0.51100000000E-03 0. -1.
         11    1    1    0    0    0 -0.23017976415E+02 -0.18404074282E+02 -0.16463506935E+02  0.33757728734E+02  0.51100000000E-03 0.  1.
         22    1    1    0    0    0  0.42556595073E+02  0.34065180744E+02  0.30573559162E+02  0.62499942745E+02  0.00000000000E+00 0.  1.
</event>
<event>
 4    1  0.1956828E-002  0.9118800E+02  0.7818608E-02  0.1130116E+00
         25   -1    0    0    0    0  0.00000000000E+00  0.00000000000E+00  0.99999998245E-14  0.12500000000E+03  0.12500000000E+03 0.  0.
        -11    1    1    0    0    0 -0.62200562042E+01 -0.16467188334E+02  0.30785800878E+01  0.17869948137E+02  0.51100000000E-03 0. -1.
         11    1    1    0    0    0 -0.15612813405E+02 -0.41115048301E+02  0.75918789741E+01  0.44630076920E+02  0.51100000000E-03 0.  1.
         22    1    1    0    0    0  0.21832869610E+02  0.57582236635E+02 -0.10670459062E+02  0.62499974943E+02  0.00000000000E+00 0.  1.
</event>
<event>
 4    1  0.1956828E-002  0.9118800E+02  0.7818608E-02  0.1130116E+00
         25   -1    0    0    0    0  0.00000000000E+00  0.00000000000E+00  0.99999998245E-14  0.12500000000E+03  0.12500000000E+03 0.  0.
        -11    1    1    0    0    0  0.95319988062E+01  0.32262381616E+02 -0.50276177859E+02  0.60493093235E+02  0.51100000000E-03 0.  1.
         11    1    1    0    0    0  0.34316994950E+00  0.22420025848E+01 -0.50466909335E+00  0.23235817953E+01  0.51100000000E-03 0. -1.
         22    1    1    0    0    0 -0.98751687557E+01 -0.34504384201E+02  0.50780846952E+02  0.62183324969E+02  0.00000000000E+00 0.  1.
</event>
<event>
 4    1  0.1956828E-002  0.9118800E+02  0.7818608E-02  0.1130116E+00
         25   -1    0    0    0    0  0.00000000000E+00  0.00000000000E+00  0.99999998245E-14  0.12500000000E+03  0.12500000000E+03 0.  0.
        -11    1    1    0    0    0 -0.10209025749E+02 -0.48303526719E+01 -0.28767477457E+01  0.11654706840E+02  0.51100000000E-03 0. -1.
         11    1    1    0    0    0 -0.51307314769E+02  0.78600672091E+00  0.57165471442E+01  0.51630778291E+02  0.51100000000E-03 0.  1.
         22    1    1    0    0    0  0.61516340518E+02  0.40443459509E+01 -0.28397993985E+01  0.61714514869E+02  0.00000000000E+00 0.  1.
</event>
<event>
 4    1  0.1956828E-002  0.9118800E+02  0.7818608E-02  0.1130116E+00
         25   -1    0    0    0    0  0.00000000000E+00  0.00000000000E+00  0.99999998245E-14  0.12500000000E+03  0.12500000000E+03 0.  0.
        -11    1    1    0    0    0  0.14872491102E+01  0.56048306254E+01  0.47498912302E+01  0.74958323897E+01  0.51100000000E-03 0. -1.
         11    1    1    0    0    0  0.10928283161E+02  0.41119333745E+02  0.34860170606E+02  0.55004167800E+02  0.51100000000E-03 0.  1.
         22    1    1    0    0    0 -0.12415532271E+02 -0.46724164370E+02 -0.39610061836E+02  0.62499999810E+02  0.00000000000E+00 0.  1.
</event>
<event>
 4    1  0.1956828E-002  0.9118800E+02  0.7818608E-02  0.1130116E+00
         25   -1    0    0    0    0  0.00000000000E+00  0.00000000000E+00  0.99999998245E-14  0.12500000000E+03  0.12500000000E+03 0.  0.
        -11    1    1    0    0    0 -0.61246492785E+02  0.26751618084E+01 -0.83684979110E+01  0.61873428277E+02  0.51100000000E-03 0.  1.
         11    1    1    0    0    0 -0.53219554938E+00  0.41671684715E+00  0.32426003009E+00  0.74968650896E+00  0.51100000000E-03 0. -1.
         22    1    1    0    0    0  0.61778688334E+02 -0.30918786556E+01  0.80442378809E+01  0.62376885214E+02  0.00000000000E+00 0.  1.
</event>
<event>
 4    1  0.1956828E-002  0.9118800E+02  0.7818608E-02  0.1130116E+00
         25   -1    0    0    0    0  0.00000000000E+00  0.00000000000E+00  0.99999998245E-14  0.12500000000E+03  0.12500000000E+03 0.  0.
        -11    1    1    0    0    0 -0.33008423956E+02 -0.34077193800E+02  0.23063506066E+02  0.52751649279E+02  0.51100000000E-03 0.  1.
         11    1    1    0    0    0  0.14597102773E+02 -0.10178016017E+02  0.24265494792E+01  0.17959831905E+02  0.51100000000E-03 0. -1.
         22    1    1    0    0    0  0.18411321183E+02  0.44255209816E+02 -0.25490055545E+02  0.54288518816E+02  0.00000000000E+00 0.  1.
</event>
<event>
 4    1  0.1956828E-002  0.9118800E+02  0.7818608E-02  0.1130116E+00
         25   -1    0    0    0    0  0.00000000000E+00  0.00000000000E+00  0.99999998245E-14  0.12500000000E+03  0.12500000000E+03 0.  0.
        -11    1    1    0    0    0 -0.98389799605E+01  0.26932941622E+02  0.11532157716E+02  0.30905978919E+02  0.51100000000E-03 0. -1.
         11    1    1    0    0    0 -0.97728626626E+01  0.27551219649E+02  0.11984710734E+02  0.31594490665E+02  0.51100000000E-03 0.  1.
         22    1    1    0    0    0  0.19611842623E+02 -0.54484161271E+02 -0.23516868450E+02  0.62499530416E+02  0.00000000000E+00 0.  1.
</event>
<event>
 4    1  0.1956828E-002  0.9118800E+02  0.7818608E-02  0.1130116E+00
         25   -1    0    0    0    0  0.00000000000E+00  0.00000000000E+00  0.99999998245E-14  0.12500000000E+03  0.12500000000E+03 0.  0.
        -11    1    1    0    0    0 -0.54934420912E+02  0.16286559136E+02  0.13688694700E+02  0.58910295978E+02  0.51100000000E-03 0. -1.
         11    1    1    0    0    0 -0.33796797333E+01  0.10354167400E+01  0.64080379156E+00  0.35923464039E+01  0.51100000000E-03 0.  1.
         22    1    1    0    0    0  0.58314100645E+02 -0.17321975876E+02 -0.14329498491E+02  0.62497357618E+02  0.00000000000E+00 0. -1.
</event>
<event>
 4    1  0.1956828E-002  0.9118800E+02  0.7818608E-02  0.1130116E+00
         25   -1    0    0    0    0  0.00000000000E+00  0.00000000000E+00  0.99999998245E-14  0.12500000000E+03  0.12500000000E+03 0.  0.
        -11    1    1    0    0    0 -0.99906156879E+00 -0.88317298019E+00  0.12579115046E+01  0.18331557887E+01  0.51100000000E-03 0.  1.
         11    1    1    0    0    0 -0.36898168205E+02 -0.26400235282E+02  0.40278759493E+02  0.60669808854E+02  0.51100000000E-03 0. -1.
         22    1    1    0    0    0  0.37897229774E+02  0.27283408262E+02 -0.41536670997E+02  0.62497035357E+02  0.00000000000E+00 0. -1.
</event>
<event>
 4    1  0.1956828E-002  0.9118800E+02  0.7818608E-02  0.1130116E+00
         25   -1    0    0    0    0  0.00000000000E+00  0.00000000000E+00  0.99999998245E-14  0.12500000000E+03  0.12500000000E+03 0.  0.
        -11    1    1    0    0    0  0.14662062313E+02  0.55596413103E+02  0.13095944343E+02  0.58969831098E+02  0.51100000000E-03 0. -1.
         11    1    1    0    0    0  0.90075736661E+00  0.33129602845E+01  0.82223681039E+00  0.35303177355E+01  0.51100000000E-03 0.  1.
         22    1    1    0    0    0 -0.15562819680E+02 -0.58909373387E+02 -0.13918181153E+02  0.62499851167E+02  0.00000000000E+00 0. -1.
</event>
<event>
 4    1  0.1956828E-002  0.9118800E+02  0.7818608E-02  0.1130116E+00
         25   -1    0    0    0    0  0.00000000000E+00  0.00000000000E+00  0.99999998245E-14  0.12500000000E+03  0.12500000000E+03 0.  0.
        -11    1    1    0    0    0 -0.20348987512E+02  0.42993116058E+01 -0.45529913382E+02  0.50055353219E+02  0.51100000000E-03 0.  1.
         11    1    1    0    0    0 -0.50566878733E+01  0.10687391393E+01 -0.11320642238E+02  0.12444646903E+02  0.51100000000E-03 0. -1.
         22    1    1    0    0    0  0.25405675385E+02 -0.53680507450E+01  0.56850555620E+02  0.62499999879E+02  0.00000000000E+00 0.  1.
</event>
<event>
 4    1  0.1956828E-002  0.9118800E+02  0.7818608E-02  0.1130116E+00
         25   -1    0    0    0    0  0.00000000000E+00  0.00000000000E+00  0.99999998245E-14  0.12500000000E+03  0.12500000000E+03 0.  0.
        -11    1    1    0    0    0 -0.29814423953E+01 -0.30987469636E+02  0.61333577352E+01  0.31729014334E+02  0.51100000000E-03 0.  1.
         11    1    1    0    0    0 -0.30085234294E+01 -0.30083162398E+02  0.57290144699E+01  0.30771244371E+02  0.51100000000E-03 0. -1.
         22    1    1    0    0    0  0.59899658247E+01  0.61070632034E+02 -0.11862372205E+02  0.62499741295E+02  0.00000000000E+00 0.  1.
</event>
<event>
 4    1  0.1956828E-002  0.9118800E+02  0.7818608E-02  0.1130116E+00
         25   -1    0    0    0    0  0.00000000000E+00  0.00000000000E+00  0.99999998245E-14  0.12500000000E+03  0.12500000000E+03 0.  0.
        -11    1    1    0    0    0  0.72207981848E+01 -0.15145664414E+00  0.13032309064E+01  0.73390242265E+01  0.51100000000E-03 0. -1.
         11    1    1    0    0    0  0.54260096689E+02 -0.38471822404E+00  0.99227748115E+01  0.55161286796E+02  0.51100000000E-03 0.  1.
         22    1    1    0    0    0 -0.61480894873E+02  0.53617486819E+00 -0.11226005718E+02  0.62499688978E+02  0.00000000000E+00 0.  1.
</event>
<event>
 4    1  0.1956828E-002  0.9118800E+02  0.7818608E-02  0.1130116E+00
         25   -1    0    0    0    0  0.00000000000E+00  0.00000000000E+00  0.99999998245E-14  0.12500000000E+03  0.12500000000E+03 0.  0.
        -11    1    1    0    0    0  0.25460351864E+01  0.18427813865E+02  0.34349221106E+02  0.39063225800E+02  0.51100000000E-03 0.  1.
         11    1    1    0    0    0  0.16519008245E+01  0.11101555871E+02  0.20574617907E+02  0.23436898715E+02  0.51100000000E-03 0. -1.
         22    1    1    0    0    0 -0.41979360109E+01 -0.29529369736E+02 -0.54923839013E+02  0.62499875485E+02  0.00000000000E+00 0.  1.
</event>
<event>
 4    1  0.1956828E-002  0.9118800E+02  0.7818608E-02  0.1130116E+00
         25   -1    0    0    0    0  0.00000000000E+00  0.00000000000E+00  0.99999998245E-14  0.12500000000E+03  0.12500000000E+03 0.  0.
        -11    1    1    0    0    0  0.90508194509E+01  0.17140016759E+02 -0.98333734731E+00  0.19407845317E+02  0.51100000000E-03 0.  1.
         11    1    1    0    0    0  0.20108555202E+02  0.38042777820E+02 -0.23085379003E+01  0.43092183561E+02  0.51100000000E-03 0. -1.
         22    1    1    0    0    0 -0.29159374652E+02 -0.55182794579E+02  0.32918752476E+01  0.62499971122E+02  0.00000000000E+00 0.  1.
</event>
<event>
 4    1  0.1956828E-002  0.9118800E+02  0.7818608E-02  0.1130116E+00
         25   -1    0    0    0    0  0.00000000000E+00  0.00000000000E+00  0.99999998245E-14  0.12500000000E+03  0.12500000000E+03 0.  0.
        -11    1    1    0    0    0 -0.82077793245E+01 -0.11602757294E+02 -0.79722445170E+00  0.14234717607E+02  0.51100000000E-03 0. -1.
         11    1    1    0    0    0 -0.28885918604E+02 -0.38367608801E+02 -0.48830227684E+01  0.48273321932E+02  0.51100000000E-03 0.  1.
         22    1    1    0    0    0  0.37093697929E+02  0.49970366096E+02  0.56802472201E+01  0.62491960461E+02  0.00000000000E+00 0.  1.
</event>
<event>
 4    1  0.1956828E-002  0.9118800E+02  0.7818608E-02  0.1130116E+00
         25   -1    0    0    0    0  0.00000000000E+00  0.00000000000E+00  0.99999998245E-14  0.12500000000E+03  0.12500000000E+03 0.  0.
        -11    1    1    0    0    0  0.47623913596E+01 -0.35115143086E+01 -0.58764119950E+01  0.83392639002E+01  0.51100000000E-03 0. -1.
         11    1    1    0    0    0  0.30933056283E+02 -0.22911288608E+02 -0.38099937569E+02  0.54160745561E+02  0.51100000000E-03 0.  1.
         22    1    1    0    0    0 -0.35695447643E+02  0.26422802917E+02  0.43976349564E+02  0.62499990539E+02  0.00000000000E+00 0.  1.
</event>
<event>
 4    1  0.1956828E-002  0.9118800E+02  0.7818608E-02  0.1130116E+00
         25   -1    0    0    0    0  0.00000000000E+00  0.00000000000E+00  0.99999998245E-14  0.12500000000E+03  0.12500000000E+03 0.  0.
        -11    1    1    0    0    0 -0.11038988976E+02 -0.68833909706E-01  0.51250698226E+02  0.52426120252E+02  0.51100000000E-03 0.  1.
         11    1    1    0    0    0 -0.24758081443E+01  0.48395412036E-01  0.97677086068E+01  0.10076710762E+02  0.51100000000E-03 0. -1.
         22    1    1    0    0    0  0.13514797120E+02  0.20438497671E-01 -0.61018406833E+02  0.62497168987E+02  0.00000000000E+00 0.  1.
</event>
<event>
 4    1  0.1956828E-002  0.9118800E+02  0.7818608E-02  0.1130116E+00
         25   -1    0    0    0    0  0.00000000000E+00  0.00000000000E+00  0.99999998245E-14  0.12500000000E+03  0.12500000000E+03 0.  0.
        -11    1    1    0    0    0 -0.86818637239E+01 -0.19555541810E+02 -0.11783649295E+02  0.24426386638E+02  0.51100000000E-03 0. -1.
         11    1    1    0    0    0 -0.12555743249E+02 -0.30684563958E+02 -0.18725127737E+02  0.38076496200E+02  0.51100000000E-03 0.  1.
         22    1    1    0    0    0  0.21237606973E+02  0.50240105768E+02  0.30508777032E+02  0.62497117162E+02  0.00000000000E+00 0.  1.
</event>
<event>
 4    1  0.1956828E-002  0.9118800E+02  0.7818608E-02  0.1130116E+00
         25   -1    0    0    0    0  0.00000000000E+00  0.00000000000E+00  0.99999998245E-14  0.12500000000E+03  0.12500000000E+03 0.  0.
        -11    1    1    0    0    0 -0.16170749771E+02  0.51243127239E+01 -0.22311277723E+02  0.28027572905E+02  0.51100000000E-03 0.  1.
         11    1    1    0    0    0 -0.19888403260E+02  0.62994866490E+01 -0.27442961143E+02  0.34472427139E+02  0.51100000000E-03 0. -1.
         22    1    1    0    0    0  0.36059153032E+02 -0.11423799373E+02  0.49754238865E+02  0.62499999956E+02  0.00000000000E+00 0.  1.
</event>
<event>
 4    1  0.1956828E-002  0.9118800E+02  0.7818608E-02  0.1130116E+00
         25   -1    0    0    0    0  0.00000000000E+00  0.00000000000E+00  0.99999998245E-14  0.12500000000E+03  0.12500000000E+03 0.  0.
        -11    1    1    0    0    0  0.12785337468E+02 -0.12319932471E+02 -0.19265504873E+02  0.26199337177E+02  0.51100000000E-03 0. -1.
         11    1    1    0    0    0  0.18185720943E+02 -0.17451253099E+02 -0.26126914582E+02  0.36302649308E+02  0.51100000000E-03 0.  1.
         22    1    1    0    0    0 -0.30971058411E+02  0.29771185570E+02  0.45392419455E+02  0.62498013515E+02  0.00000000000E+00 0.  1.
</event>
<event>
 4    1  0.1956828E-002  0.9118800E+02  0.7818608E-02  0.1130116E+00
         25   -1    0    0    0    0  0.00000000000E+00  0.00000000000E+00  0.99999998245E-14  0.12500000000E+03  0.12500000000E+03 0.  0.
        -11    1    1    0    0    0 -0.13642199686E+02  0.80961432487E+01  0.45224985671E+01  0.16495761314E+02  0.51100000000E-03 0. -1.
         11    1    1    0    0    0 -0.40345322893E+02  0.21459040974E+02  0.59116744407E+01  0.46078014430E+02  0.51100000000E-03 0.  1.
         22    1    1    0    0    0  0.53987522578E+02 -0.29555184223E+02 -0.10434173008E+02  0.62426224257E+02  0.00000000000E+00 0.  1.
</event>
<event>
 4    1  0.1956828E-002  0.9118800E+02  0.7818608E-02  0.1130116E+00
         25   -1    0    0    0    0  0.00000000000E+00  0.00000000000E+00  0.99999998245E-14  0.12500000000E+03  0.12500000000E+03 0.  0.
        -11    1    1    0    0    0  0.53624600057E+01 -0.18365891294E+00  0.13679560306E+01  0.55372386504E+01  0.51100000000E-03 0. -1.
         11    1    1    0    0    0  0.55163371467E+02 -0.18690618902E+01  0.14080669698E+02  0.56962761549E+02  0.51100000000E-03 0.  1.
         22    1    1    0    0    0 -0.60525831472E+02  0.20527208031E+01 -0.15448625728E+02  0.62499999800E+02  0.00000000000E+00 0.  1.
</event>
<event>
 4    1  0.1956828E-002  0.9118800E+02  0.7818608E-02  0.1130116E+00
         25   -1    0    0    0    0  0.00000000000E+00  0.00000000000E+00  0.99999998245E-14  0.12500000000E+03  0.12500000000E+03 0.  0.
        -11    1    1    0    0    0  0.43401355364E+01  0.52438654791E+01 -0.72612427856E+01  0.99529165922E+01  0.51100000000E-03 0.  1.
         11    1    1    0    0    0 -0.49268454839E+02  0.46556141540E+00 -0.28874373301E+02  0.57108027662E+02  0.51100000000E-03 0. -1.
         22    1    1    0    0    0  0.44928319302E+02 -0.57094268945E+01  0.36135616087E+02  0.57939055746E+02  0.00000000000E+00 0. -1.
</event>
<event>
 4    1  0.1956828E-002  0.9118800E+02  0.7818608E-02  0.1130116E+00
         25   -1    0    0    0    0  0.00000000000E+00  0.00000000000E+00  0.99999998245E-14  0.12500000000E+03  0.12500000000E+03 0.  0.
        -11    1    1    0    0    0 -0.17131830103E+02 -0.47565208529E+02 -0.12404887647E+01  0.50571607427E+02  0.51100000000E-03 0. -1.
         11    1    1    0    0    0 -0.57234015914E+01 -0.10524927770E+02  0.71195667600E+00  0.12001596265E+02  0.51100000000E-03 0.  1.
         22    1    1    0    0    0  0.22855231694E+02  0.58090136299E+02  0.52853208871E+00  0.62426796308E+02  0.00000000000E+00 0. -1.
</event>
<event>
 4    1  0.1956828E-002  0.9118800E+02  0.7818608E-02  0.1130116E+00
         25   -1    0    0    0    0  0.00000000000E+00  0.00000000000E+00  0.99999998245E-14  0.12500000000E+03  0.12500000000E+03 0.  0.
        -11    1    1    0    0    0 -0.27281593185E+02 -0.42151712562E+02 -0.20125948841E+02  0.54093493284E+02  0.51100000000E-03 0. -1.
         11    1    1    0    0    0 -0.27728211907E+01  0.16415162508E+01  0.20209675559E+02  0.20464948068E+02  0.51100000000E-03 0.  1.
         22    1    1    0    0    0  0.30054414376E+02  0.40510196311E+02 -0.83726717689E-01  0.50441558648E+02  0.00000000000E+00 0. -1.
</event>
<event>
 4    1  0.1956828E-002  0.9118800E+02  0.7818608E-02  0.1130116E+00
         25   -1    0    0    0    0  0.00000000000E+00  0.00000000000E+00  0.99999998245E-14  0.12500000000E+03  0.12500000000E+03 0.  0.
        -11    1    1    0    0    0 -0.55237107239E+02  0.49896230236E+01 -0.17112958693E+01  0.55488403183E+02  0.51100000000E-03 0.  1.
         11    1    1    0    0    0 -0.69816923687E+01  0.59419683476E+00 -0.25839255573E+00  0.70116948867E+01  0.51100000000E-03 0. -1.
         22    1    1    0    0    0  0.62218799607E+02 -0.55838198583E+01  0.19696884250E+01  0.62499901930E+02  0.00000000000E+00 0.  1.
</event>
<event>
 4    1  0.1956828E-002  0.9118800E+02  0.7818608E-02  0.1130116E+00
         25   -1    0    0    0    0  0.00000000000E+00  0.00000000000E+00  0.99999998245E-14  0.12500000000E+03  0.12500000000E+03 0.  0.
        -11    1    1    0    0    0  0.35308348433E+02 -0.39980907203E+02 -0.25370218092E+02  0.59066067891E+02  0.51100000000E-03 0.  1.
         11    1    1    0    0    0  0.20857836407E+01 -0.22653718893E+01 -0.15207361651E+01  0.34343910577E+01  0.51100000000E-03 0. -1.
         22    1    1    0    0    0 -0.37394132073E+02  0.42246279093E+02  0.26890954257E+02  0.62499541051E+02  0.00000000000E+00 0.  1.
</event>
<event>
 4    1  0.1956828E-002  0.9118800E+02  0.7818608E-02  0.1130116E+00
         25   -1    0    0    0    0  0.00000000000E+00  0.00000000000E+00  0.99999998245E-14  0.12500000000E+03  0.12500000000E+03 0.  0.
        -11    1    1    0    0    0  0.13705717185E+02  0.11557315880E+02  0.91079940512E+01  0.20109047462E+02  0.51100000000E-03 0.  1.
         11    1    1    0    0    0  0.29541556580E+02  0.24433817352E+02  0.18098116859E+02  0.42394065973E+02  0.51100000000E-03 0. -1.
         22    1    1    0    0    0 -0.43247273766E+02 -0.35991133233E+02 -0.27206110910E+02  0.62496886566E+02  0.00000000000E+00 0. -1.
</event>
<event>
 4    1  0.1956828E-002  0.9118800E+02  0.7818608E-02  0.1130116E+00
         25   -1    0    0    0    0  0.00000000000E+00  0.00000000000E+00  0.99999998245E-14  0.12500000000E+03  0.12500000000E+03 0.  0.
        -11    1    1    0    0    0  0.16769547332E+02  0.16635865646E+02  0.29108861684E+02  0.37487272137E+02  0.51100000000E-03 0.  1.
         11    1    1    0    0    0  0.11182635413E+02  0.11123663230E+02  0.19412613070E+02  0.25012732056E+02  0.51100000000E-03 0. -1.
         22    1    1    0    0    0 -0.27952182745E+02 -0.27759528876E+02 -0.48521474754E+02  0.62499995807E+02  0.00000000000E+00 0.  1.
</event>
<event>
 4    1  0.1956828E-002  0.9118800E+02  0.7818608E-02  0.1130116E+00
         25   -1    0    0    0    0  0.00000000000E+00  0.00000000000E+00  0.99999998245E-14  0.12500000000E+03  0.12500000000E+03 0.  0.
        -11    1    1    0    0    0 -0.24423018098E+02  0.52441001853E+02  0.19647621928E+02  0.61094775031E+02  0.51100000000E-03 0.  1.
         11    1    1    0    0    0 -0.19460964768E+01 -0.64132890444E+01  0.13814614584E+01  0.68429528631E+01  0.51100000000E-03 0. -1.
         22    1    1    0    0    0  0.26369114575E+02 -0.46027712809E+02 -0.21029083386E+02  0.57062272106E+02  0.00000000000E+00 0.  1.
</event>
<event>
 4    1  0.1956828E-002  0.9118800E+02  0.7818608E-02  0.1130116E+00
         25   -1    0    0    0    0  0.00000000000E+00  0.00000000000E+00  0.99999998245E-14  0.12500000000E+03  0.12500000000E+03 0.  0.
        -11    1    1    0    0    0  0.73728629357E+00 -0.37155549945E+01 -0.24430381884E+02  0.24722307725E+02  0.51100000000E-03 0.  1.
         11    1    1    0    0    0 -0.11161531345E+02 -0.52290952318E+01 -0.36132356794E+02  0.38176831019E+02  0.51100000000E-03 0. -1.
         22    1    1    0    0    0  0.10424245051E+02  0.89446502263E+01  0.60562738678E+02  0.62100861256E+02  0.00000000000E+00 0.  1.
</event>
<event>
 4    1  0.1956828E-002  0.9118800E+02  0.7818608E-02  0.1130116E+00
         25   -1    0    0    0    0  0.00000000000E+00  0.00000000000E+00  0.99999998245E-14  0.12500000000E+03  0.12500000000E+03 0.  0.
        -11    1    1    0    0    0  0.25424582851E+01 -0.74032727862E+01 -0.45908049189E+01  0.90745816511E+01  0.51100000000E-03 0. -1.
         11    1    1    0    0    0  0.15097126869E+02 -0.43452415569E+02 -0.27170639385E+02  0.53425455575E+02  0.51100000000E-03 0.  1.
         22    1    1    0    0    0 -0.17639585154E+02  0.50855688355E+02  0.31761444304E+02  0.62499962774E+02  0.00000000000E+00 0.  1.
</event>
<event>
 4    1  0.1956828E-002  0.9118800E+02  0.7818608E-02  0.1130116E+00
         25   -1    0    0    0    0  0.00000000000E+00  0.00000000000E+00  0.99999998245E-14  0.12500000000E+03  0.12500000000E+03 0.  0.
        -11    1    1    0    0    0 -0.24397753501E+01 -0.13224885641E+02  0.10062565068E+02  0.16795991188E+02  0.51100000000E-03 0. -1.
         11    1    1    0    0    0 -0.51203662506E+01 -0.34619340652E+02  0.29415241776E+02  0.45716226296E+02  0.51100000000E-03 0.  1.
         22    1    1    0    0    0  0.75601416007E+01  0.47844226293E+02 -0.39477806844E+02  0.62487782516E+02  0.00000000000E+00 0.  1.
</event>
<event>
 4    1  0.1956828E-002  0.9118800E+02  0.7818608E-02  0.1130116E+00
         25   -1    0    0    0    0  0.00000000000E+00  0.00000000000E+00  0.99999998245E-14  0.12500000000E+03  0.12500000000E+03 0.  0.
        -11    1    1    0    0    0  0.14017844105E+02  0.23224430603E+02  0.26756283216E+02  0.38102136711E+02  0.51100000000E-03 0. -1.
         11    1    1    0    0    0  0.90387122231E+01  0.14814608315E+02  0.17148966461E+02  0.24397909523E+02  0.51100000000E-03 0.  1.
         22    1    1    0    0    0 -0.23056556328E+02 -0.38039038918E+02 -0.43905249677E+02  0.62499953765E+02  0.00000000000E+00 0. -1.
</event>
<event>
 4    1  0.1956828E-002  0.9118800E+02  0.7818608E-02  0.1130116E+00
         25   -1    0    0    0    0  0.00000000000E+00  0.00000000000E+00  0.99999998245E-14  0.12500000000E+03  0.12500000000E+03 0.  0.
        -11    1    1    0    0    0 -0.16074130102E+02  0.34732713911E+02 -0.38172986374E+02  0.54054749682E+02  0.51100000000E-03 0. -1.
         11    1    1    0    0    0 -0.25138350876E+01  0.54295565615E+01 -0.59601019098E+01  0.84452511116E+01  0.51100000000E-03 0.  1.
         22    1    1    0    0    0  0.18587965189E+02 -0.40162270473E+02  0.44133088284E+02  0.62499999207E+02  0.00000000000E+00 0. -1.
</event>
<event>
 4    1  0.1956828E-002  0.9118800E+02  0.7818608E-02  0.1130116E+00
         25   -1    0    0    0    0  0.00000000000E+00  0.00000000000E+00  0.99999998245E-14  0.12500000000E+03  0.12500000000E+03 0.  0.
        -11    1    1    0    0    0  0.24606523844E+00  0.19295497500E+01 -0.15893196625E+01  0.25119011904E+01  0.51100000000E-03 0. -1.
         11    1    1    0    0    0 -0.22971020277E+02  0.45320469335E+02 -0.32161914559E+02  0.60133197667E+02  0.51100000000E-03 0.  1.
         22    1    1    0    0    0  0.22724955039E+02 -0.47250019085E+02  0.33751234222E+02  0.62354901143E+02  0.00000000000E+00 0.  1.
</event>
<event>
 4    1  0.1956828E-002  0.9118800E+02  0.7818608E-02  0.1130116E+00
         25   -1    0    0    0    0  0.00000000000E+00  0.00000000000E+00  0.99999998245E-14  0.12500000000E+03  0.12500000000E+03 0.  0.
        -11    1    1    0    0    0 -0.20665242573E+02 -0.88916734866E+01  0.17793105795E+02  0.28682899471E+02  0.51100000000E-03 0. -1.
         11    1    1    0    0    0 -0.24363477772E+02 -0.10483739125E+02  0.20978761959E+02  0.33817100538E+02  0.51100000000E-03 0. -1.
         22    1    1    0    0    0  0.45028720345E+02  0.19375412612E+02 -0.38771867754E+02  0.62499999991E+02  0.00000000000E+00 0. -1.
</event>
<event>
 4    1  0.1956828E-002  0.9118800E+02  0.7818608E-02  0.1130116E+00
         25   -1    0    0    0    0  0.00000000000E+00  0.00000000000E+00  0.99999998245E-14  0.12500000000E+03  0.12500000000E+03 0.  0.
        -11    1    1    0    0    0 -0.33386072824E+02 -0.10390184895E+02  0.19717252740E+02  0.40141697231E+02  0.51100000000E-03 0. -1.
         11    1    1    0    0    0 -0.18594688465E+02 -0.44996370191E+01  0.11599105429E+02  0.22372939445E+02  0.51100000000E-03 0.  1.
         22    1    1    0    0    0  0.51980761289E+02  0.14889821914E+02 -0.31316358168E+02  0.62485363324E+02  0.00000000000E+00 0. -1.
</event>
<event>
 4    1  0.1956828E-002  0.9118800E+02  0.7818608E-02  0.1130116E+00
         25   -1    0    0    0    0  0.00000000000E+00  0.00000000000E+00  0.99999998245E-14  0.12500000000E+03  0.12500000000E+03 0.  0.
        -11    1    1    0    0    0 -0.57359563823E+01 -0.17269160617E+01 -0.83552401049E+01  0.10280733056E+02  0.51100000000E-03 0.  1.
         11    1    1    0    0    0 -0.29167129002E+02 -0.87818647712E+01 -0.42414731176E+02  0.52219268322E+02  0.51100000000E-03 0. -1.
         22    1    1    0    0    0  0.34903085384E+02  0.10508780833E+02  0.50769971281E+02  0.62499998622E+02  0.00000000000E+00 0. -1.
</event>
<event>
 4    1  0.1956828E-002  0.9118800E+02  0.7818608E-02  0.1130116E+00
         25   -1    0    0    0    0  0.00000000000E+00  0.00000000000E+00  0.99999998245E-14  0.12500000000E+03  0.12500000000E+03 0.  0.
        -11    1    1    0    0    0  0.15381997324E+02 -0.85057204320E+00 -0.32346653902E+01  0.15741422265E+02  0.51100000000E-03 0.  1.
         11    1    1    0    0    0  0.45691687187E+02 -0.25211361769E+01 -0.96061537954E+01  0.46758577787E+02  0.51100000000E-03 0. -1.
         22    1    1    0    0    0 -0.61073684512E+02  0.33717082201E+01  0.12840819186E+02  0.62499999948E+02  0.00000000000E+00 0. -1.
</event>
<event>
 4    1  0.1956828E-002  0.9118800E+02  0.7818608E-02  0.1130116E+00
         25   -1    0    0    0    0  0.00000000000E+00  0.00000000000E+00  0.99999998245E-14  0.12500000000E+03  0.12500000000E+03 0.  0.
        -11    1    1    0    0    0  0.38592659551E+02  0.27225516010E+02 -0.17338227623E+02  0.50311392653E+02  0.51100000000E-03 0.  1.
         11    1    1    0    0    0  0.93486807016E+01  0.65982054930E+01 -0.41985719621E+01  0.12188607524E+02  0.51100000000E-03 0. -1.
         22    1    1    0    0    0 -0.47941340253E+02 -0.33823721503E+02  0.21536799585E+02  0.62499999824E+02  0.00000000000E+00 0.  1.
</event>
<event>
 4    1  0.1956828E-002  0.9118800E+02  0.7818608E-02  0.1130116E+00
         25   -1    0    0    0    0  0.00000000000E+00  0.00000000000E+00  0.99999998245E-14  0.12500000000E+03  0.12500000000E+03 0.  0.
        -11    1    1    0    0    0  0.46602656331E+02  0.61910131898E+01 -0.24984943157E+02  0.53238929424E+02  0.51100000000E-03 0. -1.
         11    1    1    0    0    0  0.81044659195E+01  0.10852749738E+01 -0.43482492906E+01  0.92610723873E+01  0.51100000000E-03 0.  1.
         22    1    1    0    0    0 -0.54707122250E+02 -0.72762881635E+01  0.29333192448E+02  0.62499998188E+02  0.00000000000E+00 0.  1.
</event>
<event>
 4    1  0.1956828E-002  0.9118800E+02  0.7818608E-02  0.1130116E+00
         25   -1    0    0    0    0  0.00000000000E+00  0.00000000000E+00  0.99999998245E-14  0.12500000000E+03  0.12500000000E+03 0.  0.
        -11    1    1    0    0    0  0.41098617019E+01  0.29934076407E+01 -0.92084341947E+01  0.10518874136E+02  0.51100000000E-03 0. -1.
         11    1    1    0    0    0  0.20381267405E+02  0.14804741425E+02 -0.45469347580E+02  0.51981131185E+02  0.51100000000E-03 0.  1.
         22    1    1    0    0    0 -0.24491129107E+02 -0.17798149066E+02  0.54677781774E+02  0.62499994679E+02  0.00000000000E+00 0.  1.
</event>
<event>
 4    1  0.1956828E-002  0.9118800E+02  0.7818608E-02  0.1130116E+00
         25   -1    0    0    0    0  0.00000000000E+00  0.00000000000E+00  0.99999998245E-14  0.12500000000E+03  0.12500000000E+03 0.  0.
        -11    1    1    0    0    0 -0.63909819515E+01  0.18094644260E+02 -0.72697359529E+01  0.20520961534E+02  0.51100000000E-03 0. -1.
         11    1    1    0    0    0 -0.37622713244E+02  0.52391796518E+01  0.31252959661E+02  0.49190090904E+02  0.51100000000E-03 0.  1.
         22    1    1    0    0    0  0.44013695195E+02 -0.23333823912E+02 -0.23983223708E+02  0.55288947562E+02  0.00000000000E+00 0.  1.
</event>
<event>
 4    1  0.1956828E-002  0.9118800E+02  0.7818608E-02  0.1130116E+00
         25   -1    0    0    0    0  0.00000000000E+00  0.00000000000E+00  0.99999998245E-14  0.12500000000E+03  0.12500000000E+03 0.  0.
        -11    1    1    0    0    0  0.18950166640E+02  0.34071500107E+02 -0.99249297289E+01  0.40230338870E+02  0.51100000000E-03 0. -1.
         11    1    1    0    0    0  0.10511764513E+02  0.18849548100E+02 -0.54895671600E+01  0.22269665570E+02  0.51100000000E-03 0.  1.
         22    1    1    0    0    0 -0.29461931153E+02 -0.52921048207E+02  0.15414496889E+02  0.62499995559E+02  0.00000000000E+00 0. -1.
</event>
<event>
 4    1  0.1956828E-002  0.9118800E+02  0.7818608E-02  0.1130116E+00
         25   -1    0    0    0    0  0.00000000000E+00  0.00000000000E+00  0.99999998245E-14  0.12500000000E+03  0.12500000000E+03 0.  0.
        -11    1    1    0    0    0  0.26788382614E+02  0.36865151617E+02 -0.19146727944E+02  0.49429283204E+02  0.51100000000E-03 0.  1.
         11    1    1    0    0    0  0.80055965526E+01  0.98462079404E+01 -0.33606589775E+01  0.13127506084E+02  0.51100000000E-03 0. -1.
         22    1    1    0    0    0 -0.34793979167E+02 -0.46711359557E+02  0.22507386922E+02  0.62443210712E+02  0.00000000000E+00 0.  1.
</event>
<event>
 4    1  0.1956828E-002  0.9118800E+02  0.7818608E-02  0.1130116E+00
         25   -1    0    0    0    0  0.00000000000E+00  0.00000000000E+00  0.99999998245E-14  0.12500000000E+03  0.12500000000E+03 0.  0.
        -11    1    1    0    0    0  0.10673066425E+02  0.41658331051E+02 -0.17415180933E+02  0.46396329812E+02  0.51100000000E-03 0.  1.
         11    1    1    0    0    0  0.95287858039E+01  0.13559854638E+02 -0.19771756897E+01  0.16690615347E+02  0.51100000000E-03 0. -1.
         22    1    1    0    0    0 -0.20201852229E+02 -0.55218185689E+02  0.19392356623E+02  0.61913054840E+02  0.00000000000E+00 0.  1.
</event>
<event>
 4    1  0.1956828E-002  0.9118800E+02  0.7818608E-02  0.1130116E+00
         25   -1    0    0    0    0  0.00000000000E+00  0.00000000000E+00  0.99999998245E-14  0.12500000000E+03  0.12500000000E+03 0.  0.
        -11    1    1    0    0    0 -0.33193676054E+02 -0.12699887184E+02 -0.33232068470E+01  0.35695251343E+02  0.51100000000E-03 0.  1.
         11    1    1    0    0    0 -0.25898551613E+02 -0.70330431151E+01  0.30029477280E+01  0.27004006489E+02  0.51100000000E-03 0. -1.
         22    1    1    0    0    0  0.59092227667E+02  0.19732930299E+02  0.32025911903E+00  0.62300742168E+02  0.00000000000E+00 0.  1.
</event>
<event>
 4    1  0.1956828E-002  0.9118800E+02  0.7818608E-02  0.1130116E+00
         25   -1    0    0    0    0  0.00000000000E+00  0.00000000000E+00  0.99999998245E-14  0.12500000000E+03  0.12500000000E+03 0.  0.
        -11    1    1    0    0    0  0.31934426799E+02 -0.28423361271E+02 -0.20600301549E+02  0.47455953316E+02  0.51100000000E-03 0.  1.
         11    1    1    0    0    0  0.11665264682E+02 -0.77811443846E+01 -0.56122384870E+01  0.15103702498E+02  0.51100000000E-03 0. -1.
         22    1    1    0    0    0 -0.43599691481E+02  0.36204505656E+02  0.26212540036E+02  0.62440344187E+02  0.00000000000E+00 0.  1.
</event>
<event>
 4    1  0.1956828E-002  0.9118800E+02  0.7818608E-02  0.1130116E+00
         25   -1    0    0    0    0  0.00000000000E+00  0.00000000000E+00  0.99999998245E-14  0.12500000000E+03  0.12500000000E+03 0.  0.
        -11    1    1    0    0    0 -0.12556570278E+02 -0.49073538541E+01  0.13868942585E+02  0.19341591137E+02  0.51100000000E-03 0.  1.
         11    1    1    0    0    0 -0.28018496297E+02 -0.10964247791E+02  0.30941839409E+02  0.43158409269E+02  0.51100000000E-03 0. -1.
         22    1    1    0    0    0  0.40575066576E+02  0.15871601645E+02 -0.44810781994E+02  0.62499999594E+02  0.00000000000E+00 0. -1.
</event>
<event>
 4    1  0.1956828E-002  0.9118800E+02  0.7818608E-02  0.1130116E+00
         25   -1    0    0    0    0  0.00000000000E+00  0.00000000000E+00  0.99999998245E-14  0.12500000000E+03  0.12500000000E+03 0.  0.
        -11    1    1    0    0    0  0.41052966719E+00  0.12405317453E+01  0.37935515382E+00  0.13606484530E+01  0.51100000000E-03 0. -1.
         11    1    1    0    0    0  0.19371784252E+02  0.55541086718E+02  0.16671930042E+02  0.61139443819E+02  0.51100000000E-03 0.  1.
         22    1    1    0    0    0 -0.19782313919E+02 -0.56781618463E+02 -0.17051285195E+02  0.62499907728E+02  0.00000000000E+00 0.  1.
</event>
<event>
 4    1  0.1956828E-002  0.9118800E+02  0.7818608E-02  0.1130116E+00
         25   -1    0    0    0    0  0.00000000000E+00  0.00000000000E+00  0.99999998245E-14  0.12500000000E+03  0.12500000000E+03 0.  0.
        -11    1    1    0    0    0 -0.36989863553E+01  0.78373747409E+01  0.66452962326E+01  0.10920938841E+02  0.51100000000E-03 0. -1.
         11    1    1    0    0    0 -0.17486568290E+02  0.37007646209E+02  0.31385564055E+02  0.51579061448E+02  0.51100000000E-03 0.  1.
         22    1    1    0    0    0  0.21185554645E+02 -0.44845020950E+02 -0.38030860288E+02  0.62499999711E+02  0.00000000000E+00 0.  1.
</event>
<event>
 4    1  0.1956828E-002  0.9118800E+02  0.7818608E-02  0.1130116E+00
         25   -1    0    0    0    0  0.00000000000E+00  0.00000000000E+00  0.99999998245E-14  0.12500000000E+03  0.12500000000E+03 0.  0.
        -11    1    1    0    0    0 -0.25303247271E+01  0.15272726980E+01 -0.12356152285E+01  0.32034123013E+01  0.51100000000E-03 0. -1.
         11    1    1    0    0    0 -0.47000880371E+02  0.28138513177E+02 -0.22698646100E+02  0.59296603735E+02  0.51100000000E-03 0.  1.
         22    1    1    0    0    0  0.49531205098E+02 -0.29665785875E+02  0.23934261329E+02  0.62499983963E+02  0.00000000000E+00 0.  1.
</event>
<event>
 4    1  0.1956828E-002  0.9118800E+02  0.7818608E-02  0.1130116E+00
         25   -1    0    0    0    0  0.00000000000E+00  0.00000000000E+00  0.99999998245E-14  0.12500000000E+03  0.12500000000E+03 0.  0.
        -11    1    1    0    0    0 -0.51834074469E+02 -0.30536388647E+02 -0.16789602319E+02  0.62459051017E+02  0.51100000000E-03 0.  1.
         11    1    1    0    0    0 -0.35618256520E-01 -0.19905899204E-01 -0.53817046165E-02  0.41159796965E-01  0.51100000000E-03 0. -1.
         22    1    1    0    0    0  0.51869692726E+02  0.30556294546E+02  0.16794984024E+02  0.62499789186E+02  0.00000000000E+00 0.  1.
</event>
<event>
 4    1  0.1956828E-002  0.9118800E+02  0.7818608E-02  0.1130116E+00
         25   -1    0    0    0    0  0.00000000000E+00  0.00000000000E+00  0.99999998245E-14  0.12500000000E+03  0.12500000000E+03 0.  0.
        -11    1    1    0    0    0 -0.37879724990E+02 -0.13493924366E+01 -0.35154918409E+02  0.51696834660E+02  0.51100000000E-03 0. -1.
         11    1    1    0    0    0 -0.79591275252E+01 -0.50540614975E+00 -0.72888972727E+01  0.10804220011E+02  0.51100000000E-03 0.  1.
         22    1    1    0    0    0  0.45838852515E+02  0.18547985863E+01  0.42443815681E+02  0.62498945329E+02  0.00000000000E+00 0. -1.
</event>
<event>
 4    1  0.1956828E-002  0.9118800E+02  0.7818608E-02  0.1130116E+00
         25   -1    0    0    0    0  0.00000000000E+00  0.00000000000E+00  0.99999998245E-14  0.12500000000E+03  0.12500000000E+03 0.  0.
        -11    1    1    0    0    0  0.52229923546E+01  0.26472779276E+01  0.15105541386E+02  0.16200774993E+02  0.51100000000E-03 0. -1.
         11    1    1    0    0    0  0.14720673820E+02  0.76216514830E+01  0.43230045166E+02  0.46299293886E+02  0.51100000000E-03 0.  1.
         22    1    1    0    0    0 -0.19943666174E+02 -0.10268929411E+02 -0.58335586552E+02  0.62499931121E+02  0.00000000000E+00 0. -1.
</event>
<event>
 4    1  0.1956828E-002  0.9118800E+02  0.7818608E-02  0.1130116E+00
         25   -1    0    0    0    0  0.00000000000E+00  0.00000000000E+00  0.99999998245E-14  0.12500000000E+03  0.12500000000E+03 0.  0.
        -11    1    1    0    0    0  0.24291254316E-01 -0.13409143608E+00  0.96397731197E-01  0.16692322177E+00  0.51100000000E-03 0. -1.
         11    1    1    0    0    0  0.11922702893E+02 -0.39478206808E+02  0.46744495462E+02  0.62335603898E+02  0.51100000000E-03 0.  1.
         22    1    1    0    0    0 -0.11946994148E+02  0.39612298244E+02 -0.46840893193E+02  0.62497472881E+02  0.00000000000E+00 0.  1.
</event>
<event>
 4    1  0.1956828E-002  0.9118800E+02  0.7818608E-02  0.1130116E+00
         25   -1    0    0    0    0  0.00000000000E+00  0.00000000000E+00  0.99999998245E-14  0.12500000000E+03  0.12500000000E+03 0.  0.
        -11    1    1    0    0    0 -0.35417890979E+01  0.18809719053E+02  0.47815208477E+01  0.19728475429E+02  0.51100000000E-03 0.  1.
         11    1    1    0    0    0 -0.76758549335E+01  0.40779284943E+02  0.10369883704E+02  0.42771524613E+02  0.51100000000E-03 0. -1.
         22    1    1    0    0    0  0.11217644031E+02 -0.59589003996E+02 -0.15151404552E+02  0.62499999958E+02  0.00000000000E+00 0. -1.
</event>
<event>
 4    1  0.1956828E-002  0.9118800E+02  0.7818608E-02  0.1130116E+00
         25   -1    0    0    0    0  0.00000000000E+00  0.00000000000E+00  0.99999998245E-14  0.12500000000E+03  0.12500000000E+03 0.  0.
        -11    1    1    0    0    0 -0.80508887618E+01  0.66193180181E+00  0.58428159830E+01  0.99696269959E+01  0.51100000000E-03 0. -1.
         11    1    1    0    0    0 -0.37962621113E+02 -0.22853906532E+02  0.29212577906E+02  0.53073876378E+02  0.51100000000E-03 0.  1.
         22    1    1    0    0    0  0.46013509875E+02  0.22191974731E+02 -0.35055393889E+02  0.61956496626E+02  0.00000000000E+00 0.  1.
</event>
<event>
 4    1  0.1956828E-002  0.9118800E+02  0.7818608E-02  0.1130116E+00
         25   -1    0    0    0    0  0.00000000000E+00  0.00000000000E+00  0.99999998245E-14  0.12500000000E+03  0.12500000000E+03 0.  0.
        -11    1    1    0    0    0 -0.24595919883E+02  0.13772409704E+02  0.21618247879E+02  0.35524458977E+02  0.51100000000E-03 0. -1.
         11    1    1    0    0    0 -0.18609034349E+02  0.10492488781E+02  0.16471000109E+02  0.26975587576E+02  0.51100000000E-03 0.  1.
         22    1    1    0    0    0  0.43204954232E+02 -0.24264898485E+02 -0.38089247988E+02  0.62499953448E+02  0.00000000000E+00 0. -1.
</event>
<event>
 4    1  0.1956828E-002  0.9118800E+02  0.7818608E-02  0.1130116E+00
         25   -1    0    0    0    0  0.00000000000E+00  0.00000000000E+00  0.99999998245E-14  0.12500000000E+03  0.12500000000E+03 0.  0.
        -11    1    1    0    0    0 -0.31523301937E+02 -0.42754020771E+02  0.23288633034E+01  0.53169995878E+02  0.51100000000E-03 0.  1.
         11    1    1    0    0    0 -0.31208141837E+01 -0.89907580761E+01 -0.59267029738E-01  0.95171805066E+01  0.51100000000E-03 0. -1.
         22    1    1    0    0    0  0.34644116121E+02  0.51744778847E+02 -0.22695962737E+01  0.62312823616E+02  0.00000000000E+00 0.  1.
</event>
<event>
 4    1  0.1956828E-002  0.9118800E+02  0.7818608E-02  0.1130116E+00
         25   -1    0    0    0    0  0.00000000000E+00  0.00000000000E+00  0.99999998245E-14  0.12500000000E+03  0.12500000000E+03 0.  0.
        -11    1    1    0    0    0  0.28705960101E+00  0.16903701906E+02  0.33129561062E+02  0.37193888715E+02  0.51100000000E-03 0.  1.
         11    1    1    0    0    0  0.19550005871E+00  0.11504305916E+02  0.22539121490E+02  0.25306111370E+02  0.51100000000E-03 0. -1.
         22    1    1    0    0    0 -0.48255965971E+00 -0.28408007822E+02 -0.55668682552E+02  0.62499999915E+02  0.00000000000E+00 0. -1.
</event>
<event>
 4    1  0.1956828E-002  0.9118800E+02  0.7818608E-02  0.1130116E+00
         25   -1    0    0    0    0  0.00000000000E+00  0.00000000000E+00  0.99999998245E-14  0.12500000000E+03  0.12500000000E+03 0.  0.
        -11    1    1    0    0    0 -0.39057900667E+02  0.36650623231E+02  0.26839583055E+02  0.59909523505E+02  0.51100000000E-03 0. -1.
         11    1    1    0    0    0 -0.16899548274E+01  0.15856521899E+01  0.11577274742E+01  0.25904774370E+01  0.51100000000E-03 0.  1.
         22    1    1    0    0    0  0.40747855494E+02 -0.38236275421E+02 -0.27997310529E+02  0.62499999058E+02  0.00000000000E+00 0. -1.
</event>
<event>
 4    1  0.1956828E-002  0.9118800E+02  0.7818608E-02  0.1130116E+00
         25   -1    0    0    0    0  0.00000000000E+00  0.00000000000E+00  0.99999998245E-14  0.12500000000E+03  0.12500000000E+03 0.  0.
        -11    1    1    0    0    0 -0.51572540568E+01 -0.29734675039E+02  0.26245541298E+02  0.39994707242E+02  0.51100000000E-03 0.  1.
         11    1    1    0    0    0 -0.29231006436E+01 -0.16729781953E+02  0.14766794679E+02  0.22505295975E+02  0.51100000000E-03 0. -1.
         22    1    1    0    0    0  0.80803547004E+01  0.46464456992E+02 -0.41012335977E+02  0.62499996783E+02  0.00000000000E+00 0. -1.
</event>
<event>
 4    1  0.1956828E-002  0.9118800E+02  0.7818608E-02  0.1130116E+00
         25   -1    0    0    0    0  0.00000000000E+00  0.00000000000E+00  0.99999998245E-14  0.12500000000E+03  0.12500000000E+03 0.  0.
        -11    1    1    0    0    0  0.19149993642E+02 -0.10162650345E+02  0.31957819601E+02  0.38617404786E+02  0.51100000000E-03 0. -1.
         11    1    1    0    0    0  0.11834942522E+02 -0.62918681641E+01  0.19766763070E+02  0.23882596006E+02  0.51100000000E-03 0.  1.
         22    1    1    0    0    0 -0.30984936164E+02  0.16454518509E+02 -0.51724582670E+02  0.62499999207E+02  0.00000000000E+00 0.  1.
</event>
<event>
 4    1  0.1956828E-002  0.9118800E+02  0.7818608E-02  0.1130116E+00
         25   -1    0    0    0    0  0.00000000000E+00  0.00000000000E+00  0.99999998245E-14  0.12500000000E+03  0.12500000000E+03 0.  0.
        -11    1    1    0    0    0  0.17437217665E+01 -0.71996409789E+00 -0.12711717584E+02  0.12850940748E+02  0.51100000000E-03 0. -1.
         11    1    1    0    0    0  0.67340841839E+01 -0.27788314411E+01 -0.49111702196E+02  0.49649059274E+02  0.51100000000E-03 0.  1.
         22    1    1    0    0    0 -0.84778059504E+01  0.34987955390E+01  0.61823419780E+02  0.62499999978E+02  0.00000000000E+00 0.  1.
</event>
<event>
 4    1  0.1956828E-002  0.9118800E+02  0.7818608E-02  0.1130116E+00
         25   -1    0    0    0    0  0.00000000000E+00  0.00000000000E+00  0.99999998245E-14  0.12500000000E+03  0.12500000000E+03 0.  0.
        -11    1    1    0    0    0  0.32291197066E+02  0.46720428095E+02 -0.10987108662E+02  0.57846662534E+02  0.51100000000E-03 0.  1.
         11    1    1    0    0    0  0.25946011717E+01  0.37618046333E+01 -0.87775109893E+00  0.46533403692E+01  0.51100000000E-03 0. -1.
         22    1    1    0    0    0 -0.34885798238E+02 -0.50482232728E+02  0.11864859761E+02  0.62499997097E+02  0.00000000000E+00 0.  1.
</event>
<event>
 4    1  0.1956828E-002  0.9118800E+02  0.7818608E-02  0.1130116E+00
         25   -1    0    0    0    0  0.00000000000E+00  0.00000000000E+00  0.99999998245E-14  0.12500000000E+03  0.12500000000E+03 0.  0.
        -11    1    1    0    0    0  0.29093950115E+01  0.57232880611E+02 -0.10243578127E+02  0.58215101954E+02  0.51100000000E-03 0. -1.
         11    1    1    0    0    0  0.22011995145E+00  0.42133452411E+01 -0.74809971830E+00  0.42849019082E+01  0.51100000000E-03 0.  1.
         22    1    1    0    0    0 -0.31295149629E+01 -0.61446225852E+02  0.10991677846E+02  0.62499996138E+02  0.00000000000E+00 0. -1.
</event>
<event>
 4    1  0.1956828E-002  0.9118800E+02  0.7818608E-02  0.1130116E+00
         25   -1    0    0    0    0  0.00000000000E+00  0.00000000000E+00  0.99999998245E-14  0.12500000000E+03  0.12500000000E+03 0.  0.
        -11    1    1    0    0    0  0.23342613809E+02  0.71929849460E+01  0.12475875307E+02  0.27427433654E+02  0.51100000000E-03 0. -1.
         11    1    1    0    0    0  0.29847729234E+02  0.91975194354E+01  0.15956303090E+02  0.35072566384E+02  0.51100000000E-03 0.  1.
         22    1    1    0    0    0 -0.53190343043E+02 -0.16390504381E+02 -0.28432178397E+02  0.62499999963E+02  0.00000000000E+00 0.  1.
</event>
<event>
 4    1  0.1956828E-002  0.9118800E+02  0.7818608E-02  0.1130116E+00
         25   -1    0    0    0    0  0.00000000000E+00  0.00000000000E+00  0.99999998245E-14  0.12500000000E+03  0.12500000000E+03 0.  0.
        -11    1    1    0    0    0  0.25328885435E+02 -0.12966112054E+02 -0.49210590206E+01  0.28877141848E+02  0.51100000000E-03 0. -1.
         11    1    1    0    0    0  0.29537270404E+02 -0.15016102071E+02 -0.57065792078E+01  0.33622889686E+02  0.51100000000E-03 0.  1.
         22    1    1    0    0    0 -0.54866155839E+02  0.27982214125E+02  0.10627638228E+02  0.62499968466E+02  0.00000000000E+00 0. -1.
</event>
<event>
 4    1  0.1956828E-002  0.9118800E+02  0.7818608E-02  0.1130116E+00
         25   -1    0    0    0    0  0.00000000000E+00  0.00000000000E+00  0.99999998245E-14  0.12500000000E+03  0.12500000000E+03 0.  0.
        -11    1    1    0    0    0 -0.40876924130E+02  0.27756862465E+01  0.11480058900E+02  0.42549020119E+02  0.51100000000E-03 0. -1.
         11    1    1    0    0    0 -0.19167189632E+02  0.13024144268E+01  0.53818358518E+01  0.19950979904E+02  0.51100000000E-03 0.  1.
         22    1    1    0    0    0  0.60044113762E+02 -0.40781006734E+01 -0.16861894751E+02  0.62499999977E+02  0.00000000000E+00 0. -1.
</event>
<event>
 4    1  0.1956828E-002  0.9118800E+02  0.7818608E-02  0.1130116E+00
         25   -1    0    0    0    0  0.00000000000E+00  0.00000000000E+00  0.99999998245E-14  0.12500000000E+03  0.12500000000E+03 0.  0.
        -11    1    1    0    0    0 -0.34587279361E+01 -0.46845496648E-01  0.18820403107E+01  0.39379016530E+01  0.51100000000E-03 0.  1.
         11    1    1    0    0    0 -0.51435854462E+02 -0.70120015387E+00  0.27988936375E+02  0.58562098370E+02  0.51100000000E-03 0. -1.
         22    1    1    0    0    0  0.54894582398E+02  0.74804565052E+00 -0.29870976686E+02  0.62499999977E+02  0.00000000000E+00 0. -1.
</event>
<event>
 4    1  0.1956828E-002  0.9118800E+02  0.7818608E-02  0.1130116E+00
         25   -1    0    0    0    0  0.00000000000E+00  0.00000000000E+00  0.99999998245E-14  0.12500000000E+03  0.12500000000E+03 0.  0.
        -11    1    1    0    0    0 -0.15076535692E+01 -0.21253503166E-01  0.44676520457E+00  0.15725998872E+01  0.51100000000E-03 0. -1.
         11    1    1    0    0    0 -0.58460787228E+02 -0.78394969194E+00  0.17142644720E+02  0.60927403430E+02  0.51100000000E-03 0.  1.
         22    1    1    0    0    0  0.59968440797E+02  0.80520319510E+00 -0.17589409925E+02  0.62499996683E+02  0.00000000000E+00 0.  1.
</event>
<event>
 4    1  0.1956828E-002  0.9118800E+02  0.7818608E-02  0.1130116E+00
         25   -1    0    0    0    0  0.00000000000E+00  0.00000000000E+00  0.99999998245E-14  0.12500000000E+03  0.12500000000E+03 0.  0.
        -11    1    1    0    0    0  0.34826183687E+02 -0.23229712783E+01 -0.11088731027E+02  0.36622659950E+02  0.51100000000E-03 0.  1.
         11    1    1    0    0    0  0.24589528449E+02 -0.16261255066E+01 -0.78961249306E+01  0.25877364291E+02  0.51100000000E-03 0. -1.
         22    1    1    0    0    0 -0.59415712136E+02  0.39490967848E+01  0.18984855957E+02  0.62499975758E+02  0.00000000000E+00 0. -1.
</event>
<event>
 4    1  0.1956828E-002  0.9118800E+02  0.7818608E-02  0.1130116E+00
         25   -1    0    0    0    0  0.00000000000E+00  0.00000000000E+00  0.99999998245E-14  0.12500000000E+03  0.12500000000E+03 0.  0.
        -11    1    1    0    0    0  0.14258163451E+02 -0.70164771835E+01  0.12683438253E+02  0.20332136711E+02  0.51100000000E-03 0.  1.
         11    1    1    0    0    0  0.29414076425E+02 -0.14818915385E+02  0.26331658917E+02  0.42168049596E+02  0.51100000000E-03 0. -1.
         22    1    1    0    0    0 -0.43672239876E+02  0.21835392568E+02 -0.39015097170E+02  0.62499813693E+02  0.00000000000E+00 0. -1.
</event>
<event>
 4    1  0.1956828E-002  0.9118800E+02  0.7818608E-02  0.1130116E+00
         25   -1    0    0    0    0  0.00000000000E+00  0.00000000000E+00  0.99999998245E-14  0.12500000000E+03  0.12500000000E+03 0.  0.
        -11    1    1    0    0    0 -0.37999538049E+02  0.19786987669E+02  0.44292328169E+02  0.61622237121E+02  0.51100000000E-03 0. -1.
         11    1    1    0    0    0 -0.24228848757E+00  0.48759479551E+00  0.73855776943E+00  0.91756211545E+00  0.51100000000E-03 0.  1.
         22    1    1    0    0    0  0.38241826537E+02 -0.20274582465E+02 -0.45030885938E+02  0.62460200763E+02  0.00000000000E+00 0. -1.
</event>
<event>
 4    1  0.1956828E-002  0.9118800E+02  0.7818608E-02  0.1130116E+00
         25   -1    0    0    0    0  0.00000000000E+00  0.00000000000E+00  0.99999998245E-14  0.12500000000E+03  0.12500000000E+03 0.  0.
        -11    1    1    0    0    0  0.27185139613E+02 -0.55805295330E+02  0.79310052868E+00  0.62079721418E+02  0.51100000000E-03 0. -1.
         11    1    1    0    0    0  0.35835872431E+00 -0.25810381549E+00  0.86889527358E-01  0.45009844029E+00  0.51100000000E-03 0.  1.
         22    1    1    0    0    0 -0.27543498337E+02  0.56063399145E+02 -0.87999005604E+00  0.62470180141E+02  0.00000000000E+00 0. -1.
</event>
<event>
 4    1  0.1956828E-002  0.9118800E+02  0.7818608E-02  0.1130116E+00
         25   -1    0    0    0    0  0.00000000000E+00  0.00000000000E+00  0.99999998245E-14  0.12500000000E+03  0.12500000000E+03 0.  0.
        -11    1    1    0    0    0  0.28997674176E+01 -0.41992194180E+01  0.21996930105E+01  0.55570445740E+01  0.51100000000E-03 0.  1.
         11    1    1    0    0    0  0.29706224949E+02 -0.43052735184E+02  0.22505609224E+02  0.56942956143E+02  0.51100000000E-03 0. -1.
         22    1    1    0    0    0 -0.32605992366E+02  0.47251954602E+02 -0.24705302235E+02  0.62499999283E+02  0.00000000000E+00 0. -1.
</event>
<event>
 4    1  0.1956828E-002  0.9118800E+02  0.7818608E-02  0.1130116E+00
         25   -1    0    0    0    0  0.00000000000E+00  0.00000000000E+00  0.99999998245E-14  0.12500000000E+03  0.12500000000E+03 0.  0.
        -11    1    1    0    0    0  0.37258447119E+02 -0.37944235231E+02  0.77189965571E+01  0.53735833269E+02  0.51100000000E-03 0. -1.
         11    1    1    0    0    0  0.60604698546E+01 -0.62105304116E+01  0.12293626255E+01  0.87642065002E+01  0.51100000000E-03 0.  1.
         22    1    1    0    0    0 -0.43318916974E+02  0.44154765643E+02 -0.89483591826E+01  0.62499960231E+02  0.00000000000E+00 0. -1.
</event>
<event>
 4    1  0.1956828E-002  0.9118800E+02  0.7818608E-02  0.1130116E+00
         25   -1    0    0    0    0  0.00000000000E+00  0.00000000000E+00  0.99999998245E-14  0.12500000000E+03  0.12500000000E+03 0.  0.
        -11    1    1    0    0    0 -0.12969030931E+01  0.20665672709E+02 -0.12322869647E+01  0.20742963086E+02  0.51100000000E-03 0. -1.
         11    1    1    0    0    0 -0.18708644098E+01  0.41629223416E+02 -0.26937451553E+01  0.41758216426E+02  0.51100000000E-03 0.  1.
         22    1    1    0    0    0  0.31677675029E+01 -0.62294896125E+02  0.39260321201E+01  0.62498820488E+02  0.00000000000E+00 0.  1.
</event>
<event>
 4    1  0.1956828E-002  0.9118800E+02  0.7818608E-02  0.1130116E+00
         25   -1    0    0    0    0  0.00000000000E+00  0.00000000000E+00  0.99999998245E-14  0.12500000000E+03  0.12500000000E+03 0.  0.
        -11    1    1    0    0    0  0.29596932580E+02  0.31216030325E+02 -0.20412947545E+02  0.47614151207E+02  0.51100000000E-03 0. -1.
         11    1    1    0    0    0  0.92531196930E+01  0.97590556001E+01 -0.63819357542E+01  0.14885848800E+02  0.51100000000E-03 0. -1.
         22    1    1    0    0    0 -0.38850052273E+02 -0.40975085925E+02  0.26794883299E+02  0.62499999994E+02  0.00000000000E+00 0. -1.
</event>
<event>
 4    1  0.1956828E-002  0.9118800E+02  0.7818608E-02  0.1130116E+00
         25   -1    0    0    0    0  0.00000000000E+00  0.00000000000E+00  0.99999998245E-14  0.12500000000E+03  0.12500000000E+03 0.  0.
        -11    1    1    0    0    0 -0.51930153173E+01 -0.93614214106E+01 -0.30584799496E+01  0.11133639063E+02  0.51100000000E-03 0. -1.
         11    1    1    0    0    0 -0.23807956964E+02 -0.43235429197E+02 -0.14226217974E+02  0.51366393982E+02  0.51100000000E-03 0.  1.
         22    1    1    0    0    0  0.29000972282E+02  0.52596850607E+02  0.17284697924E+02  0.62499966955E+02  0.00000000000E+00 0.  1.
</event>
<event>
 4    1  0.1956828E-002  0.9118800E+02  0.7818608E-02  0.1130116E+00
         25   -1    0    0    0    0  0.00000000000E+00  0.00000000000E+00  0.99999998245E-14  0.12500000000E+03  0.12500000000E+03 0.  0.
        -11    1    1    0    0    0 -0.15846880368E+01 -0.14633901533E+01 -0.10660295959E+01  0.24060686348E+01  0.51100000000E-03 0. -1.
         11    1    1    0    0    0 -0.38636669821E+02 -0.37432188620E+02 -0.26783430772E+02  0.60094202415E+02  0.51100000000E-03 0.  1.
         22    1    1    0    0    0  0.40221357858E+02  0.38895578773E+02  0.27849460368E+02  0.62499728950E+02  0.00000000000E+00 0.  1.
</event>
<event>
 4    1  0.1956828E-002  0.9118800E+02  0.7818608E-02  0.1130116E+00
         25   -1    0    0    0    0  0.00000000000E+00  0.00000000000E+00  0.99999998245E-14  0.12500000000E+03  0.12500000000E+03 0.  0.
        -11    1    1    0    0    0  0.21951279265E+02 -0.15246335640E+02 -0.38202461964E+02  0.46623358011E+02  0.51100000000E-03 0. -1.
         11    1    1    0    0    0  0.74751319137E+01 -0.51926100235E+01 -0.13008726496E+02  0.15876642003E+02  0.51100000000E-03 0.  1.
         22    1    1    0    0    0 -0.29426411179E+02  0.20438945664E+02  0.51211188460E+02  0.62499999986E+02  0.00000000000E+00 0. -1.
</event>
<event>
 4    1  0.1956828E-002  0.9118800E+02  0.7818608E-02  0.1130116E+00
         25   -1    0    0    0    0  0.00000000000E+00  0.00000000000E+00  0.99999998245E-14  0.12500000000E+03  0.12500000000E+03 0.  0.
        -11    1    1    0    0    0 -0.90861669149E+01 -0.16840321765E+02  0.73385426564E+01  0.20494122937E+02  0.51100000000E-03 0.  1.
         11    1    1    0    0    0 -0.14257994245E+02 -0.37628420907E+02  0.12298572335E+02  0.42076636529E+02  0.51100000000E-03 0. -1.
         22    1    1    0    0    0  0.23344161160E+02  0.54468742672E+02 -0.19637114991E+02  0.62429240535E+02  0.00000000000E+00 0. -1.
</event>
<event>
 4    1  0.1956828E-002  0.9118800E+02  0.7818608E-02  0.1130116E+00
         25   -1    0    0    0    0  0.00000000000E+00  0.00000000000E+00  0.99999998245E-14  0.12500000000E+03  0.12500000000E+03 0.  0.
        -11    1    1    0    0    0  0.86048099313E+01  0.13826557799E+01  0.54246526143E+01  0.10265541740E+02  0.51100000000E-03 0.  1.
         11    1    1    0    0    0  0.46217258711E+02  0.71191047037E+01  0.23317734913E+02  0.52253549318E+02  0.51100000000E-03 0. -1.
         22    1    1    0    0    0 -0.54822068642E+02 -0.85017604837E+01 -0.28742387527E+02  0.62480908943E+02  0.00000000000E+00 0. -1.
</event>
<event>
 4    1  0.1956828E-002  0.9118800E+02  0.7818608E-02  0.1130116E+00
         25   -1    0    0    0    0  0.00000000000E+00  0.00000000000E+00  0.99999998245E-14  0.12500000000E+03  0.12500000000E+03 0.  0.
        -11    1    1    0    0    0  0.64565485979E+01 -0.67129269570E+00  0.16541638428E+01  0.66987992924E+01  0.51100000000E-03 0.  1.
         11    1    1    0    0    0  0.55126373181E+02  0.36210478350E+01  0.82481988518E+01  0.55857513300E+02  0.51100000000E-03 0. -1.
         22    1    1    0    0    0 -0.61582921778E+02 -0.29497551393E+01 -0.99023626946E+01  0.62443687408E+02  0.00000000000E+00 0. -1.
</event>
<event>
 4    1  0.1956828E-002  0.9118800E+02  0.7818608E-02  0.1130116E+00
         25   -1    0    0    0    0  0.00000000000E+00  0.00000000000E+00  0.99999998245E-14  0.12500000000E+03  0.12500000000E+03 0.  0.
        -11    1    1    0    0    0  0.15326756447E+02  0.28586205943E+02  0.37972261804E+02  0.49939696637E+02  0.51100000000E-03 0. -1.
         11    1    1    0    0    0  0.38545358215E+01  0.71898811893E+01  0.95503603391E+01  0.12560303371E+02  0.51100000000E-03 0. -1.
         22    1    1    0    0    0 -0.19181292269E+02 -0.35776087133E+02 -0.47522622143E+02  0.62499999992E+02  0.00000000000E+00 0. -1.
</event>
<event>
 4    1  0.1956828E-002  0.9118800E+02  0.7818608E-02  0.1130116E+00
         25   -1    0    0    0    0  0.00000000000E+00  0.00000000000E+00  0.99999998245E-14  0.12500000000E+03  0.12500000000E+03 0.  0.
        -11    1    1    0    0    0  0.19321550744E+01  0.75079997809E+00 -0.54589991795E+01  0.58393146979E+01  0.51100000000E-03 0. -1.
         11    1    1    0    0    0  0.15859432241E+02  0.54268814093E+01 -0.54130164241E+02  0.56666103747E+02  0.51100000000E-03 0.  1.
         22    1    1    0    0    0 -0.17791587315E+02 -0.61776813873E+01  0.59589163421E+02  0.62494581555E+02  0.00000000000E+00 0.  1.
</event>
<event>
 4    1  0.1956828E-002  0.9118800E+02  0.7818608E-02  0.1130116E+00
         25   -1    0    0    0    0  0.00000000000E+00  0.00000000000E+00  0.99999998245E-14  0.12500000000E+03  0.12500000000E+03 0.  0.
        -11    1    1    0    0    0 -0.57980565119E+01 -0.28828949410E+02  0.25904669366E+02  0.39188999459E+02  0.51100000000E-03 0.  1.
         11    1    1    0    0    0 -0.34498470168E+01 -0.17148128200E+02  0.15409185614E+02  0.23311000552E+02  0.51100000000E-03 0. -1.
         22    1    1    0    0    0  0.92479035287E+01  0.45977077610E+02 -0.41313854980E+02  0.62499999988E+02  0.00000000000E+00 0. -1.
</event>
<event>
 4    1  0.1956828E-002  0.9118800E+02  0.7818608E-02  0.1130116E+00
         25   -1    0    0    0    0  0.00000000000E+00  0.00000000000E+00  0.99999998245E-14  0.12500000000E+03  0.12500000000E+03 0.  0.
        -11    1    1    0    0    0  0.86810690557E+00  0.16544937936E+00  0.61852405248E-01  0.88589450715E+00  0.51100000000E-03 0. -1.
         11    1    1    0    0    0  0.60383534845E+02  0.11439554225E+02  0.43890101148E+01  0.61614106269E+02  0.51100000000E-03 0.  1.
         22    1    1    0    0    0 -0.61251641751E+02 -0.11605003604E+02 -0.44508625201E+01  0.62499999224E+02  0.00000000000E+00 0.  1.
</event>
<event>
 4    1  0.1956828E-002  0.9118800E+02  0.7818608E-02  0.1130116E+00
         25   -1    0    0    0    0  0.00000000000E+00  0.00000000000E+00  0.99999998245E-14  0.12500000000E+03  0.12500000000E+03 0.  0.
        -11    1    1    0    0    0 -0.59462029618E+01 -0.29956039156E+02 -0.10278257954E+02  0.32223658986E+02  0.51100000000E-03 0.  1.
         11    1    1    0    0    0 -0.55605760496E+01 -0.28139172438E+02 -0.96914543180E+01  0.30276349161E+02  0.51100000000E-03 0. -1.
         22    1    1    0    0    0  0.11506779011E+02  0.58095211594E+02  0.19969712272E+02  0.62499991853E+02  0.00000000000E+00 0. -1.
</event>
<event>
 4    1  0.1956828E-002  0.9118800E+02  0.7818608E-02  0.1130116E+00
         25   -1    0    0    0    0  0.00000000000E+00  0.00000000000E+00  0.99999998245E-14  0.12500000000E+03  0.12500000000E+03 0.  0.
        -11    1    1    0    0    0  0.20863027769E+02  0.77818690830E+01  0.76141770886E+01  0.23532936644E+02  0.51100000000E-03 0.  1.
         11    1    1    0    0    0  0.34590966510E+02  0.12829881465E+02  0.12541650446E+02  0.38967086350E+02  0.51100000000E-03 0. -1.
         22    1    1    0    0    0 -0.55453994279E+02 -0.20611750548E+02 -0.20155827534E+02  0.62499977005E+02  0.00000000000E+00 0. -1.
</event>
<event>
 4    1  0.1956828E-002  0.9118800E+02  0.7818608E-02  0.1130116E+00
         25   -1    0    0    0    0  0.00000000000E+00  0.00000000000E+00  0.99999998245E-14  0.12500000000E+03  0.12500000000E+03 0.  0.
        -11    1    1    0    0    0  0.34520599749E+02  0.75476832858E+01  0.55545130785E+01  0.35769986662E+02  0.51100000000E-03 0. -1.
         11    1    1    0    0    0  0.25812918384E+02  0.56877845881E+01  0.39805749933E+01  0.26730181941E+02  0.51100000000E-03 0.  1.
         22    1    1    0    0    0 -0.60333518133E+02 -0.13235467874E+02 -0.95350880718E+01  0.62499831397E+02  0.00000000000E+00 0.  1.
</event>
<event>
 4    1  0.1956828E-002  0.9118800E+02  0.7818608E-02  0.1130116E+00
         25   -1    0    0    0    0  0.00000000000E+00  0.00000000000E+00  0.99999998245E-14  0.12500000000E+03  0.12500000000E+03 0.  0.
        -11    1    1    0    0    0 -0.52394610312E+01 -0.25769077432E+01 -0.17283730896E+01  0.60893085989E+01  0.51100000000E-03 0. -1.
         11    1    1    0    0    0 -0.43444546928E+02 -0.31934216569E+02 -0.16715227733E+02  0.56450169921E+02  0.51100000000E-03 0.  1.
         22    1    1    0    0    0  0.48684007959E+02  0.34511124312E+02  0.18443600823E+02  0.62460521480E+02  0.00000000000E+00 0.  1.
</event>
<event>
 4    1  0.1956828E-002  0.9118800E+02  0.7818608E-02  0.1130116E+00
         25   -1    0    0    0    0  0.00000000000E+00  0.00000000000E+00  0.99999998245E-14  0.12500000000E+03  0.12500000000E+03 0.  0.
        -11    1    1    0    0    0 -0.20169937785E+00 -0.40466677009E+01 -0.19138419898E+01  0.44809589982E+01  0.51100000000E-03 0.  1.
         11    1    1    0    0    0 -0.14245107165E+01 -0.52482718503E+02 -0.24694031660E+02  0.58019480971E+02  0.51100000000E-03 0. -1.
         22    1    1    0    0    0  0.16262100944E+01  0.56529386204E+02  0.26607873650E+02  0.62499560031E+02  0.00000000000E+00 0. -1.
</event>
<event>
 4    1  0.1956828E-002  0.9118800E+02  0.7818608E-02  0.1130116E+00
         25   -1    0    0    0    0  0.00000000000E+00  0.00000000000E+00  0.99999998245E-14  0.12500000000E+03  0.12500000000E+03 0.  0.
        -11    1    1    0    0    0  0.20809794691E+01 -0.45983773850E+01 -0.93969476903E+01  0.10666685346E+02  0.51100000000E-03 0. -1.
         11    1    1    0    0    0  0.10079680408E+02 -0.22336646643E+02 -0.45674575814E+02  0.51833315700E+02  0.51100000000E-03 0.  1.
         22    1    1    0    0    0 -0.12160659877E+02  0.26935024028E+02  0.55071523505E+02  0.62499998953E+02  0.00000000000E+00 0.  1.
</event>
<event>
 4    1  0.1956828E-002  0.9118800E+02  0.7818608E-02  0.1130116E+00
         25   -1    0    0    0    0  0.00000000000E+00  0.00000000000E+00  0.99999998245E-14  0.12500000000E+03  0.12500000000E+03 0.  0.
        -11    1    1    0    0    0  0.26005153428E+02  0.85331096803E+01 -0.20745215507E+02  0.34343062361E+02  0.51100000000E-03 0.  1.
         11    1    1    0    0    0  0.21751480435E+02 -0.31412458744E+01 -0.18407351412E+02  0.28667488782E+02  0.51100000000E-03 0. -1.
         22    1    1    0    0    0 -0.47756633864E+02 -0.53918638059E+01  0.39152566919E+02  0.61989448857E+02  0.00000000000E+00 0. -1.
</event>
<event>
 4    1  0.1956828E-002  0.9118800E+02  0.7818608E-02  0.1130116E+00
         25   -1    0    0    0    0  0.00000000000E+00  0.00000000000E+00  0.99999998245E-14  0.12500000000E+03  0.12500000000E+03 0.  0.
        -11    1    1    0    0    0  0.11619797938E+00  0.71746385095E-01  0.49466206030E+00  0.51316696036E+00  0.51100000000E-03 0.  1.
         11    1    1    0    0    0  0.45160091183E+01  0.60791653322E+02  0.12133075027E+02  0.62154894915E+02  0.51100000000E-03 0. -1.
         22    1    1    0    0    0 -0.46322070977E+01 -0.60863399707E+02 -0.12627737087E+02  0.62331938125E+02  0.00000000000E+00 0. -1.
</event>
<event>
 4    1  0.1956828E-002  0.9118800E+02  0.7818608E-02  0.1130116E+00
         25   -1    0    0    0    0  0.00000000000E+00  0.00000000000E+00  0.99999998245E-14  0.12500000000E+03  0.12500000000E+03 0.  0.
        -11    1    1    0    0    0  0.32841108106E+02 -0.46871494325E+01 -0.35455933050E+02  0.48555441921E+02  0.51100000000E-03 0.  1.
         11    1    1    0    0    0  0.95828079231E+01  0.17301761356E+00 -0.10173324393E+02  0.13977005125E+02  0.51100000000E-03 0. -1.
         22    1    1    0    0    0 -0.42423916029E+02  0.45141318189E+01  0.45629257443E+02  0.62467552954E+02  0.00000000000E+00 0.  1.
</event>
<event>
 4    1  0.1956828E-002  0.9118800E+02  0.7818608E-02  0.1130116E+00
         25   -1    0    0    0    0  0.00000000000E+00  0.00000000000E+00  0.99999998245E-14  0.12500000000E+03  0.12500000000E+03 0.  0.
        -11    1    1    0    0    0  0.49464789499E+01 -0.24406469924E+01 -0.29958768804E+02  0.30462308518E+02  0.51100000000E-03 0. -1.
         11    1    1    0    0    0  0.35062799039E+01 -0.20751859766E+01 -0.31789819634E+02  0.32049852234E+02  0.51100000000E-03 0.  1.
         22    1    1    0    0    0 -0.84527588538E+01  0.45158329690E+01  0.61748588439E+02  0.62487839247E+02  0.00000000000E+00 0.  1.
</event>
<event>
 4    1  0.1956828E-002  0.9118800E+02  0.7818608E-02  0.1130116E+00
         25   -1    0    0    0    0  0.00000000000E+00  0.00000000000E+00  0.99999998245E-14  0.12500000000E+03  0.12500000000E+03 0.  0.
        -11    1    1    0    0    0 -0.10465289602E+02  0.60317066566E-01  0.20053315775E+01  0.10655856587E+02  0.51100000000E-03 0. -1.
         11    1    1    0    0    0 -0.35993972091E+02  0.29474215502E+02  0.25230326277E+02  0.52923196905E+02  0.51100000000E-03 0.  1.
         22    1    1    0    0    0  0.46459261694E+02 -0.29534532568E+02 -0.27235657855E+02  0.61420946508E+02  0.00000000000E+00 0.  1.
</event>
<event>
 4    1  0.1956828E-002  0.9118800E+02  0.7818608E-02  0.1130116E+00
         25   -1    0    0    0    0  0.00000000000E+00  0.00000000000E+00  0.99999998245E-14  0.12500000000E+03  0.12500000000E+03 0.  0.
        -11    1    1    0    0    0 -0.40911003879E+02 -0.23085964311E+02  0.39053158464E+02  0.61088633744E+02  0.51100000000E-03 0.  1.
         11    1    1    0    0    0 -0.93790670247E+00 -0.58847747423E+00  0.87625392365E+00  0.14120183852E+01  0.51100000000E-03 0. -1.
         22    1    1    0    0    0  0.41848910581E+02  0.23674441785E+02 -0.39929412387E+02  0.62499347870E+02  0.00000000000E+00 0.  1.
</event>
<event>
 4    1  0.1956828E-002  0.9118800E+02  0.7818608E-02  0.1130116E+00
         25   -1    0    0    0    0  0.00000000000E+00  0.00000000000E+00  0.99999998245E-14  0.12500000000E+03  0.12500000000E+03 0.  0.
        -11    1    1    0    0    0 -0.54381818091E+02  0.19715862282E+02  0.43259352550E+01  0.58006991651E+02  0.51100000000E-03 0.  1.
         11    1    1    0    0    0 -0.42188930109E+01  0.15166718271E+01  0.29748788759E+00  0.44930892461E+01  0.51100000000E-03 0. -1.
         22    1    1    0    0    0  0.58600711102E+02 -0.21232534109E+02 -0.46234231426E+01  0.62499919103E+02  0.00000000000E+00 0.  1.
</event>
<event>
 4    1  0.1956828E-002  0.9118800E+02  0.7818608E-02  0.1130116E+00
         25   -1    0    0    0    0  0.00000000000E+00  0.00000000000E+00  0.99999998245E-14  0.12500000000E+03  0.12500000000E+03 0.  0.
        -11    1    1    0    0    0 -0.67807279541E+01 -0.56513934264E+01 -0.22688163421E+01  0.91139479427E+01  0.51100000000E-03 0.  1.
         11    1    1    0    0    0 -0.33296192772E+02 -0.41956689848E+02  0.30557380646E+01  0.53650142698E+02  0.51100000000E-03 0. -1.
         22    1    1    0    0    0  0.40076920726E+02  0.47608083274E+02 -0.78692172247E+00  0.62235909359E+02  0.00000000000E+00 0. -1.
</event>
<event>
 4    1  0.1956828E-002  0.9118800E+02  0.7818608E-02  0.1130116E+00
         25   -1    0    0    0    0  0.00000000000E+00  0.00000000000E+00  0.99999998245E-14  0.12500000000E+03  0.12500000000E+03 0.  0.
        -11    1    1    0    0    0 -0.38015469597E+02 -0.34678576561E+02 -0.17509793965E+02  0.54354139547E+02  0.51100000000E-03 0.  1.
         11    1    1    0    0    0 -0.14931515124E+01 -0.34195409622E+01 -0.89638192345E+01  0.97094190022E+01  0.51100000000E-03 0. -1.
         22    1    1    0    0    0  0.39508621110E+02  0.38098117523E+02  0.26473613200E+02  0.60936441450E+02  0.00000000000E+00 0.  1.
</event>
<event>
 4    1  0.1956828E-002  0.9118800E+02  0.7818608E-02  0.1130116E+00
         25   -1    0    0    0    0  0.00000000000E+00  0.00000000000E+00  0.99999998245E-14  0.12500000000E+03  0.12500000000E+03 0.  0.
        -11    1    1    0    0    0  0.13036165145E+02  0.37555407729E+01  0.22175045445E+01  0.13746381882E+02  0.51100000000E-03 0.  1.
         11    1    1    0    0    0  0.46232658842E+02  0.13318212427E+02  0.78791990592E+01  0.48753618367E+02  0.51100000000E-03 0. -1.
         22    1    1    0    0    0 -0.59268823987E+02 -0.17073753200E+02 -0.10096703604E+02  0.62499999750E+02  0.00000000000E+00 0. -1.
</event>
<event>
 4    1  0.1956828E-002  0.9118800E+02  0.7818608E-02  0.1130116E+00
         25   -1    0    0    0    0  0.00000000000E+00  0.00000000000E+00  0.99999998245E-14  0.12500000000E+03  0.12500000000E+03 0.  0.
        -11    1    1    0    0    0 -0.20752713054E+02 -0.53205864109E+02  0.23685638708E+01  0.57158981532E+02  0.51100000000E-03 0.  1.
         11    1    1    0    0    0 -0.78442174497E+00 -0.52786007395E+01  0.98564194899E+00  0.54268253661E+01  0.51100000000E-03 0. -1.
         22    1    1    0    0    0  0.21537134799E+02  0.58484464848E+02 -0.33542058198E+01  0.62414193102E+02  0.00000000000E+00 0.  1.
</event>
<event>
 4    1  0.1956828E-002  0.9118800E+02  0.7818608E-02  0.1130116E+00
         25   -1    0    0    0    0  0.00000000000E+00  0.00000000000E+00  0.99999998245E-14  0.12500000000E+03  0.12500000000E+03 0.  0.
        -11    1    1    0    0    0 -0.34513977592E+02  0.25018995129E+02  0.39443368803E+02  0.58077053208E+02  0.51100000000E-03 0. -1.
         11    1    1    0    0    0 -0.26271803101E+01  0.19022630853E+01  0.30069563727E+01  0.44229478989E+01  0.51100000000E-03 0.  1.
         22    1    1    0    0    0  0.37141157902E+02 -0.26921258214E+02 -0.42450325175E+02  0.62499998893E+02  0.00000000000E+00 0. -1.
</event>
<event>
 4    1  0.1956828E-002  0.9118800E+02  0.7818608E-02  0.1130116E+00
         25   -1    0    0    0    0  0.00000000000E+00  0.00000000000E+00  0.99999998245E-14  0.12500000000E+03  0.12500000000E+03 0.  0.
        -11    1    1    0    0    0 -0.17347519080E+02  0.56856547074E+01 -0.55579183386E+02  0.58500501825E+02  0.51100000000E-03 0. -1.
         11    1    1    0    0    0 -0.13341961791E+01  0.57701978706E+00 -0.37298956050E+01  0.40031428608E+01  0.51100000000E-03 0.  1.
         22    1    1    0    0    0  0.18681715259E+02 -0.62626744944E+01  0.59309078991E+02  0.62496355314E+02  0.00000000000E+00 0.  1.
</event>
<event>
 4    1  0.1956828E-002  0.9118800E+02  0.7818608E-02  0.1130116E+00
         25   -1    0    0    0    0  0.00000000000E+00  0.00000000000E+00  0.99999998245E-14  0.12500000000E+03  0.12500000000E+03 0.  0.
        -11    1    1    0    0    0 -0.36796060140E+02  0.65809909304E+01 -0.22894961079E+01  0.37449983660E+02  0.51100000000E-03 0.  1.
         11    1    1    0    0    0 -0.24614195716E+02  0.44116385615E+01 -0.14775089674E+01  0.25050034303E+02  0.51100000000E-03 0. -1.
         22    1    1    0    0    0  0.61410255856E+02 -0.10992629492E+02  0.37670050753E+01  0.62499982037E+02  0.00000000000E+00 0.  1.
</event>
<event>
 4    1  0.1956828E-002  0.9118800E+02  0.7818608E-02  0.1130116E+00
         25   -1    0    0    0    0  0.00000000000E+00  0.00000000000E+00  0.99999998245E-14  0.12500000000E+03  0.12500000000E+03 0.  0.
        -11    1    1    0    0    0 -0.47187786159E+02 -0.32983916479E+02 -0.96275375728E+01  0.58372214185E+02  0.51100000000E-03 0. -1.
         11    1    1    0    0    0 -0.37000563812E+01 -0.19629139620E+01  0.36041723135E+00  0.42039682787E+01  0.51100000000E-03 0.  1.
         22    1    1    0    0    0  0.50887842541E+02  0.34946830441E+02  0.92671203415E+01  0.62423817536E+02  0.00000000000E+00 0. -1.
</event>
<event>
 4    1  0.1956828E-002  0.9118800E+02  0.7818608E-02  0.1130116E+00
         25   -1    0    0    0    0  0.00000000000E+00  0.00000000000E+00  0.99999998245E-14  0.12500000000E+03  0.12500000000E+03 0.  0.
        -11    1    1    0    0    0  0.84943835716E+01 -0.27626321379E+02  0.39283337104E+02  0.48770367637E+02  0.51100000000E-03 0.  1.
         11    1    1    0    0    0  0.23911369128E+01 -0.77759974599E+01  0.11059798074E+02  0.13729632403E+02  0.51100000000E-03 0. -1.
         22    1    1    0    0    0 -0.10885520484E+02  0.35402318839E+02 -0.50343135178E+02  0.62499999959E+02  0.00000000000E+00 0.  1.
</event>
<event>
 4    1  0.1956828E-002  0.9118800E+02  0.7818608E-02  0.1130116E+00
         25   -1    0    0    0    0  0.00000000000E+00  0.00000000000E+00  0.99999998245E-14  0.12500000000E+03  0.12500000000E+03 0.  0.
        -11    1    1    0    0    0 -0.63904833085E+00  0.37893808135E+01 -0.51552111142E+00  0.38773124708E+01  0.51100000000E-03 0. -1.
         11    1    1    0    0    0 -0.33624423516E+01 -0.36753919499E+02 -0.49097449167E+02  0.61422439972E+02  0.51100000000E-03 0.  1.
         22    1    1    0    0    0  0.40014906824E+01  0.32964538686E+02  0.49612970279E+02  0.59700247557E+02  0.00000000000E+00 0.  1.
</event>
<event>
 4    1  0.1956828E-002  0.9118800E+02  0.7818608E-02  0.1130116E+00
         25   -1    0    0    0    0  0.00000000000E+00  0.00000000000E+00  0.99999998245E-14  0.12500000000E+03  0.12500000000E+03 0.  0.
        -11    1    1    0    0    0 -0.10829322678E+02  0.18827612851E+02  0.57333010583E+02  0.61309276118E+02  0.51100000000E-03 0. -1.
         11    1    1    0    0    0 -0.13526458335E+01  0.20425273269E+01 -0.15515239065E+01  0.28997922901E+01  0.51100000000E-03 0.  1.
         22    1    1    0    0    0  0.12181968512E+02 -0.20870140178E+02 -0.55781486677E+02  0.60790931592E+02  0.00000000000E+00 0. -1.
</event>
<event>
 4    1  0.1956828E-002  0.9118800E+02  0.7818608E-02  0.1130116E+00
         25   -1    0    0    0    0  0.00000000000E+00  0.00000000000E+00  0.99999998245E-14  0.12500000000E+03  0.12500000000E+03 0.  0.
        -11    1    1    0    0    0 -0.24068451864E+02  0.11455481542E+02 -0.11134540060E+02  0.28887651603E+02  0.51100000000E-03 0. -1.
         11    1    1    0    0    0 -0.27995421729E+02  0.13321316693E+02 -0.12984185450E+02  0.33612351722E+02  0.51100000000E-03 0.  1.
         22    1    1    0    0    0  0.52063873593E+02 -0.24776798235E+02  0.24118725510E+02  0.62499996676E+02  0.00000000000E+00 0.  1.
</event>
<event>
 4    1  0.1956828E-002  0.9118800E+02  0.7818608E-02  0.1130116E+00
         25   -1    0    0    0    0  0.00000000000E+00  0.00000000000E+00  0.99999998245E-14  0.12500000000E+03  0.12500000000E+03 0.  0.
        -11    1    1    0    0    0 -0.58291384942E+01  0.37992087548E+01  0.35449004090E+01  0.78089155405E+01  0.51100000000E-03 0. -1.
         11    1    1    0    0    0 -0.40801168847E+02  0.26496197170E+02  0.24986662158E+02  0.54691106496E+02  0.51100000000E-03 0.  1.
         22    1    1    0    0    0  0.46630307341E+02 -0.30295405924E+02 -0.28531562567E+02  0.62499977963E+02  0.00000000000E+00 0.  1.
</event>
<event>
 4    1  0.1956828E-002  0.9118800E+02  0.7818608E-02  0.1130116E+00
         25   -1    0    0    0    0  0.00000000000E+00  0.00000000000E+00  0.99999998245E-14  0.12500000000E+03  0.12500000000E+03 0.  0.
        -11    1    1    0    0    0 -0.36496657414E+01 -0.20461699203E+01 -0.16512897714E+01  0.44981806919E+01  0.51100000000E-03 0.  1.
         11    1    1    0    0    0 -0.47868141740E+02 -0.25592304253E+02 -0.20444020269E+02  0.58002439566E+02  0.51100000000E-03 0. -1.
         22    1    1    0    0    0  0.51517807481E+02  0.27638474174E+02  0.22095310040E+02  0.62499379742E+02  0.00000000000E+00 0. -1.
</event>
<event>
 4    1  0.1956828E-002  0.9118800E+02  0.7818608E-02  0.1130116E+00
         25   -1    0    0    0    0  0.00000000000E+00  0.00000000000E+00  0.99999998245E-14  0.12500000000E+03  0.12500000000E+03 0.  0.
        -11    1    1    0    0    0  0.15065050373E+01 -0.34792980853E+02 -0.15085386691E+02  0.37952469827E+02  0.51100000000E-03 0. -1.
         11    1    1    0    0    0 -0.19116132810E+02 -0.19678603317E+02 -0.14099795649E+01  0.27471112186E+02  0.51100000000E-03 0.  1.
         22    1    1    0    0    0  0.17609627772E+02  0.54471584170E+02  0.16495366256E+02  0.59576417987E+02  0.00000000000E+00 0.  1.
</event>
<event>
 4    1  0.1956828E-002  0.9118800E+02  0.7818608E-02  0.1130116E+00
         25   -1    0    0    0    0  0.00000000000E+00  0.00000000000E+00  0.99999998245E-14  0.12500000000E+03  0.12500000000E+03 0.  0.
        -11    1    1    0    0    0 -0.35812635845E+00  0.17316452264E+00 -0.63782669638E+00  0.75170712133E+00  0.51100000000E-03 0.  1.
         11    1    1    0    0    0 -0.52586471337E+02  0.23119076804E+02 -0.22846925328E+02  0.61820794860E+02  0.51100000000E-03 0. -1.
         22    1    1    0    0    0  0.52944597696E+02 -0.23292241326E+02  0.23484752024E+02  0.62427498018E+02  0.00000000000E+00 0. -1.
</event>
<event>
 4    1  0.1956828E-002  0.9118800E+02  0.7818608E-02  0.1130116E+00
         25   -1    0    0    0    0  0.00000000000E+00  0.00000000000E+00  0.99999998245E-14  0.12500000000E+03  0.12500000000E+03 0.  0.
        -11    1    1    0    0    0  0.65127954954E+01  0.10318231959E+02 -0.23354638157E+02  0.26349981776E+02  0.51100000000E-03 0.  1.
         11    1    1    0    0    0  0.84656286775E+01  0.13471823450E+02 -0.32463049636E+02  0.36152544695E+02  0.51100000000E-03 0. -1.
         22    1    1    0    0    0 -0.14978424173E+02 -0.23790055409E+02  0.55817687792E+02  0.62497473529E+02  0.00000000000E+00 0. -1.
</event>
<event>
 4    1  0.1956828E-002  0.9118800E+02  0.7818608E-02  0.1130116E+00
         25   -1    0    0    0    0  0.00000000000E+00  0.00000000000E+00  0.99999998245E-14  0.12500000000E+03  0.12500000000E+03 0.  0.
        -11    1    1    0    0    0 -0.25742287007E+00  0.12112646730E+01 -0.46611816151E+00  0.13231383312E+01  0.51100000000E-03 0.  1.
         11    1    1    0    0    0 -0.11753909682E+02  0.56213866323E+02 -0.21082179192E+02  0.61176886481E+02  0.51100000000E-03 0. -1.
         22    1    1    0    0    0  0.12011332552E+02 -0.57425130996E+02  0.21548297354E+02  0.62499975187E+02  0.00000000000E+00 0. -1.
</event>
<event>
 4    1  0.1956828E-002  0.9118800E+02  0.7818608E-02  0.1130116E+00
         25   -1    0    0    0    0  0.00000000000E+00  0.00000000000E+00  0.99999998245E-14  0.12500000000E+03  0.12500000000E+03 0.  0.
        -11    1    1    0    0    0 -0.63607989652E+01 -0.25671568233E+02 -0.48364978268E+01  0.26886444363E+02  0.51100000000E-03 0.  1.
         11    1    1    0    0    0 -0.83379433959E+01 -0.34063772774E+02 -0.62028018889E+01  0.35613714594E+02  0.51100000000E-03 0. -1.
         22    1    1    0    0    0  0.14698742361E+02  0.59735341006E+02  0.11039299716E+02  0.62499841043E+02  0.00000000000E+00 0.  1.
</event>
<event>
 4    1  0.1956828E-002  0.9118800E+02  0.7818608E-02  0.1130116E+00
         25   -1    0    0    0    0  0.00000000000E+00  0.00000000000E+00  0.99999998245E-14  0.12500000000E+03  0.12500000000E+03 0.  0.
        -11    1    1    0    0    0  0.22452114779E+02  0.98026779247E+01 -0.43560893700E+02  0.49977409024E+02  0.51100000000E-03 0. -1.
         11    1    1    0    0    0  0.58565156402E+01  0.22475098691E+01 -0.10840025829E+02  0.12524225976E+02  0.51100000000E-03 0.  1.
         22    1    1    0    0    0 -0.28308630420E+02 -0.12050187794E+02  0.54400919529E+02  0.62498365000E+02  0.00000000000E+00 0. -1.
</event>
<event>
 4    1  0.1956828E-002  0.9118800E+02  0.7818608E-02  0.1130116E+00
         25   -1    0    0    0    0  0.00000000000E+00  0.00000000000E+00  0.99999998245E-14  0.12500000000E+03  0.12500000000E+03 0.  0.
        -11    1    1    0    0    0 -0.27091938034E+02  0.61940541715E+01  0.53385030702E+01  0.28299099434E+02  0.51100000000E-03 0. -1.
         11    1    1    0    0    0 -0.33928134856E+02 -0.18180935599E+01  0.59428986349E+01  0.34492634626E+02  0.51100000000E-03 0.  1.
         22    1    1    0    0    0  0.61020072890E+02 -0.43759606116E+01 -0.11281401705E+02  0.62208265939E+02  0.00000000000E+00 0.  1.
</event>
<event>
 4    1  0.1956828E-002  0.9118800E+02  0.7818608E-02  0.1130116E+00
         25   -1    0    0    0    0  0.00000000000E+00  0.00000000000E+00  0.99999998245E-14  0.12500000000E+03  0.12500000000E+03 0.  0.
        -11    1    1    0    0    0  0.46487327244E+01 -0.19568906892E+01  0.11120914682E+00  0.50450475566E+01  0.51100000000E-03 0.  1.
         11    1    1    0    0    0  0.21836932554E+02 -0.11124672797E+02 -0.53551923825E+02  0.58893280719E+02  0.51100000000E-03 0. -1.
         22    1    1    0    0    0 -0.26485665278E+02  0.13081563486E+02  0.53440714678E+02  0.61061671725E+02  0.00000000000E+00 0. -1.
</event>
<event>
 4    1  0.1956828E-002  0.9118800E+02  0.7818608E-02  0.1130116E+00
         25   -1    0    0    0    0  0.00000000000E+00  0.00000000000E+00  0.99999998245E-14  0.12500000000E+03  0.12500000000E+03 0.  0.
        -11    1    1    0    0    0  0.16487541370E+02  0.21230062088E+01  0.23801173926E+02  0.29031742220E+02  0.51100000000E-03 0. -1.
         11    1    1    0    0    0  0.16991987234E+02  0.52911156559E+01  0.28397840848E+02  0.33513592767E+02  0.51100000000E-03 0.  1.
         22    1    1    0    0    0 -0.33479528605E+02 -0.74141218646E+01 -0.52199014774E+02  0.62454665014E+02  0.00000000000E+00 0. -1.
</event>
<event>
 4    1  0.1956828E-002  0.9118800E+02  0.7818608E-02  0.1130116E+00
         25   -1    0    0    0    0  0.00000000000E+00  0.00000000000E+00  0.99999998245E-14  0.12500000000E+03  0.12500000000E+03 0.  0.
        -11    1    1    0    0    0 -0.30017968674E+02 -0.91227521743E+01  0.80302085450E+01  0.32384985720E+02  0.51100000000E-03 0. -1.
         11    1    1    0    0    0 -0.28209216077E+02 -0.83167643114E+01  0.65005832346E+01  0.30119528930E+02  0.51100000000E-03 0.  1.
         22    1    1    0    0    0  0.58227184752E+02  0.17439516486E+02 -0.14530791780E+02  0.62495485350E+02  0.00000000000E+00 0. -1.
</event>
<event>
 4    1  0.1956828E-002  0.9118800E+02  0.7818608E-02  0.1130116E+00
         25   -1    0    0    0    0  0.00000000000E+00  0.00000000000E+00  0.99999998245E-14  0.12500000000E+03  0.12500000000E+03 0.  0.
        -11    1    1    0    0    0  0.30719585843E+02 -0.19334849163E+02  0.45605847790E+02  0.58287414589E+02  0.51100000000E-03 0.  1.
         11    1    1    0    0    0  0.24152787143E+01 -0.11847878238E+01  0.32478455448E+01  0.42173207607E+01  0.51100000000E-03 0. -1.
         22    1    1    0    0    0 -0.33134864557E+02  0.20519636987E+02 -0.48853693335E+02  0.62495264651E+02  0.00000000000E+00 0.  1.
</event>
<event>
 4    1  0.1956828E-002  0.9118800E+02  0.7818608E-02  0.1130116E+00
         25   -1    0    0    0    0  0.00000000000E+00  0.00000000000E+00  0.99999998245E-14  0.12500000000E+03  0.12500000000E+03 0.  0.
        -11    1    1    0    0    0  0.20198470379E+01 -0.23321552350E+02 -0.73110814882E+00  0.23420271251E+02  0.51100000000E-03 0.  1.
         11    1    1    0    0    0  0.28060594281E+01 -0.38956164924E+02 -0.13534274726E+01  0.39080538908E+02  0.51100000000E-03 0. -1.
         22    1    1    0    0    0 -0.48259064659E+01  0.62277717274E+02  0.20845356214E+01  0.62499189842E+02  0.00000000000E+00 0.  1.
</event>
<event>
 4    1  0.1956828E-002  0.9118800E+02  0.7818608E-02  0.1130116E+00
         25   -1    0    0    0    0  0.00000000000E+00  0.00000000000E+00  0.99999998245E-14  0.12500000000E+03  0.12500000000E+03 0.  0.
        -11    1    1    0    0    0 -0.30162808549E+02  0.11105185109E+01  0.51802245006E+02  0.59954156310E+02  0.51100000000E-03 0.  1.
         11    1    1    0    0    0 -0.12775237699E+01  0.47175947296E-01  0.22015981335E+01  0.25458450769E+01  0.51100000000E-03 0. -1.
         22    1    1    0    0    0  0.31440332319E+02 -0.11576944582E+01 -0.54003843140E+02  0.62499998613E+02  0.00000000000E+00 0.  1.
</event>
<event>
 4    1  0.1956828E-002  0.9118800E+02  0.7818608E-02  0.1130116E+00
         25   -1    0    0    0    0  0.00000000000E+00  0.00000000000E+00  0.99999998245E-14  0.12500000000E+03  0.12500000000E+03 0.  0.
        -11    1    1    0    0    0 -0.33927833542E+02 -0.23930667837E+02  0.13051646066E+02  0.43521491441E+02  0.51100000000E-03 0. -1.
         11    1    1    0    0    0 -0.14527217543E+02 -0.10318656169E+02  0.65542352541E+01  0.18986119000E+02  0.51100000000E-03 0.  1.
         22    1    1    0    0    0  0.48455051085E+02  0.34249324005E+02 -0.19605881320E+02  0.62492389559E+02  0.00000000000E+00 0. -1.
</event>
<event>
 4    1  0.1956828E-002  0.9118800E+02  0.7818608E-02  0.1130116E+00
         25   -1    0    0    0    0  0.00000000000E+00  0.00000000000E+00  0.99999998245E-14  0.12500000000E+03  0.12500000000E+03 0.  0.
        -11    1    1    0    0    0  0.25622821892E+02  0.70367155508E+01 -0.21915110208E+02  0.34442944461E+02  0.51100000000E-03 0.  1.
         11    1    1    0    0    0  0.20849853326E+02  0.49230883768E+01 -0.18123076942E+02  0.28060632584E+02  0.51100000000E-03 0. -1.
         22    1    1    0    0    0 -0.46472675218E+02 -0.11959803928E+02  0.40038187150E+02  0.62496422955E+02  0.00000000000E+00 0. -1.
</event>
<event>
 4    1  0.1956828E-002  0.9118800E+02  0.7818608E-02  0.1130116E+00
         25   -1    0    0    0    0  0.00000000000E+00  0.00000000000E+00  0.99999998245E-14  0.12500000000E+03  0.12500000000E+03 0.  0.
        -11    1    1    0    0    0  0.26993758760E+02 -0.98740664506E+01 -0.74759658106E+01  0.29699331058E+02  0.51100000000E-03 0. -1.
         11    1    1    0    0    0  0.29809382447E+02 -0.10905638889E+02 -0.82675070053E+01  0.32800669411E+02  0.51100000000E-03 0. -1.
         22    1    1    0    0    0 -0.56803141207E+02  0.20779705340E+02  0.15743472816E+02  0.62499999530E+02  0.00000000000E+00 0. -1.
</event>
<event>
 4    1  0.1956828E-002  0.9118800E+02  0.7818608E-02  0.1130116E+00
         25   -1    0    0    0    0  0.00000000000E+00  0.00000000000E+00  0.99999998245E-14  0.12500000000E+03  0.12500000000E+03 0.  0.
        -11    1    1    0    0    0 -0.41471135568E+02 -0.22483930047E+02  0.25017384271E+02  0.53397113327E+02  0.51100000000E-03 0.  1.
         11    1    1    0    0    0 -0.70703141179E+01 -0.38320409544E+01  0.42648172928E+01  0.91028867072E+01  0.51100000000E-03 0.  1.
         22    1    1    0    0    0  0.48541449686E+02  0.26315971001E+02 -0.29282201564E+02  0.62499999966E+02  0.00000000000E+00 0.  1.
</event>
<event>
 4    1  0.1956828E-002  0.9118800E+02  0.7818608E-02  0.1130116E+00
         25   -1    0    0    0    0  0.00000000000E+00  0.00000000000E+00  0.99999998245E-14  0.12500000000E+03  0.12500000000E+03 0.  0.
        -11    1    1    0    0    0  0.31381451235E+02 -0.27789302814E+02 -0.28949973140E+02  0.50942534071E+02  0.51100000000E-03 0.  1.
         11    1    1    0    0    0  0.71192717478E+01 -0.63043485801E+01 -0.65685750045E+01  0.11557465946E+02  0.51100000000E-03 0.  1.
         22    1    1    0    0    0 -0.38500722983E+02  0.34093651394E+02  0.35518548145E+02  0.62499999983E+02  0.00000000000E+00 0.  1.
</event>
<event>
 4    1  0.1956828E-002  0.9118800E+02  0.7818608E-02  0.1130116E+00
         25   -1    0    0    0    0  0.00000000000E+00  0.00000000000E+00  0.99999998245E-14  0.12500000000E+03  0.12500000000E+03 0.  0.
        -11    1    1    0    0    0 -0.29446507396E+02 -0.68026148702E+00  0.52742111230E+02  0.60409352345E+02  0.51100000000E-03 0. -1.
         11    1    1    0    0    0 -0.10192149794E+01 -0.22897923242E-01  0.18252353851E+01  0.20906477373E+01  0.51100000000E-03 0.  1.
         22    1    1    0    0    0  0.30465722376E+02  0.70315941027E+00 -0.54567346615E+02  0.62499999917E+02  0.00000000000E+00 0. -1.
</event>
<event>
 4    1  0.1956828E-002  0.9118800E+02  0.7818608E-02  0.1130116E+00
         25   -1    0    0    0    0  0.00000000000E+00  0.00000000000E+00  0.99999998245E-14  0.12500000000E+03  0.12500000000E+03 0.  0.
        -11    1    1    0    0    0  0.13104704932E+02  0.23380800154E+01  0.17250540722E+02  0.21789471425E+02  0.51100000000E-03 0. -1.
         11    1    1    0    0    0 -0.31767887659E+02  0.42192395666E+02 -0.31418296216E+01  0.52908109321E+02  0.51100000000E-03 0.  1.
         22    1    1    0    0    0  0.18663182727E+02 -0.44530475681E+02 -0.14108711100E+02  0.50302419254E+02  0.00000000000E+00 0.  1.
</event>
<event>
 4    1  0.1956828E-002  0.9118800E+02  0.7818608E-02  0.1130116E+00
         25   -1    0    0    0    0  0.00000000000E+00  0.00000000000E+00  0.99999998245E-14  0.12500000000E+03  0.12500000000E+03 0.  0.
        -11    1    1    0    0    0  0.82774134076E+01 -0.24510370096E+02  0.12400845616E+02  0.28688931441E+02  0.51100000000E-03 0.  1.
         11    1    1    0    0    0  0.15728488629E+02 -0.12644571333E+02  0.29260902059E+02  0.35545336238E+02  0.51100000000E-03 0. -1.
         22    1    1    0    0    0 -0.24005902036E+02  0.37154941429E+02 -0.41661747675E+02  0.60765732321E+02  0.00000000000E+00 0.  1.
</event>
<event>
 4    1  0.1956828E-002  0.9118800E+02  0.7818608E-02  0.1130116E+00
         25   -1    0    0    0    0  0.00000000000E+00  0.00000000000E+00  0.99999998245E-14  0.12500000000E+03  0.12500000000E+03 0.  0.
        -11    1    1    0    0    0  0.68675898260E+01  0.14032179410E+01  0.11452696404E+01  0.71024258827E+01  0.51100000000E-03 0. -1.
         11    1    1    0    0    0  0.53564219539E+02  0.10945006710E+02  0.89427310136E+01  0.55397574179E+02  0.51100000000E-03 0. -1.
         22    1    1    0    0    0 -0.60431809365E+02 -0.12348224651E+02 -0.10088000654E+02  0.62499999938E+02  0.00000000000E+00 0. -1.
</event>
<event>
 4    1  0.1956828E-002  0.9118800E+02  0.7818608E-02  0.1130116E+00
         25   -1    0    0    0    0  0.00000000000E+00  0.00000000000E+00  0.99999998245E-14  0.12500000000E+03  0.12500000000E+03 0.  0.
        -11    1    1    0    0    0  0.18031814826E+02 -0.37975461167E+02 -0.33029933400E+02  0.53462683223E+02  0.51100000000E-03 0.  1.
         11    1    1    0    0    0  0.35227397644E+01 -0.46104521780E+01 -0.71067835466E+01  0.91745483471E+01  0.51100000000E-03 0. -1.
         22    1    1    0    0    0 -0.21554554590E+02  0.42585913345E+02  0.40136716947E+02  0.62362768430E+02  0.00000000000E+00 0.  1.
</event>
<event>
 4    1  0.1956828E-002  0.9118800E+02  0.7818608E-02  0.1130116E+00
         25   -1    0    0    0    0  0.00000000000E+00  0.00000000000E+00  0.99999998245E-14  0.12500000000E+03  0.12500000000E+03 0.  0.
        -11    1    1    0    0    0  0.26022283872E+02 -0.76178359921E+01  0.27366865293E+01  0.27252158383E+02  0.51100000000E-03 0.  1.
         11    1    1    0    0    0  0.33659666535E+02 -0.98448201900E+01  0.35378975485E+01  0.35247841851E+02  0.51100000000E-03 0.  1.
         22    1    1    0    0    0 -0.59681950407E+02  0.17462656182E+02 -0.62745840778E+01  0.62499999766E+02  0.00000000000E+00 0.  1.
</event>
<event>
 4    1  0.1956828E-002  0.9118800E+02  0.7818608E-02  0.1130116E+00
         25   -1    0    0    0    0  0.00000000000E+00  0.00000000000E+00  0.99999998245E-14  0.12500000000E+03  0.12500000000E+03 0.  0.
        -11    1    1    0    0    0  0.24372536190E+02  0.23809222902E+02  0.29334698553E+02  0.44960250833E+02  0.51100000000E-03 0.  1.
         11    1    1    0    0    0  0.10822449091E+02  0.95121928341E+01  0.10067629761E+02  0.17577382800E+02  0.51100000000E-03 0. -1.
         22    1    1    0    0    0 -0.35194985280E+02 -0.33321415736E+02 -0.39402328314E+02  0.62462366367E+02  0.00000000000E+00 0. -1.
</event>
<event>
 4    1  0.1956828E-002  0.9118800E+02  0.7818608E-02  0.1130116E+00
         25   -1    0    0    0    0  0.00000000000E+00  0.00000000000E+00  0.99999998245E-14  0.12500000000E+03  0.12500000000E+03 0.  0.
        -11    1    1    0    0    0  0.20808126775E+02  0.16747596975E+02  0.53017044694E+02  0.59365538595E+02  0.51100000000E-03 0.  1.
         11    1    1    0    0    0  0.10954953029E+01  0.87953400741E+00  0.28019951901E+01  0.31344644415E+01  0.51100000000E-03 0. -1.
         22    1    1    0    0    0 -0.21903622078E+02 -0.17627130983E+02 -0.55819039884E+02  0.62499996963E+02  0.00000000000E+00 0.  1.
</event>
<event>
 4    1  0.1956828E-002  0.9118800E+02  0.7818608E-02  0.1130116E+00
         25   -1    0    0    0    0  0.00000000000E+00  0.00000000000E+00  0.99999998245E-14  0.12500000000E+03  0.12500000000E+03 0.  0.
        -11    1    1    0    0    0  0.19266502300E+02  0.94825905533E+01  0.10987615123E+02  0.24121470121E+02  0.51100000000E-03 0. -1.
         11    1    1    0    0    0  0.30475901477E+02  0.15169515473E+02  0.17721039750E+02  0.38378770442E+02  0.51100000000E-03 0.  1.
         22    1    1    0    0    0 -0.49742403777E+02 -0.24652106026E+02 -0.28708654873E+02  0.62499759437E+02  0.00000000000E+00 0. -1.
</event>
<event>
 4    1  0.1956828E-002  0.9118800E+02  0.7818608E-02  0.1130116E+00
         25   -1    0    0    0    0  0.00000000000E+00  0.00000000000E+00  0.99999998245E-14  0.12500000000E+03  0.12500000000E+03 0.  0.
        -11    1    1    0    0    0 -0.33614880523E+02  0.35156378165E+01 -0.22685423481E+02  0.40705630331E+02  0.51100000000E-03 0. -1.
         11    1    1    0    0    0 -0.17999035562E+02  0.18817880941E+01 -0.12144469648E+02  0.21794369706E+02  0.51100000000E-03 0.  1.
         22    1    1    0    0    0  0.51613916085E+02 -0.53974259106E+01  0.34829893129E+02  0.62499999964E+02  0.00000000000E+00 0. -1.
</event>
<event>
 4    1  0.1956828E-002  0.9118800E+02  0.7818608E-02  0.1130116E+00
         25   -1    0    0    0    0  0.00000000000E+00  0.00000000000E+00  0.99999998245E-14  0.12500000000E+03  0.12500000000E+03 0.  0.
        -11    1    1    0    0    0 -0.12018754232E+01  0.22633171493E+01  0.44468950668E+01  0.51324443541E+01  0.51100000000E-03 0.  1.
         11    1    1    0    0    0 -0.13411154248E+02  0.25439582226E+02  0.49638755654E+02  0.57367564575E+02  0.51100000000E-03 0. -1.
         22    1    1    0    0    0  0.14613029671E+02 -0.27702899375E+02 -0.54085650721E+02  0.62499991071E+02  0.00000000000E+00 0. -1.
</event>
<event>
 4    1  0.1956828E-002  0.9118800E+02  0.7818608E-02  0.1130116E+00
         25   -1    0    0    0    0  0.00000000000E+00  0.00000000000E+00  0.99999998245E-14  0.12500000000E+03  0.12500000000E+03 0.  0.
        -11    1    1    0    0    0 -0.13297515680E+02  0.43925462618E+02  0.25628254453E+02  0.52564984695E+02  0.51100000000E-03 0. -1.
         11    1    1    0    0    0 -0.37869871713E+01  0.84227558591E+01  0.38151844087E+01  0.99919828078E+01  0.51100000000E-03 0.  1.
         22    1    1    0    0    0  0.17084502851E+02 -0.52348218477E+02 -0.29443438862E+02  0.62443032497E+02  0.00000000000E+00 0. -1.
</event>
<event>
 4    1  0.1956828E-002  0.9118800E+02  0.7818608E-02  0.1130116E+00
         25   -1    0    0    0    0  0.00000000000E+00  0.00000000000E+00  0.99999998245E-14  0.12500000000E+03  0.12500000000E+03 0.  0.
        -11    1    1    0    0    0  0.50360097117E+01 -0.16653319487E+02 -0.26341956371E+02  0.31568862973E+02  0.51100000000E-03 0.  1.
         11    1    1    0    0    0  0.49752747509E+01 -0.16295742529E+02 -0.25815328772E+02  0.30931145845E+02  0.51100000000E-03 0. -1.
         22    1    1    0    0    0 -0.10011284463E+02  0.32949062016E+02  0.52157285142E+02  0.62499991182E+02  0.00000000000E+00 0.  1.
</event>
<event>
 4    1  0.1956828E-002  0.9118800E+02  0.7818608E-02  0.1130116E+00
         25   -1    0    0    0    0  0.00000000000E+00  0.00000000000E+00  0.99999998245E-14  0.12500000000E+03  0.12500000000E+03 0.  0.
        -11    1    1    0    0    0 -0.19500367013E+01  0.13721140566E+01 -0.30985141520E+01  0.39097481162E+01  0.51100000000E-03 0.  1.
         11    1    1    0    0    0 -0.29247432292E+02  0.20543571373E+02 -0.46425930565E+02  0.58590252172E+02  0.51100000000E-03 0. -1.
         22    1    1    0    0    0  0.31197468994E+02 -0.21915685430E+02  0.49524444717E+02  0.62499999712E+02  0.00000000000E+00 0. -1.
</event>
<event>
 4    1  0.1956828E-002  0.9118800E+02  0.7818608E-02  0.1130116E+00
         25   -1    0    0    0    0  0.00000000000E+00  0.00000000000E+00  0.99999998245E-14  0.12500000000E+03  0.12500000000E+03 0.  0.
        -11    1    1    0    0    0 -0.16309979687E+00  0.11531857635E+02  0.88656312390E+01  0.14546812695E+02  0.51100000000E-03 0. -1.
         11    1    1    0    0    0 -0.16951644718E+02  0.46069912796E+02 -0.11069306119E+02  0.50322208436E+02  0.51100000000E-03 0.  1.
         22    1    1    0    0    0  0.17114744515E+02 -0.57601770432E+02  0.22036748797E+01  0.60130978868E+02  0.00000000000E+00 0.  1.
</event>
<event>
 4    1  0.1956828E-002  0.9118800E+02  0.7818608E-02  0.1130116E+00
         25   -1    0    0    0    0  0.00000000000E+00  0.00000000000E+00  0.99999998245E-14  0.12500000000E+03  0.12500000000E+03 0.  0.
        -11    1    1    0    0    0 -0.17735876693E+02  0.45867611167E+02  0.20305208753E+02  0.53204328574E+02  0.51100000000E-03 0. -1.
         11    1    1    0    0    0 -0.31080958758E+01  0.79996702432E+01  0.35713982739E+01  0.92956909300E+01  0.51100000000E-03 0.  1.
         22    1    1    0    0    0  0.20843972569E+02 -0.53867281410E+02 -0.23876607027E+02  0.62499980496E+02  0.00000000000E+00 0. -1.
</event>
<event>
 4    1  0.1956828E-002  0.9118800E+02  0.7818608E-02  0.1130116E+00
         25   -1    0    0    0    0  0.00000000000E+00  0.00000000000E+00  0.99999998245E-14  0.12500000000E+03  0.12500000000E+03 0.  0.
        -11    1    1    0    0    0  0.20946241546E+02  0.40695601929E+01 -0.13013149004E+02  0.24992967057E+02  0.51100000000E-03 0.  1.
         11    1    1    0    0    0  0.31433813108E+02  0.61121023893E+01 -0.19527803849E+02  0.37507033014E+02  0.51100000000E-03 0. -1.
         22    1    1    0    0    0 -0.52380054654E+02 -0.10181662582E+02  0.32540952853E+02  0.62499999928E+02  0.00000000000E+00 0. -1.
</event>
<event>
 4    1  0.1956828E-002  0.9118800E+02  0.7818608E-02  0.1130116E+00
         25   -1    0    0    0    0  0.00000000000E+00  0.00000000000E+00  0.99999998245E-14  0.12500000000E+03  0.12500000000E+03 0.  0.
        -11    1    1    0    0    0 -0.36146219691E+01 -0.50171505430E+01  0.25136421986E+01  0.66750047876E+01  0.51100000000E-03 0. -1.
         11    1    1    0    0    0 -0.30213845981E+02 -0.41999966814E+02  0.20965606640E+02  0.55824997657E+02  0.51100000000E-03 0.  1.
         22    1    1    0    0    0  0.33828467950E+02  0.47017117357E+02 -0.23479248839E+02  0.62499997556E+02  0.00000000000E+00 0.  1.
</event>
<event>
 4    1  0.1956828E-002  0.9118800E+02  0.7818608E-02  0.1130116E+00
         25   -1    0    0    0    0  0.00000000000E+00  0.00000000000E+00  0.99999998245E-14  0.12500000000E+03  0.12500000000E+03 0.  0.
        -11    1    1    0    0    0  0.52037025524E+02 -0.13966015986E+02 -0.27657823963E+01  0.53949524377E+02  0.51100000000E-03 0.  1.
         11    1    1    0    0    0  0.81159351852E+01 -0.26024165873E+01 -0.76760548534E+00  0.85574642544E+01  0.51100000000E-03 0. -1.
         22    1    1    0    0    0 -0.60152960709E+02  0.16568432573E+02  0.35333878816E+01  0.62493011369E+02  0.00000000000E+00 0.  1.
</event>
<event>
 4    1  0.1956828E-002  0.9118800E+02  0.7818608E-02  0.1130116E+00
         25   -1    0    0    0    0  0.00000000000E+00  0.00000000000E+00  0.99999998245E-14  0.12500000000E+03  0.12500000000E+03 0.  0.
        -11    1    1    0    0    0  0.17824347384E+01  0.16444090737E+02  0.20800748577E+02  0.26575483728E+02  0.51100000000E-03 0. -1.
         11    1    1    0    0    0  0.41785489355E+01  0.31485838080E+02 -0.35791570949E+02  0.47852427546E+02  0.51100000000E-03 0.  1.
         22    1    1    0    0    0 -0.59609836739E+01 -0.47929928816E+02  0.14990822372E+02  0.50572088726E+02  0.00000000000E+00 0.  1.
</event>
<event>
 4    1  0.1956828E-002  0.9118800E+02  0.7818608E-02  0.1130116E+00
         25   -1    0    0    0    0  0.00000000000E+00  0.00000000000E+00  0.99999998245E-14  0.12500000000E+03  0.12500000000E+03 0.  0.
        -11    1    1    0    0    0  0.45988765364E+01  0.53306105992E+00  0.35662788506E+02  0.35962039761E+02  0.51100000000E-03 0.  1.
         11    1    1    0    0    0  0.33938684329E+01  0.39552120477E+00  0.26317077250E+02  0.26537960269E+02  0.51100000000E-03 0. -1.
         22    1    1    0    0    0 -0.79927449692E+01 -0.92858226469E+00 -0.61979865756E+02  0.62499999970E+02  0.00000000000E+00 0.  1.
</event>
<event>
 4    1  0.1956828E-002  0.9118800E+02  0.7818608E-02  0.1130116E+00
         25   -1    0    0    0    0  0.00000000000E+00  0.00000000000E+00  0.99999998245E-14  0.12500000000E+03  0.12500000000E+03 0.  0.
        -11    1    1    0    0    0 -0.30349901955E+02 -0.36544275955E+02  0.29073496563E+02  0.55694423926E+02  0.51100000000E-03 0.  1.
         11    1    1    0    0    0 -0.37022095587E+01 -0.44743796740E+01  0.35481683359E+01  0.68055806427E+01  0.51100000000E-03 0. -1.
         22    1    1    0    0    0  0.34052111514E+02  0.41018655629E+02 -0.32621664899E+02  0.62499995432E+02  0.00000000000E+00 0.  1.
</event>
<event>
 4    1  0.1956828E-002  0.9118800E+02  0.7818608E-02  0.1130116E+00
         25   -1    0    0    0    0  0.00000000000E+00  0.00000000000E+00  0.99999998245E-14  0.12500000000E+03  0.12500000000E+03 0.  0.
        -11    1    1    0    0    0  0.39169090617E+02 -0.42926795071E+02  0.89333368888E+01  0.58793978459E+02  0.51100000000E-03 0.  1.
         11    1    1    0    0    0  0.24957754938E+01 -0.26917044815E+01  0.51194711000E+00  0.37062458682E+01  0.51100000000E-03 0. -1.
         22    1    1    0    0    0 -0.41664866110E+02  0.45618499552E+02 -0.94452839988E+01  0.62499775673E+02  0.00000000000E+00 0.  1.
</event>
<event>
 4    1  0.1956828E-002  0.9118800E+02  0.7818608E-02  0.1130116E+00
         25   -1    0    0    0    0  0.00000000000E+00  0.00000000000E+00  0.99999998245E-14  0.12500000000E+03  0.12500000000E+03 0.  0.
        -11    1    1    0    0    0  0.19052761078E+02 -0.42370413178E+02 -0.15212335447E+02  0.48884299807E+02  0.51100000000E-03 0.  1.
         11    1    1    0    0    0  0.53068623848E+01 -0.11801250748E+02 -0.42373321927E+01  0.13615700201E+02  0.51100000000E-03 0.  1.
         22    1    1    0    0    0 -0.24359623463E+02  0.54171663926E+02  0.19449667640E+02  0.62499999992E+02  0.00000000000E+00 0.  1.
</event>
<event>
 4    1  0.1956828E-002  0.9118800E+02  0.7818608E-02  0.1130116E+00
         25   -1    0    0    0    0  0.00000000000E+00  0.00000000000E+00  0.99999998245E-14  0.12500000000E+03  0.12500000000E+03 0.  0.
        -11    1    1    0    0    0 -0.40668621596E+02  0.11745773615E+02 -0.31604349478E+02  0.52827406585E+02  0.51100000000E-03 0.  1.
         11    1    1    0    0    0 -0.74963771326E+01  0.20226762715E+01 -0.57689067045E+01  0.96730126765E+01  0.51100000000E-03 0. -1.
         22    1    1    0    0    0  0.48164998728E+02 -0.13768449886E+02  0.37373256183E+02  0.62499580738E+02  0.00000000000E+00 0.  1.
</event>
<event>
 4    1  0.1956828E-002  0.9118800E+02  0.7818608E-02  0.1130116E+00
         25   -1    0    0    0    0  0.00000000000E+00  0.00000000000E+00  0.99999998245E-14  0.12500000000E+03  0.12500000000E+03 0.  0.
        -11    1    1    0    0    0  0.30919414780E+02  0.23209734579E+02  0.19138316613E+02  0.43139044410E+02  0.51100000000E-03 0. -1.
         11    1    1    0    0    0  0.13130947164E+02 -0.11450952495E+02  0.16497274771E+02  0.23993877586E+02  0.51100000000E-03 0.  1.
         22    1    1    0    0    0 -0.44050361944E+02 -0.11758782084E+02 -0.35635591384E+02  0.57867078005E+02  0.00000000000E+00 0. -1.
</event>
<event>
 4    1  0.1956828E-002  0.9118800E+02  0.7818608E-02  0.1130116E+00
         25   -1    0    0    0    0  0.00000000000E+00  0.00000000000E+00  0.99999998245E-14  0.12500000000E+03  0.12500000000E+03 0.  0.
        -11    1    1    0    0    0 -0.30259095562E+01  0.39112572104E+01 -0.74552895636E+01  0.89462508542E+01  0.51100000000E-03 0. -1.
         11    1    1    0    0    0 -0.18166241399E+02  0.23046438654E+02 -0.44798049956E+02  0.53553860191E+02  0.51100000000E-03 0.  1.
         22    1    1    0    0    0  0.21192150955E+02 -0.26957695865E+02  0.52253339520E+02  0.62499888955E+02  0.00000000000E+00 0.  1.
</event>
<event>
 4    1  0.1956828E-002  0.9118800E+02  0.7818608E-02  0.1130116E+00
         25   -1    0    0    0    0  0.00000000000E+00  0.00000000000E+00  0.99999998245E-14  0.12500000000E+03  0.12500000000E+03 0.  0.
        -11    1    1    0    0    0 -0.35924453873E+01 -0.76718865214E+01 -0.91763389209E+01  0.12488743048E+02  0.51100000000E-03 0.  1.
         11    1    1    0    0    0 -0.37394056705E+01 -0.15223314785E+02 -0.47995485732E+02  0.50490584456E+02  0.51100000000E-03 0. -1.
         22    1    1    0    0    0  0.73318510578E+01  0.22895201306E+02  0.57171824653E+02  0.62020672496E+02  0.00000000000E+00 0. -1.
</event>
<event>
 4    1  0.1956828E-002  0.9118800E+02  0.7818608E-02  0.1130116E+00
         25   -1    0    0    0    0  0.00000000000E+00  0.00000000000E+00  0.99999998245E-14  0.12500000000E+03  0.12500000000E+03 0.  0.
        -11    1    1    0    0    0 -0.26636409656E+02  0.40897256129E+02  0.20896823065E+02  0.53092005921E+02  0.51100000000E-03 0.  1.
         11    1    1    0    0    0 -0.47671605806E+01  0.72082686689E+01  0.37184783031E+01  0.94080836708E+01  0.51100000000E-03 0. -1.
         22    1    1    0    0    0  0.31403570236E+02 -0.48105524798E+02 -0.24615301368E+02  0.62499910409E+02  0.00000000000E+00 0.  1.
</event>
<event>
 4    1  0.1956828E-002  0.9118800E+02  0.7818608E-02  0.1130116E+00
         25   -1    0    0    0    0  0.00000000000E+00  0.00000000000E+00  0.99999998245E-14  0.12500000000E+03  0.12500000000E+03 0.  0.
        -11    1    1    0    0    0  0.14240980191E+02  0.37587761016E+02  0.22532711364E+02  0.46080021448E+02  0.51100000000E-03 0.  1.
         11    1    1    0    0    0  0.50648111347E+01  0.13408211513E+02  0.80114589763E+01  0.16419985475E+02  0.51100000000E-03 0. -1.
         22    1    1    0    0    0 -0.19305791325E+02 -0.50995972529E+02 -0.30544170340E+02  0.62499993077E+02  0.00000000000E+00 0.  1.
</event>
<event>
 4    1  0.1956828E-002  0.9118800E+02  0.7818608E-02  0.1130116E+00
         25   -1    0    0    0    0  0.00000000000E+00  0.00000000000E+00  0.99999998245E-14  0.12500000000E+03  0.12500000000E+03 0.  0.
        -11    1    1    0    0    0 -0.30314296733E+01  0.49955336010E+01  0.97084302211E+00  0.59234667432E+01  0.51100000000E-03 0. -1.
         11    1    1    0    0    0 -0.28956834317E+02  0.47714572203E+02  0.92588051063E+01  0.56576533354E+02  0.51100000000E-03 0. -1.
         22    1    1    0    0    0  0.31988263990E+02 -0.52710105804E+02 -0.10229648128E+02  0.62499999902E+02  0.00000000000E+00 0. -1.
</event>
<event>
 4    1  0.1956828E-002  0.9118800E+02  0.7818608E-02  0.1130116E+00
         25   -1    0    0    0    0  0.00000000000E+00  0.00000000000E+00  0.99999998245E-14  0.12500000000E+03  0.12500000000E+03 0.  0.
        -11    1    1    0    0    0  0.15523765981E+02 -0.14951930149E+02 -0.37491812997E+02  0.43245619056E+02  0.51100000000E-03 0.  1.
         11    1    1    0    0    0  0.69016016123E+01 -0.66671805429E+01 -0.16692748567E+02  0.19254382778E+02  0.51100000000E-03 0. -1.
         22    1    1    0    0    0 -0.22425367593E+02  0.21619110692E+02  0.54184561564E+02  0.62499998166E+02  0.00000000000E+00 0.  1.
</event>
<event>
 4    1  0.1956828E-002  0.9118800E+02  0.7818608E-02  0.1130116E+00
         25   -1    0    0    0    0  0.00000000000E+00  0.00000000000E+00  0.99999998245E-14  0.12500000000E+03  0.12500000000E+03 0.  0.
        -11    1    1    0    0    0 -0.12217289796E+02 -0.13534343100E+02  0.10975405165E+02  0.21281450418E+02  0.51100000000E-03 0.  1.
         11    1    1    0    0    0 -0.24775076012E+02 -0.28134105532E+02  0.17240192709E+02  0.41262047095E+02  0.51100000000E-03 0. -1.
         22    1    1    0    0    0  0.36992365808E+02  0.41668448632E+02 -0.28215597874E+02  0.62456502487E+02  0.00000000000E+00 0. -1.
</event>
<event>
 4    1  0.1956828E-002  0.9118800E+02  0.7818608E-02  0.1130116E+00
         25   -1    0    0    0    0  0.00000000000E+00  0.00000000000E+00  0.99999998245E-14  0.12500000000E+03  0.12500000000E+03 0.  0.
        -11    1    1    0    0    0 -0.33710105457E+01 -0.10176660350E+02 -0.19559794693E+02  0.22305015057E+02  0.51100000000E-03 0.  1.
         11    1    1    0    0    0 -0.60484425016E+01 -0.18342731576E+02 -0.35250496219E+02  0.40194986532E+02  0.51100000000E-03 0. -1.
         22    1    1    0    0    0  0.94194530474E+01  0.28519391925E+02  0.54810290912E+02  0.62499998411E+02  0.00000000000E+00 0. -1.
</event>
<event>
 4    1  0.1956828E-002  0.9118800E+02  0.7818608E-02  0.1130116E+00
         25   -1    0    0    0    0  0.00000000000E+00  0.00000000000E+00  0.99999998245E-14  0.12500000000E+03  0.12500000000E+03 0.  0.
        -11    1    1    0    0    0  0.32688334801E+01 -0.54800941924E+01 -0.50912515491E+00  0.64012431107E+01  0.51100000000E-03 0.  1.
         11    1    1    0    0    0 -0.42706338063E+02  0.64665775472E+01  0.42770358875E+02  0.60786113007E+02  0.51100000000E-03 0. -1.
         22    1    1    0    0    0  0.39437504582E+02 -0.98648335479E+00 -0.42261233721E+02  0.57812643882E+02  0.00000000000E+00 0. -1.
</event>
<event>
 4    1  0.1956828E-002  0.9118800E+02  0.7818608E-02  0.1130116E+00
         25   -1    0    0    0    0  0.00000000000E+00  0.00000000000E+00  0.99999998245E-14  0.12500000000E+03  0.12500000000E+03 0.  0.
        -11    1    1    0    0    0 -0.17718195890E+02 -0.94686644370E+01 -0.25246653328E+02  0.32264277093E+02  0.51100000000E-03 0.  1.
         11    1    1    0    0    0  0.53870407016E+01 -0.19579895662E+01 -0.32289243078E+02  0.32794041372E+02  0.51100000000E-03 0. -1.
         22    1    1    0    0    0  0.12331155188E+02  0.11426654003E+02  0.57535896406E+02  0.59941681535E+02  0.00000000000E+00 0.  1.
</event>
<event>
 4    1  0.1956828E-002  0.9118800E+02  0.7818608E-02  0.1130116E+00
         25   -1    0    0    0    0  0.00000000000E+00  0.00000000000E+00  0.99999998245E-14  0.12500000000E+03  0.12500000000E+03 0.  0.
        -11    1    1    0    0    0  0.45649076658E+00 -0.23356318746E+02  0.13029188092E+01  0.23397085435E+02  0.51100000000E-03 0.  1.
         11    1    1    0    0    0  0.72274826803E+00 -0.39030368777E+02  0.22688637299E+01  0.39102938442E+02  0.51100000000E-03 0. -1.
         22    1    1    0    0    0 -0.11792390346E+01  0.62386687523E+02 -0.35717825391E+01  0.62499976122E+02  0.00000000000E+00 0.  1.
</event>
<event>
 4    1  0.1956828E-002  0.9118800E+02  0.7818608E-02  0.1130116E+00
         25   -1    0    0    0    0  0.00000000000E+00  0.00000000000E+00  0.99999998245E-14  0.12500000000E+03  0.12500000000E+03 0.  0.
        -11    1    1    0    0    0  0.84720687948E-02  0.13285673976E+02  0.18727900764E+02  0.22961782859E+02  0.51100000000E-03 0.  1.
         11    1    1    0    0    0 -0.17795675208E-01  0.22853861507E+02  0.32264092271E+02  0.39538221417E+02  0.51100000000E-03 0. -1.
         22    1    1    0    0    0  0.93236064131E-02 -0.36139535483E+02 -0.50991993035E+02  0.62499995724E+02  0.00000000000E+00 0. -1.
</event>
<event>
 4    1  0.1956828E-002  0.9118800E+02  0.7818608E-02  0.1130116E+00
         25   -1    0    0    0    0  0.00000000000E+00  0.00000000000E+00  0.99999998245E-14  0.12500000000E+03  0.12500000000E+03 0.  0.
        -11    1    1    0    0    0  0.25372511289E+02 -0.18265204442E+02 -0.46182187002E+02  0.55768955692E+02  0.51100000000E-03 0.  1.
         11    1    1    0    0    0  0.30698147645E+01 -0.22067803302E+01 -0.55689634240E+01  0.67310471691E+01  0.51100000000E-03 0. -1.
         22    1    1    0    0    0 -0.28442326054E+02  0.20471984772E+02  0.51751150426E+02  0.62499997139E+02  0.00000000000E+00 0.  1.
</event>
<event>
 4    1  0.1956828E-002  0.9118800E+02  0.7818608E-02  0.1130116E+00
         25   -1    0    0    0    0  0.00000000000E+00  0.00000000000E+00  0.99999998245E-14  0.12500000000E+03  0.12500000000E+03 0.  0.
        -11    1    1    0    0    0 -0.39421100559E+01  0.12525051863E+02 -0.37095031367E+00  0.13136010059E+02  0.51100000000E-03 0. -1.
         11    1    1    0    0    0 -0.27288677052E+02  0.11883033177E+02  0.43870376473E+02  0.53014038753E+02  0.51100000000E-03 0.  1.
         22    1    1    0    0    0  0.31230787108E+02 -0.24408085040E+02 -0.43499426159E+02  0.58849951189E+02  0.00000000000E+00 0.  1.
</event>
<event>
 4    1  0.1956828E-002  0.9118800E+02  0.7818608E-02  0.1130116E+00
         25   -1    0    0    0    0  0.00000000000E+00  0.00000000000E+00  0.99999998245E-14  0.12500000000E+03  0.12500000000E+03 0.  0.
        -11    1    1    0    0    0 -0.64996476899E+01 -0.49181175337E+02  0.63619843170E+00  0.49612883169E+02  0.51100000000E-03 0.  1.
         11    1    1    0    0    0 -0.16877924442E+01 -0.12775062965E+02  0.16402357247E+00  0.12887116865E+02  0.51100000000E-03 0. -1.
         22    1    1    0    0    0  0.81874401341E+01  0.61956238302E+02 -0.80022200417E+00  0.62499999966E+02  0.00000000000E+00 0.  1.
</event>
<event>
 4    1  0.1956828E-002  0.9118800E+02  0.7818608E-02  0.1130116E+00
         25   -1    0    0    0    0  0.00000000000E+00  0.00000000000E+00  0.99999998245E-14  0.12500000000E+03  0.12500000000E+03 0.  0.
        -11    1    1    0    0    0 -0.20585785693E+02 -0.16778629392E+02 -0.23297164030E+02  0.35327819477E+02  0.51100000000E-03 0. -1.
         11    1    1    0    0    0 -0.15832871005E+02 -0.12898244033E+02 -0.17924366465E+02  0.27172180936E+02  0.51100000000E-03 0.  1.
         22    1    1    0    0    0  0.36418656698E+02  0.29676873425E+02  0.41221530495E+02  0.62499999587E+02  0.00000000000E+00 0. -1.
</event>
<event>
 4    1  0.1956828E-002  0.9118800E+02  0.7818608E-02  0.1130116E+00
         25   -1    0    0    0    0  0.00000000000E+00  0.00000000000E+00  0.99999998245E-14  0.12500000000E+03  0.12500000000E+03 0.  0.
        -11    1    1    0    0    0 -0.85663836664E+00 -0.12515660041E+00  0.22049717470E+01  0.23688381397E+01  0.51100000000E-03 0.  1.
         11    1    1    0    0    0 -0.22065843264E+02 -0.36954084035E+01  0.55814036406E+02  0.60131224355E+02  0.51100000000E-03 0. -1.
         22    1    1    0    0    0  0.22922481630E+02  0.38205650039E+01 -0.58019008153E+02  0.62499937505E+02  0.00000000000E+00 0. -1.
</event>
<event>
 4    1  0.1956828E-002  0.9118800E+02  0.7818608E-02  0.1130116E+00
         25   -1    0    0    0    0  0.00000000000E+00  0.00000000000E+00  0.99999998245E-14  0.12500000000E+03  0.12500000000E+03 0.  0.
        -11    1    1    0    0    0  0.61479691168E+01 -0.59709679302E+01  0.69654206135E+01  0.11043870104E+02  0.51100000000E-03 0.  1.
         11    1    1    0    0    0  0.28644659632E+02 -0.27818606660E+02  0.32455229208E+02  0.51456129908E+02  0.51100000000E-03 0.  1.
         22    1    1    0    0    0 -0.34792628749E+02  0.33789574590E+02 -0.39420649821E+02  0.62499999988E+02  0.00000000000E+00 0.  1.
</event>
<event>
 4    1  0.1956828E-002  0.9118800E+02  0.7818608E-02  0.1130116E+00
         25   -1    0    0    0    0  0.00000000000E+00  0.00000000000E+00  0.99999998245E-14  0.12500000000E+03  0.12500000000E+03 0.  0.
        -11    1    1    0    0    0  0.18804076401E+02 -0.26523312655E+01  0.26645773025E+02  0.32720412143E+02  0.51100000000E-03 0.  1.
         11    1    1    0    0    0  0.17114226233E+02 -0.24162682547E+01  0.24250541490E+02  0.29779587885E+02  0.51100000000E-03 0. -1.
         22    1    1    0    0    0 -0.35918302634E+02  0.50685995201E+01 -0.50896314515E+02  0.62499999971E+02  0.00000000000E+00 0. -1.
</event>
<event>
 4    1  0.1956828E-002  0.9118800E+02  0.7818608E-02  0.1130116E+00
         25   -1    0    0    0    0  0.00000000000E+00  0.00000000000E+00  0.99999998245E-14  0.12500000000E+03  0.12500000000E+03 0.  0.
        -11    1    1    0    0    0  0.11721366149E+01  0.78259672604E+01 -0.10918514223E+02  0.13484569734E+02  0.51100000000E-03 0.  1.
         11    1    1    0    0    0  0.45360795021E+01  0.28561579280E+02 -0.39575037062E+02  0.49015542299E+02  0.51100000000E-03 0. -1.
         22    1    1    0    0    0 -0.57082161169E+01 -0.36387546540E+02  0.50493551285E+02  0.62499887967E+02  0.00000000000E+00 0. -1.
</event>
<event>
 4    1  0.1956828E-002  0.9118800E+02  0.7818608E-02  0.1130116E+00
         25   -1    0    0    0    0  0.00000000000E+00  0.00000000000E+00  0.99999998245E-14  0.12500000000E+03  0.12500000000E+03 0.  0.
        -11    1    1    0    0    0  0.42408680281E+01 -0.79859667322E+01 -0.11101109450E+01  0.91100479061E+01  0.51100000000E-03 0.  1.
         11    1    1    0    0    0  0.23361993368E+02 -0.47518487620E+02 -0.68487776153E+01  0.53391901586E+02  0.51100000000E-03 0. -1.
         22    1    1    0    0    0 -0.27602861396E+02  0.55504454353E+02  0.79588885604E+01  0.62498050508E+02  0.00000000000E+00 0. -1.
</event>
<event>
 4    1  0.1956828E-002  0.9118800E+02  0.7818608E-02  0.1130116E+00
         25   -1    0    0    0    0  0.00000000000E+00  0.00000000000E+00  0.99999998245E-14  0.12500000000E+03  0.12500000000E+03 0.  0.
        -11    1    1    0    0    0  0.10046676802E+00 -0.46200117525E+02 -0.29408344081E+02  0.54765971686E+02  0.51100000000E-03 0. -1.
         11    1    1    0    0    0  0.81384556767E+01 -0.61019110623E+01  0.12024379686E+01  0.10242735804E+02  0.51100000000E-03 0.  1.
         22    1    1    0    0    0 -0.82389224447E+01  0.52302028587E+02  0.28205906113E+02  0.59991292510E+02  0.00000000000E+00 0. -1.
</event>
<event>
 4    1  0.1956828E-002  0.9118800E+02  0.7818608E-02  0.1130116E+00
         25   -1    0    0    0    0  0.00000000000E+00  0.00000000000E+00  0.99999998245E-14  0.12500000000E+03  0.12500000000E+03 0.  0.
        -11    1    1    0    0    0 -0.25838110439E+02 -0.84235232006E+01 -0.24753521031E+02  0.36760039417E+02  0.51100000000E-03 0. -1.
         11    1    1    0    0    0 -0.18233731084E+02 -0.55353819726E+01 -0.17305519453E+02  0.25740831506E+02  0.51100000000E-03 0.  1.
         22    1    1    0    0    0  0.44071841523E+02  0.13958905173E+02  0.42059040485E+02  0.62499129077E+02  0.00000000000E+00 0.  1.
</event>
<event>
 4    1  0.1956828E-002  0.9118800E+02  0.7818608E-02  0.1130116E+00
         25   -1    0    0    0    0  0.00000000000E+00  0.00000000000E+00  0.99999998245E-14  0.12500000000E+03  0.12500000000E+03 0.  0.
        -11    1    1    0    0    0 -0.22803815054E+02 -0.44670056810E+02  0.10144733339E+02  0.51169752502E+02  0.51100000000E-03 0. -1.
         11    1    1    0    0    0 -0.45633491283E+01 -0.99218677167E+01  0.30804127595E+01  0.11347094663E+02  0.51100000000E-03 0.  1.
         22    1    1    0    0    0  0.27367164182E+02  0.54591924526E+02 -0.13225146099E+02  0.62483152835E+02  0.00000000000E+00 0. -1.
</event>
<event>
 4    1  0.1956828E-002  0.9118800E+02  0.7818608E-02  0.1130116E+00
         25   -1    0    0    0    0  0.00000000000E+00  0.00000000000E+00  0.99999998245E-14  0.12500000000E+03  0.12500000000E+03 0.  0.
        -11    1    1    0    0    0  0.52784329198E+01  0.65679717263E+01  0.20238026630E+02  0.21922085412E+02  0.51100000000E-03 0.  1.
         11    1    1    0    0    0  0.85821313093E+01  0.97371237573E+01  0.38464979437E+02  0.40595802742E+02  0.51100000000E-03 0. -1.
         22    1    1    0    0    0 -0.13860564229E+02 -0.16305095484E+02 -0.58703006067E+02  0.62482111846E+02  0.00000000000E+00 0. -1.
</event>
<event>
 4    1  0.1956828E-002  0.9118800E+02  0.7818608E-02  0.1130116E+00
         25   -1    0    0    0    0  0.00000000000E+00  0.00000000000E+00  0.99999998245E-14  0.12500000000E+03  0.12500000000E+03 0.  0.
        -11    1    1    0    0    0 -0.11230288890E+02  0.93102260036E+01  0.26099895341E+02  0.29899903577E+02  0.51100000000E-03 0.  1.
         11    1    1    0    0    0 -0.12216105448E+02  0.10223660466E+02  0.28443124330E+02  0.32600119440E+02  0.51100000000E-03 0. -1.
         22    1    1    0    0    0  0.23446394338E+02 -0.19533886469E+02 -0.54543019671E+02  0.62499976983E+02  0.00000000000E+00 0.  1.
</event>
<event>
 4    1  0.1956828E-002  0.9118800E+02  0.7818608E-02  0.1130116E+00
         25   -1    0    0    0    0  0.00000000000E+00  0.00000000000E+00  0.99999998245E-14  0.12500000000E+03  0.12500000000E+03 0.  0.
        -11    1    1    0    0    0 -0.47108322735E+01  0.16716905163E+01  0.27850253483E+01  0.57221373929E+01  0.51100000000E-03 0.  1.
         11    1    1    0    0    0 -0.47560583854E+02  0.14292946858E+02  0.27526356865E+02  0.56780258796E+02  0.51100000000E-03 0. -1.
         22    1    1    0    0    0  0.52271416127E+02 -0.15964637374E+02 -0.30311382213E+02  0.62497603811E+02  0.00000000000E+00 0. -1.
</event>
<event>
 4    1  0.1956828E-002  0.9118800E+02  0.7818608E-02  0.1130116E+00
         25   -1    0    0    0    0  0.00000000000E+00  0.00000000000E+00  0.99999998245E-14  0.12500000000E+03  0.12500000000E+03 0.  0.
        -11    1    1    0    0    0  0.52089010711E+01 -0.45977778336E+01 -0.66528797099E+01  0.96194085095E+01  0.51100000000E-03 0. -1.
         11    1    1    0    0    0  0.40097642483E+02 -0.16915548391E+02 -0.30346359029E+02  0.53055237410E+02  0.51100000000E-03 0.  1.
         22    1    1    0    0    0 -0.45306543554E+02  0.21513326225E+02  0.36999238739E+02  0.62325354081E+02  0.00000000000E+00 0.  1.
</event>
<event>
 4    1  0.1956828E-002  0.9118800E+02  0.7818608E-02  0.1130116E+00
         25   -1    0    0    0    0  0.00000000000E+00  0.00000000000E+00  0.99999998245E-14  0.12500000000E+03  0.12500000000E+03 0.  0.
        -11    1    1    0    0    0 -0.14253843226E+01  0.97316418213E+00  0.27886390198E+02  0.27939748165E+02  0.51100000000E-03 0.  1.
         11    1    1    0    0    0 -0.17604012707E+01  0.12054129141E+01  0.34494332524E+02  0.34560251872E+02  0.51100000000E-03 0.  1.
         22    1    1    0    0    0  0.31857855933E+01 -0.21785770963E+01 -0.62380722722E+02  0.62499999963E+02  0.00000000000E+00 0.  1.
</event>
<event>
 4    1  0.1956828E-002  0.9118800E+02  0.7818608E-02  0.1130116E+00
         25   -1    0    0    0    0  0.00000000000E+00  0.00000000000E+00  0.99999998245E-14  0.12500000000E+03  0.12500000000E+03 0.  0.
        -11    1    1    0    0    0  0.69358739423E-01  0.22116562948E+02  0.75796269650E+00  0.22129656007E+02  0.51100000000E-03 0. -1.
         11    1    1    0    0    0  0.12676215392E+00  0.40346516443E+02  0.13810202864E+01  0.40370344005E+02  0.51100000000E-03 0. -1.
         22    1    1    0    0    0 -0.19612089335E+00 -0.62463079391E+02 -0.21389829829E+01  0.62499999989E+02  0.00000000000E+00 0. -1.
</event>
<event>
 4    1  0.1956828E-002  0.9118800E+02  0.7818608E-02  0.1130116E+00
         25   -1    0    0    0    0  0.00000000000E+00  0.00000000000E+00  0.99999998245E-14  0.12500000000E+03  0.12500000000E+03 0.  0.
        -11    1    1    0    0    0 -0.56419154137E+01 -0.32877606082E+01  0.10683717032E+01  0.66167966350E+01  0.51100000000E-03 0. -1.
         11    1    1    0    0    0  0.11582763614E+02  0.52624290107E+02 -0.29192612579E+02  0.61283643427E+02  0.51100000000E-03 0.  1.
         22    1    1    0    0    0 -0.59408482002E+01 -0.49336529499E+02  0.28124240875E+02  0.57099559938E+02  0.00000000000E+00 0.  1.
</event>
<event>
 4    1  0.1956828E-002  0.9118800E+02  0.7818608E-02  0.1130116E+00
         25   -1    0    0    0    0  0.00000000000E+00  0.00000000000E+00  0.99999998245E-14  0.12500000000E+03  0.12500000000E+03 0.  0.
        -11    1    1    0    0    0 -0.41825384849E+01 -0.51073454985E+02 -0.84286380096E+01  0.51932969983E+02  0.51100000000E-03 0.  1.
         11    1    1    0    0    0 -0.60279811480E+01 -0.53179670708E+01 -0.10035146411E+02  0.12857740635E+02  0.51100000000E-03 0. -1.
         22    1    1    0    0    0  0.10210519633E+02  0.56391422056E+02  0.18463784421E+02  0.60209289382E+02  0.00000000000E+00 0.  1.
</event>
<event>
 4    1  0.1956828E-002  0.9118800E+02  0.7818608E-02  0.1130116E+00
         25   -1    0    0    0    0  0.00000000000E+00  0.00000000000E+00  0.99999998245E-14  0.12500000000E+03  0.12500000000E+03 0.  0.
        -11    1    1    0    0    0 -0.28597774925E+02  0.22645868500E+02  0.40427386001E+02  0.54452195823E+02  0.51100000000E-03 0. -1.
         11    1    1    0    0    0 -0.51788987348E+01  0.20048071343E+01  0.59254318902E+01  0.81210213088E+01  0.51100000000E-03 0.  1.
         22    1    1    0    0    0  0.33776673660E+02 -0.24650675635E+02 -0.46352817892E+02  0.62426782868E+02  0.00000000000E+00 0. -1.
</event>
<event>
 4    1  0.1956828E-002  0.9118800E+02  0.7818608E-02  0.1130116E+00
         25   -1    0    0    0    0  0.00000000000E+00  0.00000000000E+00  0.99999998245E-14  0.12500000000E+03  0.12500000000E+03 0.  0.
        -11    1    1    0    0    0 -0.16766876863E+02  0.11469388026E+02 -0.31231286704E+02  0.37256788520E+02  0.51100000000E-03 0. -1.
         11    1    1    0    0    0 -0.10664654624E+02  0.66558626492E+01 -0.21905819108E+02  0.25256687766E+02  0.51100000000E-03 0.  1.
         22    1    1    0    0    0  0.27431531488E+02 -0.18125250675E+02  0.53137105812E+02  0.62486523714E+02  0.00000000000E+00 0. -1.
</event>
<event>
 4    1  0.1956828E-002  0.9118800E+02  0.7818608E-02  0.1130116E+00
         25   -1    0    0    0    0  0.00000000000E+00  0.00000000000E+00  0.99999998245E-14  0.12500000000E+03  0.12500000000E+03 0.  0.
        -11    1    1    0    0    0  0.76843557604E+00  0.97022627919E+01  0.22048784076E+02  0.24101312744E+02  0.51100000000E-03 0. -1.
         11    1    1    0    0    0  0.13259882982E+01  0.15820889921E+02  0.34963310106E+02  0.38399112707E+02  0.51100000000E-03 0.  1.
         22    1    1    0    0    0 -0.20944238742E+01 -0.25523152712E+02 -0.57012094182E+02  0.62499574549E+02  0.00000000000E+00 0. -1.
</event>
<event>
 4    1  0.1956828E-002  0.9118800E+02  0.7818608E-02  0.1130116E+00
         25   -1    0    0    0    0  0.00000000000E+00  0.00000000000E+00  0.99999998245E-14  0.12500000000E+03  0.12500000000E+03 0.  0.
        -11    1    1    0    0    0 -0.34291035511E+01 -0.17398545160E+02  0.12812952767E+02  0.21877840015E+02  0.51100000000E-03 0.  1.
         11    1    1    0    0    0 -0.56413691092E+01 -0.32448854371E+02  0.23780296353E+02  0.40623339231E+02  0.51100000000E-03 0. -1.
         22    1    1    0    0    0  0.90704726603E+01  0.49847399531E+02 -0.36593249120E+02  0.62498820753E+02  0.00000000000E+00 0. -1.
</event>
<event>
 4    1  0.1956828E-002  0.9118800E+02  0.7818608E-02  0.1130116E+00
         25   -1    0    0    0    0  0.00000000000E+00  0.00000000000E+00  0.99999998245E-14  0.12500000000E+03  0.12500000000E+03 0.  0.
        -11    1    1    0    0    0 -0.53950684615E+01  0.85417082809E+01  0.25108450377E+01  0.10410181897E+02  0.51100000000E-03 0.  1.
         11    1    1    0    0    0 -0.48185186283E+02  0.26743652379E+00  0.24373205642E+02  0.53999415302E+02  0.51100000000E-03 0. -1.
         22    1    1    0    0    0  0.53580254744E+02 -0.88091448047E+01 -0.26884050680E+02  0.60590402801E+02  0.00000000000E+00 0. -1.
</event>
<event>
 4    1  0.1956828E-002  0.9118800E+02  0.7818608E-02  0.1130116E+00
         25   -1    0    0    0    0  0.00000000000E+00  0.00000000000E+00  0.99999998245E-14  0.12500000000E+03  0.12500000000E+03 0.  0.
        -11    1    1    0    0    0 -0.97992415173E+01 -0.18806195153E+01 -0.18116041435E+02  0.20682186094E+02  0.51100000000E-03 0.  1.
         11    1    1    0    0    0 -0.19827705364E+02 -0.37051068940E+01 -0.36631481631E+02  0.41817833083E+02  0.51100000000E-03 0. -1.
         22    1    1    0    0    0  0.29626946881E+02  0.55857264093E+01  0.54747523066E+02  0.62499980823E+02  0.00000000000E+00 0. -1.
</event>
<event>
 4    1  0.1956828E-002  0.9118800E+02  0.7818608E-02  0.1130116E+00
         25   -1    0    0    0    0  0.00000000000E+00  0.00000000000E+00  0.99999998245E-14  0.12500000000E+03  0.12500000000E+03 0.  0.
        -11    1    1    0    0    0 -0.17433146309E+02 -0.14064924382E+02 -0.26279199680E+02  0.34530175560E+02  0.51100000000E-03 0.  1.
         11    1    1    0    0    0 -0.96879695444E+00 -0.51402751183E+01 -0.28817722981E+02  0.29288601092E+02  0.51100000000E-03 0. -1.
         22    1    1    0    0    0  0.18401943264E+02  0.19205199501E+02  0.55096922661E+02  0.61181223349E+02  0.00000000000E+00 0. -1.
</event>
<event>
 4    1  0.1956828E-002  0.9118800E+02  0.7818608E-02  0.1130116E+00
         25   -1    0    0    0    0  0.00000000000E+00  0.00000000000E+00  0.99999998245E-14  0.12500000000E+03  0.12500000000E+03 0.  0.
        -11    1    1    0    0    0  0.39092030920E+01  0.52836066061E+02 -0.49319082875E+01  0.53209542991E+02  0.51100000000E-03 0.  1.
         11    1    1    0    0    0  0.82437299831E+00  0.92010846791E+01 -0.99471048785E+00  0.92913400179E+01  0.51100000000E-03 0. -1.
         22    1    1    0    0    0 -0.47335760903E+01 -0.62037150740E+02  0.59266187753E+01  0.62499116991E+02  0.00000000000E+00 0.  1.
</event>
<event>
 4    1  0.1956828E-002  0.9118800E+02  0.7818608E-02  0.1130116E+00
         25   -1    0    0    0    0  0.00000000000E+00  0.00000000000E+00  0.99999998245E-14  0.12500000000E+03  0.12500000000E+03 0.  0.
        -11    1    1    0    0    0  0.40735806373E+01 -0.15826531879E+02 -0.13700170615E+02  0.21325286532E+02  0.51100000000E-03 0. -1.
         11    1    1    0    0    0  0.78687681311E+01 -0.30556441283E+02 -0.26452663684E+02  0.41174713502E+02  0.51100000000E-03 0. -1.
         22    1    1    0    0    0 -0.11942348768E+02  0.46382973162E+02  0.40152834299E+02  0.62499999966E+02  0.00000000000E+00 0. -1.
</event>
<event>
 4    1  0.1956828E-002  0.9118800E+02  0.7818608E-02  0.1130116E+00
         25   -1    0    0    0    0  0.00000000000E+00  0.00000000000E+00  0.99999998245E-14  0.12500000000E+03  0.12500000000E+03 0.  0.
        -11    1    1    0    0    0 -0.17392414117E+02 -0.28645238257E+02  0.28780378023E+02  0.44174154242E+02  0.51100000000E-03 0. -1.
         11    1    1    0    0    0 -0.71693766203E+01 -0.11884715518E+02  0.11966252326E+02  0.18325872941E+02  0.51100000000E-03 0.  1.
         22    1    1    0    0    0  0.24561790737E+02  0.40529953775E+02 -0.40746630349E+02  0.62499972816E+02  0.00000000000E+00 0. -1.
</event>
<event>
 4    1  0.1956828E-002  0.9118800E+02  0.7818608E-02  0.1130116E+00
         25   -1    0    0    0    0  0.00000000000E+00  0.00000000000E+00  0.99999998245E-14  0.12500000000E+03  0.12500000000E+03 0.  0.
        -11    1    1    0    0    0  0.45053166538E+01  0.17488003646E+01 -0.97285711648E+00  0.49297699841E+01  0.51100000000E-03 0. -1.
         11    1    1    0    0    0  0.51274034073E+02  0.20941625939E+02 -0.15734961777E+02  0.57577489433E+02  0.51100000000E-03 0.  1.
         22    1    1    0    0    0 -0.55779350727E+02 -0.22690426303E+02  0.16707818893E+02  0.62492740582E+02  0.00000000000E+00 0.  1.
</event>
<event>
 4    1  0.1956828E-002  0.9118800E+02  0.7818608E-02  0.1130116E+00
         25   -1    0    0    0    0  0.00000000000E+00  0.00000000000E+00  0.99999998245E-14  0.12500000000E+03  0.12500000000E+03 0.  0.
        -11    1    1    0    0    0  0.93290036760E+01 -0.25556381229E+01 -0.96673831468E+01  0.13675521671E+02  0.51100000000E-03 0. -1.
         11    1    1    0    0    0  0.33316709914E+02 -0.91120526693E+01 -0.34507927400E+02  0.48824478666E+02  0.51100000000E-03 0.  1.
         22    1    1    0    0    0 -0.42645713590E+02  0.11667690792E+02  0.44175310547E+02  0.62499999663E+02  0.00000000000E+00 0.  1.
</event>
<event>
 4    1  0.1956828E-002  0.9118800E+02  0.7818608E-02  0.1130116E+00
         25   -1    0    0    0    0  0.00000000000E+00  0.00000000000E+00  0.99999998245E-14  0.12500000000E+03  0.12500000000E+03 0.  0.
        -11    1    1    0    0    0 -0.35714680059E+02  0.40288548308E+02 -0.14841927920E+02  0.55847903462E+02  0.51100000000E-03 0. -1.
         11    1    1    0    0    0 -0.42537083698E+01  0.48000366744E+01 -0.17652209603E+01  0.66520968326E+01  0.51100000000E-03 0.  1.
         22    1    1    0    0    0  0.39968388429E+02 -0.45088584982E+02  0.16607148880E+02  0.62499999706E+02  0.00000000000E+00 0. -1.
</event>
<event>
 4    1  0.1956828E-002  0.9118800E+02  0.7818608E-02  0.1130116E+00
         25   -1    0    0    0    0  0.00000000000E+00  0.00000000000E+00  0.99999998245E-14  0.12500000000E+03  0.12500000000E+03 0.  0.
        -11    1    1    0    0    0 -0.53724371474E+01  0.70890276827E+01 -0.20126731348E+01  0.91196627020E+01  0.51100000000E-03 0.  1.
         11    1    1    0    0    0 -0.28757935276E+02  0.43471448647E+02 -0.11553835739E+02  0.53387983754E+02  0.51100000000E-03 0. -1.
         22    1    1    0    0    0  0.34130372423E+02 -0.50560476330E+02  0.13566508874E+02  0.62492353544E+02  0.00000000000E+00 0. -1.
</event>
<event>
 4    1  0.1956828E-002  0.9118800E+02  0.7818608E-02  0.1130116E+00
         25   -1    0    0    0    0  0.00000000000E+00  0.00000000000E+00  0.99999998245E-14  0.12500000000E+03  0.12500000000E+03 0.  0.
        -11    1    1    0    0    0  0.20188276469E+01  0.26866657289E+02  0.85949132711E+01  0.28280125059E+02  0.51100000000E-03 0. -1.
         11    1    1    0    0    0  0.36854407322E+02  0.14410451629E+02 -0.52862171458E+01  0.39923082887E+02  0.51100000000E-03 0.  1.
         22    1    1    0    0    0 -0.38873234969E+02 -0.41277108918E+02 -0.33086961253E+01  0.56796792054E+02  0.00000000000E+00 0.  1.
</event>
<event>
 4    1  0.1956828E-002  0.9118800E+02  0.7818608E-02  0.1130116E+00
         25   -1    0    0    0    0  0.00000000000E+00  0.00000000000E+00  0.99999998245E-14  0.12500000000E+03  0.12500000000E+03 0.  0.
        -11    1    1    0    0    0 -0.14756041732E+02  0.39633066436E+01  0.11840238761E+02  0.19329765164E+02  0.51100000000E-03 0. -1.
         11    1    1    0    0    0 -0.32959434228E+02  0.88521928916E+01  0.26438297201E+02  0.43170234917E+02  0.51100000000E-03 0.  1.
         22    1    1    0    0    0  0.47715475960E+02 -0.12815499535E+02 -0.38278535962E+02  0.62499999918E+02  0.00000000000E+00 0.  1.
</event>
<event>
 4    1  0.1956828E-002  0.9118800E+02  0.7818608E-02  0.1130116E+00
         25   -1    0    0    0    0  0.00000000000E+00  0.00000000000E+00  0.99999998245E-14  0.12500000000E+03  0.12500000000E+03 0.  0.
        -11    1    1    0    0    0  0.18289032711E+02  0.35733629647E+00  0.30592528777E+01  0.18546574756E+02  0.51100000000E-03 0.  1.
         11    1    1    0    0    0  0.43342848423E+02  0.84818224963E+00  0.72513218687E+01  0.43953425255E+02  0.51100000000E-03 0.  1.
         22    1    1    0    0    0 -0.61631881134E+02 -0.12055185461E+01 -0.10310574746E+02  0.62499999989E+02  0.00000000000E+00 0.  1.
</event>
<event>
 4    1  0.1956828E-002  0.9118800E+02  0.7818608E-02  0.1130116E+00
         25   -1    0    0    0    0  0.00000000000E+00  0.00000000000E+00  0.99999998245E-14  0.12500000000E+03  0.12500000000E+03 0.  0.
        -11    1    1    0    0    0 -0.53968949942E+02 -0.16985079373E+01 -0.18435400704E+02  0.57056081941E+02  0.51100000000E-03 0. -1.
         11    1    1    0    0    0 -0.51477155791E+01 -0.16645093781E+00 -0.17634004238E+01  0.54439198115E+01  0.51100000000E-03 0.  1.
         22    1    1    0    0    0  0.59116665521E+02  0.18649588751E+01  0.20198801128E+02  0.62499998248E+02  0.00000000000E+00 0. -1.
</event>
<event>
 4    1  0.1956828E-002  0.9118800E+02  0.7818608E-02  0.1130116E+00
         25   -1    0    0    0    0  0.00000000000E+00  0.00000000000E+00  0.99999998245E-14  0.12500000000E+03  0.12500000000E+03 0.  0.
        -11    1    1    0    0    0  0.12238912749E+02 -0.20321761246E+02 -0.27174667763E+02  0.36072531568E+02  0.51100000000E-03 0. -1.
         11    1    1    0    0    0  0.83233008716E+01 -0.16546763629E+02 -0.18882685600E+02  0.26450492239E+02  0.51100000000E-03 0.  1.
         22    1    1    0    0    0 -0.20562213621E+02  0.36868524875E+02  0.46057353362E+02  0.62476976193E+02  0.00000000000E+00 0. -1.
</event>
<event>
 4    1  0.1956828E-002  0.9118800E+02  0.7818608E-02  0.1130116E+00
         25   -1    0    0    0    0  0.00000000000E+00  0.00000000000E+00  0.99999998245E-14  0.12500000000E+03  0.12500000000E+03 0.  0.
        -11    1    1    0    0    0 -0.34057934128E+02  0.47399873260E+01  0.53943382912E+00  0.34390425209E+02  0.51100000000E-03 0. -1.
         11    1    1    0    0    0 -0.27935599504E+02  0.31551575244E+01 -0.30721350014E+00  0.28114891411E+02  0.51100000000E-03 0.  1.
         22    1    1    0    0    0  0.61993533633E+02 -0.78951448504E+01 -0.23222032898E+00  0.62494683380E+02  0.00000000000E+00 0. -1.
</event>
<event>
 4    1  0.1956828E-002  0.9118800E+02  0.7818608E-02  0.1130116E+00
         25   -1    0    0    0    0  0.00000000000E+00  0.00000000000E+00  0.99999998245E-14  0.12500000000E+03  0.12500000000E+03 0.  0.
        -11    1    1    0    0    0 -0.19588404689E+02 -0.35947432574E+00  0.92718389193E+01  0.21674912162E+02  0.51100000000E-03 0.  1.
         11    1    1    0    0    0 -0.37025287646E+02 -0.76654912628E+00  0.17182732234E+02  0.40825308451E+02  0.51100000000E-03 0. -1.
         22    1    1    0    0    0  0.56613692334E+02  0.11260234520E+01 -0.26454571153E+02  0.62499779387E+02  0.00000000000E+00 0. -1.
</event>
<event>
 4    1  0.1956828E-002  0.9118800E+02  0.7818608E-02  0.1130116E+00
         25   -1    0    0    0    0  0.00000000000E+00  0.00000000000E+00  0.99999998245E-14  0.12500000000E+03  0.12500000000E+03 0.  0.
        -11    1    1    0    0    0  0.39029951187E+02 -0.47669432259E+00 -0.59678678261E+01  0.39486450509E+02  0.51100000000E-03 0. -1.
         11    1    1    0    0    0  0.22747472357E+02 -0.27776714036E+00 -0.34783339294E+01  0.23013549496E+02  0.51100000000E-03 0. -1.
         22    1    1    0    0    0 -0.61777423544E+02  0.75446146295E+00  0.94462017555E+01  0.62499999995E+02  0.00000000000E+00 0. -1.
</event>
<event>
 4    1  0.1956828E-002  0.9118800E+02  0.7818608E-02  0.1130116E+00
         25   -1    0    0    0    0  0.00000000000E+00  0.00000000000E+00  0.99999998245E-14  0.12500000000E+03  0.12500000000E+03 0.  0.
        -11    1    1    0    0    0  0.18872626094E+02  0.22580576918E+01  0.46421613249E+02  0.50162147254E+02  0.51100000000E-03 0.  1.
         11    1    1    0    0    0  0.80114947690E+01  0.21423941266E+02 -0.18194592815E+02  0.29226914236E+02  0.51100000000E-03 0. -1.
         22    1    1    0    0    0 -0.26884120863E+02 -0.23681998958E+02 -0.28227020434E+02  0.45610938511E+02  0.00000000000E+00 0.  1.
</event>
<event>
 4    1  0.1956828E-002  0.9118800E+02  0.7818608E-02  0.1130116E+00
         25   -1    0    0    0    0  0.00000000000E+00  0.00000000000E+00  0.99999998245E-14  0.12500000000E+03  0.12500000000E+03 0.  0.
        -11    1    1    0    0    0  0.17634529590E+01 -0.14198123620E+02  0.83090939335E+01  0.16545015047E+02  0.51100000000E-03 0. -1.
         11    1    1    0    0    0  0.48668738784E+01 -0.39448427452E+02  0.23065036903E+02  0.45954986860E+02  0.51100000000E-03 0.  1.
         22    1    1    0    0    0 -0.66303268374E+01  0.53646551071E+02 -0.31374130836E+02  0.62499998092E+02  0.00000000000E+00 0.  1.
</event>
<event>
 4    1  0.1956828E-002  0.9118800E+02  0.7818608E-02  0.1130116E+00
         25   -1    0    0    0    0  0.00000000000E+00  0.00000000000E+00  0.99999998245E-14  0.12500000000E+03  0.12500000000E+03 0.  0.
        -11    1    1    0    0    0  0.19317434600E+02 -0.33767123742E+02  0.47584784489E+01  0.39192155373E+02  0.51100000000E-03 0.  1.
         11    1    1    0    0    0  0.11483495660E+02 -0.20087956900E+02  0.28034221598E+01  0.23307849774E+02  0.51100000000E-03 0. -1.
         22    1    1    0    0    0 -0.30800930260E+02  0.53855080643E+02 -0.75619006087E+01  0.62499994854E+02  0.00000000000E+00 0.  1.
</event>
<event>
 4    1  0.1956828E-002  0.9118800E+02  0.7818608E-02  0.1130116E+00
         25   -1    0    0    0    0  0.00000000000E+00  0.00000000000E+00  0.99999998245E-14  0.12500000000E+03  0.12500000000E+03 0.  0.
        -11    1    1    0    0    0 -0.49811817240E+01 -0.39797575569E+02  0.45515257361E+02  0.60665458421E+02  0.51100000000E-03 0. -1.
         11    1    1    0    0    0 -0.83055687397E-01 -0.12642496146E+01  0.13286950473E+01  0.18359346735E+01  0.51100000000E-03 0.  1.
         22    1    1    0    0    0  0.50642374114E+01  0.41061825183E+02 -0.46843952408E+02  0.62498606906E+02  0.00000000000E+00 0. -1.
</event>
<event>
 4    1  0.1956828E-002  0.9118800E+02  0.7818608E-02  0.1130116E+00
         25   -1    0    0    0    0  0.00000000000E+00  0.00000000000E+00  0.99999998245E-14  0.12500000000E+03  0.12500000000E+03 0.  0.
        -11    1    1    0    0    0 -0.95207402977E+01  0.92581440918E+01  0.37674922911E+02  0.39946934106E+02  0.51100000000E-03 0.  1.
         11    1    1    0    0    0 -0.53772891558E+01  0.52114285417E+01  0.21273613624E+02  0.22553067707E+02  0.51100000000E-03 0. -1.
         22    1    1    0    0    0  0.14898029454E+02 -0.14469572633E+02 -0.58948536535E+02  0.62499998187E+02  0.00000000000E+00 0. -1.
</event>
<event>
 4    1  0.1956828E-002  0.9118800E+02  0.7818608E-02  0.1130116E+00
         25   -1    0    0    0    0  0.00000000000E+00  0.00000000000E+00  0.99999998245E-14  0.12500000000E+03  0.12500000000E+03 0.  0.
        -11    1    1    0    0    0  0.30525185966E+02 -0.26437867442E+02 -0.31511773934E+02  0.51222453181E+02  0.51100000000E-03 0. -1.
         11    1    1    0    0    0  0.67203452114E+01 -0.58208446123E+01 -0.69381402743E+01  0.11277546829E+02  0.51100000000E-03 0.  1.
         22    1    1    0    0    0 -0.37245531177E+02  0.32258712054E+02  0.38449914208E+02  0.62499999990E+02  0.00000000000E+00 0. -1.
</event>
<event>
 4    1  0.1956828E-002  0.9118800E+02  0.7818608E-02  0.1130116E+00
         25   -1    0    0    0    0  0.00000000000E+00  0.00000000000E+00  0.99999998245E-14  0.12500000000E+03  0.12500000000E+03 0.  0.
        -11    1    1    0    0    0  0.71036099578E+01 -0.51478918773E+02 -0.33455315792E+02  0.61804518504E+02  0.51100000000E-03 0. -1.
         11    1    1    0    0    0  0.46907304157E-01 -0.55983251578E+00 -0.41160543443E+00  0.69644241376E+00  0.51100000000E-03 0.  1.
         22    1    1    0    0    0 -0.71505172619E+01  0.52038751289E+02  0.33866921226E+02  0.62499039082E+02  0.00000000000E+00 0. -1.
</event>
<event>
 4    1  0.1956828E-002  0.9118800E+02  0.7818608E-02  0.1130116E+00
         25   -1    0    0    0    0  0.00000000000E+00  0.00000000000E+00  0.99999998245E-14  0.12500000000E+03  0.12500000000E+03 0.  0.
        -11    1    1    0    0    0 -0.94989451893E+01 -0.41236035877E+02 -0.10288074738E+02  0.43548652064E+02  0.51100000000E-03 0.  1.
         11    1    1    0    0    0 -0.41317874995E+01 -0.17945244404E+02 -0.44777366251E+01  0.18951347979E+02  0.51100000000E-03 0. -1.
         22    1    1    0    0    0  0.13630732689E+02  0.59181280281E+02  0.14765811363E+02  0.62499999957E+02  0.00000000000E+00 0.  1.
</event>
<event>
 4    1  0.1956828E-002  0.9118800E+02  0.7818608E-02  0.1130116E+00
         25   -1    0    0    0    0  0.00000000000E+00  0.00000000000E+00  0.99999998245E-14  0.12500000000E+03  0.12500000000E+03 0.  0.
        -11    1    1    0    0    0 -0.49676868685E+01  0.69557286128E+01 -0.17750948535E+02  0.19701681338E+02  0.51100000000E-03 0.  1.
         11    1    1    0    0    0 -0.10797584828E+02  0.15116951420E+02 -0.38556271069E+02  0.42798318862E+02  0.51100000000E-03 0. -1.
         22    1    1    0    0    0  0.15765271697E+02 -0.22072680033E+02  0.56307219605E+02  0.62499999801E+02  0.00000000000E+00 0. -1.
</event>
<event>
 4    1  0.1956828E-002  0.9118800E+02  0.7818608E-02  0.1130116E+00
         25   -1    0    0    0    0  0.00000000000E+00  0.00000000000E+00  0.99999998245E-14  0.12500000000E+03  0.12500000000E+03 0.  0.
        -11    1    1    0    0    0 -0.32543660089E+02 -0.14544477929E+02  0.35072404281E+02  0.50007051428E+02  0.51100000000E-03 0. -1.
         11    1    1    0    0    0 -0.80923387448E+01 -0.39208239426E+01  0.86747670722E+01  0.12494414383E+02  0.51100000000E-03 0.  1.
         22    1    1    0    0    0  0.40635998834E+02  0.18465301872E+02 -0.43747171353E+02  0.62498534189E+02  0.00000000000E+00 0. -1.
</event>
<event>
 4    1  0.1956828E-002  0.9118800E+02  0.7818608E-02  0.1130116E+00
         25   -1    0    0    0    0  0.00000000000E+00  0.00000000000E+00  0.99999998245E-14  0.12500000000E+03  0.12500000000E+03 0.  0.
        -11    1    1    0    0    0  0.31568845509E+02 -0.24071150907E+02  0.85916941992E+01  0.40618093533E+02  0.51100000000E-03 0. -1.
         11    1    1    0    0    0  0.17006647236E+02 -0.12991753470E+02  0.45615533199E+01  0.21881944095E+02  0.51100000000E-03 0.  1.
         22    1    1    0    0    0 -0.48575492744E+02  0.37062904378E+02 -0.13153247519E+02  0.62499962372E+02  0.00000000000E+00 0. -1.
</event>
<event>
 4    1  0.1956828E-002  0.9118800E+02  0.7818608E-02  0.1130116E+00
         25   -1    0    0    0    0  0.00000000000E+00  0.00000000000E+00  0.99999998245E-14  0.12500000000E+03  0.12500000000E+03 0.  0.
        -11    1    1    0    0    0 -0.98767254446E+01  0.40849711963E+02 -0.39641164298E+02  0.57772576367E+02  0.51100000000E-03 0.  1.
         11    1    1    0    0    0 -0.86413652057E+00  0.32539978981E+01 -0.33197968961E+01  0.47282434307E+01  0.51100000000E-03 0. -1.
         22    1    1    0    0    0  0.10740861965E+02 -0.44103709861E+02  0.42960961194E+02  0.62499180202E+02  0.00000000000E+00 0.  1.
</event>
<event>
 4    1  0.1956828E-002  0.9118800E+02  0.7818608E-02  0.1130116E+00
         25   -1    0    0    0    0  0.00000000000E+00  0.00000000000E+00  0.99999998245E-14  0.12500000000E+03  0.12500000000E+03 0.  0.
        -11    1    1    0    0    0  0.43851161587E+02  0.53115773204E+01 -0.19346590623E+02  0.48222689631E+02  0.51100000000E-03 0. -1.
         11    1    1    0    0    0  0.12982788917E+02  0.15732845328E+01 -0.57283120781E+01  0.14277310384E+02  0.51100000000E-03 0. -1.
         22    1    1    0    0    0 -0.56833950504E+02 -0.68848618532E+01  0.25074902701E+02  0.62499999985E+02  0.00000000000E+00 0. -1.
</event>
<event>
 4    1  0.1956828E-002  0.9118800E+02  0.7818608E-02  0.1130116E+00
         25   -1    0    0    0    0  0.00000000000E+00  0.00000000000E+00  0.99999998245E-14  0.12500000000E+03  0.12500000000E+03 0.  0.
        -11    1    1    0    0    0  0.15310535674E+02  0.18934451990E+02  0.17497994316E+02  0.29985092631E+02  0.51100000000E-03 0. -1.
         11    1    1    0    0    0  0.16601547490E+02  0.20530387157E+02  0.18976591562E+02  0.32514907403E+02  0.51100000000E-03 0.  1.
         22    1    1    0    0    0 -0.31912083164E+02 -0.39464839147E+02 -0.36474585878E+02  0.62499999965E+02  0.00000000000E+00 0. -1.
</event>
<event>
 4    1  0.1956828E-002  0.9118800E+02  0.7818608E-02  0.1130116E+00
         25   -1    0    0    0    0  0.00000000000E+00  0.00000000000E+00  0.99999998245E-14  0.12500000000E+03  0.12500000000E+03 0.  0.
        -11    1    1    0    0    0 -0.42595024969E+01  0.30680206143E+00  0.23166814294E+01  0.48584464732E+01  0.51100000000E-03 0. -1.
         11    1    1    0    0    0 -0.50523256007E+02  0.36261548217E+01  0.27510004263E+02  0.57641553858E+02  0.51100000000E-03 0.  1.
         22    1    1    0    0    0  0.54782758504E+02 -0.39329568832E+01 -0.29826685692E+02  0.62499999669E+02  0.00000000000E+00 0.  1.
</event>
<event>
 4    1  0.1956828E-002  0.9118800E+02  0.7818608E-02  0.1130116E+00
         25   -1    0    0    0    0  0.00000000000E+00  0.00000000000E+00  0.99999998245E-14  0.12500000000E+03  0.12500000000E+03 0.  0.
        -11    1    1    0    0    0 -0.14891661616E+02  0.60073643104E+01 -0.11909645901E+02  0.19992240429E+02  0.51100000000E-03 0. -1.
         11    1    1    0    0    0 -0.31188673273E+02  0.12515224510E+02 -0.26032145129E+02  0.42509255055E+02  0.51100000000E-03 0.  1.
         22    1    1    0    0    0  0.46080334890E+02 -0.18522588821E+02  0.37941791029E+02  0.62498504515E+02  0.00000000000E+00 0.  1.
</event>
<event>
 4    1  0.1956828E-002  0.9118800E+02  0.7818608E-02  0.1130116E+00
         25   -1    0    0    0    0  0.00000000000E+00  0.00000000000E+00  0.99999998245E-14  0.12500000000E+03  0.12500000000E+03 0.  0.
        -11    1    1    0    0    0  0.25420049632E+02 -0.36079358989E+01 -0.30538947448E+02  0.39897662040E+02  0.51100000000E-03 0. -1.
         11    1    1    0    0    0  0.14401106942E+02 -0.20450351995E+01 -0.17300047157E+02  0.22602337977E+02  0.51100000000E-03 0. -1.
         22    1    1    0    0    0 -0.39821156573E+02  0.56529710984E+01  0.47838994606E+02  0.62499999984E+02  0.00000000000E+00 0. -1.
</event>
<event>
 4    1  0.1956828E-002  0.9118800E+02  0.7818608E-02  0.1130116E+00
         25   -1    0    0    0    0  0.00000000000E+00  0.00000000000E+00  0.99999998245E-14  0.12500000000E+03  0.12500000000E+03 0.  0.
        -11    1    1    0    0    0 -0.61411327388E+01  0.16423222343E+02  0.97746327464E+01  0.20074341559E+02  0.51100000000E-03 0.  1.
         11    1    1    0    0    0 -0.12968015817E+02  0.34703555529E+02  0.20674389012E+02  0.42425659239E+02  0.51100000000E-03 0. -1.
         22    1    1    0    0    0  0.19109148556E+02 -0.51126777872E+02 -0.30449021758E+02  0.62499999202E+02  0.00000000000E+00 0. -1.
</event>
<event>
 4    1  0.1956828E-002  0.9118800E+02  0.7818608E-02  0.1130116E+00
         25   -1    0    0    0    0  0.00000000000E+00  0.00000000000E+00  0.99999998245E-14  0.12500000000E+03  0.12500000000E+03 0.  0.
        -11    1    1    0    0    0 -0.20087217783E+01 -0.10438025819E+02  0.98109961457E+01  0.14465233901E+02  0.51100000000E-03 0. -1.
         11    1    1    0    0    0 -0.66695263370E+01 -0.34660441245E+02  0.32580822368E+02  0.48034766110E+02  0.51100000000E-03 0.  1.
         22    1    1    0    0    0  0.86782481153E+01  0.45098467063E+02 -0.42391818513E+02  0.62499999989E+02  0.00000000000E+00 0.  1.
</event>
<event>
 4    1  0.1956828E-002  0.9118800E+02  0.7818608E-02  0.1130116E+00
         25   -1    0    0    0    0  0.00000000000E+00  0.00000000000E+00  0.99999998245E-14  0.12500000000E+03  0.12500000000E+03 0.  0.
        -11    1    1    0    0    0 -0.16458283023E+02  0.23822594190E+02 -0.11428294060E+02  0.31128716315E+02  0.51100000000E-03 0. -1.
         11    1    1    0    0    0 -0.16573646203E+02  0.24019613636E+02 -0.11512164553E+02  0.31371284970E+02  0.51100000000E-03 0.  1.
         22    1    1    0    0    0  0.33031929226E+02 -0.47842207826E+02  0.22940458613E+02  0.62499998716E+02  0.00000000000E+00 0.  1.
</event>
<event>
 4    1  0.1956828E-002  0.9118800E+02  0.7818608E-02  0.1130116E+00
         25   -1    0    0    0    0  0.00000000000E+00  0.00000000000E+00  0.99999998245E-14  0.12500000000E+03  0.12500000000E+03 0.  0.
        -11    1    1    0    0    0 -0.13385787428E+02 -0.41184486671E+01 -0.92341830735E+01  0.16775311079E+02  0.51100000000E-03 0. -1.
         11    1    1    0    0    0 -0.36485353372E+02 -0.11295229514E+02 -0.25139306466E+02  0.45724697378E+02  0.51100000000E-03 0.  1.
         22    1    1    0    0    0  0.49871140800E+02  0.15413678181E+02  0.34373489540E+02  0.62499991543E+02  0.00000000000E+00 0.  1.
</event>
<event>
 4    1  0.1956828E-002  0.9118800E+02  0.7818608E-02  0.1130116E+00
         25   -1    0    0    0    0  0.00000000000E+00  0.00000000000E+00  0.99999998245E-14  0.12500000000E+03  0.12500000000E+03 0.  0.
        -11    1    1    0    0    0 -0.20386182715E+01  0.17150463479E+02 -0.18662618453E+01  0.17371738415E+02  0.51100000000E-03 0. -1.
         11    1    1    0    0    0 -0.88705314852E+01  0.44136706265E+02 -0.34492289224E+01  0.45151216475E+02  0.51100000000E-03 0.  1.
         22    1    1    0    0    0  0.10909149757E+02 -0.61287169744E+02  0.53154907677E+01  0.62477045111E+02  0.00000000000E+00 0.  1.
</event>
<event>
 4    1  0.1956828E-002  0.9118800E+02  0.7818608E-02  0.1130116E+00
         25   -1    0    0    0    0  0.00000000000E+00  0.00000000000E+00  0.99999998245E-14  0.12500000000E+03  0.12500000000E+03 0.  0.
        -11    1    1    0    0    0 -0.33269298503E+02 -0.45258718053E+02  0.85287331855E+01  0.56814937056E+02  0.51100000000E-03 0. -1.
         11    1    1    0    0    0 -0.29642375676E+01 -0.46197939562E+01  0.15795746485E+01  0.57117647786E+01  0.51100000000E-03 0.  1.
         22    1    1    0    0    0  0.36233536070E+02  0.49878512009E+02 -0.10108307834E+02  0.62473298165E+02  0.00000000000E+00 0.  1.
</event>
<event>
 4    1  0.1956828E-002  0.9118800E+02  0.7818608E-02  0.1130116E+00
         25   -1    0    0    0    0  0.00000000000E+00  0.00000000000E+00  0.99999998245E-14  0.12500000000E+03  0.12500000000E+03 0.  0.
        -11    1    1    0    0    0  0.36752915568E+02  0.37992837751E+01 -0.24802490660E+02  0.44501403384E+02  0.51100000000E-03 0. -1.
         11    1    1    0    0    0  0.13493412264E+02  0.41759707016E+01 -0.11322016683E+02  0.18102457509E+02  0.51100000000E-03 0.  1.
         22    1    1    0    0    0 -0.50246327832E+02 -0.79752544767E+01  0.36124507343E+02  0.62396139107E+02  0.00000000000E+00 0.  1.
</event>
<event>
 4    1  0.1956828E-002  0.9118800E+02  0.7818608E-02  0.1130116E+00
         25   -1    0    0    0    0  0.00000000000E+00  0.00000000000E+00  0.99999998245E-14  0.12500000000E+03  0.12500000000E+03 0.  0.
        -11    1    1    0    0    0 -0.45109403035E+02  0.14242338876E+02 -0.19181247848E+02  0.51045300745E+02  0.51100000000E-03 0.  1.
         11    1    1    0    0    0 -0.22494421263E+01  0.48302609244E+01 -0.12693478489E+02  0.13766474018E+02  0.51100000000E-03 0. -1.
         22    1    1    0    0    0  0.47358845162E+02 -0.19072599800E+02  0.31874726337E+02  0.60188225237E+02  0.00000000000E+00 0.  1.
</event>
<event>
 4    1  0.1956828E-002  0.9118800E+02  0.7818608E-02  0.1130116E+00
         25   -1    0    0    0    0  0.00000000000E+00  0.00000000000E+00  0.99999998245E-14  0.12500000000E+03  0.12500000000E+03 0.  0.
        -11    1    1    0    0    0  0.24699328735E+02 -0.44216343433E+02  0.36023338376E+02  0.62151611199E+02  0.51100000000E-03 0. -1.
         11    1    1    0    0    0  0.27593047671E+00 -0.30148014730E+00 -0.75396710184E-01  0.41558733405E+00  0.51100000000E-03 0.  1.
         22    1    1    0    0    0 -0.24975259212E+02  0.44517823580E+02 -0.35947941666E+02  0.62432801467E+02  0.00000000000E+00 0. -1.
</event>
<event>
 4    1  0.1956828E-002  0.9118800E+02  0.7818608E-02  0.1130116E+00
         25   -1    0    0    0    0  0.00000000000E+00  0.00000000000E+00  0.99999998245E-14  0.12500000000E+03  0.12500000000E+03 0.  0.
        -11    1    1    0    0    0 -0.28062571286E+01 -0.11489178933E+01 -0.79560010827E+01  0.85142847549E+01  0.51100000000E-03 0.  1.
         11    1    1    0    0    0 -0.17590118988E+02 -0.82332412730E+01 -0.50371850847E+02  0.53986312208E+02  0.51100000000E-03 0. -1.
         22    1    1    0    0    0  0.20396376116E+02  0.93821591663E+01  0.58327851929E+02  0.62499403037E+02  0.00000000000E+00 0. -1.
</event>
<event>
 4    1  0.1956828E-002  0.9118800E+02  0.7818608E-02  0.1130116E+00
         25   -1    0    0    0    0  0.00000000000E+00  0.00000000000E+00  0.99999998245E-14  0.12500000000E+03  0.12500000000E+03 0.  0.
        -11    1    1    0    0    0 -0.20523234367E+01  0.46063160069E+02  0.37967490073E+02  0.59729030209E+02  0.51100000000E-03 0.  1.
         11    1    1    0    0    0 -0.11368372996E+01  0.15880942663E+01  0.21461344016E+01  0.29017814486E+01  0.51100000000E-03 0. -1.
         22    1    1    0    0    0  0.31891607363E+01 -0.47651254335E+02 -0.40113624475E+02  0.62369188342E+02  0.00000000000E+00 0.  1.
</event>
<event>
 4    1  0.1956828E-002  0.9118800E+02  0.7818608E-02  0.1130116E+00
         25   -1    0    0    0    0  0.00000000000E+00  0.00000000000E+00  0.99999998245E-14  0.12500000000E+03  0.12500000000E+03 0.  0.
        -11    1    1    0    0    0  0.30040045490E+02 -0.38735172350E+02 -0.17525238883E+02  0.52057198428E+02  0.51100000000E-03 0. -1.
         11    1    1    0    0    0  0.60368922237E+01 -0.77738610314E+01 -0.34893355294E+01  0.10442817903E+02  0.51100000000E-03 0.  1.
         22    1    1    0    0    0 -0.36076937714E+02  0.46509033381E+02  0.21014574413E+02  0.62499983669E+02  0.00000000000E+00 0. -1.
</event>
<event>
 4    1  0.1956828E-002  0.9118800E+02  0.7818608E-02  0.1130116E+00
         25   -1    0    0    0    0  0.00000000000E+00  0.00000000000E+00  0.99999998245E-14  0.12500000000E+03  0.12500000000E+03 0.  0.
        -11    1    1    0    0    0  0.79214835878E+01  0.18238454769E+02 -0.32356915841E+02  0.37978429899E+02  0.51100000000E-03 0. -1.
         11    1    1    0    0    0  0.53192868100E+01  0.12139069279E+02 -0.20633193803E+02  0.24523060614E+02  0.51100000000E-03 0.  1.
         22    1    1    0    0    0 -0.13240770398E+02 -0.30377524048E+02  0.52990109644E+02  0.62498509487E+02  0.00000000000E+00 0.  1.
</event>
<event>
 4    1  0.1956828E-002  0.9118800E+02  0.7818608E-02  0.1130116E+00
         25   -1    0    0    0    0  0.00000000000E+00  0.00000000000E+00  0.99999998245E-14  0.12500000000E+03  0.12500000000E+03 0.  0.
        -11    1    1    0    0    0  0.45122035976E+01  0.21635558397E+02  0.66301316380E+01  0.23074141680E+02  0.51100000000E-03 0. -1.
         11    1    1    0    0    0  0.76508484782E+01  0.36968078399E+02  0.11367714160E+02  0.39425870041E+02  0.51100000000E-03 0.  1.
         22    1    1    0    0    0 -0.12163052076E+02 -0.58603636796E+02 -0.17997845798E+02  0.62499988280E+02  0.00000000000E+00 0.  1.
</event>
<event>
 4    1  0.1956828E-002  0.9118800E+02  0.7818608E-02  0.1130116E+00
         25   -1    0    0    0    0  0.00000000000E+00  0.00000000000E+00  0.99999998245E-14  0.12500000000E+03  0.12500000000E+03 0.  0.
        -11    1    1    0    0    0 -0.15934533708E+01  0.42810929062E+02  0.70109742061E+01  0.43410465333E+02  0.51100000000E-03 0.  1.
         11    1    1    0    0    0 -0.64213017684E+00  0.18824511020E+02  0.31043740128E+01  0.19089570047E+02  0.51100000000E-03 0. -1.
         22    1    1    0    0    0  0.22355835477E+01 -0.61635440082E+02 -0.10115348219E+02  0.62499964620E+02  0.00000000000E+00 0.  1.
</event>
<event>
 4    1  0.1956828E-002  0.9118800E+02  0.7818608E-02  0.1130116E+00
         25   -1    0    0    0    0  0.00000000000E+00  0.00000000000E+00  0.99999998245E-14  0.12500000000E+03  0.12500000000E+03 0.  0.
        -11    1    1    0    0    0  0.19301235509E+02  0.57773318382E+02 -0.20562171029E+01  0.60946878821E+02  0.51100000000E-03 0. -1.
         11    1    1    0    0    0  0.49499880878E+00  0.14711913521E+01 -0.52562573264E-01  0.15531229508E+01  0.51100000000E-03 0.  1.
         22    1    1    0    0    0 -0.19796234318E+02 -0.59244509734E+02  0.21087796761E+01  0.62499998228E+02  0.00000000000E+00 0. -1.
</event>
<event>
 4    1  0.1956828E-002  0.9118800E+02  0.7818608E-02  0.1130116E+00
         25   -1    0    0    0    0  0.00000000000E+00  0.00000000000E+00  0.99999998245E-14  0.12500000000E+03  0.12500000000E+03 0.  0.
        -11    1    1    0    0    0 -0.41369517899E+02 -0.37147803359E+02  0.25482257924E+02  0.61161603762E+02  0.51100000000E-03 0. -1.
         11    1    1    0    0    0 -0.88095553162E+00 -0.86172376947E+00  0.52408075122E+00  0.13391457719E+01  0.51100000000E-03 0.  1.
         22    1    1    0    0    0  0.42250473431E+02  0.38009527128E+02 -0.26006338675E+02  0.62499250466E+02  0.00000000000E+00 0. -1.
</event>
<event>
 4    1  0.1956828E-002  0.9118800E+02  0.7818608E-02  0.1130116E+00
         25   -1    0    0    0    0  0.00000000000E+00  0.00000000000E+00  0.99999998245E-14  0.12500000000E+03  0.12500000000E+03 0.  0.
        -11    1    1    0    0    0 -0.10323720288E+02 -0.52868361104E+01 -0.10930262644E+02  0.15937392458E+02  0.51100000000E-03 0. -1.
         11    1    1    0    0    0 -0.30167653159E+02 -0.15439390238E+02 -0.31931400909E+02  0.46562607663E+02  0.51100000000E-03 0.  1.
         22    1    1    0    0    0  0.40491373447E+02  0.20726226349E+02  0.42861663554E+02  0.62499999879E+02  0.00000000000E+00 0.  1.
</event>
<event>
 4    1  0.1956828E-002  0.9118800E+02  0.7818608E-02  0.1130116E+00
         25   -1    0    0    0    0  0.00000000000E+00  0.00000000000E+00  0.99999998245E-14  0.12500000000E+03  0.12500000000E+03 0.  0.
        -11    1    1    0    0    0  0.11506183681E+02  0.47407965536E+02  0.14664877235E+02  0.50940809610E+02  0.51100000000E-03 0.  1.
         11    1    1    0    0    0  0.26101960811E+01  0.10757556185E+02  0.33281742765E+01  0.11559190410E+02  0.51100000000E-03 0. -1.
         22    1    1    0    0    0 -0.14116379762E+02 -0.58165521722E+02 -0.17993051511E+02  0.62499999979E+02  0.00000000000E+00 0. -1.
</event>
<event>
 4    1  0.1956828E-002  0.9118800E+02  0.7818608E-02  0.1130116E+00
         25   -1    0    0    0    0  0.00000000000E+00  0.00000000000E+00  0.99999998245E-14  0.12500000000E+03  0.12500000000E+03 0.  0.
        -11    1    1    0    0    0 -0.16732110302E+02 -0.31848269391E+02  0.48036688964E+01  0.36295330464E+02  0.51100000000E-03 0. -1.
         11    1    1    0    0    0 -0.11772518804E+02 -0.23125618688E+02  0.36524888677E+01  0.26205478700E+02  0.51100000000E-03 0.  1.
         22    1    1    0    0    0  0.28504629105E+02  0.54973888080E+02 -0.84561577642E+01  0.62499190836E+02  0.00000000000E+00 0. -1.
</event>
<event>
 4    1  0.1956828E-002  0.9118800E+02  0.7818608E-02  0.1130116E+00
         25   -1    0    0    0    0  0.00000000000E+00  0.00000000000E+00  0.99999998245E-14  0.12500000000E+03  0.12500000000E+03 0.  0.
        -11    1    1    0    0    0 -0.88739172403E+00  0.55131695417E+02  0.12403539556E+02  0.56516715203E+02  0.51100000000E-03 0.  1.
         11    1    1    0    0    0 -0.93038001850E-01  0.58374899728E+01  0.13094877926E+01  0.59832853678E+01  0.51100000000E-03 0. -1.
         22    1    1    0    0    0  0.98042972588E+00 -0.60969185390E+02 -0.13713027349E+02  0.62499999429E+02  0.00000000000E+00 0.  1.
</event>
<event>
 4    1  0.1956828E-002  0.9118800E+02  0.7818608E-02  0.1130116E+00
         25   -1    0    0    0    0  0.00000000000E+00  0.00000000000E+00  0.99999998245E-14  0.12500000000E+03  0.12500000000E+03 0.  0.
        -11    1    1    0    0    0 -0.36752531860E+01 -0.98696268380E+00 -0.35168360454E+01  0.51816712894E+01  0.51100000000E-03 0. -1.
         11    1    1    0    0    0 -0.40641361048E+02 -0.10788248239E+02 -0.38952343748E+02  0.57318335737E+02  0.51100000000E-03 0.  1.
         22    1    1    0    0    0  0.44316614234E+02  0.11775210923E+02  0.42469179793E+02  0.62499992974E+02  0.00000000000E+00 0.  1.
</event>
<event>
 4    1  0.1956828E-002  0.9118800E+02  0.7818608E-02  0.1130116E+00
         25   -1    0    0    0    0  0.00000000000E+00  0.00000000000E+00  0.99999998245E-14  0.12500000000E+03  0.12500000000E+03 0.  0.
        -11    1    1    0    0    0  0.14549108276E+01 -0.15128175797E+01  0.20123155542E+01  0.29077133106E+01  0.51100000000E-03 0. -1.
         11    1    1    0    0    0  0.31342368183E+02 -0.32892596208E+02  0.38565234589E+02  0.59594834069E+02  0.51100000000E-03 0.  1.
         22    1    1    0    0    0 -0.32797279010E+02  0.34405413788E+02 -0.40577550143E+02  0.62497452620E+02  0.00000000000E+00 0.  1.
</event>
<event>
 4    1  0.1956828E-002  0.9118800E+02  0.7818608E-02  0.1130116E+00
         25   -1    0    0    0    0  0.00000000000E+00  0.00000000000E+00  0.99999998245E-14  0.12500000000E+03  0.12500000000E+03 0.  0.
        -11    1    1    0    0    0 -0.40721739332E+02  0.16261713172E+02  0.10068452471E+02  0.44989744442E+02  0.51100000000E-03 0.  1.
         11    1    1    0    0    0 -0.15852113617E+02  0.63241373654E+01  0.39146964265E+01  0.17510256078E+02  0.51100000000E-03 0. -1.
         22    1    1    0    0    0  0.56573852949E+02 -0.22585850537E+02 -0.13983148898E+02  0.62499999480E+02  0.00000000000E+00 0.  1.
</event>
<event>
 4    1  0.1956828E-002  0.9118800E+02  0.7818608E-02  0.1130116E+00
         25   -1    0    0    0    0  0.00000000000E+00  0.00000000000E+00  0.99999998245E-14  0.12500000000E+03  0.12500000000E+03 0.  0.
        -11    1    1    0    0    0  0.45465230098E+01 -0.93565300936E+01 -0.14673685751E+02  0.17987011443E+02  0.51100000000E-03 0. -1.
         11    1    1    0    0    0  0.11666400357E+02 -0.23046151637E+02 -0.36251940273E+02  0.44513292131E+02  0.51100000000E-03 0.  1.
         22    1    1    0    0    0 -0.16212923367E+02  0.32402681730E+02  0.50925626024E+02  0.62499696426E+02  0.00000000000E+00 0.  1.
</event>
<event>
 4    1  0.1956828E-002  0.9118800E+02  0.7818608E-02  0.1130116E+00
         25   -1    0    0    0    0  0.00000000000E+00  0.00000000000E+00  0.99999998245E-14  0.12500000000E+03  0.12500000000E+03 0.  0.
        -11    1    1    0    0    0 -0.17739096171E+01  0.92782533857E+01 -0.78754548010E+01  0.12298598693E+02  0.51100000000E-03 0. -1.
         11    1    1    0    0    0 -0.73805850680E+01  0.37906454646E+02 -0.32075082075E+02  0.50201426575E+02  0.51100000000E-03 0.  1.
         22    1    1    0    0    0  0.91544946851E+01 -0.47184708031E+02  0.39950536876E+02  0.62499974733E+02  0.00000000000E+00 0.  1.
</event>
<event>
 4    1  0.1956828E-002  0.9118800E+02  0.7818608E-02  0.1130116E+00
         25   -1    0    0    0    0  0.00000000000E+00  0.00000000000E+00  0.99999998245E-14  0.12500000000E+03  0.12500000000E+03 0.  0.
        -11    1    1    0    0    0  0.92756868162E+01  0.77140290775E+00 -0.36741092690E+01  0.10006623184E+02  0.51100000000E-03 0. -1.
         11    1    1    0    0    0  0.48655373345E+02  0.40406114583E+01 -0.19284261107E+02  0.52493376944E+02  0.51100000000E-03 0. -1.
         22    1    1    0    0    0 -0.57931060161E+02 -0.48120143660E+01  0.22958370376E+02  0.62499999872E+02  0.00000000000E+00 0. -1.
</event>
<event>
 4    1  0.1956828E-002  0.9118800E+02  0.7818608E-02  0.1130116E+00
         25   -1    0    0    0    0  0.00000000000E+00  0.00000000000E+00  0.99999998245E-14  0.12500000000E+03  0.12500000000E+03 0.  0.
        -11    1    1    0    0    0  0.22142576012E+02  0.31363689123E+02 -0.16735163837E+02  0.41881265224E+02  0.51100000000E-03 0.  1.
         11    1    1    0    0    0  0.12874274655E+02  0.15067427572E+02 -0.59548955055E+01  0.20693842135E+02  0.51100000000E-03 0. -1.
         22    1    1    0    0    0 -0.35016850667E+02 -0.46431116696E+02  0.22690059342E+02  0.62424892641E+02  0.00000000000E+00 0.  1.
</event>
<event>
 4    1  0.1956828E-002  0.9118800E+02  0.7818608E-02  0.1130116E+00
         25   -1    0    0    0    0  0.00000000000E+00  0.00000000000E+00  0.99999998245E-14  0.12500000000E+03  0.12500000000E+03 0.  0.
        -11    1    1    0    0    0  0.21222938158E+02  0.53633822698E+01  0.23579703355E+02  0.32174234785E+02  0.51100000000E-03 0.  1.
         11    1    1    0    0    0  0.15700378329E+02  0.32365126025E+02 -0.16455312833E+02  0.39557307580E+02  0.51100000000E-03 0. -1.
         22    1    1    0    0    0 -0.36923316487E+02 -0.37728508295E+02 -0.71243905229E+01  0.53268457635E+02  0.00000000000E+00 0. -1.
</event>
<event>
 4    1  0.1956828E-002  0.9118800E+02  0.7818608E-02  0.1130116E+00
         25   -1    0    0    0    0  0.00000000000E+00  0.00000000000E+00  0.99999998245E-14  0.12500000000E+03  0.12500000000E+03 0.  0.
        -11    1    1    0    0    0 -0.44614826925E+02 -0.34385415394E+02 -0.18054421664E+02  0.59150669609E+02  0.51100000000E-03 0. -1.
         11    1    1    0    0    0  0.32621966580E+01  0.10230126511E+02 -0.59537275617E+01  0.12277796529E+02  0.51100000000E-03 0.  1.
         22    1    1    0    0    0  0.41352630267E+02  0.24155288882E+02  0.24008149225E+02  0.53571533861E+02  0.00000000000E+00 0. -1.
</event>
<event>
 4    1  0.1956828E-002  0.9118800E+02  0.7818608E-02  0.1130116E+00
         25   -1    0    0    0    0  0.00000000000E+00  0.00000000000E+00  0.99999998245E-14  0.12500000000E+03  0.12500000000E+03 0.  0.
        -11    1    1    0    0    0 -0.16047444064E+02  0.64816854470E+01 -0.20669908956E+01  0.17430007426E+02  0.51100000000E-03 0.  1.
         11    1    1    0    0    0 -0.41490132647E+02  0.16748647625E+02 -0.54181823484E+01  0.45070001159E+02  0.51100000000E-03 0. -1.
         22    1    1    0    0    0  0.57537576711E+02 -0.23230333072E+02  0.74851732440E+01  0.62499991415E+02  0.00000000000E+00 0. -1.
</event>
<event>
 4    1  0.1956828E-002  0.9118800E+02  0.7818608E-02  0.1130116E+00
         25   -1    0    0    0    0  0.00000000000E+00  0.00000000000E+00  0.99999998245E-14  0.12500000000E+03  0.12500000000E+03 0.  0.
        -11    1    1    0    0    0 -0.86861114726E+01 -0.12633742116E+02  0.14351713053E+01  0.15398691156E+02  0.51100000000E-03 0. -1.
         11    1    1    0    0    0 -0.26808338458E+02 -0.38464112918E+02  0.45134492790E+01  0.47101446030E+02  0.51100000000E-03 0.  1.
         22    1    1    0    0    0  0.35494449931E+02  0.51097855034E+02 -0.59486205843E+01  0.62499862814E+02  0.00000000000E+00 0.  1.
</event>
<event>
 4    1  0.1956828E-002  0.9118800E+02  0.7818608E-02  0.1130116E+00
         25   -1    0    0    0    0  0.00000000000E+00  0.00000000000E+00  0.99999998245E-14  0.12500000000E+03  0.12500000000E+03 0.  0.
        -11    1    1    0    0    0  0.10254341044E+02 -0.76421240414E+01  0.85529483015E+01  0.15385268767E+02  0.51100000000E-03 0.  1.
         11    1    1    0    0    0  0.31348155387E+02 -0.23445736864E+02  0.26218107245E+02  0.47114738363E+02  0.51100000000E-03 0. -1.
         22    1    1    0    0    0 -0.41602496431E+02  0.31087860905E+02 -0.34771055547E+02  0.62499992870E+02  0.00000000000E+00 0.  1.
</event>
<event>
 4    1  0.1956828E-002  0.9118800E+02  0.7818608E-02  0.1130116E+00
         25   -1    0    0    0    0  0.00000000000E+00  0.00000000000E+00  0.99999998245E-14  0.12500000000E+03  0.12500000000E+03 0.  0.
        -11    1    1    0    0    0 -0.17148431141E+02  0.39197842697E+02 -0.87964050343E+00  0.42793846875E+02  0.51100000000E-03 0.  1.
         11    1    1    0    0    0 -0.70477924528E+01  0.18386174921E+02 -0.10101622303E+01  0.19716572589E+02  0.51100000000E-03 0. -1.
         22    1    1    0    0    0  0.24196223594E+02 -0.57584017617E+02  0.18898027337E+01  0.62489580536E+02  0.00000000000E+00 0.  1.
</event>
<event>
 4    1  0.1956828E-002  0.9118800E+02  0.7818608E-02  0.1130116E+00
         25   -1    0    0    0    0  0.00000000000E+00  0.00000000000E+00  0.99999998245E-14  0.12500000000E+03  0.12500000000E+03 0.  0.
        -11    1    1    0    0    0  0.44346386784E+01 -0.94914463368E+01  0.16538288042E+02  0.19577245603E+02  0.51100000000E-03 0. -1.
         11    1    1    0    0    0  0.96324574607E+01 -0.20785435940E+02  0.36298014574E+02  0.42922773050E+02  0.51100000000E-03 0.  1.
         22    1    1    0    0    0 -0.14067096139E+02  0.30276882277E+02 -0.52836302617E+02  0.62499981347E+02  0.00000000000E+00 0.  1.
</event>
<event>
 4    1  0.1956828E-002  0.9118800E+02  0.7818608E-02  0.1130116E+00
         25   -1    0    0    0    0  0.00000000000E+00  0.00000000000E+00  0.99999998245E-14  0.12500000000E+03  0.12500000000E+03 0.  0.
        -11    1    1    0    0    0 -0.14402779240E+02 -0.79812263566E+01 -0.23005837879E+01  0.16626265667E+02  0.51100000000E-03 0. -1.
         11    1    1    0    0    0 -0.40131126454E+02 -0.21251546180E+02 -0.65089689440E+01  0.45874853705E+02  0.51100000000E-03 0.  1.
         22    1    1    0    0    0  0.54533905694E+02  0.29232772537E+02  0.88095527319E+01  0.62498880628E+02  0.00000000000E+00 0.  1.
</event>
<event>
 4    1  0.1956828E-002  0.9118800E+02  0.7818608E-02  0.1130116E+00
         25   -1    0    0    0    0  0.00000000000E+00  0.00000000000E+00  0.99999998245E-14  0.12500000000E+03  0.12500000000E+03 0.  0.
        -11    1    1    0    0    0  0.98540651547E+01  0.10729517062E+01 -0.42019187847E+01  0.10766148205E+02  0.51100000000E-03 0.  1.
         11    1    1    0    0    0  0.47338552737E+02  0.43298269030E+01 -0.20414909448E+02  0.51734461476E+02  0.51100000000E-03 0. -1.
         22    1    1    0    0    0 -0.57192617891E+02 -0.54027786093E+01  0.24616828233E+02  0.62499390319E+02  0.00000000000E+00 0. -1.
</event>
<event>
 4    1  0.1956828E-002  0.9118800E+02  0.7818608E-02  0.1130116E+00
         25   -1    0    0    0    0  0.00000000000E+00  0.00000000000E+00  0.99999998245E-14  0.12500000000E+03  0.12500000000E+03 0.  0.
        -11    1    1    0    0    0  0.22498691808E+00  0.13903707804E+02 -0.19259484615E+02  0.23754819673E+02  0.51100000000E-03 0.  1.
         11    1    1    0    0    0  0.35941128463E+00  0.22676795577E+02 -0.31413735461E+02  0.38745180474E+02  0.51100000000E-03 0. -1.
         22    1    1    0    0    0 -0.58439820270E+00 -0.36580503380E+02  0.50673220076E+02  0.62499999853E+02  0.00000000000E+00 0. -1.
</event>
<event>
 4    1  0.1956828E-002  0.9118800E+02  0.7818608E-02  0.1130116E+00
         25   -1    0    0    0    0  0.00000000000E+00  0.00000000000E+00  0.99999998245E-14  0.12500000000E+03  0.12500000000E+03 0.  0.
        -11    1    1    0    0    0  0.47572060108E+02 -0.36974804737E+02  0.12692933910E+02  0.61573920289E+02  0.51100000000E-03 0.  1.
         11    1    1    0    0    0  0.72851961748E+00 -0.54304305065E+00  0.17949570728E+00  0.92620492223E+00  0.51100000000E-03 0. -1.
         22    1    1    0    0    0 -0.48300579725E+02  0.37517847787E+02 -0.12872429617E+02  0.62499874789E+02  0.00000000000E+00 0.  1.
</event>
<event>
 4    1  0.1956828E-002  0.9118800E+02  0.7818608E-02  0.1130116E+00
         25   -1    0    0    0    0  0.00000000000E+00  0.00000000000E+00  0.99999998245E-14  0.12500000000E+03  0.12500000000E+03 0.  0.
        -11    1    1    0    0    0 -0.81902170126E+01 -0.25038650461E+01  0.35796583885E+01  0.92823999764E+01  0.51100000000E-03 0. -1.
         11    1    1    0    0    0 -0.48253440785E+02 -0.10188798802E+02  0.20033440624E+02  0.53231052142E+02  0.51100000000E-03 0.  1.
         22    1    1    0    0    0  0.56443657798E+02  0.12692663848E+02 -0.23613099012E+02  0.62486547882E+02  0.00000000000E+00 0.  1.
</event>
<event>
 4    1  0.1956828E-002  0.9118800E+02  0.7818608E-02  0.1130116E+00
         25   -1    0    0    0    0  0.00000000000E+00  0.00000000000E+00  0.99999998245E-14  0.12500000000E+03  0.12500000000E+03 0.  0.
        -11    1    1    0    0    0 -0.11158567623E+01 -0.97391221775E+00  0.24589740635E+01  0.28705739893E+01  0.51100000000E-03 0. -1.
         11    1    1    0    0    0 -0.21388879402E+02 -0.22610488504E+02  0.50864081955E+02  0.59631142751E+02  0.51100000000E-03 0.  1.
         22    1    1    0    0    0  0.22504736164E+02  0.23584400722E+02 -0.53323056019E+02  0.62498283259E+02  0.00000000000E+00 0.  1.
</event>
<event>
 4    1  0.1956828E-002  0.9118800E+02  0.7818608E-02  0.1130116E+00
         25   -1    0    0    0    0  0.00000000000E+00  0.00000000000E+00  0.99999998245E-14  0.12500000000E+03  0.12500000000E+03 0.  0.
        -11    1    1    0    0    0 -0.26307292020E+02  0.17699669138E+02 -0.75452776732E+01  0.32592685014E+02  0.51100000000E-03 0.  1.
         11    1    1    0    0    0 -0.24285929813E+02  0.16091732189E+02 -0.67613261545E+01  0.29907620490E+02  0.51100000000E-03 0. -1.
         22    1    1    0    0    0  0.50593221832E+02 -0.33791401327E+02  0.14306603828E+02  0.62499694496E+02  0.00000000000E+00 0. -1.
</event>
<event>
 4    1  0.1956828E-002  0.9118800E+02  0.7818608E-02  0.1130116E+00
         25   -1    0    0    0    0  0.00000000000E+00  0.00000000000E+00  0.99999998245E-14  0.12500000000E+03  0.12500000000E+03 0.  0.
        -11    1    1    0    0    0  0.48091904451E+01 -0.43885437538E+02 -0.21673512561E+02  0.49181308315E+02  0.51100000000E-03 0.  1.
         11    1    1    0    0    0  0.13002250436E+01 -0.11884230952E+02 -0.58704360924E+01  0.13318691777E+02  0.51100000000E-03 0. -1.
         22    1    1    0    0    0 -0.61094154888E+01  0.55769668489E+02  0.27543948654E+02  0.62499999908E+02  0.00000000000E+00 0.  1.
</event>
<event>
 4    1  0.1956828E-002  0.9118800E+02  0.7818608E-02  0.1130116E+00
         25   -1    0    0    0    0  0.00000000000E+00  0.00000000000E+00  0.99999998245E-14  0.12500000000E+03  0.12500000000E+03 0.  0.
        -11    1    1    0    0    0 -0.26986685967E+02 -0.45332427358E+02  0.39472803054E+01  0.52904548120E+02  0.51100000000E-03 0. -1.
         11    1    1    0    0    0 -0.11311911225E+02 -0.15716408380E+01 -0.12906211870E+00  0.11421297990E+02  0.51100000000E-03 0.  1.
         22    1    1    0    0    0  0.38298597192E+02  0.46904068196E+02 -0.38182181867E+01  0.60674153891E+02  0.00000000000E+00 0. -1.
</event>
<event>
 4    1  0.1956828E-002  0.9118800E+02  0.7818608E-02  0.1130116E+00
         25   -1    0    0    0    0  0.00000000000E+00  0.00000000000E+00  0.99999998245E-14  0.12500000000E+03  0.12500000000E+03 0.  0.
        -11    1    1    0    0    0  0.46595613127E+02 -0.13074723095E+02 -0.27832443933E+02  0.55827811010E+02  0.51100000000E-03 0.  1.
         11    1    1    0    0    0  0.55660942621E+01 -0.15638459141E+01 -0.33303299318E+01  0.66721898274E+01  0.51100000000E-03 0. -1.
         22    1    1    0    0    0 -0.52161707389E+02  0.14638569009E+02  0.31162773865E+02  0.62499999162E+02  0.00000000000E+00 0.  1.
</event>
<event>
 4    1  0.1956828E-002  0.9118800E+02  0.7818608E-02  0.1130116E+00
         25   -1    0    0    0    0  0.00000000000E+00  0.00000000000E+00  0.99999998245E-14  0.12500000000E+03  0.12500000000E+03 0.  0.
        -11    1    1    0    0    0  0.81294008247E+01  0.12239067246E+02  0.22728331733E+02  0.27063979538E+02  0.51100000000E-03 0.  1.
         11    1    1    0    0    0 -0.26874029719E+01  0.31253050513E+02 -0.39992836817E+02  0.50827180701E+02  0.51100000000E-03 0. -1.
         22    1    1    0    0    0 -0.54419978528E+01 -0.43492117759E+02  0.17264505084E+02  0.47108839761E+02  0.00000000000E+00 0. -1.
</event>
<event>
 4    1  0.1956828E-002  0.9118800E+02  0.7818608E-02  0.1130116E+00
         25   -1    0    0    0    0  0.00000000000E+00  0.00000000000E+00  0.99999998245E-14  0.12500000000E+03  0.12500000000E+03 0.  0.
        -11    1    1    0    0    0  0.43947539439E+02 -0.52234267642E+01  0.61069568470E+00  0.44261081770E+02  0.51100000000E-03 0.  1.
         11    1    1    0    0    0  0.18107326473E+02 -0.21678437449E+01  0.28968568676E+00  0.18238934633E+02  0.51100000000E-03 0. -1.
         22    1    1    0    0    0 -0.62054865912E+02  0.73912705092E+01 -0.90038137145E+00  0.62499983598E+02  0.00000000000E+00 0.  1.
</event>
<event>
 4    1  0.1956828E-002  0.9118800E+02  0.7818608E-02  0.1130116E+00
         25   -1    0    0    0    0  0.00000000000E+00  0.00000000000E+00  0.99999998245E-14  0.12500000000E+03  0.12500000000E+03 0.  0.
        -11    1    1    0    0    0  0.18413896006E+02  0.78761432253E+01  0.32671202408E+02  0.38321177765E+02  0.51100000000E-03 0. -1.
         11    1    1    0    0    0  0.11720233662E+02  0.49441197098E+01  0.20562379407E+02  0.24178909072E+02  0.51100000000E-03 0.  1.
         22    1    1    0    0    0 -0.30134129667E+02 -0.12820262935E+02 -0.53233581815E+02  0.62499913163E+02  0.00000000000E+00 0. -1.
</event>
<event>
 4    1  0.1956828E-002  0.9118800E+02  0.7818608E-02  0.1130116E+00
         25   -1    0    0    0    0  0.00000000000E+00  0.00000000000E+00  0.99999998245E-14  0.12500000000E+03  0.12500000000E+03 0.  0.
        -11    1    1    0    0    0 -0.40038258465E+02  0.25463000849E+01 -0.22564442249E+02  0.46029336724E+02  0.51100000000E-03 0.  1.
         11    1    1    0    0    0  0.34671242894E+02  0.21525598930E+02  0.32711481074E+02  0.52301887991E+02  0.51100000000E-03 0. -1.
         22    1    1    0    0    0  0.53670155706E+01 -0.24071899015E+02 -0.10147038824E+02  0.26668775285E+02  0.00000000000E+00 0.  1.
</event>
<event>
 4    1  0.1956828E-002  0.9118800E+02  0.7818608E-02  0.1130116E+00
         25   -1    0    0    0    0  0.00000000000E+00  0.00000000000E+00  0.99999998245E-14  0.12500000000E+03  0.12500000000E+03 0.  0.
        -11    1    1    0    0    0  0.30802639427E+02 -0.21003155414E+02 -0.39226768741E+02  0.54117229411E+02  0.51100000000E-03 0.  1.
         11    1    1    0    0    0  0.47702465389E+01 -0.32531934489E+01 -0.60771970436E+01  0.83827706533E+01  0.51100000000E-03 0. -1.
         22    1    1    0    0    0 -0.35572885966E+02  0.24256348863E+02  0.45303965785E+02  0.62499999935E+02  0.00000000000E+00 0.  1.
</event>
<event>
 4    1  0.1956828E-002  0.9118800E+02  0.7818608E-02  0.1130116E+00
         25   -1    0    0    0    0  0.00000000000E+00  0.00000000000E+00  0.99999998245E-14  0.12500000000E+03  0.12500000000E+03 0.  0.
        -11    1    1    0    0    0  0.12036292627E+01  0.42689766136E+02  0.24842018813E+02  0.49406383749E+02  0.51100000000E-03 0.  1.
         11    1    1    0    0    0  0.53648303486E+01 -0.55596976647E+02 -0.24794403476E+02  0.61111109145E+02  0.51100000000E-03 0. -1.
         22    1    1    0    0    0 -0.65684596113E+01  0.12907210511E+02 -0.47615337602E-01  0.14482507106E+02  0.00000000000E+00 0. -1.
</event>
<event>
 4    1  0.1956828E-002  0.9118800E+02  0.7818608E-02  0.1130116E+00
         25   -1    0    0    0    0  0.00000000000E+00  0.00000000000E+00  0.99999998245E-14  0.12500000000E+03  0.12500000000E+03 0.  0.
        -11    1    1    0    0    0 -0.43186831030E+02 -0.21092270520E+02  0.28136453853E+02  0.55692425749E+02  0.51100000000E-03 0. -1.
         11    1    1    0    0    0 -0.52787054346E+01 -0.25778717845E+01  0.34399001920E+01  0.68075742812E+01  0.51100000000E-03 0.  1.
         22    1    1    0    0    0  0.48465536464E+02  0.23670142304E+02 -0.31576354045E+02  0.62499999970E+02  0.00000000000E+00 0. -1.
</event>
<event>
 4    1  0.1956828E-002  0.9118800E+02  0.7818608E-02  0.1130116E+00
         25   -1    0    0    0    0  0.00000000000E+00  0.00000000000E+00  0.99999998245E-14  0.12500000000E+03  0.12500000000E+03 0.  0.
        -11    1    1    0    0    0 -0.57892862078E+01 -0.26153829665E+02  0.36489245761E+02  0.45265922032E+02  0.51100000000E-03 0. -1.
         11    1    1    0    0    0 -0.20223352561E+01 -0.10008943691E+02  0.13883717294E+02  0.17234453860E+02  0.51100000000E-03 0.  1.
         22    1    1    0    0    0  0.78116214639E+01  0.36162773356E+02 -0.50372963055E+02  0.62499624108E+02  0.00000000000E+00 0. -1.
</event>
<event>
 4    1  0.1956828E-002  0.9118800E+02  0.7818608E-02  0.1130116E+00
         25   -1    0    0    0    0  0.00000000000E+00  0.00000000000E+00  0.99999998245E-14  0.12500000000E+03  0.12500000000E+03 0.  0.
        -11    1    1    0    0    0  0.21035801866E+01 -0.10829459559E+02  0.14028885128E+02  0.17846900632E+02  0.51100000000E-03 0.  1.
         11    1    1    0    0    0  0.65898050024E+01 -0.24367806769E+02  0.36856995594E+02  0.44672739575E+02  0.51100000000E-03 0. -1.
         22    1    1    0    0    0 -0.86933851890E+01  0.35197266328E+02 -0.50885880722E+02  0.62480359793E+02  0.00000000000E+00 0. -1.
</event>
<event>
 4    1  0.1956828E-002  0.9118800E+02  0.7818608E-02  0.1130116E+00
         25   -1    0    0    0    0  0.00000000000E+00  0.00000000000E+00  0.99999998245E-14  0.12500000000E+03  0.12500000000E+03 0.  0.
        -11    1    1    0    0    0  0.20763502535E+02  0.21039108766E+01  0.19072516677E+02  0.28272077589E+02  0.51100000000E-03 0. -1.
         11    1    1    0    0    0  0.25464008308E+02  0.26759956704E+01  0.22716370620E+02  0.34228791482E+02  0.51100000000E-03 0.  1.
         22    1    1    0    0    0 -0.46227510843E+02 -0.47799065470E+01 -0.41788887297E+02  0.62499130929E+02  0.00000000000E+00 0.  1.
</event>
<event>
 4    1  0.1956828E-002  0.9118800E+02  0.7818608E-02  0.1130116E+00
         25   -1    0    0    0    0  0.00000000000E+00  0.00000000000E+00  0.99999998245E-14  0.12500000000E+03  0.12500000000E+03 0.  0.
        -11    1    1    0    0    0 -0.80751954460E+01 -0.13299849216E+01 -0.69828583339E+01  0.10758157470E+02  0.51100000000E-03 0.  1.
         11    1    1    0    0    0 -0.38836752629E+02 -0.63976744442E+01 -0.33585631990E+02  0.51741842541E+02  0.51100000000E-03 0.  1.
         22    1    1    0    0    0  0.46911948075E+02  0.77276593658E+01  0.40568490324E+02  0.62499999989E+02  0.00000000000E+00 0.  1.
</event>
<event>
 4    1  0.1956828E-002  0.9118800E+02  0.7818608E-02  0.1130116E+00
         25   -1    0    0    0    0  0.00000000000E+00  0.00000000000E+00  0.99999998245E-14  0.12500000000E+03  0.12500000000E+03 0.  0.
        -11    1    1    0    0    0 -0.21256134982E+01  0.59762875785E+00  0.84346677463E+01  0.87188882965E+01  0.51100000000E-03 0. -1.
         11    1    1    0    0    0 -0.13437636940E+02  0.33066877653E+01  0.51970389756E+02  0.53781276315E+02  0.51100000000E-03 0.  1.
         22    1    1    0    0    0  0.15563250439E+02 -0.39043165231E+01 -0.60405057502E+02  0.62499835388E+02  0.00000000000E+00 0.  1.
</event>
<event>
 4    1  0.1956828E-002  0.9118800E+02  0.7818608E-02  0.1130116E+00
         25   -1    0    0    0    0  0.00000000000E+00  0.00000000000E+00  0.99999998245E-14  0.12500000000E+03  0.12500000000E+03 0.  0.
        -11    1    1    0    0    0  0.14995512169E+02  0.16818432708E+02 -0.44838526149E+02  0.50181854205E+02  0.51100000000E-03 0. -1.
         11    1    1    0    0    0  0.32404475007E+01  0.56588201297E+01 -0.10504033587E+02  0.12363553984E+02  0.51100000000E-03 0.  1.
         22    1    1    0    0    0 -0.18235959670E+02 -0.22477252838E+02  0.55342559736E+02  0.62454591811E+02  0.00000000000E+00 0. -1.
</event>
<event>
 4    1  0.1956828E-002  0.9118800E+02  0.7818608E-02  0.1130116E+00
         25   -1    0    0    0    0  0.00000000000E+00  0.00000000000E+00  0.99999998245E-14  0.12500000000E+03  0.12500000000E+03 0.  0.
        -11    1    1    0    0    0  0.14881036133E+02  0.38146118375E+02  0.87255520236E+01  0.41865341774E+02  0.51100000000E-03 0. -1.
         11    1    1    0    0    0  0.73339924064E+01  0.18802379912E+02  0.42979283295E+01  0.20634658300E+02  0.51100000000E-03 0.  1.
         22    1    1    0    0    0 -0.22215028539E+02 -0.56948498287E+02 -0.13023480353E+02  0.62499999926E+02  0.00000000000E+00 0. -1.
</event>
<event>
 4    1  0.1956828E-002  0.9118800E+02  0.7818608E-02  0.1130116E+00
         25   -1    0    0    0    0  0.00000000000E+00  0.00000000000E+00  0.99999998245E-14  0.12500000000E+03  0.12500000000E+03 0.  0.
        -11    1    1    0    0    0 -0.87633772747E+01 -0.31057495902E+01 -0.51013846022E+01  0.10605026492E+02  0.51100000000E-03 0. -1.
         11    1    1    0    0    0 -0.42887637150E+02 -0.15197882750E+02 -0.24955224360E+02  0.51894973586E+02  0.51100000000E-03 0.  1.
         22    1    1    0    0    0  0.51651014425E+02  0.18303632340E+02  0.30056608962E+02  0.62499999922E+02  0.00000000000E+00 0.  1.
</event>
<event>
 4    1  0.1956828E-002  0.9118800E+02  0.7818608E-02  0.1130116E+00
         25   -1    0    0    0    0  0.00000000000E+00  0.00000000000E+00  0.99999998245E-14  0.12500000000E+03  0.12500000000E+03 0.  0.
        -11    1    1    0    0    0 -0.15303098755E+01  0.49096488322E+01 -0.25369707456E+01  0.57343457164E+01  0.51100000000E-03 0.  1.
         11    1    1    0    0    0 -0.15157427749E+02  0.48584590292E+02 -0.25142186275E+02  0.56765654764E+02  0.51100000000E-03 0. -1.
         22    1    1    0    0    0  0.16687737625E+02 -0.53494239125E+02  0.27679157021E+02  0.62499999519E+02  0.00000000000E+00 0. -1.
</event>
<event>
 4    1  0.1956828E-002  0.9118800E+02  0.7818608E-02  0.1130116E+00
         25   -1    0    0    0    0  0.00000000000E+00  0.00000000000E+00  0.99999998245E-14  0.12500000000E+03  0.12500000000E+03 0.  0.
        -11    1    1    0    0    0  0.35872680189E+02  0.38145081435E+02  0.32183888688E+02  0.61462989783E+02  0.51100000000E-03 0. -1.
         11    1    1    0    0    0  0.60510897561E+00  0.64437411132E+00  0.54223224282E+00  0.10370105756E+01  0.51100000000E-03 0.  1.
         22    1    1    0    0    0 -0.36477789165E+02 -0.38789455547E+02 -0.32726120931E+02  0.62499999641E+02  0.00000000000E+00 0. -1.
</event>
<event>
 4    1  0.1956828E-002  0.9118800E+02  0.7818608E-02  0.1130116E+00
         25   -1    0    0    0    0  0.00000000000E+00  0.00000000000E+00  0.99999998245E-14  0.12500000000E+03  0.12500000000E+03 0.  0.
        -11    1    1    0    0    0  0.24494433868E+02 -0.79422197203E+01 -0.10184068478E+01  0.25770007709E+02  0.51100000000E-03 0.  1.
         11    1    1    0    0    0  0.35739398288E+02 -0.85933419031E+01  0.83211095345E+00  0.36767411168E+02  0.51100000000E-03 0. -1.
         22    1    1    0    0    0 -0.60233832156E+02  0.16535561623E+02  0.18629589433E+00  0.62462581123E+02  0.00000000000E+00 0. -1.
</event>
<event>
 4    1  0.1956828E-002  0.9118800E+02  0.7818608E-02  0.1130116E+00
         25   -1    0    0    0    0  0.00000000000E+00  0.00000000000E+00  0.99999998245E-14  0.12500000000E+03  0.12500000000E+03 0.  0.
        -11    1    1    0    0    0  0.32927642555E+01  0.19873361833E+01 -0.40642930699E+01  0.55955589504E+01  0.51100000000E-03 0. -1.
         11    1    1    0    0    0  0.33691121130E+02  0.20229270666E+02 -0.41155846098E+02  0.56904469974E+02  0.51100000000E-03 0.  1.
         22    1    1    0    0    0 -0.36983885385E+02 -0.22216606849E+02  0.45220139168E+02  0.62499971076E+02  0.00000000000E+00 0.  1.
</event>
<event>
 4    1  0.1956828E-002  0.9118800E+02  0.7818608E-02  0.1130116E+00
         25   -1    0    0    0    0  0.00000000000E+00  0.00000000000E+00  0.99999998245E-14  0.12500000000E+03  0.12500000000E+03 0.  0.
        -11    1    1    0    0    0 -0.71323952860E+00 -0.30039027812E+01  0.27236387297E+00  0.30994071828E+01  0.51100000000E-03 0.  1.
         11    1    1    0    0    0 -0.51208890448E+02  0.25951099317E+02 -0.21487898741E+02  0.61298774941E+02  0.51100000000E-03 0. -1.
         22    1    1    0    0    0  0.51922129976E+02 -0.22947196536E+02  0.21215534868E+02  0.60601817876E+02  0.00000000000E+00 0. -1.
</event>
<event>
 4    1  0.1956828E-002  0.9118800E+02  0.7818608E-02  0.1130116E+00
         25   -1    0    0    0    0  0.00000000000E+00  0.00000000000E+00  0.99999998245E-14  0.12500000000E+03  0.12500000000E+03 0.  0.
        -11    1    1    0    0    0  0.80674772334E+00 -0.89536527192E-01 -0.11821551443E+01  0.14339978121E+01  0.51100000000E-03 0. -1.
         11    1    1    0    0    0  0.34294056291E+02 -0.37285337097E+01 -0.50389210337E+02  0.61066003465E+02  0.51100000000E-03 0.  1.
         22    1    1    0    0    0 -0.35100804014E+02  0.38180702369E+01  0.51571365482E+02  0.62499998723E+02  0.00000000000E+00 0.  1.
</event>
<event>
 4    1  0.1956828E-002  0.9118800E+02  0.7818608E-02  0.1130116E+00
         25   -1    0    0    0    0  0.00000000000E+00  0.00000000000E+00  0.99999998245E-14  0.12500000000E+03  0.12500000000E+03 0.  0.
        -11    1    1    0    0    0 -0.88095945314E+01 -0.31626740696E+02 -0.27064781222E+02  0.42548349741E+02  0.51100000000E-03 0. -1.
         11    1    1    0    0    0  0.13083111383E+02 -0.79792478244E+01 -0.17109110396E+02  0.22968627693E+02  0.51100000000E-03 0.  1.
         22    1    1    0    0    0 -0.42735168520E+01  0.39605988520E+02  0.44173891617E+02  0.59483022566E+02  0.00000000000E+00 0.  1.
</event>
<event>
 4    1  0.1956828E-002  0.9118800E+02  0.7818608E-02  0.1130116E+00
         25   -1    0    0    0    0  0.00000000000E+00  0.00000000000E+00  0.99999998245E-14  0.12500000000E+03  0.12500000000E+03 0.  0.
        -11    1    1    0    0    0 -0.56012890837E+02  0.99190183363E+01  0.21037138273E+02  0.60649748983E+02  0.51100000000E-03 0. -1.
         11    1    1    0    0    0 -0.16982687791E+01  0.33519825001E+00  0.65390720540E+00  0.18504241696E+01  0.51100000000E-03 0.  1.
         22    1    1    0    0    0  0.57711159616E+02 -0.10254216586E+02 -0.21691045478E+02  0.62499826848E+02  0.00000000000E+00 0. -1.
</event>
<event>
 4    1  0.1956828E-002  0.9118800E+02  0.7818608E-02  0.1130116E+00
         25   -1    0    0    0    0  0.00000000000E+00  0.00000000000E+00  0.99999998245E-14  0.12500000000E+03  0.12500000000E+03 0.  0.
        -11    1    1    0    0    0  0.18240413367E+02  0.14548576719E+02 -0.16713168293E+02  0.28700239703E+02  0.51100000000E-03 0. -1.
         11    1    1    0    0    0  0.21564759112E+02  0.17033579065E+02 -0.19678568063E+02  0.33799817937E+02  0.51100000000E-03 0.  1.
         22    1    1    0    0    0 -0.39805172479E+02 -0.31582155784E+02  0.36391736356E+02  0.62499942360E+02  0.00000000000E+00 0.  1.
</event>
<event>
 4    1  0.1956828E-002  0.9118800E+02  0.7818608E-02  0.1130116E+00
         25   -1    0    0    0    0  0.00000000000E+00  0.00000000000E+00  0.99999998245E-14  0.12500000000E+03  0.12500000000E+03 0.  0.
        -11    1    1    0    0    0 -0.68056811098E+01  0.11388527455E+02 -0.16827027009E+02  0.21428128504E+02  0.51100000000E-03 0.  1.
         11    1    1    0    0    0 -0.13044714821E+02  0.21828554597E+02 -0.32252879681E+02  0.41071871501E+02  0.51100000000E-03 0.  1.
         22    1    1    0    0    0  0.19850395930E+02 -0.33217082053E+02  0.49079906690E+02  0.62499999995E+02  0.00000000000E+00 0.  1.
</event>
<event>
 4    1  0.1956828E-002  0.9118800E+02  0.7818608E-02  0.1130116E+00
         25   -1    0    0    0    0  0.00000000000E+00  0.00000000000E+00  0.99999998245E-14  0.12500000000E+03  0.12500000000E+03 0.  0.
        -11    1    1    0    0    0  0.35533429451E+01  0.43052539916E+02  0.36267284561E+02  0.56404462315E+02  0.51100000000E-03 0. -1.
         11    1    1    0    0    0  0.94922425018E+00  0.47910568892E+01  0.36716399853E+01  0.61103349528E+01  0.51100000000E-03 0.  1.
         22    1    1    0    0    0 -0.45025671953E+01 -0.47843596805E+02 -0.39938924547E+02  0.62485202733E+02  0.00000000000E+00 0. -1.
</event>
<event>
 4    1  0.1956828E-002  0.9118800E+02  0.7818608E-02  0.1130116E+00
         25   -1    0    0    0    0  0.00000000000E+00  0.00000000000E+00  0.99999998245E-14  0.12500000000E+03  0.12500000000E+03 0.  0.
        -11    1    1    0    0    0 -0.16539827773E+02 -0.43356609877E+02  0.36203103467E+02  0.58855978657E+02  0.51100000000E-03 0. -1.
         11    1    1    0    0    0 -0.10302421465E+01 -0.26868408635E+01  0.22357135976E+01  0.36440263800E+01  0.51100000000E-03 0.  1.
         22    1    1    0    0    0  0.17570069920E+02  0.46043450740E+02 -0.38438817064E+02  0.62499994963E+02  0.00000000000E+00 0. -1.
</event>
<event>
 4    1  0.1956828E-002  0.9118800E+02  0.7818608E-02  0.1130116E+00
         25   -1    0    0    0    0  0.00000000000E+00  0.00000000000E+00  0.99999998245E-14  0.12500000000E+03  0.12500000000E+03 0.  0.
        -11    1    1    0    0    0 -0.11638543814E+02 -0.39010532303E+01 -0.73814612423E+01  0.14323403532E+02  0.51100000000E-03 0. -1.
         11    1    1    0    0    0 -0.22010844252E+02 -0.31245330658E+02 -0.30591926969E+02  0.48955223914E+02  0.51100000000E-03 0.  1.
         22    1    1    0    0    0  0.33649388066E+02  0.35146383888E+02  0.37973388211E+02  0.61721372553E+02  0.00000000000E+00 0.  1.
</event>
<event>
 4    1  0.1956828E-002  0.9118800E+02  0.7818608E-02  0.1130116E+00
         25   -1    0    0    0    0  0.00000000000E+00  0.00000000000E+00  0.99999998245E-14  0.12500000000E+03  0.12500000000E+03 0.  0.
        -11    1    1    0    0    0 -0.18021417556E+02  0.28492738479E+01  0.99133160170E+01  0.20764481378E+02  0.51100000000E-03 0. -1.
         11    1    1    0    0    0  0.21264757773E+02  0.40153150612E+02  0.22101203007E+02  0.50526513850E+02  0.51100000000E-03 0.  1.
         22    1    1    0    0    0 -0.32433402177E+01 -0.43002424460E+02 -0.32014519024E+02  0.53709004772E+02  0.00000000000E+00 0.  1.
</event>
<event>
 4    1  0.1956828E-002  0.9118800E+02  0.7818608E-02  0.1130116E+00
         25   -1    0    0    0    0  0.00000000000E+00  0.00000000000E+00  0.99999998245E-14  0.12500000000E+03  0.12500000000E+03 0.  0.
        -11    1    1    0    0    0  0.25639243927E+02  0.47756286065E+01  0.49419159060E+02  0.55878714554E+02  0.51100000000E-03 0. -1.
         11    1    1    0    0    0  0.30431928613E+01  0.56606005071E+00  0.58532033012E+01  0.66212865758E+01  0.51100000000E-03 0.  1.
         22    1    1    0    0    0 -0.28682436788E+02 -0.53416886572E+01 -0.55272362361E+02  0.62499998870E+02  0.00000000000E+00 0. -1.
</event>
<event>
 4    1  0.1956828E-002  0.9118800E+02  0.7818608E-02  0.1130116E+00
         25   -1    0    0    0    0  0.00000000000E+00  0.00000000000E+00  0.99999998245E-14  0.12500000000E+03  0.12500000000E+03 0.  0.
        -11    1    1    0    0    0 -0.28625588783E+02  0.30021773841E+02 -0.26704161078E+02  0.49333998995E+02  0.51100000000E-03 0.  1.
         11    1    1    0    0    0 -0.50970534294E+01  0.28999934382E+01 -0.12858989337E+02  0.14133064870E+02  0.51100000000E-03 0. -1.
         22    1    1    0    0    0  0.33722642212E+02 -0.32921767280E+02  0.39563150415E+02  0.61532936134E+02  0.00000000000E+00 0.  1.
</event>
<event>
 4    1  0.1956828E-002  0.9118800E+02  0.7818608E-02  0.1130116E+00
         25   -1    0    0    0    0  0.00000000000E+00  0.00000000000E+00  0.99999998245E-14  0.12500000000E+03  0.12500000000E+03 0.  0.
        -11    1    1    0    0    0  0.42092062540E+02  0.33582454127E+01  0.14168287387E+02  0.44539419719E+02  0.51100000000E-03 0.  1.
         11    1    1    0    0    0  0.16976877823E+02  0.13000507207E+01  0.57165535187E+01  0.17960609591E+02  0.51100000000E-03 0. -1.
         22    1    1    0    0    0 -0.59068940363E+02 -0.46582961334E+01 -0.19884840906E+02  0.62499970690E+02  0.00000000000E+00 0.  1.
</event>
<event>
 4    1  0.1956828E-002  0.9118800E+02  0.7818608E-02  0.1130116E+00
         25   -1    0    0    0    0  0.00000000000E+00  0.00000000000E+00  0.99999998245E-14  0.12500000000E+03  0.12500000000E+03 0.  0.
        -11    1    1    0    0    0  0.43847012857E+01  0.22689658948E+01  0.12242067951E+02  0.13200077257E+02  0.51100000000E-03 0.  1.
         11    1    1    0    0    0  0.16140244239E+02  0.87225639561E+01  0.45759199200E+02  0.49300049876E+02  0.51100000000E-03 0. -1.
         22    1    1    0    0    0 -0.20524945525E+02 -0.10991529851E+02 -0.58001267151E+02  0.62499872867E+02  0.00000000000E+00 0. -1.
</event>
<event>
 4    1  0.1956828E-002  0.9118800E+02  0.7818608E-02  0.1130116E+00
         25   -1    0    0    0    0  0.00000000000E+00  0.00000000000E+00  0.99999998245E-14  0.12500000000E+03  0.12500000000E+03 0.  0.
        -11    1    1    0    0    0 -0.15994461101E+02 -0.49728812582E+02  0.28054928647E+02  0.59294659189E+02  0.51100000000E-03 0. -1.
         11    1    1    0    0    0 -0.11028085298E+01 -0.26928003814E+01  0.13585424804E+01  0.32113857569E+01  0.51100000000E-03 0.  1.
         22    1    1    0    0    0  0.17097269631E+02  0.52421612963E+02 -0.29413471128E+02  0.62493955054E+02  0.00000000000E+00 0. -1.
</event>
<event>
 4    1  0.1956828E-002  0.9118800E+02  0.7818608E-02  0.1130116E+00
         25   -1    0    0    0    0  0.00000000000E+00  0.00000000000E+00  0.99999998245E-14  0.12500000000E+03  0.12500000000E+03 0.  0.
        -11    1    1    0    0    0  0.54797265122E+01  0.42400133992E+02 -0.16046056286E+02  0.45664807980E+02  0.51100000000E-03 0.  1.
         11    1    1    0    0    0  0.15427289876E+02  0.10855219184E+02 -0.28619174712E+01  0.19079508074E+02  0.51100000000E-03 0. -1.
         22    1    1    0    0    0 -0.20907016389E+02 -0.53255353177E+02  0.18907973757E+02  0.60255683946E+02  0.00000000000E+00 0.  1.
</event>
<event>
 4    1  0.1956828E-002  0.9118800E+02  0.7818608E-02  0.1130116E+00
         25   -1    0    0    0    0  0.00000000000E+00  0.00000000000E+00  0.99999998245E-14  0.12500000000E+03  0.12500000000E+03 0.  0.
        -11    1    1    0    0    0 -0.19477946546E+01  0.11116034205E+02 -0.13903490706E+02  0.17907182205E+02  0.51100000000E-03 0. -1.
         11    1    1    0    0    0 -0.48027854448E+01  0.27714380632E+02 -0.34602981008E+02  0.44592823825E+02  0.51100000000E-03 0.  1.
         22    1    1    0    0    0  0.67505800993E+01 -0.38830414836E+02  0.48506471714E+02  0.62499993969E+02  0.00000000000E+00 0.  1.
</event>
<event>
 4    1  0.1956828E-002  0.9118800E+02  0.7818608E-02  0.1130116E+00
         25   -1    0    0    0    0  0.00000000000E+00  0.00000000000E+00  0.99999998245E-14  0.12500000000E+03  0.12500000000E+03 0.  0.
        -11    1    1    0    0    0 -0.11314918931E-01  0.54561137453E-01 -0.34568539798E+00  0.35014796959E+00  0.51100000000E-03 0.  1.
         11    1    1    0    0    0 -0.32940394093E+01  0.85917333501E+01 -0.61464978318E+02  0.62149916633E+02  0.51100000000E-03 0. -1.
         22    1    1    0    0    0  0.33053543282E+01 -0.86462944876E+01  0.61810663716E+02  0.62499935397E+02  0.00000000000E+00 0. -1.
</event>
<event>
 4    1  0.1956828E-002  0.9118800E+02  0.7818608E-02  0.1130116E+00
         25   -1    0    0    0    0  0.00000000000E+00  0.00000000000E+00  0.99999998245E-14  0.12500000000E+03  0.12500000000E+03 0.  0.
        -11    1    1    0    0    0  0.43689147835E+02 -0.25939271119E+02  0.33068414875E+02  0.60622664799E+02  0.51100000000E-03 0.  1.
         11    1    1    0    0    0  0.11508862467E+01 -0.19995339900E+01 -0.66905680001E+00  0.24021474960E+01  0.51100000000E-03 0. -1.
         22    1    1    0    0    0 -0.44840034082E+02  0.27938805109E+02 -0.32399358075E+02  0.61975187705E+02  0.00000000000E+00 0.  1.
</event>
<event>
 4    1  0.1956828E-002  0.9118800E+02  0.7818608E-02  0.1130116E+00
         25   -1    0    0    0    0  0.00000000000E+00  0.00000000000E+00  0.99999998245E-14  0.12500000000E+03  0.12500000000E+03 0.  0.
        -11    1    1    0    0    0 -0.20261504790E+02  0.62549339228E+01  0.36891217703E+02  0.42551318647E+02  0.51100000000E-03 0.  1.
         11    1    1    0    0    0 -0.94245705586E+01  0.29256871005E+01  0.17336960613E+02  0.19948743790E+02  0.51100000000E-03 0. -1.
         22    1    1    0    0    0  0.29686075348E+02 -0.91806210232E+01 -0.54228178316E+02  0.62499937563E+02  0.00000000000E+00 0.  1.
</event>
<event>
 4    1  0.1956828E-002  0.9118800E+02  0.7818608E-02  0.1130116E+00
         25   -1    0    0    0    0  0.00000000000E+00  0.00000000000E+00  0.99999998245E-14  0.12500000000E+03  0.12500000000E+03 0.  0.
        -11    1    1    0    0    0 -0.20722281004E+02 -0.38619738903E+01  0.46899896118E+02  0.51419140682E+02  0.51100000000E-03 0. -1.
         11    1    1    0    0    0 -0.44517357863E+01 -0.81569488272E+00  0.10114462383E+02  0.11080869063E+02  0.51100000000E-03 0.  1.
         22    1    1    0    0    0  0.25174016790E+02  0.46776687730E+01 -0.57014358501E+02  0.62499990254E+02  0.00000000000E+00 0. -1.
</event>
<event>
 4    1  0.1956828E-002  0.9118800E+02  0.7818608E-02  0.1130116E+00
         25   -1    0    0    0    0  0.00000000000E+00  0.00000000000E+00  0.99999998245E-14  0.12500000000E+03  0.12500000000E+03 0.  0.
        -11    1    1    0    0    0 -0.41443822933E+01 -0.57086074923E+01 -0.10595049828E+02  0.12728675705E+02  0.51100000000E-03 0.  1.
         11    1    1    0    0    0  0.48064685009E+02 -0.28589410002E+02  0.79071859089E+01  0.56480898529E+02  0.51100000000E-03 0. -1.
         22    1    1    0    0    0 -0.43920302716E+02  0.34298017495E+02  0.26878639189E+01  0.55790425766E+02  0.00000000000E+00 0. -1.
</event>
<event>
 4    1  0.1956828E-002  0.9118800E+02  0.7818608E-02  0.1130116E+00
         25   -1    0    0    0    0  0.00000000000E+00  0.00000000000E+00  0.99999998245E-14  0.12500000000E+03  0.12500000000E+03 0.  0.
        -11    1    1    0    0    0  0.99422779521E+00 -0.27023027193E+00 -0.25323335920E+01  0.27339032519E+01  0.51100000000E-03 0. -1.
         11    1    1    0    0    0  0.21746289142E+02 -0.59066584625E+01 -0.55355186034E+02  0.59766096800E+02  0.51100000000E-03 0. -1.
         22    1    1    0    0    0 -0.22740516937E+02  0.61768887345E+01  0.57887519626E+02  0.62499999948E+02  0.00000000000E+00 0. -1.
</event>
<event>
 4    1  0.1956828E-002  0.9118800E+02  0.7818608E-02  0.1130116E+00
         25   -1    0    0    0    0  0.00000000000E+00  0.00000000000E+00  0.99999998245E-14  0.12500000000E+03  0.12500000000E+03 0.  0.
        -11    1    1    0    0    0  0.51373329525E+02  0.26217659970E+02 -0.18165866430E+02  0.60469689797E+02  0.51100000000E-03 0.  1.
         11    1    1    0    0    0  0.80401937762E+00  0.17807797660E+01 -0.11223917685E+01  0.22533058553E+01  0.51100000000E-03 0. -1.
         22    1    1    0    0    0 -0.52177348902E+02 -0.27998439736E+02  0.19288258199E+02  0.62277004347E+02  0.00000000000E+00 0.  1.
</event>
<event>
 4    1  0.1956828E-002  0.9118800E+02  0.7818608E-02  0.1130116E+00
         25   -1    0    0    0    0  0.00000000000E+00  0.00000000000E+00  0.99999998245E-14  0.12500000000E+03  0.12500000000E+03 0.  0.
        -11    1    1    0    0    0  0.46168349998E+01  0.17072815379E+02  0.38627949240E+02  0.42484287132E+02  0.51100000000E-03 0.  1.
         11    1    1    0    0    0  0.48271266220E+01  0.13455277353E+02  0.14599494899E+02  0.20432593854E+02  0.51100000000E-03 0. -1.
         22    1    1    0    0    0 -0.94439616218E+01 -0.30528092732E+02 -0.53227444138E+02  0.62083119014E+02  0.00000000000E+00 0. -1.
</event>
<event>
 4    1  0.1956828E-002  0.9118800E+02  0.7818608E-02  0.1130116E+00
         25   -1    0    0    0    0  0.00000000000E+00  0.00000000000E+00  0.99999998245E-14  0.12500000000E+03  0.12500000000E+03 0.  0.
        -11    1    1    0    0    0  0.44493919603E+01  0.13217681099E+02 -0.20017952561E+00  0.13947912193E+02  0.51100000000E-03 0. -1.
         11    1    1    0    0    0  0.15142761959E+02  0.46125575692E+02 -0.66943118129E+00  0.48552241051E+02  0.51100000000E-03 0.  1.
         22    1    1    0    0    0 -0.19592153920E+02 -0.59343256791E+02  0.86961070689E+00  0.62499846756E+02  0.00000000000E+00 0.  1.
</event>
<event>
 4    1  0.1956828E-002  0.9118800E+02  0.7818608E-02  0.1130116E+00
         25   -1    0    0    0    0  0.00000000000E+00  0.00000000000E+00  0.99999998245E-14  0.12500000000E+03  0.12500000000E+03 0.  0.
        -11    1    1    0    0    0  0.56781954717E+00  0.61169917173E+00 -0.41290560532E+00  0.93117464252E+00  0.51100000000E-03 0. -1.
         11    1    1    0    0    0  0.37566307422E+02  0.40520048864E+02 -0.27159135604E+02  0.61568827017E+02  0.51100000000E-03 0.  1.
         22    1    1    0    0    0 -0.38134126969E+02 -0.41131748036E+02  0.27572041209E+02  0.62499998341E+02  0.00000000000E+00 0.  1.
</event>
<event>
 4    1  0.1956828E-002  0.9118800E+02  0.7818608E-02  0.1130116E+00
         25   -1    0    0    0    0  0.00000000000E+00  0.00000000000E+00  0.99999998245E-14  0.12500000000E+03  0.12500000000E+03 0.  0.
        -11    1    1    0    0    0 -0.27666432217E+02 -0.74686442249E+01  0.34644546239E+02  0.44960612791E+02  0.51100000000E-03 0. -1.
         11    1    1    0    0    0 -0.10242485703E+02 -0.40937319627E+00  0.14323302879E+02  0.17613435366E+02  0.51100000000E-03 0.  1.
         22    1    1    0    0    0  0.37908917920E+02  0.78780174212E+01 -0.48967849117E+02  0.62425951843E+02  0.00000000000E+00 0. -1.
</event>
<event>
 4    1  0.1956828E-002  0.9118800E+02  0.7818608E-02  0.1130116E+00
         25   -1    0    0    0    0  0.00000000000E+00  0.00000000000E+00  0.99999998245E-14  0.12500000000E+03  0.12500000000E+03 0.  0.
        -11    1    1    0    0    0  0.14848484441E+02 -0.44970914390E+01  0.13530336760E+02  0.20585707049E+02  0.51100000000E-03 0. -1.
         11    1    1    0    0    0  0.43001704688E+02  0.19955680389E+00  0.55238690567E+01  0.43355502057E+02  0.51100000000E-03 0.  1.
         22    1    1    0    0    0 -0.57850189129E+02  0.42975346351E+01 -0.19054205816E+02  0.61058790894E+02  0.00000000000E+00 0.  1.
</event>
<event>
 4    1  0.1956828E-002  0.9118800E+02  0.7818608E-02  0.1130116E+00
         25   -1    0    0    0    0  0.00000000000E+00  0.00000000000E+00  0.99999998245E-14  0.12500000000E+03  0.12500000000E+03 0.  0.
        -11    1    1    0    0    0 -0.99726957956E+01  0.20315074211E+02 -0.47548961017E+02  0.52659857536E+02  0.51100000000E-03 0. -1.
         11    1    1    0    0    0 -0.19092473085E+01  0.37858712165E+01 -0.88798251297E+01  0.98401900768E+01  0.51100000000E-03 0.  1.
         22    1    1    0    0    0  0.11881943104E+02 -0.24100945428E+02  0.56428786147E+02  0.62499952387E+02  0.00000000000E+00 0. -1.
</event>
<event>
 4    1  0.1956828E-002  0.9118800E+02  0.7818608E-02  0.1130116E+00
         25   -1    0    0    0    0  0.00000000000E+00  0.00000000000E+00  0.99999998245E-14  0.12500000000E+03  0.12500000000E+03 0.  0.
        -11    1    1    0    0    0 -0.21007888574E+01  0.61040286962E-01  0.90750652658E+01  0.93152482297E+01  0.51100000000E-03 0. -1.
         11    1    1    0    0    0 -0.20137449070E+02 -0.36669711584E+01  0.49156152709E+02  0.53247449535E+02  0.51100000000E-03 0.  1.
         22    1    1    0    0    0  0.22238237928E+02  0.36059308715E+01 -0.58231217975E+02  0.62437302235E+02  0.00000000000E+00 0.  1.
</event>
<event>
 4    1  0.1956828E-002  0.9118800E+02  0.7818608E-02  0.1130116E+00
         25   -1    0    0    0    0  0.00000000000E+00  0.00000000000E+00  0.99999998245E-14  0.12500000000E+03  0.12500000000E+03 0.  0.
        -11    1    1    0    0    0 -0.21198066606E+02 -0.26694510143E+02  0.16804179953E+02  0.38004412425E+02  0.51100000000E-03 0.  1.
         11    1    1    0    0    0 -0.22717790708E+01 -0.21641231786E+02  0.13202671119E+02  0.25452198693E+02  0.51100000000E-03 0. -1.
         22    1    1    0    0    0  0.23469845677E+02  0.48335741929E+02 -0.30006851072E+02  0.61543388883E+02  0.00000000000E+00 0.  1.
</event>
<event>
 4    1  0.1956828E-002  0.9118800E+02  0.7818608E-02  0.1130116E+00
         25   -1    0    0    0    0  0.00000000000E+00  0.00000000000E+00  0.99999998245E-14  0.12500000000E+03  0.12500000000E+03 0.  0.
        -11    1    1    0    0    0 -0.56718075621E+02  0.18594797119E+02  0.21198161221E+01  0.59726042919E+02  0.51100000000E-03 0. -1.
         11    1    1    0    0    0 -0.26303221489E+01  0.87443338906E+00  0.10825167248E+00  0.27739767563E+01  0.51100000000E-03 0.  1.
         22    1    1    0    0    0  0.59348397770E+02 -0.19469230508E+02 -0.22280677945E+01  0.62499980325E+02  0.00000000000E+00 0. -1.
</event>
<event>
 4    1  0.1956828E-002  0.9118800E+02  0.7818608E-02  0.1130116E+00
         25   -1    0    0    0    0  0.00000000000E+00  0.00000000000E+00  0.99999998245E-14  0.12500000000E+03  0.12500000000E+03 0.  0.
        -11    1    1    0    0    0 -0.51891475421E+00 -0.71792567988E+01 -0.26790056634E+02  0.27740189895E+02  0.51100000000E-03 0. -1.
         11    1    1    0    0    0 -0.65736631966E+00 -0.90013784829E+01 -0.33567655144E+02  0.34759810373E+02  0.51100000000E-03 0.  1.
         22    1    1    0    0    0  0.11762810739E+01  0.16180635282E+02  0.60357711778E+02  0.62499999731E+02  0.00000000000E+00 0.  1.
</event>
<event>
 4    1  0.1956828E-002  0.9118800E+02  0.7818608E-02  0.1130116E+00
         25   -1    0    0    0    0  0.00000000000E+00  0.00000000000E+00  0.99999998245E-14  0.12500000000E+03  0.12500000000E+03 0.  0.
        -11    1    1    0    0    0 -0.37195722477E+02  0.12148544978E+02  0.94916376413E+01  0.40264129210E+02  0.51100000000E-03 0. -1.
         11    1    1    0    0    0 -0.17798462786E+02  0.12323304087E+02 -0.11491727564E+02  0.24509363595E+02  0.51100000000E-03 0.  1.
         22    1    1    0    0    0  0.54994185262E+02 -0.24471849065E+02  0.20000899223E+01  0.60226507196E+02  0.00000000000E+00 0.  1.
</event>
<event>
 4    1  0.1956828E-002  0.9118800E+02  0.7818608E-02  0.1130116E+00
         25   -1    0    0    0    0  0.00000000000E+00  0.00000000000E+00  0.99999998245E-14  0.12500000000E+03  0.12500000000E+03 0.  0.
        -11    1    1    0    0    0  0.28877882492E+02 -0.34853748516E+02  0.20821111836E+01  0.45310606596E+02  0.51100000000E-03 0.  1.
         11    1    1    0    0    0 -0.40115289734E+00 -0.44767430733E+01  0.24105212825E+02  0.24520673681E+02  0.51100000000E-03 0. -1.
         22    1    1    0    0    0 -0.28476729595E+02  0.39330491590E+02 -0.26187324008E+02  0.55168719723E+02  0.00000000000E+00 0.  1.
</event>
<event>
 4    1  0.1956828E-002  0.9118800E+02  0.7818608E-02  0.1130116E+00
         25   -1    0    0    0    0  0.00000000000E+00  0.00000000000E+00  0.99999998245E-14  0.12500000000E+03  0.12500000000E+03 0.  0.
        -11    1    1    0    0    0  0.39461076249E+02 -0.31177146775E+01 -0.27316971237E+02  0.48094839654E+02  0.51100000000E-03 0. -1.
         11    1    1    0    0    0  0.14961443799E+02  0.33563440195E+01 -0.13519280426E+01  0.15392776079E+02  0.51100000000E-03 0.  1.
         22    1    1    0    0    0 -0.54422520047E+02 -0.23862934193E+00  0.28668899280E+02  0.61512384267E+02  0.00000000000E+00 0. -1.
</event>
<event>
 4    1  0.1956828E-002  0.9118800E+02  0.7818608E-02  0.1130116E+00
         25   -1    0    0    0    0  0.00000000000E+00  0.00000000000E+00  0.99999998245E-14  0.12500000000E+03  0.12500000000E+03 0.  0.
        -11    1    1    0    0    0 -0.69395683705E+01 -0.28669265921E+02 -0.28099012235E+02  0.40738665988E+02  0.51100000000E-03 0.  1.
         11    1    1    0    0    0 -0.37846889218E+01 -0.15278775435E+02 -0.15026419488E+02  0.21761390854E+02  0.51100000000E-03 0. -1.
         22    1    1    0    0    0  0.10724257292E+02  0.43948041356E+02  0.43125431722E+02  0.62499943158E+02  0.00000000000E+00 0.  1.
</event>
<event>
 4    1  0.1956828E-002  0.9118800E+02  0.7818608E-02  0.1130116E+00
         25   -1    0    0    0    0  0.00000000000E+00  0.00000000000E+00  0.99999998245E-14  0.12500000000E+03  0.12500000000E+03 0.  0.
        -11    1    1    0    0    0  0.16357877599E+01  0.35651165331E+01 -0.95272879096E+01  0.10303158383E+02  0.51100000000E-03 0.  1.
         11    1    1    0    0    0  0.82936440064E+01  0.18069310118E+02 -0.48262053278E+02  0.52196841724E+02  0.51100000000E-03 0.  1.
         22    1    1    0    0    0 -0.99294317663E+01 -0.21634426651E+02  0.57789341188E+02  0.62499999893E+02  0.00000000000E+00 0.  1.
</event>
<event>
 4    1  0.1956828E-002  0.9118800E+02  0.7818608E-02  0.1130116E+00
         25   -1    0    0    0    0  0.00000000000E+00  0.00000000000E+00  0.99999998245E-14  0.12500000000E+03  0.12500000000E+03 0.  0.
        -11    1    1    0    0    0  0.22137725759E+00 -0.31529590362E+00 -0.67266608625E+00  0.77517696156E+00  0.51100000000E-03 0.  1.
         11    1    1    0    0    0  0.16497465983E+02 -0.23633539377E+02 -0.54582699139E+02  0.61725048505E+02  0.51100000000E-03 0. -1.
         22    1    1    0    0    0 -0.16718843241E+02  0.23948835281E+02  0.55255365225E+02  0.62499774534E+02  0.00000000000E+00 0. -1.
</event>
<event>
 4    1  0.1956828E-002  0.9118800E+02  0.7818608E-02  0.1130116E+00
         25   -1    0    0    0    0  0.00000000000E+00  0.00000000000E+00  0.99999998245E-14  0.12500000000E+03  0.12500000000E+03 0.  0.
        -11    1    1    0    0    0 -0.23238505499E+02  0.53116091721E+02  0.20492446742E+02  0.61492176017E+02  0.51100000000E-03 0. -1.
         11    1    1    0    0    0 -0.68381120791E+00  0.71302299903E+00  0.31263169869E+00  0.10362134941E+01  0.51100000000E-03 0.  1.
         22    1    1    0    0    0  0.23922316707E+02 -0.53829114720E+02 -0.20805078441E+02  0.62471610489E+02  0.00000000000E+00 0. -1.
</event>
<event>
 4    1  0.1956828E-002  0.9118800E+02  0.7818608E-02  0.1130116E+00
         25   -1    0    0    0    0  0.00000000000E+00  0.00000000000E+00  0.99999998245E-14  0.12500000000E+03  0.12500000000E+03 0.  0.
        -11    1    1    0    0    0  0.32286959294E+00 -0.34018787773E+00  0.33794297160E+00  0.57808155080E+00  0.51100000000E-03 0.  1.
         11    1    1    0    0    0  0.45570716241E+02 -0.28527762402E+02  0.30737375969E+02  0.61929877185E+02  0.51100000000E-03 0. -1.
         22    1    1    0    0    0 -0.45893585834E+02  0.28867950280E+02 -0.31075318941E+02  0.62492041264E+02  0.00000000000E+00 0. -1.
</event>
<event>
 4    1  0.1956828E-002  0.9118800E+02  0.7818608E-02  0.1130116E+00
         25   -1    0    0    0    0  0.00000000000E+00  0.00000000000E+00  0.99999998245E-14  0.12500000000E+03  0.12500000000E+03 0.  0.
        -11    1    1    0    0    0 -0.10654634192E+02 -0.10779055543E+02  0.34892763485E+02  0.38042268755E+02  0.51100000000E-03 0.  1.
         11    1    1    0    0    0 -0.68215761005E+01 -0.69161973155E+01  0.22445785469E+02  0.24457738476E+02  0.51100000000E-03 0. -1.
         22    1    1    0    0    0  0.17476210293E+02  0.17695252859E+02 -0.57338548954E+02  0.62499992768E+02  0.00000000000E+00 0.  1.
</event>
<event>
 4    1  0.1956828E-002  0.9118800E+02  0.7818608E-02  0.1130116E+00
         25   -1    0    0    0    0  0.00000000000E+00  0.00000000000E+00  0.99999998245E-14  0.12500000000E+03  0.12500000000E+03 0.  0.
        -11    1    1    0    0    0  0.38885511591E-01 -0.48965794745E-01  0.10252418343E+00  0.12008830657E+00  0.51100000000E-03 0. -1.
         11    1    1    0    0    0  0.37147552119E+02 -0.20970078866E+02  0.45518361814E+02  0.62382738787E+02  0.51100000000E-03 0.  1.
         22    1    1    0    0    0 -0.37186437631E+02  0.21019044661E+02 -0.45620885997E+02  0.62497172906E+02  0.00000000000E+00 0.  1.
</event>
<event>
 4    1  0.1956828E-002  0.9118800E+02  0.7818608E-02  0.1130116E+00
         25   -1    0    0    0    0  0.00000000000E+00  0.00000000000E+00  0.99999998245E-14  0.12500000000E+03  0.12500000000E+03 0.  0.
        -11    1    1    0    0    0 -0.18186430774E+01  0.19920286735E+01  0.12761313139E+01  0.29839826190E+01  0.51100000000E-03 0. -1.
         11    1    1    0    0    0 -0.36278347979E+02  0.39689758486E+02  0.25510017388E+02  0.59516018416E+02  0.51100000000E-03 0.  1.
         22    1    1    0    0    0  0.38096991056E+02 -0.41681787159E+02 -0.26786148702E+02  0.62499998965E+02  0.00000000000E+00 0.  1.
</event>
<event>
 4    1  0.1956828E-002  0.9118800E+02  0.7818608E-02  0.1130116E+00
         25   -1    0    0    0    0  0.00000000000E+00  0.00000000000E+00  0.99999998245E-14  0.12500000000E+03  0.12500000000E+03 0.  0.
        -11    1    1    0    0    0 -0.21379441171E+02  0.14729020981E+02  0.49555279608E+02  0.55944171288E+02  0.51100000000E-03 0. -1.
         11    1    1    0    0    0 -0.21609643453E+01  0.16454948677E+01  0.59724109557E+01  0.65610298845E+01  0.51100000000E-03 0.  1.
         22    1    1    0    0    0  0.23540405516E+02 -0.16374515848E+02 -0.55527690564E+02  0.62494798827E+02  0.00000000000E+00 0. -1.
</event>
<event>
 4    1  0.1956828E-002  0.9118800E+02  0.7818608E-02  0.1130116E+00
         25   -1    0    0    0    0  0.00000000000E+00  0.00000000000E+00  0.99999998245E-14  0.12500000000E+03  0.12500000000E+03 0.  0.
        -11    1    1    0    0    0  0.13186063519E+02 -0.39144544919E+02  0.78983089061E+01  0.42054143100E+02  0.51100000000E-03 0.  1.
         11    1    1    0    0    0  0.64100761795E+01 -0.19031356622E+02  0.38407620597E+01  0.20445856914E+02  0.51100000000E-03 0.  1.
         22    1    1    0    0    0 -0.19596139698E+02  0.58175901541E+02 -0.11739070966E+02  0.62499999986E+02  0.00000000000E+00 0.  1.
</event>
<event>
 4    1  0.1956828E-002  0.9118800E+02  0.7818608E-02  0.1130116E+00
         25   -1    0    0    0    0  0.00000000000E+00  0.00000000000E+00  0.99999998245E-14  0.12500000000E+03  0.12500000000E+03 0.  0.
        -11    1    1    0    0    0 -0.42950244536E+02  0.12284660258E+02  0.85597793137E+01  0.45485230631E+02  0.51100000000E-03 0.  1.
         11    1    1    0    0    0 -0.16225460692E+02  0.47381082832E+01  0.20670252667E+01  0.17029029287E+02  0.51100000000E-03 0. -1.
         22    1    1    0    0    0  0.59175705228E+02 -0.17022768541E+02 -0.10626804580E+02  0.62485740082E+02  0.00000000000E+00 0.  1.
</event>
<event>
 4    1  0.1956828E-002  0.9118800E+02  0.7818608E-02  0.1130116E+00
         25   -1    0    0    0    0  0.00000000000E+00  0.00000000000E+00  0.99999998245E-14  0.12500000000E+03  0.12500000000E+03 0.  0.
        -11    1    1    0    0    0  0.49384991016E+01  0.32792170288E+01 -0.19322206989E+02  0.20211128639E+02  0.51100000000E-03 0. -1.
         11    1    1    0    0    0  0.10502332298E+02  0.62585378842E+01 -0.40483876092E+02  0.42289626433E+02  0.51100000000E-03 0.  1.
         22    1    1    0    0    0 -0.15440831400E+02 -0.95377549130E+01  0.59806083081E+02  0.62499244928E+02  0.00000000000E+00 0.  1.
</event>
<event>
 4    1  0.1956828E-002  0.9118800E+02  0.7818608E-02  0.1130116E+00
         25   -1    0    0    0    0  0.00000000000E+00  0.00000000000E+00  0.99999998245E-14  0.12500000000E+03  0.12500000000E+03 0.  0.
        -11    1    1    0    0    0  0.36385139286E+01  0.36986420847E+01 -0.68943094596E+00  0.52339327631E+01  0.51100000000E-03 0. -1.
         11    1    1    0    0    0  0.40317145395E+02  0.39750708667E+02 -0.85959356985E+01  0.57266754432E+02  0.51100000000E-03 0.  1.
         22    1    1    0    0    0 -0.43955659324E+02 -0.43449350752E+02  0.92853666444E+01  0.62499312805E+02  0.00000000000E+00 0.  1.
</event>
<event>
 4    1  0.1956828E-002  0.9118800E+02  0.7818608E-02  0.1130116E+00
         25   -1    0    0    0    0  0.00000000000E+00  0.00000000000E+00  0.99999998245E-14  0.12500000000E+03  0.12500000000E+03 0.  0.
        -11    1    1    0    0    0  0.32769302917E+00  0.15138205506E+01  0.33320291409E+00  0.15843168319E+01  0.51100000000E-03 0.  1.
         11    1    1    0    0    0  0.13562619086E+02  0.58049750814E+02  0.12530575263E+02  0.60915790422E+02  0.51100000000E-03 0. -1.
         22    1    1    0    0    0 -0.13890312115E+02 -0.59563571364E+02 -0.12863778178E+02  0.62499892746E+02  0.00000000000E+00 0. -1.
</event>
<event>
 4    1  0.1956828E-002  0.9118800E+02  0.7818608E-02  0.1130116E+00
         25   -1    0    0    0    0  0.00000000000E+00  0.00000000000E+00  0.99999998245E-14  0.12500000000E+03  0.12500000000E+03 0.  0.
        -11    1    1    0    0    0  0.23059158750E+01  0.42858074596E+01 -0.13380722359E+00  0.48686033149E+01  0.51100000000E-03 0. -1.
         11    1    1    0    0    0  0.26518608603E+02  0.51165148658E+02  0.71042140909E+00  0.57633442881E+02  0.51100000000E-03 0.  1.
         22    1    1    0    0    0 -0.28824524478E+02 -0.55450956118E+02 -0.57661418551E+00  0.62497953804E+02  0.00000000000E+00 0.  1.
</event>
<event>
 4    1  0.1956828E-002  0.9118800E+02  0.7818608E-02  0.1130116E+00
         25   -1    0    0    0    0  0.00000000000E+00  0.00000000000E+00  0.99999998245E-14  0.12500000000E+03  0.12500000000E+03 0.  0.
        -11    1    1    0    0    0 -0.94351739808E+01 -0.39302808269E+01  0.11040307910E+02  0.15045199049E+02  0.51100000000E-03 0. -1.
         11    1    1    0    0    0 -0.29757650932E+02 -0.12409936904E+02  0.34820020581E+02  0.47454801195E+02  0.51100000000E-03 0.  1.
         22    1    1    0    0    0  0.39192824913E+02  0.16340217731E+02 -0.45860328491E+02  0.62499999755E+02  0.00000000000E+00 0.  1.
</event>
<event>
 4    1  0.1956828E-002  0.9118800E+02  0.7818608E-02  0.1130116E+00
         25   -1    0    0    0    0  0.00000000000E+00  0.00000000000E+00  0.99999998245E-14  0.12500000000E+03  0.12500000000E+03 0.  0.
        -11    1    1    0    0    0 -0.50460101500E+00 -0.31541317837E+00  0.72841278037E+00  0.94058125494E+00  0.51100000000E-03 0. -1.
         11    1    1    0    0    0 -0.32749670192E+02 -0.19600758783E+02  0.48299514505E+02  0.61559513841E+02  0.51100000000E-03 0.  1.
         22    1    1    0    0    0  0.33254271207E+02  0.19916171962E+02 -0.49027927286E+02  0.62499904904E+02  0.00000000000E+00 0.  1.
</event>
<event>
 4    1  0.1956828E-002  0.9118800E+02  0.7818608E-02  0.1130116E+00
         25   -1    0    0    0    0  0.00000000000E+00  0.00000000000E+00  0.99999998245E-14  0.12500000000E+03  0.12500000000E+03 0.  0.
        -11    1    1    0    0    0 -0.74388602362E-01 -0.16244126633E+01 -0.31319933726E-01  0.16264167252E+01  0.51100000000E-03 0. -1.
         11    1    1    0    0    0  0.30706747190E+02 -0.49381721180E+02  0.18588590618E+02  0.61049114745E+02  0.51100000000E-03 0.  1.
         22    1    1    0    0    0 -0.30632358588E+02  0.51006133843E+02 -0.18557270684E+02  0.62324468530E+02  0.00000000000E+00 0.  1.
</event>
<event>
 4    1  0.1956828E-002  0.9118800E+02  0.7818608E-02  0.1130116E+00
         25   -1    0    0    0    0  0.00000000000E+00  0.00000000000E+00  0.99999998245E-14  0.12500000000E+03  0.12500000000E+03 0.  0.
        -11    1    1    0    0    0  0.66495466034E+01  0.48908286471E+01  0.28663720299E+01  0.87380068529E+01  0.51100000000E-03 0.  1.
         11    1    1    0    0    0  0.40913105200E+02  0.30091169827E+02  0.17634943416E+02  0.53761993157E+02  0.51100000000E-03 0.  1.
         22    1    1    0    0    0 -0.47562651803E+02 -0.34981998474E+02 -0.20501315446E+02  0.62499999990E+02  0.00000000000E+00 0.  1.
</event>
<event>
 4    1  0.1956828E-002  0.9118800E+02  0.7818608E-02  0.1130116E+00
         25   -1    0    0    0    0  0.00000000000E+00  0.00000000000E+00  0.99999998245E-14  0.12500000000E+03  0.12500000000E+03 0.  0.
        -11    1    1    0    0    0  0.30073149559E+01  0.29839064084E+00  0.19836947343E+01  0.36149723759E+01  0.51100000000E-03 0.  1.
         11    1    1    0    0    0  0.51010055311E+02 -0.30334425351E+02  0.26316851716E+01  0.59406471628E+02  0.51100000000E-03 0. -1.
         22    1    1    0    0    0 -0.54017370267E+02  0.30036034710E+02 -0.46153799058E+01  0.61978555996E+02  0.00000000000E+00 0. -1.
</event>
<event>
 4    1  0.1956828E-002  0.9118800E+02  0.7818608E-02  0.1130116E+00
         25   -1    0    0    0    0  0.00000000000E+00  0.00000000000E+00  0.99999998245E-14  0.12500000000E+03  0.12500000000E+03 0.  0.
        -11    1    1    0    0    0  0.13129935916E+02 -0.26046045278E+02 -0.31391481389E+02  0.42851100287E+02  0.51100000000E-03 0.  1.
         11    1    1    0    0    0  0.56260277587E+01 -0.11380765956E+02 -0.15006517829E+02  0.19656286518E+02  0.51100000000E-03 0. -1.
         22    1    1    0    0    0 -0.18755963675E+02  0.37426811233E+02  0.46397999218E+02  0.62492613195E+02  0.00000000000E+00 0.  1.
</event>
<event>
 4    1  0.1956828E-002  0.9118800E+02  0.7818608E-02  0.1130116E+00
         25   -1    0    0    0    0  0.00000000000E+00  0.00000000000E+00  0.99999998245E-14  0.12500000000E+03  0.12500000000E+03 0.  0.
        -11    1    1    0    0    0 -0.85871946996E+00  0.14972285814E+02 -0.33400586865E+01  0.15364333175E+02  0.51100000000E-03 0.  1.
         11    1    1    0    0    0 -0.26444394368E+01  0.45923562303E+02 -0.10286139492E+02  0.47135669089E+02  0.51100000000E-03 0. -1.
         22    1    1    0    0    0  0.35031589068E+01 -0.60895848117E+02  0.13626198178E+02  0.62499997736E+02  0.00000000000E+00 0.  1.
</event>
<event>
 4    1  0.1956828E-002  0.9118800E+02  0.7818608E-02  0.1130116E+00
         25   -1    0    0    0    0  0.00000000000E+00  0.00000000000E+00  0.99999998245E-14  0.12500000000E+03  0.12500000000E+03 0.  0.
        -11    1    1    0    0    0  0.90831589576E+01  0.23522789136E+02 -0.55091273947E+01  0.25810382994E+02  0.51100000000E-03 0. -1.
         11    1    1    0    0    0  0.15503094577E+02 -0.27003592686E+01 -0.40255056406E+02  0.43221608579E+02  0.51100000000E-03 0.  1.
         22    1    1    0    0    0 -0.24586253535E+02 -0.20822429867E+02  0.45764183800E+02  0.55968008428E+02  0.00000000000E+00 0.  1.
</event>
<event>
 4    1  0.1956828E-002  0.9118800E+02  0.7818608E-02  0.1130116E+00
         25   -1    0    0    0    0  0.00000000000E+00  0.00000000000E+00  0.99999998245E-14  0.12500000000E+03  0.12500000000E+03 0.  0.
        -11    1    1    0    0    0 -0.19637192562E+02 -0.34792203591E+01  0.13737453055E+02  0.24216562983E+02  0.51100000000E-03 0. -1.
         11    1    1    0    0    0 -0.31043056570E+02 -0.55005247393E+01  0.21718527040E+02  0.38283437028E+02  0.51100000000E-03 0.  1.
         22    1    1    0    0    0  0.50680249132E+02  0.89797450985E+01 -0.35455980095E+02  0.62499999989E+02  0.00000000000E+00 0.  1.
</event>
<event>
 4    1  0.1956828E-002  0.9118800E+02  0.7818608E-02  0.1130116E+00
         25   -1    0    0    0    0  0.00000000000E+00  0.00000000000E+00  0.99999998245E-14  0.12500000000E+03  0.12500000000E+03 0.  0.
        -11    1    1    0    0    0 -0.26782693809E-01  0.16617047154E+01 -0.76079159543E-01  0.16636610753E+01  0.51100000000E-03 0. -1.
         11    1    1    0    0    0 -0.88434645608E+00  0.60769430495E+02 -0.27119315969E+01  0.60836340493E+02  0.51100000000E-03 0.  1.
         22    1    1    0    0    0  0.91112914989E+00 -0.62431135210E+02  0.27880107564E+01  0.62499998432E+02  0.00000000000E+00 0.  1.
</event>
<event>
 4    1  0.1956828E-002  0.9118800E+02  0.7818608E-02  0.1130116E+00
         25   -1    0    0    0    0  0.00000000000E+00  0.00000000000E+00  0.99999998245E-14  0.12500000000E+03  0.12500000000E+03 0.  0.
        -11    1    1    0    0    0  0.53542878423E+02 -0.15490437926E+02 -0.25787049526E+02  0.61414700362E+02  0.51100000000E-03 0. -1.
         11    1    1    0    0    0  0.94749486065E+00 -0.26698165846E+00 -0.45702692747E+00  0.10853108267E+01  0.51100000000E-03 0.  1.
         22    1    1    0    0    0 -0.54490373284E+02  0.15757419584E+02  0.26244076453E+02  0.62499988812E+02  0.00000000000E+00 0. -1.
</event>
<event>
 4    1  0.1956828E-002  0.9118800E+02  0.7818608E-02  0.1130116E+00
         25   -1    0    0    0    0  0.00000000000E+00  0.00000000000E+00  0.99999998245E-14  0.12500000000E+03  0.12500000000E+03 0.  0.
        -11    1    1    0    0    0  0.50952627244E-01  0.20796539822E+02  0.45173663526E+02  0.49730861056E+02  0.51100000000E-03 0. -1.
         11    1    1    0    0    0  0.12133658421E+01  0.59237853550E+01  0.11279950328E+02  0.12798467457E+02  0.51100000000E-03 0.  1.
         22    1    1    0    0    0 -0.12643184694E+01 -0.26720325177E+02 -0.56453613854E+02  0.62470671486E+02  0.00000000000E+00 0. -1.
</event>
<event>
 4    1  0.1956828E-002  0.9118800E+02  0.7818608E-02  0.1130116E+00
         25   -1    0    0    0    0  0.00000000000E+00  0.00000000000E+00  0.99999998245E-14  0.12500000000E+03  0.12500000000E+03 0.  0.
        -11    1    1    0    0    0 -0.39183646284E+01  0.25924796973E+00 -0.64399759675E+01  0.75428165557E+01  0.51100000000E-03 0.  1.
         11    1    1    0    0    0  0.25685963194E+02  0.53143206881E+02 -0.26105205238E+01  0.59082856740E+02  0.51100000000E-03 0. -1.
         22    1    1    0    0    0 -0.21767598566E+02 -0.53402454851E+02  0.90504964912E+01  0.58374326704E+02  0.00000000000E+00 0. -1.
</event>
<event>
 4    1  0.1956828E-002  0.9118800E+02  0.7818608E-02  0.1130116E+00
         25   -1    0    0    0    0  0.00000000000E+00  0.00000000000E+00  0.99999998245E-14  0.12500000000E+03  0.12500000000E+03 0.  0.
        -11    1    1    0    0    0 -0.20160578015E+02 -0.15908720237E+02  0.48869336727E+02  0.55206415912E+02  0.51100000000E-03 0.  1.
         11    1    1    0    0    0 -0.62885004989E+01 -0.20369445881E+01  0.42076977081E+01  0.78357579113E+01  0.51100000000E-03 0. -1.
         22    1    1    0    0    0  0.26449078514E+02  0.17945664825E+02 -0.53077034435E+02  0.61957826177E+02  0.00000000000E+00 0.  1.
</event>
<event>
 4    1  0.1956828E-002  0.9118800E+02  0.7818608E-02  0.1130116E+00
         25   -1    0    0    0    0  0.00000000000E+00  0.00000000000E+00  0.99999998245E-14  0.12500000000E+03  0.12500000000E+03 0.  0.
        -11    1    1    0    0    0  0.19903922247E+01 -0.66938505575E+01 -0.33459930272E+01  0.77437049333E+01  0.51100000000E-03 0. -1.
         11    1    1    0    0    0  0.14100735647E+02 -0.47336844664E+02 -0.23635657858E+02  0.54756295813E+02  0.51100000000E-03 0.  1.
         22    1    1    0    0    0 -0.16091127871E+02  0.54030695221E+02  0.26981650885E+02  0.62499999254E+02  0.00000000000E+00 0.  1.
</event>
<event>
 4    1  0.1956828E-002  0.9118800E+02  0.7818608E-02  0.1130116E+00
         25   -1    0    0    0    0  0.00000000000E+00  0.00000000000E+00  0.99999998245E-14  0.12500000000E+03  0.12500000000E+03 0.  0.
        -11    1    1    0    0    0 -0.20581465319E+02  0.11213354520E+02 -0.43283335242E+02  0.49221775103E+02  0.51100000000E-03 0.  1.
         11    1    1    0    0    0 -0.12614188984E+02  0.63832083230E+01 -0.46433323012E+01  0.14880310727E+02  0.51100000000E-03 0. -1.
         22    1    1    0    0    0  0.33195654303E+02 -0.17596562843E+02  0.47926667544E+02  0.60897914171E+02  0.00000000000E+00 0.  1.
</event>
<event>
 4    1  0.1956828E-002  0.9118800E+02  0.7818608E-02  0.1130116E+00
         25   -1    0    0    0    0  0.00000000000E+00  0.00000000000E+00  0.99999998245E-14  0.12500000000E+03  0.12500000000E+03 0.  0.
        -11    1    1    0    0    0 -0.18351772865E+01 -0.58002394184E+01 -0.53611983215E+00  0.61072152180E+01  0.51100000000E-03 0. -1.
         11    1    1    0    0    0 -0.49552998838E+02 -0.26566787183E+01  0.31045022088E+02  0.58535041064E+02  0.51100000000E-03 0.  1.
         22    1    1    0    0    0  0.51388176125E+02  0.84569181367E+01 -0.30508902256E+02  0.60357743718E+02  0.00000000000E+00 0.  1.
</event>
<event>
 4    1  0.1956828E-002  0.9118800E+02  0.7818608E-02  0.1130116E+00
         25   -1    0    0    0    0  0.00000000000E+00  0.00000000000E+00  0.99999998245E-14  0.12500000000E+03  0.12500000000E+03 0.  0.
        -11    1    1    0    0    0 -0.10094316683E+02  0.54568339081E+01  0.16393511227E+02  0.20010484157E+02  0.51100000000E-03 0. -1.
         11    1    1    0    0    0 -0.21142279418E+02  0.11083273231E+02  0.35151058731E+02  0.42490373670E+02  0.51100000000E-03 0.  1.
         22    1    1    0    0    0  0.31236596100E+02 -0.16540107139E+02 -0.51544569958E+02  0.62499142172E+02  0.00000000000E+00 0.  1.
</event>
<event>
 4    1  0.1956828E-002  0.9118800E+02  0.7818608E-02  0.1130116E+00
         25   -1    0    0    0    0  0.00000000000E+00  0.00000000000E+00  0.99999998245E-14  0.12500000000E+03  0.12500000000E+03 0.  0.
        -11    1    1    0    0    0  0.40308833629E+01  0.40054314566E+02 -0.12506793349E+02  0.42154667786E+02  0.51100000000E-03 0.  1.
         11    1    1    0    0    0  0.13518959041E+02  0.57918768349E+01 -0.19364341732E+02  0.24316369420E+02  0.51100000000E-03 0. -1.
         22    1    1    0    0    0 -0.17549842404E+02 -0.45846191401E+02  0.31871135081E+02  0.58528962794E+02  0.00000000000E+00 0. -1.
</event>
<event>
 4    1  0.1956828E-002  0.9118800E+02  0.7818608E-02  0.1130116E+00
         25   -1    0    0    0    0  0.00000000000E+00  0.00000000000E+00  0.99999998245E-14  0.12500000000E+03  0.12500000000E+03 0.  0.
        -11    1    1    0    0    0  0.89379401187E+01 -0.30162356114E+02  0.10764450152E+02  0.33249479504E+02  0.51100000000E-03 0.  1.
         11    1    1    0    0    0  0.78643810560E+01 -0.26534014864E+02  0.94705076878E+01  0.29250520514E+02  0.51100000000E-03 0. -1.
         22    1    1    0    0    0 -0.16802321175E+02  0.56696370978E+02 -0.20234957840E+02  0.62499999982E+02  0.00000000000E+00 0. -1.
</event>
<event>
 4    1  0.1956828E-002  0.9118800E+02  0.7818608E-02  0.1130116E+00
         25   -1    0    0    0    0  0.00000000000E+00  0.00000000000E+00  0.99999998245E-14  0.12500000000E+03  0.12500000000E+03 0.  0.
        -11    1    1    0    0    0  0.40500238695E+02 -0.22544253313E+02  0.26854536553E+02  0.53569383285E+02  0.51100000000E-03 0.  1.
         11    1    1    0    0    0  0.67517016411E+01 -0.37591174552E+01  0.44765473325E+01  0.89306167410E+01  0.51100000000E-03 0. -1.
         22    1    1    0    0    0 -0.47251940336E+02  0.26303370768E+02 -0.31331083885E+02  0.62499999974E+02  0.00000000000E+00 0.  1.
</event>
<event>
 4    1  0.1956828E-002  0.9118800E+02  0.7818608E-02  0.1130116E+00
         25   -1    0    0    0    0  0.00000000000E+00  0.00000000000E+00  0.99999998245E-14  0.12500000000E+03  0.12500000000E+03 0.  0.
        -11    1    1    0    0    0  0.48229628469E+02  0.24878826635E+02  0.22506915761E+02  0.58750441142E+02  0.51100000000E-03 0.  1.
         11    1    1    0    0    0  0.30778177075E+01  0.15872004202E+01  0.14377153684E+01  0.37495590083E+01  0.51100000000E-03 0. -1.
         22    1    1    0    0    0 -0.51307446177E+02 -0.26466027055E+02 -0.23944631130E+02  0.62499999850E+02  0.00000000000E+00 0.  1.
</event>
<event>
 4    1  0.1956828E-002  0.9118800E+02  0.7818608E-02  0.1130116E+00
         25   -1    0    0    0    0  0.00000000000E+00  0.00000000000E+00  0.99999998245E-14  0.12500000000E+03  0.12500000000E+03 0.  0.
        -11    1    1    0    0    0  0.11088174625E+02 -0.54322201430E+02  0.99957014419E+01  0.56336162740E+02  0.51100000000E-03 0.  1.
         11    1    1    0    0    0  0.38641655377E+01 -0.45889338475E+01  0.26905807322E+01  0.65749003108E+01  0.51100000000E-03 0. -1.
         22    1    1    0    0    0 -0.14952340163E+02  0.58911135278E+02 -0.12686282174E+02  0.62088936949E+02  0.00000000000E+00 0.  1.
</event>
<event>
 4    1  0.1956828E-002  0.9118800E+02  0.7818608E-02  0.1130116E+00
         25   -1    0    0    0    0  0.00000000000E+00  0.00000000000E+00  0.99999998245E-14  0.12500000000E+03  0.12500000000E+03 0.  0.
        -11    1    1    0    0    0  0.35726894984E+02 -0.16557539050E+01 -0.37092608412E+02  0.51526829374E+02  0.51100000000E-03 0.  1.
         11    1    1    0    0    0  0.76105475595E+01 -0.36380609667E+00 -0.78966917580E+01  0.10973173197E+02  0.51100000000E-03 0. -1.
         22    1    1    0    0    0 -0.43337442544E+02  0.20195600017E+01  0.44989300170E+02  0.62499997429E+02  0.00000000000E+00 0.  1.
</event>
<event>
 4    1  0.1956828E-002  0.9118800E+02  0.7818608E-02  0.1130116E+00
         25   -1    0    0    0    0  0.00000000000E+00  0.00000000000E+00  0.99999998245E-14  0.12500000000E+03  0.12500000000E+03 0.  0.
        -11    1    1    0    0    0 -0.60524953562E+01 -0.25214897905E+02  0.14119274193E+02  0.29525881535E+02  0.51100000000E-03 0. -1.
         11    1    1    0    0    0  0.43763954331E+01 -0.29704471354E+02  0.14699227843E+02  0.33430162351E+02  0.51100000000E-03 0.  1.
         22    1    1    0    0    0  0.16760999231E+01  0.54919369259E+02 -0.28818502035E+02  0.62043956114E+02  0.00000000000E+00 0. -1.
</event>
<event>
 4    1  0.1956828E-002  0.9118800E+02  0.7818608E-02  0.1130116E+00
         25   -1    0    0    0    0  0.00000000000E+00  0.00000000000E+00  0.99999998245E-14  0.12500000000E+03  0.12500000000E+03 0.  0.
        -11    1    1    0    0    0  0.35063293008E+01 -0.29595732874E+02 -0.26080520659E+02  0.39602970945E+02  0.51100000000E-03 0.  1.
         11    1    1    0    0    0 -0.82340233250E+00 -0.19443608381E+02 -0.12338319332E+02  0.23042699982E+02  0.51100000000E-03 0. -1.
         22    1    1    0    0    0 -0.26829269683E+01  0.49039341255E+02  0.38418839991E+02  0.62354329073E+02  0.00000000000E+00 0.  1.
</event>
<event>
 4    1  0.1956828E-002  0.9118800E+02  0.7818608E-02  0.1130116E+00
         25   -1    0    0    0    0  0.00000000000E+00  0.00000000000E+00  0.99999998245E-14  0.12500000000E+03  0.12500000000E+03 0.  0.
        -11    1    1    0    0    0 -0.52623530197E+01 -0.32339987622E+02  0.35038070394E+02  0.47971174009E+02  0.51100000000E-03 0.  1.
         11    1    1    0    0    0 -0.38497484715E+01 -0.68287089461E+01  0.12504878753E+02  0.14758855716E+02  0.51100000000E-03 0. -1.
         22    1    1    0    0    0  0.91121014912E+01  0.39168696568E+02 -0.47542949147E+02  0.62269970274E+02  0.00000000000E+00 0.  1.
</event>
<event>
 4    1  0.1956828E-002  0.9118800E+02  0.7818608E-02  0.1130116E+00
         25   -1    0    0    0    0  0.00000000000E+00  0.00000000000E+00  0.99999998245E-14  0.12500000000E+03  0.12500000000E+03 0.  0.
        -11    1    1    0    0    0 -0.16162019727E+02 -0.69783997342E+01  0.18179696442E+01  0.17697851802E+02  0.51100000000E-03 0. -1.
         11    1    1    0    0    0  0.78879066145E+01 -0.27587368400E+02  0.42010210595E+02  0.50873762987E+02  0.51100000000E-03 0.  1.
         22    1    1    0    0    0  0.82741131125E+01  0.34565768134E+02 -0.43828180239E+02  0.56428385211E+02  0.00000000000E+00 0.  1.
</event>
<event>
 4    1  0.1956828E-002  0.9118800E+02  0.7818608E-02  0.1130116E+00
         25   -1    0    0    0    0  0.00000000000E+00  0.00000000000E+00  0.99999998245E-14  0.12500000000E+03  0.12500000000E+03 0.  0.
        -11    1    1    0    0    0  0.28363559752E+02  0.32659490766E+02 -0.19997177795E+02  0.47655230341E+02  0.51100000000E-03 0.  1.
         11    1    1    0    0    0  0.88367493520E+01  0.10174852518E+02 -0.62250647497E+01  0.14844769930E+02  0.51100000000E-03 0. -1.
         22    1    1    0    0    0 -0.37200309104E+02 -0.42834343284E+02  0.26222242545E+02  0.62499999728E+02  0.00000000000E+00 0.  1.
</event>
<event>
 4    1  0.1956828E-002  0.9118800E+02  0.7818608E-02  0.1130116E+00
         25   -1    0    0    0    0  0.00000000000E+00  0.00000000000E+00  0.99999998245E-14  0.12500000000E+03  0.12500000000E+03 0.  0.
        -11    1    1    0    0    0 -0.46124205961E+01  0.10543584470E+02 -0.21700727633E+01  0.11711140563E+02  0.51100000000E-03 0. -1.
         11    1    1    0    0    0 -0.20651639777E+02  0.45315047482E+02 -0.99824971602E+01  0.50789703716E+02  0.51100000000E-03 0.  1.
         22    1    1    0    0    0  0.25264060374E+02 -0.55858631952E+02  0.12152569924E+02  0.62499155721E+02  0.00000000000E+00 0.  1.
</event>
<event>
 4    1  0.1956828E-002  0.9118800E+02  0.7818608E-02  0.1130116E+00
         25   -1    0    0    0    0  0.00000000000E+00  0.00000000000E+00  0.99999998245E-14  0.12500000000E+03  0.12500000000E+03 0.  0.
        -11    1    1    0    0    0 -0.10687950799E+02  0.14383638622E+01  0.15589873939E+02  0.18956406637E+02  0.51100000000E-03 0.  1.
         11    1    1    0    0    0 -0.26448436315E+02  0.15089955573E+01  0.34576201571E+02  0.43558128592E+02  0.51100000000E-03 0. -1.
         22    1    1    0    0    0  0.37136387114E+02 -0.29473594195E+01 -0.50166075511E+02  0.62485464771E+02  0.00000000000E+00 0. -1.
</event>
<event>
 4    1  0.1956828E-002  0.9118800E+02  0.7818608E-02  0.1130116E+00
         25   -1    0    0    0    0  0.00000000000E+00  0.00000000000E+00  0.99999998245E-14  0.12500000000E+03  0.12500000000E+03 0.  0.
        -11    1    1    0    0    0 -0.10037999838E+02  0.76431462923E+01 -0.81900990504E+01  0.15041836614E+02  0.51100000000E-03 0. -1.
         11    1    1    0    0    0 -0.31670487356E+02  0.24108424762E+02 -0.25846496235E+02  0.47458163489E+02  0.51100000000E-03 0.  1.
         22    1    1    0    0    0  0.41708487195E+02 -0.31751571054E+02  0.34036595286E+02  0.62499999897E+02  0.00000000000E+00 0.  1.
</event>
<event>
 4    1  0.1956828E-002  0.9118800E+02  0.7818608E-02  0.1130116E+00
         25   -1    0    0    0    0  0.00000000000E+00  0.00000000000E+00  0.99999998245E-14  0.12500000000E+03  0.12500000000E+03 0.  0.
        -11    1    1    0    0    0  0.67175536180E+01  0.61989586746E+00  0.54153827028E+00  0.67677959083E+01  0.51100000000E-03 0.  1.
         11    1    1    0    0    0  0.55306663741E+02  0.51466867444E+01  0.45567257347E+01  0.55732209613E+02  0.51100000000E-03 0. -1.
         22    1    1    0    0    0 -0.62024217359E+02 -0.57665826119E+01 -0.50982640050E+01  0.62499994479E+02  0.00000000000E+00 0. -1.
</event>
<event>
 4    1  0.1956828E-002  0.9118800E+02  0.7818608E-02  0.1130116E+00
         25   -1    0    0    0    0  0.00000000000E+00  0.00000000000E+00  0.99999998245E-14  0.12500000000E+03  0.12500000000E+03 0.  0.
        -11    1    1    0    0    0 -0.32804286384E+02  0.20075724134E+01  0.23720566960E+02  0.40531677110E+02  0.51100000000E-03 0. -1.
         11    1    1    0    0    0 -0.17780871294E+02  0.10886507475E+01  0.12855452808E+02  0.21968322912E+02  0.51100000000E-03 0.  1.
         22    1    1    0    0    0  0.50585157678E+02 -0.30962231609E+01 -0.36576019768E+02  0.62499999978E+02  0.00000000000E+00 0. -1.
</event>
<event>
 4    1  0.1956828E-002  0.9118800E+02  0.7818608E-02  0.1130116E+00
         25   -1    0    0    0    0  0.00000000000E+00  0.00000000000E+00  0.99999998245E-14  0.12500000000E+03  0.12500000000E+03 0.  0.
        -11    1    1    0    0    0  0.14511165480E+01 -0.19635784686E+02  0.46592817972E+02  0.50582214921E+02  0.51100000000E-03 0. -1.
         11    1    1    0    0    0  0.12077042903E+02 -0.79477200444E+01  0.42010151536E+01  0.15055555379E+02  0.51100000000E-03 0.  1.
         22    1    1    0    0    0 -0.13528159451E+02  0.27583504731E+02 -0.50793833126E+02  0.59362229700E+02  0.00000000000E+00 0. -1.
</event>
<event>
 4    1  0.1956828E-002  0.9118800E+02  0.7818608E-02  0.1130116E+00
         25   -1    0    0    0    0  0.00000000000E+00  0.00000000000E+00  0.99999998245E-14  0.12500000000E+03  0.12500000000E+03 0.  0.
        -11    1    1    0    0    0 -0.10750164991E+02 -0.13227028957E+01 -0.16756581033E+02  0.19952408337E+02  0.51100000000E-03 0.  1.
         11    1    1    0    0    0 -0.63562678182E+01  0.36668804945E+01 -0.42601692358E+02  0.43229068289E+02  0.51100000000E-03 0. -1.
         22    1    1    0    0    0  0.17106432809E+02 -0.23441775988E+01  0.59358273391E+02  0.61818523373E+02  0.00000000000E+00 0. -1.
</event>
<event>
 4    1  0.1956828E-002  0.9118800E+02  0.7818608E-02  0.1130116E+00
         25   -1    0    0    0    0  0.00000000000E+00  0.00000000000E+00  0.99999998245E-14  0.12500000000E+03  0.12500000000E+03 0.  0.
        -11    1    1    0    0    0  0.28453397987E+02  0.75468125165E+01  0.51547588635E+02  0.59360796242E+02  0.51100000000E-03 0. -1.
         11    1    1    0    0    0  0.14165658087E+01  0.13985654129E+00  0.28048094052E+01  0.31453417307E+01  0.51100000000E-03 0.  1.
         22    1    1    0    0    0 -0.29869963796E+02 -0.76866690578E+01 -0.54352398040E+02  0.62493862027E+02  0.00000000000E+00 0. -1.
</event>
<event>
 4    1  0.1956828E-002  0.9118800E+02  0.7818608E-02  0.1130116E+00
         25   -1    0    0    0    0  0.00000000000E+00  0.00000000000E+00  0.99999998245E-14  0.12500000000E+03  0.12500000000E+03 0.  0.
        -11    1    1    0    0    0  0.61920793855E+01  0.79619797408E+00  0.84442592560E+01  0.10501490036E+02  0.51100000000E-03 0.  1.
         11    1    1    0    0    0  0.21097010622E+02 -0.38077273899E+01  0.47536993565E+02  0.52147371961E+02  0.51100000000E-03 0. -1.
         22    1    1    0    0    0 -0.27289090008E+02  0.30115294159E+01 -0.55981252821E+02  0.62351138003E+02  0.00000000000E+00 0. -1.
</event>
<event>
 4    1  0.1956828E-002  0.9118800E+02  0.7818608E-02  0.1130116E+00
         25   -1    0    0    0    0  0.00000000000E+00  0.00000000000E+00  0.99999998245E-14  0.12500000000E+03  0.12500000000E+03 0.  0.
        -11    1    1    0    0    0 -0.37226749818E+00 -0.64416951911E-01 -0.93599063027E+01  0.93675278965E+01  0.51100000000E-03 0. -1.
         11    1    1    0    0    0  0.15506717605E+02  0.36066738465E+02 -0.37733331803E+02  0.54452476928E+02  0.51100000000E-03 0.  1.
         22    1    1    0    0    0 -0.15134450107E+02 -0.36002321513E+02  0.47093238106E+02  0.61179995175E+02  0.00000000000E+00 0.  1.
</event>
<event>
 4    1  0.1956828E-002  0.9118800E+02  0.7818608E-02  0.1130116E+00
         25   -1    0    0    0    0  0.00000000000E+00  0.00000000000E+00  0.99999998245E-14  0.12500000000E+03  0.12500000000E+03 0.  0.
        -11    1    1    0    0    0 -0.15068580286E+02  0.36830565494E+02  0.23935096443E+02  0.46437501100E+02  0.51100000000E-03 0. -1.
         11    1    1    0    0    0 -0.67157579559E+01  0.12117292246E+02  0.81890796164E+01  0.16093203582E+02  0.51100000000E-03 0.  1.
         22    1    1    0    0    0  0.21784338242E+02 -0.48947857741E+02 -0.32124176059E+02  0.62469295318E+02  0.00000000000E+00 0. -1.
</event>
<event>
 4    1  0.1956828E-002  0.9118800E+02  0.7818608E-02  0.1130116E+00
         25   -1    0    0    0    0  0.00000000000E+00  0.00000000000E+00  0.99999998245E-14  0.12500000000E+03  0.12500000000E+03 0.  0.
        -11    1    1    0    0    0 -0.52592002636E+02 -0.18058237351E+02 -0.57404848440E+01  0.55901447602E+02  0.51100000000E-03 0. -1.
         11    1    1    0    0    0 -0.66258665394E+01 -0.27787567519E+00 -0.11301058013E+01  0.67272922987E+01  0.51100000000E-03 0.  1.
         22    1    1    0    0    0  0.59217869175E+02  0.18336113026E+02  0.68705906453E+01  0.62371260099E+02  0.00000000000E+00 0. -1.
</event>
<event>
 4    1  0.1956828E-002  0.9118800E+02  0.7818608E-02  0.1130116E+00
         25   -1    0    0    0    0  0.00000000000E+00  0.00000000000E+00  0.99999998245E-14  0.12500000000E+03  0.12500000000E+03 0.  0.
        -11    1    1    0    0    0  0.10121376559E+01  0.24751119722E+01  0.40271296725E+01  0.48340847706E+01  0.51100000000E-03 0.  1.
         11    1    1    0    0    0  0.12499656899E+02  0.29705728027E+02  0.47819412631E+02  0.57666003198E+02  0.51100000000E-03 0. -1.
         22    1    1    0    0    0 -0.13511794555E+02 -0.32180839999E+02 -0.51846542304E+02  0.62499912032E+02  0.00000000000E+00 0. -1.
</event>
<event>
 4    1  0.1956828E-002  0.9118800E+02  0.7818608E-02  0.1130116E+00
         25   -1    0    0    0    0  0.00000000000E+00  0.00000000000E+00  0.99999998245E-14  0.12500000000E+03  0.12500000000E+03 0.  0.
        -11    1    1    0    0    0  0.10677731880E+02  0.10616473710E+02 -0.52769975319E+01  0.15955255414E+02  0.51100000000E-03 0. -1.
         11    1    1    0    0    0  0.31228977878E+02  0.31553765826E+02 -0.13993523038E+02  0.46547909560E+02  0.51100000000E-03 0.  1.
         22    1    1    0    0    0 -0.41906709757E+02 -0.42170239536E+02  0.19270520570E+02  0.62496835026E+02  0.00000000000E+00 0.  1.
</event>
<event>
 4    1  0.1956828E-002  0.9118800E+02  0.7818608E-02  0.1130116E+00
         25   -1    0    0    0    0  0.00000000000E+00  0.00000000000E+00  0.99999998245E-14  0.12500000000E+03  0.12500000000E+03 0.  0.
        -11    1    1    0    0    0  0.17197086566E+02 -0.31256964723E+02  0.51124991819E+02  0.62341819181E+02  0.51100000000E-03 0. -1.
         11    1    1    0    0    0  0.43203532137E-01 -0.79281789783E-01  0.12988071380E+00  0.15818156757E+00  0.51100000000E-03 0. -1.
         22    1    1    0    0    0 -0.17240290098E+02  0.31336246512E+02 -0.51254872533E+02  0.62499999252E+02  0.00000000000E+00 0. -1.
</event>
<event>
 4    1  0.1956828E-002  0.9118800E+02  0.7818608E-02  0.1130116E+00
         25   -1    0    0    0    0  0.00000000000E+00  0.00000000000E+00  0.99999998245E-14  0.12500000000E+03  0.12500000000E+03 0.  0.
        -11    1    1    0    0    0  0.81367973278E+01  0.21234540719E+02  0.20803935028E+02  0.30820721977E+02  0.51100000000E-03 0. -1.
         11    1    1    0    0    0  0.83665341652E+01  0.21826037341E+02  0.21382279083E+02  0.31679278069E+02  0.51100000000E-03 0.  1.
         22    1    1    0    0    0 -0.16503331493E+02 -0.43060578060E+02 -0.42186214110E+02  0.62499999954E+02  0.00000000000E+00 0. -1.
</event>
<event>
 4    1  0.1956828E-002  0.9118800E+02  0.7818608E-02  0.1130116E+00
         25   -1    0    0    0    0  0.00000000000E+00  0.00000000000E+00  0.99999998245E-14  0.12500000000E+03  0.12500000000E+03 0.  0.
        -11    1    1    0    0    0  0.27054049751E+02  0.60447528200E+01 -0.42646265952E+01  0.28047240235E+02  0.51100000000E-03 0.  1.
         11    1    1    0    0    0  0.33229025715E+02  0.74202790126E+01 -0.52691729221E+01  0.34452762940E+02  0.51100000000E-03 0. -1.
         22    1    1    0    0    0 -0.60283075466E+02 -0.13465031833E+02  0.95337995174E+01  0.62499996825E+02  0.00000000000E+00 0.  1.
</event>
<event>
 4    1  0.1956828E-002  0.9118800E+02  0.7818608E-02  0.1130116E+00
         25   -1    0    0    0    0  0.00000000000E+00  0.00000000000E+00  0.99999998245E-14  0.12500000000E+03  0.12500000000E+03 0.  0.
        -11    1    1    0    0    0  0.13780239178E+02 -0.28414141158E+02  0.16900767344E+02  0.35817514523E+02  0.51100000000E-03 0.  1.
         11    1    1    0    0    0  0.10339527691E+02 -0.21182771556E+02  0.12503726175E+02  0.26682556328E+02  0.51100000000E-03 0. -1.
         22    1    1    0    0    0 -0.24119766869E+02  0.49596912713E+02 -0.29404493519E+02  0.62499929149E+02  0.00000000000E+00 0. -1.
</event>
<event>
 4    1  0.1956828E-002  0.9118800E+02  0.7818608E-02  0.1130116E+00
         25   -1    0    0    0    0  0.00000000000E+00  0.00000000000E+00  0.99999998245E-14  0.12500000000E+03  0.12500000000E+03 0.  0.
        -11    1    1    0    0    0 -0.23444947213E+02 -0.93309941010E+01  0.29815240405E+02  0.39059973904E+02  0.51100000000E-03 0. -1.
         11    1    1    0    0    0 -0.14069300219E+02 -0.56081520169E+01  0.17889613490E+02  0.23440026638E+02  0.51100000000E-03 0.  1.
         22    1    1    0    0    0  0.37514247432E+02  0.14939146118E+02 -0.47704853895E+02  0.62499999458E+02  0.00000000000E+00 0. -1.
</event>
<event>
 4    1  0.1956828E-002  0.9118800E+02  0.7818608E-02  0.1130116E+00
         25   -1    0    0    0    0  0.00000000000E+00  0.00000000000E+00  0.99999998245E-14  0.12500000000E+03  0.12500000000E+03 0.  0.
        -11    1    1    0    0    0 -0.33385016812E+02 -0.79134611033E+01 -0.14508560142E+02  0.37251584286E+02  0.51100000000E-03 0. -1.
         11    1    1    0    0    0 -0.22531343925E+02 -0.52904414250E+01 -0.10092402412E+02  0.25248897327E+02  0.51100000000E-03 0.  1.
         22    1    1    0    0    0  0.55916360736E+02  0.13203902528E+02  0.24600962555E+02  0.62499518387E+02  0.00000000000E+00 0. -1.
</event>
<event>
 4    1  0.1956828E-002  0.9118800E+02  0.7818608E-02  0.1130116E+00
         25   -1    0    0    0    0  0.00000000000E+00  0.00000000000E+00  0.99999998245E-14  0.12500000000E+03  0.12500000000E+03 0.  0.
        -11    1    1    0    0    0 -0.35752779078E+01 -0.42409505722E+01 -0.38075256387E+01  0.67279659352E+01  0.51100000000E-03 0. -1.
         11    1    1    0    0    0 -0.32743048563E+02 -0.35058743295E+02 -0.28466345104E+02  0.55781318687E+02  0.51100000000E-03 0.  1.
         22    1    1    0    0    0  0.36318326471E+02  0.39299693867E+02  0.32273870742E+02  0.62490715378E+02  0.00000000000E+00 0.  1.
</event>
<event>
 4    1  0.1956828E-002  0.9118800E+02  0.7818608E-02  0.1130116E+00
         25   -1    0    0    0    0  0.00000000000E+00  0.00000000000E+00  0.99999998245E-14  0.12500000000E+03  0.12500000000E+03 0.  0.
        -11    1    1    0    0    0 -0.21271631202E+02 -0.27509307660E+02 -0.38355937109E+01  0.34985083697E+02  0.51100000000E-03 0.  1.
         11    1    1    0    0    0 -0.16703915889E+02 -0.21644743739E+02 -0.30913841843E+01  0.27514948555E+02  0.51100000000E-03 0. -1.
         22    1    1    0    0    0  0.37975547091E+02  0.49154051399E+02  0.69269778953E+01  0.62499967748E+02  0.00000000000E+00 0. -1.
</event>
<event>
 4    1  0.1956828E-002  0.9118800E+02  0.7818608E-02  0.1130116E+00
         25   -1    0    0    0    0  0.00000000000E+00  0.00000000000E+00  0.99999998245E-14  0.12500000000E+03  0.12500000000E+03 0.  0.
        -11    1    1    0    0    0  0.23145901435E+01 -0.45817686250E+02  0.41747332693E+02  0.62027876702E+02  0.51100000000E-03 0. -1.
         11    1    1    0    0    0  0.52834853799E-01 -0.33491200331E+00  0.32973405863E+00  0.47295071866E+00  0.51100000000E-03 0.  1.
         22    1    1    0    0    0 -0.23674249973E+01  0.46152598254E+02 -0.42077066752E+02  0.62499172580E+02  0.00000000000E+00 0. -1.
</event>
<event>
 4    1  0.1956828E-002  0.9118800E+02  0.7818608E-02  0.1130116E+00
         25   -1    0    0    0    0  0.00000000000E+00  0.00000000000E+00  0.99999998245E-14  0.12500000000E+03  0.12500000000E+03 0.  0.
        -11    1    1    0    0    0 -0.59212189546E+02 -0.15846856540E+02  0.64273814457E+01  0.61632114077E+02  0.51100000000E-03 0. -1.
         11    1    1    0    0    0  0.54096594472E-01 -0.92986424116E+00  0.10733440997E+01  0.14211410085E+01  0.51100000000E-03 0.  1.
         22    1    1    0    0    0  0.59158092952E+02  0.16776720781E+02 -0.75007255454E+01  0.61946744915E+02  0.00000000000E+00 0. -1.
</event>
<event>
 4    1  0.1956828E-002  0.9118800E+02  0.7818608E-02  0.1130116E+00
         25   -1    0    0    0    0  0.00000000000E+00  0.00000000000E+00  0.99999998245E-14  0.12500000000E+03  0.12500000000E+03 0.  0.
        -11    1    1    0    0    0  0.19066380477E+00 -0.14605547659E+01 -0.15421542493E+02  0.15491725082E+02  0.51100000000E-03 0.  1.
         11    1    1    0    0    0 -0.26457805747E+02  0.28114638588E+02 -0.31262459681E+02  0.49676853498E+02  0.51100000000E-03 0. -1.
         22    1    1    0    0    0  0.26267141942E+02 -0.26654083823E+02  0.46684002173E+02  0.59831421420E+02  0.00000000000E+00 0. -1.
</event>
<event>
 4    1  0.1956828E-002  0.9118800E+02  0.7818608E-02  0.1130116E+00
         25   -1    0    0    0    0  0.00000000000E+00  0.00000000000E+00  0.99999998245E-14  0.12500000000E+03  0.12500000000E+03 0.  0.
        -11    1    1    0    0    0 -0.34977967797E+01 -0.96360812770E+00 -0.83709177514E+01  0.91233429837E+01  0.51100000000E-03 0.  1.
         11    1    1    0    0    0 -0.69127136193E+01  0.38410202197E+01 -0.52987744164E+02  0.53574621583E+02  0.51100000000E-03 0. -1.
         22    1    1    0    0    0  0.10410510399E+02 -0.28774120920E+01  0.61358661915E+02  0.62302035433E+02  0.00000000000E+00 0. -1.
</event>
<event>
 4    1  0.1956828E-002  0.9118800E+02  0.7818608E-02  0.1130116E+00
         25   -1    0    0    0    0  0.00000000000E+00  0.00000000000E+00  0.99999998245E-14  0.12500000000E+03  0.12500000000E+03 0.  0.
        -11    1    1    0    0    0 -0.78651408907E+01  0.30422322433E+02  0.53146987628E+02  0.61741237740E+02  0.51100000000E-03 0.  1.
         11    1    1    0    0    0 -0.41775622610E+00  0.37276490238E+00  0.56371110323E+00  0.79450890864E+00  0.51100000000E-03 0. -1.
         22    1    1    0    0    0  0.82828971168E+01 -0.30795087336E+02 -0.53710698731E+02  0.62464253352E+02  0.00000000000E+00 0.  1.
</event>
<event>
 4    1  0.1956828E-002  0.9118800E+02  0.7818608E-02  0.1130116E+00
         25   -1    0    0    0    0  0.00000000000E+00  0.00000000000E+00  0.99999998245E-14  0.12500000000E+03  0.12500000000E+03 0.  0.
        -11    1    1    0    0    0  0.64710560035E+01  0.29558121982E+01 -0.58820781551E+01  0.92309390224E+01  0.51100000000E-03 0.  1.
         11    1    1    0    0    0  0.37401943944E+02  0.17023788548E+02 -0.33895111562E+02  0.53269065840E+02  0.51100000000E-03 0. -1.
         22    1    1    0    0    0 -0.43872999948E+02 -0.19979600746E+02  0.39777189717E+02  0.62499995138E+02  0.00000000000E+00 0. -1.
</event>
<event>
 4    1  0.1956828E-002  0.9118800E+02  0.7818608E-02  0.1130116E+00
         25   -1    0    0    0    0  0.00000000000E+00  0.00000000000E+00  0.99999998245E-14  0.12500000000E+03  0.12500000000E+03 0.  0.
        -11    1    1    0    0    0  0.18189160352E+02  0.42658285219E+02  0.90200472785E+01  0.47243371019E+02  0.51100000000E-03 0.  1.
         11    1    1    0    0    0  0.58697332460E+01  0.13776626202E+02  0.29181410412E+01  0.15256629552E+02  0.51100000000E-03 0. -1.
         22    1    1    0    0    0 -0.24058893598E+02 -0.56434911421E+02 -0.11938188320E+02  0.62499999429E+02  0.00000000000E+00 0.  1.
</event>
<event>
 4    1  0.1956828E-002  0.9118800E+02  0.7818608E-02  0.1130116E+00
         25   -1    0    0    0    0  0.00000000000E+00  0.00000000000E+00  0.99999998245E-14  0.12500000000E+03  0.12500000000E+03 0.  0.
        -11    1    1    0    0    0  0.15559227851E+02 -0.18381737030E+02  0.14094102615E+02  0.27903791074E+02  0.51100000000E-03 0. -1.
         11    1    1    0    0    0  0.19217370958E+02 -0.22910533361E+02  0.17398376576E+02  0.34596291610E+02  0.51100000000E-03 0.  1.
         22    1    1    0    0    0 -0.34776598809E+02  0.41292270391E+02 -0.31492479191E+02  0.62499917315E+02  0.00000000000E+00 0. -1.
</event>
<event>
 4    1  0.1956828E-002  0.9118800E+02  0.7818608E-02  0.1130116E+00
         25   -1    0    0    0    0  0.00000000000E+00  0.00000000000E+00  0.99999998245E-14  0.12500000000E+03  0.12500000000E+03 0.  0.
        -11    1    1    0    0    0 -0.13910743935E+02 -0.88666628252E+01 -0.11615406785E+02  0.20175335971E+02  0.51100000000E-03 0. -1.
         11    1    1    0    0    0  0.46769239513E+02  0.37701877337E+01 -0.26785525112E+02  0.54028144851E+02  0.51100000000E-03 0.  1.
         22    1    1    0    0    0 -0.32858495578E+02  0.50964750915E+01  0.38400931898E+02  0.50796519178E+02  0.00000000000E+00 0.  1.
</event>
<event>
 4    1  0.1956828E-002  0.9118800E+02  0.7818608E-02  0.1130116E+00
         25   -1    0    0    0    0  0.00000000000E+00  0.00000000000E+00  0.99999998245E-14  0.12500000000E+03  0.12500000000E+03 0.  0.
        -11    1    1    0    0    0  0.14708789142E+02 -0.45512057580E+02  0.21118998531E+02  0.52284873170E+02  0.51100000000E-03 0.  1.
         11    1    1    0    0    0  0.28727763463E+01 -0.88919222222E+01  0.41267047176E+01  0.10215126863E+02  0.51100000000E-03 0.  1.
         22    1    1    0    0    0 -0.17581565488E+02  0.54403979802E+02 -0.25245703249E+02  0.62499999967E+02  0.00000000000E+00 0.  1.
</event>
<event>
 4    1  0.1956828E-002  0.9118800E+02  0.7818608E-02  0.1130116E+00
         25   -1    0    0    0    0  0.00000000000E+00  0.00000000000E+00  0.99999998245E-14  0.12500000000E+03  0.12500000000E+03 0.  0.
        -11    1    1    0    0    0  0.89733278391E+01 -0.40024396317E+02 -0.22363923164E+02  0.46718497114E+02  0.51100000000E-03 0. -1.
         11    1    1    0    0    0  0.14614236962E+01 -0.14421304065E+02 -0.63787967096E+01  0.15836628993E+02  0.51100000000E-03 0.  1.
         22    1    1    0    0    0 -0.10434751535E+02  0.54445700382E+02  0.28742719874E+02  0.62444873892E+02  0.00000000000E+00 0. -1.
</event>
<event>
 4    1  0.1956828E-002  0.9118800E+02  0.7818608E-02  0.1130116E+00
         25   -1    0    0    0    0  0.00000000000E+00  0.00000000000E+00  0.99999998245E-14  0.12500000000E+03  0.12500000000E+03 0.  0.
        -11    1    1    0    0    0  0.43682087405E+02  0.28013980920E+02 -0.27671181645E+02  0.58809881661E+02  0.51100000000E-03 0. -1.
         11    1    1    0    0    0  0.27508373477E+01  0.17694012374E+01 -0.17086704724E+01  0.36901818244E+01  0.51100000000E-03 0.  1.
         22    1    1    0    0    0 -0.46432924753E+02 -0.29783382157E+02  0.29379852118E+02  0.62499936515E+02  0.00000000000E+00 0. -1.
</event>
<event>
 4    1  0.1956828E-002  0.9118800E+02  0.7818608E-02  0.1130116E+00
         25   -1    0    0    0    0  0.00000000000E+00  0.00000000000E+00  0.99999998245E-14  0.12500000000E+03  0.12500000000E+03 0.  0.
        -11    1    1    0    0    0  0.39583276959E+02  0.36356074815E+01 -0.26056288225E+02  0.47528766162E+02  0.51100000000E-03 0.  1.
         11    1    1    0    0    0  0.12596503381E+02  0.13534951159E+01 -0.79797531636E+01  0.14972651978E+02  0.51100000000E-03 0. -1.
         22    1    1    0    0    0 -0.52179780340E+02 -0.49891025974E+01  0.34036041388E+02  0.62498581859E+02  0.00000000000E+00 0.  1.
</event>
<event>
 4    1  0.1956828E-002  0.9118800E+02  0.7818608E-02  0.1130116E+00
         25   -1    0    0    0    0  0.00000000000E+00  0.00000000000E+00  0.99999998245E-14  0.12500000000E+03  0.12500000000E+03 0.  0.
        -11    1    1    0    0    0 -0.10910394921E+02 -0.11594944441E+02  0.60469891709E+01  0.17030723185E+02  0.51100000000E-03 0.  1.
         11    1    1    0    0    0 -0.20581076550E+02 -0.17826278877E+02  0.37736473537E+02  0.46533841082E+02  0.51100000000E-03 0. -1.
         22    1    1    0    0    0  0.31491471470E+02  0.29421223318E+02 -0.43783462708E+02  0.61435435733E+02  0.00000000000E+00 0. -1.
</event>
<event>
 4    1  0.1956828E-002  0.9118800E+02  0.7818608E-02  0.1130116E+00
         25   -1    0    0    0    0  0.00000000000E+00  0.00000000000E+00  0.99999998245E-14  0.12500000000E+03  0.12500000000E+03 0.  0.
        -11    1    1    0    0    0  0.11363084184E+02  0.16802766327E+02 -0.33627913859E+02  0.39271990391E+02  0.51100000000E-03 0. -1.
         11    1    1    0    0    0  0.67229586555E+01  0.99411230551E+01 -0.19887592491E+02  0.23228009730E+02  0.51100000000E-03 0.  1.
         22    1    1    0    0    0 -0.18086042840E+02 -0.26743889382E+02  0.53515506351E+02  0.62499999879E+02  0.00000000000E+00 0. -1.
</event>
<event>
 4    1  0.1956828E-002  0.9118800E+02  0.7818608E-02  0.1130116E+00
         25   -1    0    0    0    0  0.00000000000E+00  0.00000000000E+00  0.99999998245E-14  0.12500000000E+03  0.12500000000E+03 0.  0.
        -11    1    1    0    0    0 -0.10111388183E+02 -0.38492352090E+02 -0.22061474145E+02  0.45503955675E+02  0.51100000000E-03 0.  1.
         11    1    1    0    0    0 -0.37784547502E+01 -0.14376463933E+02 -0.82405150622E+01  0.16996044371E+02  0.51100000000E-03 0. -1.
         22    1    1    0    0    0  0.13889842934E+02  0.52868816022E+02  0.30301989207E+02  0.62499999954E+02  0.00000000000E+00 0. -1.
</event>
<event>
 4    1  0.1956828E-002  0.9118800E+02  0.7818608E-02  0.1130116E+00
         25   -1    0    0    0    0  0.00000000000E+00  0.00000000000E+00  0.99999998245E-14  0.12500000000E+03  0.12500000000E+03 0.  0.
        -11    1    1    0    0    0  0.34907738126E+02 -0.40240044239E+02  0.17196715400E+01  0.53298861263E+02  0.51100000000E-03 0. -1.
         11    1    1    0    0    0  0.60270168031E+01 -0.69447013145E+01  0.32796391722E+00  0.92011612574E+01  0.51100000000E-03 0.  1.
         22    1    1    0    0    0 -0.40934754929E+02  0.47184745554E+02 -0.20476354572E+01  0.62499977480E+02  0.00000000000E+00 0. -1.
</event>
<event>
 4    1  0.1956828E-002  0.9118800E+02  0.7818608E-02  0.1130116E+00
         25   -1    0    0    0    0  0.00000000000E+00  0.00000000000E+00  0.99999998245E-14  0.12500000000E+03  0.12500000000E+03 0.  0.
        -11    1    1    0    0    0 -0.27055020005E+02  0.40808615277E+02 -0.28572071147E+02  0.56689332667E+02  0.51100000000E-03 0.  1.
         11    1    1    0    0    0 -0.27527171498E+01  0.41993691605E+01 -0.29243840895E+01  0.58106949341E+01  0.51100000000E-03 0. -1.
         22    1    1    0    0    0  0.29807737155E+02 -0.45007984437E+02  0.31496455236E+02  0.62499972399E+02  0.00000000000E+00 0.  1.
</event>
<event>
 4    1  0.1956828E-002  0.9118800E+02  0.7818608E-02  0.1130116E+00
         25   -1    0    0    0    0  0.00000000000E+00  0.00000000000E+00  0.99999998245E-14  0.12500000000E+03  0.12500000000E+03 0.  0.
        -11    1    1    0    0    0 -0.13864993941E+01  0.94057273206E+01  0.31582283959E+01  0.10018208116E+02  0.51100000000E-03 0.  1.
         11    1    1    0    0    0 -0.72594249270E+01  0.49273681613E+02  0.16545196619E+02  0.52481791904E+02  0.51100000000E-03 0.  1.
         22    1    1    0    0    0  0.86459243211E+01 -0.58679408934E+02 -0.19703425015E+02  0.62499999980E+02  0.00000000000E+00 0.  1.
</event>
<event>
 4    1  0.1956828E-002  0.9118800E+02  0.7818608E-02  0.1130116E+00
         25   -1    0    0    0    0  0.00000000000E+00  0.00000000000E+00  0.99999998245E-14  0.12500000000E+03  0.12500000000E+03 0.  0.
        -11    1    1    0    0    0 -0.46686167310E+01 -0.39141567278E+02 -0.28425945248E+02  0.48599306936E+02  0.51100000000E-03 0. -1.
         11    1    1    0    0    0 -0.13363435864E+01 -0.11195000441E+02 -0.81311388571E+01  0.13900693092E+02  0.51100000000E-03 0.  1.
         22    1    1    0    0    0  0.60049603173E+01  0.50336567719E+02  0.36557084105E+02  0.62499999972E+02  0.00000000000E+00 0. -1.
</event>
<event>
 4    1  0.1956828E-002  0.9118800E+02  0.7818608E-02  0.1130116E+00
         25   -1    0    0    0    0  0.00000000000E+00  0.00000000000E+00  0.99999998245E-14  0.12500000000E+03  0.12500000000E+03 0.  0.
        -11    1    1    0    0    0  0.23654385449E+02  0.12086677524E+02  0.26974299278E+02  0.37858031464E+02  0.51100000000E-03 0.  1.
         11    1    1    0    0    0  0.29509938114E+01  0.22549305874E+02  0.14452162241E+02  0.26945213927E+02  0.51100000000E-03 0. -1.
         22    1    1    0    0    0 -0.26605379261E+02 -0.34635983398E+02 -0.41426461518E+02  0.60196754609E+02  0.00000000000E+00 0.  1.
</event>
<event>
 4    1  0.1956828E-002  0.9118800E+02  0.7818608E-02  0.1130116E+00
         25   -1    0    0    0    0  0.00000000000E+00  0.00000000000E+00  0.99999998245E-14  0.12500000000E+03  0.12500000000E+03 0.  0.
        -11    1    1    0    0    0 -0.80762806385E-01  0.99457207486E+01  0.46761319446E+02  0.47807372658E+02  0.51100000000E-03 0.  1.
         11    1    1    0    0    0 -0.69076181408E-01  0.30781226336E+01  0.14366440829E+02  0.14692659147E+02  0.51100000000E-03 0. -1.
         22    1    1    0    0    0  0.14983898779E+00 -0.13023843382E+02 -0.61127760275E+02  0.62499968195E+02  0.00000000000E+00 0.  1.
</event>
<event>
 4    1  0.1956828E-002  0.9118800E+02  0.7818608E-02  0.1130116E+00
         25   -1    0    0    0    0  0.00000000000E+00  0.00000000000E+00  0.99999998245E-14  0.12500000000E+03  0.12500000000E+03 0.  0.
        -11    1    1    0    0    0  0.30352651863E+01 -0.25316431779E+02  0.36250653033E+01  0.25754138531E+02  0.51100000000E-03 0. -1.
         11    1    1    0    0    0  0.42985287074E+01 -0.36128661560E+02  0.51479263692E+01  0.36745866180E+02  0.51100000000E-03 0.  1.
         22    1    1    0    0    0 -0.73337938937E+01  0.61445093339E+02 -0.87729916724E+01  0.62499995289E+02  0.00000000000E+00 0.  1.
</event>
<event>
 4    1  0.1956828E-002  0.9118800E+02  0.7818608E-02  0.1130116E+00
         25   -1    0    0    0    0  0.00000000000E+00  0.00000000000E+00  0.99999998245E-14  0.12500000000E+03  0.12500000000E+03 0.  0.
        -11    1    1    0    0    0 -0.30739959137E+02 -0.12519249599E+02  0.10257256129E+02  0.34740293635E+02  0.51100000000E-03 0.  1.
         11    1    1    0    0    0 -0.24560603936E+02 -0.10007618728E+02  0.81991223732E+01  0.27759706523E+02  0.51100000000E-03 0. -1.
         22    1    1    0    0    0  0.55300563073E+02  0.22526868327E+02 -0.18456378502E+02  0.62499999842E+02  0.00000000000E+00 0.  1.
</event>
<event>
 4    1  0.1956828E-002  0.9118800E+02  0.7818608E-02  0.1130116E+00
         25   -1    0    0    0    0  0.00000000000E+00  0.00000000000E+00  0.99999998245E-14  0.12500000000E+03  0.12500000000E+03 0.  0.
        -11    1    1    0    0    0 -0.17580481429E-01 -0.78108141751E-02 -0.72834599777E-02  0.20576492791E-01  0.51100000000E-03 0.  1.
         11    1    1    0    0    0  0.47952602473E+02 -0.35919721489E+02  0.17775751877E+02  0.62495246466E+02  0.51100000000E-03 0. -1.
         22    1    1    0    0    0 -0.47935021991E+02  0.35927532303E+02 -0.17768468417E+02  0.62484177042E+02  0.00000000000E+00 0. -1.
</event>
<event>
 4    1  0.1956828E-002  0.9118800E+02  0.7818608E-02  0.1130116E+00
         25   -1    0    0    0    0  0.00000000000E+00  0.00000000000E+00  0.99999998245E-14  0.12500000000E+03  0.12500000000E+03 0.  0.
        -11    1    1    0    0    0 -0.24645412855E+02  0.35621111797E+02  0.25289854602E+02  0.50158117254E+02  0.51100000000E-03 0.  1.
         11    1    1    0    0    0 -0.60587965934E+01  0.87631277833E+01  0.62306245730E+01  0.12341884278E+02  0.51100000000E-03 0. -1.
         22    1    1    0    0    0  0.30704209449E+02 -0.44384239580E+02 -0.31520479175E+02  0.62499998467E+02  0.00000000000E+00 0.  1.
</event>
<event>
 4    1  0.1956828E-002  0.9118800E+02  0.7818608E-02  0.1130116E+00
         25   -1    0    0    0    0  0.00000000000E+00  0.00000000000E+00  0.99999998245E-14  0.12500000000E+03  0.12500000000E+03 0.  0.
        -11    1    1    0    0    0 -0.32257213449E+02  0.17558809040E+02  0.43373982588E+02  0.56834337862E+02  0.51100000000E-03 0.  1.
         11    1    1    0    0    0 -0.47045034525E+01  0.35399917253E+01  0.17453038171E+01  0.61408452044E+01  0.51100000000E-03 0. -1.
         22    1    1    0    0    0  0.36961716901E+02 -0.21098800765E+02 -0.45119286405E+02  0.62024816934E+02  0.00000000000E+00 0. -1.
</event>
<event>
 4    1  0.1956828E-002  0.9118800E+02  0.7818608E-02  0.1130116E+00
         25   -1    0    0    0    0  0.00000000000E+00  0.00000000000E+00  0.99999998245E-14  0.12500000000E+03  0.12500000000E+03 0.  0.
        -11    1    1    0    0    0 -0.52703002452E+02  0.69165701900E+01  0.18814258370E+02  0.56386361196E+02  0.51100000000E-03 0. -1.
         11    1    1    0    0    0 -0.57113690199E+01  0.76390658583E+00  0.20428866692E+01  0.61136466661E+01  0.51100000000E-03 0.  1.
         22    1    1    0    0    0  0.58414371472E+02 -0.76804767758E+01 -0.20857145039E+02  0.62499992138E+02  0.00000000000E+00 0. -1.
</event>
<event>
 4    1  0.1956828E-002  0.9118800E+02  0.7818608E-02  0.1130116E+00
         25   -1    0    0    0    0  0.00000000000E+00  0.00000000000E+00  0.99999998245E-14  0.12500000000E+03  0.12500000000E+03 0.  0.
        -11    1    1    0    0    0 -0.25871829751E+02  0.30671498208E+01 -0.75011662462E+01  0.27111371747E+02  0.51100000000E-03 0. -1.
         11    1    1    0    0    0 -0.11734261153E+01 -0.34494847252E+01 -0.41638038215E+02  0.41797154214E+02  0.51100000000E-03 0.  1.
         22    1    1    0    0    0  0.27045255866E+02  0.38233490445E+00  0.49139204461E+02  0.56091474039E+02  0.00000000000E+00 0.  1.
</event>
<event>
 4    1  0.1956828E-002  0.9118800E+02  0.7818608E-02  0.1130116E+00
         25   -1    0    0    0    0  0.00000000000E+00  0.00000000000E+00  0.99999998245E-14  0.12500000000E+03  0.12500000000E+03 0.  0.
        -11    1    1    0    0    0 -0.52073520750E+01  0.10946677722E+02 -0.43587595311E+02  0.45241847156E+02  0.51100000000E-03 0. -1.
         11    1    1    0    0    0 -0.24893641154E+01  0.40127099961E+01 -0.16602604101E+02  0.17261090302E+02  0.51100000000E-03 0.  1.
         22    1    1    0    0    0  0.76967161904E+01 -0.14959387718E+02  0.60190199413E+02  0.62497062542E+02  0.00000000000E+00 0.  1.
</event>
<event>
 4    1  0.1956828E-002  0.9118800E+02  0.7818608E-02  0.1130116E+00
         25   -1    0    0    0    0  0.00000000000E+00  0.00000000000E+00  0.99999998245E-14  0.12500000000E+03  0.12500000000E+03 0.  0.
        -11    1    1    0    0    0 -0.51804973294E+02  0.97438186276E+01  0.19041362651E+02  0.56047040522E+02  0.51100000000E-03 0. -1.
         11    1    1    0    0    0 -0.59663442075E+01  0.11240992859E+01  0.21862853301E+01  0.64529610422E+01  0.51100000000E-03 0.  1.
         22    1    1    0    0    0  0.57771317501E+02 -0.10867917913E+02 -0.21227647981E+02  0.62499998436E+02  0.00000000000E+00 0. -1.
</event>
<event>
 4    1  0.1956828E-002  0.9118800E+02  0.7818608E-02  0.1130116E+00
         25   -1    0    0    0    0  0.00000000000E+00  0.00000000000E+00  0.99999998245E-14  0.12500000000E+03  0.12500000000E+03 0.  0.
        -11    1    1    0    0    0  0.24636762380E+01 -0.35244247493E+01 -0.53541780161E+01  0.68672041551E+01  0.51100000000E-03 0. -1.
         11    1    1    0    0    0  0.19964394029E+02 -0.28543512578E+02 -0.43378552783E+02  0.55632795913E+02  0.51100000000E-03 0.  1.
         22    1    1    0    0    0 -0.22428070267E+02  0.32067937328E+02  0.48732730799E+02  0.62499999932E+02  0.00000000000E+00 0.  1.
</event>
<event>
 4    1  0.1956828E-002  0.9118800E+02  0.7818608E-02  0.1130116E+00
         25   -1    0    0    0    0  0.00000000000E+00  0.00000000000E+00  0.99999998245E-14  0.12500000000E+03  0.12500000000E+03 0.  0.
        -11    1    1    0    0    0 -0.29713237329E+02  0.41339949147E+02 -0.15966070415E+02  0.53355255344E+02  0.51100000000E-03 0.  1.
         11    1    1    0    0    0 -0.51877733739E+01  0.69468852063E+01 -0.29119305725E+01  0.91461219415E+01  0.51100000000E-03 0. -1.
         22    1    1    0    0    0  0.34901010703E+02 -0.48286834353E+02  0.18878000987E+02  0.62498622715E+02  0.00000000000E+00 0.  1.
</event>
<event>
 4    1  0.1956828E-002  0.9118800E+02  0.7818608E-02  0.1130116E+00
         25   -1    0    0    0    0  0.00000000000E+00  0.00000000000E+00  0.99999998245E-14  0.12500000000E+03  0.12500000000E+03 0.  0.
        -11    1    1    0    0    0 -0.25980606488E+01 -0.42520301465E+00  0.70977529139E-01  0.26335821251E+01  0.51100000000E-03 0.  1.
         11    1    1    0    0    0 -0.59058420474E+02 -0.96691532580E+01  0.16119673343E+01  0.59866417903E+02  0.51100000000E-03 0.  1.
         22    1    1    0    0    0  0.61656481123E+02  0.10094356273E+02 -0.16829448635E+01  0.62499999972E+02  0.00000000000E+00 0.  1.
</event>
<event>
 4    1  0.1956828E-002  0.9118800E+02  0.7818608E-02  0.1130116E+00
         25   -1    0    0    0    0  0.00000000000E+00  0.00000000000E+00  0.99999998245E-14  0.12500000000E+03  0.12500000000E+03 0.  0.
        -11    1    1    0    0    0 -0.32759210658E+01 -0.29587071570E+02  0.37267238568E+02  0.47696682627E+02  0.51100000000E-03 0.  1.
         11    1    1    0    0    0 -0.71507468901E+01 -0.54112095108E+01  0.12617994379E+02  0.15479927386E+02  0.51100000000E-03 0. -1.
         22    1    1    0    0    0  0.10426667956E+02  0.34998281081E+02 -0.49885232947E+02  0.61823389987E+02  0.00000000000E+00 0.  1.
</event>
<event>
 4    1  0.1956828E-002  0.9118800E+02  0.7818608E-02  0.1130116E+00
         25   -1    0    0    0    0  0.00000000000E+00  0.00000000000E+00  0.99999998245E-14  0.12500000000E+03  0.12500000000E+03 0.  0.
        -11    1    1    0    0    0 -0.53454981864E+02  0.29778773989E+02 -0.69913691647E+01  0.61588064667E+02  0.51100000000E-03 0. -1.
         11    1    1    0    0    0 -0.38730879006E+00  0.88097186987E+00 -0.33842613880E+00  0.10201235449E+01  0.51100000000E-03 0.  1.
         22    1    1    0    0    0  0.53842290654E+02 -0.30659745859E+02  0.73297953035E+01  0.62391811788E+02  0.00000000000E+00 0. -1.
</event>
<event>
 4    1  0.1956828E-002  0.9118800E+02  0.7818608E-02  0.1130116E+00
         25   -1    0    0    0    0  0.00000000000E+00  0.00000000000E+00  0.99999998245E-14  0.12500000000E+03  0.12500000000E+03 0.  0.
        -11    1    1    0    0    0 -0.25337088010E+01  0.31578601217E+02  0.43285012106E+01  0.31974421935E+02  0.51100000000E-03 0. -1.
         11    1    1    0    0    0  0.39709643047E+01  0.30371175957E+02  0.22427911862E+01  0.30711675290E+02  0.51100000000E-03 0.  1.
         22    1    1    0    0    0 -0.14372555037E+01 -0.61949777174E+02 -0.65712923969E+01  0.62313902775E+02  0.00000000000E+00 0. -1.
</event>
<event>
 4    1  0.1956828E-002  0.9118800E+02  0.7818608E-02  0.1130116E+00
         25   -1    0    0    0    0  0.00000000000E+00  0.00000000000E+00  0.99999998245E-14  0.12500000000E+03  0.12500000000E+03 0.  0.
        -11    1    1    0    0    0  0.67816261928E+01  0.51330989527E+02 -0.26055540479E+01  0.51842548663E+02  0.51100000000E-03 0. -1.
         11    1    1    0    0    0  0.13903293699E+01  0.10552913432E+02 -0.53317902273E+00  0.10657451749E+02  0.51100000000E-03 0.  1.
         22    1    1    0    0    0 -0.81719555627E+01 -0.61883902959E+02  0.31387330707E+01  0.62499999588E+02  0.00000000000E+00 0. -1.
</event>
<event>
 4    1  0.1956828E-002  0.9118800E+02  0.7818608E-02  0.1130116E+00
         25   -1    0    0    0    0  0.00000000000E+00  0.00000000000E+00  0.99999998245E-14  0.12500000000E+03  0.12500000000E+03 0.  0.
        -11    1    1    0    0    0 -0.24211602632E+02  0.46795295515E+02 -0.31504046211E+02  0.61388161010E+02  0.51100000000E-03 0.  1.
         11    1    1    0    0    0 -0.43870055569E+00  0.84872238378E+00 -0.56868307404E+00  0.11118401693E+01  0.51100000000E-03 0. -1.
         22    1    1    0    0    0  0.24650303187E+02 -0.47644017899E+02  0.32072729285E+02  0.62499998820E+02  0.00000000000E+00 0.  1.
</event>
<event>
 4    1  0.1956828E-002  0.9118800E+02  0.7818608E-02  0.1130116E+00
         25   -1    0    0    0    0  0.00000000000E+00  0.00000000000E+00  0.99999998245E-14  0.12500000000E+03  0.12500000000E+03 0.  0.
        -11    1    1    0    0    0 -0.31611755395E+00 -0.76976750031E-01 -0.96727709550E-01  0.33942928406E+00  0.51100000000E-03 0.  1.
         11    1    1    0    0    0 -0.57895271040E+02 -0.13277221106E+02 -0.18324639251E+02  0.62160593731E+02  0.51100000000E-03 0. -1.
         22    1    1    0    0    0  0.58211388594E+02  0.13354197856E+02  0.18421366960E+02  0.62499976985E+02  0.00000000000E+00 0. -1.
</event>
<event>
 4    1  0.1956828E-002  0.9118800E+02  0.7818608E-02  0.1130116E+00
         25   -1    0    0    0    0  0.00000000000E+00  0.00000000000E+00  0.99999998245E-14  0.12500000000E+03  0.12500000000E+03 0.  0.
        -11    1    1    0    0    0  0.69632081736E+01  0.20092756481E+02 -0.16190852959E+02  0.26727305343E+02  0.51100000000E-03 0. -1.
         11    1    1    0    0    0  0.93164967876E+01  0.26894029654E+02 -0.21670250166E+02  0.35772694698E+02  0.51100000000E-03 0.  1.
         22    1    1    0    0    0 -0.16279704961E+02 -0.46986786136E+02  0.37861103125E+02  0.62499999959E+02  0.00000000000E+00 0.  1.
</event>
<event>
 4    1  0.1956828E-002  0.9118800E+02  0.7818608E-02  0.1130116E+00
         25   -1    0    0    0    0  0.00000000000E+00  0.00000000000E+00  0.99999998245E-14  0.12500000000E+03  0.12500000000E+03 0.  0.
        -11    1    1    0    0    0 -0.26064921881E+02 -0.74378944324E+01 -0.21470169742E+02  0.34578470401E+02  0.51100000000E-03 0.  1.
         11    1    1    0    0    0  0.69592032187E+01  0.29860222658E+01 -0.32304517359E+02  0.33180245335E+02  0.51100000000E-03 0. -1.
         22    1    1    0    0    0  0.19105718662E+02  0.44518721666E+01  0.53774687101E+02  0.57241284264E+02  0.00000000000E+00 0.  1.
</event>
<event>
 4    1  0.1956828E-002  0.9118800E+02  0.7818608E-02  0.1130116E+00
         25   -1    0    0    0    0  0.00000000000E+00  0.00000000000E+00  0.99999998245E-14  0.12500000000E+03  0.12500000000E+03 0.  0.
        -11    1    1    0    0    0  0.23904961883E+02 -0.56468517547E+01  0.16083908535E+02  0.29360283572E+02  0.51100000000E-03 0.  1.
         11    1    1    0    0    0  0.26984463874E+02 -0.63619837336E+01  0.18155018899E+02  0.33139716944E+02  0.51100000000E-03 0. -1.
         22    1    1    0    0    0 -0.50889425758E+02  0.12008835488E+02 -0.34238927434E+02  0.62499999485E+02  0.00000000000E+00 0.  1.
</event>
<event>
 4    1  0.1956828E-002  0.9118800E+02  0.7818608E-02  0.1130116E+00
         25   -1    0    0    0    0  0.00000000000E+00  0.00000000000E+00  0.99999998245E-14  0.12500000000E+03  0.12500000000E+03 0.  0.
        -11    1    1    0    0    0  0.14748356046E+02 -0.48353270774E+01 -0.15345016902E+02  0.21825763170E+02  0.51100000000E-03 0. -1.
         11    1    1    0    0    0  0.27481594783E+02 -0.88872405163E+01 -0.28638705128E+02  0.40674273534E+02  0.51100000000E-03 0.  1.
         22    1    1    0    0    0 -0.42229950829E+02  0.13722567594E+02  0.43983722030E+02  0.62499963296E+02  0.00000000000E+00 0.  1.
</event>
<event>
 4    1  0.1956828E-002  0.9118800E+02  0.7818608E-02  0.1130116E+00
         25   -1    0    0    0    0  0.00000000000E+00  0.00000000000E+00  0.99999998245E-14  0.12500000000E+03  0.12500000000E+03 0.  0.
        -11    1    1    0    0    0 -0.44739003861E+00  0.10832789526E+01 -0.33074827373E+01  0.35090017746E+01  0.51100000000E-03 0. -1.
         11    1    1    0    0    0 -0.19301204092E+02  0.14663318979E+02 -0.53821257934E+02  0.59027766422E+02  0.51100000000E-03 0.  1.
         22    1    1    0    0    0  0.19748594131E+02 -0.15746597931E+02  0.57128740672E+02  0.62463231803E+02  0.00000000000E+00 0.  1.
</event>
<event>
 4    1  0.1956828E-002  0.9118800E+02  0.7818608E-02  0.1130116E+00
         25   -1    0    0    0    0  0.00000000000E+00  0.00000000000E+00  0.99999998245E-14  0.12500000000E+03  0.12500000000E+03 0.  0.
        -11    1    1    0    0    0  0.84141208137E+01  0.11966667345E+02  0.12293009912E+02  0.19108025784E+02  0.51100000000E-03 0.  1.
         11    1    1    0    0    0  0.26168249761E+02  0.24580320423E+02  0.24581610354E+02  0.43511205632E+02  0.51100000000E-03 0. -1.
         22    1    1    0    0    0 -0.34582370575E+02 -0.36546987767E+02 -0.36874620266E+02  0.62380768585E+02  0.00000000000E+00 0. -1.
</event>
<event>
 4    1  0.1956828E-002  0.9118800E+02  0.7818608E-02  0.1130116E+00
         25   -1    0    0    0    0  0.00000000000E+00  0.00000000000E+00  0.99999998245E-14  0.12500000000E+03  0.12500000000E+03 0.  0.
        -11    1    1    0    0    0  0.98757371379E+01 -0.15979691143E+02  0.39021508510E+00  0.18789171911E+02  0.51100000000E-03 0. -1.
         11    1    1    0    0    0  0.22982958355E+02 -0.37169922636E+02  0.90387219613E+00  0.43710828278E+02  0.51100000000E-03 0.  1.
         22    1    1    0    0    0 -0.32858695493E+02  0.53149613779E+02 -0.12940872812E+01  0.62499999810E+02  0.00000000000E+00 0.  1.
</event>
<event>
 4    1  0.1956828E-002  0.9118800E+02  0.7818608E-02  0.1130116E+00
         25   -1    0    0    0    0  0.00000000000E+00  0.00000000000E+00  0.99999998245E-14  0.12500000000E+03  0.12500000000E+03 0.  0.
        -11    1    1    0    0    0  0.41702566384E+01 -0.17744178528E+02  0.27307825514E+02  0.32832365839E+02  0.51100000000E-03 0. -1.
         11    1    1    0    0    0  0.37682095131E+01 -0.16039716415E+02  0.24671777887E+02  0.29667634384E+02  0.51100000000E-03 0.  1.
         22    1    1    0    0    0 -0.79384661515E+01  0.33783894943E+02 -0.51979603401E+02  0.62499999776E+02  0.00000000000E+00 0. -1.
</event>
<event>
 4    1  0.1956828E-002  0.9118800E+02  0.7818608E-02  0.1130116E+00
         25   -1    0    0    0    0  0.00000000000E+00  0.00000000000E+00  0.99999998245E-14  0.12500000000E+03  0.12500000000E+03 0.  0.
        -11    1    1    0    0    0  0.62934027328E+00  0.20313832160E+01 -0.50455479149E+01  0.54754124021E+01  0.51100000000E-03 0.  1.
         11    1    1    0    0    0  0.12174333806E+01  0.17865093072E+02 -0.54157138929E+02  0.57040681901E+02  0.51100000000E-03 0. -1.
         22    1    1    0    0    0 -0.18467736538E+01 -0.19896476288E+02  0.59202686844E+02  0.62483905697E+02  0.00000000000E+00 0. -1.
</event>
<event>
 4    1  0.1956828E-002  0.9118800E+02  0.7818608E-02  0.1130116E+00
         25   -1    0    0    0    0  0.00000000000E+00  0.00000000000E+00  0.99999998245E-14  0.12500000000E+03  0.12500000000E+03 0.  0.
        -11    1    1    0    0    0  0.94140489332E+01  0.17700195512E+02 -0.23498572137E+02  0.30888576063E+02  0.51100000000E-03 0. -1.
         11    1    1    0    0    0  0.79329105633E+01  0.74691740493E+00 -0.32070111296E+02  0.33045135715E+02  0.51100000000E-03 0.  1.
         22    1    1    0    0    0 -0.17346959497E+02 -0.18447112917E+02  0.55568683433E+02  0.61066288222E+02  0.00000000000E+00 0. -1.
</event>
<event>
 4    1  0.1956828E-002  0.9118800E+02  0.7818608E-02  0.1130116E+00
         25   -1    0    0    0    0  0.00000000000E+00  0.00000000000E+00  0.99999998245E-14  0.12500000000E+03  0.12500000000E+03 0.  0.
        -11    1    1    0    0    0  0.11355440157E+02 -0.29064221654E+02 -0.82374525792E+00  0.31214636919E+02  0.51100000000E-03 0. -1.
         11    1    1    0    0    0  0.38116975958E+02  0.21149826859E+02 -0.16515935584E+01  0.43622778384E+02  0.51100000000E-03 0.  1.
         22    1    1    0    0    0 -0.49472416115E+02  0.79143947950E+01  0.24753388163E+01  0.50162584697E+02  0.00000000000E+00 0. -1.
</event>
<event>
 4    1  0.1956828E-002  0.9118800E+02  0.7818608E-02  0.1130116E+00
         25   -1    0    0    0    0  0.00000000000E+00  0.00000000000E+00  0.99999998245E-14  0.12500000000E+03  0.12500000000E+03 0.  0.
        -11    1    1    0    0    0  0.33174145310E+02  0.48176901586E+01  0.44336510875E+02  0.55582913313E+02  0.51100000000E-03 0. -1.
         11    1    1    0    0    0  0.41260878759E+01  0.59816611422E+00  0.55193920909E+01  0.69170870440E+01  0.51100000000E-03 0.  1.
         22    1    1    0    0    0 -0.37300233186E+02 -0.54158562728E+01 -0.49855902966E+02  0.62499999643E+02  0.00000000000E+00 0. -1.
</event>
<event>
 4    1  0.1956828E-002  0.9118800E+02  0.7818608E-02  0.1130116E+00
         25   -1    0    0    0    0  0.00000000000E+00  0.00000000000E+00  0.99999998245E-14  0.12500000000E+03  0.12500000000E+03 0.  0.
        -11    1    1    0    0    0  0.30128032933E+02 -0.29903128202E+02 -0.31694626332E+02  0.52975888697E+02  0.51100000000E-03 0.  1.
         11    1    1    0    0    0  0.54967259063E+01 -0.53388049815E+01 -0.56564930051E+01  0.95243240022E+01  0.51100000000E-03 0. -1.
         22    1    1    0    0    0 -0.35624758839E+02  0.35241933184E+02  0.37351119337E+02  0.62499787301E+02  0.00000000000E+00 0.  1.
</event>
<event>
 4    1  0.1956828E-002  0.9118800E+02  0.7818608E-02  0.1130116E+00
         25   -1    0    0    0    0  0.00000000000E+00  0.00000000000E+00  0.99999998245E-14  0.12500000000E+03  0.12500000000E+03 0.  0.
        -11    1    1    0    0    0 -0.54667683694E+01 -0.34983404467E+01  0.63374777687E+00  0.65211639138E+01  0.51100000000E-03 0.  1.
         11    1    1    0    0    0 -0.46942974158E+02 -0.30009818035E+02  0.54220052327E+01  0.55978836557E+02  0.51100000000E-03 0. -1.
         22    1    1    0    0    0  0.52409742527E+02  0.33508158482E+02 -0.60557530096E+01  0.62499999529E+02  0.00000000000E+00 0. -1.
</event>
<event>
 4    1  0.1956828E-002  0.9118800E+02  0.7818608E-02  0.1130116E+00
         25   -1    0    0    0    0  0.00000000000E+00  0.00000000000E+00  0.99999998245E-14  0.12500000000E+03  0.12500000000E+03 0.  0.
        -11    1    1    0    0    0 -0.21539195573E+02  0.49608300058E-01 -0.76916144224E+01  0.22871386919E+02  0.51100000000E-03 0. -1.
         11    1    1    0    0    0 -0.37904170591E+02  0.16238285501E+01 -0.11496621340E+02  0.39642594136E+02  0.51100000000E-03 0.  1.
         22    1    1    0    0    0  0.59443366164E+02 -0.16734368502E+01  0.19188235763E+02  0.62486018944E+02  0.00000000000E+00 0. -1.
</event>
<event>
 4    1  0.1956828E-002  0.9118800E+02  0.7818608E-02  0.1130116E+00
         25   -1    0    0    0    0  0.00000000000E+00  0.00000000000E+00  0.99999998245E-14  0.12500000000E+03  0.12500000000E+03 0.  0.
        -11    1    1    0    0    0  0.14087913992E+02 -0.61959654335E+01  0.18836506110E+02  0.24324334955E+02  0.51100000000E-03 0.  1.
         11    1    1    0    0    0  0.18778560950E+02 -0.38758364783E+02 -0.55399875015E+01  0.43422766538E+02  0.51100000000E-03 0. -1.
         22    1    1    0    0    0 -0.32866474942E+02  0.44954330217E+02 -0.13296518609E+02  0.57252898507E+02  0.00000000000E+00 0.  1.
</event>
<event>
 4    1  0.1956828E-002  0.9118800E+02  0.7818608E-02  0.1130116E+00
         25   -1    0    0    0    0  0.00000000000E+00  0.00000000000E+00  0.99999998245E-14  0.12500000000E+03  0.12500000000E+03 0.  0.
        -11    1    1    0    0    0 -0.33596067826E+00  0.25692621304E+00  0.92951770401E+00  0.10212169600E+01  0.51100000000E-03 0.  1.
         11    1    1    0    0    0 -0.35329489587E+02 -0.16187961087E+02  0.47749618703E+02  0.61564998215E+02  0.51100000000E-03 0. -1.
         22    1    1    0    0    0  0.35665450266E+02  0.15931034874E+02 -0.48679136407E+02  0.62413784825E+02  0.00000000000E+00 0. -1.
</event>
<event>
 4    1  0.1956828E-002  0.9118800E+02  0.7818608E-02  0.1130116E+00
         25   -1    0    0    0    0  0.00000000000E+00  0.00000000000E+00  0.99999998245E-14  0.12500000000E+03  0.12500000000E+03 0.  0.
        -11    1    1    0    0    0  0.39962727655E+02 -0.44528184911E+02 -0.65612623654E+01  0.60189941163E+02  0.51100000000E-03 0.  1.
         11    1    1    0    0    0  0.15265109229E+01 -0.17122905172E+01 -0.27283803272E+00  0.23101115268E+01  0.51100000000E-03 0. -1.
         22    1    1    0    0    0 -0.41489238578E+02  0.46240475428E+02  0.68341003981E+01  0.62499947311E+02  0.00000000000E+00 0.  1.
</event>
<event>
 4    1  0.1956828E-002  0.9118800E+02  0.7818608E-02  0.1130116E+00
         25   -1    0    0    0    0  0.00000000000E+00  0.00000000000E+00  0.99999998245E-14  0.12500000000E+03  0.12500000000E+03 0.  0.
        -11    1    1    0    0    0 -0.35422583821E+02 -0.81630101440E+00 -0.38451477370E+02  0.52287110305E+02  0.51100000000E-03 0. -1.
         11    1    1    0    0    0 -0.69182824061E+01 -0.15762961738E+00 -0.75110344766E+01  0.10212889783E+02  0.51100000000E-03 0.  1.
         22    1    1    0    0    0  0.42340866227E+02  0.97393063178E+00  0.45962511847E+02  0.62499999912E+02  0.00000000000E+00 0. -1.
</event>
<event>
 4    1  0.1956828E-002  0.9118800E+02  0.7818608E-02  0.1130116E+00
         25   -1    0    0    0    0  0.00000000000E+00  0.00000000000E+00  0.99999998245E-14  0.12500000000E+03  0.12500000000E+03 0.  0.
        -11    1    1    0    0    0 -0.30826195050E+01 -0.51989416188E+01 -0.11366426647E+01  0.61500807943E+01  0.51100000000E-03 0.  1.
         11    1    1    0    0    0 -0.29848689188E+02 -0.47347929992E+02  0.76666872638E+01  0.56493794480E+02  0.51100000000E-03 0. -1.
         22    1    1    0    0    0  0.32931308693E+02  0.52546871611E+02 -0.65300445991E+01  0.62356124726E+02  0.00000000000E+00 0. -1.
</event>
<event>
 4    1  0.1956828E-002  0.9118800E+02  0.7818608E-02  0.1130116E+00
         25   -1    0    0    0    0  0.00000000000E+00  0.00000000000E+00  0.99999998245E-14  0.12500000000E+03  0.12500000000E+03 0.  0.
        -11    1    1    0    0    0  0.39200046819E+02  0.29884802015E+02  0.18529645994E+02  0.52660163720E+02  0.51100000000E-03 0.  1.
         11    1    1    0    0    0  0.72864369391E+01  0.58239981342E+01  0.31430979612E+01  0.98432810886E+01  0.51100000000E-03 0. -1.
         22    1    1    0    0    0 -0.46486483758E+02 -0.35708800149E+02 -0.21672743956E+02  0.62496555192E+02  0.00000000000E+00 0.  1.
</event>
<event>
 4    1  0.1956828E-002  0.9118800E+02  0.7818608E-02  0.1130116E+00
         25   -1    0    0    0    0  0.00000000000E+00  0.00000000000E+00  0.99999998245E-14  0.12500000000E+03  0.12500000000E+03 0.  0.
        -11    1    1    0    0    0  0.89789978197E+01  0.90425691617E+01 -0.90864252640E+01  0.15650993043E+02  0.51100000000E-03 0. -1.
         11    1    1    0    0    0  0.27088808950E+02  0.25148044382E+02 -0.28799121400E+02  0.46857412437E+02  0.51100000000E-03 0.  1.
         22    1    1    0    0    0 -0.36067806770E+02 -0.34190613543E+02  0.37885546664E+02  0.62491594520E+02  0.00000000000E+00 0.  1.
</event>
<event>
 4    1  0.1956828E-002  0.9118800E+02  0.7818608E-02  0.1130116E+00
         25   -1    0    0    0    0  0.00000000000E+00  0.00000000000E+00  0.99999998245E-14  0.12500000000E+03  0.12500000000E+03 0.  0.
        -11    1    1    0    0    0  0.18540721823E+01 -0.43287603397E+01 -0.15441706899E+01  0.49558261789E+01  0.51100000000E-03 0. -1.
         11    1    1    0    0    0  0.21476531151E+02 -0.49763985909E+02 -0.19331946678E+02  0.57544937626E+02  0.51100000000E-03 0.  1.
         22    1    1    0    0    0 -0.23330603334E+02  0.54092746248E+02  0.20876117368E+02  0.62499236195E+02  0.00000000000E+00 0.  1.
</event>
<event>
 4    1  0.1956828E-002  0.9118800E+02  0.7818608E-02  0.1130116E+00
         25   -1    0    0    0    0  0.00000000000E+00  0.00000000000E+00  0.99999998245E-14  0.12500000000E+03  0.12500000000E+03 0.  0.
        -11    1    1    0    0    0 -0.74417764239E+01  0.85448015066E+00 -0.28185334759E+02  0.29163732073E+02  0.51100000000E-03 0. -1.
         11    1    1    0    0    0 -0.68358381755E+01 -0.66994110047E+00 -0.32641311287E+02  0.33356149469E+02  0.51100000000E-03 0.  1.
         22    1    1    0    0    0  0.14277614599E+02 -0.18453905019E+00  0.60826646046E+02  0.62480118458E+02  0.00000000000E+00 0. -1.
</event>
<event>
 4    1  0.1956828E-002  0.9118800E+02  0.7818608E-02  0.1130116E+00
         25   -1    0    0    0    0  0.00000000000E+00  0.00000000000E+00  0.99999998245E-14  0.12500000000E+03  0.12500000000E+03 0.  0.
        -11    1    1    0    0    0  0.13547182329E+02  0.81181043447E+00 -0.89818334697E+01  0.16274474430E+02  0.51100000000E-03 0. -1.
         11    1    1    0    0    0  0.38490413510E+02  0.22451382508E+01 -0.25499944142E+02  0.46225531143E+02  0.51100000000E-03 0.  1.
         22    1    1    0    0    0 -0.52037595840E+02 -0.30569486852E+01  0.34481777611E+02  0.62499994426E+02  0.00000000000E+00 0.  1.
</event>
<event>
 4    1  0.1956828E-002  0.9118800E+02  0.7818608E-02  0.1130116E+00
         25   -1    0    0    0    0  0.00000000000E+00  0.00000000000E+00  0.99999998245E-14  0.12500000000E+03  0.12500000000E+03 0.  0.
        -11    1    1    0    0    0 -0.33095450359E+02  0.47739421068E+02 -0.12242356021E+01  0.58102150661E+02  0.51100000000E-03 0.  1.
         11    1    1    0    0    0 -0.15397969976E+01  0.41897830523E+01  0.23951806880E+00  0.44701930591E+01  0.51100000000E-03 0. -1.
         22    1    1    0    0    0  0.34635247356E+02 -0.51929204120E+02  0.98471753327E+00  0.62427656280E+02  0.00000000000E+00 0.  1.
</event>
<event>
 4    1  0.1956828E-002  0.9118800E+02  0.7818608E-02  0.1130116E+00
         25   -1    0    0    0    0  0.00000000000E+00  0.00000000000E+00  0.99999998245E-14  0.12500000000E+03  0.12500000000E+03 0.  0.
        -11    1    1    0    0    0 -0.51417883144E+00  0.60765755279E+01  0.27190963330E+02  0.27866424907E+02  0.51100000000E-03 0. -1.
         11    1    1    0    0    0 -0.18280623910E+01  0.58725332818E+01  0.34097226368E+02  0.34647500710E+02  0.51100000000E-03 0.  1.
         22    1    1    0    0    0  0.23422412224E+01 -0.11949108810E+02 -0.61288189698E+02  0.62486074382E+02  0.00000000000E+00 0. -1.
</event>
<event>
 4    1  0.1956828E-002  0.9118800E+02  0.7818608E-02  0.1130116E+00
         25   -1    0    0    0    0  0.00000000000E+00  0.00000000000E+00  0.99999998245E-14  0.12500000000E+03  0.12500000000E+03 0.  0.
        -11    1    1    0    0    0 -0.22656302981E+02 -0.12227120532E+01  0.80526581001E+01  0.24075888192E+02  0.51100000000E-03 0.  1.
         11    1    1    0    0    0 -0.36141225788E+02 -0.15069964051E+01  0.12961232015E+02  0.38424637607E+02  0.51100000000E-03 0. -1.
         22    1    1    0    0    0  0.58797528769E+02  0.27297084583E+01 -0.21013890115E+02  0.62499474201E+02  0.00000000000E+00 0. -1.
</event>
<event>
 4    1  0.1956828E-002  0.9118800E+02  0.7818608E-02  0.1130116E+00
         25   -1    0    0    0    0  0.00000000000E+00  0.00000000000E+00  0.99999998245E-14  0.12500000000E+03  0.12500000000E+03 0.  0.
        -11    1    1    0    0    0 -0.99524903274E+01 -0.16385877709E+02  0.59273541978E+01  0.20066952435E+02  0.51100000000E-03 0. -1.
         11    1    1    0    0    0 -0.21047370473E+02 -0.34648002354E+02  0.12533461442E+02  0.42433047580E+02  0.51100000000E-03 0.  1.
         22    1    1    0    0    0  0.30999860801E+02  0.51033880063E+02 -0.18460815640E+02  0.62499999984E+02  0.00000000000E+00 0.  1.
</event>
<event>
 4    1  0.1956828E-002  0.9118800E+02  0.7818608E-02  0.1130116E+00
         25   -1    0    0    0    0  0.00000000000E+00  0.00000000000E+00  0.99999998245E-14  0.12500000000E+03  0.12500000000E+03 0.  0.
        -11    1    1    0    0    0  0.57131653425E+01  0.43818671807E+02  0.10301039000E+02  0.45374306186E+02  0.51100000000E-03 0.  1.
         11    1    1    0    0    0  0.27685951009E+01  0.16429811289E+02  0.39785588602E+01  0.17129878829E+02  0.51100000000E-03 0. -1.
         22    1    1    0    0    0 -0.84817604434E+01 -0.60248483096E+02 -0.14279597860E+02  0.62495814985E+02  0.00000000000E+00 0.  1.
</event>
<event>
 4    1  0.1956828E-002  0.9118800E+02  0.7818608E-02  0.1130116E+00
         25   -1    0    0    0    0  0.00000000000E+00  0.00000000000E+00  0.99999998245E-14  0.12500000000E+03  0.12500000000E+03 0.  0.
        -11    1    1    0    0    0  0.61738633475E+01  0.20791780262E+02  0.51056965852E+01  0.22281895184E+02  0.51100000000E-03 0.  1.
         11    1    1    0    0    0  0.11194161549E+02  0.37536630546E+02  0.91208627405E+01  0.40218130525E+02  0.51100000000E-03 0. -1.
         22    1    1    0    0    0 -0.17368024897E+02 -0.58328410808E+02 -0.14226559326E+02  0.62499974291E+02  0.00000000000E+00 0. -1.
</event>
<event>
 4    1  0.1956828E-002  0.9118800E+02  0.7818608E-02  0.1130116E+00
         25   -1    0    0    0    0  0.00000000000E+00  0.00000000000E+00  0.99999998245E-14  0.12500000000E+03  0.12500000000E+03 0.  0.
        -11    1    1    0    0    0  0.46833398308E+00  0.11728614475E+02 -0.45598524345E+01  0.12592537024E+02  0.51100000000E-03 0.  1.
         11    1    1    0    0    0  0.13682796699E+01  0.45740366435E+02 -0.19928077692E+02  0.49911738015E+02  0.51100000000E-03 0. -1.
         22    1    1    0    0    0 -0.18366136530E+01 -0.57468980910E+02  0.24487930126E+02  0.62495724961E+02  0.00000000000E+00 0. -1.
</event>
<event>
 4    1  0.1956828E-002  0.9118800E+02  0.7818608E-02  0.1130116E+00
         25   -1    0    0    0    0  0.00000000000E+00  0.00000000000E+00  0.99999998245E-14  0.12500000000E+03  0.12500000000E+03 0.  0.
        -11    1    1    0    0    0  0.30398343624E+02 -0.48740089493E+00  0.34654097307E+02  0.46099927496E+02  0.51100000000E-03 0.  1.
         11    1    1    0    0    0  0.11639028252E+02 -0.21726503876E+00  0.11571984856E+02  0.16414171211E+02  0.51100000000E-03 0. -1.
         22    1    1    0    0    0 -0.42037371876E+02  0.70466593369E+00 -0.46226082163E+02  0.62485901294E+02  0.00000000000E+00 0.  1.
</event>
<event>
 4    1  0.1956828E-002  0.9118800E+02  0.7818608E-02  0.1130116E+00
         25   -1    0    0    0    0  0.00000000000E+00  0.00000000000E+00  0.99999998245E-14  0.12500000000E+03  0.12500000000E+03 0.  0.
        -11    1    1    0    0    0  0.65060598836E+01 -0.33448112900E+02  0.42107068455E+02  0.54167428275E+02  0.51100000000E-03 0. -1.
         11    1    1    0    0    0  0.16642711687E+01 -0.51001610087E+01  0.63910278645E+01  0.83442601987E+01  0.51100000000E-03 0.  1.
         22    1    1    0    0    0 -0.81703310523E+01  0.38548273908E+02 -0.48498096320E+02  0.62488311527E+02  0.00000000000E+00 0. -1.
</event>
<event>
 4    1  0.1956828E-002  0.9118800E+02  0.7818608E-02  0.1130116E+00
         25   -1    0    0    0    0  0.00000000000E+00  0.00000000000E+00  0.99999998245E-14  0.12500000000E+03  0.12500000000E+03 0.  0.
        -11    1    1    0    0    0 -0.95714093467E+00  0.34041675522E+00 -0.12393438490E+00  0.10234072156E+01  0.51100000000E-03 0.  1.
         11    1    1    0    0    0 -0.57265348209E+02  0.20655867380E+02 -0.85672402778E+01  0.61476683132E+02  0.51100000000E-03 0. -1.
         22    1    1    0    0    0  0.58222489143E+02 -0.20996284135E+02  0.86911746627E+01  0.62499909652E+02  0.00000000000E+00 0. -1.
</event>
<event>
 4    1  0.1956828E-002  0.9118800E+02  0.7818608E-02  0.1130116E+00
         25   -1    0    0    0    0  0.00000000000E+00  0.00000000000E+00  0.99999998245E-14  0.12500000000E+03  0.12500000000E+03 0.  0.
        -11    1    1    0    0    0 -0.82321521414E+01 -0.18218533002E+02  0.58904380560E+02  0.62204576384E+02  0.51100000000E-03 0.  1.
         11    1    1    0    0    0 -0.10281976132E+01  0.14502775967E+01 -0.11990228301E+02  0.12121306465E+02  0.51100000000E-03 0. -1.
         22    1    1    0    0    0  0.92603497546E+01  0.16768255405E+02 -0.46914152259E+02  0.50674117152E+02  0.00000000000E+00 0.  1.
</event>
<event>
 4    1  0.1956828E-002  0.9118800E+02  0.7818608E-02  0.1130116E+00
         25   -1    0    0    0    0  0.00000000000E+00  0.00000000000E+00  0.99999998245E-14  0.12500000000E+03  0.12500000000E+03 0.  0.
        -11    1    1    0    0    0 -0.87882996304E+00  0.86397328968E+01  0.19089139430E+01  0.88916409810E+01  0.51100000000E-03 0. -1.
         11    1    1    0    0    0  0.28017323270E+02 -0.12701551447E+01  0.49853112876E+02  0.57200669236E+02  0.51100000000E-03 0.  1.
         22    1    1    0    0    0 -0.27138493307E+02 -0.73695777521E+01 -0.51762026819E+02  0.58907689784E+02  0.00000000000E+00 0.  1.
</event>
<event>
 4    1  0.1956828E-002  0.9118800E+02  0.7818608E-02  0.1130116E+00
         25   -1    0    0    0    0  0.00000000000E+00  0.00000000000E+00  0.99999998245E-14  0.12500000000E+03  0.12500000000E+03 0.  0.
        -11    1    1    0    0    0  0.15433633373E+00 -0.11532319840E+00 -0.10528065460E+00  0.21955277578E+00  0.51100000000E-03 0.  1.
         11    1    1    0    0    0  0.42962201662E+02 -0.34802382834E+02 -0.28668953103E+02  0.62280538652E+02  0.51100000000E-03 0. -1.
         22    1    1    0    0    0 -0.43116537995E+02  0.34917706032E+02  0.28774233757E+02  0.62499908572E+02  0.00000000000E+00 0. -1.
</event>
<event>
 4    1  0.1956828E-002  0.9118800E+02  0.7818608E-02  0.1130116E+00
         25   -1    0    0    0    0  0.00000000000E+00  0.00000000000E+00  0.99999998245E-14  0.12500000000E+03  0.12500000000E+03 0.  0.
        -11    1    1    0    0    0 -0.18327726697E+01  0.17338478663E+02  0.89059747182E+01  0.19578005107E+02  0.51100000000E-03 0. -1.
         11    1    1    0    0    0  0.52528215809E+02 -0.10093505854E+02 -0.88194974985E+01  0.54211399658E+02  0.51100000000E-03 0.  1.
         22    1    1    0    0    0 -0.50695443139E+02 -0.72449728093E+01 -0.86477219620E-01  0.51210595235E+02  0.00000000000E+00 0.  1.
</event>
<event>
 4    1  0.1956828E-002  0.9118800E+02  0.7818608E-02  0.1130116E+00
         25   -1    0    0    0    0  0.00000000000E+00  0.00000000000E+00  0.99999998245E-14  0.12500000000E+03  0.12500000000E+03 0.  0.
        -11    1    1    0    0    0 -0.45139559222E+01  0.81465996758E+01  0.67342238488E+00  0.93379003162E+01  0.51100000000E-03 0.  1.
         11    1    1    0    0    0 -0.25698063750E+02  0.46379911832E+02  0.38369443648E+01  0.53162099699E+02  0.51100000000E-03 0.  1.
         22    1    1    0    0    0  0.30212019672E+02 -0.54526511508E+02 -0.45103667497E+01  0.62499999985E+02  0.00000000000E+00 0.  1.
</event>
<event>
 4    1  0.1956828E-002  0.9118800E+02  0.7818608E-02  0.1130116E+00
         25   -1    0    0    0    0  0.00000000000E+00  0.00000000000E+00  0.99999998245E-14  0.12500000000E+03  0.12500000000E+03 0.  0.
        -11    1    1    0    0    0  0.10546719681E+02 -0.25724759156E+02  0.34978598709E+02  0.44682198889E+02  0.51100000000E-03 0. -1.
         11    1    1    0    0    0  0.36593012464E+01 -0.11774273112E+02  0.12913633482E+02  0.17854577085E+02  0.51100000000E-03 0.  1.
         22    1    1    0    0    0 -0.14206020927E+02  0.37499032267E+02 -0.47892232190E+02  0.62463224026E+02  0.00000000000E+00 0. -1.
</event>
<event>
 4    1  0.1956828E-002  0.9118800E+02  0.7818608E-02  0.1130116E+00
         25   -1    0    0    0    0  0.00000000000E+00  0.00000000000E+00  0.99999998245E-14  0.12500000000E+03  0.12500000000E+03 0.  0.
        -11    1    1    0    0    0  0.69611225827E+01  0.31253695669E+02 -0.31952622837E+02  0.45235172455E+02  0.51100000000E-03 0. -1.
         11    1    1    0    0    0  0.26626861446E+01  0.11932267877E+02 -0.12190380718E+02  0.17264828308E+02  0.51100000000E-03 0.  1.
         22    1    1    0    0    0 -0.96238087273E+01 -0.43185963546E+02  0.44143003555E+02  0.62499999237E+02  0.00000000000E+00 0. -1.
</event>
<event>
 4    1  0.1956828E-002  0.9118800E+02  0.7818608E-02  0.1130116E+00
         25   -1    0    0    0    0  0.00000000000E+00  0.00000000000E+00  0.99999998245E-14  0.12500000000E+03  0.12500000000E+03 0.  0.
        -11    1    1    0    0    0  0.54865773187E+01  0.41065957550E+01  0.16356609104E+02  0.17734297872E+02  0.51100000000E-03 0.  1.
         11    1    1    0    0    0  0.13840387970E+02  0.10375261816E+02  0.41288808582E+02  0.44765702399E+02  0.51100000000E-03 0. -1.
         22    1    1    0    0    0 -0.19326965289E+02 -0.14481857571E+02 -0.57645417686E+02  0.62499999729E+02  0.00000000000E+00 0. -1.
</event>
<event>
 4    1  0.1956828E-002  0.9118800E+02  0.7818608E-02  0.1130116E+00
         25   -1    0    0    0    0  0.00000000000E+00  0.00000000000E+00  0.99999998245E-14  0.12500000000E+03  0.12500000000E+03 0.  0.
        -11    1    1    0    0    0  0.31505482909E+01  0.47415220917E+01 -0.26288195913E+02  0.26897532060E+02  0.51100000000E-03 0. -1.
         11    1    1    0    0    0 -0.19977919035E+00  0.49930727524E+01 -0.35314152313E+02  0.35665950725E+02  0.51100000000E-03 0.  1.
         22    1    1    0    0    0 -0.29507691006E+01 -0.97345948442E+01  0.61602348226E+02  0.62436517216E+02  0.00000000000E+00 0.  1.
</event>
<event>
 4    1  0.1956828E-002  0.9118800E+02  0.7818608E-02  0.1130116E+00
         25   -1    0    0    0    0  0.00000000000E+00  0.00000000000E+00  0.99999998245E-14  0.12500000000E+03  0.12500000000E+03 0.  0.
        -11    1    1    0    0    0  0.95099921371E+01 -0.22768923187E+02 -0.84384726413E+01  0.26078183110E+02  0.51100000000E-03 0.  1.
         11    1    1    0    0    0  0.13226160373E+02 -0.31776698206E+02 -0.11910621678E+02  0.36421872221E+02  0.51100000000E-03 0. -1.
         22    1    1    0    0    0 -0.22736152510E+02  0.54545621392E+02  0.20349094319E+02  0.62499944669E+02  0.00000000000E+00 0.  1.
</event>
<event>
 4    1  0.1956828E-002  0.9118800E+02  0.7818608E-02  0.1130116E+00
         25   -1    0    0    0    0  0.00000000000E+00  0.00000000000E+00  0.99999998245E-14  0.12500000000E+03  0.12500000000E+03 0.  0.
        -11    1    1    0    0    0 -0.79336445897E+01  0.16465409382E+02  0.79846500984E+01  0.19945101154E+02  0.51100000000E-03 0. -1.
         11    1    1    0    0    0 -0.34279026116E+02  0.27387473582E+02 -0.39080737808E+01  0.44049953253E+02  0.51100000000E-03 0.  1.
         22    1    1    0    0    0  0.42212670706E+02 -0.43852882964E+02 -0.40765763175E+01  0.61004945593E+02  0.00000000000E+00 0.  1.
</event>
<event>
 4    1  0.1956828E-002  0.9118800E+02  0.7818608E-02  0.1130116E+00
         25   -1    0    0    0    0  0.00000000000E+00  0.00000000000E+00  0.99999998245E-14  0.12500000000E+03  0.12500000000E+03 0.  0.
        -11    1    1    0    0    0  0.31388581099E+02  0.52339997124E+01 -0.27105859513E+02  0.41801499932E+02  0.51100000000E-03 0. -1.
         11    1    1    0    0    0  0.14229868236E+02 -0.43479681868E+01 -0.14988457317E+02  0.21119844469E+02  0.51100000000E-03 0.  1.
         22    1    1    0    0    0 -0.45618449335E+02 -0.88603152558E+00  0.42094316830E+02  0.62078655599E+02  0.00000000000E+00 0.  1.
</event>
<event>
 4    1  0.1956828E-002  0.9118800E+02  0.7818608E-02  0.1130116E+00
         25   -1    0    0    0    0  0.00000000000E+00  0.00000000000E+00  0.99999998245E-14  0.12500000000E+03  0.12500000000E+03 0.  0.
        -11    1    1    0    0    0 -0.44294105288E+01  0.64823797648E+01 -0.20988721175E+01  0.81268806731E+01  0.51100000000E-03 0.  1.
         11    1    1    0    0    0 -0.29637169556E+02  0.43374161899E+02 -0.14026987675E+02  0.54373119492E+02  0.51100000000E-03 0.  1.
         22    1    1    0    0    0  0.34066580085E+02 -0.49856541664E+02  0.16125859792E+02  0.62499999835E+02  0.00000000000E+00 0.  1.
</event>
<event>
 4    1  0.1956828E-002  0.9118800E+02  0.7818608E-02  0.1130116E+00
         25   -1    0    0    0    0  0.00000000000E+00  0.00000000000E+00  0.99999998245E-14  0.12500000000E+03  0.12500000000E+03 0.  0.
        -11    1    1    0    0    0 -0.27208924523E+02  0.39123177279E-01 -0.11926798007E+02  0.29708174217E+02  0.51100000000E-03 0. -1.
         11    1    1    0    0    0 -0.30016841413E+02  0.16451765013E-01 -0.13202021131E+02  0.32791834369E+02  0.51100000000E-03 0.  1.
         22    1    1    0    0    0  0.57225765936E+02 -0.55574942292E-01  0.25128819138E+02  0.62499991414E+02  0.00000000000E+00 0.  1.
</event>
<event>
 4    1  0.1956828E-002  0.9118800E+02  0.7818608E-02  0.1130116E+00
         25   -1    0    0    0    0  0.00000000000E+00  0.00000000000E+00  0.99999998245E-14  0.12500000000E+03  0.12500000000E+03 0.  0.
        -11    1    1    0    0    0 -0.95918487164E+00 -0.67725919669E+01  0.50897493057E+01  0.85260533556E+01  0.51100000000E-03 0.  1.
         11    1    1    0    0    0 -0.41789855946E+02  0.25981264393E+02 -0.35437238404E+02  0.60640052980E+02  0.51100000000E-03 0. -1.
         22    1    1    0    0    0  0.42749040818E+02 -0.19208672426E+02  0.30347489098E+02  0.55833893665E+02  0.00000000000E+00 0. -1.
</event>
<event>
 4    1  0.1956828E-002  0.9118800E+02  0.7818608E-02  0.1130116E+00
         25   -1    0    0    0    0  0.00000000000E+00  0.00000000000E+00  0.99999998245E-14  0.12500000000E+03  0.12500000000E+03 0.  0.
        -11    1    1    0    0    0 -0.58202324746E+00 -0.23517463640E+02 -0.34789395207E+02  0.41996569697E+02  0.51100000000E-03 0. -1.
         11    1    1    0    0    0 -0.28339194892E+00 -0.11482864712E+02 -0.16983938356E+02  0.20503430331E+02  0.51100000000E-03 0.  1.
         22    1    1    0    0    0  0.86541519638E+00  0.35000328353E+02  0.51773333563E+02  0.62499999972E+02  0.00000000000E+00 0. -1.
</event>
<event>
 4    1  0.1956828E-002  0.9118800E+02  0.7818608E-02  0.1130116E+00
         25   -1    0    0    0    0  0.00000000000E+00  0.00000000000E+00  0.99999998245E-14  0.12500000000E+03  0.12500000000E+03 0.  0.
        -11    1    1    0    0    0  0.22479880953E+02  0.52371444916E+02 -0.21895122205E+02  0.61053334609E+02  0.51100000000E-03 0.  1.
         11    1    1    0    0    0  0.53172020311E+00  0.12412926476E+01 -0.51894827928E+00  0.14466656107E+01  0.51100000000E-03 0.  1.
         22    1    1    0    0    0 -0.23011601156E+02 -0.53612737564E+02  0.22414070484E+02  0.62499999780E+02  0.00000000000E+00 0.  1.
</event>
<event>
 4    1  0.1956828E-002  0.9118800E+02  0.7818608E-02  0.1130116E+00
         25   -1    0    0    0    0  0.00000000000E+00  0.00000000000E+00  0.99999998245E-14  0.12500000000E+03  0.12500000000E+03 0.  0.
        -11    1    1    0    0    0 -0.75336050576E+01 -0.73361281323E+00  0.47771024576E+01  0.89506480813E+01  0.51100000000E-03 0. -1.
         11    1    1    0    0    0 -0.45048801546E+02 -0.43692595754E+01  0.28619020159E+02  0.53549353545E+02  0.51100000000E-03 0.  1.
         22    1    1    0    0    0  0.52582406604E+02  0.51028723887E+01 -0.33396122617E+02  0.62499998373E+02  0.00000000000E+00 0.  1.
</event>
<event>
 4    1  0.1956828E-002  0.9118800E+02  0.7818608E-02  0.1130116E+00
         25   -1    0    0    0    0  0.00000000000E+00  0.00000000000E+00  0.99999998245E-14  0.12500000000E+03  0.12500000000E+03 0.  0.
        -11    1    1    0    0    0 -0.34100665191E+01 -0.70844353186E+00 -0.54708032328E+01  0.64853784913E+01  0.51100000000E-03 0. -1.
         11    1    1    0    0    0 -0.29435235669E+02 -0.63456643130E+01 -0.47232827278E+02  0.56014645650E+02  0.51100000000E-03 0.  1.
         22    1    1    0    0    0  0.32845302188E+02  0.70541078448E+01  0.52703630511E+02  0.62499975858E+02  0.00000000000E+00 0.  1.
</event>
<event>
 4    1  0.1956828E-002  0.9118800E+02  0.7818608E-02  0.1130116E+00
         25   -1    0    0    0    0  0.00000000000E+00  0.00000000000E+00  0.99999998245E-14  0.12500000000E+03  0.12500000000E+03 0.  0.
        -11    1    1    0    0    0  0.27295680254E+02  0.63982945548E+01 -0.34371259381E+02  0.44355110251E+02  0.51100000000E-03 0. -1.
         11    1    1    0    0    0  0.12973986755E+02  0.25312806158E+01 -0.12510871147E+02  0.18200373925E+02  0.51100000000E-03 0.  1.
         22    1    1    0    0    0 -0.40269667009E+02 -0.89295751706E+01  0.46882130527E+02  0.62444515824E+02  0.00000000000E+00 0. -1.
</event>
<event>
 4    1  0.1956828E-002  0.9118800E+02  0.7818608E-02  0.1130116E+00
         25   -1    0    0    0    0  0.00000000000E+00  0.00000000000E+00  0.99999998245E-14  0.12500000000E+03  0.12500000000E+03 0.  0.
        -11    1    1    0    0    0 -0.97828724243E+01 -0.24265468954E+02  0.13880762743E+02  0.29617446734E+02  0.51100000000E-03 0. -1.
         11    1    1    0    0    0 -0.10856292184E+02 -0.26942694270E+02  0.15410855329E+02  0.32882553380E+02  0.51100000000E-03 0.  1.
         22    1    1    0    0    0  0.20639164609E+02  0.51208163224E+02 -0.29291618073E+02  0.62499999887E+02  0.00000000000E+00 0.  1.
</event>
<event>
 4    1  0.1956828E-002  0.9118800E+02  0.7818608E-02  0.1130116E+00
         25   -1    0    0    0    0  0.00000000000E+00  0.00000000000E+00  0.99999998245E-14  0.12500000000E+03  0.12500000000E+03 0.  0.
        -11    1    1    0    0    0  0.62887478738E+01  0.36363665940E+01  0.10351015050E+02  0.12645751249E+02  0.51100000000E-03 0.  1.
         11    1    1    0    0    0  0.38307518760E+02  0.25575686655E+02 -0.30630359415E+02  0.55315464923E+02  0.51100000000E-03 0. -1.
         22    1    1    0    0    0 -0.44596266634E+02 -0.29212053249E+02  0.20279344366E+02  0.57038783828E+02  0.00000000000E+00 0. -1.
</event>
<event>
 4    1  0.1956828E-002  0.9118800E+02  0.7818608E-02  0.1130116E+00
         25   -1    0    0    0    0  0.00000000000E+00  0.00000000000E+00  0.99999998245E-14  0.12500000000E+03  0.12500000000E+03 0.  0.
        -11    1    1    0    0    0 -0.12638523276E+02  0.60254929967E+01 -0.35821673819E+02  0.38460774198E+02  0.51100000000E-03 0.  1.
         11    1    1    0    0    0 -0.78520731546E+01  0.37628401512E+01 -0.22406944118E+02  0.24039242163E+02  0.51100000000E-03 0. -1.
         22    1    1    0    0    0  0.20490596431E+02 -0.97883331480E+01  0.58228617937E+02  0.62499983638E+02  0.00000000000E+00 0.  1.
</event>
<event>
 4    1  0.1956828E-002  0.9118800E+02  0.7818608E-02  0.1130116E+00
         25   -1    0    0    0    0  0.00000000000E+00  0.00000000000E+00  0.99999998245E-14  0.12500000000E+03  0.12500000000E+03 0.  0.
        -11    1    1    0    0    0  0.47075099528E+02  0.54365149369E+01 -0.29630899822E+02  0.55889273701E+02  0.51100000000E-03 0. -1.
         11    1    1    0    0    0  0.55932209425E+01  0.61755373667E+00 -0.34694867613E+01  0.66108117336E+01  0.51100000000E-03 0.  1.
         22    1    1    0    0    0 -0.52668320471E+02 -0.60540686736E+01  0.33100386584E+02  0.62499914566E+02  0.00000000000E+00 0. -1.
</event>
<event>
 4    1  0.1956828E-002  0.9118800E+02  0.7818608E-02  0.1130116E+00
         25   -1    0    0    0    0  0.00000000000E+00  0.00000000000E+00  0.99999998245E-14  0.12500000000E+03  0.12500000000E+03 0.  0.
        -11    1    1    0    0    0 -0.34278089715E+01 -0.22682639485E+01 -0.65746429961E+00  0.41625899691E+01  0.51100000000E-03 0. -1.
         11    1    1    0    0    0 -0.48453185685E+02 -0.32042210115E+02 -0.54154735782E+01  0.58341595679E+02  0.51100000000E-03 0.  1.
         22    1    1    0    0    0  0.51880994656E+02  0.34310474064E+02  0.60729378778E+01  0.62495814352E+02  0.00000000000E+00 0.  1.
</event>
<event>
 4    1  0.1956828E-002  0.9118800E+02  0.7818608E-02  0.1130116E+00
         25   -1    0    0    0    0  0.00000000000E+00  0.00000000000E+00  0.99999998245E-14  0.12500000000E+03  0.12500000000E+03 0.  0.
        -11    1    1    0    0    0  0.83032875616E+01  0.18730102774E+02  0.86914945638E+01  0.22255413100E+02  0.51100000000E-03 0.  1.
         11    1    1    0    0    0  0.14781176650E+02  0.33803970135E+02  0.16076964112E+02  0.40245004105E+02  0.51100000000E-03 0. -1.
         22    1    1    0    0    0 -0.23084464212E+02 -0.52534072909E+02 -0.24768458676E+02  0.62499582795E+02  0.00000000000E+00 0. -1.
</event>
<event>
 4    1  0.1956828E-002  0.9118800E+02  0.7818608E-02  0.1130116E+00
         25   -1    0    0    0    0  0.00000000000E+00  0.00000000000E+00  0.99999998245E-14  0.12500000000E+03  0.12500000000E+03 0.  0.
        -11    1    1    0    0    0  0.55974069742E+01  0.48331080344E+01  0.53299299238E+00  0.74144440047E+01  0.51100000000E-03 0. -1.
         11    1    1    0    0    0  0.55502012448E+02  0.20039081368E+01 -0.60044264569E+01  0.55861813173E+02  0.51100000000E-03 0.  1.
         22    1    1    0    0    0 -0.61099419422E+02 -0.68370161712E+01  0.54714334645E+01  0.61723742823E+02  0.00000000000E+00 0.  1.
</event>
<event>
 4    1  0.1956828E-002  0.9118800E+02  0.7818608E-02  0.1130116E+00
         25   -1    0    0    0    0  0.00000000000E+00  0.00000000000E+00  0.99999998245E-14  0.12500000000E+03  0.12500000000E+03 0.  0.
        -11    1    1    0    0    0  0.20626296339E+02 -0.22289197870E+02  0.13539092864E+02  0.33249954560E+02  0.51100000000E-03 0. -1.
         11    1    1    0    0    0  0.25336697177E+02 -0.60963226851E+01  0.15598457745E+02  0.30371454664E+02  0.51100000000E-03 0.  1.
         22    1    1    0    0    0 -0.45962993516E+02  0.28385520555E+02 -0.29137550609E+02  0.61378590776E+02  0.00000000000E+00 0. -1.
</event>
<event>
 4    1  0.1956828E-002  0.9118800E+02  0.7818608E-02  0.1130116E+00
         25   -1    0    0    0    0  0.00000000000E+00  0.00000000000E+00  0.99999998245E-14  0.12500000000E+03  0.12500000000E+03 0.  0.
        -11    1    1    0    0    0  0.20557595279E+02 -0.12801828215E+02  0.92883500534E+01  0.25937906166E+02  0.51100000000E-03 0. -1.
         11    1    1    0    0    0  0.29007441123E+02 -0.18034772177E+02  0.13042346060E+02  0.36562103864E+02  0.51100000000E-03 0.  1.
         22    1    1    0    0    0 -0.49565036402E+02  0.30836600391E+02 -0.22330696114E+02  0.62499989970E+02  0.00000000000E+00 0.  1.
</event>
<event>
 4    1  0.1956828E-002  0.9118800E+02  0.7818608E-02  0.1130116E+00
         25   -1    0    0    0    0  0.00000000000E+00  0.00000000000E+00  0.99999998245E-14  0.12500000000E+03  0.12500000000E+03 0.  0.
        -11    1    1    0    0    0 -0.11375533829E+02  0.14166763247E+02  0.40296811956E+02  0.44203314411E+02  0.51100000000E-03 0.  1.
         11    1    1    0    0    0 -0.47082009290E+01  0.58577467204E+01  0.16681977287E+02  0.18296686014E+02  0.51100000000E-03 0. -1.
         22    1    1    0    0    0  0.16083734758E+02 -0.20024509968E+02 -0.56978789244E+02  0.62499999575E+02  0.00000000000E+00 0.  1.
</event>
<event>
 4    1  0.1956828E-002  0.9118800E+02  0.7818608E-02  0.1130116E+00
         25   -1    0    0    0    0  0.00000000000E+00  0.00000000000E+00  0.99999998245E-14  0.12500000000E+03  0.12500000000E+03 0.  0.
        -11    1    1    0    0    0  0.51620172172E+01 -0.49513534399E+02  0.15893948440E+02  0.52257574644E+02  0.51100000000E-03 0. -1.
         11    1    1    0    0    0  0.10155079002E+01 -0.97046665359E+01  0.31137557655E+01  0.10242425694E+02  0.51100000000E-03 0.  1.
         22    1    1    0    0    0 -0.61775251174E+01  0.59218200935E+02 -0.19007704205E+02  0.62499999662E+02  0.00000000000E+00 0. -1.
</event>
<event>
 4    1  0.1956828E-002  0.9118800E+02  0.7818608E-02  0.1130116E+00
         25   -1    0    0    0    0  0.00000000000E+00  0.00000000000E+00  0.99999998245E-14  0.12500000000E+03  0.12500000000E+03 0.  0.
        -11    1    1    0    0    0 -0.20209491601E+02 -0.27093025494E+02  0.11336401725E+01  0.33819235968E+02  0.51100000000E-03 0. -1.
         11    1    1    0    0    0 -0.17189439028E+02 -0.22935996469E+02  0.10255372389E+01  0.28680803249E+02  0.51100000000E-03 0.  1.
         22    1    1    0    0    0  0.37398930629E+02  0.50029021963E+02 -0.21591774114E+01  0.62499960783E+02  0.00000000000E+00 0. -1.
</event>
<event>
 4    1  0.1956828E-002  0.9118800E+02  0.7818608E-02  0.1130116E+00
         25   -1    0    0    0    0  0.00000000000E+00  0.00000000000E+00  0.99999998245E-14  0.12500000000E+03  0.12500000000E+03 0.  0.
        -11    1    1    0    0    0 -0.40080942472E+02  0.25862710286E+02  0.38324405278E+02  0.61189229223E+02  0.51100000000E-03 0. -1.
         11    1    1    0    0    0 -0.86275349078E+00  0.55231772400E+00  0.81776301868E+00  0.13107765141E+01  0.51100000000E-03 0.  1.
         22    1    1    0    0    0  0.40943695963E+02 -0.26415028010E+02 -0.39142168297E+02  0.62499994263E+02  0.00000000000E+00 0. -1.
</event>
<event>
 4    1  0.1956828E-002  0.9118800E+02  0.7818608E-02  0.1130116E+00
         25   -1    0    0    0    0  0.00000000000E+00  0.00000000000E+00  0.99999998245E-14  0.12500000000E+03  0.12500000000E+03 0.  0.
        -11    1    1    0    0    0  0.11175251861E+02  0.28518325502E+02 -0.23501894840E+02  0.38607255858E+02  0.51100000000E-03 0. -1.
         11    1    1    0    0    0  0.69251627604E+01  0.17653999278E+02 -0.14534156999E+02  0.23892745545E+02  0.51100000000E-03 0.  1.
         22    1    1    0    0    0 -0.18100414621E+02 -0.46172324780E+02  0.38036051839E+02  0.62499998596E+02  0.00000000000E+00 0.  1.
</event>
<event>
 4    1  0.1956828E-002  0.9118800E+02  0.7818608E-02  0.1130116E+00
         25   -1    0    0    0    0  0.00000000000E+00  0.00000000000E+00  0.99999998245E-14  0.12500000000E+03  0.12500000000E+03 0.  0.
        -11    1    1    0    0    0  0.13438000877E+01 -0.16274104769E+01  0.12334690389E+01  0.24445264709E+01  0.51100000000E-03 0.  1.
         11    1    1    0    0    0  0.32989984281E+02 -0.40129840081E+02  0.30131674261E+02  0.60055482030E+02  0.51100000000E-03 0. -1.
         22    1    1    0    0    0 -0.34333784368E+02  0.41757250558E+02 -0.31365143300E+02  0.62499991500E+02  0.00000000000E+00 0. -1.
</event>
<event>
 4    1  0.1956828E-002  0.9118800E+02  0.7818608E-02  0.1130116E+00
         25   -1    0    0    0    0  0.00000000000E+00  0.00000000000E+00  0.99999998245E-14  0.12500000000E+03  0.12500000000E+03 0.  0.
        -11    1    1    0    0    0  0.70516168824E+01 -0.36024155590E+01  0.13397764483E+00  0.79196369100E+01  0.51100000000E-03 0. -1.
         11    1    1    0    0    0  0.48719884222E+02 -0.24592178289E+02  0.78695379671E+00  0.54580414511E+02  0.51100000000E-03 0.  1.
         22    1    1    0    0    0 -0.55771501105E+02  0.28194593848E+02 -0.92093144154E+00  0.62499948579E+02  0.00000000000E+00 0.  1.
</event>
<event>
 4    1  0.1956828E-002  0.9118800E+02  0.7818608E-02  0.1130116E+00
         25   -1    0    0    0    0  0.00000000000E+00  0.00000000000E+00  0.99999998245E-14  0.12500000000E+03  0.12500000000E+03 0.  0.
        -11    1    1    0    0    0  0.11565571036E+01 -0.38303596486E+01 -0.25364472284E+02  0.25678117803E+02  0.51100000000E-03 0.  1.
         11    1    1    0    0    0  0.15960853739E+01 -0.55497682298E+01 -0.36366262793E+02  0.36821902255E+02  0.51100000000E-03 0. -1.
         22    1    1    0    0    0 -0.27526424776E+01  0.93801278784E+01  0.61730735077E+02  0.62499979942E+02  0.00000000000E+00 0.  1.
</event>
<event>
 4    1  0.1956828E-002  0.9118800E+02  0.7818608E-02  0.1130116E+00
         25   -1    0    0    0    0  0.00000000000E+00  0.00000000000E+00  0.99999998245E-14  0.12500000000E+03  0.12500000000E+03 0.  0.
        -11    1    1    0    0    0 -0.32937226120E+02  0.24323587992E+02 -0.89422771017E+01  0.41910167231E+02  0.51100000000E-03 0.  1.
         11    1    1    0    0    0 -0.16181735705E+02  0.11949965683E+02 -0.43921479402E+01  0.20589832783E+02  0.51100000000E-03 0.  1.
         22    1    1    0    0    0  0.49118961825E+02 -0.36273553676E+02  0.13334425042E+02  0.62499999986E+02  0.00000000000E+00 0.  1.
</event>
<event>
 4    1  0.1956828E-002  0.9118800E+02  0.7818608E-02  0.1130116E+00
         25   -1    0    0    0    0  0.00000000000E+00  0.00000000000E+00  0.99999998245E-14  0.12500000000E+03  0.12500000000E+03 0.  0.
        -11    1    1    0    0    0 -0.31240211575E+00  0.78329349323E+01  0.44302631732E+01  0.90044265103E+01  0.51100000000E-03 0.  1.
         11    1    1    0    0    0  0.16132023230E+01  0.53010919957E+02  0.86816751546E+01  0.53741339211E+02  0.51100000000E-03 0. -1.
         22    1    1    0    0    0 -0.13008002073E+01 -0.60843854889E+02 -0.13111938328E+02  0.62254234279E+02  0.00000000000E+00 0. -1.
</event>
<event>
 4    1  0.1956828E-002  0.9118800E+02  0.7818608E-02  0.1130116E+00
         25   -1    0    0    0    0  0.00000000000E+00  0.00000000000E+00  0.99999998245E-14  0.12500000000E+03  0.12500000000E+03 0.  0.
        -11    1    1    0    0    0  0.10156442103E+02  0.26462318845E+02 -0.63884612640E+01  0.29055465448E+02  0.51100000000E-03 0.  1.
         11    1    1    0    0    0  0.10019979476E+02  0.31206905052E+02 -0.67185122157E+01  0.33457574901E+02  0.51100000000E-03 0. -1.
         22    1    1    0    0    0 -0.20176421579E+02 -0.57669223897E+02  0.13106973480E+02  0.62486959651E+02  0.00000000000E+00 0. -1.
</event>
<event>
 4    1  0.1956828E-002  0.9118800E+02  0.7818608E-02  0.1130116E+00
         25   -1    0    0    0    0  0.00000000000E+00  0.00000000000E+00  0.99999998245E-14  0.12500000000E+03  0.12500000000E+03 0.  0.
        -11    1    1    0    0    0 -0.12437770048E+02  0.33377479377E+02 -0.14535276424E+02  0.38471138719E+02  0.51100000000E-03 0.  1.
         11    1    1    0    0    0 -0.77681427274E+01  0.20845280169E+02 -0.90838558675E+01  0.24028861489E+02  0.51100000000E-03 0. -1.
         22    1    1    0    0    0  0.20205912776E+02 -0.54222759546E+02  0.23619132292E+02  0.62499999793E+02  0.00000000000E+00 0.  1.
</event>
<event>
 4    1  0.1956828E-002  0.9118800E+02  0.7818608E-02  0.1130116E+00
         25   -1    0    0    0    0  0.00000000000E+00  0.00000000000E+00  0.99999998245E-14  0.12500000000E+03  0.12500000000E+03 0.  0.
        -11    1    1    0    0    0  0.78229722740E+00 -0.38366617651E+01 -0.13229857832E+01  0.41330683633E+01  0.51100000000E-03 0. -1.
         11    1    1    0    0    0  0.10863709240E+02 -0.54211846949E+02 -0.18701747047E+02  0.58366941593E+02  0.51100000000E-03 0.  1.
         22    1    1    0    0    0 -0.11646006468E+02  0.58048508714E+02  0.20024732830E+02  0.62499990044E+02  0.00000000000E+00 0.  1.
</event>
<event>
 4    1  0.1956828E-002  0.9118800E+02  0.7818608E-02  0.1130116E+00
         25   -1    0    0    0    0  0.00000000000E+00  0.00000000000E+00  0.99999998245E-14  0.12500000000E+03  0.12500000000E+03 0.  0.
        -11    1    1    0    0    0  0.14077889372E+02  0.30753931793E+02 -0.11896243097E+02  0.35854035895E+02  0.51100000000E-03 0. -1.
         11    1    1    0    0    0  0.10426777549E+02  0.22818658145E+02 -0.89780115704E+01  0.26646079292E+02  0.51100000000E-03 0.  1.
         22    1    1    0    0    0 -0.24504666921E+02 -0.53572589939E+02  0.20874254667E+02  0.62499884812E+02  0.00000000000E+00 0. -1.
</event>
<event>
 4    1  0.1956828E-002  0.9118800E+02  0.7818608E-02  0.1130116E+00
         25   -1    0    0    0    0  0.00000000000E+00  0.00000000000E+00  0.99999998245E-14  0.12500000000E+03  0.12500000000E+03 0.  0.
        -11    1    1    0    0    0 -0.78585436939E+01  0.15552297190E+02 -0.56805568370E+00  0.17434257781E+02  0.51100000000E-03 0.  1.
         11    1    1    0    0    0 -0.20315936666E+02  0.40199628670E+02 -0.14743473698E+01  0.45065742291E+02  0.51100000000E-03 0. -1.
         22    1    1    0    0    0  0.28174480360E+02 -0.55751925860E+02  0.20424030535E+01  0.62499999927E+02  0.00000000000E+00 0. -1.
</event>
<event>
 4    1  0.1956828E-002  0.9118800E+02  0.7818608E-02  0.1130116E+00
         25   -1    0    0    0    0  0.00000000000E+00  0.00000000000E+00  0.99999998245E-14  0.12500000000E+03  0.12500000000E+03 0.  0.
        -11    1    1    0    0    0  0.33413689697E+02 -0.33337392010E+02 -0.86215213102E+01  0.47981110816E+02  0.51100000000E-03 0.  1.
         11    1    1    0    0    0  0.10063885240E+02 -0.10057909461E+02 -0.28961508772E+01  0.14520021316E+02  0.51100000000E-03 0. -1.
         22    1    1    0    0    0 -0.43477574937E+02  0.43395301471E+02  0.11517672187E+02  0.62498867868E+02  0.00000000000E+00 0.  1.
</event>
<event>
 4    1  0.1956828E-002  0.9118800E+02  0.7818608E-02  0.1130116E+00
         25   -1    0    0    0    0  0.00000000000E+00  0.00000000000E+00  0.99999998245E-14  0.12500000000E+03  0.12500000000E+03 0.  0.
        -11    1    1    0    0    0 -0.80468777568E+01  0.37448665029E+01  0.17432134576E+02  0.19561584366E+02  0.51100000000E-03 0.  1.
         11    1    1    0    0    0 -0.20332131395E+02  0.65519314750E+01  0.37270487665E+02  0.42958266075E+02  0.51100000000E-03 0. -1.
         22    1    1    0    0    0  0.28379009152E+02 -0.10296797978E+02 -0.54702622241E+02  0.62480149560E+02  0.00000000000E+00 0. -1.
</event>
<event>
 4    1  0.1956828E-002  0.9118800E+02  0.7818608E-02  0.1130116E+00
         25   -1    0    0    0    0  0.00000000000E+00  0.00000000000E+00  0.99999998245E-14  0.12500000000E+03  0.12500000000E+03 0.  0.
        -11    1    1    0    0    0  0.48284360541E+02  0.96149552369E+01  0.27280304581E+02  0.56285360933E+02  0.51100000000E-03 0. -1.
         11    1    1    0    0    0  0.55259736917E+01  0.17020523731E+01  0.23623656734E+01  0.62461299505E+01  0.51100000000E-03 0.  1.
         22    1    1    0    0    0 -0.53810334232E+02 -0.11317007610E+02 -0.29642670255E+02  0.62468509117E+02  0.00000000000E+00 0. -1.
</event>
<event>
 4    1  0.1956828E-002  0.9118800E+02  0.7818608E-02  0.1130116E+00
         25   -1    0    0    0    0  0.00000000000E+00  0.00000000000E+00  0.99999998245E-14  0.12500000000E+03  0.12500000000E+03 0.  0.
        -11    1    1    0    0    0  0.18832720461E+01  0.26301006838E+02  0.30155115807E+02  0.40057716908E+02  0.51100000000E-03 0.  1.
         11    1    1    0    0    0  0.11055444302E+02 -0.24572121158E+02 -0.52530317560E+02  0.59037668061E+02  0.51100000000E-03 0. -1.
         22    1    1    0    0    0 -0.12938716348E+02 -0.17288856796E+01  0.22375201753E+02  0.25904615031E+02  0.00000000000E+00 0. -1.
</event>
<event>
 4    1  0.1956828E-002  0.9118800E+02  0.7818608E-02  0.1130116E+00
         25   -1    0    0    0    0  0.00000000000E+00  0.00000000000E+00  0.99999998245E-14  0.12500000000E+03  0.12500000000E+03 0.  0.
        -11    1    1    0    0    0 -0.23066264790E+01  0.24308891470E+01  0.43402489749E+01  0.54833848291E+01  0.51100000000E-03 0. -1.
         11    1    1    0    0    0 -0.23973665524E+02  0.25283221504E+02  0.45132211177E+02  0.57016615247E+02  0.51100000000E-03 0.  1.
         22    1    1    0    0    0  0.26280292003E+02 -0.27714110652E+02 -0.49472460152E+02  0.62499999923E+02  0.00000000000E+00 0.  1.
</event>
<event>
 4    1  0.1956828E-002  0.9118800E+02  0.7818608E-02  0.1130116E+00
         25   -1    0    0    0    0  0.00000000000E+00  0.00000000000E+00  0.99999998245E-14  0.12500000000E+03  0.12500000000E+03 0.  0.
        -11    1    1    0    0    0  0.45156270544E+02  0.25036755322E+01  0.28834261442E+02  0.53635545991E+02  0.51100000000E-03 0. -1.
         11    1    1    0    0    0  0.74626234068E+01  0.41379715920E+00  0.47661901828E+01  0.88644540340E+01  0.51100000000E-03 0.  1.
         22    1    1    0    0    0 -0.52618893951E+02 -0.29174726914E+01 -0.33600451625E+02  0.62499999975E+02  0.00000000000E+00 0. -1.
</event>
<event>
 4    1  0.1956828E-002  0.9118800E+02  0.7818608E-02  0.1130116E+00
         25   -1    0    0    0    0  0.00000000000E+00  0.00000000000E+00  0.99999998245E-14  0.12500000000E+03  0.12500000000E+03 0.  0.
        -11    1    1    0    0    0 -0.15067830224E+02  0.26873165356E+01  0.24680241785E+02  0.29040928233E+02  0.51100000000E-03 0. -1.
         11    1    1    0    0    0 -0.17356927228E+02  0.30979742836E+01  0.28436756497E+02  0.33459071831E+02  0.51100000000E-03 0.  1.
         22    1    1    0    0    0  0.32424757452E+02 -0.57852908191E+01 -0.53116998281E+02  0.62499999937E+02  0.00000000000E+00 0. -1.
</event>
<event>
 4    1  0.1956828E-002  0.9118800E+02  0.7818608E-02  0.1130116E+00
         25   -1    0    0    0    0  0.00000000000E+00  0.00000000000E+00  0.99999998245E-14  0.12500000000E+03  0.12500000000E+03 0.  0.
        -11    1    1    0    0    0 -0.53396887471E+02  0.13407819656E+02 -0.10908165524E+02  0.56124729798E+02  0.51100000000E-03 0. -1.
         11    1    1    0    0    0 -0.60695806283E+01  0.15960966119E+01 -0.11247281486E+01  0.63759193115E+01  0.51100000000E-03 0.  1.
         22    1    1    0    0    0  0.59466468099E+02 -0.15003916268E+02  0.12032893673E+02  0.62499350890E+02  0.00000000000E+00 0. -1.
</event>
<event>
 4    1  0.1956828E-002  0.9118800E+02  0.7818608E-02  0.1130116E+00
         25   -1    0    0    0    0  0.00000000000E+00  0.00000000000E+00  0.99999998245E-14  0.12500000000E+03  0.12500000000E+03 0.  0.
        -11    1    1    0    0    0  0.36714318474E+02 -0.41690297842E+02 -0.22338992516E+01  0.55596874204E+02  0.51100000000E-03 0. -1.
         11    1    1    0    0    0  0.45565504560E+01 -0.51767725347E+01 -0.30386484198E+00  0.69031485597E+01  0.51100000000E-03 0.  1.
         22    1    1    0    0    0 -0.41270868930E+02  0.46867070376E+02  0.25377640936E+01  0.62499977236E+02  0.00000000000E+00 0. -1.
</event>
<event>
 4    1  0.1956828E-002  0.9118800E+02  0.7818608E-02  0.1130116E+00
         25   -1    0    0    0    0  0.00000000000E+00  0.00000000000E+00  0.99999998245E-14  0.12500000000E+03  0.12500000000E+03 0.  0.
        -11    1    1    0    0    0  0.12094001927E+02 -0.17279061811E+02 -0.25366747382E+02  0.32989433652E+02  0.51100000000E-03 0. -1.
         11    1    1    0    0    0  0.10692370127E+02 -0.15455154053E+02 -0.22752805408E+02  0.29510654345E+02  0.51100000000E-03 0.  1.
         22    1    1    0    0    0 -0.22786372054E+02  0.32734215864E+02  0.48119552790E+02  0.62499912002E+02  0.00000000000E+00 0. -1.
</event>
<event>
 4    1  0.1956828E-002  0.9118800E+02  0.7818608E-02  0.1130116E+00
         25   -1    0    0    0    0  0.00000000000E+00  0.00000000000E+00  0.99999998245E-14  0.12500000000E+03  0.12500000000E+03 0.  0.
        -11    1    1    0    0    0 -0.28592139230E+00  0.12391927950E+02 -0.54212825751E+01  0.13528929536E+02  0.51100000000E-03 0.  1.
         11    1    1    0    0    0 -0.10714680726E+01  0.44858097915E+02 -0.19615527075E+02  0.48971072023E+02  0.51100000000E-03 0.  1.
         22    1    1    0    0    0  0.13573894649E+01 -0.57250025865E+02  0.25036809650E+02  0.62499998441E+02  0.00000000000E+00 0.  1.
</event>
<event>
 4    1  0.1956828E-002  0.9118800E+02  0.7818608E-02  0.1130116E+00
         25   -1    0    0    0    0  0.00000000000E+00  0.00000000000E+00  0.99999998245E-14  0.12500000000E+03  0.12500000000E+03 0.  0.
        -11    1    1    0    0    0  0.15970772907E+02 -0.84874631652E+01 -0.51502632278E+01  0.18804994810E+02  0.51100000000E-03 0.  1.
         11    1    1    0    0    0  0.37052500067E+02 -0.19923021915E+02 -0.11808864802E+02  0.43695123888E+02  0.51100000000E-03 0. -1.
         22    1    1    0    0    0 -0.53023272973E+02  0.28410485080E+02  0.16959128030E+02  0.62499881302E+02  0.00000000000E+00 0. -1.
</event>
<event>
 4    1  0.1956828E-002  0.9118800E+02  0.7818608E-02  0.1130116E+00
         25   -1    0    0    0    0  0.00000000000E+00  0.00000000000E+00  0.99999998245E-14  0.12500000000E+03  0.12500000000E+03 0.  0.
        -11    1    1    0    0    0  0.37322410024E+02 -0.34199097920E+01  0.31160672937E+02  0.48740595105E+02  0.51100000000E-03 0.  1.
         11    1    1    0    0    0  0.10512849161E+02 -0.91727202424E+00  0.88295739301E+01  0.13759460800E+02  0.51100000000E-03 0. -1.
         22    1    1    0    0    0 -0.47835259186E+02  0.43371818162E+01 -0.39990246867E+02  0.62499944096E+02  0.00000000000E+00 0. -1.
</event>
<event>
 4    1  0.1956828E-002  0.9118800E+02  0.7818608E-02  0.1130116E+00
         25   -1    0    0    0    0  0.00000000000E+00  0.00000000000E+00  0.99999998245E-14  0.12500000000E+03  0.12500000000E+03 0.  0.
        -11    1    1    0    0    0 -0.58334600763E+01  0.13327861642E+02  0.63770440784E+00  0.14562548527E+02  0.51100000000E-03 0. -1.
         11    1    1    0    0    0 -0.19306281528E+02  0.43828165855E+02  0.20880907766E+01  0.47937467101E+02  0.51100000000E-03 0.  1.
         22    1    1    0    0    0  0.25139741604E+02 -0.57156027497E+02 -0.27257951844E+01  0.62499984373E+02  0.00000000000E+00 0.  1.
</event>
<event>
 4    1  0.1956828E-002  0.9118800E+02  0.7818608E-02  0.1130116E+00
         25   -1    0    0    0    0  0.00000000000E+00  0.00000000000E+00  0.99999998245E-14  0.12500000000E+03  0.12500000000E+03 0.  0.
        -11    1    1    0    0    0 -0.73804668355E+00  0.79402469958E+00 -0.81462695427E+00  0.13560256142E+01  0.51100000000E-03 0.  1.
         11    1    1    0    0    0 -0.46605906011E+02  0.22062700977E+02 -0.32921813566E+02  0.61177766045E+02  0.51100000000E-03 0. -1.
         22    1    1    0    0    0  0.47343952695E+02 -0.22856725676E+02  0.33736440521E+02  0.62466208340E+02  0.00000000000E+00 0. -1.
</event>
<event>
 4    1  0.1956828E-002  0.9118800E+02  0.7818608E-02  0.1130116E+00
         25   -1    0    0    0    0  0.00000000000E+00  0.00000000000E+00  0.99999998245E-14  0.12500000000E+03  0.12500000000E+03 0.  0.
        -11    1    1    0    0    0 -0.33733272960E+02 -0.43401682198E+02  0.14821005676E+02  0.56932433039E+02  0.51100000000E-03 0.  1.
         11    1    1    0    0    0 -0.37906598815E+01 -0.33842361214E+01  0.24699994269E+01  0.56500490169E+01  0.51100000000E-03 0. -1.
         22    1    1    0    0    0  0.37523932842E+02  0.46785918319E+02 -0.17291005103E+02  0.62417517944E+02  0.00000000000E+00 0.  1.
</event>
<event>
 4    1  0.1956828E-002  0.9118800E+02  0.7818608E-02  0.1130116E+00
         25   -1    0    0    0    0  0.00000000000E+00  0.00000000000E+00  0.99999998245E-14  0.12500000000E+03  0.12500000000E+03 0.  0.
        -11    1    1    0    0    0  0.19491266569E+02  0.39689657704E+01  0.96816345201E+01  0.22122301169E+02  0.51100000000E-03 0. -1.
         11    1    1    0    0    0  0.35576951665E+02  0.72546289836E+01  0.17663789525E+02  0.40377699192E+02  0.51100000000E-03 0. -1.
         22    1    1    0    0    0 -0.55068218234E+02 -0.11223594754E+02 -0.27345424045E+02  0.62499999639E+02  0.00000000000E+00 0. -1.
</event>
<event>
 4    1  0.1956828E-002  0.9118800E+02  0.7818608E-02  0.1130116E+00
         25   -1    0    0    0    0  0.00000000000E+00  0.00000000000E+00  0.99999998245E-14  0.12500000000E+03  0.12500000000E+03 0.  0.
        -11    1    1    0    0    0  0.38676597388E+02  0.39669897084E+01  0.27713247063E+02  0.47745578391E+02  0.51100000000E-03 0.  1.
         11    1    1    0    0    0  0.11951529574E+02  0.12257260419E+01  0.85645486524E+01  0.14754421621E+02  0.51100000000E-03 0.  1.
         22    1    1    0    0    0 -0.50628126962E+02 -0.51927157503E+01 -0.36277795715E+02  0.62499999988E+02  0.00000000000E+00 0.  1.
</event>
<event>
 4    1  0.1956828E-002  0.9118800E+02  0.7818608E-02  0.1130116E+00
         25   -1    0    0    0    0  0.00000000000E+00  0.00000000000E+00  0.99999998245E-14  0.12500000000E+03  0.12500000000E+03 0.  0.
        -11    1    1    0    0    0 -0.15127152137E+01  0.93797762990E+00  0.11027073356E+02  0.11169801091E+02  0.51100000000E-03 0.  1.
         11    1    1    0    0    0 -0.71520904951E+01  0.42513903225E+01  0.50651422019E+02  0.51330237394E+02  0.51100000000E-03 0. -1.
         22    1    1    0    0    0  0.86648057088E+01 -0.51893679524E+01 -0.61678495375E+02  0.62499961515E+02  0.00000000000E+00 0. -1.
</event>
<event>
 4    1  0.1956828E-002  0.9118800E+02  0.7818608E-02  0.1130116E+00
         25   -1    0    0    0    0  0.00000000000E+00  0.00000000000E+00  0.99999998245E-14  0.12500000000E+03  0.12500000000E+03 0.  0.
        -11    1    1    0    0    0 -0.90787083273E+01 -0.17428424027E+02 -0.10675538684E+02  0.22363810843E+02  0.51100000000E-03 0.  1.
         11    1    1    0    0    0 -0.16292678936E+02 -0.31279278826E+02 -0.19159045111E+02  0.40136189164E+02  0.51100000000E-03 0.  1.
         22    1    1    0    0    0  0.25371387264E+02  0.48707702853E+02  0.29834583795E+02  0.62499999993E+02  0.00000000000E+00 0.  1.
</event>
<event>
 4    1  0.1956828E-002  0.9118800E+02  0.7818608E-02  0.1130116E+00
         25   -1    0    0    0    0  0.00000000000E+00  0.00000000000E+00  0.99999998245E-14  0.12500000000E+03  0.12500000000E+03 0.  0.
        -11    1    1    0    0    0  0.75352917919E+01 -0.62041231594E+00 -0.17663789276E+01  0.77643820493E+01  0.51100000000E-03 0.  1.
         11    1    1    0    0    0  0.48251762714E+02 -0.11179481953E+02  0.25217771610E+02  0.55580117191E+02  0.51100000000E-03 0. -1.
         22    1    1    0    0    0 -0.55787054506E+02  0.11799894269E+02 -0.23451392683E+02  0.61655500760E+02  0.00000000000E+00 0. -1.
</event>
<event>
 4    1  0.1956828E-002  0.9118800E+02  0.7818608E-02  0.1130116E+00
         25   -1    0    0    0    0  0.00000000000E+00  0.00000000000E+00  0.99999998245E-14  0.12500000000E+03  0.12500000000E+03 0.  0.
        -11    1    1    0    0    0 -0.36927450924E+02  0.30093052696E+02 -0.37758869592E+02  0.60786188279E+02  0.51100000000E-03 0. -1.
         11    1    1    0    0    0 -0.10415995568E+01  0.84694622323E+00 -0.10653189262E+01  0.17138121885E+01  0.51100000000E-03 0.  1.
         22    1    1    0    0    0  0.37969050480E+02 -0.30939998919E+02  0.38824188518E+02  0.62499999533E+02  0.00000000000E+00 0. -1.
</event>
<event>
 4    1  0.1956828E-002  0.9118800E+02  0.7818608E-02  0.1130116E+00
         25   -1    0    0    0    0  0.00000000000E+00  0.00000000000E+00  0.99999998245E-14  0.12500000000E+03  0.12500000000E+03 0.  0.
        -11    1    1    0    0    0 -0.38991056620E+02  0.12701286826E+02  0.46558388454E+02  0.62042797480E+02  0.51100000000E-03 0. -1.
         11    1    1    0    0    0 -0.14001325315E+00  0.40201689518E-01  0.45423541266E+00  0.47702196819E+00  0.51100000000E-03 0.  1.
         22    1    1    0    0    0  0.39131069873E+02 -0.12741488516E+02 -0.47012623867E+02  0.62480180552E+02  0.00000000000E+00 0. -1.
</event>
<event>
 4    1  0.1956828E-002  0.9118800E+02  0.7818608E-02  0.1130116E+00
         25   -1    0    0    0    0  0.00000000000E+00  0.00000000000E+00  0.99999998245E-14  0.12500000000E+03  0.12500000000E+03 0.  0.
        -11    1    1    0    0    0 -0.71725080588E+00  0.11997167358E+00  0.26988649417E+02  0.26998445132E+02  0.51100000000E-03 0. -1.
         11    1    1    0    0    0 -0.88952152428E+00  0.11344743647E+00  0.35490242672E+02  0.35501569600E+02  0.51100000000E-03 0.  1.
         22    1    1    0    0    0  0.16067723302E+01 -0.23341911005E+00 -0.62478892089E+02  0.62499985268E+02  0.00000000000E+00 0.  1.
</event>
<event>
 4    1  0.1956828E-002  0.9118800E+02  0.7818608E-02  0.1130116E+00
         25   -1    0    0    0    0  0.00000000000E+00  0.00000000000E+00  0.99999998245E-14  0.12500000000E+03  0.12500000000E+03 0.  0.
        -11    1    1    0    0    0 -0.57589334749E+01 -0.18308090189E+02 -0.46178670870E+00  0.19198039701E+02  0.51100000000E-03 0.  1.
         11    1    1    0    0    0  0.16905498207E+02 -0.21026960694E+02 -0.40021200920E+02  0.48266193852E+02  0.51100000000E-03 0. -1.
         22    1    1    0    0    0 -0.11146564732E+02  0.39335050883E+02  0.40482987628E+02  0.57535766447E+02  0.00000000000E+00 0. -1.
</event>
<event>
 4    1  0.1956828E-002  0.9118800E+02  0.7818608E-02  0.1130116E+00
         25   -1    0    0    0    0  0.00000000000E+00  0.00000000000E+00  0.99999998245E-14  0.12500000000E+03  0.12500000000E+03 0.  0.
        -11    1    1    0    0    0 -0.10927759662E+02  0.25451139858E+02 -0.23365063902E+02  0.36236758447E+02  0.51100000000E-03 0.  1.
         11    1    1    0    0    0 -0.82462212267E+01  0.18559159672E+02 -0.16654504087E+02  0.26264330924E+02  0.51100000000E-03 0. -1.
         22    1    1    0    0    0  0.19173980889E+02 -0.44010299530E+02  0.40019567989E+02  0.62498910629E+02  0.00000000000E+00 0.  1.
</event>
<event>
 4    1  0.1956828E-002  0.9118800E+02  0.7818608E-02  0.1130116E+00
         25   -1    0    0    0    0  0.00000000000E+00  0.00000000000E+00  0.99999998245E-14  0.12500000000E+03  0.12500000000E+03 0.  0.
        -11    1    1    0    0    0 -0.53091214212E+01  0.20707873794E+02 -0.55004274751E+01  0.22073910166E+02  0.51100000000E-03 0.  1.
         11    1    1    0    0    0 -0.97156189683E+01  0.37924000155E+02 -0.10081950324E+02  0.40426090119E+02  0.51100000000E-03 0. -1.
         22    1    1    0    0    0  0.15024740389E+02 -0.58631873949E+02  0.15582377799E+02  0.62499999715E+02  0.00000000000E+00 0. -1.
</event>
<event>
 4    1  0.1956828E-002  0.9118800E+02  0.7818608E-02  0.1130116E+00
         25   -1    0    0    0    0  0.00000000000E+00  0.00000000000E+00  0.99999998245E-14  0.12500000000E+03  0.12500000000E+03 0.  0.
        -11    1    1    0    0    0  0.43458967577E+02  0.14994506096E+02  0.22578758890E+02  0.51218330988E+02  0.51100000000E-03 0.  1.
         11    1    1    0    0    0  0.95440314450E+01  0.33297326153E+01  0.50101482968E+01  0.11281721576E+02  0.51100000000E-03 0. -1.
         22    1    1    0    0    0 -0.53002999022E+02 -0.18324238711E+02 -0.27588907187E+02  0.62499947435E+02  0.00000000000E+00 0.  1.
</event>
<event>
 4    1  0.1956828E-002  0.9118800E+02  0.7818608E-02  0.1130116E+00
         25   -1    0    0    0    0  0.00000000000E+00  0.00000000000E+00  0.99999998245E-14  0.12500000000E+03  0.12500000000E+03 0.  0.
        -11    1    1    0    0    0 -0.48635405727E+02 -0.21153111635E+02  0.32757610847E+01  0.53137439089E+02  0.51100000000E-03 0.  1.
         11    1    1    0    0    0 -0.85688208886E+01 -0.37283691969E+01  0.57629814382E+00  0.93625609799E+01  0.51100000000E-03 0. -1.
         22    1    1    0    0    0  0.57204226615E+02  0.24881480832E+02 -0.38520592285E+01  0.62499999931E+02  0.00000000000E+00 0.  1.
</event>
<event>
 4    1  0.1956828E-002  0.9118800E+02  0.7818608E-02  0.1130116E+00
         25   -1    0    0    0    0  0.00000000000E+00  0.00000000000E+00  0.99999998245E-14  0.12500000000E+03  0.12500000000E+03 0.  0.
        -11    1    1    0    0    0 -0.12036283707E+00 -0.10219343254E+01  0.11164575642E+01  0.15183262929E+01  0.51100000000E-03 0.  1.
         11    1    1    0    0    0 -0.45159872665E+01 -0.40986395398E+02  0.44927576685E+02  0.60981684920E+02  0.51100000000E-03 0. -1.
         22    1    1    0    0    0  0.46363501036E+01  0.42008329723E+02 -0.46044034249E+02  0.62499988787E+02  0.00000000000E+00 0. -1.
</event>
<event>
 4    1  0.1956828E-002  0.9118800E+02  0.7818608E-02  0.1130116E+00
         25   -1    0    0    0    0  0.00000000000E+00  0.00000000000E+00  0.99999998245E-14  0.12500000000E+03  0.12500000000E+03 0.  0.
        -11    1    1    0    0    0 -0.42572788916E+01 -0.10223528809E+02  0.14042211608E+01  0.11163189607E+02  0.51100000000E-03 0.  1.
         11    1    1    0    0    0 -0.19623411096E+02 -0.46991469306E+02  0.64955379764E+01  0.51336813929E+02  0.51100000000E-03 0. -1.
         22    1    1    0    0    0  0.23880689988E+02  0.57214998115E+02 -0.78997591372E+01  0.62499996464E+02  0.00000000000E+00 0. -1.
</event>
<event>
 4    1  0.1956828E-002  0.9118800E+02  0.7818608E-02  0.1130116E+00
         25   -1    0    0    0    0  0.00000000000E+00  0.00000000000E+00  0.99999998245E-14  0.12500000000E+03  0.12500000000E+03 0.  0.
        -11    1    1    0    0    0  0.21110412700E+01  0.18809679293E+00 -0.37073804904E+01  0.42704269118E+01  0.51100000000E-03 0.  1.
         11    1    1    0    0    0  0.38743616568E+02  0.11889455593E+02 -0.41918573613E+02  0.58306035648E+02  0.51100000000E-03 0. -1.
         22    1    1    0    0    0 -0.40854657838E+02 -0.12077552386E+02  0.45625954103E+02  0.62423537440E+02  0.00000000000E+00 0. -1.
</event>
<event>
 4    1  0.1956828E-002  0.9118800E+02  0.7818608E-02  0.1130116E+00
         25   -1    0    0    0    0  0.00000000000E+00  0.00000000000E+00  0.99999998245E-14  0.12500000000E+03  0.12500000000E+03 0.  0.
        -11    1    1    0    0    0 -0.54122879998E+01 -0.43317851624E+02 -0.31089670802E+02  0.53593812717E+02  0.51100000000E-03 0.  1.
         11    1    1    0    0    0 -0.90064262795E+00 -0.71983068183E+01 -0.51665650379E+01  0.89061873293E+01  0.51100000000E-03 0. -1.
         22    1    1    0    0    0  0.63129306277E+01  0.50516158442E+02  0.36256235840E+02  0.62499999953E+02  0.00000000000E+00 0.  1.
</event>
<event>
 4    1  0.1956828E-002  0.9118800E+02  0.7818608E-02  0.1130116E+00
         25   -1    0    0    0    0  0.00000000000E+00  0.00000000000E+00  0.99999998245E-14  0.12500000000E+03  0.12500000000E+03 0.  0.
        -11    1    1    0    0    0  0.41717330513E+00  0.13226650470E+02 -0.81870813708E+01  0.15561060949E+02  0.51100000000E-03 0. -1.
         11    1    1    0    0    0  0.14957335012E+02  0.40332875143E+02 -0.19484321603E+02  0.47223950243E+02  0.51100000000E-03 0.  1.
         22    1    1    0    0    0 -0.15374508317E+02 -0.53559525613E+02  0.27671402974E+02  0.62214988808E+02  0.00000000000E+00 0. -1.
</event>
<event>
 4    1  0.1956828E-002  0.9118800E+02  0.7818608E-02  0.1130116E+00
         25   -1    0    0    0    0  0.00000000000E+00  0.00000000000E+00  0.99999998245E-14  0.12500000000E+03  0.12500000000E+03 0.  0.
        -11    1    1    0    0    0  0.34065987939E+02 -0.36486105161E+02  0.34956896179E+02  0.60940232973E+02  0.51100000000E-03 0. -1.
         11    1    1    0    0    0 -0.43969718945E+01  0.54266504169E+01  0.21399581643E+01  0.73048831472E+01  0.51100000000E-03 0.  1.
         22    1    1    0    0    0 -0.29669016045E+02  0.31059454744E+02 -0.37096854343E+02  0.56754883880E+02  0.00000000000E+00 0. -1.
</event>
<event>
 4    1  0.1956828E-002  0.9118800E+02  0.7818608E-02  0.1130116E+00
         25   -1    0    0    0    0  0.00000000000E+00  0.00000000000E+00  0.99999998245E-14  0.12500000000E+03  0.12500000000E+03 0.  0.
        -11    1    1    0    0    0  0.15442395619E+02  0.18305376398E+02 -0.33136787665E+01  0.24177155638E+02  0.51100000000E-03 0.  1.
         11    1    1    0    0    0  0.24479109211E+02  0.29013904575E+02 -0.52542321282E+01  0.38322844388E+02  0.51100000000E-03 0.  1.
         22    1    1    0    0    0 -0.39921504830E+02 -0.47319280973E+02  0.85679108947E+01  0.62499999974E+02  0.00000000000E+00 0.  1.
</event>
<event>
 4    1  0.1956828E-002  0.9118800E+02  0.7818608E-02  0.1130116E+00
         25   -1    0    0    0    0  0.00000000000E+00  0.00000000000E+00  0.99999998245E-14  0.12500000000E+03  0.12500000000E+03 0.  0.
        -11    1    1    0    0    0 -0.86242855143E+01 -0.53125851683E+01  0.34392722542E+01  0.10697217194E+02  0.51100000000E-03 0.  1.
         11    1    1    0    0    0 -0.41762874216E+02 -0.25729629443E+02  0.16654633399E+02  0.51802782821E+02  0.51100000000E-03 0. -1.
         22    1    1    0    0    0  0.50387159731E+02  0.31042214611E+02 -0.20093905653E+02  0.62499999985E+02  0.00000000000E+00 0. -1.
</event>
<event>
 4    1  0.1956828E-002  0.9118800E+02  0.7818608E-02  0.1130116E+00
         25   -1    0    0    0    0  0.00000000000E+00  0.00000000000E+00  0.99999998245E-14  0.12500000000E+03  0.12500000000E+03 0.  0.
        -11    1    1    0    0    0 -0.11775449425E+02 -0.43071922773E+01 -0.61271981499E+01  0.13955488953E+02  0.51100000000E-03 0.  1.
         11    1    1    0    0    0 -0.44097723488E+02 -0.17348513425E+02 -0.11147533887E+02  0.48681080996E+02  0.51100000000E-03 0. -1.
         22    1    1    0    0    0  0.55873172913E+02  0.21655705702E+02  0.17274732037E+02  0.62363430052E+02  0.00000000000E+00 0. -1.
</event>
<event>
 4    1  0.1956828E-002  0.9118800E+02  0.7818608E-02  0.1130116E+00
         25   -1    0    0    0    0  0.00000000000E+00  0.00000000000E+00  0.99999998245E-14  0.12500000000E+03  0.12500000000E+03 0.  0.
        -11    1    1    0    0    0 -0.13393520372E+00 -0.57793128775E+01 -0.22866443124E+01  0.62166822700E+01  0.51100000000E-03 0.  1.
         11    1    1    0    0    0 -0.59263928820E+01 -0.55186623507E+02 -0.97279517072E+01  0.56349965319E+02  0.51100000000E-03 0. -1.
         22    1    1    0    0    0  0.60603280857E+01  0.60965936385E+02  0.12014596020E+02  0.62433352411E+02  0.00000000000E+00 0. -1.
</event>
<event>
 4    1  0.1956828E-002  0.9118800E+02  0.7818608E-02  0.1130116E+00
         25   -1    0    0    0    0  0.00000000000E+00  0.00000000000E+00  0.99999998245E-14  0.12500000000E+03  0.12500000000E+03 0.  0.
        -11    1    1    0    0    0 -0.54397824680E+01 -0.53226223952E+01  0.33003897371E+01  0.82954273632E+01  0.51100000000E-03 0.  1.
         11    1    1    0    0    0 -0.35614820290E+02 -0.34875418742E+02  0.21293925726E+02  0.54204626461E+02  0.51100000000E-03 0. -1.
         22    1    1    0    0    0  0.41054602758E+02  0.40198041137E+02 -0.24594315463E+02  0.62499946176E+02  0.00000000000E+00 0. -1.
</event>
<event>
 4    1  0.1956828E-002  0.9118800E+02  0.7818608E-02  0.1130116E+00
         25   -1    0    0    0    0  0.00000000000E+00  0.00000000000E+00  0.99999998245E-14  0.12500000000E+03  0.12500000000E+03 0.  0.
        -11    1    1    0    0    0  0.21465369865E-01 -0.87084220440E-01 -0.10075686788E+00  0.13489488908E+00  0.51100000000E-03 0.  1.
         11    1    1    0    0    0  0.94635136322E+01 -0.40118106814E+02 -0.46801561019E+02  0.62365108023E+02  0.51100000000E-03 0. -1.
         22    1    1    0    0    0 -0.94849790021E+01  0.40205191035E+02  0.46902317887E+02  0.62499997088E+02  0.00000000000E+00 0. -1.
</event>
<event>
 4    1  0.1956828E-002  0.9118800E+02  0.7818608E-02  0.1130116E+00
         25   -1    0    0    0    0  0.00000000000E+00  0.00000000000E+00  0.99999998245E-14  0.12500000000E+03  0.12500000000E+03 0.  0.
        -11    1    1    0    0    0 -0.49705023151E+01  0.74587420504E+01 -0.68525050677E+01  0.11282533058E+02  0.51100000000E-03 0. -1.
         11    1    1    0    0    0 -0.22762334621E+02  0.33739075469E+02 -0.31093161772E+02  0.51217514584E+02  0.51100000000E-03 0.  1.
         22    1    1    0    0    0  0.27732836936E+02 -0.41197817519E+02  0.37945666840E+02  0.62499952358E+02  0.00000000000E+00 0.  1.
</event>
<event>
 4    1  0.1956828E-002  0.9118800E+02  0.7818608E-02  0.1130116E+00
         25   -1    0    0    0    0  0.00000000000E+00  0.00000000000E+00  0.99999998245E-14  0.12500000000E+03  0.12500000000E+03 0.  0.
        -11    1    1    0    0    0 -0.17895696404E+02 -0.40321249856E+02  0.16093547769E+02  0.46958081517E+02  0.51100000000E-03 0.  1.
         11    1    1    0    0    0 -0.59504063064E+01 -0.13336089322E+02  0.53191118540E+01  0.15541929249E+02  0.51100000000E-03 0. -1.
         22    1    1    0    0    0  0.23846102710E+02  0.53657339178E+02 -0.21412659623E+02  0.62499989234E+02  0.00000000000E+00 0.  1.
</event>
<event>
 4    1  0.1956828E-002  0.9118800E+02  0.7818608E-02  0.1130116E+00
         25   -1    0    0    0    0  0.00000000000E+00  0.00000000000E+00  0.99999998245E-14  0.12500000000E+03  0.12500000000E+03 0.  0.
        -11    1    1    0    0    0 -0.66175188070E+00 -0.89964899240E+00  0.37635606476E+01  0.39257703537E+01  0.51100000000E-03 0. -1.
         11    1    1    0    0    0 -0.81708680476E+01 -0.11537317576E+02  0.56844395718E+02  0.58576088178E+02  0.51100000000E-03 0.  1.
         22    1    1    0    0    0  0.88326199283E+01  0.12436966568E+02 -0.60607956365E+02  0.62498141468E+02  0.00000000000E+00 0.  1.
</event>
<event>
 4    1  0.1956828E-002  0.9118800E+02  0.7818608E-02  0.1130116E+00
         25   -1    0    0    0    0  0.00000000000E+00  0.00000000000E+00  0.99999998245E-14  0.12500000000E+03  0.12500000000E+03 0.  0.
        -11    1    1    0    0    0 -0.96974362101E+00 -0.57724309210E+02  0.12620792449E+02  0.59095860082E+02  0.51100000000E-03 0. -1.
         11    1    1    0    0    0  0.36754773727E+00 -0.32107441473E+01  0.11487246480E+01  0.34298014369E+01  0.51100000000E-03 0.  1.
         22    1    1    0    0    0  0.60219588374E+00  0.60935053358E+02 -0.13769517097E+02  0.62474338481E+02  0.00000000000E+00 0. -1.
</event>
<event>
 4    1  0.1956828E-002  0.9118800E+02  0.7818608E-02  0.1130116E+00
         25   -1    0    0    0    0  0.00000000000E+00  0.00000000000E+00  0.99999998245E-14  0.12500000000E+03  0.12500000000E+03 0.  0.
        -11    1    1    0    0    0 -0.17363530919E+02 -0.29418212783E+02 -0.39230828664E+02  0.52019048119E+02  0.51100000000E-03 0. -1.
         11    1    1    0    0    0 -0.35664048856E+01 -0.60230333561E+01 -0.78015583192E+01  0.10481435354E+02  0.51100000000E-03 0.  1.
         22    1    1    0    0    0  0.20929935804E+02  0.35441246139E+02  0.47032386983E+02  0.62499516526E+02  0.00000000000E+00 0. -1.
</event>
<event>
 4    1  0.1956828E-002  0.9118800E+02  0.7818608E-02  0.1130116E+00
         25   -1    0    0    0    0  0.00000000000E+00  0.00000000000E+00  0.99999998245E-14  0.12500000000E+03  0.12500000000E+03 0.  0.
        -11    1    1    0    0    0  0.18950423428E+02  0.51832242484E+02  0.28027933506E+02  0.61897212909E+02  0.51100000000E-03 0. -1.
         11    1    1    0    0    0  0.14662062790E+00  0.40173710206E+00  0.44946111432E+00  0.62040781919E+00  0.51100000000E-03 0.  1.
         22    1    1    0    0    0 -0.19097044056E+02 -0.52233979586E+02 -0.28477394621E+02  0.62482379272E+02  0.00000000000E+00 0. -1.
</event>
<event>
 4    1  0.1956828E-002  0.9118800E+02  0.7818608E-02  0.1130116E+00
         25   -1    0    0    0    0  0.00000000000E+00  0.00000000000E+00  0.99999998245E-14  0.12500000000E+03  0.12500000000E+03 0.  0.
        -11    1    1    0    0    0 -0.35886086169E+02 -0.34979610970E+02  0.29743814012E+02  0.58275885548E+02  0.51100000000E-03 0. -1.
         11    1    1    0    0    0 -0.26014040497E+01 -0.25341261643E+01  0.21573238221E+01  0.42241146742E+01  0.51100000000E-03 0.  1.
         22    1    1    0    0    0  0.38487490219E+02  0.37513737134E+02 -0.31901137834E+02  0.62499999778E+02  0.00000000000E+00 0. -1.
</event>
<event>
 4    1  0.1956828E-002  0.9118800E+02  0.7818608E-02  0.1130116E+00
         25   -1    0    0    0    0  0.00000000000E+00  0.00000000000E+00  0.99999998245E-14  0.12500000000E+03  0.12500000000E+03 0.  0.
        -11    1    1    0    0    0 -0.40967544657E+02 -0.27359195968E+02 -0.33258829968E+02  0.59439171347E+02  0.51100000000E-03 0.  1.
         11    1    1    0    0    0  0.27538030628E+00 -0.41519697793E+01 -0.21422140895E+00  0.41666027450E+01  0.51100000000E-03 0. -1.
         22    1    1    0    0    0  0.40692164351E+02  0.31511165747E+02  0.33473051377E+02  0.61394225908E+02  0.00000000000E+00 0.  1.
</event>
<event>
 4    1  0.1956828E-002  0.9118800E+02  0.7818608E-02  0.1130116E+00
         25   -1    0    0    0    0  0.00000000000E+00  0.00000000000E+00  0.99999998245E-14  0.12500000000E+03  0.12500000000E+03 0.  0.
        -11    1    1    0    0    0 -0.46126443369E+02 -0.93516231460E+01 -0.17531968592E+02  0.50224212849E+02  0.51100000000E-03 0. -1.
         11    1    1    0    0    0 -0.11258807586E+02 -0.23831535586E+01 -0.42730258241E+01  0.12275948807E+02  0.51100000000E-03 0.  1.
         22    1    1    0    0    0  0.57385250956E+02  0.11734776705E+02  0.21804994416E+02  0.62499838344E+02  0.00000000000E+00 0. -1.
</event>
<event>
 4    1  0.1956828E-002  0.9118800E+02  0.7818608E-02  0.1130116E+00
         25   -1    0    0    0    0  0.00000000000E+00  0.00000000000E+00  0.99999998245E-14  0.12500000000E+03  0.12500000000E+03 0.  0.
        -11    1    1    0    0    0  0.40326232141E+02 -0.35673204689E+01 -0.44750066691E+02  0.60344836094E+02  0.51100000000E-03 0.  1.
         11    1    1    0    0    0  0.14224667594E+01 -0.14124513623E+00 -0.16129846363E+01  0.21552451295E+01  0.51100000000E-03 0. -1.
         22    1    1    0    0    0 -0.41748698900E+02  0.37085656051E+01  0.46363051328E+02  0.62499918777E+02  0.00000000000E+00 0.  1.
</event>
<event>
 4    1  0.1956828E-002  0.9118800E+02  0.7818608E-02  0.1130116E+00
         25   -1    0    0    0    0  0.00000000000E+00  0.00000000000E+00  0.99999998245E-14  0.12500000000E+03  0.12500000000E+03 0.  0.
        -11    1    1    0    0    0 -0.41566874633E+02  0.62442643601E+01  0.17739604556E+02  0.45623343523E+02  0.51100000000E-03 0.  1.
         11    1    1    0    0    0 -0.15367958386E+02  0.14964845342E+01  0.68319852696E+01  0.16884597534E+02  0.51100000000E-03 0. -1.
         22    1    1    0    0    0  0.56934833019E+02 -0.77407488943E+01 -0.24571589826E+02  0.62492058943E+02  0.00000000000E+00 0.  1.
</event>
<event>
 4    1  0.1956828E-002  0.9118800E+02  0.7818608E-02  0.1130116E+00
         25   -1    0    0    0    0  0.00000000000E+00  0.00000000000E+00  0.99999998245E-14  0.12500000000E+03  0.12500000000E+03 0.  0.
        -11    1    1    0    0    0 -0.34364597566E+02 -0.11740185635E+02  0.42339692627E+02  0.55779988317E+02  0.51100000000E-03 0. -1.
         11    1    1    0    0    0 -0.41541084112E+01 -0.12598972423E+01  0.51308615939E+01  0.67208406252E+01  0.51100000000E-03 0.  1.
         22    1    1    0    0    0  0.38518705977E+02  0.13000082877E+02 -0.47470554221E+02  0.62499171058E+02  0.00000000000E+00 0. -1.
</event>
<event>
 4    1  0.1956828E-002  0.9118800E+02  0.7818608E-02  0.1130116E+00
         25   -1    0    0    0    0  0.00000000000E+00  0.00000000000E+00  0.99999998245E-14  0.12500000000E+03  0.12500000000E+03 0.  0.
        -11    1    1    0    0    0 -0.87796421136E+01 -0.45818912304E+02  0.37760086391E+01  0.46805054021E+02  0.51100000000E-03 0. -1.
         11    1    1    0    0    0 -0.29869741898E+01 -0.15356475112E+02  0.12604411255E+01  0.15694969091E+02  0.51100000000E-03 0.  1.
         22    1    1    0    0    0  0.11766616303E+02  0.61175387416E+02 -0.50364497645E+01  0.62499976888E+02  0.00000000000E+00 0. -1.
</event>
<event>
 4    1  0.1956828E-002  0.9118800E+02  0.7818608E-02  0.1130116E+00
         25   -1    0    0    0    0  0.00000000000E+00  0.00000000000E+00  0.99999998245E-14  0.12500000000E+03  0.12500000000E+03 0.  0.
        -11    1    1    0    0    0 -0.28201706094E+02 -0.33756806386E+02 -0.28634406393E+02  0.52486068949E+02  0.51100000000E-03 0.  1.
         11    1    1    0    0    0 -0.54107334376E+01 -0.63667523183E+01 -0.55200784814E+01  0.10014131920E+02  0.51100000000E-03 0. -1.
         22    1    1    0    0    0  0.33612439532E+02  0.40123558704E+02  0.34154484874E+02  0.62499799131E+02  0.00000000000E+00 0. -1.
</event>
<event>
 4    1  0.1956828E-002  0.9118800E+02  0.7818608E-02  0.1130116E+00
         25   -1    0    0    0    0  0.00000000000E+00  0.00000000000E+00  0.99999998245E-14  0.12500000000E+03  0.12500000000E+03 0.  0.
        -11    1    1    0    0    0  0.38474807751E+02 -0.27834724997E+02  0.10991593416E+02  0.48743182838E+02  0.51100000000E-03 0.  1.
         11    1    1    0    0    0  0.10079582956E+02 -0.86355861194E+01  0.37003178632E+01  0.13779103481E+02  0.51100000000E-03 0. -1.
         22    1    1    0    0    0 -0.48554390706E+02  0.36470311116E+02 -0.14691911279E+02  0.62477713681E+02  0.00000000000E+00 0.  1.
</event>
<event>
 4    1  0.1956828E-002  0.9118800E+02  0.7818608E-02  0.1130116E+00
         25   -1    0    0    0    0  0.00000000000E+00  0.00000000000E+00  0.99999998245E-14  0.12500000000E+03  0.12500000000E+03 0.  0.
        -11    1    1    0    0    0 -0.97491182251E+00  0.86452077572E+01  0.22514255761E+01  0.89866004481E+01  0.51100000000E-03 0. -1.
         11    1    1    0    0    0 -0.57328186984E+01  0.51525064926E+02  0.13266060149E+02  0.53513417738E+02  0.51100000000E-03 0.  1.
         22    1    1    0    0    0  0.67077305209E+01 -0.60170272683E+02 -0.15517485725E+02  0.62499981814E+02  0.00000000000E+00 0.  1.
</event>
<event>
 4    1  0.1956828E-002  0.9118800E+02  0.7818608E-02  0.1130116E+00
         25   -1    0    0    0    0  0.00000000000E+00  0.00000000000E+00  0.99999998245E-14  0.12500000000E+03  0.12500000000E+03 0.  0.
        -11    1    1    0    0    0 -0.86522181162E+01  0.17145934648E+00 -0.52544528571E+01  0.10124206227E+02  0.51100000000E-03 0.  1.
         11    1    1    0    0    0 -0.44898337215E+02  0.11768711293E+01 -0.26944220523E+02  0.52375917463E+02  0.51100000000E-03 0. -1.
         22    1    1    0    0    0  0.53550555331E+02 -0.13483304758E+01  0.32198673380E+02  0.62499876310E+02  0.00000000000E+00 0.  1.
</event>
<event>
 4    1  0.1956828E-002  0.9118800E+02  0.7818608E-02  0.1130116E+00
         25   -1    0    0    0    0  0.00000000000E+00  0.00000000000E+00  0.99999998245E-14  0.12500000000E+03  0.12500000000E+03 0.  0.
        -11    1    1    0    0    0  0.36178196936E+02 -0.15245107701E+02  0.23174220124E+02  0.45588592005E+02  0.51100000000E-03 0.  1.
         11    1    1    0    0    0  0.13419744058E+02 -0.56572791917E+01  0.85965913927E+01  0.16911408051E+02  0.51100000000E-03 0. -1.
         22    1    1    0    0    0 -0.49597940994E+02  0.20902386893E+02 -0.31770811516E+02  0.62499999944E+02  0.00000000000E+00 0. -1.
</event>
<event>
 4    1  0.1956828E-002  0.9118800E+02  0.7818608E-02  0.1130116E+00
         25   -1    0    0    0    0  0.00000000000E+00  0.00000000000E+00  0.99999998245E-14  0.12500000000E+03  0.12500000000E+03 0.  0.
        -11    1    1    0    0    0 -0.25771070536E+01  0.49586037571E+01 -0.90395330816E+01  0.10627435748E+02  0.51100000000E-03 0. -1.
         11    1    1    0    0    0 -0.12579141695E+02  0.24197261171E+02 -0.44125057192E+02  0.51872564294E+02  0.51100000000E-03 0.  1.
         22    1    1    0    0    0  0.15156248749E+02 -0.29155864928E+02  0.53164590273E+02  0.62499999958E+02  0.00000000000E+00 0.  1.
</event>
<event>
 4    1  0.1956828E-002  0.9118800E+02  0.7818608E-02  0.1130116E+00
         25   -1    0    0    0    0  0.00000000000E+00  0.00000000000E+00  0.99999998245E-14  0.12500000000E+03  0.12500000000E+03 0.  0.
        -11    1    1    0    0    0  0.81343222392E+00  0.38407108279E+01 -0.44088530431E+01  0.59034495901E+01  0.51100000000E-03 0. -1.
         11    1    1    0    0    0  0.99892154801E+01  0.35874149472E+02 -0.42622828041E+02  0.56598979644E+02  0.51100000000E-03 0.  1.
         22    1    1    0    0    0 -0.10802647704E+02 -0.39714860299E+02  0.47031681084E+02  0.62497570766E+02  0.00000000000E+00 0.  1.
</event>
<event>
 4    1  0.1956828E-002  0.9118800E+02  0.7818608E-02  0.1130116E+00
         25   -1    0    0    0    0  0.00000000000E+00  0.00000000000E+00  0.99999998245E-14  0.12500000000E+03  0.12500000000E+03 0.  0.
        -11    1    1    0    0    0 -0.42138675260E+01 -0.26726601560E+02 -0.42098146730E+02  0.50043200026E+02  0.51100000000E-03 0. -1.
         11    1    1    0    0    0 -0.10593180690E+01 -0.66652678347E+01 -0.10470150570E+02  0.12456805502E+02  0.51100000000E-03 0.  1.
         22    1    1    0    0    0  0.52731855950E+01  0.33391869395E+02  0.52568297300E+02  0.62499994472E+02  0.00000000000E+00 0. -1.
</event>
<event>
 4    1  0.1956828E-002  0.9118800E+02  0.7818608E-02  0.1130116E+00
         25   -1    0    0    0    0  0.00000000000E+00  0.00000000000E+00  0.99999998245E-14  0.12500000000E+03  0.12500000000E+03 0.  0.
        -11    1    1    0    0    0 -0.22050448026E+02  0.74129542168E+01  0.45544576111E+01  0.23704793455E+02  0.51100000000E-03 0. -1.
         11    1    1    0    0    0 -0.36108420961E+02  0.12129349673E+02  0.73573575585E+01  0.38795230355E+02  0.51100000000E-03 0.  1.
         22    1    1    0    0    0  0.58158868987E+02 -0.19542303889E+02 -0.11911815170E+02  0.62499976190E+02  0.00000000000E+00 0.  1.
</event>
<event>
 4    1  0.1956828E-002  0.9118800E+02  0.7818608E-02  0.1130116E+00
         25   -1    0    0    0    0  0.00000000000E+00  0.00000000000E+00  0.99999998245E-14  0.12500000000E+03  0.12500000000E+03 0.  0.
        -11    1    1    0    0    0 -0.10084006371E+02 -0.21760039712E+02 -0.32615589006E+02  0.40484109960E+02  0.51100000000E-03 0. -1.
         11    1    1    0    0    0 -0.31336577693E+01 -0.12613373778E+02 -0.17826167211E+02  0.22061034581E+02  0.51100000000E-03 0.  1.
         22    1    1    0    0    0  0.13217664141E+02  0.34373413490E+02  0.50441756217E+02  0.62454855460E+02  0.00000000000E+00 0. -1.
</event>
<event>
 4    1  0.1956828E-002  0.9118800E+02  0.7818608E-02  0.1130116E+00
         25   -1    0    0    0    0  0.00000000000E+00  0.00000000000E+00  0.99999998245E-14  0.12500000000E+03  0.12500000000E+03 0.  0.
        -11    1    1    0    0    0  0.67723851137E+01  0.28559970238E+01 -0.54513657562E+01  0.91509184237E+01  0.51100000000E-03 0. -1.
         11    1    1    0    0    0  0.39484356473E+02  0.16690108201E+02 -0.31757684808E+02  0.53349083052E+02  0.51100000000E-03 0.  1.
         22    1    1    0    0    0 -0.46256741587E+02 -0.19546105224E+02  0.37209050564E+02  0.62499998524E+02  0.00000000000E+00 0.  1.
</event>
<event>
 4    1  0.1956828E-002  0.9118800E+02  0.7818608E-02  0.1130116E+00
         25   -1    0    0    0    0  0.00000000000E+00  0.00000000000E+00  0.99999998245E-14  0.12500000000E+03  0.12500000000E+03 0.  0.
        -11    1    1    0    0    0  0.62675623793E+01  0.32871143668E+02  0.38443537283E+02  0.50967636626E+02  0.51100000000E-03 0. -1.
         11    1    1    0    0    0  0.14061748510E+01  0.74335299370E+01  0.87040673140E+01  0.11532366761E+02  0.51100000000E-03 0.  1.
         22    1    1    0    0    0 -0.76737372303E+01 -0.40304673605E+02 -0.47147604597E+02  0.62499996613E+02  0.00000000000E+00 0. -1.
</event>
<event>
 4    1  0.1956828E-002  0.9118800E+02  0.7818608E-02  0.1130116E+00
         25   -1    0    0    0    0  0.00000000000E+00  0.00000000000E+00  0.99999998245E-14  0.12500000000E+03  0.12500000000E+03 0.  0.
        -11    1    1    0    0    0  0.29953325407E+02 -0.26492641923E+02  0.34470095664E+02  0.52794405710E+02  0.51100000000E-03 0. -1.
         11    1    1    0    0    0  0.44746615091E+01 -0.64230353240E+01  0.58722595889E+01  0.97857759700E+01  0.51100000000E-03 0.  1.
         22    1    1    0    0    0 -0.34427986916E+02  0.32915677247E+02 -0.40342355253E+02  0.62419818320E+02  0.00000000000E+00 0. -1.
</event>
<event>
 4    1  0.1956828E-002  0.9118800E+02  0.7818608E-02  0.1130116E+00
         25   -1    0    0    0    0  0.00000000000E+00  0.00000000000E+00  0.99999998245E-14  0.12500000000E+03  0.12500000000E+03 0.  0.
        -11    1    1    0    0    0 -0.98905822444E+01 -0.32840639164E+02 -0.42782448673E+02  0.54833102343E+02  0.51100000000E-03 0. -1.
         11    1    1    0    0    0 -0.13662856807E+01 -0.46112992938E+01 -0.59708327114E+01  0.76669199335E+01  0.51100000000E-03 0.  1.
         22    1    1    0    0    0  0.11256867925E+02  0.37451938458E+02  0.48753281384E+02  0.62499977724E+02  0.00000000000E+00 0. -1.
</event>
<event>
 4    1  0.1956828E-002  0.9118800E+02  0.7818608E-02  0.1130116E+00
         25   -1    0    0    0    0  0.00000000000E+00  0.00000000000E+00  0.99999998245E-14  0.12500000000E+03  0.12500000000E+03 0.  0.
        -11    1    1    0    0    0 -0.38696007380E+02  0.15747808010E+02  0.44076787269E+01  0.42009547443E+02  0.51100000000E-03 0. -1.
         11    1    1    0    0    0 -0.18572918018E+02  0.72595779594E+01  0.50033752727E+01  0.20559390074E+02  0.51100000000E-03 0.  1.
         22    1    1    0    0    0  0.57268925398E+02 -0.23007385970E+02 -0.94110539996E+01  0.62431062483E+02  0.00000000000E+00 0. -1.
</event>
<event>
 4    1  0.1956828E-002  0.9118800E+02  0.7818608E-02  0.1130116E+00
         25   -1    0    0    0    0  0.00000000000E+00  0.00000000000E+00  0.99999998245E-14  0.12500000000E+03  0.12500000000E+03 0.  0.
        -11    1    1    0    0    0 -0.17454221291E+02 -0.37233512666E+02 -0.42335170234E+02  0.59019072726E+02  0.51100000000E-03 0. -1.
         11    1    1    0    0    0  0.29492006528E+00 -0.24169418360E+01 -0.26569756530E+01  0.36039014367E+01  0.51100000000E-03 0.  1.
         22    1    1    0    0    0  0.17159301226E+02  0.39650454502E+02  0.44992145887E+02  0.62377025838E+02  0.00000000000E+00 0. -1.
</event>
<event>
 4    1  0.1956828E-002  0.9118800E+02  0.7818608E-02  0.1130116E+00
         25   -1    0    0    0    0  0.00000000000E+00  0.00000000000E+00  0.99999998245E-14  0.12500000000E+03  0.12500000000E+03 0.  0.
        -11    1    1    0    0    0 -0.60356462890E+01  0.33448785770E+02  0.31537013195E+01  0.34134969282E+02  0.51100000000E-03 0. -1.
         11    1    1    0    0    0 -0.50255161052E+01  0.27793785470E+02  0.26124110047E+01  0.28365031542E+02  0.51100000000E-03 0.  1.
         22    1    1    0    0    0  0.11061162394E+02 -0.61242571240E+02 -0.57661123242E+01  0.62499999176E+02  0.00000000000E+00 0.  1.
</event>
<event>
 4    1  0.1956828E-002  0.9118800E+02  0.7818608E-02  0.1130116E+00
         25   -1    0    0    0    0  0.00000000000E+00  0.00000000000E+00  0.99999998245E-14  0.12500000000E+03  0.12500000000E+03 0.  0.
        -11    1    1    0    0    0  0.38740829370E+02  0.18153808738E+02 -0.24480045704E+02  0.49291837762E+02  0.51100000000E-03 0. -1.
         11    1    1    0    0    0  0.96476570076E+01  0.67031872348E+01 -0.61687331542E+01  0.13268883669E+02  0.51100000000E-03 0.  1.
         22    1    1    0    0    0 -0.48388486378E+02 -0.24856995973E+02  0.30648778859E+02  0.62439278569E+02  0.00000000000E+00 0. -1.
</event>
<event>
 4    1  0.1956828E-002  0.9118800E+02  0.7818608E-02  0.1130116E+00
         25   -1    0    0    0    0  0.00000000000E+00  0.00000000000E+00  0.99999998245E-14  0.12500000000E+03  0.12500000000E+03 0.  0.
        -11    1    1    0    0    0 -0.32878178410E+02 -0.25922996318E+02  0.34125439437E+01  0.42007401849E+02  0.51100000000E-03 0.  1.
         11    1    1    0    0    0 -0.16021283797E+02 -0.12666336035E+02  0.16820583871E+01  0.20492606563E+02  0.51100000000E-03 0. -1.
         22    1    1    0    0    0  0.48899462207E+02  0.38589332353E+02 -0.50946023308E+01  0.62499991588E+02  0.00000000000E+00 0.  1.
</event>
<event>
 4    1  0.1956828E-002  0.9118800E+02  0.7818608E-02  0.1130116E+00
         25   -1    0    0    0    0  0.00000000000E+00  0.00000000000E+00  0.99999998245E-14  0.12500000000E+03  0.12500000000E+03 0.  0.
        -11    1    1    0    0    0 -0.43144661811E+01 -0.11198353489E+02 -0.39602692572E+01  0.12637304781E+02  0.51100000000E-03 0.  1.
         11    1    1    0    0    0  0.26919926337E+02 -0.38444756743E+02 -0.22139426846E+02  0.51892542589E+02  0.51100000000E-03 0. -1.
         22    1    1    0    0    0 -0.22605460156E+02  0.49643110232E+02  0.26099696103E+02  0.60470152630E+02  0.00000000000E+00 0.  1.
</event>
<event>
 4    1  0.1956828E-002  0.9118800E+02  0.7818608E-02  0.1130116E+00
         25   -1    0    0    0    0  0.00000000000E+00  0.00000000000E+00  0.99999998245E-14  0.12500000000E+03  0.12500000000E+03 0.  0.
        -11    1    1    0    0    0  0.32946998485E+00 -0.21636148209E+01 -0.10665122171E+01  0.24345899315E+01  0.51100000000E-03 0. -1.
         11    1    1    0    0    0  0.13619507294E+02 -0.49629932210E+02 -0.30992258711E+02  0.60076128790E+02  0.51100000000E-03 0.  1.
         22    1    1    0    0    0 -0.13948977279E+02  0.51793547031E+02  0.32058770928E+02  0.62489281278E+02  0.00000000000E+00 0.  1.
</event>
<event>
 4    1  0.1956828E-002  0.9118800E+02  0.7818608E-02  0.1130116E+00
         25   -1    0    0    0    0  0.00000000000E+00  0.00000000000E+00  0.99999998245E-14  0.12500000000E+03  0.12500000000E+03 0.  0.
        -11    1    1    0    0    0 -0.60330196085E+01 -0.43665270656E+01  0.38830768578E+01  0.83989386446E+01  0.51100000000E-03 0.  1.
         11    1    1    0    0    0 -0.38839650859E+02 -0.28138545250E+02  0.25032552818E+02  0.54101061990E+02  0.51100000000E-03 0. -1.
         22    1    1    0    0    0  0.44872670467E+02  0.32505072316E+02 -0.28915629676E+02  0.62499999365E+02  0.00000000000E+00 0. -1.
</event>
<event>
 4    1  0.1956828E-002  0.9118800E+02  0.7818608E-02  0.1130116E+00
         25   -1    0    0    0    0  0.00000000000E+00  0.00000000000E+00  0.99999998245E-14  0.12500000000E+03  0.12500000000E+03 0.  0.
        -11    1    1    0    0    0 -0.42386321339E+01 -0.60508332418E+01 -0.18477007921E+01  0.76152861905E+01  0.51100000000E-03 0.  1.
         11    1    1    0    0    0 -0.31037600929E+02 -0.43964266067E+02 -0.10795917064E+02  0.54888443117E+02  0.51100000000E-03 0. -1.
         22    1    1    0    0    0  0.35276233063E+02  0.50015099309E+02  0.12643617856E+02  0.62496270693E+02  0.00000000000E+00 0. -1.
</event>
<event>
 4    1  0.1956828E-002  0.9118800E+02  0.7818608E-02  0.1130116E+00
         25   -1    0    0    0    0  0.00000000000E+00  0.00000000000E+00  0.99999998245E-14  0.12500000000E+03  0.12500000000E+03 0.  0.
        -11    1    1    0    0    0  0.39704852176E+02  0.36576141838E+02  0.16672467478E+02  0.56500093895E+02  0.51100000000E-03 0.  1.
         11    1    1    0    0    0  0.27297123626E+01  0.47752665352E+01  0.27468605421E+01  0.61481495723E+01  0.51100000000E-03 0. -1.
         22    1    1    0    0    0 -0.42434564538E+02 -0.41351408373E+02 -0.19419328020E+02  0.62351756533E+02  0.00000000000E+00 0.  1.
</event>
<event>
 4    1  0.1956828E-002  0.9118800E+02  0.7818608E-02  0.1130116E+00
         25   -1    0    0    0    0  0.00000000000E+00  0.00000000000E+00  0.99999998245E-14  0.12500000000E+03  0.12500000000E+03 0.  0.
        -11    1    1    0    0    0 -0.10446332168E+01 -0.37473696195E+01  0.26124847681E+02  0.26412907910E+02  0.51100000000E-03 0. -1.
         11    1    1    0    0    0 -0.14362446885E+01 -0.51175506768E+01  0.35693502351E+02  0.36087092348E+02  0.51100000000E-03 0.  1.
         22    1    1    0    0    0  0.24808779052E+01  0.88649202963E+01 -0.61818350033E+02  0.62499999742E+02  0.00000000000E+00 0.  1.
</event>
<event>
 4    1  0.1956828E-002  0.9118800E+02  0.7818608E-02  0.1130116E+00
         25   -1    0    0    0    0  0.00000000000E+00  0.00000000000E+00  0.99999998245E-14  0.12500000000E+03  0.12500000000E+03 0.  0.
        -11    1    1    0    0    0  0.44786653172E+01 -0.66387275290E+01  0.45009550897E+01  0.91863890189E+01  0.51100000000E-03 0.  1.
         11    1    1    0    0    0  0.27072598466E+02 -0.37502107260E+02  0.26517582372E+02  0.53315249335E+02  0.51100000000E-03 0. -1.
         22    1    1    0    0    0 -0.31551263783E+02  0.44140834789E+02 -0.31018537461E+02  0.62498361646E+02  0.00000000000E+00 0. -1.
</event>
<event>
 4    1  0.1956828E-002  0.9118800E+02  0.7818608E-02  0.1130116E+00
         25   -1    0    0    0    0  0.00000000000E+00  0.00000000000E+00  0.99999998245E-14  0.12500000000E+03  0.12500000000E+03 0.  0.
        -11    1    1    0    0    0 -0.27006968159E+01 -0.71595387603E+01  0.40143988322E+01  0.86410738219E+01  0.51100000000E-03 0. -1.
         11    1    1    0    0    0 -0.16913805814E+02 -0.44610737092E+02  0.24991793894E+02  0.53858931045E+02  0.51100000000E-03 0.  1.
         22    1    1    0    0    0  0.19614502630E+02  0.51770275852E+02 -0.29006192726E+02  0.62499995133E+02  0.00000000000E+00 0.  1.
</event>
<event>
 4    1  0.1956828E-002  0.9118800E+02  0.7818608E-02  0.1130116E+00
         25   -1    0    0    0    0  0.00000000000E+00  0.00000000000E+00  0.99999998245E-14  0.12500000000E+03  0.12500000000E+03 0.  0.
        -11    1    1    0    0    0  0.24454736418E+02  0.16495976752E+02 -0.29602879151E+02  0.41790930075E+02  0.51100000000E-03 0.  1.
         11    1    1    0    0    0  0.11091888616E+02  0.93534312427E+01 -0.14804466562E+02  0.20728938697E+02  0.51100000000E-03 0. -1.
         22    1    1    0    0    0 -0.35546625033E+02 -0.25849407995E+02  0.44407345713E+02  0.62480131227E+02  0.00000000000E+00 0. -1.
</event>
<event>
 4    1  0.1956828E-002  0.9118800E+02  0.7818608E-02  0.1130116E+00
         25   -1    0    0    0    0  0.00000000000E+00  0.00000000000E+00  0.99999998245E-14  0.12500000000E+03  0.12500000000E+03 0.  0.
        -11    1    1    0    0    0  0.35498825729E+02 -0.78429205413E+00  0.47277049804E+02  0.59126146336E+02  0.51100000000E-03 0. -1.
         11    1    1    0    0    0  0.20065700982E+01 -0.68577424718E-01  0.27115295590E+01  0.33739323100E+01  0.51100000000E-03 0.  1.
         22    1    1    0    0    0 -0.37505395827E+02  0.85286947885E+00 -0.49988579363E+02  0.62499921354E+02  0.00000000000E+00 0. -1.
</event>
<event>
 4    1  0.1956828E-002  0.9118800E+02  0.7818608E-02  0.1130116E+00
         25   -1    0    0    0    0  0.00000000000E+00  0.00000000000E+00  0.99999998245E-14  0.12500000000E+03  0.12500000000E+03 0.  0.
        -11    1    1    0    0    0  0.17623722810E+02 -0.13139756195E+02  0.29048218511E+02  0.36428667248E+02  0.51100000000E-03 0. -1.
         11    1    1    0    0    0  0.10762904049E+02 -0.15085476521E+02  0.18656605920E+02  0.26296019663E+02  0.51100000000E-03 0.  1.
         22    1    1    0    0    0 -0.28386626858E+02  0.28225232716E+02 -0.47704824431E+02  0.62275313089E+02  0.00000000000E+00 0.  1.
</event>
<event>
 4    1  0.1956828E-002  0.9118800E+02  0.7818608E-02  0.1130116E+00
         25   -1    0    0    0    0  0.00000000000E+00  0.00000000000E+00  0.99999998245E-14  0.12500000000E+03  0.12500000000E+03 0.  0.
        -11    1    1    0    0    0  0.87131614737E+01  0.35742232353E+01 -0.56089563989E+01  0.10961507503E+02  0.51100000000E-03 0.  1.
         11    1    1    0    0    0  0.52156877901E+02 -0.52820953561E+01 -0.31478573131E+01  0.52518086881E+02  0.51100000000E-03 0. -1.
         22    1    1    0    0    0 -0.60870039375E+02  0.17078721208E+01  0.87568137120E+01  0.61520405615E+02  0.00000000000E+00 0. -1.
</event>
<event>
 4    1  0.1956828E-002  0.9118800E+02  0.7818608E-02  0.1130116E+00
         25   -1    0    0    0    0  0.00000000000E+00  0.00000000000E+00  0.99999998245E-14  0.12500000000E+03  0.12500000000E+03 0.  0.
        -11    1    1    0    0    0 -0.29383441184E+02 -0.93218599121E+01  0.43951420020E+02  0.53684364671E+02  0.51100000000E-03 0. -1.
         11    1    1    0    0    0 -0.47980159098E+01 -0.14913321702E+01  0.72437338321E+01  0.88157080489E+01  0.51100000000E-03 0.  1.
         22    1    1    0    0    0  0.34181457094E+02  0.10813192082E+02 -0.51195153853E+02  0.62499927280E+02  0.00000000000E+00 0. -1.
</event>
<event>
 4    1  0.1956828E-002  0.9118800E+02  0.7818608E-02  0.1130116E+00
         25   -1    0    0    0    0  0.00000000000E+00  0.00000000000E+00  0.99999998245E-14  0.12500000000E+03  0.12500000000E+03 0.  0.
        -11    1    1    0    0    0  0.56590642987E+02  0.11162607337E+02  0.22961454118E+02  0.62083275137E+02  0.51100000000E-03 0. -1.
         11    1    1    0    0    0  0.36884027918E+00  0.24482871229E+00  0.25491210184E-01  0.44343467706E+00  0.51100000000E-03 0.  1.
         22    1    1    0    0    0 -0.56959483266E+02 -0.11407436049E+02 -0.22986945328E+02  0.62473290186E+02  0.00000000000E+00 0. -1.
</event>
<event>
 4    1  0.1956828E-002  0.9118800E+02  0.7818608E-02  0.1130116E+00
         25   -1    0    0    0    0  0.00000000000E+00  0.00000000000E+00  0.99999998245E-14  0.12500000000E+03  0.12500000000E+03 0.  0.
        -11    1    1    0    0    0 -0.26204727224E-01 -0.45978244250E+01  0.17466733673E+01  0.49184900370E+01  0.51100000000E-03 0.  1.
         11    1    1    0    0    0  0.34576362314E+02 -0.37485073109E+02  0.27852936149E+02  0.58107156093E+02  0.51100000000E-03 0. -1.
         22    1    1    0    0    0 -0.34550157586E+02  0.42082897534E+02 -0.29599609517E+02  0.61974353870E+02  0.00000000000E+00 0. -1.
</event>
<event>
 4    1  0.1956828E-002  0.9118800E+02  0.7818608E-02  0.1130116E+00
         25   -1    0    0    0    0  0.00000000000E+00  0.00000000000E+00  0.99999998245E-14  0.12500000000E+03  0.12500000000E+03 0.  0.
        -11    1    1    0    0    0 -0.34066167147E+02  0.37878266328E+02 -0.22408461168E+02  0.55654343373E+02  0.51100000000E-03 0.  1.
         11    1    1    0    0    0 -0.50069658421E+01 -0.22110361733E+02  0.27032452398E+01  0.22830798015E+02  0.51100000000E-03 0. -1.
         22    1    1    0    0    0  0.39073132989E+02 -0.15767904594E+02  0.19705215928E+02  0.46514858612E+02  0.00000000000E+00 0.  1.
</event>
<event>
 4    1  0.1956828E-002  0.9118800E+02  0.7818608E-02  0.1130116E+00
         25   -1    0    0    0    0  0.00000000000E+00  0.00000000000E+00  0.99999998245E-14  0.12500000000E+03  0.12500000000E+03 0.  0.
        -11    1    1    0    0    0 -0.50388704910E+02  0.13386860929E+01  0.29997177053E+02  0.58657005501E+02  0.51100000000E-03 0. -1.
         11    1    1    0    0    0 -0.33642454832E+01 -0.73247222308E+00  0.18014018978E+01  0.38858348250E+01  0.51100000000E-03 0.  1.
         22    1    1    0    0    0  0.53752950393E+02 -0.60621386985E+00 -0.31798578951E+02  0.62457159674E+02  0.00000000000E+00 0. -1.
</event>
<event>
 4    1  0.1956828E-002  0.9118800E+02  0.7818608E-02  0.1130116E+00
         25   -1    0    0    0    0  0.00000000000E+00  0.00000000000E+00  0.99999998245E-14  0.12500000000E+03  0.12500000000E+03 0.  0.
        -11    1    1    0    0    0  0.65212479178E+01  0.10613442392E+02  0.10710779203E+02  0.16428409089E+02  0.51100000000E-03 0.  1.
         11    1    1    0    0    0  0.31360174603E+02  0.19013206261E+02  0.28560663820E+02  0.46483051552E+02  0.51100000000E-03 0. -1.
         22    1    1    0    0    0 -0.37881422521E+02 -0.29626648653E+02 -0.39271443023E+02  0.62088539359E+02  0.00000000000E+00 0.  1.
</event>
<event>
 4    1  0.1956828E-002  0.9118800E+02  0.7818608E-02  0.1130116E+00
         25   -1    0    0    0    0  0.00000000000E+00  0.00000000000E+00  0.99999998245E-14  0.12500000000E+03  0.12500000000E+03 0.  0.
        -11    1    1    0    0    0  0.35578490083E+02  0.48333964735E+02 -0.42895429372E+00  0.60018206451E+02  0.51100000000E-03 0. -1.
         11    1    1    0    0    0  0.14718406692E+01  0.19981672359E+01 -0.17667673788E-01  0.24817936389E+01  0.51100000000E-03 0. -1.
         22    1    1    0    0    0 -0.37050330752E+02 -0.50332131971E+02  0.44662196751E+00  0.62499999910E+02  0.00000000000E+00 0. -1.
</event>
<event>
 4    1  0.1956828E-002  0.9118800E+02  0.7818608E-02  0.1130116E+00
         25   -1    0    0    0    0  0.00000000000E+00  0.00000000000E+00  0.99999998245E-14  0.12500000000E+03  0.12500000000E+03 0.  0.
        -11    1    1    0    0    0  0.38264382884E+02 -0.63919229988E+01  0.21311457892E+02  0.44262827687E+02  0.51100000000E-03 0.  1.
         11    1    1    0    0    0  0.16103648042E+02 -0.24524932874E+01  0.82109255246E+01  0.18241751610E+02  0.51100000000E-03 0. -1.
         22    1    1    0    0    0 -0.54368030926E+02  0.88444162862E+01 -0.29522383417E+02  0.62495420703E+02  0.00000000000E+00 0.  1.
</event>
<event>
 4    1  0.1956828E-002  0.9118800E+02  0.7818608E-02  0.1130116E+00
         25   -1    0    0    0    0  0.00000000000E+00  0.00000000000E+00  0.99999998245E-14  0.12500000000E+03  0.12500000000E+03 0.  0.
        -11    1    1    0    0    0  0.18571234064E+02  0.10618642842E+02 -0.17161364957E+01  0.21461394065E+02  0.51100000000E-03 0.  1.
         11    1    1    0    0    0  0.35452924764E+02  0.20350593519E+02 -0.36237692056E+01  0.41038862490E+02  0.51100000000E-03 0. -1.
         22    1    1    0    0    0 -0.54024158828E+02 -0.30969236361E+02  0.53399057012E+01  0.62499743446E+02  0.00000000000E+00 0. -1.
</event>
<event>
 4    1  0.1956828E-002  0.9118800E+02  0.7818608E-02  0.1130116E+00
         25   -1    0    0    0    0  0.00000000000E+00  0.00000000000E+00  0.99999998245E-14  0.12500000000E+03  0.12500000000E+03 0.  0.
        -11    1    1    0    0    0  0.32644716068E+01 -0.29372074387E+02  0.22569110634E+02  0.37185215930E+02  0.51100000000E-03 0.  1.
         11    1    1    0    0    0  0.22205930887E+01 -0.19996664446E+02  0.15363615174E+02  0.25314784102E+02  0.51100000000E-03 0. -1.
         22    1    1    0    0    0 -0.54850646955E+01  0.49368738834E+02 -0.37932725809E+02  0.62499999968E+02  0.00000000000E+00 0.  1.
</event>
<event>
 4    1  0.1956828E-002  0.9118800E+02  0.7818608E-02  0.1130116E+00
         25   -1    0    0    0    0  0.00000000000E+00  0.00000000000E+00  0.99999998245E-14  0.12500000000E+03  0.12500000000E+03 0.  0.
        -11    1    1    0    0    0 -0.12541237461E+02  0.12998551496E+02 -0.23692775360E+02  0.29792492051E+02  0.51100000000E-03 0. -1.
         11    1    1    0    0    0 -0.19584915089E+02  0.13796563140E+02 -0.22514862480E+02  0.32876026010E+02  0.51100000000E-03 0.  1.
         22    1    1    0    0    0  0.32126152550E+02 -0.26795114636E+02  0.46207637840E+02  0.62331481939E+02  0.00000000000E+00 0.  1.
</event>
<event>
 4    1  0.1956828E-002  0.9118800E+02  0.7818608E-02  0.1130116E+00
         25   -1    0    0    0    0  0.00000000000E+00  0.00000000000E+00  0.99999998245E-14  0.12500000000E+03  0.12500000000E+03 0.  0.
        -11    1    1    0    0    0  0.38189068858E+01  0.13365351245E+02  0.48489776063E+01  0.14721727065E+02  0.51100000000E-03 0.  1.
         11    1    1    0    0    0  0.12348022447E+02  0.43395090961E+02  0.15721199286E+02  0.47778276288E+02  0.51100000000E-03 0. -1.
         22    1    1    0    0    0 -0.16166929333E+02 -0.56760442205E+02 -0.20570176892E+02  0.62499996646E+02  0.00000000000E+00 0. -1.
</event>
<event>
 4    1  0.1956828E-002  0.9118800E+02  0.7818608E-02  0.1130116E+00
         25   -1    0    0    0    0  0.00000000000E+00  0.00000000000E+00  0.99999998245E-14  0.12500000000E+03  0.12500000000E+03 0.  0.
        -11    1    1    0    0    0 -0.21858021864E+01  0.47117128059E+01 -0.50009300191E+01  0.72102198358E+01  0.51100000000E-03 0.  1.
         11    1    1    0    0    0 -0.16762370031E+02  0.36131120671E+02 -0.38347423142E+02  0.55289780176E+02  0.51100000000E-03 0.  1.
         22    1    1    0    0    0  0.18948172217E+02 -0.40842833477E+02  0.43348353161E+02  0.62499999989E+02  0.00000000000E+00 0.  1.
</event>
<event>
 4    1  0.1956828E-002  0.9118800E+02  0.7818608E-02  0.1130116E+00
         25   -1    0    0    0    0  0.00000000000E+00  0.00000000000E+00  0.99999998245E-14  0.12500000000E+03  0.12500000000E+03 0.  0.
        -11    1    1    0    0    0  0.38557104949E+02 -0.72082747025E+01  0.12920796038E+02  0.41298384190E+02  0.51100000000E-03 0. -1.
         11    1    1    0    0    0  0.19793781729E+02 -0.37005776221E+01  0.66347904187E+01  0.21201615835E+02  0.51100000000E-03 0.  1.
         22    1    1    0    0    0 -0.58350886678E+02  0.10908852325E+02 -0.19555586456E+02  0.62499999974E+02  0.00000000000E+00 0. -1.
</event>
<event>
 4    1  0.1956828E-002  0.9118800E+02  0.7818608E-02  0.1130116E+00
         25   -1    0    0    0    0  0.00000000000E+00  0.00000000000E+00  0.99999998245E-14  0.12500000000E+03  0.12500000000E+03 0.  0.
        -11    1    1    0    0    0 -0.10409390297E+02 -0.12901695732E+02  0.71598109628E+01  0.18057465282E+02  0.51100000000E-03 0.  1.
         11    1    1    0    0    0 -0.25916295213E+02 -0.31328538632E+02  0.17946064263E+02  0.44443142477E+02  0.51100000000E-03 0. -1.
         22    1    1    0    0    0  0.36325685510E+02  0.44230234364E+02 -0.25105875226E+02  0.62499392242E+02  0.00000000000E+00 0. -1.
</event>
<event>
 4    1  0.1956828E-002  0.9118800E+02  0.7818608E-02  0.1130116E+00
         25   -1    0    0    0    0  0.00000000000E+00  0.00000000000E+00  0.99999998245E-14  0.12500000000E+03  0.12500000000E+03 0.  0.
        -11    1    1    0    0    0 -0.44817406525E+01 -0.21533105770E+01  0.36802129538E+02  0.37136498011E+02  0.51100000000E-03 0.  1.
         11    1    1    0    0    0 -0.30649424569E+01 -0.14763777774E+01  0.25134312884E+02  0.25363502282E+02  0.51100000000E-03 0. -1.
         22    1    1    0    0    0  0.75466831094E+01  0.36296883544E+01 -0.61936442422E+02  0.62499999707E+02  0.00000000000E+00 0.  1.
</event>
<event>
 4    1  0.1956828E-002  0.9118800E+02  0.7818608E-02  0.1130116E+00
         25   -1    0    0    0    0  0.00000000000E+00  0.00000000000E+00  0.99999998245E-14  0.12500000000E+03  0.12500000000E+03 0.  0.
        -11    1    1    0    0    0 -0.25302489559E+01  0.53166053657E+01  0.56685789635E+01  0.81732025620E+01  0.51100000000E-03 0. -1.
         11    1    1    0    0    0  0.10943558690E+01  0.53973295829E+02 -0.16687126151E+02  0.56504641021E+02  0.51100000000E-03 0.  1.
         22    1    1    0    0    0  0.14358930870E+01 -0.59289901195E+02  0.11018547187E+02  0.60322156417E+02  0.00000000000E+00 0.  1.
</event>
<event>
 4    1  0.1956828E-002  0.9118800E+02  0.7818608E-02  0.1130116E+00
         25   -1    0    0    0    0  0.00000000000E+00  0.00000000000E+00  0.99999998245E-14  0.12500000000E+03  0.12500000000E+03 0.  0.
        -11    1    1    0    0    0  0.12864496282E+02  0.27507117328E+02  0.36529428323E+02  0.47503009400E+02  0.51100000000E-03 0.  1.
         11    1    1    0    0    0  0.40585735131E+01  0.86735252141E+01  0.11541565977E+02  0.14996993168E+02  0.51100000000E-03 0. -1.
         22    1    1    0    0    0 -0.16923069795E+02 -0.36180642542E+02 -0.48070994300E+02  0.62499997432E+02  0.00000000000E+00 0.  1.
</event>
<event>
 4    1  0.1956828E-002  0.9118800E+02  0.7818608E-02  0.1130116E+00
         25   -1    0    0    0    0  0.00000000000E+00  0.00000000000E+00  0.99999998245E-14  0.12500000000E+03  0.12500000000E+03 0.  0.
        -11    1    1    0    0    0 -0.15691385046E+02 -0.20034775464E+02  0.43082458743E+02  0.50037086688E+02  0.51100000000E-03 0. -1.
         11    1    1    0    0    0 -0.39079936027E+01 -0.49909970447E+01  0.10730412061E+02  0.12462913334E+02  0.51100000000E-03 0. -1.
         22    1    1    0    0    0  0.19599378648E+02  0.25025772509E+02 -0.53812870805E+02  0.62499999979E+02  0.00000000000E+00 0. -1.
</event>
<event>
 4    1  0.1956828E-002  0.9118800E+02  0.7818608E-02  0.1130116E+00
         25   -1    0    0    0    0  0.00000000000E+00  0.00000000000E+00  0.99999998245E-14  0.12500000000E+03  0.12500000000E+03 0.  0.
        -11    1    1    0    0    0 -0.32850421089E+00 -0.41727510392E+01  0.59171455595E+00  0.42272795778E+01  0.51100000000E-03 0.  1.
         11    1    1    0    0    0 -0.45350185030E+01 -0.57525974780E+02  0.81182407140E+01  0.58272720889E+02  0.51100000000E-03 0. -1.
         22    1    1    0    0    0  0.48635227139E+01  0.61698725819E+02 -0.87099552699E+01  0.62499999534E+02  0.00000000000E+00 0. -1.
</event>
<event>
 4    1  0.1956828E-002  0.9118800E+02  0.7818608E-02  0.1130116E+00
         25   -1    0    0    0    0  0.00000000000E+00  0.00000000000E+00  0.99999998245E-14  0.12500000000E+03  0.12500000000E+03 0.  0.
        -11    1    1    0    0    0 -0.46463813913E+01  0.15207842652E+01  0.35334487682E+01  0.60321559391E+01  0.51100000000E-03 0. -1.
         11    1    1    0    0    0 -0.43541149040E+02  0.14243917092E+02  0.33013586272E+02  0.56467846715E+02  0.51100000000E-03 0.  1.
         22    1    1    0    0    0  0.48187530431E+02 -0.15764701358E+02 -0.36547035040E+02  0.62499997346E+02  0.00000000000E+00 0.  1.
</event>
<event>
 4    1  0.1956828E-002  0.9118800E+02  0.7818608E-02  0.1130116E+00
         25   -1    0    0    0    0  0.00000000000E+00  0.00000000000E+00  0.99999998245E-14  0.12500000000E+03  0.12500000000E+03 0.  0.
        -11    1    1    0    0    0 -0.24246439061E+01 -0.56460819243E+01  0.11101501819E+02  0.12688596537E+02  0.51100000000E-03 0. -1.
         11    1    1    0    0    0 -0.94539390450E+01 -0.22186228212E+02  0.43584064738E+02  0.49811408182E+02  0.51100000000E-03 0.  1.
         22    1    1    0    0    0  0.11878582951E+02  0.27832310136E+02 -0.54685566558E+02  0.62499995281E+02  0.00000000000E+00 0.  1.
</event>
<event>
 4    1  0.1956828E-002  0.9118800E+02  0.7818608E-02  0.1130116E+00
         25   -1    0    0    0    0  0.00000000000E+00  0.00000000000E+00  0.99999998245E-14  0.12500000000E+03  0.12500000000E+03 0.  0.
        -11    1    1    0    0    0  0.41249818146E+02 -0.12329483975E+02  0.18571012169E+02  0.46887590740E+02  0.51100000000E-03 0.  1.
         11    1    1    0    0    0  0.36687286944E+01 -0.20028237013E+02 -0.28220895088E+01  0.20556119223E+02  0.51100000000E-03 0. -1.
         22    1    1    0    0    0 -0.44918546841E+02  0.32357720988E+02 -0.15748922660E+02  0.57556290036E+02  0.00000000000E+00 0. -1.
</event>
<event>
 4    1  0.1956828E-002  0.9118800E+02  0.7818608E-02  0.1130116E+00
         25   -1    0    0    0    0  0.00000000000E+00  0.00000000000E+00  0.99999998245E-14  0.12500000000E+03  0.12500000000E+03 0.  0.
        -11    1    1    0    0    0  0.95878036018E+01 -0.57418426559E+02  0.16304029076E+02  0.60453478401E+02  0.51100000000E-03 0.  1.
         11    1    1    0    0    0  0.32932099172E+00 -0.19462708030E+01  0.54028487767E+00  0.20465410732E+01  0.51100000000E-03 0. -1.
         22    1    1    0    0    0 -0.99171245935E+01  0.59364697362E+02 -0.16844313954E+02  0.62499980525E+02  0.00000000000E+00 0.  1.
</event>
<event>
 4    1  0.1956828E-002  0.9118800E+02  0.7818608E-02  0.1130116E+00
         25   -1    0    0    0    0  0.00000000000E+00  0.00000000000E+00  0.99999998245E-14  0.12500000000E+03  0.12500000000E+03 0.  0.
        -11    1    1    0    0    0 -0.23459703588E+00  0.34981256046E+02 -0.34636961891E+02  0.49228674973E+02  0.51100000000E-03 0.  1.
         11    1    1    0    0    0 -0.41370465264E+01  0.15825576264E+02  0.95315758416E+01  0.18931850315E+02  0.51100000000E-03 0. -1.
         22    1    1    0    0    0  0.43716435623E+01 -0.50806832311E+02  0.25105386049E+02  0.56839474712E+02  0.00000000000E+00 0.  1.
</event>
<event>
 4    1  0.1956828E-002  0.9118800E+02  0.7818608E-02  0.1130116E+00
         25   -1    0    0    0    0  0.00000000000E+00  0.00000000000E+00  0.99999998245E-14  0.12500000000E+03  0.12500000000E+03 0.  0.
        -11    1    1    0    0    0  0.28230259437E+02  0.31037022008E+02 -0.38115508912E+02  0.56683651108E+02  0.51100000000E-03 0.  1.
         11    1    1    0    0    0  0.28919728691E+01  0.31909393523E+01 -0.39095194199E+01  0.58163513805E+01  0.51100000000E-03 0. -1.
         22    1    1    0    0    0 -0.31122232307E+02 -0.34227961360E+02  0.42025028332E+02  0.62499997512E+02  0.00000000000E+00 0.  1.
</event>
<event>
 4    1  0.1956828E-002  0.9118800E+02  0.7818608E-02  0.1130116E+00
         25   -1    0    0    0    0  0.00000000000E+00  0.00000000000E+00  0.99999998245E-14  0.12500000000E+03  0.12500000000E+03 0.  0.
        -11    1    1    0    0    0 -0.23583187556E+00 -0.78022935184E+01 -0.44987827477E+01  0.90094643178E+01  0.51100000000E-03 0. -1.
         11    1    1    0    0    0 -0.14475659004E+01 -0.46318868191E+02 -0.26715249879E+02  0.53490537237E+02  0.51100000000E-03 0.  1.
         22    1    1    0    0    0  0.16833977759E+01  0.54121161709E+02  0.31214032627E+02  0.62499998445E+02  0.00000000000E+00 0.  1.
</event>
<event>
 4    1  0.1956828E-002  0.9118800E+02  0.7818608E-02  0.1130116E+00
         25   -1    0    0    0    0  0.00000000000E+00  0.00000000000E+00  0.99999998245E-14  0.12500000000E+03  0.12500000000E+03 0.  0.
        -11    1    1    0    0    0  0.87400601154E+00  0.20212493848E+02 -0.70915292109E+01  0.21438250416E+02  0.51100000000E-03 0. -1.
         11    1    1    0    0    0  0.16667766776E+01  0.38713326168E+02 -0.13585563000E+02  0.41061749716E+02  0.51100000000E-03 0.  1.
         22    1    1    0    0    0 -0.25407826892E+01 -0.58925820016E+02  0.20677092211E+02  0.62499999868E+02  0.00000000000E+00 0.  1.
</event>
<event>
 4    1  0.1956828E-002  0.9118800E+02  0.7818608E-02  0.1130116E+00
         25   -1    0    0    0    0  0.00000000000E+00  0.00000000000E+00  0.99999998245E-14  0.12500000000E+03  0.12500000000E+03 0.  0.
        -11    1    1    0    0    0  0.15306297858E+02  0.33376665961E+02 -0.31500826450E+02  0.48379609879E+02  0.51100000000E-03 0. -1.
         11    1    1    0    0    0  0.46756331674E+01  0.95411619367E+01 -0.93019854508E+01  0.14121694311E+02  0.51100000000E-03 0.  1.
         22    1    1    0    0    0 -0.19981931025E+02 -0.42917827897E+02  0.40802811901E+02  0.62498695810E+02  0.00000000000E+00 0. -1.
</event>
<event>
 4    1  0.1956828E-002  0.9118800E+02  0.7818608E-02  0.1130116E+00
         25   -1    0    0    0    0  0.00000000000E+00  0.00000000000E+00  0.99999998245E-14  0.12500000000E+03  0.12500000000E+03 0.  0.
        -11    1    1    0    0    0  0.97923287182E+01  0.38342955817E+02 -0.57954424747E+01  0.39995738726E+02  0.51100000000E-03 0.  1.
         11    1    1    0    0    0  0.59685107783E+01  0.21566104451E+02 -0.24494572666E+01  0.22510438095E+02  0.51100000000E-03 0. -1.
         22    1    1    0    0    0 -0.15760839496E+02 -0.59909060267E+02  0.82448997413E+01  0.62493823179E+02  0.00000000000E+00 0.  1.
</event>
<event>
 4    1  0.1956828E-002  0.9118800E+02  0.7818608E-02  0.1130116E+00
         25   -1    0    0    0    0  0.00000000000E+00  0.00000000000E+00  0.99999998245E-14  0.12500000000E+03  0.12500000000E+03 0.  0.
        -11    1    1    0    0    0  0.16898965698E+01 -0.25478280753E+01  0.23780973941E+01  0.38733094112E+01  0.51100000000E-03 0.  1.
         11    1    1    0    0    0  0.41487516955E+02 -0.32118534546E+02  0.26387026698E+02  0.58728949443E+02  0.51100000000E-03 0. -1.
         22    1    1    0    0    0 -0.43177413524E+02  0.34666362622E+02 -0.28765124092E+02  0.62397741146E+02  0.00000000000E+00 0. -1.
</event>
<event>
 4    1  0.1956828E-002  0.9118800E+02  0.7818608E-02  0.1130116E+00
         25   -1    0    0    0    0  0.00000000000E+00  0.00000000000E+00  0.99999998245E-14  0.12500000000E+03  0.12500000000E+03 0.  0.
        -11    1    1    0    0    0 -0.21382076914E+01  0.56699646242E+01  0.81415059461E+01  0.10149115740E+02  0.51100000000E-03 0. -1.
         11    1    1    0    0    0 -0.11048698009E+02  0.29227244182E+02  0.42003685794E+02  0.52350884908E+02  0.51100000000E-03 0.  1.
         22    1    1    0    0    0  0.13186905700E+02 -0.34897208806E+02 -0.50145191740E+02  0.62499999352E+02  0.00000000000E+00 0.  1.
</event>
<event>
 4    1  0.1956828E-002  0.9118800E+02  0.7818608E-02  0.1130116E+00
         25   -1    0    0    0    0  0.00000000000E+00  0.00000000000E+00  0.99999998245E-14  0.12500000000E+03  0.12500000000E+03 0.  0.
        -11    1    1    0    0    0 -0.25736683569E+02  0.11145075652E+02 -0.17659057209E+02  0.33142599388E+02  0.51100000000E-03 0.  1.
         11    1    1    0    0    0 -0.22749062553E+02  0.99376405184E+01 -0.15671068813E+02  0.29357434222E+02  0.51100000000E-03 0. -1.
         22    1    1    0    0    0  0.48485746122E+02 -0.21082716171E+02  0.33330126021E+02  0.62499966390E+02  0.00000000000E+00 0.  1.
</event>
<event>
 4    1  0.1956828E-002  0.9118800E+02  0.7818608E-02  0.1130116E+00
         25   -1    0    0    0    0  0.00000000000E+00  0.00000000000E+00  0.99999998245E-14  0.12500000000E+03  0.12500000000E+03 0.  0.
        -11    1    1    0    0    0  0.46477378174E+02 -0.79267705833E+01  0.53459603311E+01  0.47450602377E+02  0.51100000000E-03 0.  1.
         11    1    1    0    0    0  0.14741031124E+02 -0.25212159546E+01  0.16822386079E+01  0.15049400503E+02  0.51100000000E-03 0. -1.
         22    1    1    0    0    0 -0.61218409298E+02  0.10447986538E+02 -0.70281989390E+01  0.62499997120E+02  0.00000000000E+00 0.  1.
</event>
<event>
 4    1  0.1956828E-002  0.9118800E+02  0.7818608E-02  0.1130116E+00
         25   -1    0    0    0    0  0.00000000000E+00  0.00000000000E+00  0.99999998245E-14  0.12500000000E+03  0.12500000000E+03 0.  0.
        -11    1    1    0    0    0 -0.57929932398E+02 -0.81094633205E+00 -0.21805919280E+02  0.61903415232E+02  0.51100000000E-03 0. -1.
         11    1    1    0    0    0 -0.55532290716E+00  0.11248007961E-01 -0.21821960550E+00  0.59676637493E+00  0.51100000000E-03 0.  1.
         22    1    1    0    0    0  0.58485255305E+02  0.79969832409E+00  0.22024138885E+02  0.62499818393E+02  0.00000000000E+00 0. -1.
</event>
<event>
 4    1  0.1956828E-002  0.9118800E+02  0.7818608E-02  0.1130116E+00
         25   -1    0    0    0    0  0.00000000000E+00  0.00000000000E+00  0.99999998245E-14  0.12500000000E+03  0.12500000000E+03 0.  0.
        -11    1    1    0    0    0  0.18451918304E+01  0.16877562852E+01  0.70022760745E+00  0.25968390656E+01  0.51100000000E-03 0. -1.
         11    1    1    0    0    0  0.37532113500E+02  0.42894763191E+02  0.18458906034E+02  0.59911196493E+02  0.51100000000E-03 0.  1.
         22    1    1    0    0    0 -0.39377305330E+02 -0.44582519476E+02 -0.19159133641E+02  0.62491964442E+02  0.00000000000E+00 0.  1.
</event>
<event>
 4    1  0.1956828E-002  0.9118800E+02  0.7818608E-02  0.1130116E+00
         25   -1    0    0    0    0  0.00000000000E+00  0.00000000000E+00  0.99999998245E-14  0.12500000000E+03  0.12500000000E+03 0.  0.
        -11    1    1    0    0    0  0.17837569269E+02 -0.98175570722E+01 -0.13150581342E+02  0.24238421859E+02  0.51100000000E-03 0.  1.
         11    1    1    0    0    0  0.28175576170E+02 -0.15487711726E+02 -0.20741653604E+02  0.38261579967E+02  0.51100000000E-03 0. -1.
         22    1    1    0    0    0 -0.46013145440E+02  0.25305268799E+02  0.33892234946E+02  0.62499998175E+02  0.00000000000E+00 0. -1.
</event>
<event>
 4    1  0.1956828E-002  0.9118800E+02  0.7818608E-02  0.1130116E+00
         25   -1    0    0    0    0  0.00000000000E+00  0.00000000000E+00  0.99999998245E-14  0.12500000000E+03  0.12500000000E+03 0.  0.
        -11    1    1    0    0    0 -0.13365121816E+02  0.63385714949E+01  0.80881460889E+01  0.16858887187E+02  0.51100000000E-03 0.  1.
         11    1    1    0    0    0 -0.36227390459E+02  0.16827900504E+02  0.22080054675E+02  0.45641328525E+02  0.51100000000E-03 0. -1.
         22    1    1    0    0    0  0.49592512276E+02 -0.23166471998E+02 -0.30168200764E+02  0.62499784288E+02  0.00000000000E+00 0. -1.
</event>
<event>
 4    1  0.1956828E-002  0.9118800E+02  0.7818608E-02  0.1130116E+00
         25   -1    0    0    0    0  0.00000000000E+00  0.00000000000E+00  0.99999998245E-14  0.12500000000E+03  0.12500000000E+03 0.  0.
        -11    1    1    0    0    0 -0.97749269981E+01 -0.34748332970E+01 -0.13788194199E+02  0.17255085157E+02  0.51100000000E-03 0. -1.
         11    1    1    0    0    0 -0.25584103475E+02 -0.90137612369E+01 -0.36212016759E+02  0.45244937841E+02  0.51100000000E-03 0.  1.
         22    1    1    0    0    0  0.35359030473E+02  0.12488594534E+02  0.50000210958E+02  0.62499977002E+02  0.00000000000E+00 0.  1.
</event>
<event>
 4    1  0.1956828E-002  0.9118800E+02  0.7818608E-02  0.1130116E+00
         25   -1    0    0    0    0  0.00000000000E+00  0.00000000000E+00  0.99999998245E-14  0.12500000000E+03  0.12500000000E+03 0.  0.
        -11    1    1    0    0    0 -0.35539831903E+02 -0.15547629959E+02  0.13307819050E+02  0.41011053354E+02  0.51100000000E-03 0.  1.
         11    1    1    0    0    0 -0.13676684515E+02 -0.42059076900E+01  0.17540741734E+02  0.22636673335E+02  0.51100000000E-03 0. -1.
         22    1    1    0    0    0  0.49216516418E+02  0.19753537649E+02 -0.30848560784E+02  0.61352273311E+02  0.00000000000E+00 0.  1.
</event>
<event>
 4    1  0.1956828E-002  0.9118800E+02  0.7818608E-02  0.1130116E+00
         25   -1    0    0    0    0  0.00000000000E+00  0.00000000000E+00  0.99999998245E-14  0.12500000000E+03  0.12500000000E+03 0.  0.
        -11    1    1    0    0    0 -0.24129210469E+01  0.12319246829E+02  0.72066921541E+01  0.14474890068E+02  0.51100000000E-03 0.  1.
         11    1    1    0    0    0 -0.10337693640E+02  0.39078863188E+02  0.25959091901E+02  0.48040606891E+02  0.51100000000E-03 0. -1.
         22    1    1    0    0    0  0.12750614687E+02 -0.51398110017E+02 -0.33165784055E+02  0.62484503041E+02  0.00000000000E+00 0. -1.
</event>
<event>
 4    1  0.1956828E-002  0.9118800E+02  0.7818608E-02  0.1130116E+00
         25   -1    0    0    0    0  0.00000000000E+00  0.00000000000E+00  0.99999998245E-14  0.12500000000E+03  0.12500000000E+03 0.  0.
        -11    1    1    0    0    0 -0.15692530221E+01  0.40062527171E+01  0.42278330552E+02  0.42496703995E+02  0.51100000000E-03 0. -1.
         11    1    1    0    0    0 -0.73687616847E+00  0.18878227175E+01  0.19900376691E+02  0.20003296073E+02  0.51100000000E-03 0. -1.
         22    1    1    0    0    0  0.23061291906E+01 -0.58940754346E+01 -0.62178707243E+02  0.62499999932E+02  0.00000000000E+00 0. -1.
</event>
<event>
 4    1  0.1956828E-002  0.9118800E+02  0.7818608E-02  0.1130116E+00
         25   -1    0    0    0    0  0.00000000000E+00  0.00000000000E+00  0.99999998245E-14  0.12500000000E+03  0.12500000000E+03 0.  0.
        -11    1    1    0    0    0 -0.45974043438E+02  0.29487417717E+02 -0.18531164905E+02  0.57676030955E+02  0.51100000000E-03 0. -1.
         11    1    1    0    0    0 -0.38427105185E+01  0.24693102005E+01 -0.15513762612E+01  0.48239698963E+01  0.51100000000E-03 0.  1.
         22    1    1    0    0    0  0.49816753957E+02 -0.31956727917E+02  0.20082541166E+02  0.62499999149E+02  0.00000000000E+00 0. -1.
</event>
<event>
 4    1  0.1956828E-002  0.9118800E+02  0.7818608E-02  0.1130116E+00
         25   -1    0    0    0    0  0.00000000000E+00  0.00000000000E+00  0.99999998245E-14  0.12500000000E+03  0.12500000000E+03 0.  0.
        -11    1    1    0    0    0  0.86580404197E+01 -0.55792058070E+00 -0.33531322265E+01  0.93014211426E+01  0.51100000000E-03 0.  1.
         11    1    1    0    0    0  0.49412807514E+02 -0.29524428223E+01 -0.19487394004E+02  0.53198693502E+02  0.51100000000E-03 0. -1.
         22    1    1    0    0    0 -0.58070847933E+02  0.35103634030E+01  0.22840526230E+02  0.62499885355E+02  0.00000000000E+00 0. -1.
</event>
<event>
 4    1  0.1956828E-002  0.9118800E+02  0.7818608E-02  0.1130116E+00
         25   -1    0    0    0    0  0.00000000000E+00  0.00000000000E+00  0.99999998245E-14  0.12500000000E+03  0.12500000000E+03 0.  0.
        -11    1    1    0    0    0 -0.80601997422E+01 -0.25180438724E+01 -0.16785664926E+02  0.18790048219E+02  0.51100000000E-03 0. -1.
         11    1    1    0    0    0 -0.19319251434E+02 -0.34752983690E+01 -0.39065978425E+02  0.43720268129E+02  0.51100000000E-03 0.  1.
         22    1    1    0    0    0  0.27379451176E+02  0.59933422414E+01  0.55851643351E+02  0.62489683652E+02  0.00000000000E+00 0.  1.
</event>
<event>
 4    1  0.1956828E-002  0.9118800E+02  0.7818608E-02  0.1130116E+00
         25   -1    0    0    0    0  0.00000000000E+00  0.00000000000E+00  0.99999998245E-14  0.12500000000E+03  0.12500000000E+03 0.  0.
        -11    1    1    0    0    0  0.44992219480E+00 -0.59040944646E+00 -0.63637492629E+00  0.97774567438E+00  0.51100000000E-03 0.  1.
         11    1    1    0    0    0  0.28246384411E+02 -0.37301270035E+02 -0.39946778206E+02  0.61522256687E+02  0.51100000000E-03 0. -1.
         22    1    1    0    0    0 -0.28696306605E+02  0.37891679481E+02  0.40583153133E+02  0.62499997639E+02  0.00000000000E+00 0. -1.
</event>
<event>
 4    1  0.1956828E-002  0.9118800E+02  0.7818608E-02  0.1130116E+00
         25   -1    0    0    0    0  0.00000000000E+00  0.00000000000E+00  0.99999998245E-14  0.12500000000E+03  0.12500000000E+03 0.  0.
        -11    1    1    0    0    0  0.20783462392E+02  0.25844453805E+02 -0.15666545176E+02  0.36678723253E+02  0.51100000000E-03 0.  1.
         11    1    1    0    0    0  0.14653251620E+02  0.18580371511E+02 -0.10342749524E+02  0.25824803126E+02  0.51100000000E-03 0. -1.
         22    1    1    0    0    0 -0.35436714012E+02 -0.44424825315E+02  0.26009294700E+02  0.62496473621E+02  0.00000000000E+00 0. -1.
</event>
<event>
 4    1  0.1956828E-002  0.9118800E+02  0.7818608E-02  0.1130116E+00
         25   -1    0    0    0    0  0.00000000000E+00  0.00000000000E+00  0.99999998245E-14  0.12500000000E+03  0.12500000000E+03 0.  0.
        -11    1    1    0    0    0  0.39114035350E-01  0.14572668602E+01  0.86681998004E+00  0.16960347132E+01  0.51100000000E-03 0. -1.
         11    1    1    0    0    0  0.13793434114E+01  0.52254720559E+02  0.31059037377E+02  0.60803965430E+02  0.51100000000E-03 0. -1.
         22    1    1    0    0    0 -0.14184574467E+01 -0.53711987419E+02 -0.31925857357E+02  0.62499999857E+02  0.00000000000E+00 0. -1.
</event>
<event>
 4    1  0.1956828E-002  0.9118800E+02  0.7818608E-02  0.1130116E+00
         25   -1    0    0    0    0  0.00000000000E+00  0.00000000000E+00  0.99999998245E-14  0.12500000000E+03  0.12500000000E+03 0.  0.
        -11    1    1    0    0    0  0.24473604040E+02 -0.26610739561E+02  0.16918280194E+02  0.39916374581E+02  0.51100000000E-03 0. -1.
         11    1    1    0    0    0  0.13839497774E+02 -0.15059422719E+02  0.95761292637E+01  0.22583625998E+02  0.51100000000E-03 0.  1.
         22    1    1    0    0    0 -0.38313101815E+02  0.41670162280E+02 -0.26494409458E+02  0.62499999421E+02  0.00000000000E+00 0. -1.
</event>
<event>
 4    1  0.1956828E-002  0.9118800E+02  0.7818608E-02  0.1130116E+00
         25   -1    0    0    0    0  0.00000000000E+00  0.00000000000E+00  0.99999998245E-14  0.12500000000E+03  0.12500000000E+03 0.  0.
        -11    1    1    0    0    0  0.35873094755E+02 -0.43896949252E+02 -0.31807722186E+01  0.56779735761E+02  0.51100000000E-03 0.  1.
         11    1    1    0    0    0  0.77306816077E+00 -0.52020674289E+01 -0.38970737318E+01  0.65457103395E+01  0.51100000000E-03 0. -1.
         22    1    1    0    0    0 -0.36646162916E+02  0.49099016681E+02  0.70778459503E+01  0.61674553900E+02  0.00000000000E+00 0.  1.
</event>
<event>
 4    1  0.1956828E-002  0.9118800E+02  0.7818608E-02  0.1130116E+00
         25   -1    0    0    0    0  0.00000000000E+00  0.00000000000E+00  0.99999998245E-14  0.12500000000E+03  0.12500000000E+03 0.  0.
        -11    1    1    0    0    0  0.54468069392E+02  0.15522935747E+02  0.88856583332E+01  0.57329634935E+02  0.51100000000E-03 0. -1.
         11    1    1    0    0    0  0.49138124433E+01  0.13920635657E+01  0.80580380861E+00  0.51703688203E+01  0.51100000000E-03 0.  1.
         22    1    1    0    0    0 -0.59381881836E+02 -0.16914999312E+02 -0.96914621418E+01  0.62499996244E+02  0.00000000000E+00 0. -1.
</event>
<event>
 4    1  0.1956828E-002  0.9118800E+02  0.7818608E-02  0.1130116E+00
         25   -1    0    0    0    0  0.00000000000E+00  0.00000000000E+00  0.99999998245E-14  0.12500000000E+03  0.12500000000E+03 0.  0.
        -11    1    1    0    0    0  0.36472650039E+01 -0.38090890476E+02  0.11540425315E+02  0.39967485485E+02  0.51100000000E-03 0.  1.
         11    1    1    0    0    0  0.57446520336E+01 -0.21926462077E+02  0.21274690720E+01  0.22766134742E+02  0.51100000000E-03 0. -1.
         22    1    1    0    0    0 -0.93919170375E+01  0.60017352553E+02 -0.13667894387E+02  0.62266379773E+02  0.00000000000E+00 0.  1.
</event>
<event>
 4    1  0.1956828E-002  0.9118800E+02  0.7818608E-02  0.1130116E+00
         25   -1    0    0    0    0  0.00000000000E+00  0.00000000000E+00  0.99999998245E-14  0.12500000000E+03  0.12500000000E+03 0.  0.
        -11    1    1    0    0    0  0.43969134836E+01  0.33434633462E+00 -0.52736701990E+01  0.68743169321E+01  0.51100000000E-03 0.  1.
         11    1    1    0    0    0  0.35570321710E+02  0.27127003322E+01 -0.42680324479E+02  0.55625683164E+02  0.51100000000E-03 0. -1.
         22    1    1    0    0    0 -0.39967235193E+02 -0.30470466668E+01  0.47953994678E+02  0.62499999904E+02  0.00000000000E+00 0. -1.
</event>
<event>
 4    1  0.1956828E-002  0.9118800E+02  0.7818608E-02  0.1130116E+00
         25   -1    0    0    0    0  0.00000000000E+00  0.00000000000E+00  0.99999998245E-14  0.12500000000E+03  0.12500000000E+03 0.  0.
        -11    1    1    0    0    0 -0.45754845233E+01  0.65525920353E+01 -0.83367732627E+01  0.11548736281E+02  0.51100000000E-03 0.  1.
         11    1    1    0    0    0 -0.20273722378E+02  0.29106019242E+02 -0.36576703380E+02  0.50951343511E+02  0.51100000000E-03 0. -1.
         22    1    1    0    0    0  0.24849206901E+02 -0.35658611277E+02  0.44913476642E+02  0.62499920208E+02  0.00000000000E+00 0. -1.
</event>
<event>
 4    1  0.1956828E-002  0.9118800E+02  0.7818608E-02  0.1130116E+00
         25   -1    0    0    0    0  0.00000000000E+00  0.00000000000E+00  0.99999998245E-14  0.12500000000E+03  0.12500000000E+03 0.  0.
        -11    1    1    0    0    0  0.30020104691E+02 -0.18778506307E+01  0.10815554819E+02  0.31964186756E+02  0.51100000000E-03 0.  1.
         11    1    1    0    0    0  0.28679241731E+02 -0.17940262795E+01  0.10330462470E+02  0.30535813264E+02  0.51100000000E-03 0. -1.
         22    1    1    0    0    0 -0.58699346422E+02  0.36718769102E+01 -0.21146017290E+02  0.62499999981E+02  0.00000000000E+00 0.  1.
</event>
<event>
 4    1  0.1956828E-002  0.9118800E+02  0.7818608E-02  0.1130116E+00
         25   -1    0    0    0    0  0.00000000000E+00  0.00000000000E+00  0.99999998245E-14  0.12500000000E+03  0.12500000000E+03 0.  0.
        -11    1    1    0    0    0 -0.28439602547E+02  0.34725998972E+02 -0.93861268001E+01  0.45856355876E+02  0.51100000000E-03 0. -1.
         11    1    1    0    0    0 -0.10323425798E+02  0.12603012045E+02 -0.34061499931E+01  0.16643644158E+02  0.51100000000E-03 0.  1.
         22    1    1    0    0    0  0.38763028344E+02 -0.47329011017E+02  0.12792276793E+02  0.62499999967E+02  0.00000000000E+00 0. -1.
</event>
<event>
 4    1  0.1956828E-002  0.9118800E+02  0.7818608E-02  0.1130116E+00
         25   -1    0    0    0    0  0.00000000000E+00  0.00000000000E+00  0.99999998245E-14  0.12500000000E+03  0.12500000000E+03 0.  0.
        -11    1    1    0    0    0  0.54663022076E+01 -0.16075376652E+02 -0.16755500382E+02  0.23854663855E+02  0.51100000000E-03 0.  1.
         11    1    1    0    0    0  0.88562712894E+01 -0.26041095964E+02 -0.27145713962E+02  0.38645336160E+02  0.51100000000E-03 0. -1.
         22    1    1    0    0    0 -0.14322573497E+02  0.42116472616E+02  0.43901214344E+02  0.62499999985E+02  0.00000000000E+00 0. -1.
</event>
<event>
 4    1  0.1956828E-002  0.9118800E+02  0.7818608E-02  0.1130116E+00
         25   -1    0    0    0    0  0.00000000000E+00  0.00000000000E+00  0.99999998245E-14  0.12500000000E+03  0.12500000000E+03 0.  0.
        -11    1    1    0    0    0 -0.11354480074E+01  0.28335724713E+02  0.35671308073E+02  0.45570217874E+02  0.51100000000E-03 0.  1.
         11    1    1    0    0    0 -0.42984858968E+00  0.10525771707E+02  0.13252958428E+02  0.16929782845E+02  0.51100000000E-03 0. -1.
         22    1    1    0    0    0  0.15652965971E+01 -0.38861496420E+02 -0.48924266501E+02  0.62499999281E+02  0.00000000000E+00 0.  1.
</event>
<event>
 4    1  0.1956828E-002  0.9118800E+02  0.7818608E-02  0.1130116E+00
         25   -1    0    0    0    0  0.00000000000E+00  0.00000000000E+00  0.99999998245E-14  0.12500000000E+03  0.12500000000E+03 0.  0.
        -11    1    1    0    0    0  0.12386646318E+02 -0.21660142463E+01  0.30415426972E+01  0.12937217899E+02  0.51100000000E-03 0.  1.
         11    1    1    0    0    0  0.47424589444E+02 -0.83448630770E+01  0.11736353451E+02  0.49562792661E+02  0.51100000000E-03 0. -1.
         22    1    1    0    0    0 -0.59811235762E+02  0.10510877323E+02 -0.14777896149E+02  0.62499989441E+02  0.00000000000E+00 0. -1.
</event>
<event>
 4    1  0.1956828E-002  0.9118800E+02  0.7818608E-02  0.1130116E+00
         25   -1    0    0    0    0  0.00000000000E+00  0.00000000000E+00  0.99999998245E-14  0.12500000000E+03  0.12500000000E+03 0.  0.
        -11    1    1    0    0    0  0.46646418751E+01  0.85797502760E+00 -0.38567836030E+01  0.61130831004E+01  0.51100000000E-03 0.  1.
         11    1    1    0    0    0  0.43102555768E+02  0.79671805895E+01 -0.35470819965E+02  0.56386925342E+02  0.51100000000E-03 0. -1.
         22    1    1    0    0    0 -0.47767197643E+02 -0.88251556171E+01  0.39327603568E+02  0.62499991558E+02  0.00000000000E+00 0. -1.
</event>
<event>
 4    1  0.1956828E-002  0.9118800E+02  0.7818608E-02  0.1130116E+00
         25   -1    0    0    0    0  0.00000000000E+00  0.00000000000E+00  0.99999998245E-14  0.12500000000E+03  0.12500000000E+03 0.  0.
        -11    1    1    0    0    0 -0.69983014315E+01  0.16553396261E+02  0.60170504777E+00  0.17982024356E+02  0.51100000000E-03 0.  1.
         11    1    1    0    0    0 -0.17330155602E+02  0.40979378990E+02  0.14853841228E+01  0.44517975716E+02  0.51100000000E-03 0.  1.
         22    1    1    0    0    0  0.24328457034E+02 -0.57532775251E+02 -0.20870891706E+01  0.62499999928E+02  0.00000000000E+00 0.  1.
</event>
<event>
 4    1  0.1956828E-002  0.9118800E+02  0.7818608E-02  0.1130116E+00
         25   -1    0    0    0    0  0.00000000000E+00  0.00000000000E+00  0.99999998245E-14  0.12500000000E+03  0.12500000000E+03 0.  0.
        -11    1    1    0    0    0  0.16961036971E+01 -0.26565860091E+02  0.42206725852E+02  0.49900194364E+02  0.51100000000E-03 0.  1.
         11    1    1    0    0    0 -0.69064411025E-01 -0.65149467364E+01  0.10790109550E+02  0.12604593021E+02  0.51100000000E-03 0. -1.
         22    1    1    0    0    0 -0.16270392861E+01  0.33080806828E+02 -0.52996835402E+02  0.62495212615E+02  0.00000000000E+00 0.  1.
</event>
<event>
 4    1  0.1956828E-002  0.9118800E+02  0.7818608E-02  0.1130116E+00
         25   -1    0    0    0    0  0.00000000000E+00  0.00000000000E+00  0.99999998245E-14  0.12500000000E+03  0.12500000000E+03 0.  0.
        -11    1    1    0    0    0  0.39999893457E+02 -0.41417495250E+02  0.28086422147E+01  0.57647973605E+02  0.51100000000E-03 0.  1.
         11    1    1    0    0    0  0.33240649863E+01 -0.35259676158E+01  0.24889929482E+00  0.48521960782E+01  0.51100000000E-03 0. -1.
         22    1    1    0    0    0 -0.43323958444E+02  0.44943462866E+02 -0.30575415095E+01  0.62499830317E+02  0.00000000000E+00 0.  1.
</event>
<event>
 4    1  0.1956828E-002  0.9118800E+02  0.7818608E-02  0.1130116E+00
         25   -1    0    0    0    0  0.00000000000E+00  0.00000000000E+00  0.99999998245E-14  0.12500000000E+03  0.12500000000E+03 0.  0.
        -11    1    1    0    0    0  0.22835498824E+01  0.26741669737E+02 -0.64765628368E+01  0.27609370997E+02  0.51100000000E-03 0.  1.
         11    1    1    0    0    0  0.28189905811E+01  0.34165158030E+02 -0.65406167837E+01  0.34899633226E+02  0.51100000000E-03 0. -1.
         22    1    1    0    0    0 -0.51025404635E+01 -0.60906827768E+02  0.13017179621E+02  0.62490995777E+02  0.00000000000E+00 0. -1.
</event>
<event>
 4    1  0.1956828E-002  0.9118800E+02  0.7818608E-02  0.1130116E+00
         25   -1    0    0    0    0  0.00000000000E+00  0.00000000000E+00  0.99999998245E-14  0.12500000000E+03  0.12500000000E+03 0.  0.
        -11    1    1    0    0    0  0.96948065663E+01  0.22896358567E+01 -0.13546780658E+02  0.16815081718E+02  0.51100000000E-03 0.  1.
         11    1    1    0    0    0  0.32211776614E+02  0.66385622221E+01 -0.31834491455E+02  0.45772305027E+02  0.51100000000E-03 0. -1.
         22    1    1    0    0    0 -0.41906583180E+02 -0.89281980789E+01  0.45381272113E+02  0.62412613255E+02  0.00000000000E+00 0. -1.
</event>
<event>
 4    1  0.1956828E-002  0.9118800E+02  0.7818608E-02  0.1130116E+00
         25   -1    0    0    0    0  0.00000000000E+00  0.00000000000E+00  0.99999998245E-14  0.12500000000E+03  0.12500000000E+03 0.  0.
        -11    1    1    0    0    0  0.11766963092E+02  0.12140561580E+02  0.17119732406E+02  0.24061169834E+02  0.51100000000E-03 0.  1.
         11    1    1    0    0    0  0.19629832987E+02  0.21242353708E+02  0.25348312091E+02  0.38459132339E+02  0.51100000000E-03 0. -1.
         22    1    1    0    0    0 -0.31396796080E+02 -0.33382915287E+02 -0.42468044497E+02  0.62479697827E+02  0.00000000000E+00 0. -1.
</event>
<event>
 4    1  0.1956828E-002  0.9118800E+02  0.7818608E-02  0.1130116E+00
         25   -1    0    0    0    0  0.00000000000E+00  0.00000000000E+00  0.99999998245E-14  0.12500000000E+03  0.12500000000E+03 0.  0.
        -11    1    1    0    0    0 -0.23398521036E+02  0.51697810965E+02 -0.21605803032E+02  0.60720385129E+02  0.51100000000E-03 0.  1.
         11    1    1    0    0    0 -0.67583893712E+00  0.15159478274E+01 -0.64207405148E+00  0.17796391300E+01  0.51100000000E-03 0. -1.
         22    1    1    0    0    0  0.24074359974E+02 -0.53213758792E+02  0.22247877084E+02  0.62499975741E+02  0.00000000000E+00 0.  1.
</event>
<event>
 4    1  0.1956828E-002  0.9118800E+02  0.7818608E-02  0.1130116E+00
         25   -1    0    0    0    0  0.00000000000E+00  0.00000000000E+00  0.99999998245E-14  0.12500000000E+03  0.12500000000E+03 0.  0.
        -11    1    1    0    0    0  0.38021359766E+01 -0.15827473333E+02  0.26086559619E+01  0.16485455295E+02  0.51100000000E-03 0.  1.
         11    1    1    0    0    0  0.93279059446E+01 -0.43889242228E+02  0.10269841833E+02  0.46029827983E+02  0.51100000000E-03 0. -1.
         22    1    1    0    0    0 -0.13130041921E+02  0.59716715561E+02 -0.12878497794E+02  0.62484716721E+02  0.00000000000E+00 0. -1.
</event>
<event>
 4    1  0.1956828E-002  0.9118800E+02  0.7818608E-02  0.1130116E+00
         25   -1    0    0    0    0  0.00000000000E+00  0.00000000000E+00  0.99999998245E-14  0.12500000000E+03  0.12500000000E+03 0.  0.
        -11    1    1    0    0    0  0.17585445357E+02  0.26086299354E+02 -0.27832154958E+02  0.42004425389E+02  0.51100000000E-03 0.  1.
         11    1    1    0    0    0  0.85760396262E+01  0.12736085174E+02 -0.13576166234E+02  0.20495575403E+02  0.51100000000E-03 0. -1.
         22    1    1    0    0    0 -0.26161484984E+02 -0.38822384528E+02  0.41408321192E+02  0.62499999208E+02  0.00000000000E+00 0.  1.
</event>
<event>
 4    1  0.1956828E-002  0.9118800E+02  0.7818608E-02  0.1130116E+00
         25   -1    0    0    0    0  0.00000000000E+00  0.00000000000E+00  0.99999998245E-14  0.12500000000E+03  0.12500000000E+03 0.  0.
        -11    1    1    0    0    0  0.12936545580E+02  0.15857665479E+02  0.24117805616E+02  0.31630496581E+02  0.51100000000E-03 0.  1.
         11    1    1    0    0    0  0.12644384323E+02  0.15290929287E+02  0.23648364592E+02  0.30869695844E+02  0.51100000000E-03 0. -1.
         22    1    1    0    0    0 -0.25580929902E+02 -0.31148594766E+02 -0.47766170208E+02  0.62499807575E+02  0.00000000000E+00 0.  1.
</event>
<event>
 4    1  0.1956828E-002  0.9118800E+02  0.7818608E-02  0.1130116E+00
         25   -1    0    0    0    0  0.00000000000E+00  0.00000000000E+00  0.99999998245E-14  0.12500000000E+03  0.12500000000E+03 0.  0.
        -11    1    1    0    0    0 -0.12892977415E+01 -0.59209601445E+01 -0.82105884186E+00  0.61150793602E+01  0.51100000000E-03 0.  1.
         11    1    1    0    0    0 -0.11885688143E+02 -0.54595913394E+02 -0.75680866399E+01  0.56384920658E+02  0.51100000000E-03 0.  1.
         22    1    1    0    0    0  0.13174985884E+02  0.60516873538E+02  0.83891454818E+01  0.62499999982E+02  0.00000000000E+00 0.  1.
</event>
<event>
 4    1  0.1956828E-002  0.9118800E+02  0.7818608E-02  0.1130116E+00
         25   -1    0    0    0    0  0.00000000000E+00  0.00000000000E+00  0.99999998245E-14  0.12500000000E+03  0.12500000000E+03 0.  0.
        -11    1    1    0    0    0  0.16375331037E+01 -0.10386055466E+02 -0.14551988548E+02  0.17953050820E+02  0.51100000000E-03 0. -1.
         11    1    1    0    0    0  0.43112486737E+01 -0.25903442488E+02 -0.35984288723E+02  0.44547101286E+02  0.51100000000E-03 0.  1.
         22    1    1    0    0    0 -0.59487817774E+01  0.36289497954E+02  0.50536277270E+02  0.62499847894E+02  0.00000000000E+00 0.  1.
</event>
<event>
 4    1  0.1956828E-002  0.9118800E+02  0.7818608E-02  0.1130116E+00
         25   -1    0    0    0    0  0.00000000000E+00  0.00000000000E+00  0.99999998245E-14  0.12500000000E+03  0.12500000000E+03 0.  0.
        -11    1    1    0    0    0  0.40955203675E+02 -0.73965152026E+01 -0.46268311382E+02  0.62231774711E+02  0.51100000000E-03 0.  1.
         11    1    1    0    0    0 -0.11280492060E+00 -0.73123959463E+00  0.51658811738E+00  0.90238563764E+00  0.51100000000E-03 0. -1.
         22    1    1    0    0    0 -0.40842398754E+02  0.81277547973E+01  0.45751723265E+02  0.61865839652E+02  0.00000000000E+00 0.  1.
</event>
<event>
 4    1  0.1956828E-002  0.9118800E+02  0.7818608E-02  0.1130116E+00
         25   -1    0    0    0    0  0.00000000000E+00  0.00000000000E+00  0.99999998245E-14  0.12500000000E+03  0.12500000000E+03 0.  0.
        -11    1    1    0    0    0  0.62266579731E+01 -0.10347388839E+02  0.48468740758E+02  0.49950561120E+02  0.51100000000E-03 0. -1.
         11    1    1    0    0    0  0.83922751240E+00 -0.27035905339E+01  0.12234807932E+02  0.12558034480E+02  0.51100000000E-03 0.  1.
         22    1    1    0    0    0 -0.70658854855E+01  0.13050979373E+02 -0.60703548690E+02  0.62491404400E+02  0.00000000000E+00 0. -1.
</event>
<event>
 4    1  0.1956828E-002  0.9118800E+02  0.7818608E-02  0.1130116E+00
         25   -1    0    0    0    0  0.00000000000E+00  0.00000000000E+00  0.99999998245E-14  0.12500000000E+03  0.12500000000E+03 0.  0.
        -11    1    1    0    0    0  0.14500046718E+01 -0.43346270268E+00 -0.16806210514E+02  0.16874214517E+02  0.51100000000E-03 0. -1.
         11    1    1    0    0    0 -0.14215492062E+01  0.24029559971E+01 -0.45601555247E+02  0.45686943878E+02  0.51100000000E-03 0.  1.
         22    1    1    0    0    0 -0.28455465629E-01 -0.19694932944E+01  0.62407765762E+02  0.62438841605E+02  0.00000000000E+00 0.  1.
</event>
<event>
 4    1  0.1956828E-002  0.9118800E+02  0.7818608E-02  0.1130116E+00
         25   -1    0    0    0    0  0.00000000000E+00  0.00000000000E+00  0.99999998245E-14  0.12500000000E+03  0.12500000000E+03 0.  0.
        -11    1    1    0    0    0 -0.10064422335E+02 -0.13537558946E+02 -0.77657751291E+01  0.18570550955E+02  0.51100000000E-03 0. -1.
         11    1    1    0    0    0 -0.23807039456E+02 -0.32024999112E+02 -0.18369017351E+02  0.43929449057E+02  0.51100000000E-03 0. -1.
         22    1    1    0    0    0  0.33871461791E+02  0.45562558057E+02  0.26134792480E+02  0.62499999988E+02  0.00000000000E+00 0. -1.
</event>
<event>
 4    1  0.1956828E-002  0.9118800E+02  0.7818608E-02  0.1130116E+00
         25   -1    0    0    0    0  0.00000000000E+00  0.00000000000E+00  0.99999998245E-14  0.12500000000E+03  0.12500000000E+03 0.  0.
        -11    1    1    0    0    0 -0.71353173719E+01 -0.22748494474E+02  0.22139745690E+01  0.23943860142E+02  0.51100000000E-03 0. -1.
         11    1    1    0    0    0 -0.11489114716E+02 -0.36631347225E+02  0.35665900953E+01  0.38556139870E+02  0.51100000000E-03 0. -1.
         22    1    1    0    0    0  0.18624432088E+02  0.59379841699E+02 -0.57805646642E+01  0.62499999989E+02  0.00000000000E+00 0. -1.
</event>
<event>
 4    1  0.1956828E-002  0.9118800E+02  0.7818608E-02  0.1130116E+00
         25   -1    0    0    0    0  0.00000000000E+00  0.00000000000E+00  0.99999998245E-14  0.12500000000E+03  0.12500000000E+03 0.  0.
        -11    1    1    0    0    0 -0.41542619594E+02 -0.17187024725E+02 -0.42205125109E+02  0.61664054744E+02  0.51100000000E-03 0.  1.
         11    1    1    0    0    0  0.30232064684E-01  0.18771856092E+01 -0.39190648369E+00  0.19178974796E+01  0.51100000000E-03 0. -1.
         22    1    1    0    0    0  0.41512387530E+02  0.15309839116E+02  0.42597031593E+02  0.61418047777E+02  0.00000000000E+00 0.  1.
</event>
<event>
 4    1  0.1956828E-002  0.9118800E+02  0.7818608E-02  0.1130116E+00
         25   -1    0    0    0    0  0.00000000000E+00  0.00000000000E+00  0.99999998245E-14  0.12500000000E+03  0.12500000000E+03 0.  0.
        -11    1    1    0    0    0 -0.11949431546E+02 -0.39445799676E+02 -0.11883241752E+02  0.42894888520E+02  0.51100000000E-03 0.  1.
         11    1    1    0    0    0 -0.54095170836E+01 -0.17962656947E+02 -0.56980104098E+01  0.19605796148E+02  0.51100000000E-03 0. -1.
         22    1    1    0    0    0  0.17358948629E+02  0.57408456624E+02  0.17581252162E+02  0.62499315332E+02  0.00000000000E+00 0.  1.
</event>
<event>
 4    1  0.1956828E-002  0.9118800E+02  0.7818608E-02  0.1130116E+00
         25   -1    0    0    0    0  0.00000000000E+00  0.00000000000E+00  0.99999998245E-14  0.12500000000E+03  0.12500000000E+03 0.  0.
        -11    1    1    0    0    0  0.12029209131E+02  0.10184826395E+02 -0.96541572469E+01  0.18483379383E+02  0.51100000000E-03 0. -1.
         11    1    1    0    0    0  0.28725697698E+02  0.24264548533E+02 -0.22880812701E+02  0.44016651552E+02  0.51100000000E-03 0.  1.
         22    1    1    0    0    0 -0.40754906830E+02 -0.34449374928E+02  0.32534969948E+02  0.62499969065E+02  0.00000000000E+00 0.  1.
</event>
<event>
 4    1  0.1956828E-002  0.9118800E+02  0.7818608E-02  0.1130116E+00
         25   -1    0    0    0    0  0.00000000000E+00  0.00000000000E+00  0.99999998245E-14  0.12500000000E+03  0.12500000000E+03 0.  0.
        -11    1    1    0    0    0  0.12452946799E+02 -0.66171729094E+01  0.42164524908E+01  0.14718740882E+02  0.51100000000E-03 0. -1.
         11    1    1    0    0    0  0.25667619850E+02 -0.35109760640E+02  0.21114441080E+02  0.48346061095E+02  0.51100000000E-03 0.  1.
         22    1    1    0    0    0 -0.38120566649E+02  0.41726933550E+02 -0.25330893570E+02  0.61935198023E+02  0.00000000000E+00 0.  1.
</event>
<event>
 4    1  0.1956828E-002  0.9118800E+02  0.7818608E-02  0.1130116E+00
         25   -1    0    0    0    0  0.00000000000E+00  0.00000000000E+00  0.99999998245E-14  0.12500000000E+03  0.12500000000E+03 0.  0.
        -11    1    1    0    0    0 -0.25912271961E+01 -0.60710092291E+01 -0.10808814867E+02  0.12664994692E+02  0.51100000000E-03 0. -1.
         11    1    1    0    0    0  0.24863464131E+02 -0.42253980302E+02 -0.17508198931E+02  0.52058887138E+02  0.51100000000E-03 0.  1.
         22    1    1    0    0    0 -0.22272236935E+02  0.48324989531E+02  0.28317013798E+02  0.60276118171E+02  0.00000000000E+00 0.  1.
</event>
<event>
 4    1  0.1956828E-002  0.9118800E+02  0.7818608E-02  0.1130116E+00
         25   -1    0    0    0    0  0.00000000000E+00  0.00000000000E+00  0.99999998245E-14  0.12500000000E+03  0.12500000000E+03 0.  0.
        -11    1    1    0    0    0  0.36288680849E+01  0.45326335666E+02 -0.29318649186E+02  0.54103868427E+02  0.51100000000E-03 0. -1.
         11    1    1    0    0    0 -0.10310026183E+02 -0.82345831668E+01  0.30454779977E+02  0.33190339310E+02  0.51100000000E-03 0.  1.
         22    1    1    0    0    0  0.66811580983E+01 -0.37091752499E+02 -0.11361307913E+01  0.37705792262E+02  0.00000000000E+00 0. -1.
</event>
<event>
 4    1  0.1956828E-002  0.9118800E+02  0.7818608E-02  0.1130116E+00
         25   -1    0    0    0    0  0.00000000000E+00  0.00000000000E+00  0.99999998245E-14  0.12500000000E+03  0.12500000000E+03 0.  0.
        -11    1    1    0    0    0  0.95164398095E+01  0.13851775039E+02 -0.38776958039E+01  0.17247342502E+02  0.51100000000E-03 0.  1.
         11    1    1    0    0    0  0.24416708288E+02  0.36677266395E+02 -0.10318225416E+02  0.45253323522E+02  0.51100000000E-03 0. -1.
         22    1    1    0    0    0 -0.33933148097E+02 -0.50529041435E+02  0.14195921220E+02  0.62499333975E+02  0.00000000000E+00 0. -1.
</event>
<event>
 4    1  0.1956828E-002  0.9118800E+02  0.7818608E-02  0.1130116E+00
         25   -1    0    0    0    0  0.00000000000E+00  0.00000000000E+00  0.99999998245E-14  0.12500000000E+03  0.12500000000E+03 0.  0.
        -11    1    1    0    0    0  0.16313847020E+02 -0.16771179351E+01 -0.58045273262E+01  0.17396748745E+02  0.51100000000E-03 0.  1.
         11    1    1    0    0    0  0.42294410733E+02 -0.43472816273E+01 -0.15052815005E+02  0.45103251287E+02  0.51100000000E-03 0. -1.
         22    1    1    0    0    0 -0.58608257753E+02  0.60243995623E+01  0.20857342331E+02  0.62499999968E+02  0.00000000000E+00 0. -1.
</event>
<event>
 4    1  0.1956828E-002  0.9118800E+02  0.7818608E-02  0.1130116E+00
         25   -1    0    0    0    0  0.00000000000E+00  0.00000000000E+00  0.99999998245E-14  0.12500000000E+03  0.12500000000E+03 0.  0.
        -11    1    1    0    0    0  0.22842493922E+02 -0.39609862843E+02  0.39696500438E+02  0.60551902615E+02  0.51100000000E-03 0. -1.
         11    1    1    0    0    0  0.48250413822E+00 -0.11287604380E+01  0.15369386783E+01  0.19670005419E+01  0.51100000000E-03 0.  1.
         22    1    1    0    0    0 -0.23324998060E+02  0.40738623281E+02 -0.41233439116E+02  0.62481096843E+02  0.00000000000E+00 0. -1.
</event>
<event>
 4    1  0.1956828E-002  0.9118800E+02  0.7818608E-02  0.1130116E+00
         25   -1    0    0    0    0  0.00000000000E+00  0.00000000000E+00  0.99999998245E-14  0.12500000000E+03  0.12500000000E+03 0.  0.
        -11    1    1    0    0    0 -0.38463808115E+01 -0.56313194939E+02 -0.16111862527E+01  0.56467393167E+02  0.51100000000E-03 0. -1.
         11    1    1    0    0    0 -0.27785646951E+01 -0.52551970193E+01  0.28588248701E+01  0.65962411550E+01  0.51100000000E-03 0.  1.
         22    1    1    0    0    0  0.66249455065E+01  0.61568391959E+02 -0.12476386174E+01  0.61936365678E+02  0.00000000000E+00 0. -1.
</event>
<event>
 4    1  0.1956828E-002  0.9118800E+02  0.7818608E-02  0.1130116E+00
         25   -1    0    0    0    0  0.00000000000E+00  0.00000000000E+00  0.99999998245E-14  0.12500000000E+03  0.12500000000E+03 0.  0.
        -11    1    1    0    0    0 -0.71673856783E+01 -0.18763100800E+02  0.28045587090E+02  0.34496091439E+02  0.51100000000E-03 0. -1.
         11    1    1    0    0    0 -0.67676715530E+01 -0.22800675876E+02  0.15759419687E+02  0.28531237403E+02  0.51100000000E-03 0.  1.
         22    1    1    0    0    0  0.13935057231E+02  0.41563776676E+02 -0.43805006777E+02  0.61972671157E+02  0.00000000000E+00 0. -1.
</event>
<event>
 4    1  0.1956828E-002  0.9118800E+02  0.7818608E-02  0.1130116E+00
         25   -1    0    0    0    0  0.00000000000E+00  0.00000000000E+00  0.99999998245E-14  0.12500000000E+03  0.12500000000E+03 0.  0.
        -11    1    1    0    0    0  0.69557396562E+00 -0.10936145999E+02 -0.17449393484E+02  0.20604961676E+02  0.51100000000E-03 0.  1.
         11    1    1    0    0    0  0.37468948906E+02 -0.24648401851E+02 -0.92306919828E+01  0.45789425861E+02  0.51100000000E-03 0. -1.
         22    1    1    0    0    0 -0.38164522871E+02  0.35584547850E+02  0.26680085466E+02  0.58605612463E+02  0.00000000000E+00 0. -1.
</event>
<event>
 4    1  0.1956828E-002  0.9118800E+02  0.7818608E-02  0.1130116E+00
         25   -1    0    0    0    0  0.00000000000E+00  0.00000000000E+00  0.99999998245E-14  0.12500000000E+03  0.12500000000E+03 0.  0.
        -11    1    1    0    0    0  0.26191608376E+02  0.28799978520E+01 -0.18336995048E+01  0.26413201076E+02  0.51100000000E-03 0. -1.
         11    1    1    0    0    0  0.35822332898E+02  0.35244792788E+01 -0.25753615514E+01  0.36087310454E+02  0.51100000000E-03 0.  1.
         22    1    1    0    0    0 -0.62013941274E+02 -0.64044771308E+01  0.44090610561E+01  0.62499488470E+02  0.00000000000E+00 0. -1.
</event>
<event>
 4    1  0.1956828E-002  0.9118800E+02  0.7818608E-02  0.1130116E+00
         25   -1    0    0    0    0  0.00000000000E+00  0.00000000000E+00  0.99999998245E-14  0.12500000000E+03  0.12500000000E+03 0.  0.
        -11    1    1    0    0    0 -0.39593822120E+00 -0.10306949240E+02 -0.17515381215E+02  0.20326793871E+02  0.51100000000E-03 0.  1.
         11    1    1    0    0    0 -0.77006141546E+00 -0.21380716490E+02 -0.36343523729E+02  0.42173211278E+02  0.51100000000E-03 0. -1.
         22    1    1    0    0    0  0.11659996367E+01  0.31687665730E+02  0.53858904944E+02  0.62499994851E+02  0.00000000000E+00 0. -1.
</event>
<event>
 4    1  0.1956828E-002  0.9118800E+02  0.7818608E-02  0.1130116E+00
         25   -1    0    0    0    0  0.00000000000E+00  0.00000000000E+00  0.99999998245E-14  0.12500000000E+03  0.12500000000E+03 0.  0.
        -11    1    1    0    0    0 -0.70596524085E+01 -0.17778682552E+02  0.13751202701E+02  0.23558773767E+02  0.51100000000E-03 0.  1.
         11    1    1    0    0    0 -0.11679030203E+02 -0.29388717020E+02  0.22722735190E+02  0.38941226603E+02  0.51100000000E-03 0.  1.
         22    1    1    0    0    0  0.18738682612E+02  0.47167399572E+02 -0.36473937891E+02  0.62499999630E+02  0.00000000000E+00 0.  1.
</event>
<event>
 4    1  0.1956828E-002  0.9118800E+02  0.7818608E-02  0.1130116E+00
         25   -1    0    0    0    0  0.00000000000E+00  0.00000000000E+00  0.99999998245E-14  0.12500000000E+03  0.12500000000E+03 0.  0.
        -11    1    1    0    0    0 -0.26865581939E+02 -0.90650124124E+01 -0.47990467909E+02  0.55740640051E+02  0.51100000000E-03 0. -1.
         11    1    1    0    0    0 -0.33363654070E+01 -0.10863237895E+01 -0.57776396979E+01  0.67596267829E+01  0.51100000000E-03 0.  1.
         22    1    1    0    0    0  0.30201947346E+02  0.10151336202E+02  0.53768107607E+02  0.62499733166E+02  0.00000000000E+00 0. -1.
</event>
<event>
 4    1  0.1956828E-002  0.9118800E+02  0.7818608E-02  0.1130116E+00
         25   -1    0    0    0    0  0.00000000000E+00  0.00000000000E+00  0.99999998245E-14  0.12500000000E+03  0.12500000000E+03 0.  0.
        -11    1    1    0    0    0 -0.36195551450E+02 -0.12034951744E+02  0.32839735234E+02  0.50332953607E+02  0.51100000000E-03 0.  1.
         11    1    1    0    0    0 -0.55353509838E+01 -0.43358049933E+01  0.10288487481E+02  0.12461632733E+02  0.51100000000E-03 0. -1.
         22    1    1    0    0    0  0.41730902434E+02  0.16370756737E+02 -0.43128222715E+02  0.62205413661E+02  0.00000000000E+00 0.  1.
</event>
<event>
 4    1  0.1956828E-002  0.9118800E+02  0.7818608E-02  0.1130116E+00
         25   -1    0    0    0    0  0.00000000000E+00  0.00000000000E+00  0.99999998245E-14  0.12500000000E+03  0.12500000000E+03 0.  0.
        -11    1    1    0    0    0  0.45761065798E+01 -0.18463141427E+02  0.10750054451E+01  0.19052138457E+02  0.51100000000E-03 0. -1.
         11    1    1    0    0    0  0.10433938699E+02 -0.42105150604E+02  0.24506916002E+01  0.43447861555E+02  0.51100000000E-03 0.  1.
         22    1    1    0    0    0 -0.15010045279E+02  0.60568292031E+02 -0.35256970453E+01  0.62499999988E+02  0.00000000000E+00 0.  1.
</event>
<event>
 4    1  0.1956828E-002  0.9118800E+02  0.7818608E-02  0.1130116E+00
         25   -1    0    0    0    0  0.00000000000E+00  0.00000000000E+00  0.99999998245E-14  0.12500000000E+03  0.12500000000E+03 0.  0.
        -11    1    1    0    0    0 -0.23728407393E+00  0.66714540360E+00 -0.28185848106E+01  0.29061671178E+01  0.51100000000E-03 0.  1.
         11    1    1    0    0    0 -0.48612476201E+01  0.13681453264E+02 -0.57798019246E+02  0.59593832910E+02  0.51100000000E-03 0. -1.
         22    1    1    0    0    0  0.50985316940E+01 -0.14348598668E+02  0.60616604057E+02  0.62499999972E+02  0.00000000000E+00 0. -1.
</event>
<event>
 4    1  0.1956828E-002  0.9118800E+02  0.7818608E-02  0.1130116E+00
         25   -1    0    0    0    0  0.00000000000E+00  0.00000000000E+00  0.99999998245E-14  0.12500000000E+03  0.12500000000E+03 0.  0.
        -11    1    1    0    0    0 -0.17270328089E+02 -0.41042323202E+02 -0.11969179256E+02  0.46108543443E+02  0.51100000000E-03 0. -1.
         11    1    1    0    0    0 -0.61758295784E+01 -0.14575675001E+02 -0.42531449884E+01  0.16391473859E+02  0.51100000000E-03 0.  1.
         22    1    1    0    0    0  0.23446157667E+02  0.55617998202E+02  0.16222324244E+02  0.62499982698E+02  0.00000000000E+00 0. -1.
</event>
<event>
 4    1  0.1956828E-002  0.9118800E+02  0.7818608E-02  0.1130116E+00
         25   -1    0    0    0    0  0.00000000000E+00  0.00000000000E+00  0.99999998245E-14  0.12500000000E+03  0.12500000000E+03 0.  0.
        -11    1    1    0    0    0  0.50703137442E+01  0.22750825173E+02  0.54146869115E+01  0.23929625198E+02  0.51100000000E-03 0.  1.
         11    1    1    0    0    0  0.91570693014E+01  0.36325756146E+02  0.91929941779E+01  0.38573613002E+02  0.51100000000E-03 0. -1.
         22    1    1    0    0    0 -0.14227383046E+02 -0.59076581319E+02 -0.14607681089E+02  0.62496761800E+02  0.00000000000E+00 0.  1.
</event>
<event>
 4    1  0.1956828E-002  0.9118800E+02  0.7818608E-02  0.1130116E+00
         25   -1    0    0    0    0  0.00000000000E+00  0.00000000000E+00  0.99999998245E-14  0.12500000000E+03  0.12500000000E+03 0.  0.
        -11    1    1    0    0    0 -0.25523825759E+01 -0.37372652569E+02 -0.79124053747E+01  0.38286237422E+02  0.51100000000E-03 0. -1.
         11    1    1    0    0    0 -0.27802319677E+01 -0.23921454802E+02 -0.28616343701E+01  0.24251899743E+02  0.51100000000E-03 0.  1.
         22    1    1    0    0    0  0.53326145436E+01  0.61294107371E+02  0.10774039745E+02  0.62461862834E+02  0.00000000000E+00 0. -1.
</event>
<event>
 4    1  0.1956828E-002  0.9118800E+02  0.7818608E-02  0.1130116E+00
         25   -1    0    0    0    0  0.00000000000E+00  0.00000000000E+00  0.99999998245E-14  0.12500000000E+03  0.12500000000E+03 0.  0.
        -11    1    1    0    0    0 -0.29409800853E+02 -0.33102580807E+02 -0.37857989078E+02  0.58257571007E+02  0.51100000000E-03 0. -1.
         11    1    1    0    0    0 -0.21350685212E+01 -0.24220684161E+01 -0.27519744979E+01  0.42424399702E+01  0.51100000000E-03 0.  1.
         22    1    1    0    0    0  0.31544869374E+02  0.35524649223E+02  0.40609963576E+02  0.62499989023E+02  0.00000000000E+00 0. -1.
</event>
<event>
 4    1  0.1956828E-002  0.9118800E+02  0.7818608E-02  0.1130116E+00
         25   -1    0    0    0    0  0.00000000000E+00  0.00000000000E+00  0.99999998245E-14  0.12500000000E+03  0.12500000000E+03 0.  0.
        -11    1    1    0    0    0  0.16003894715E+02 -0.19810010320E+01 -0.71247429614E+00  0.16141766664E+02  0.51100000000E-03 0.  1.
         11    1    1    0    0    0  0.45911950562E+02 -0.59677095770E+01 -0.23639824671E+01  0.46358485473E+02  0.51100000000E-03 0. -1.
         22    1    1    0    0    0 -0.61915845277E+02  0.79487106091E+01  0.30764567632E+01  0.62499747863E+02  0.00000000000E+00 0. -1.
</event>
<event>
 4    1  0.1956828E-002  0.9118800E+02  0.7818608E-02  0.1130116E+00
         25   -1    0    0    0    0  0.00000000000E+00  0.00000000000E+00  0.99999998245E-14  0.12500000000E+03  0.12500000000E+03 0.  0.
        -11    1    1    0    0    0  0.67770379323E+01  0.52018406207E+02  0.27413153648E+02  0.59188882577E+02  0.51100000000E-03 0. -1.
         11    1    1    0    0    0  0.37977177093E+00  0.29106033480E+01  0.15322079605E+01  0.33111176274E+01  0.51100000000E-03 0.  1.
         22    1    1    0    0    0 -0.71568097033E+01 -0.54929009555E+02 -0.28945361608E+02  0.62499999796E+02  0.00000000000E+00 0. -1.
</event>
<event>
 4    1  0.1956828E-002  0.9118800E+02  0.7818608E-02  0.1130116E+00
         25   -1    0    0    0    0  0.00000000000E+00  0.00000000000E+00  0.99999998245E-14  0.12500000000E+03  0.12500000000E+03 0.  0.
        -11    1    1    0    0    0 -0.39476727769E+02 -0.10517497535E+02 -0.46099705792E+01  0.41113034657E+02  0.51100000000E-03 0. -1.
         11    1    1    0    0    0 -0.20496872752E+02 -0.55255575144E+01 -0.26007073376E+01  0.21387315338E+02  0.51100000000E-03 0.  1.
         22    1    1    0    0    0  0.59973600521E+02  0.16043055049E+02  0.72106779168E+01  0.62499650005E+02  0.00000000000E+00 0. -1.
</event>
<event>
 4    1  0.1956828E-002  0.9118800E+02  0.7818608E-02  0.1130116E+00
         25   -1    0    0    0    0  0.00000000000E+00  0.00000000000E+00  0.99999998245E-14  0.12500000000E+03  0.12500000000E+03 0.  0.
        -11    1    1    0    0    0 -0.36657349094E+01  0.35856413478E+01 -0.19402394509E+01  0.54826057390E+01  0.51100000000E-03 0.  1.
         11    1    1    0    0    0 -0.38124208316E+02  0.37290511416E+02 -0.20172896406E+02  0.57017394285E+02  0.51100000000E-03 0. -1.
         22    1    1    0    0    0  0.41789943226E+02 -0.40876152764E+02  0.22113135857E+02  0.62499999976E+02  0.00000000000E+00 0. -1.
</event>
<event>
 4    1  0.1956828E-002  0.9118800E+02  0.7818608E-02  0.1130116E+00
         25   -1    0    0    0    0  0.00000000000E+00  0.00000000000E+00  0.99999998245E-14  0.12500000000E+03  0.12500000000E+03 0.  0.
        -11    1    1    0    0    0 -0.28340787836E+02 -0.36658313312E+02 -0.30577710884E+02  0.55516021049E+02  0.51100000000E-03 0.  1.
         11    1    1    0    0    0 -0.35618983782E+01 -0.46141320164E+01 -0.38468994567E+01  0.69839795255E+01  0.51100000000E-03 0. -1.
         22    1    1    0    0    0  0.31902686214E+02  0.41272445328E+02  0.34424610340E+02  0.62499999425E+02  0.00000000000E+00 0.  1.
</event>
<event>
 4    1  0.1956828E-002  0.9118800E+02  0.7818608E-02  0.1130116E+00
         25   -1    0    0    0    0  0.00000000000E+00  0.00000000000E+00  0.99999998245E-14  0.12500000000E+03  0.12500000000E+03 0.  0.
        -11    1    1    0    0    0  0.26726630271E+02 -0.43621223665E+02  0.10706763324E+02  0.52266229066E+02  0.51100000000E-03 0. -1.
         11    1    1    0    0    0  0.10558389110E+02  0.21734772007E+01 -0.13059623867E+02  0.16933911526E+02  0.51100000000E-03 0.  1.
         22    1    1    0    0    0 -0.37285019381E+02  0.41447746464E+02  0.23528605429E+01  0.55799859408E+02  0.00000000000E+00 0. -1.
</event>
<event>
 4    1  0.1956828E-002  0.9118800E+02  0.7818608E-02  0.1130116E+00
         25   -1    0    0    0    0  0.00000000000E+00  0.00000000000E+00  0.99999998245E-14  0.12500000000E+03  0.12500000000E+03 0.  0.
        -11    1    1    0    0    0  0.20827936483E+01  0.39389483477E+02 -0.23085018254E+02  0.45703254873E+02  0.51100000000E-03 0.  1.
         11    1    1    0    0    0  0.42415971984E+00  0.14866384498E+02 -0.78230060074E+01  0.16804425690E+02  0.51100000000E-03 0. -1.
         22    1    1    0    0    0 -0.25069533682E+01 -0.54255867975E+02  0.30908024262E+02  0.62492319437E+02  0.00000000000E+00 0. -1.
</event>
<event>
 4    1  0.1956828E-002  0.9118800E+02  0.7818608E-02  0.1130116E+00
         25   -1    0    0    0    0  0.00000000000E+00  0.00000000000E+00  0.99999998245E-14  0.12500000000E+03  0.12500000000E+03 0.  0.
        -11    1    1    0    0    0 -0.19716277730E+01  0.14585688274E+02 -0.10185847249E+01  0.14753546476E+02  0.51100000000E-03 0. -1.
         11    1    1    0    0    0 -0.63824932223E+01  0.47203193946E+02 -0.32933398783E+01  0.47746453546E+02  0.51100000000E-03 0. -1.
         22    1    1    0    0    0  0.83541209954E+01 -0.61788882220E+02  0.43119246031E+01  0.62499999979E+02  0.00000000000E+00 0. -1.
</event>
<event>
 4    1  0.1956828E-002  0.9118800E+02  0.7818608E-02  0.1130116E+00
         25   -1    0    0    0    0  0.00000000000E+00  0.00000000000E+00  0.99999998245E-14  0.12500000000E+03  0.12500000000E+03 0.  0.
        -11    1    1    0    0    0  0.38330514195E+01  0.51859067855E+02 -0.21438016189E+02  0.56246277569E+02  0.51100000000E-03 0. -1.
         11    1    1    0    0    0  0.37300122237E+00  0.57515047798E+01 -0.24274137760E+01  0.62539007863E+01  0.51100000000E-03 0.  1.
         22    1    1    0    0    0 -0.42060526419E+01 -0.57610572635E+02  0.23865429965E+02  0.62499821644E+02  0.00000000000E+00 0. -1.
</event>
<event>
 4    1  0.1956828E-002  0.9118800E+02  0.7818608E-02  0.1130116E+00
         25   -1    0    0    0    0  0.00000000000E+00  0.00000000000E+00  0.99999998245E-14  0.12500000000E+03  0.12500000000E+03 0.  0.
        -11    1    1    0    0    0  0.36306177306E+02 -0.15092362474E+02  0.42312116392E+02  0.57760134258E+02  0.51100000000E-03 0.  1.
         11    1    1    0    0    0  0.25100339994E+01  0.31842932416E+00  0.41875446221E+01  0.48925655985E+01  0.51100000000E-03 0. -1.
         22    1    1    0    0    0 -0.38816211306E+02  0.14773933149E+02 -0.46499661014E+02  0.62347300144E+02  0.00000000000E+00 0.  1.
</event>
<event>
 4    1  0.1956828E-002  0.9118800E+02  0.7818608E-02  0.1130116E+00
         25   -1    0    0    0    0  0.00000000000E+00  0.00000000000E+00  0.99999998245E-14  0.12500000000E+03  0.12500000000E+03 0.  0.
        -11    1    1    0    0    0  0.10586998991E+02 -0.34369713766E+02  0.12770870660E+02  0.38163554730E+02  0.51100000000E-03 0. -1.
         11    1    1    0    0    0  0.67363912016E+01 -0.21924243463E+02  0.81370293679E+01  0.24336447256E+02  0.51100000000E-03 0.  1.
         22    1    1    0    0    0 -0.17323390192E+02  0.56293957229E+02 -0.20907900028E+02  0.62499998014E+02  0.00000000000E+00 0. -1.
</event>
<event>
 4    1  0.1956828E-002  0.9118800E+02  0.7818608E-02  0.1130116E+00
         25   -1    0    0    0    0  0.00000000000E+00  0.00000000000E+00  0.99999998245E-14  0.12500000000E+03  0.12500000000E+03 0.  0.
        -11    1    1    0    0    0 -0.99899545016E+01  0.18181652272E+02  0.19155794611E+02  0.28236786958E+02  0.51100000000E-03 0. -1.
         11    1    1    0    0    0 -0.12124700287E+02  0.22060693652E+02  0.23244035977E+02  0.34263213075E+02  0.51100000000E-03 0.  1.
         22    1    1    0    0    0  0.22114654788E+02 -0.40242345924E+02 -0.42399830588E+02  0.62499999967E+02  0.00000000000E+00 0.  1.
</event>
<event>
 4    1  0.1956828E-002  0.9118800E+02  0.7818608E-02  0.1130116E+00
         25   -1    0    0    0    0  0.00000000000E+00  0.00000000000E+00  0.99999998245E-14  0.12500000000E+03  0.12500000000E+03 0.  0.
        -11    1    1    0    0    0 -0.37973339216E+02  0.34605720850E+02 -0.14120691542E+02  0.53281557191E+02  0.51100000000E-03 0. -1.
         11    1    1    0    0    0 -0.65709308265E+01  0.59851031572E+01 -0.24456290006E+01  0.92184431006E+01  0.51100000000E-03 0.  1.
         22    1    1    0    0    0  0.44544270043E+02 -0.40590824007E+02  0.16566320543E+02  0.62499999709E+02  0.00000000000E+00 0. -1.
</event>
<event>
 4    1  0.1956828E-002  0.9118800E+02  0.7818608E-02  0.1130116E+00
         25   -1    0    0    0    0  0.00000000000E+00  0.00000000000E+00  0.99999998245E-14  0.12500000000E+03  0.12500000000E+03 0.  0.
        -11    1    1    0    0    0  0.11082843118E+02 -0.19145539153E+02 -0.44912249869E+01  0.22573262573E+02  0.51100000000E-03 0.  1.
         11    1    1    0    0    0  0.19729532605E+02 -0.33820952825E+02 -0.78127708854E+01  0.39926816752E+02  0.51100000000E-03 0. -1.
         22    1    1    0    0    0 -0.30812375722E+02  0.52966491978E+02  0.12303995872E+02  0.62499920676E+02  0.00000000000E+00 0. -1.
</event>
<event>
 4    1  0.1956828E-002  0.9118800E+02  0.7818608E-02  0.1130116E+00
         25   -1    0    0    0    0  0.00000000000E+00  0.00000000000E+00  0.99999998245E-14  0.12500000000E+03  0.12500000000E+03 0.  0.
        -11    1    1    0    0    0 -0.64424521706E+01  0.13210308724E+02  0.79210812429E+01  0.16696136525E+02  0.51100000000E-03 0. -1.
         11    1    1    0    0    0 -0.17664203182E+02  0.36251976022E+02  0.21720131533E+02  0.45803863960E+02  0.51100000000E-03 0.  1.
         22    1    1    0    0    0  0.24106655353E+02 -0.49462284746E+02 -0.29641212776E+02  0.62499999515E+02  0.00000000000E+00 0.  1.
</event>
<event>
 4    1  0.1956828E-002  0.9118800E+02  0.7818608E-02  0.1130116E+00
         25   -1    0    0    0    0  0.00000000000E+00  0.00000000000E+00  0.99999998245E-14  0.12500000000E+03  0.12500000000E+03 0.  0.
        -11    1    1    0    0    0 -0.12783135873E+02  0.42121171329E+02  0.74874645685E+01  0.44650462067E+02  0.51100000000E-03 0.  1.
         11    1    1    0    0    0 -0.11476825271E+01  0.17353125278E+02  0.48013225831E+01  0.18041641580E+02  0.51100000000E-03 0. -1.
         22    1    1    0    0    0  0.13930818400E+02 -0.59474296607E+02 -0.12288787152E+02  0.62307896353E+02  0.00000000000E+00 0.  1.
</event>
<event>
 4    1  0.1956828E-002  0.9118800E+02  0.7818608E-02  0.1130116E+00
         25   -1    0    0    0    0  0.00000000000E+00  0.00000000000E+00  0.99999998245E-14  0.12500000000E+03  0.12500000000E+03 0.  0.
        -11    1    1    0    0    0  0.54016159542E+01  0.15757596458E+02  0.15341431662E+02  0.22645945040E+02  0.51100000000E-03 0. -1.
         11    1    1    0    0    0  0.60820705219E+01  0.22317186306E+02  0.32658181102E+02  0.40020059715E+02  0.51100000000E-03 0.  1.
         22    1    1    0    0    0 -0.11483686476E+02 -0.38074782764E+02 -0.47999612764E+02  0.62333995245E+02  0.00000000000E+00 0.  1.
</event>
<event>
 4    1  0.1956828E-002  0.9118800E+02  0.7818608E-02  0.1130116E+00
         25   -1    0    0    0    0  0.00000000000E+00  0.00000000000E+00  0.99999998245E-14  0.12500000000E+03  0.12500000000E+03 0.  0.
        -11    1    1    0    0    0 -0.95957449894E+01 -0.27698191914E+02 -0.17094225372E+01  0.29363076863E+02  0.51100000000E-03 0. -1.
         11    1    1    0    0    0 -0.10832630458E+02 -0.31254922375E+02 -0.19595516185E+01  0.33136926504E+02  0.51100000000E-03 0.  1.
         22    1    1    0    0    0  0.20428375448E+02  0.58953114289E+02  0.36689741557E+01  0.62499996633E+02  0.00000000000E+00 0.  1.
</event>
<event>
 4    1  0.1956828E-002  0.9118800E+02  0.7818608E-02  0.1130116E+00
         25   -1    0    0    0    0  0.00000000000E+00  0.00000000000E+00  0.99999998245E-14  0.12500000000E+03  0.12500000000E+03 0.  0.
        -11    1    1    0    0    0  0.14645450410E+02  0.36938095196E+01  0.75616282257E+01  0.16891171308E+02  0.51100000000E-03 0.  1.
         11    1    1    0    0    0  0.39549758270E+02  0.99630808257E+01  0.20413694347E+02  0.45608828925E+02  0.51100000000E-03 0.  1.
         22    1    1    0    0    0 -0.54195208680E+02 -0.13656890345E+02 -0.27975322573E+02  0.62499999767E+02  0.00000000000E+00 0.  1.
</event>
<event>
 4    1  0.1956828E-002  0.9118800E+02  0.7818608E-02  0.1130116E+00
         25   -1    0    0    0    0  0.00000000000E+00  0.00000000000E+00  0.99999998245E-14  0.12500000000E+03  0.12500000000E+03 0.  0.
        -11    1    1    0    0    0 -0.52667558531E+01 -0.72527177168E+01 -0.13207285573E+00  0.89642665621E+01  0.51100000000E-03 0.  1.
         11    1    1    0    0    0 -0.31501102586E+02 -0.43276318721E+02 -0.95804382668E+00  0.53535755103E+02  0.51100000000E-03 0. -1.
         22    1    1    0    0    0  0.36767858439E+02  0.50529036438E+02  0.10901166824E+01  0.62499978335E+02  0.00000000000E+00 0. -1.
</event>
<event>
 4    1  0.1956828E-002  0.9118800E+02  0.7818608E-02  0.1130116E+00
         25   -1    0    0    0    0  0.00000000000E+00  0.00000000000E+00  0.99999998245E-14  0.12500000000E+03  0.12500000000E+03 0.  0.
        -11    1    1    0    0    0  0.71935221672E+01 -0.18667432531E+02  0.13926927072E+02  0.24375789144E+02  0.51100000000E-03 0. -1.
         11    1    1    0    0    0  0.10904821957E+02 -0.29550437046E+02  0.21479702305E+02  0.38125071579E+02  0.51100000000E-03 0.  1.
         22    1    1    0    0    0 -0.18098344124E+02  0.48217869576E+02 -0.35406629377E+02  0.62499139277E+02  0.00000000000E+00 0. -1.
</event>
<event>
 4    1  0.1956828E-002  0.9118800E+02  0.7818608E-02  0.1130116E+00
         25   -1    0    0    0    0  0.00000000000E+00  0.00000000000E+00  0.99999998245E-14  0.12500000000E+03  0.12500000000E+03 0.  0.
        -11    1    1    0    0    0  0.23224350272E+01  0.36656041417E+02  0.28822109584E+02  0.46688039989E+02  0.51100000000E-03 0. -1.
         11    1    1    0    0    0  0.83142100069E+00  0.12418707034E+02  0.97520933411E+01  0.15811985014E+02  0.51100000000E-03 0.  1.
         22    1    1    0    0    0 -0.31538560279E+01 -0.49074748451E+02 -0.38574202926E+02  0.62499974998E+02  0.00000000000E+00 0. -1.
</event>
<event>
 4    1  0.1956828E-002  0.9118800E+02  0.7818608E-02  0.1130116E+00
         25   -1    0    0    0    0  0.00000000000E+00  0.00000000000E+00  0.99999998245E-14  0.12500000000E+03  0.12500000000E+03 0.  0.
        -11    1    1    0    0    0 -0.47258907750E+02  0.89524412372E+01  0.70070620078E+01  0.48607092940E+02  0.51100000000E-03 0. -1.
         11    1    1    0    0    0 -0.13513889642E+02  0.25233898235E+01  0.20051588877E+01  0.13892925246E+02  0.51100000000E-03 0.  1.
         22    1    1    0    0    0  0.60772797392E+02 -0.11475831061E+02 -0.90122208955E+01  0.62499981815E+02  0.00000000000E+00 0.  1.
</event>
<event>
 4    1  0.1956828E-002  0.9118800E+02  0.7818608E-02  0.1130116E+00
         25   -1    0    0    0    0  0.00000000000E+00  0.00000000000E+00  0.99999998245E-14  0.12500000000E+03  0.12500000000E+03 0.  0.
        -11    1    1    0    0    0 -0.76360897451E+01 -0.95343375218E+00 -0.23566698677E+02  0.24791292610E+02  0.51100000000E-03 0. -1.
         11    1    1    0    0    0 -0.12116227688E+02 -0.19377280407E+01 -0.35657998510E+02  0.37710086467E+02  0.51100000000E-03 0.  1.
         22    1    1    0    0    0  0.19752317433E+02  0.28911617929E+01  0.59224697186E+02  0.62498620923E+02  0.00000000000E+00 0. -1.
</event>
<event>
 4    1  0.1956828E-002  0.9118800E+02  0.7818608E-02  0.1130116E+00
         25   -1    0    0    0    0  0.00000000000E+00  0.00000000000E+00  0.99999998245E-14  0.12500000000E+03  0.12500000000E+03 0.  0.
        -11    1    1    0    0    0 -0.20010551590E+02  0.15982607473E+02  0.26961092223E+01  0.25751406210E+02  0.51100000000E-03 0. -1.
         11    1    1    0    0    0 -0.30696895066E+02  0.17946174051E+02  0.99847378244E+01  0.36933176406E+02  0.51100000000E-03 0.  1.
         22    1    1    0    0    0  0.50707446656E+02 -0.33928781523E+02 -0.12680847047E+02  0.62315417385E+02  0.00000000000E+00 0.  1.
</event>
<event>
 4    1  0.1956828E-002  0.9118800E+02  0.7818608E-02  0.1130116E+00
         25   -1    0    0    0    0  0.00000000000E+00  0.00000000000E+00  0.99999998245E-14  0.12500000000E+03  0.12500000000E+03 0.  0.
        -11    1    1    0    0    0  0.29474125417E+02 -0.33470391060E+02  0.35887134601E+02  0.57244017827E+02  0.51100000000E-03 0.  1.
         11    1    1    0    0    0  0.57397339204E+00 -0.44103509079E+01  0.32842089391E+01  0.55287131597E+01  0.51100000000E-03 0. -1.
         22    1    1    0    0    0 -0.30048098809E+02  0.37880741968E+02 -0.39171343540E+02  0.62227269013E+02  0.00000000000E+00 0.  1.
</event>
<event>
 4    1  0.1956828E-002  0.9118800E+02  0.7818608E-02  0.1130116E+00
         25   -1    0    0    0    0  0.00000000000E+00  0.00000000000E+00  0.99999998245E-14  0.12500000000E+03  0.12500000000E+03 0.  0.
        -11    1    1    0    0    0  0.65171244442E+01 -0.60241649763E+01  0.80826578784E+01  0.12003867432E+02  0.51100000000E-03 0. -1.
         11    1    1    0    0    0  0.26652776996E+02 -0.25784078101E+02  0.34274655836E+02  0.50496942859E+02  0.51100000000E-03 0.  1.
         22    1    1    0    0    0 -0.33169901440E+02  0.31808243078E+02 -0.42357313714E+02  0.62499189709E+02  0.00000000000E+00 0.  1.
</event>
<event>
 4    1  0.1956828E-002  0.9118800E+02  0.7818608E-02  0.1130116E+00
         25   -1    0    0    0    0  0.00000000000E+00  0.00000000000E+00  0.99999998245E-14  0.12500000000E+03  0.12500000000E+03 0.  0.
        -11    1    1    0    0    0 -0.22036561514E+01 -0.32340521849E+01 -0.40698109213E+01  0.56461097372E+01  0.51100000000E-03 0.  1.
         11    1    1    0    0    0 -0.22176822295E+02 -0.32560945272E+02 -0.40991929070E+02  0.56853890397E+02  0.51100000000E-03 0. -1.
         22    1    1    0    0    0  0.24380478446E+02  0.35794997457E+02  0.45061739992E+02  0.62499999866E+02  0.00000000000E+00 0. -1.
</event>
<event>
 4    1  0.1956828E-002  0.9118800E+02  0.7818608E-02  0.1130116E+00
         25   -1    0    0    0    0  0.00000000000E+00  0.00000000000E+00  0.99999998245E-14  0.12500000000E+03  0.12500000000E+03 0.  0.
        -11    1    1    0    0    0 -0.31965629857E+02  0.14683809227E+02  0.40652865252E+01  0.35411047716E+02  0.51100000000E-03 0. -1.
         11    1    1    0    0    0 -0.24456382212E+02  0.11226957410E+02  0.31067905833E+01  0.27088952574E+02  0.51100000000E-03 0.  1.
         22    1    1    0    0    0  0.56422012069E+02 -0.25910766637E+02 -0.71720771085E+01  0.62499999709E+02  0.00000000000E+00 0. -1.
</event>
<event>
 4    1  0.1956828E-002  0.9118800E+02  0.7818608E-02  0.1130116E+00
         25   -1    0    0    0    0  0.00000000000E+00  0.00000000000E+00  0.99999998245E-14  0.12500000000E+03  0.12500000000E+03 0.  0.
        -11    1    1    0    0    0  0.60424531596E+01 -0.77998109536E+01  0.12530355914E+02  0.15948608425E+02  0.51100000000E-03 0.  1.
         11    1    1    0    0    0  0.46465978021E+02 -0.15764259558E+02 -0.15397751046E+02  0.51426546942E+02  0.51100000000E-03 0. -1.
         22    1    1    0    0    0 -0.52508431180E+02  0.23564070511E+02  0.28673951320E+01  0.57624844633E+02  0.00000000000E+00 0. -1.
</event>
<event>
 4    1  0.1956828E-002  0.9118800E+02  0.7818608E-02  0.1130116E+00
         25   -1    0    0    0    0  0.00000000000E+00  0.00000000000E+00  0.99999998245E-14  0.12500000000E+03  0.12500000000E+03 0.  0.
        -11    1    1    0    0    0  0.30401700030E+01  0.33800363169E+01  0.66290589533E+00  0.45942054414E+01  0.51100000000E-03 0. -1.
         11    1    1    0    0    0  0.38321169086E+02  0.42598396552E+02  0.83633521571E+01  0.57905794601E+02  0.51100000000E-03 0.  1.
         22    1    1    0    0    0 -0.41361339089E+02 -0.45978432868E+02 -0.90262580524E+01  0.62499999957E+02  0.00000000000E+00 0.  1.
</event>
<event>
 4    1  0.1956828E-002  0.9118800E+02  0.7818608E-02  0.1130116E+00
         25   -1    0    0    0    0  0.00000000000E+00  0.00000000000E+00  0.99999998245E-14  0.12500000000E+03  0.12500000000E+03 0.  0.
        -11    1    1    0    0    0 -0.42576086032E+01  0.38040213206E+01  0.21309132717E+01  0.60941448012E+01  0.51100000000E-03 0. -1.
         11    1    1    0    0    0 -0.39415071810E+02  0.35223126907E+02  0.19682582145E+02  0.56405856035E+02  0.51100000000E-03 0.  1.
         22    1    1    0    0    0  0.43672680413E+02 -0.39027148227E+02 -0.21813495417E+02  0.62499999164E+02  0.00000000000E+00 0. -1.
</event>
<event>
 4    1  0.1956828E-002  0.9118800E+02  0.7818608E-02  0.1130116E+00
         25   -1    0    0    0    0  0.00000000000E+00  0.00000000000E+00  0.99999998245E-14  0.12500000000E+03  0.12500000000E+03 0.  0.
        -11    1    1    0    0    0 -0.92061388817E+01 -0.43521054626E+01 -0.29164415814E+01  0.10592424030E+02  0.51100000000E-03 0. -1.
         11    1    1    0    0    0 -0.45233137263E+02 -0.20788146340E+02 -0.14705544470E+02  0.51907964450E+02  0.51100000000E-03 0.  1.
         22    1    1    0    0    0  0.54439276145E+02  0.25140251802E+02  0.17621986051E+02  0.62499611521E+02  0.00000000000E+00 0.  1.
</event>
<event>
 4    1  0.1956828E-002  0.9118800E+02  0.7818608E-02  0.1130116E+00
         25   -1    0    0    0    0  0.00000000000E+00  0.00000000000E+00  0.99999998245E-14  0.12500000000E+03  0.12500000000E+03 0.  0.
        -11    1    1    0    0    0  0.14982848065E+02 -0.63218989559E+01  0.17492034838E+01  0.16355789667E+02  0.51100000000E-03 0.  1.
         11    1    1    0    0    0  0.42275698274E+02 -0.17826113754E+02  0.49277960200E+01  0.46144210580E+02  0.51100000000E-03 0. -1.
         22    1    1    0    0    0 -0.57258546339E+02  0.24148012710E+02 -0.66769995038E+01  0.62499999753E+02  0.00000000000E+00 0. -1.
</event>
<event>
 4    1  0.1956828E-002  0.9118800E+02  0.7818608E-02  0.1130116E+00
         25   -1    0    0    0    0  0.00000000000E+00  0.00000000000E+00  0.99999998245E-14  0.12500000000E+03  0.12500000000E+03 0.  0.
        -11    1    1    0    0    0  0.10789000218E+02 -0.27741012773E+02  0.20156753631E+02  0.35948032388E+02  0.51100000000E-03 0. -1.
         11    1    1    0    0    0  0.80307481589E+01 -0.20733078040E+02  0.14515904412E+02  0.26553058622E+02  0.51100000000E-03 0.  1.
         22    1    1    0    0    0 -0.18819748376E+02  0.48474090813E+02 -0.34672658044E+02  0.62498908990E+02  0.00000000000E+00 0. -1.
</event>
<event>
 4    1  0.1956828E-002  0.9118800E+02  0.7818608E-02  0.1130116E+00
         25   -1    0    0    0    0  0.00000000000E+00  0.00000000000E+00  0.99999998245E-14  0.12500000000E+03  0.12500000000E+03 0.  0.
        -11    1    1    0    0    0  0.13279188463E+02 -0.51070068390E+02 -0.10941640703E+02  0.53890706370E+02  0.51100000000E-03 0. -1.
         11    1    1    0    0    0 -0.16413511025E+02  0.70801264303E+01  0.19209002022E+02  0.26239613057E+02  0.51100000000E-03 0.  1.
         22    1    1    0    0    0  0.31343225619E+01  0.43989941959E+02 -0.82673613191E+01  0.44869680573E+02  0.00000000000E+00 0. -1.
</event>
<event>
 4    1  0.1956828E-002  0.9118800E+02  0.7818608E-02  0.1130116E+00
         25   -1    0    0    0    0  0.00000000000E+00  0.00000000000E+00  0.99999998245E-14  0.12500000000E+03  0.12500000000E+03 0.  0.
        -11    1    1    0    0    0 -0.11999928810E+01  0.34018103923E+01  0.46616450493E+01  0.58943389524E+01  0.51100000000E-03 0.  1.
         11    1    1    0    0    0 -0.13802423837E+02  0.33218788738E+02  0.43709471354E+02  0.56608415587E+02  0.51100000000E-03 0. -1.
         22    1    1    0    0    0  0.15002416718E+02 -0.36620599131E+02 -0.48371116403E+02  0.62497245460E+02  0.00000000000E+00 0. -1.
</event>
<event>
 4    1  0.1956828E-002  0.9118800E+02  0.7818608E-02  0.1130116E+00
         25   -1    0    0    0    0  0.00000000000E+00  0.00000000000E+00  0.99999998245E-14  0.12500000000E+03  0.12500000000E+03 0.  0.
        -11    1    1    0    0    0  0.18891906876E+02  0.36333998320E+02 -0.36421095767E+01  0.41113605312E+02  0.51100000000E-03 0.  1.
         11    1    1    0    0    0  0.99984263319E+01  0.10949321972E+02 -0.18937400727E+02  0.24051638766E+02  0.51100000000E-03 0. -1.
         22    1    1    0    0    0 -0.28890333208E+02 -0.47283320292E+02  0.22579510304E+02  0.59834755922E+02  0.00000000000E+00 0. -1.
</event>
<event>
 4    1  0.1956828E-002  0.9118800E+02  0.7818608E-02  0.1130116E+00
         25   -1    0    0    0    0  0.00000000000E+00  0.00000000000E+00  0.99999998245E-14  0.12500000000E+03  0.12500000000E+03 0.  0.
        -11    1    1    0    0    0  0.11513619766E+01 -0.52626624189E+01 -0.34417698089E+01  0.63927325781E+01  0.51100000000E-03 0.  1.
         11    1    1    0    0    0  0.64178357637E+01 -0.55238314132E+02  0.12412298537E+02  0.56978286384E+02  0.51100000000E-03 0. -1.
         22    1    1    0    0    0 -0.75691977404E+01  0.60500976551E+02 -0.89705287277E+01  0.61628981038E+02  0.00000000000E+00 0. -1.
</event>
<event>
 4    1  0.1956828E-002  0.9118800E+02  0.7818608E-02  0.1130116E+00
         25   -1    0    0    0    0  0.00000000000E+00  0.00000000000E+00  0.99999998245E-14  0.12500000000E+03  0.12500000000E+03 0.  0.
        -11    1    1    0    0    0  0.30912016207E+01  0.58625487263E+01  0.15862091879E+02  0.17191014050E+02  0.51100000000E-03 0. -1.
         11    1    1    0    0    0  0.56314601724E+01  0.16662602640E+02  0.41768660790E+02  0.45320819662E+02  0.51100000000E-03 0.  1.
         22    1    1    0    0    0 -0.87226617930E+01 -0.22525151366E+02 -0.57630752669E+02  0.62488166288E+02  0.00000000000E+00 0.  1.
</event>
<event>
 4    1  0.1956828E-002  0.9118800E+02  0.7818608E-02  0.1130116E+00
         25   -1    0    0    0    0  0.00000000000E+00  0.00000000000E+00  0.99999998245E-14  0.12500000000E+03  0.12500000000E+03 0.  0.
        -11    1    1    0    0    0  0.24435762645E+02 -0.31211547084E+01 -0.63296169787E+01  0.25434467836E+02  0.51100000000E-03 0. -1.
         11    1    1    0    0    0  0.35385327306E+02 -0.54650754866E+01 -0.95955489065E+01  0.37068355746E+02  0.51100000000E-03 0.  1.
         22    1    1    0    0    0 -0.59821089950E+02  0.85862301950E+01  0.15925165885E+02  0.62497176418E+02  0.00000000000E+00 0. -1.
</event>
<event>
 4    1  0.1956828E-002  0.9118800E+02  0.7818608E-02  0.1130116E+00
         25   -1    0    0    0    0  0.00000000000E+00  0.00000000000E+00  0.99999998245E-14  0.12500000000E+03  0.12500000000E+03 0.  0.
        -11    1    1    0    0    0  0.23486391938E+02  0.14045978155E+02  0.28117867193E+02  0.39236648230E+02  0.51100000000E-03 0. -1.
         11    1    1    0    0    0  0.16125827579E+02  0.98955976976E+01  0.13720456443E+02  0.23371266422E+02  0.51100000000E-03 0.  1.
         22    1    1    0    0    0 -0.39612219517E+02 -0.23941575853E+02 -0.41838323636E+02  0.62392085348E+02  0.00000000000E+00 0.  1.
</event>
<event>
 4    1  0.1956828E-002  0.9118800E+02  0.7818608E-02  0.1130116E+00
         25   -1    0    0    0    0  0.00000000000E+00  0.00000000000E+00  0.99999998245E-14  0.12500000000E+03  0.12500000000E+03 0.  0.
        -11    1    1    0    0    0 -0.17061996008E+01 -0.50898218632E+01  0.29352729682E+01  0.61182702895E+01  0.51100000000E-03 0.  1.
         11    1    1    0    0    0 -0.15709764489E+02 -0.46923149472E+02  0.27024449049E+02  0.56381730226E+02  0.51100000000E-03 0. -1.
         22    1    1    0    0    0  0.17415964090E+02  0.52012971335E+02 -0.29959722017E+02  0.62499999485E+02  0.00000000000E+00 0. -1.
</event>
<event>
 4    1  0.1956828E-002  0.9118800E+02  0.7818608E-02  0.1130116E+00
         25   -1    0    0    0    0  0.00000000000E+00  0.00000000000E+00  0.99999998245E-14  0.12500000000E+03  0.12500000000E+03 0.  0.
        -11    1    1    0    0    0 -0.19340922018E+02 -0.15250098394E+02 -0.22435892271E+02  0.33316752960E+02  0.51100000000E-03 0.  1.
         11    1    1    0    0    0 -0.16944146774E+02 -0.13362712745E+02 -0.19646773834E+02  0.29183247320E+02  0.51100000000E-03 0. -1.
         22    1    1    0    0    0  0.36285068791E+02  0.28612811139E+02  0.42082666105E+02  0.62499999720E+02  0.00000000000E+00 0. -1.
</event>
<event>
 4    1  0.1956828E-002  0.9118800E+02  0.7818608E-02  0.1130116E+00
         25   -1    0    0    0    0  0.00000000000E+00  0.00000000000E+00  0.99999998245E-14  0.12500000000E+03  0.12500000000E+03 0.  0.
        -11    1    1    0    0    0 -0.28372948421E+02 -0.41348971360E+02 -0.27429309794E+01  0.50222358619E+02  0.51100000000E-03 0. -1.
         11    1    1    0    0    0 -0.56630288348E+00 -0.10272883211E+02 -0.98822258779E+01  0.14265735767E+02  0.51100000000E-03 0.  1.
         22    1    1    0    0    0  0.28939251305E+02  0.51621854570E+02  0.12625156857E+02  0.60511905614E+02  0.00000000000E+00 0. -1.
</event>
<event>
 4    1  0.1956828E-002  0.9118800E+02  0.7818608E-02  0.1130116E+00
         25   -1    0    0    0    0  0.00000000000E+00  0.00000000000E+00  0.99999998245E-14  0.12500000000E+03  0.12500000000E+03 0.  0.
        -11    1    1    0    0    0 -0.18025536759E+02 -0.26209495326E+02 -0.51308378696E+02  0.60368926985E+02  0.51100000000E-03 0.  1.
         11    1    1    0    0    0 -0.63056664555E+00 -0.92848297553E+00 -0.18115734358E+01  0.21310780147E+01  0.51100000000E-03 0. -1.
         22    1    1    0    0    0  0.18656103405E+02  0.27137978301E+02  0.53119952132E+02  0.62499995000E+02  0.00000000000E+00 0.  1.
</event>
<event>
 4    1  0.1956828E-002  0.9118800E+02  0.7818608E-02  0.1130116E+00
         25   -1    0    0    0    0  0.00000000000E+00  0.00000000000E+00  0.99999998245E-14  0.12500000000E+03  0.12500000000E+03 0.  0.
        -11    1    1    0    0    0  0.20499210542E+02 -0.44514468430E+02 -0.61148069286E+01  0.49387715036E+02  0.51100000000E-03 0.  1.
         11    1    1    0    0    0  0.39086782429E+01 -0.12205692587E+02  0.52704687248E+01  0.13857652687E+02  0.51100000000E-03 0. -1.
         22    1    1    0    0    0 -0.24407888785E+02  0.56720161017E+02  0.84433820388E+00  0.61754632278E+02  0.00000000000E+00 0. -1.
</event>
<event>
 4    1  0.1956828E-002  0.9118800E+02  0.7818608E-02  0.1130116E+00
         25   -1    0    0    0    0  0.00000000000E+00  0.00000000000E+00  0.99999998245E-14  0.12500000000E+03  0.12500000000E+03 0.  0.
        -11    1    1    0    0    0  0.13127688109E+02  0.13701927528E+01 -0.29276963335E+02  0.32114703885E+02  0.51100000000E-03 0.  1.
         11    1    1    0    0    0  0.12694793845E+02  0.13374267066E+01 -0.27574327329E+02  0.30385687895E+02  0.51100000000E-03 0. -1.
         22    1    1    0    0    0 -0.25822481954E+02 -0.27076194595E+01  0.56851290664E+02  0.62499608219E+02  0.00000000000E+00 0.  1.
</event>
<event>
 4    1  0.1956828E-002  0.9118800E+02  0.7818608E-02  0.1130116E+00
         25   -1    0    0    0    0  0.00000000000E+00  0.00000000000E+00  0.99999998245E-14  0.12500000000E+03  0.12500000000E+03 0.  0.
        -11    1    1    0    0    0 -0.37603009749E+02  0.11145886896E+02 -0.27017054031E+02  0.47624976070E+02  0.51100000000E-03 0. -1.
         11    1    1    0    0    0 -0.11743481981E+02  0.34956276100E+01 -0.84343133111E+01  0.14875026814E+02  0.51100000000E-03 0.  1.
         22    1    1    0    0    0  0.49346491730E+02 -0.14641514506E+02  0.35451367342E+02  0.62499997116E+02  0.00000000000E+00 0. -1.
</event>
<event>
 4    1  0.1956828E-002  0.9118800E+02  0.7818608E-02  0.1130116E+00
         25   -1    0    0    0    0  0.00000000000E+00  0.00000000000E+00  0.99999998245E-14  0.12500000000E+03  0.12500000000E+03 0.  0.
        -11    1    1    0    0    0  0.19142700382E+01  0.21453046910E+01  0.19993387828E+00  0.28821408385E+01  0.51100000000E-03 0. -1.
         11    1    1    0    0    0  0.44683386954E+02  0.36827291737E+02 -0.14539367615E+02  0.59701320733E+02  0.51100000000E-03 0.  1.
         22    1    1    0    0    0 -0.46597656993E+02 -0.38972596427E+02  0.14339433737E+02  0.62416538428E+02  0.00000000000E+00 0.  1.
</event>
<event>
 4    1  0.1956828E-002  0.9118800E+02  0.7818608E-02  0.1130116E+00
         25   -1    0    0    0    0  0.00000000000E+00  0.00000000000E+00  0.99999998245E-14  0.12500000000E+03  0.12500000000E+03 0.  0.
        -11    1    1    0    0    0 -0.44163848829E+01 -0.18389268681E+02 -0.41885769900E+02  0.45957451827E+02  0.51100000000E-03 0.  1.
         11    1    1    0    0    0 -0.15903312055E+01 -0.66198257542E+01 -0.15076626079E+02  0.16542548187E+02  0.51100000000E-03 0.  1.
         22    1    1    0    0    0  0.60067160884E+01  0.25009094435E+02  0.56962395978E+02  0.62499999986E+02  0.00000000000E+00 0.  1.
</event>
<event>
 4    1  0.1956828E-002  0.9118800E+02  0.7818608E-02  0.1130116E+00
         25   -1    0    0    0    0  0.00000000000E+00  0.00000000000E+00  0.99999998245E-14  0.12500000000E+03  0.12500000000E+03 0.  0.
        -11    1    1    0    0    0  0.15520462360E+02  0.18216173917E+01  0.29414726402E+00  0.15629765343E+02  0.51100000000E-03 0.  1.
         11    1    1    0    0    0  0.46545476302E+02  0.54433776637E+01  0.84108865064E+00  0.46870237411E+02  0.51100000000E-03 0. -1.
         22    1    1    0    0    0 -0.62065938662E+02 -0.72649950554E+01 -0.11352359147E+01  0.62499997246E+02  0.00000000000E+00 0. -1.
</event>
<event>
 4    1  0.1956828E-002  0.9118800E+02  0.7818608E-02  0.1130116E+00
         25   -1    0    0    0    0  0.00000000000E+00  0.00000000000E+00  0.99999998245E-14  0.12500000000E+03  0.12500000000E+03 0.  0.
        -11    1    1    0    0    0 -0.25317357717E+02  0.20576999617E+02 -0.19570906603E+02  0.38044735517E+02  0.51100000000E-03 0. -1.
         11    1    1    0    0    0 -0.16279096836E+02  0.13228917463E+02 -0.12571664213E+02  0.24455265126E+02  0.51100000000E-03 0.  1.
         22    1    1    0    0    0  0.41596454553E+02 -0.33805917080E+02  0.32142570816E+02  0.62499999357E+02  0.00000000000E+00 0.  1.
</event>
<event>
 4    1  0.1956828E-002  0.9118800E+02  0.7818608E-02  0.1130116E+00
         25   -1    0    0    0    0  0.00000000000E+00  0.00000000000E+00  0.99999998245E-14  0.12500000000E+03  0.12500000000E+03 0.  0.
        -11    1    1    0    0    0  0.46716066974E+02 -0.10024902774E+02  0.11004642738E+02  0.49030518570E+02  0.51100000000E-03 0.  1.
         11    1    1    0    0    0  0.13518336921E+02 -0.19701437863E+01 -0.57631018996E+00  0.13673296360E+02  0.51100000000E-03 0. -1.
         22    1    1    0    0    0 -0.60234403895E+02  0.11995046560E+02 -0.10428332548E+02  0.62296185070E+02  0.00000000000E+00 0.  1.
</event>
<event>
 4    1  0.1956828E-002  0.9118800E+02  0.7818608E-02  0.1130116E+00
         25   -1    0    0    0    0  0.00000000000E+00  0.00000000000E+00  0.99999998245E-14  0.12500000000E+03  0.12500000000E+03 0.  0.
        -11    1    1    0    0    0  0.32615940075E+02 -0.10198851296E+02 -0.38442073706E+02  0.51435485279E+02  0.51100000000E-03 0. -1.
         11    1    1    0    0    0  0.63568494962E+01 -0.26803779469E+01 -0.86701779673E+01  0.11079979589E+02  0.51100000000E-03 0.  1.
         22    1    1    0    0    0 -0.38972789571E+02  0.12879229243E+02  0.47112251674E+02  0.62484535132E+02  0.00000000000E+00 0. -1.
</event>
<event>
 4    1  0.1956828E-002  0.9118800E+02  0.7818608E-02  0.1130116E+00
         25   -1    0    0    0    0  0.00000000000E+00  0.00000000000E+00  0.99999998245E-14  0.12500000000E+03  0.12500000000E+03 0.  0.
        -11    1    1    0    0    0  0.47600222385E+02  0.38729078651E+01 -0.11520957697E+02  0.49127518286E+02  0.51100000000E-03 0. -1.
         11    1    1    0    0    0  0.12956703116E+02  0.10540508889E+01 -0.31362538476E+01  0.13372481721E+02  0.51100000000E-03 0. -1.
         22    1    1    0    0    0 -0.60556925502E+02 -0.49269587540E+01  0.14657211544E+02  0.62499999992E+02  0.00000000000E+00 0. -1.
</event>
<event>
 4    1  0.1956828E-002  0.9118800E+02  0.7818608E-02  0.1130116E+00
         25   -1    0    0    0    0  0.00000000000E+00  0.00000000000E+00  0.99999998245E-14  0.12500000000E+03  0.12500000000E+03 0.  0.
        -11    1    1    0    0    0 -0.21493835487E+02 -0.33831194664E+00  0.34531802187E+02  0.40676095947E+02  0.51100000000E-03 0.  1.
         11    1    1    0    0    0 -0.10112263676E+02  0.25859544422E+02  0.43340310291E+01  0.28102628695E+02  0.51100000000E-03 0. -1.
         22    1    1    0    0    0  0.31606099163E+02 -0.25521232475E+02 -0.38865833216E+02  0.56221275358E+02  0.00000000000E+00 0.  1.
</event>
<event>
 4    1  0.1956828E-002  0.9118800E+02  0.7818608E-02  0.1130116E+00
         25   -1    0    0    0    0  0.00000000000E+00  0.00000000000E+00  0.99999998245E-14  0.12500000000E+03  0.12500000000E+03 0.  0.
        -11    1    1    0    0    0  0.52926571211E+01  0.13003467764E+01  0.50589246619E+01  0.74361172756E+01  0.51100000000E-03 0. -1.
         11    1    1    0    0    0  0.39105708423E+02  0.10480985613E+02  0.37322492636E+02  0.55064289222E+02  0.51100000000E-03 0.  1.
         22    1    1    0    0    0 -0.44398365544E+02 -0.11781332389E+02 -0.42381417298E+02  0.62499593503E+02  0.00000000000E+00 0.  1.
</event>
<event>
 4    1  0.1956828E-002  0.9118800E+02  0.7818608E-02  0.1130116E+00
         25   -1    0    0    0    0  0.00000000000E+00  0.00000000000E+00  0.99999998245E-14  0.12500000000E+03  0.12500000000E+03 0.  0.
        -11    1    1    0    0    0  0.36680089696E+02  0.63851146859E+01 -0.99495032620E+01  0.38538179576E+02  0.51100000000E-03 0.  1.
         11    1    1    0    0    0  0.22269731653E+02 -0.52943899078E+01 -0.89035234592E+01  0.24561030977E+02  0.51100000000E-03 0. -1.
         22    1    1    0    0    0 -0.58949821349E+02 -0.10907247780E+01  0.18853026721E+02  0.61900789447E+02  0.00000000000E+00 0.  1.
</event>
<event>
 4    1  0.1956828E-002  0.9118800E+02  0.7818608E-02  0.1130116E+00
         25   -1    0    0    0    0  0.00000000000E+00  0.00000000000E+00  0.99999998245E-14  0.12500000000E+03  0.12500000000E+03 0.  0.
        -11    1    1    0    0    0  0.29839665138E+02  0.10674712489E+02  0.19303379668E+02  0.37107621443E+02  0.51100000000E-03 0.  1.
         11    1    1    0    0    0  0.12715506369E+01  0.10201564246E+02  0.26671704136E+02  0.28584411064E+02  0.51100000000E-03 0. -1.
         22    1    1    0    0    0 -0.31111215775E+02 -0.20876276735E+02 -0.45975083804E+02  0.59307967493E+02  0.00000000000E+00 0.  1.
</event>
<event>
 4    1  0.1956828E-002  0.9118800E+02  0.7818608E-02  0.1130116E+00
         25   -1    0    0    0    0  0.00000000000E+00  0.00000000000E+00  0.99999998245E-14  0.12500000000E+03  0.12500000000E+03 0.  0.
        -11    1    1    0    0    0 -0.98295443814E+01  0.35742160049E+02 -0.32848709059E+02  0.49529381531E+02  0.51100000000E-03 0. -1.
         11    1    1    0    0    0 -0.17147842191E+02  0.18430338945E+01 -0.22581304887E+01  0.17393804050E+02  0.51100000000E-03 0.  1.
         22    1    1    0    0    0  0.26977386573E+02 -0.37585193944E+02  0.35106839548E+02  0.58076814419E+02  0.00000000000E+00 0. -1.
</event>
<event>
 4    1  0.1956828E-002  0.9118800E+02  0.7818608E-02  0.1130116E+00
         25   -1    0    0    0    0  0.00000000000E+00  0.00000000000E+00  0.99999998245E-14  0.12500000000E+03  0.12500000000E+03 0.  0.
        -11    1    1    0    0    0  0.12304017655E+01 -0.24679218840E+01  0.87785572973E+01  0.92014996285E+01  0.51100000000E-03 0. -1.
         11    1    1    0    0    0 -0.41069414510E+00 -0.10520454210E+02  0.52299809409E+02  0.53349027086E+02  0.51100000000E-03 0.  1.
         22    1    1    0    0    0 -0.81970762041E+00  0.12988376094E+02 -0.61078366707E+02  0.62449473286E+02  0.00000000000E+00 0.  1.
</event>
<event>
 4    1  0.1956828E-002  0.9118800E+02  0.7818608E-02  0.1130116E+00
         25   -1    0    0    0    0  0.00000000000E+00  0.00000000000E+00  0.99999998245E-14  0.12500000000E+03  0.12500000000E+03 0.  0.
        -11    1    1    0    0    0 -0.28005629292E+02 -0.26439524157E+02 -0.42171568990E+01  0.38744652822E+02  0.51100000000E-03 0.  1.
         11    1    1    0    0    0 -0.17183483654E+02 -0.16197357520E+02 -0.25865271640E+01  0.23755349380E+02  0.51100000000E-03 0. -1.
         22    1    1    0    0    0  0.45189112946E+02  0.42636881677E+02  0.68036840630E+01  0.62499997799E+02  0.00000000000E+00 0. -1.
</event>
<event>
 4    1  0.1956828E-002  0.9118800E+02  0.7818608E-02  0.1130116E+00
         25   -1    0    0    0    0  0.00000000000E+00  0.00000000000E+00  0.99999998245E-14  0.12500000000E+03  0.12500000000E+03 0.  0.
        -11    1    1    0    0    0 -0.28601353537E+01  0.17327028759E+02 -0.59555626397E+01  0.18543867625E+02  0.51100000000E-03 0. -1.
         11    1    1    0    0    0 -0.66875784074E+01  0.40955696282E+02 -0.14493900142E+02  0.43956409141E+02  0.51100000000E-03 0.  1.
         22    1    1    0    0    0  0.95477137611E+01 -0.58282725042E+02  0.20449462782E+02  0.62499723235E+02  0.00000000000E+00 0.  1.
</event>
<event>
 4    1  0.1956828E-002  0.9118800E+02  0.7818608E-02  0.1130116E+00
         25   -1    0    0    0    0  0.00000000000E+00  0.00000000000E+00  0.99999998245E-14  0.12500000000E+03  0.12500000000E+03 0.  0.
        -11    1    1    0    0    0 -0.25802875071E+02 -0.20278146683E+02 -0.27503967392E+02  0.42818918919E+02  0.51100000000E-03 0. -1.
         11    1    1    0    0    0 -0.11860177038E+02 -0.93191602109E+01 -0.12642563305E+02  0.19681081109E+02  0.51100000000E-03 0.  1.
         22    1    1    0    0    0  0.37663052109E+02  0.29597306894E+02  0.40146530697E+02  0.62499999973E+02  0.00000000000E+00 0. -1.
</event>
<event>
 4    1  0.1956828E-002  0.9118800E+02  0.7818608E-02  0.1130116E+00
         25   -1    0    0    0    0  0.00000000000E+00  0.00000000000E+00  0.99999998245E-14  0.12500000000E+03  0.12500000000E+03 0.  0.
        -11    1    1    0    0    0  0.14823174919E+02  0.18625354220E+02  0.57061185782E+01  0.24478360321E+02  0.51100000000E-03 0.  1.
         11    1    1    0    0    0  0.23029598607E+02  0.28924660702E+02  0.88682970044E+01  0.38021639901E+02  0.51100000000E-03 0. -1.
         22    1    1    0    0    0 -0.37852773526E+02 -0.47550014922E+02 -0.14574415583E+02  0.62499999778E+02  0.00000000000E+00 0. -1.
</event>
<event>
 4    1  0.1956828E-002  0.9118800E+02  0.7818608E-02  0.1130116E+00
         25   -1    0    0    0    0  0.00000000000E+00  0.00000000000E+00  0.99999998245E-14  0.12500000000E+03  0.12500000000E+03 0.  0.
        -11    1    1    0    0    0  0.91343601373E+01  0.10752049827E+02 -0.27896017227E+02  0.31260692378E+02  0.51100000000E-03 0. -1.
         11    1    1    0    0    0  0.91281992205E+01  0.10745676579E+02 -0.27876526950E+02  0.31239307630E+02  0.51100000000E-03 0. -1.
         22    1    1    0    0    0 -0.18262559358E+02 -0.21497726406E+02  0.55772544177E+02  0.62499999991E+02  0.00000000000E+00 0. -1.
</event>
<event>
 4    1  0.1956828E-002  0.9118800E+02  0.7818608E-02  0.1130116E+00
         25   -1    0    0    0    0  0.00000000000E+00  0.00000000000E+00  0.99999998245E-14  0.12500000000E+03  0.12500000000E+03 0.  0.
        -11    1    1    0    0    0  0.77304404955E+01  0.10408771673E+02 -0.21470212557E+01  0.13141991422E+02  0.51100000000E-03 0. -1.
         11    1    1    0    0    0  0.28360978925E+02  0.40025768670E+02 -0.55333546304E+01  0.49366236406E+02  0.51100000000E-03 0.  1.
         22    1    1    0    0    0 -0.36091419421E+02 -0.50434540343E+02  0.76803758861E+01  0.62491772172E+02  0.00000000000E+00 0.  1.
</event>
<event>
 4    1  0.1956828E-002  0.9118800E+02  0.7818608E-02  0.1130116E+00
         25   -1    0    0    0    0  0.00000000000E+00  0.00000000000E+00  0.99999998245E-14  0.12500000000E+03  0.12500000000E+03 0.  0.
        -11    1    1    0    0    0  0.58340191955E+00 -0.11252887824E+02 -0.58005888063E+02  0.59090192861E+02  0.51100000000E-03 0.  1.
         11    1    1    0    0    0  0.32243620945E-01 -0.65019067337E+00 -0.33470880386E+01  0.34098073497E+01  0.51100000000E-03 0. -1.
         22    1    1    0    0    0 -0.61564554049E+00  0.11903078498E+02  0.61352976101E+02  0.62499999789E+02  0.00000000000E+00 0.  1.
</event>
<event>
 4    1  0.1956828E-002  0.9118800E+02  0.7818608E-02  0.1130116E+00
         25   -1    0    0    0    0  0.00000000000E+00  0.00000000000E+00  0.99999998245E-14  0.12500000000E+03  0.12500000000E+03 0.  0.
        -11    1    1    0    0    0  0.47487663675E+02  0.13595247006E+02  0.36939895971E+02  0.61680344171E+02  0.51100000000E-03 0. -1.
         11    1    1    0    0    0  0.61605766242E+00  0.18616360938E+00  0.50785789427E+00  0.81981939157E+00  0.51100000000E-03 0.  1.
         22    1    1    0    0    0 -0.48103721338E+02 -0.13781410615E+02 -0.37447753865E+02  0.62499836437E+02  0.00000000000E+00 0. -1.
</event>
<event>
 4    1  0.1956828E-002  0.9118800E+02  0.7818608E-02  0.1130116E+00
         25   -1    0    0    0    0  0.00000000000E+00  0.00000000000E+00  0.99999998245E-14  0.12500000000E+03  0.12500000000E+03 0.  0.
        -11    1    1    0    0    0 -0.27494323843E+02 -0.35777288918E+02 -0.25071559251E+02  0.51619137241E+02  0.51100000000E-03 0.  1.
         11    1    1    0    0    0 -0.57941260454E+01 -0.75415234730E+01 -0.52864641556E+01  0.10880862854E+02  0.51100000000E-03 0. -1.
         22    1    1    0    0    0  0.33288449888E+02  0.43318812391E+02  0.30358023407E+02  0.62499999905E+02  0.00000000000E+00 0.  1.
</event>
<event>
 4    1  0.1956828E-002  0.9118800E+02  0.7818608E-02  0.1130116E+00
         25   -1    0    0    0    0  0.00000000000E+00  0.00000000000E+00  0.99999998245E-14  0.12500000000E+03  0.12500000000E+03 0.  0.
        -11    1    1    0    0    0  0.30683276405E+01  0.57894307567E+02  0.12827654217E+02  0.59377724747E+02  0.51100000000E-03 0. -1.
         11    1    1    0    0    0  0.16774444478E+00  0.30428638411E+01  0.67931982902E+00  0.31222802958E+01  0.51100000000E-03 0.  1.
         22    1    1    0    0    0 -0.32360720853E+01 -0.60937171408E+02 -0.13506974046E+02  0.62499994957E+02  0.00000000000E+00 0. -1.
</event>
<event>
 4    1  0.1956828E-002  0.9118800E+02  0.7818608E-02  0.1130116E+00
         25   -1    0    0    0    0  0.00000000000E+00  0.00000000000E+00  0.99999998245E-14  0.12500000000E+03  0.12500000000E+03 0.  0.
        -11    1    1    0    0    0  0.23664398359E+02 -0.56649717620E+01  0.34686767407E+02  0.42370596977E+02  0.51100000000E-03 0. -1.
         11    1    1    0    0    0  0.11451755150E+02  0.74579998240E+01  0.15935896443E+02  0.20993266852E+02  0.51100000000E-03 0.  1.
         22    1    1    0    0    0 -0.35116153508E+02 -0.17930280620E+01 -0.50622663851E+02  0.61636136172E+02  0.00000000000E+00 0. -1.
</event>
<event>
 4    1  0.1956828E-002  0.9118800E+02  0.7818608E-02  0.1130116E+00
         25   -1    0    0    0    0  0.00000000000E+00  0.00000000000E+00  0.99999998245E-14  0.12500000000E+03  0.12500000000E+03 0.  0.
        -11    1    1    0    0    0  0.13357627637E+01 -0.54926959249E+02  0.98503604761E+01  0.55819214580E+02  0.51100000000E-03 0.  1.
         11    1    1    0    0    0  0.46653322729E+00 -0.65456466579E+01  0.12711840352E+01  0.66842391141E+01  0.51100000000E-03 0. -1.
         22    1    1    0    0    0 -0.18022959909E+01  0.61472605907E+02 -0.11121544511E+02  0.62496546306E+02  0.00000000000E+00 0.  1.
</event>
<event>
 4    1  0.1956828E-002  0.9118800E+02  0.7818608E-02  0.1130116E+00
         25   -1    0    0    0    0  0.00000000000E+00  0.00000000000E+00  0.99999998245E-14  0.12500000000E+03  0.12500000000E+03 0.  0.
        -11    1    1    0    0    0  0.27845586624E+01 -0.68616185776E+01 -0.10305129443E+01  0.74764653172E+01  0.51100000000E-03 0.  1.
         11    1    1    0    0    0  0.20505959022E+02 -0.50486357298E+02 -0.76303923801E+01  0.55023536026E+02  0.51100000000E-03 0. -1.
         22    1    1    0    0    0 -0.23290517684E+02  0.57347975876E+02  0.86609053244E+01  0.62499998657E+02  0.00000000000E+00 0. -1.
</event>
<event>
 4    1  0.1956828E-002  0.9118800E+02  0.7818608E-02  0.1130116E+00
         25   -1    0    0    0    0  0.00000000000E+00  0.00000000000E+00  0.99999998245E-14  0.12500000000E+03  0.12500000000E+03 0.  0.
        -11    1    1    0    0    0 -0.18969932602E+02 -0.13912365748E+02  0.12681760259E+02  0.26725255979E+02  0.51100000000E-03 0. -1.
         11    1    1    0    0    0 -0.30898618157E+02  0.31855004491E+02 -0.38455995073E+01  0.44544972230E+02  0.51100000000E-03 0.  1.
         22    1    1    0    0    0  0.49868550759E+02 -0.17942638743E+02 -0.88361607521E+01  0.53729771791E+02  0.00000000000E+00 0.  1.
</event>
<event>
 4    1  0.1956828E-002  0.9118800E+02  0.7818608E-02  0.1130116E+00
         25   -1    0    0    0    0  0.00000000000E+00  0.00000000000E+00  0.99999998245E-14  0.12500000000E+03  0.12500000000E+03 0.  0.
        -11    1    1    0    0    0  0.41861488277E+02 -0.26182072153E+02  0.31177874773E+02  0.58394734168E+02  0.51100000000E-03 0. -1.
         11    1    1    0    0    0  0.29434587912E+01 -0.18413434727E+01  0.21905965140E+01  0.41052659826E+01  0.51100000000E-03 0. -1.
         22    1    1    0    0    0 -0.44804947068E+02  0.28023415625E+02 -0.33368471287E+02  0.62499999849E+02  0.00000000000E+00 0. -1.
</event>
<event>
 4    1  0.1956828E-002  0.9118800E+02  0.7818608E-02  0.1130116E+00
         25   -1    0    0    0    0  0.00000000000E+00  0.00000000000E+00  0.99999998245E-14  0.12500000000E+03  0.12500000000E+03 0.  0.
        -11    1    1    0    0    0  0.10090582696E+02  0.18998378955E+01 -0.10323422130E+01  0.10319640201E+02  0.51100000000E-03 0. -1.
         11    1    1    0    0    0  0.49210412338E+02  0.40695391095E+01 -0.17304353624E+02  0.52322714815E+02  0.51100000000E-03 0.  1.
         22    1    1    0    0    0 -0.59300995033E+02 -0.59693770050E+01  0.18336695837E+02  0.62357644984E+02  0.00000000000E+00 0.  1.
</event>
<event>
 4    1  0.1956828E-002  0.9118800E+02  0.7818608E-02  0.1130116E+00
         25   -1    0    0    0    0  0.00000000000E+00  0.00000000000E+00  0.99999998245E-14  0.12500000000E+03  0.12500000000E+03 0.  0.
        -11    1    1    0    0    0 -0.34343878138E+02  0.13076550914E+02 -0.49556410443E+02  0.61695510092E+02  0.51100000000E-03 0.  1.
         11    1    1    0    0    0 -0.80702060034E+00  0.67623821934E+00  0.55343371550E-01  0.10543450709E+01  0.51100000000E-03 0. -1.
         22    1    1    0    0    0  0.35150898738E+02 -0.13752789134E+02  0.49501067071E+02  0.62250144837E+02  0.00000000000E+00 0.  1.
</event>
<event>
 4    1  0.1956828E-002  0.9118800E+02  0.7818608E-02  0.1130116E+00
         25   -1    0    0    0    0  0.00000000000E+00  0.00000000000E+00  0.99999998245E-14  0.12500000000E+03  0.12500000000E+03 0.  0.
        -11    1    1    0    0    0  0.43406488291E+02  0.16159682924E+02 -0.38977082561E+02  0.60534878733E+02  0.51100000000E-03 0. -1.
         11    1    1    0    0    0  0.13148753556E+01  0.66569250426E+00 -0.13055227355E+01  0.19688660658E+01  0.51100000000E-03 0.  1.
         22    1    1    0    0    0 -0.44721363647E+02 -0.16825375429E+02  0.40282605296E+02  0.62496255201E+02  0.00000000000E+00 0. -1.
</event>
<event>
 4    1  0.1956828E-002  0.9118800E+02  0.7818608E-02  0.1130116E+00
         25   -1    0    0    0    0  0.00000000000E+00  0.00000000000E+00  0.99999998245E-14  0.12500000000E+03  0.12500000000E+03 0.  0.
        -11    1    1    0    0    0  0.12877101561E+02 -0.17195065423E+02 -0.30718354114E+02  0.37484760893E+02  0.51100000000E-03 0. -1.
         11    1    1    0    0    0 -0.71320064111E+01 -0.21921744351E+02 -0.14667887121E+02  0.27323530221E+02  0.51100000000E-03 0.  1.
         22    1    1    0    0    0 -0.57450951502E+01  0.39116809774E+02  0.45386241235E+02  0.60191708886E+02  0.00000000000E+00 0. -1.
</event>
<event>
 4    1  0.1956828E-002  0.9118800E+02  0.7818608E-02  0.1130116E+00
         25   -1    0    0    0    0  0.00000000000E+00  0.00000000000E+00  0.99999998245E-14  0.12500000000E+03  0.12500000000E+03 0.  0.
        -11    1    1    0    0    0 -0.73816361785E+01 -0.88854081294E+00  0.69168238001E+01  0.10154826891E+02  0.51100000000E-03 0. -1.
         11    1    1    0    0    0 -0.28491772420E+02  0.42132133971E+01  0.43929293783E+02  0.52529183463E+02  0.51100000000E-03 0.  1.
         22    1    1    0    0    0  0.35873408599E+02 -0.33246725841E+01 -0.50846117583E+02  0.62315989646E+02  0.00000000000E+00 0. -1.
</event>
<event>
 4    1  0.1956828E-002  0.9118800E+02  0.7818608E-02  0.1130116E+00
         25   -1    0    0    0    0  0.00000000000E+00  0.00000000000E+00  0.99999998245E-14  0.12500000000E+03  0.12500000000E+03 0.  0.
        -11    1    1    0    0    0 -0.54672545102E+02 -0.21598812727E+02 -0.53656731079E+01  0.59028690882E+02  0.51100000000E-03 0. -1.
         11    1    1    0    0    0 -0.32151673327E+01 -0.12700651203E+01 -0.31562713825E+00  0.34713091390E+01  0.51100000000E-03 0. -1.
         22    1    1    0    0    0  0.57887712434E+02  0.22868877848E+02  0.56813002462E+01  0.62499999979E+02  0.00000000000E+00 0. -1.
</event>
<event>
 4    1  0.1956828E-002  0.9118800E+02  0.7818608E-02  0.1130116E+00
         25   -1    0    0    0    0  0.00000000000E+00  0.00000000000E+00  0.99999998245E-14  0.12500000000E+03  0.12500000000E+03 0.  0.
        -11    1    1    0    0    0 -0.40920328037E+02 -0.16941439996E+02  0.11213128161E+02  0.45686101598E+02  0.51100000000E-03 0.  1.
         11    1    1    0    0    0 -0.15058334348E+02 -0.62355118543E+01  0.41318456454E+01  0.16813898718E+02  0.51100000000E-03 0. -1.
         22    1    1    0    0    0  0.55978662384E+02  0.23176951850E+02 -0.15344973806E+02  0.62499999684E+02  0.00000000000E+00 0.  1.
</event>
<event>
 4    1  0.1956828E-002  0.9118800E+02  0.7818608E-02  0.1130116E+00
         25   -1    0    0    0    0  0.00000000000E+00  0.00000000000E+00  0.99999998245E-14  0.12500000000E+03  0.12500000000E+03 0.  0.
        -11    1    1    0    0    0  0.29737604080E+02  0.28525817711E+02 -0.77678101694E+01  0.41933116359E+02  0.51100000000E-03 0.  1.
         11    1    1    0    0    0  0.14721534613E+02  0.13843997466E+02 -0.38249710775E+01  0.20567213015E+02  0.51100000000E-03 0. -1.
         22    1    1    0    0    0 -0.44459138693E+02 -0.42369815176E+02  0.11592781247E+02  0.62499670626E+02  0.00000000000E+00 0.  1.
</event>
<event>
 4    1  0.1956828E-002  0.9118800E+02  0.7818608E-02  0.1130116E+00
         25   -1    0    0    0    0  0.00000000000E+00  0.00000000000E+00  0.99999998245E-14  0.12500000000E+03  0.12500000000E+03 0.  0.
        -11    1    1    0    0    0  0.76324612319E+00 -0.61233932697E+01 -0.12832118222E+02  0.14238741100E+02  0.51100000000E-03 0. -1.
         11    1    1    0    0    0  0.52575368024E+00 -0.14265288052E+02 -0.46167885209E+02  0.48324408792E+02  0.51100000000E-03 0.  1.
         22    1    1    0    0    0 -0.12889998034E+01  0.20388681322E+02  0.59000003431E+02  0.62436850108E+02  0.00000000000E+00 0.  1.
</event>
<event>
 4    1  0.1956828E-002  0.9118800E+02  0.7818608E-02  0.1130116E+00
         25   -1    0    0    0    0  0.00000000000E+00  0.00000000000E+00  0.99999998245E-14  0.12500000000E+03  0.12500000000E+03 0.  0.
        -11    1    1    0    0    0 -0.24194182460E+02  0.13275480018E+02 -0.24029494185E+02  0.36592532376E+02  0.51100000000E-03 0.  1.
         11    1    1    0    0    0 -0.17459056841E+02  0.78244066833E+01 -0.17492340740E+02  0.25923386942E+02  0.51100000000E-03 0. -1.
         22    1    1    0    0    0  0.41653239301E+02 -0.21099886701E+02  0.41521834925E+02  0.62484080682E+02  0.00000000000E+00 0. -1.
</event>
<event>
 4    1  0.1956828E-002  0.9118800E+02  0.7818608E-02  0.1130116E+00
         25   -1    0    0    0    0  0.00000000000E+00  0.00000000000E+00  0.99999998245E-14  0.12500000000E+03  0.12500000000E+03 0.  0.
        -11    1    1    0    0    0 -0.50564720964E+02  0.17359122465E+02 -0.25178865976E+02  0.59094038879E+02  0.51100000000E-03 0.  1.
         11    1    1    0    0    0 -0.29463593589E+01  0.99205896335E+00 -0.13919535806E+01  0.34062808884E+01  0.51100000000E-03 0. -1.
         22    1    1    0    0    0  0.53511080323E+02 -0.18351181429E+02  0.26570819557E+02  0.62499680232E+02  0.00000000000E+00 0.  1.
</event>
<event>
 4    1  0.1956828E-002  0.9118800E+02  0.7818608E-02  0.1130116E+00
         25   -1    0    0    0    0  0.00000000000E+00  0.00000000000E+00  0.99999998245E-14  0.12500000000E+03  0.12500000000E+03 0.  0.
        -11    1    1    0    0    0 -0.17960409228E+01  0.59780204517E+00  0.12386937092E+02  0.12530735855E+02  0.51100000000E-03 0. -1.
         11    1    1    0    0    0 -0.22853131929E+02  0.43713849386E+02  0.18971919322E+02  0.52849787039E+02  0.51100000000E-03 0.  1.
         22    1    1    0    0    0  0.24649172851E+02 -0.44311651431E+02 -0.31358856414E+02  0.59619477106E+02  0.00000000000E+00 0.  1.
</event>
<event>
 4    1  0.1956828E-002  0.9118800E+02  0.7818608E-02  0.1130116E+00
         25   -1    0    0    0    0  0.00000000000E+00  0.00000000000E+00  0.99999998245E-14  0.12500000000E+03  0.12500000000E+03 0.  0.
        -11    1    1    0    0    0 -0.57174937691E+01  0.14614526019E+02  0.50648285897E+02  0.53023796265E+02  0.51100000000E-03 0.  1.
         11    1    1    0    0    0 -0.96814598267E+00  0.23226355409E+01  0.91381822908E+01  0.94783077783E+01  0.51100000000E-03 0. -1.
         22    1    1    0    0    0  0.66856397517E+01 -0.16937161560E+02 -0.59786468188E+02  0.62497895957E+02  0.00000000000E+00 0.  1.
</event>
<event>
 4    1  0.1956828E-002  0.9118800E+02  0.7818608E-02  0.1130116E+00
         25   -1    0    0    0    0  0.00000000000E+00  0.00000000000E+00  0.99999998245E-14  0.12500000000E+03  0.12500000000E+03 0.  0.
        -11    1    1    0    0    0 -0.12109362046E+02 -0.39614969605E+01 -0.32897569411E+01  0.13158746457E+02  0.51100000000E-03 0. -1.
         11    1    1    0    0    0 -0.46185948908E+02 -0.13625570440E+02 -0.10781395425E+02  0.49346089348E+02  0.51100000000E-03 0.  1.
         22    1    1    0    0    0  0.58295310954E+02  0.17587067401E+02  0.14071152366E+02  0.62495164196E+02  0.00000000000E+00 0.  1.
</event>
<event>
 4    1  0.1956828E-002  0.9118800E+02  0.7818608E-02  0.1130116E+00
         25   -1    0    0    0    0  0.00000000000E+00  0.00000000000E+00  0.99999998245E-14  0.12500000000E+03  0.12500000000E+03 0.  0.
        -11    1    1    0    0    0  0.59250488867E+01 -0.15662092394E+01 -0.21519301542E+01  0.64953844644E+01  0.51100000000E-03 0. -1.
         11    1    1    0    0    0  0.51077250632E+02 -0.13534061665E+02 -0.18559651338E+02  0.56004616018E+02  0.51100000000E-03 0.  1.
         22    1    1    0    0    0 -0.57002299519E+02  0.15100270904E+02  0.20711581492E+02  0.62499999518E+02  0.00000000000E+00 0.  1.
</event>
<event>
 4    1  0.1956828E-002  0.9118800E+02  0.7818608E-02  0.1130116E+00
         25   -1    0    0    0    0  0.00000000000E+00  0.00000000000E+00  0.99999998245E-14  0.12500000000E+03  0.12500000000E+03 0.  0.
        -11    1    1    0    0    0 -0.37021235728E+01 -0.14857980122E+02 -0.70464312627E+01  0.16855784944E+02  0.51100000000E-03 0.  1.
         11    1    1    0    0    0 -0.82938903787E+01 -0.37794737762E+02 -0.24311765145E+02  0.45697841797E+02  0.51100000000E-03 0. -1.
         22    1    1    0    0    0  0.11996013951E+02  0.52652717885E+02  0.31358196407E+02  0.62446373260E+02  0.00000000000E+00 0. -1.
</event>
<event>
 4    1  0.1956828E-002  0.9118800E+02  0.7818608E-02  0.1130116E+00
         25   -1    0    0    0    0  0.00000000000E+00  0.00000000000E+00  0.99999998245E-14  0.12500000000E+03  0.12500000000E+03 0.  0.
        -11    1    1    0    0    0 -0.32130529193E+02 -0.29446454317E+02  0.27945854343E+02  0.51772921042E+02  0.51100000000E-03 0.  1.
         11    1    1    0    0    0 -0.66832667219E+01 -0.60245519789E+01  0.58406081181E+01  0.10727254265E+02  0.51100000000E-03 0. -1.
         22    1    1    0    0    0  0.38813795915E+02  0.35471006295E+02 -0.33786462461E+02  0.62499824692E+02  0.00000000000E+00 0.  1.
</event>
<event>
 4    1  0.1956828E-002  0.9118800E+02  0.7818608E-02  0.1130116E+00
         25   -1    0    0    0    0  0.00000000000E+00  0.00000000000E+00  0.99999998245E-14  0.12500000000E+03  0.12500000000E+03 0.  0.
        -11    1    1    0    0    0  0.42437492993E+01  0.24953297231E+01  0.90393428898E+00  0.50053147755E+01  0.51100000000E-03 0.  1.
         11    1    1    0    0    0  0.48750777901E+02  0.28657355262E+02  0.10380581686E+02  0.57494685258E+02  0.51100000000E-03 0.  1.
         22    1    1    0    0    0 -0.52994527200E+02 -0.31152684985E+02 -0.11284515975E+02  0.62499999966E+02  0.00000000000E+00 0.  1.
</event>
<event>
 4    1  0.1956828E-002  0.9118800E+02  0.7818608E-02  0.1130116E+00
         25   -1    0    0    0    0  0.00000000000E+00  0.00000000000E+00  0.99999998245E-14  0.12500000000E+03  0.12500000000E+03 0.  0.
        -11    1    1    0    0    0  0.26059271617E+02 -0.30777623010E+01  0.81821271618E+01  0.27486459633E+02  0.51100000000E-03 0.  1.
         11    1    1    0    0    0  0.33069160148E+02 -0.60330378449E+01  0.98507861187E+01  0.35028629519E+02  0.51100000000E-03 0. -1.
         22    1    1    0    0    0 -0.59128431765E+02  0.91108001459E+01 -0.18032913280E+02  0.62484910848E+02  0.00000000000E+00 0. -1.
</event>
<event>
 4    1  0.1956828E-002  0.9118800E+02  0.7818608E-02  0.1130116E+00
         25   -1    0    0    0    0  0.00000000000E+00  0.00000000000E+00  0.99999998245E-14  0.12500000000E+03  0.12500000000E+03 0.  0.
        -11    1    1    0    0    0  0.30111918735E+02  0.30970882004E+02 -0.22533673821E+02  0.48720525840E+02  0.51100000000E-03 0.  1.
         11    1    1    0    0    0  0.85638701007E+01  0.87231247795E+01 -0.63594491006E+01  0.13779527210E+02  0.51100000000E-03 0. -1.
         22    1    1    0    0    0 -0.38675788836E+02 -0.39694006783E+02  0.28893122921E+02  0.62499946950E+02  0.00000000000E+00 0.  1.
</event>
<event>
 4    1  0.1956828E-002  0.9118800E+02  0.7818608E-02  0.1130116E+00
         25   -1    0    0    0    0  0.00000000000E+00  0.00000000000E+00  0.99999998245E-14  0.12500000000E+03  0.12500000000E+03 0.  0.
        -11    1    1    0    0    0 -0.35955140288E+01  0.58356242413E+02 -0.10011903594E+02  0.59317931214E+02  0.51100000000E-03 0.  1.
         11    1    1    0    0    0 -0.18659195448E+00  0.31320386550E+01 -0.53020870203E+00  0.31820754583E+01  0.51100000000E-03 0. -1.
         22    1    1    0    0    0  0.37821059833E+01 -0.61488281068E+02  0.10542112296E+02  0.62499993328E+02  0.00000000000E+00 0.  1.
</event>
<event>
 4    1  0.1956828E-002  0.9118800E+02  0.7818608E-02  0.1130116E+00
         25   -1    0    0    0    0  0.00000000000E+00  0.00000000000E+00  0.99999998245E-14  0.12500000000E+03  0.12500000000E+03 0.  0.
        -11    1    1    0    0    0  0.18131073347E+02 -0.40356158632E+02  0.37548305965E+02  0.58027843674E+02  0.51100000000E-03 0. -1.
         11    1    1    0    0    0  0.14556843311E+01 -0.30902276584E+01  0.28867709718E+01  0.44723562869E+01  0.51100000000E-03 0.  1.
         22    1    1    0    0    0 -0.19586757678E+02  0.43446386291E+02 -0.40435076937E+02  0.62499800040E+02  0.00000000000E+00 0. -1.
</event>
<event>
 4    1  0.1956828E-002  0.9118800E+02  0.7818608E-02  0.1130116E+00
         25   -1    0    0    0    0  0.00000000000E+00  0.00000000000E+00  0.99999998245E-14  0.12500000000E+03  0.12500000000E+03 0.  0.
        -11    1    1    0    0    0 -0.36754064307E+01 -0.57546132891E-02  0.11389028996E+02  0.11967398517E+02  0.51100000000E-03 0.  1.
         11    1    1    0    0    0 -0.16901826722E+02 -0.38884637604E+01  0.47480525166E+02  0.50548908665E+02  0.51100000000E-03 0. -1.
         22    1    1    0    0    0  0.20577233152E+02  0.38942183737E+01 -0.58869554162E+02  0.62483692818E+02  0.00000000000E+00 0. -1.
</event>
<event>
 4    1  0.1956828E-002  0.9118800E+02  0.7818608E-02  0.1130116E+00
         25   -1    0    0    0    0  0.00000000000E+00  0.00000000000E+00  0.99999998245E-14  0.12500000000E+03  0.12500000000E+03 0.  0.
        -11    1    1    0    0    0 -0.36760635684E+02  0.48135230003E+02 -0.66204027608E+01  0.60927616369E+02  0.51100000000E-03 0.  1.
         11    1    1    0    0    0 -0.95502293094E+00  0.12352334327E+01 -0.18622105421E+00  0.15724340921E+01  0.51100000000E-03 0. -1.
         22    1    1    0    0    0  0.37715658615E+02 -0.49370463436E+02  0.68066238150E+01  0.62499949539E+02  0.00000000000E+00 0.  1.
</event>
<event>
 4    1  0.1956828E-002  0.9118800E+02  0.7818608E-02  0.1130116E+00
         25   -1    0    0    0    0  0.00000000000E+00  0.00000000000E+00  0.99999998245E-14  0.12500000000E+03  0.12500000000E+03 0.  0.
        -11    1    1    0    0    0 -0.13452691767E+02  0.26563434693E+02 -0.11741148692E+02  0.32006960982E+02  0.51100000000E-03 0. -1.
         11    1    1    0    0    0 -0.24017432980E+02 -0.40192415881E+02  0.22132889322E+02  0.51789305569E+02  0.51100000000E-03 0.  1.
         22    1    1    0    0    0  0.37470124746E+02  0.13628981189E+02 -0.10391740630E+02  0.41203733448E+02  0.00000000000E+00 0.  1.
</event>
<event>
 4    1  0.1956828E-002  0.9118800E+02  0.7818608E-02  0.1130116E+00
         25   -1    0    0    0    0  0.00000000000E+00  0.00000000000E+00  0.99999998245E-14  0.12500000000E+03  0.12500000000E+03 0.  0.
        -11    1    1    0    0    0  0.16296165790E+02  0.13579226714E+02  0.72895618796E+01  0.22429849092E+02  0.51100000000E-03 0.  1.
         11    1    1    0    0    0  0.29111296665E+02  0.24259216561E+02  0.13024584958E+02  0.40070150926E+02  0.51100000000E-03 0.  1.
         22    1    1    0    0    0 -0.45407462455E+02 -0.37838443275E+02 -0.20314146837E+02  0.62499999982E+02  0.00000000000E+00 0.  1.
</event>
<event>
 4    1  0.1956828E-002  0.9118800E+02  0.7818608E-02  0.1130116E+00
         25   -1    0    0    0    0  0.00000000000E+00  0.00000000000E+00  0.99999998245E-14  0.12500000000E+03  0.12500000000E+03 0.  0.
        -11    1    1    0    0    0  0.14163295269E+02 -0.95970894671E+01  0.95968061116E+01  0.19616364264E+02  0.51100000000E-03 0.  1.
         11    1    1    0    0    0 -0.23229305023E+02 -0.38603275675E+02  0.18677759882E+02  0.48771633345E+02  0.51100000000E-03 0. -1.
         22    1    1    0    0    0  0.90660097536E+01  0.48200365142E+02 -0.28274565993E+02  0.56612002392E+02  0.00000000000E+00 0. -1.
</event>
<event>
 4    1  0.1956828E-002  0.9118800E+02  0.7818608E-02  0.1130116E+00
         25   -1    0    0    0    0  0.00000000000E+00  0.00000000000E+00  0.99999998245E-14  0.12500000000E+03  0.12500000000E+03 0.  0.
        -11    1    1    0    0    0 -0.64140958488E+01  0.28516656941E+01  0.14997020100E+02  0.16558479245E+02  0.51100000000E-03 0. -1.
         11    1    1    0    0    0 -0.17856114147E+02  0.76313747476E+01  0.41635989714E+02  0.45941640509E+02  0.51100000000E-03 0.  1.
         22    1    1    0    0    0  0.24270209996E+02 -0.10483040442E+02 -0.56633009814E+02  0.62499880245E+02  0.00000000000E+00 0.  1.
</event>
<event>
 4    1  0.1956828E-002  0.9118800E+02  0.7818608E-02  0.1130116E+00
         25   -1    0    0    0    0  0.00000000000E+00  0.00000000000E+00  0.99999998245E-14  0.12500000000E+03  0.12500000000E+03 0.  0.
        -11    1    1    0    0    0 -0.33061154422E+02  0.26766645466E-01 -0.46891350123E+02  0.57374553286E+02  0.51100000000E-03 0.  1.
         11    1    1    0    0    0 -0.29542615860E+01 -0.23761269409E-02 -0.41883824573E+01  0.51254477887E+01  0.51100000000E-03 0. -1.
         22    1    1    0    0    0  0.36015416008E+02 -0.24390518525E-01  0.51079732580E+02  0.62499998925E+02  0.00000000000E+00 0.  1.
</event>
<event>
 4    1  0.1956828E-002  0.9118800E+02  0.7818608E-02  0.1130116E+00
         25   -1    0    0    0    0  0.00000000000E+00  0.00000000000E+00  0.99999998245E-14  0.12500000000E+03  0.12500000000E+03 0.  0.
        -11    1    1    0    0    0 -0.23784769417E+02 -0.24662744583E+02  0.27939306444E+02  0.44210531228E+02  0.51100000000E-03 0. -1.
         11    1    1    0    0    0 -0.90448581724E+01 -0.10592934787E+02  0.11865733659E+02  0.18297960605E+02  0.51100000000E-03 0.  1.
         22    1    1    0    0    0  0.32829627590E+02  0.35255679370E+02 -0.39805040103E+02  0.62491508168E+02  0.00000000000E+00 0. -1.
</event>
<event>
 4    1  0.1956828E-002  0.9118800E+02  0.7818608E-02  0.1130116E+00
         25   -1    0    0    0    0  0.00000000000E+00  0.00000000000E+00  0.99999998245E-14  0.12500000000E+03  0.12500000000E+03 0.  0.
        -11    1    1    0    0    0 -0.12790900527E+01  0.11277475819E+02 -0.31814880607E+01  0.11787255777E+02  0.51100000000E-03 0. -1.
         11    1    1    0    0    0 -0.52130997899E+01  0.48541593746E+02 -0.13723257187E+02  0.50712824028E+02  0.51100000000E-03 0.  1.
         22    1    1    0    0    0  0.64921898425E+01 -0.59819069565E+02  0.16904745247E+02  0.62499920195E+02  0.00000000000E+00 0.  1.
</event>
<event>
 4    1  0.1956828E-002  0.9118800E+02  0.7818608E-02  0.1130116E+00
         25   -1    0    0    0    0  0.00000000000E+00  0.00000000000E+00  0.99999998245E-14  0.12500000000E+03  0.12500000000E+03 0.  0.
        -11    1    1    0    0    0 -0.53361551848E+02 -0.16938334296E+02 -0.15342363555E+02  0.58049552143E+02  0.51100000000E-03 0. -1.
         11    1    1    0    0    0 -0.40895835894E+01 -0.13270330446E+01 -0.11495575173E+01  0.44505273151E+01  0.51100000000E-03 0.  1.
         22    1    1    0    0    0  0.57451135437E+02  0.18265367341E+02  0.16491921072E+02  0.62499920542E+02  0.00000000000E+00 0. -1.
</event>
<event>
 4    1  0.1956828E-002  0.9118800E+02  0.7818608E-02  0.1130116E+00
         25   -1    0    0    0    0  0.00000000000E+00  0.00000000000E+00  0.99999998245E-14  0.12500000000E+03  0.12500000000E+03 0.  0.
        -11    1    1    0    0    0 -0.35009945422E+02  0.17651619211E+02  0.55322513368E+01  0.39596486515E+02  0.51100000000E-03 0.  1.
         11    1    1    0    0    0 -0.20213960710E+02  0.10275281545E+02  0.32229254188E+01  0.22903555770E+02  0.51100000000E-03 0. -1.
         22    1    1    0    0    0  0.55223906132E+02 -0.27926900756E+02 -0.87551767556E+01  0.62499957715E+02  0.00000000000E+00 0.  1.
</event>
<event>
 4    1  0.1956828E-002  0.9118800E+02  0.7818608E-02  0.1130116E+00
         25   -1    0    0    0    0  0.00000000000E+00  0.00000000000E+00  0.99999998245E-14  0.12500000000E+03  0.12500000000E+03 0.  0.
        -11    1    1    0    0    0 -0.83874676546E+01  0.17418925164E+02 -0.83699692525E+01  0.21067153417E+02  0.51100000000E-03 0. -1.
         11    1    1    0    0    0 -0.18311882150E+02  0.32745152826E+02 -0.17614673064E+02  0.41446915071E+02  0.51100000000E-03 0.  1.
         22    1    1    0    0    0  0.26699349805E+02 -0.50164077991E+02  0.25984642316E+02  0.62485931512E+02  0.00000000000E+00 0.  1.
</event>
<event>
 4    1  0.1956828E-002  0.9118800E+02  0.7818608E-02  0.1130116E+00
         25   -1    0    0    0    0  0.00000000000E+00  0.00000000000E+00  0.99999998245E-14  0.12500000000E+03  0.12500000000E+03 0.  0.
        -11    1    1    0    0    0 -0.17135230887E+02 -0.48091427575E+02  0.23169962150E+02  0.56064683090E+02  0.51100000000E-03 0. -1.
         11    1    1    0    0    0 -0.21327670442E+01 -0.59568667616E+01  0.14584619388E+01  0.64930784970E+01  0.51100000000E-03 0.  1.
         22    1    1    0    0    0  0.19267997931E+02  0.54048294336E+02 -0.24628424089E+02  0.62442238413E+02  0.00000000000E+00 0. -1.
</event>
<event>
 4    1  0.1956828E-002  0.9118800E+02  0.7818608E-02  0.1130116E+00
         25   -1    0    0    0    0  0.00000000000E+00  0.00000000000E+00  0.99999998245E-14  0.12500000000E+03  0.12500000000E+03 0.  0.
        -11    1    1    0    0    0 -0.25681254334E+02  0.38183162048E+01 -0.23011153179E+02  0.34693220285E+02  0.51100000000E-03 0.  1.
         11    1    1    0    0    0 -0.20970283618E+02  0.30498969675E+01 -0.18007129580E+02  0.27808476810E+02  0.51100000000E-03 0. -1.
         22    1    1    0    0    0  0.46651537952E+02 -0.68682131723E+01  0.41018282759E+02  0.62498302905E+02  0.00000000000E+00 0.  1.
</event>
<event>
 4    1  0.1956828E-002  0.9118800E+02  0.7818608E-02  0.1130116E+00
         25   -1    0    0    0    0  0.00000000000E+00  0.00000000000E+00  0.99999998245E-14  0.12500000000E+03  0.12500000000E+03 0.  0.
        -11    1    1    0    0    0  0.16433110560E+02  0.78039411435E+00 -0.89083889809E+01  0.18708702043E+02  0.51100000000E-03 0.  1.
         11    1    1    0    0    0  0.39236405409E+02 -0.14040760794E+01 -0.19446290681E+02  0.43813527141E+02  0.51100000000E-03 0. -1.
         22    1    1    0    0    0 -0.55669515968E+02  0.62368196500E+00  0.28354679662E+02  0.62477770816E+02  0.00000000000E+00 0. -1.
</event>
<event>
 4    1  0.1956828E-002  0.9118800E+02  0.7818608E-02  0.1130116E+00
         25   -1    0    0    0    0  0.00000000000E+00  0.00000000000E+00  0.99999998245E-14  0.12500000000E+03  0.12500000000E+03 0.  0.
        -11    1    1    0    0    0  0.39187303212E+02  0.33654504597E+02 -0.62675017672E+01  0.52034142555E+02  0.51100000000E-03 0. -1.
         11    1    1    0    0    0  0.78809984533E+01  0.67707784008E+01 -0.12572197610E+01  0.10465857756E+02  0.51100000000E-03 0.  1.
         22    1    1    0    0    0 -0.47068301666E+02 -0.40425282998E+02  0.75247215282E+01  0.62499999690E+02  0.00000000000E+00 0. -1.
</event>
<event>
 4    1  0.1956828E-002  0.9118800E+02  0.7818608E-02  0.1130116E+00
         25   -1    0    0    0    0  0.00000000000E+00  0.00000000000E+00  0.99999998245E-14  0.12500000000E+03  0.12500000000E+03 0.  0.
        -11    1    1    0    0    0  0.61374125991E+00  0.62334934139E+01 -0.86308323679E+00  0.63228183122E+01  0.51100000000E-03 0. -1.
         11    1    1    0    0    0  0.54211926763E+01  0.55387752370E+02 -0.76605062412E+01  0.56177182190E+02  0.51100000000E-03 0.  1.
         22    1    1    0    0    0 -0.60349339362E+01 -0.61621245784E+02  0.85235894780E+01  0.62499999498E+02  0.00000000000E+00 0.  1.
</event>
<event>
 4    1  0.1956828E-002  0.9118800E+02  0.7818608E-02  0.1130116E+00
         25   -1    0    0    0    0  0.00000000000E+00  0.00000000000E+00  0.99999998245E-14  0.12500000000E+03  0.12500000000E+03 0.  0.
        -11    1    1    0    0    0  0.38310498219E+00  0.10583074573E+01  0.35688076543E+01  0.37420812974E+01  0.51100000000E-03 0.  1.
         11    1    1    0    0    0 -0.74971065645E+01  0.92513049573E+01  0.57600929573E+02  0.58818877397E+02  0.51100000000E-03 0. -1.
         22    1    1    0    0    0  0.71140015824E+01 -0.10309612415E+02 -0.61169737228E+02  0.62439041306E+02  0.00000000000E+00 0. -1.
</event>
<event>
 4    1  0.1956828E-002  0.9118800E+02  0.7818608E-02  0.1130116E+00
         25   -1    0    0    0    0  0.00000000000E+00  0.00000000000E+00  0.99999998245E-14  0.12500000000E+03  0.12500000000E+03 0.  0.
        -11    1    1    0    0    0 -0.40923611749E+02 -0.76843841949E+01 -0.16211449259E+01  0.41670371611E+02  0.51100000000E-03 0.  1.
         11    1    1    0    0    0 -0.20837443467E+02  0.25067463071E+00 -0.24895913463E+01  0.20987137807E+02  0.51100000000E-03 0. -1.
         22    1    1    0    0    0  0.61761055216E+02  0.74337095642E+01  0.41107362722E+01  0.62342490582E+02  0.00000000000E+00 0.  1.
</event>
<event>
 4    1  0.1956828E-002  0.9118800E+02  0.7818608E-02  0.1130116E+00
         25   -1    0    0    0    0  0.00000000000E+00  0.00000000000E+00  0.99999998245E-14  0.12500000000E+03  0.12500000000E+03 0.  0.
        -11    1    1    0    0    0  0.20045032543E+02 -0.31367145852E+02 -0.66269042326E+01  0.37810276758E+02  0.51100000000E-03 0.  1.
         11    1    1    0    0    0  0.13066538512E+02 -0.20499000174E+02 -0.43173215658E+01  0.24689728686E+02  0.51100000000E-03 0. -1.
         22    1    1    0    0    0 -0.33111571054E+02  0.51866146026E+02  0.10944225798E+02  0.62499994557E+02  0.00000000000E+00 0.  1.
</event>
<event>
 4    1  0.1956828E-002  0.9118800E+02  0.7818608E-02  0.1130116E+00
         25   -1    0    0    0    0  0.00000000000E+00  0.00000000000E+00  0.99999998245E-14  0.12500000000E+03  0.12500000000E+03 0.  0.
        -11    1    1    0    0    0 -0.23366034160E+02  0.30739277855E+02 -0.45084518252E+02  0.59358980295E+02  0.51100000000E-03 0.  1.
         11    1    1    0    0    0 -0.12367827271E+01  0.16258870565E+01 -0.23859724989E+01  0.31410197804E+01  0.51100000000E-03 0. -1.
         22    1    1    0    0    0  0.24602816887E+02 -0.32365164911E+02  0.47470490750E+02  0.62499999925E+02  0.00000000000E+00 0.  1.
</event>
<event>
 4    1  0.1956828E-002  0.9118800E+02  0.7818608E-02  0.1130116E+00
         25   -1    0    0    0    0  0.00000000000E+00  0.00000000000E+00  0.99999998245E-14  0.12500000000E+03  0.12500000000E+03 0.  0.
        -11    1    1    0    0    0  0.42663533818E+01  0.25741010872E+01 -0.89815949460E+00  0.50630483234E+01  0.51100000000E-03 0. -1.
         11    1    1    0    0    0  0.48428343571E+02  0.29159720357E+02 -0.10169060362E+02  0.57436952750E+02  0.51100000000E-03 0.  1.
         22    1    1    0    0    0 -0.52694696953E+02 -0.31733821444E+02  0.11067219856E+02  0.62499998926E+02  0.00000000000E+00 0.  1.
</event>
<event>
 4    1  0.1956828E-002  0.9118800E+02  0.7818608E-02  0.1130116E+00
         25   -1    0    0    0    0  0.00000000000E+00  0.00000000000E+00  0.99999998245E-14  0.12500000000E+03  0.12500000000E+03 0.  0.
        -11    1    1    0    0    0  0.49872704413E+01 -0.36737338016E+01  0.55515620564E+01  0.83179942310E+01  0.51100000000E-03 0.  1.
         11    1    1    0    0    0  0.32007918880E+02 -0.27371151841E+02  0.34104075832E+02  0.54192017980E+02  0.51100000000E-03 0. -1.
         22    1    1    0    0    0 -0.36995189321E+02  0.31044885643E+02 -0.39655637889E+02  0.62489987789E+02  0.00000000000E+00 0. -1.
</event>
<event>
 4    1  0.1956828E-002  0.9118800E+02  0.7818608E-02  0.1130116E+00
         25   -1    0    0    0    0  0.00000000000E+00  0.00000000000E+00  0.99999998245E-14  0.12500000000E+03  0.12500000000E+03 0.  0.
        -11    1    1    0    0    0  0.61948680742E+01  0.42548807635E+02 -0.43520008409E+02  0.61178170566E+02  0.51100000000E-03 0. -1.
         11    1    1    0    0    0 -0.27342489912E+01  0.68198128463E+00  0.53549484748E+01  0.60511725679E+01  0.51100000000E-03 0.  1.
         22    1    1    0    0    0 -0.34606190830E+01 -0.43230788919E+02  0.38165059934E+02  0.57770656867E+02  0.00000000000E+00 0. -1.
</event>
<event>
 4    1  0.1956828E-002  0.9118800E+02  0.7818608E-02  0.1130116E+00
         25   -1    0    0    0    0  0.00000000000E+00  0.00000000000E+00  0.99999998245E-14  0.12500000000E+03  0.12500000000E+03 0.  0.
        -11    1    1    0    0    0  0.29232264601E+02  0.21596213515E+02 -0.36725751884E+02  0.51669164727E+02  0.51100000000E-03 0. -1.
         11    1    1    0    0    0 -0.33673728900E+01  0.50807409983E+01 -0.11162228889E+02  0.12718037714E+02  0.51100000000E-03 0.  1.
         22    1    1    0    0    0 -0.25864891711E+02 -0.26676954514E+02  0.47887980773E+02  0.60612797558E+02  0.00000000000E+00 0. -1.
</event>
<event>
 4    1  0.1956828E-002  0.9118800E+02  0.7818608E-02  0.1130116E+00
         25   -1    0    0    0    0  0.00000000000E+00  0.00000000000E+00  0.99999998245E-14  0.12500000000E+03  0.12500000000E+03 0.  0.
        -11    1    1    0    0    0 -0.12695948250E+02  0.27842188137E+02 -0.50747611168E+02  0.59259552662E+02  0.51100000000E-03 0.  1.
         11    1    1    0    0    0 -0.69412618111E+00  0.15214474786E+01 -0.27755874897E+01  0.32404474628E+01  0.51100000000E-03 0. -1.
         22    1    1    0    0    0  0.13390074431E+02 -0.29363635616E+02  0.53523198658E+02  0.62499999875E+02  0.00000000000E+00 0.  1.
</event>
<event>
 4    1  0.1956828E-002  0.9118800E+02  0.7818608E-02  0.1130116E+00
         25   -1    0    0    0    0  0.00000000000E+00  0.00000000000E+00  0.99999998245E-14  0.12500000000E+03  0.12500000000E+03 0.  0.
        -11    1    1    0    0    0  0.95546564926E+00  0.49308112176E+00 -0.11233953621E+01  0.15550115756E+01  0.51100000000E-03 0. -1.
         11    1    1    0    0    0  0.37499453334E+02  0.19157301525E+02 -0.44057698666E+02  0.60944991706E+02  0.51100000000E-03 0.  1.
         22    1    1    0    0    0 -0.38454918983E+02 -0.19650382647E+02  0.45181094028E+02  0.62499996718E+02  0.00000000000E+00 0.  1.
</event>
<event>
 4    1  0.1956828E-002  0.9118800E+02  0.7818608E-02  0.1130116E+00
         25   -1    0    0    0    0  0.00000000000E+00  0.00000000000E+00  0.99999998245E-14  0.12500000000E+03  0.12500000000E+03 0.  0.
        -11    1    1    0    0    0  0.62593657349E+01  0.24215666988E+01  0.11477175812E+00  0.67124375228E+01  0.51100000000E-03 0. -1.
         11    1    1    0    0    0  0.52027587756E+02  0.19955650805E+02  0.27056588739E+01  0.55789053380E+02  0.51100000000E-03 0.  1.
         22    1    1    0    0    0 -0.58286953491E+02 -0.22377217503E+02 -0.28204306320E+01  0.62498509098E+02  0.00000000000E+00 0.  1.
</event>
<event>
 4    1  0.1956828E-002  0.9118800E+02  0.7818608E-02  0.1130116E+00
         25   -1    0    0    0    0  0.00000000000E+00  0.00000000000E+00  0.99999998245E-14  0.12500000000E+03  0.12500000000E+03 0.  0.
        -11    1    1    0    0    0  0.24707009668E+01 -0.19730090470E+02  0.35503765201E+02  0.40692728797E+02  0.51100000000E-03 0.  1.
         11    1    1    0    0    0  0.13107395060E+01 -0.10574905328E+02  0.19026572864E+02  0.21807272548E+02  0.51100000000E-03 0. -1.
         22    1    1    0    0    0 -0.37814404728E+01  0.30304995797E+02 -0.54530338066E+02  0.62499998655E+02  0.00000000000E+00 0.  1.
</event>
<event>
 4    1  0.1956828E-002  0.9118800E+02  0.7818608E-02  0.1130116E+00
         25   -1    0    0    0    0  0.00000000000E+00  0.00000000000E+00  0.99999998245E-14  0.12500000000E+03  0.12500000000E+03 0.  0.
        -11    1    1    0    0    0  0.14171767039E+02  0.43163407113E+00 -0.17999579123E+02  0.22913099700E+02  0.51100000000E-03 0. -1.
         11    1    1    0    0    0  0.24485255547E+02  0.74834560140E+00 -0.31097185026E+02  0.39586900323E+02  0.51100000000E-03 0. -1.
         22    1    1    0    0    0 -0.38657022587E+02 -0.11799796725E+01  0.49096764149E+02  0.62499999978E+02  0.00000000000E+00 0. -1.
</event>
<event>
 4    1  0.1956828E-002  0.9118800E+02  0.7818608E-02  0.1130116E+00
         25   -1    0    0    0    0  0.00000000000E+00  0.00000000000E+00  0.99999998245E-14  0.12500000000E+03  0.12500000000E+03 0.  0.
        -11    1    1    0    0    0  0.12500505390E+02 -0.12328819615E+01  0.10282525054E+02  0.16233082106E+02  0.51100000000E-03 0. -1.
         11    1    1    0    0    0  0.35467114173E+02 -0.35466216079E+01  0.29498156741E+02  0.46267007294E+02  0.51100000000E-03 0.  1.
         22    1    1    0    0    0 -0.47967619562E+02  0.47795035694E+01 -0.39780681795E+02  0.62499910599E+02  0.00000000000E+00 0.  1.
</event>
<event>
 4    1  0.1956828E-002  0.9118800E+02  0.7818608E-02  0.1130116E+00
         25   -1    0    0    0    0  0.00000000000E+00  0.00000000000E+00  0.99999998245E-14  0.12500000000E+03  0.12500000000E+03 0.  0.
        -11    1    1    0    0    0 -0.20890758065E+02 -0.30773590017E+02  0.24865138171E+02  0.44740504150E+02  0.51100000000E-03 0.  1.
         11    1    1    0    0    0 -0.82925861444E+01 -0.12217265632E+02  0.98676811655E+01  0.17759495948E+02  0.51100000000E-03 0. -1.
         22    1    1    0    0    0  0.29183344209E+02  0.42990855649E+02 -0.34732819337E+02  0.62499999902E+02  0.00000000000E+00 0.  1.
</event>
<event>
 4    1  0.1956828E-002  0.9118800E+02  0.7818608E-02  0.1130116E+00
         25   -1    0    0    0    0  0.00000000000E+00  0.00000000000E+00  0.99999998245E-14  0.12500000000E+03  0.12500000000E+03 0.  0.
        -11    1    1    0    0    0  0.43029665611E+02 -0.14228334052E+02  0.20637286149E+01  0.45368012835E+02  0.51100000000E-03 0.  1.
         11    1    1    0    0    0  0.16224562191E+02 -0.54560746609E+01  0.71012476357E+00  0.17132117395E+02  0.51100000000E-03 0. -1.
         22    1    1    0    0    0 -0.59254227802E+02  0.19684408713E+02 -0.27738533785E+01  0.62499869771E+02  0.00000000000E+00 0.  1.
</event>
<event>
 4    1  0.1956828E-002  0.9118800E+02  0.7818608E-02  0.1130116E+00
         25   -1    0    0    0    0  0.00000000000E+00  0.00000000000E+00  0.99999998245E-14  0.12500000000E+03  0.12500000000E+03 0.  0.
        -11    1    1    0    0    0 -0.81452123041E+01 -0.83369804917E+01  0.36381402228E+02  0.38202829156E+02  0.51100000000E-03 0.  1.
         11    1    1    0    0    0  0.18880880153E+02  0.77447389126E+01  0.20489594622E+02  0.28918715466E+02  0.51100000000E-03 0. -1.
         22    1    1    0    0    0 -0.10735667849E+02  0.59224157904E+00 -0.56870996850E+02  0.57878455378E+02  0.00000000000E+00 0.  1.
</event>
<event>
 4    1  0.1956828E-002  0.9118800E+02  0.7818608E-02  0.1130116E+00
         25   -1    0    0    0    0  0.00000000000E+00  0.00000000000E+00  0.99999998245E-14  0.12500000000E+03  0.12500000000E+03 0.  0.
        -11    1    1    0    0    0 -0.25393854733E+02 -0.45388418172E+02  0.11292929603E+02  0.53221110676E+02  0.51100000000E-03 0. -1.
         11    1    1    0    0    0 -0.43732095379E+01 -0.79329060482E+01  0.20109678228E+01  0.92790059747E+01  0.51100000000E-03 0.  1.
         22    1    1    0    0    0  0.29767064271E+02  0.53321324220E+02 -0.13303897426E+02  0.62499883349E+02  0.00000000000E+00 0. -1.
</event>
<event>
 4    1  0.1956828E-002  0.9118800E+02  0.7818608E-02  0.1130116E+00
         25   -1    0    0    0    0  0.00000000000E+00  0.00000000000E+00  0.99999998245E-14  0.12500000000E+03  0.12500000000E+03 0.  0.
        -11    1    1    0    0    0 -0.32601614635E+02 -0.22145900701E+02 -0.22630000011E+00  0.39412655412E+02  0.51100000000E-03 0.  1.
         11    1    1    0    0    0 -0.19098424148E+02 -0.12971439753E+02 -0.13201035760E+00  0.23087344612E+02  0.51100000000E-03 0.  1.
         22    1    1    0    0    0  0.51700038783E+02  0.35117340454E+02  0.35831035771E+00  0.62499999977E+02  0.00000000000E+00 0.  1.
</event>
<event>
 4    1  0.1956828E-002  0.9118800E+02  0.7818608E-02  0.1130116E+00
         25   -1    0    0    0    0  0.00000000000E+00  0.00000000000E+00  0.99999998245E-14  0.12500000000E+03  0.12500000000E+03 0.  0.
        -11    1    1    0    0    0 -0.20021798602E+02  0.38123091656E+02 -0.85883708766E+01  0.43909026991E+02  0.51100000000E-03 0.  1.
         11    1    1    0    0    0 -0.84781612814E+01  0.16140369833E+02 -0.36377907707E+01  0.18590973051E+02  0.51100000000E-03 0. -1.
         22    1    1    0    0    0  0.28499959884E+02 -0.54263461489E+02  0.12226161647E+02  0.62499999958E+02  0.00000000000E+00 0. -1.
</event>
<event>
 4    1  0.1956828E-002  0.9118800E+02  0.7818608E-02  0.1130116E+00
         25   -1    0    0    0    0  0.00000000000E+00  0.00000000000E+00  0.99999998245E-14  0.12500000000E+03  0.12500000000E+03 0.  0.
        -11    1    1    0    0    0  0.12753752196E+02  0.48418747698E+02  0.93434670190E+01  0.50934602187E+02  0.51100000000E-03 0.  1.
         11    1    1    0    0    0  0.28983239541E+01  0.10993297176E+02  0.21226316336E+01  0.11565397955E+02  0.51100000000E-03 0. -1.
         22    1    1    0    0    0 -0.15652076150E+02 -0.59412044874E+02 -0.11466098653E+02  0.62499999858E+02  0.00000000000E+00 0.  1.
</event>
<event>
 4    1  0.1956828E-002  0.9118800E+02  0.7818608E-02  0.1130116E+00
         25   -1    0    0    0    0  0.00000000000E+00  0.00000000000E+00  0.99999998245E-14  0.12500000000E+03  0.12500000000E+03 0.  0.
        -11    1    1    0    0    0  0.77486802833E+01 -0.11861863316E+02 -0.24465891765E+02  0.28272348816E+02  0.51100000000E-03 0. -1.
         11    1    1    0    0    0 -0.29470339957E+02 -0.59127871294E+01 -0.25500770368E+02  0.39417651864E+02  0.51100000000E-03 0.  1.
         22    1    1    0    0    0  0.21721659674E+02  0.17774650445E+02  0.49966662133E+02  0.57309999321E+02  0.00000000000E+00 0.  1.
</event>
<event>
 4    1  0.1956828E-002  0.9118800E+02  0.7818608E-02  0.1130116E+00
         25   -1    0    0    0    0  0.00000000000E+00  0.00000000000E+00  0.99999998245E-14  0.12500000000E+03  0.12500000000E+03 0.  0.
        -11    1    1    0    0    0 -0.27582020697E+02 -0.44596519552E+01 -0.12101416609E+02  0.30448327467E+02  0.51100000000E-03 0.  1.
         11    1    1    0    0    0 -0.28987924109E+02 -0.58463809507E+01 -0.12376810788E+02  0.32057220090E+02  0.51100000000E-03 0. -1.
         22    1    1    0    0    0  0.56569944807E+02  0.10306032906E+02  0.24478227397E+02  0.62494452443E+02  0.00000000000E+00 0. -1.
</event>
<event>
 4    1  0.1956828E-002  0.9118800E+02  0.7818608E-02  0.1130116E+00
         25   -1    0    0    0    0  0.00000000000E+00  0.00000000000E+00  0.99999998245E-14  0.12500000000E+03  0.12500000000E+03 0.  0.
        -11    1    1    0    0    0 -0.15871525289E+01 -0.16040092976E+02 -0.48678461756E+02  0.51277639133E+02  0.51100000000E-03 0. -1.
         11    1    1    0    0    0 -0.25821930929E+01 -0.43996024658E+01 -0.10119996089E+02  0.11333073023E+02  0.51100000000E-03 0.  1.
         22    1    1    0    0    0  0.41693456218E+01  0.20439695442E+02  0.58798457846E+02  0.62389287844E+02  0.00000000000E+00 0. -1.
</event>
<event>
 4    1  0.1956828E-002  0.9118800E+02  0.7818608E-02  0.1130116E+00
         25   -1    0    0    0    0  0.00000000000E+00  0.00000000000E+00  0.99999998245E-14  0.12500000000E+03  0.12500000000E+03 0.  0.
        -11    1    1    0    0    0  0.34430492280E+02 -0.28063048959E+02 -0.12905590635E+02  0.46255246032E+02  0.51100000000E-03 0.  1.
         11    1    1    0    0    0  0.12099462232E+02 -0.99094077498E+01 -0.43939579295E+01  0.16245005842E+02  0.51100000000E-03 0. -1.
         22    1    1    0    0    0 -0.46529954512E+02  0.37972456709E+02  0.17299548565E+02  0.62499748127E+02  0.00000000000E+00 0.  1.
</event>
<event>
 4    1  0.1956828E-002  0.9118800E+02  0.7818608E-02  0.1130116E+00
         25   -1    0    0    0    0  0.00000000000E+00  0.00000000000E+00  0.99999998245E-14  0.12500000000E+03  0.12500000000E+03 0.  0.
        -11    1    1    0    0    0 -0.34472958122E+01 -0.29974069691E+01 -0.15881904773E+01  0.48363877232E+01  0.51100000000E-03 0. -1.
         11    1    1    0    0    0 -0.41713832920E+02 -0.35758159998E+02 -0.17507021976E+02  0.57664423018E+02  0.51100000000E-03 0.  1.
         22    1    1    0    0    0  0.45161128732E+02  0.38755566967E+02  0.19095212454E+02  0.62499189258E+02  0.00000000000E+00 0.  1.
</event>
<event>
 4    1  0.1956828E-002  0.9118800E+02  0.7818608E-02  0.1130116E+00
         25   -1    0    0    0    0  0.00000000000E+00  0.00000000000E+00  0.99999998245E-14  0.12500000000E+03  0.12500000000E+03 0.  0.
        -11    1    1    0    0    0 -0.50611474929E+02 -0.38109534476E+01  0.35573938400E+02  0.61980237610E+02  0.51100000000E-03 0.  1.
         11    1    1    0    0    0 -0.42549327674E+00  0.12129866294E-01  0.29987857549E+00  0.52069096724E+00  0.51100000000E-03 0. -1.
         22    1    1    0    0    0  0.51036968206E+02  0.37988235813E+01 -0.35873816976E+02  0.62499071422E+02  0.00000000000E+00 0.  1.
</event>
<event>
 4    1  0.1956828E-002  0.9118800E+02  0.7818608E-02  0.1130116E+00
         25   -1    0    0    0    0  0.00000000000E+00  0.00000000000E+00  0.99999998245E-14  0.12500000000E+03  0.12500000000E+03 0.  0.
        -11    1    1    0    0    0 -0.55277065350E+00 -0.46700563722E+01 -0.18883430576E+02  0.19460188398E+02  0.51100000000E-03 0.  1.
         11    1    1    0    0    0 -0.18189160559E+02  0.63000184523E+01 -0.39640205736E+02  0.44066786874E+02  0.51100000000E-03 0. -1.
         22    1    1    0    0    0  0.18741931212E+02 -0.16299620800E+01  0.58523636312E+02  0.61473024728E+02  0.00000000000E+00 0. -1.
</event>
<event>
 4    1  0.1956828E-002  0.9118800E+02  0.7818608E-02  0.1130116E+00
         25   -1    0    0    0    0  0.00000000000E+00  0.00000000000E+00  0.99999998245E-14  0.12500000000E+03  0.12500000000E+03 0.  0.
        -11    1    1    0    0    0 -0.89973264352E+01 -0.51232157137E+02  0.71587393536E+01  0.52506507762E+02  0.51100000000E-03 0. -1.
         11    1    1    0    0    0 -0.18097925704E+01 -0.97416456461E+01  0.13039687053E+01  0.99937652408E+01  0.51100000000E-03 0.  1.
         22    1    1    0    0    0  0.10807119006E+02  0.60973802783E+02 -0.84627080588E+01  0.62499726998E+02  0.00000000000E+00 0. -1.
</event>
<event>
 4    1  0.1956828E-002  0.9118800E+02  0.7818608E-02  0.1130116E+00
         25   -1    0    0    0    0  0.00000000000E+00  0.00000000000E+00  0.99999998245E-14  0.12500000000E+03  0.12500000000E+03 0.  0.
        -11    1    1    0    0    0 -0.16412618867E+02 -0.14676592343E+02 -0.98451756247E+01  0.24118538600E+02  0.51100000000E-03 0. -1.
         11    1    1    0    0    0  0.45686409985E+02  0.98749763612E+01  0.37805263999E+02  0.60116563456E+02  0.51100000000E-03 0.  1.
         22    1    1    0    0    0 -0.29273791118E+02  0.48016159816E+01 -0.27960088375E+02  0.40764897944E+02  0.00000000000E+00 0.  1.
</event>
<event>
 4    1  0.1956828E-002  0.9118800E+02  0.7818608E-02  0.1130116E+00
         25   -1    0    0    0    0  0.00000000000E+00  0.00000000000E+00  0.99999998245E-14  0.12500000000E+03  0.12500000000E+03 0.  0.
        -11    1    1    0    0    0 -0.31955603948E+02  0.42290860076E+02 -0.25781859264E+02  0.58943886341E+02  0.51100000000E-03 0.  1.
         11    1    1    0    0    0 -0.38958219765E+01  0.39744126270E+00  0.54650418448E+01  0.67232485494E+01  0.51100000000E-03 0. -1.
         22    1    1    0    0    0  0.35851425925E+02 -0.42688301339E+02  0.20316817419E+02  0.59332865109E+02  0.00000000000E+00 0.  1.
</event>
<event>
 4    1  0.1956828E-002  0.9118800E+02  0.7818608E-02  0.1130116E+00
         25   -1    0    0    0    0  0.00000000000E+00  0.00000000000E+00  0.99999998245E-14  0.12500000000E+03  0.12500000000E+03 0.  0.
        -11    1    1    0    0    0  0.13101239815E+01  0.29324618782E+01  0.16161164062E+00  0.32158787443E+01  0.51100000000E-03 0.  1.
         11    1    1    0    0    0  0.24142427852E+02  0.54061869903E+02  0.30107246953E+01  0.59284121512E+02  0.51100000000E-03 0. -1.
         22    1    1    0    0    0 -0.25452551834E+02 -0.56994331782E+02 -0.31723363359E+01  0.62499999743E+02  0.00000000000E+00 0. -1.
</event>
<event>
 4    1  0.1956828E-002  0.9118800E+02  0.7818608E-02  0.1130116E+00
         25   -1    0    0    0    0  0.00000000000E+00  0.00000000000E+00  0.99999998245E-14  0.12500000000E+03  0.12500000000E+03 0.  0.
        -11    1    1    0    0    0 -0.22221256687E+02  0.17333022677E+00 -0.58455339725E+01  0.22977914609E+02  0.51100000000E-03 0. -1.
         11    1    1    0    0    0  0.10959683269E+02 -0.24512239405E+02 -0.40431895718E+02  0.48535582098E+02  0.51100000000E-03 0.  1.
         22    1    1    0    0    0  0.11261573418E+02  0.24338909178E+02  0.46277429690E+02  0.53486503293E+02  0.00000000000E+00 0.  1.
</event>
<event>
 4    1  0.1956828E-002  0.9118800E+02  0.7818608E-02  0.1130116E+00
         25   -1    0    0    0    0  0.00000000000E+00  0.00000000000E+00  0.99999998245E-14  0.12500000000E+03  0.12500000000E+03 0.  0.
        -11    1    1    0    0    0  0.25860706994E+01 -0.15909023345E+01 -0.21342597945E-01  0.30363115235E+01  0.51100000000E-03 0. -1.
         11    1    1    0    0    0  0.25064781436E+02  0.43606964019E+02 -0.34470054235E+02  0.60975365670E+02  0.51100000000E-03 0.  1.
         22    1    1    0    0    0 -0.27650852135E+02 -0.42016061684E+02  0.34491396833E+02  0.60988322806E+02  0.00000000000E+00 0.  1.
</event>
<event>
 4    1  0.1956828E-002  0.9118800E+02  0.7818608E-02  0.1130116E+00
         25   -1    0    0    0    0  0.00000000000E+00  0.00000000000E+00  0.99999998245E-14  0.12500000000E+03  0.12500000000E+03 0.  0.
        -11    1    1    0    0    0 -0.42804329075E+02 -0.28787515313E+01 -0.87985664670E+01  0.43793978697E+02  0.51100000000E-03 0. -1.
         11    1    1    0    0    0 -0.18319412073E+02  0.15088999418E+00 -0.38683626288E+01  0.18723991460E+02  0.51100000000E-03 0.  1.
         22    1    1    0    0    0  0.61123741149E+02  0.27278615371E+01  0.12666929096E+02  0.62482029843E+02  0.00000000000E+00 0. -1.
</event>
<event>
 4    1  0.1956828E-002  0.9118800E+02  0.7818608E-02  0.1130116E+00
         25   -1    0    0    0    0  0.00000000000E+00  0.00000000000E+00  0.99999998245E-14  0.12500000000E+03  0.12500000000E+03 0.  0.
        -11    1    1    0    0    0 -0.72242752097E+01  0.38847644745E+02 -0.34359475542E+02  0.52363185678E+02  0.51100000000E-03 0.  1.
         11    1    1    0    0    0 -0.17002251054E+01  0.74357149737E+01 -0.66795093967E+01  0.10138859335E+02  0.51100000000E-03 0. -1.
         22    1    1    0    0    0  0.89245003151E+01 -0.46283359719E+02  0.41038984939E+02  0.62497954987E+02  0.00000000000E+00 0.  1.
</event>
<event>
 4    1  0.1956828E-002  0.9118800E+02  0.7818608E-02  0.1130116E+00
         25   -1    0    0    0    0  0.00000000000E+00  0.00000000000E+00  0.99999998245E-14  0.12500000000E+03  0.12500000000E+03 0.  0.
        -11    1    1    0    0    0 -0.32765972519E+02  0.38528506991E+02  0.97246412474E+01  0.51503625636E+02  0.51100000000E-03 0.  1.
         11    1    1    0    0    0 -0.65431943363E+01  0.85386714979E+01  0.23120379842E+01  0.11003082431E+02  0.51100000000E-03 0. -1.
         22    1    1    0    0    0  0.39309166855E+02 -0.47067178488E+02 -0.12036679232E+02  0.62493291933E+02  0.00000000000E+00 0.  1.
</event>
<event>
 4    1  0.1956828E-002  0.9118800E+02  0.7818608E-02  0.1130116E+00
         25   -1    0    0    0    0  0.00000000000E+00  0.00000000000E+00  0.99999998245E-14  0.12500000000E+03  0.12500000000E+03 0.  0.
        -11    1    1    0    0    0  0.11794673820E+01  0.70578852986E+01  0.22123946340E+01  0.74899651849E+01  0.51100000000E-03 0.  1.
         11    1    1    0    0    0 -0.10108539897E+02  0.40062292869E+02  0.37075355047E+02  0.55513528450E+02  0.51100000000E-03 0. -1.
         22    1    1    0    0    0  0.89290725146E+01 -0.47120178168E+02 -0.39287749681E+02  0.61996506366E+02  0.00000000000E+00 0. -1.
</event>
<event>
 4    1  0.1956828E-002  0.9118800E+02  0.7818608E-02  0.1130116E+00
         25   -1    0    0    0    0  0.00000000000E+00  0.00000000000E+00  0.99999998245E-14  0.12500000000E+03  0.12500000000E+03 0.  0.
        -11    1    1    0    0    0 -0.24179643296E+00 -0.24579644201E+00 -0.30333174599E+00  0.45922958871E+00  0.51100000000E-03 0. -1.
         11    1    1    0    0    0 -0.31336418164E+02 -0.34540354557E+02 -0.40915315734E+02  0.62040875704E+02  0.51100000000E-03 0.  1.
         22    1    1    0    0    0  0.31578214597E+02  0.34786150999E+02  0.41218647480E+02  0.62499894708E+02  0.00000000000E+00 0.  1.
</event>
<event>
 4    1  0.1956828E-002  0.9118800E+02  0.7818608E-02  0.1130116E+00
         25   -1    0    0    0    0  0.00000000000E+00  0.00000000000E+00  0.99999998245E-14  0.12500000000E+03  0.12500000000E+03 0.  0.
        -11    1    1    0    0    0 -0.11358284049E+02 -0.81200457787E+01 -0.68173465333E+00  0.13978931375E+02  0.51100000000E-03 0. -1.
         11    1    1    0    0    0 -0.39447524558E+02 -0.28158652397E+02 -0.22973611406E+01  0.48521075494E+02  0.51100000000E-03 0.  1.
         22    1    1    0    0    0  0.50805808608E+02  0.36278698176E+02  0.29790957939E+01  0.62499993131E+02  0.00000000000E+00 0.  1.
</event>
<event>
 4    1  0.1956828E-002  0.9118800E+02  0.7818608E-02  0.1130116E+00
         25   -1    0    0    0    0  0.00000000000E+00  0.00000000000E+00  0.99999998245E-14  0.12500000000E+03  0.12500000000E+03 0.  0.
        -11    1    1    0    0    0 -0.34268259274E+02 -0.15641811864E+02 -0.29366370998E+02  0.47763622328E+02  0.51100000000E-03 0.  1.
         11    1    1    0    0    0 -0.10554288841E+02 -0.48040370414E+01 -0.90933916782E+01  0.14736402455E+02  0.51100000000E-03 0. -1.
         22    1    1    0    0    0  0.44822548115E+02  0.20445848905E+02  0.38459762676E+02  0.62499975217E+02  0.00000000000E+00 0.  1.
</event>
<event>
 4    1  0.1956828E-002  0.9118800E+02  0.7818608E-02  0.1130116E+00
         25   -1    0    0    0    0  0.00000000000E+00  0.00000000000E+00  0.99999998245E-14  0.12500000000E+03  0.12500000000E+03 0.  0.
        -11    1    1    0    0    0 -0.75178308697E+01 -0.19913017633E+02 -0.31203028998E+02  0.37771352519E+02  0.51100000000E-03 0.  1.
         11    1    1    0    0    0 -0.49356772582E+01 -0.13042403380E+02 -0.20421579053E+02  0.24728649118E+02  0.51100000000E-03 0. -1.
         22    1    1    0    0    0  0.12453508128E+02  0.32955421013E+02  0.51624608051E+02  0.62499998362E+02  0.00000000000E+00 0. -1.
</event>
<event>
 4    1  0.1956828E-002  0.9118800E+02  0.7818608E-02  0.1130116E+00
         25   -1    0    0    0    0  0.00000000000E+00  0.00000000000E+00  0.99999998245E-14  0.12500000000E+03  0.12500000000E+03 0.  0.
        -11    1    1    0    0    0 -0.42437070028E+02  0.28962114790E+02  0.24080404694E+02  0.56741297977E+02  0.51100000000E-03 0.  1.
         11    1    1    0    0    0 -0.43073122745E+01  0.29433283895E+01  0.24385545091E+01  0.57587037946E+01  0.51100000000E-03 0. -1.
         22    1    1    0    0    0  0.46744382303E+02 -0.31905443179E+02 -0.26518959203E+02  0.62499998228E+02  0.00000000000E+00 0.  1.
</event>
<event>
 4    1  0.1956828E-002  0.9118800E+02  0.7818608E-02  0.1130116E+00
         25   -1    0    0    0    0  0.00000000000E+00  0.00000000000E+00  0.99999998245E-14  0.12500000000E+03  0.12500000000E+03 0.  0.
        -11    1    1    0    0    0 -0.23367483844E+01 -0.12581824143E+01 -0.74262973759E+00  0.27558873685E+01  0.51100000000E-03 0. -1.
         11    1    1    0    0    0 -0.38456308639E+02  0.30849892825E+02 -0.34998615550E+02  0.60460786070E+02  0.51100000000E-03 0.  1.
         22    1    1    0    0    0  0.40793057023E+02 -0.29591710411E+02  0.35741245288E+02  0.61783326562E+02  0.00000000000E+00 0.  1.
</event>
<event>
 4    1  0.1956828E-002  0.9118800E+02  0.7818608E-02  0.1130116E+00
         25   -1    0    0    0    0  0.00000000000E+00  0.00000000000E+00  0.99999998245E-14  0.12500000000E+03  0.12500000000E+03 0.  0.
        -11    1    1    0    0    0 -0.38296994722E+01 -0.18653273631E+01 -0.18004227450E+02  0.18501304023E+02  0.51100000000E-03 0. -1.
         11    1    1    0    0    0 -0.11608933776E+02 -0.29379587969E+01 -0.42352999102E+02  0.44013355683E+02  0.51100000000E-03 0.  1.
         22    1    1    0    0    0  0.15438633248E+02  0.48032861600E+01  0.60357226552E+02  0.62485340293E+02  0.00000000000E+00 0.  1.
</event>
<event>
 4    1  0.1956828E-002  0.9118800E+02  0.7818608E-02  0.1130116E+00
         25   -1    0    0    0    0  0.00000000000E+00  0.00000000000E+00  0.99999998245E-14  0.12500000000E+03  0.12500000000E+03 0.  0.
        -11    1    1    0    0    0 -0.15279073389E+02  0.39601192475E+02 -0.28825782561E+02  0.51309163602E+02  0.51100000000E-03 0. -1.
         11    1    1    0    0    0 -0.31992250930E+01  0.86761562560E+01 -0.63033409093E+01  0.11191194550E+02  0.51100000000E-03 0.  1.
         22    1    1    0    0    0  0.18478298482E+02 -0.48277348731E+02  0.35129123470E+02  0.62499641848E+02  0.00000000000E+00 0. -1.
</event>
<event>
 4    1  0.1956828E-002  0.9118800E+02  0.7818608E-02  0.1130116E+00
         25   -1    0    0    0    0  0.00000000000E+00  0.00000000000E+00  0.99999998245E-14  0.12500000000E+03  0.12500000000E+03 0.  0.
        -11    1    1    0    0    0 -0.21202537396E+02  0.32622343241E+02  0.13862585180E+02  0.41302979780E+02  0.51100000000E-03 0. -1.
         11    1    1    0    0    0 -0.10888789836E+02  0.16740336775E+02  0.71069743449E+01  0.21197021112E+02  0.51100000000E-03 0.  1.
         22    1    1    0    0    0  0.32091327231E+02 -0.49362680016E+02 -0.20969559525E+02  0.62499999108E+02  0.00000000000E+00 0. -1.
</event>
<event>
 4    1  0.1956828E-002  0.9118800E+02  0.7818608E-02  0.1130116E+00
         25   -1    0    0    0    0  0.00000000000E+00  0.00000000000E+00  0.99999998245E-14  0.12500000000E+03  0.12500000000E+03 0.  0.
        -11    1    1    0    0    0 -0.36892061140E+01 -0.50778584016E+02  0.40419862088E+01  0.51072619761E+02  0.51100000000E-03 0. -1.
         11    1    1    0    0    0 -0.82728798055E+00 -0.11361352940E+02  0.90569040079E+00  0.11427380338E+02  0.51100000000E-03 0.  1.
         22    1    1    0    0    0  0.45164940946E+01  0.62139936956E+02 -0.49476766096E+01  0.62499999901E+02  0.00000000000E+00 0. -1.
</event>
<event>
 4    1  0.1956828E-002  0.9118800E+02  0.7818608E-02  0.1130116E+00
         25   -1    0    0    0    0  0.00000000000E+00  0.00000000000E+00  0.99999998245E-14  0.12500000000E+03  0.12500000000E+03 0.  0.
        -11    1    1    0    0    0 -0.37908438481E+02 -0.31688963952E+01  0.60965128300E+01  0.38526083130E+02  0.51100000000E-03 0. -1.
         11    1    1    0    0    0 -0.23339423974E+02 -0.25105980402E+01  0.49211183982E+01  0.23984353660E+02  0.51100000000E-03 0.  1.
         22    1    1    0    0    0  0.61247862454E+02  0.56794944354E+01 -0.11017631228E+02  0.62489563210E+02  0.00000000000E+00 0. -1.
</event>
<event>
 4    1  0.1956828E-002  0.9118800E+02  0.7818608E-02  0.1130116E+00
         25   -1    0    0    0    0  0.00000000000E+00  0.00000000000E+00  0.99999998245E-14  0.12500000000E+03  0.12500000000E+03 0.  0.
        -11    1    1    0    0    0 -0.18790213379E+01  0.15330172105E+02  0.63498701597E+01  0.16699273914E+02  0.51100000000E-03 0. -1.
         11    1    1    0    0    0  0.57118283389E+01  0.39392402398E+02  0.23117557481E+02  0.46030509597E+02  0.51100000000E-03 0.  1.
         22    1    1    0    0    0 -0.38328070010E+01 -0.54722574503E+02 -0.29467427641E+02  0.62270216488E+02  0.00000000000E+00 0.  1.
</event>
<event>
 4    1  0.1956828E-002  0.9118800E+02  0.7818608E-02  0.1130116E+00
         25   -1    0    0    0    0  0.00000000000E+00  0.00000000000E+00  0.99999998245E-14  0.12500000000E+03  0.12500000000E+03 0.  0.
        -11    1    1    0    0    0 -0.10099534383E+01  0.25534091961E+02  0.41809530576E+02  0.49000476584E+02  0.51100000000E-03 0. -1.
         11    1    1    0    0    0 -0.31310479149E+00  0.72755248284E+01  0.11368285162E+02  0.13500711238E+02  0.51100000000E-03 0.  1.
         22    1    1    0    0    0  0.13230582297E+01 -0.32809616790E+02 -0.53177815738E+02  0.62498812178E+02  0.00000000000E+00 0. -1.
</event>
<event>
 4    1  0.1956828E-002  0.9118800E+02  0.7818608E-02  0.1130116E+00
         25   -1    0    0    0    0  0.00000000000E+00  0.00000000000E+00  0.99999998245E-14  0.12500000000E+03  0.12500000000E+03 0.  0.
        -11    1    1    0    0    0  0.38258401800E+01 -0.92813822220E+01 -0.19027267264E+02  0.21513205452E+02  0.51100000000E-03 0.  1.
         11    1    1    0    0    0  0.72873897372E+01 -0.17688535707E+02 -0.36248130847E+02  0.40986794639E+02  0.51100000000E-03 0. -1.
         22    1    1    0    0    0 -0.11113229917E+02  0.26969917929E+02  0.55275398111E+02  0.62499999909E+02  0.00000000000E+00 0. -1.
</event>
<event>
 4    1  0.1956828E-002  0.9118800E+02  0.7818608E-02  0.1130116E+00
         25   -1    0    0    0    0  0.00000000000E+00  0.00000000000E+00  0.99999998245E-14  0.12500000000E+03  0.12500000000E+03 0.  0.
        -11    1    1    0    0    0  0.54826030257E+02  0.19300590838E+02 -0.43750541217E+01  0.58288485135E+02  0.51100000000E-03 0. -1.
         11    1    1    0    0    0  0.39029645745E+01  0.15456541189E+01 -0.35736953025E+00  0.42130621129E+01  0.51100000000E-03 0.  1.
         22    1    1    0    0    0 -0.58728994832E+02 -0.20846244957E+02  0.47324236520E+01  0.62498452752E+02  0.00000000000E+00 0. -1.
</event>
<event>
 4    1  0.1956828E-002  0.9118800E+02  0.7818608E-02  0.1130116E+00
         25   -1    0    0    0    0  0.00000000000E+00  0.00000000000E+00  0.99999998245E-14  0.12500000000E+03  0.12500000000E+03 0.  0.
        -11    1    1    0    0    0  0.17081945314E+01 -0.23601670047E+00  0.10479104385E+01  0.20178575243E+01  0.51100000000E-03 0. -1.
         11    1    1    0    0    0  0.51182185818E+02 -0.70030420736E+01  0.31455221186E+02  0.60482143509E+02  0.51100000000E-03 0.  1.
         22    1    1    0    0    0 -0.52890380349E+02  0.72390587740E+01 -0.32503131624E+02  0.62499998966E+02  0.00000000000E+00 0.  1.
</event>
<event>
 4    1  0.1956828E-002  0.9118800E+02  0.7818608E-02  0.1130116E+00
         25   -1    0    0    0    0  0.00000000000E+00  0.00000000000E+00  0.99999998245E-14  0.12500000000E+03  0.12500000000E+03 0.  0.
        -11    1    1    0    0    0  0.44002334852E+02 -0.18694021046E+02  0.39149452685E+02  0.61792811403E+02  0.51100000000E-03 0.  1.
         11    1    1    0    0    0  0.50651323793E+00 -0.21375049519E+00  0.44483704462E+00  0.70719529961E+00  0.51100000000E-03 0. -1.
         22    1    1    0    0    0 -0.44508848090E+02  0.18907771541E+02 -0.39594289730E+02  0.62499993297E+02  0.00000000000E+00 0.  1.
</event>
<event>
 4    1  0.1956828E-002  0.9118800E+02  0.7818608E-02  0.1130116E+00
         25   -1    0    0    0    0  0.00000000000E+00  0.00000000000E+00  0.99999998245E-14  0.12500000000E+03  0.12500000000E+03 0.  0.
        -11    1    1    0    0    0 -0.22476639756E+02 -0.46097593083E+02  0.22616279576E+02  0.56050722786E+02  0.51100000000E-03 0. -1.
         11    1    1    0    0    0 -0.25862127249E+01 -0.53045962075E+01  0.26011420527E+01  0.64492772791E+01  0.51100000000E-03 0.  1.
         22    1    1    0    0    0  0.25062852481E+02  0.51402189290E+02 -0.25217421628E+02  0.62499999935E+02  0.00000000000E+00 0. -1.
</event>
<event>
 4    1  0.1956828E-002  0.9118800E+02  0.7818608E-02  0.1130116E+00
         25   -1    0    0    0    0  0.00000000000E+00  0.00000000000E+00  0.99999998245E-14  0.12500000000E+03  0.12500000000E+03 0.  0.
        -11    1    1    0    0    0 -0.35467962946E+02  0.18591648423E+02  0.29681122345E+02  0.49845710051E+02  0.51100000000E-03 0.  1.
         11    1    1    0    0    0 -0.90029635642E+01  0.47212556457E+01  0.75357446735E+01  0.12654290018E+02  0.51100000000E-03 0. -1.
         22    1    1    0    0    0  0.44470926510E+02 -0.23312904068E+02 -0.37216867018E+02  0.62499999931E+02  0.00000000000E+00 0.  1.
</event>
<event>
 4    1  0.1956828E-002  0.9118800E+02  0.7818608E-02  0.1130116E+00
         25   -1    0    0    0    0  0.00000000000E+00  0.00000000000E+00  0.99999998245E-14  0.12500000000E+03  0.12500000000E+03 0.  0.
        -11    1    1    0    0    0  0.46094769418E+02 -0.23778511424E+02 -0.11446975167E+02  0.53114768323E+02  0.51100000000E-03 0.  1.
         11    1    1    0    0    0  0.81447498863E+01 -0.42019495499E+01 -0.20221876624E+01  0.93852316931E+01  0.51100000000E-03 0.  1.
         22    1    1    0    0    0 -0.54239519305E+02  0.27980460973E+02  0.13469162830E+02  0.62499999984E+02  0.00000000000E+00 0.  1.
</event>
<event>
 4    1  0.1956828E-002  0.9118800E+02  0.7818608E-02  0.1130116E+00
         25   -1    0    0    0    0  0.00000000000E+00  0.00000000000E+00  0.99999998245E-14  0.12500000000E+03  0.12500000000E+03 0.  0.
        -11    1    1    0    0    0 -0.38323364820E+01 -0.87903958812E+01  0.30640896833E+01  0.10067100303E+02  0.51100000000E-03 0.  1.
         11    1    1    0    0    0 -0.16163945716E+02 -0.49375220781E+02  0.76057550726E+01  0.52507457363E+02  0.51100000000E-03 0. -1.
         22    1    1    0    0    0  0.19996282198E+02  0.58165616662E+02 -0.10669844756E+02  0.62425442334E+02  0.00000000000E+00 0. -1.
</event>
<event>
 4    1  0.1956828E-002  0.9118800E+02  0.7818608E-02  0.1130116E+00
         25   -1    0    0    0    0  0.00000000000E+00  0.00000000000E+00  0.99999998245E-14  0.12500000000E+03  0.12500000000E+03 0.  0.
        -11    1    1    0    0    0  0.36028630249E+01  0.98179674803E+01  0.48596526690E+02  0.49709108964E+02  0.51100000000E-03 0.  1.
         11    1    1    0    0    0  0.12869938564E+01  0.14387425476E+00  0.12817272724E+02  0.12882528219E+02  0.51100000000E-03 0. -1.
         22    1    1    0    0    0 -0.48898568813E+01 -0.99618417351E+01 -0.61413799413E+02  0.62408362817E+02  0.00000000000E+00 0.  1.
</event>
<event>
 4    1  0.1956828E-002  0.9118800E+02  0.7818608E-02  0.1130116E+00
         25   -1    0    0    0    0  0.00000000000E+00  0.00000000000E+00  0.99999998245E-14  0.12500000000E+03  0.12500000000E+03 0.  0.
        -11    1    1    0    0    0 -0.10402708833E+01  0.28455093137E+00  0.16173625529E+01  0.19439636395E+01  0.51100000000E-03 0. -1.
         11    1    1    0    0    0 -0.32407312793E+02  0.88665036850E+01  0.50380400294E+02  0.60556036397E+02  0.51100000000E-03 0. -1.
         22    1    1    0    0    0  0.33447583676E+02 -0.91510546164E+01 -0.51997762847E+02  0.62499999964E+02  0.00000000000E+00 0. -1.
</event>
<event>
 4    1  0.1956828E-002  0.9118800E+02  0.7818608E-02  0.1130116E+00
         25   -1    0    0    0    0  0.00000000000E+00  0.00000000000E+00  0.99999998245E-14  0.12500000000E+03  0.12500000000E+03 0.  0.
        -11    1    1    0    0    0  0.19473110048E+02 -0.18634395891E+02 -0.24913598348E+02  0.36703271081E+02  0.51100000000E-03 0.  1.
         11    1    1    0    0    0  0.13688747723E+02 -0.13090986614E+02 -0.17513294748E+02  0.25796729210E+02  0.51100000000E-03 0. -1.
         22    1    1    0    0    0 -0.33161857771E+02  0.31725382504E+02  0.42426893096E+02  0.62499999709E+02  0.00000000000E+00 0.  1.
</event>
<event>
 4    1  0.1956828E-002  0.9118800E+02  0.7818608E-02  0.1130116E+00
         25   -1    0    0    0    0  0.00000000000E+00  0.00000000000E+00  0.99999998245E-14  0.12500000000E+03  0.12500000000E+03 0.  0.
        -11    1    1    0    0    0 -0.11544900065E+02 -0.97731992332E+01  0.36168140786E+02  0.39203756822E+02  0.51100000000E-03 0.  1.
         11    1    1    0    0    0 -0.68577932756E+01 -0.58165567035E+01  0.21490772761E+02  0.23296243788E+02  0.51100000000E-03 0. -1.
         22    1    1    0    0    0  0.18402693341E+02  0.15589755937E+02 -0.57658913547E+02  0.62499999390E+02  0.00000000000E+00 0.  1.
</event>
<event>
 4    1  0.1956828E-002  0.9118800E+02  0.7818608E-02  0.1130116E+00
         25   -1    0    0    0    0  0.00000000000E+00  0.00000000000E+00  0.99999998245E-14  0.12500000000E+03  0.12500000000E+03 0.  0.
        -11    1    1    0    0    0 -0.90378738063E+01 -0.80579801454E+01  0.13002094782E+02  0.17767067173E+02  0.51100000000E-03 0.  1.
         11    1    1    0    0    0 -0.25743538720E+02 -0.18964176439E+02  0.31312495150E+02  0.44753124211E+02  0.51100000000E-03 0. -1.
         22    1    1    0    0    0  0.34781412526E+02  0.27022156585E+02 -0.44314589932E+02  0.62479808616E+02  0.00000000000E+00 0. -1.
</event>
<event>
 4    1  0.1956828E-002  0.9118800E+02  0.7818608E-02  0.1130116E+00
         25   -1    0    0    0    0  0.00000000000E+00  0.00000000000E+00  0.99999998245E-14  0.12500000000E+03  0.12500000000E+03 0.  0.
        -11    1    1    0    0    0  0.40765646650E+01 -0.51745972419E+02  0.11156868130E+02  0.53091804902E+02  0.51100000000E-03 0. -1.
         11    1    1    0    0    0  0.84646461488E+00 -0.92437114582E+01  0.15601688516E+01  0.94125889623E+01  0.51100000000E-03 0.  1.
         22    1    1    0    0    0 -0.49230292799E+01  0.60989683877E+02 -0.12717036981E+02  0.62495606136E+02  0.00000000000E+00 0. -1.
</event>
<event>
 4    1  0.1956828E-002  0.9118800E+02  0.7818608E-02  0.1130116E+00
         25   -1    0    0    0    0  0.00000000000E+00  0.00000000000E+00  0.99999998245E-14  0.12500000000E+03  0.12500000000E+03 0.  0.
        -11    1    1    0    0    0  0.72758745894E+00 -0.56974886523E+01 -0.10407836309E+02  0.11887548836E+02  0.51100000000E-03 0.  1.
         11    1    1    0    0    0  0.30937175167E+01 -0.24264716676E+02 -0.44308832724E+02  0.50612451245E+02  0.51100000000E-03 0.  1.
         22    1    1    0    0    0 -0.38213049757E+01  0.29962205328E+02  0.54716669032E+02  0.62499999919E+02  0.00000000000E+00 0.  1.
</event>
<event>
 4    1  0.1956828E-002  0.9118800E+02  0.7818608E-02  0.1130116E+00
         25   -1    0    0    0    0  0.00000000000E+00  0.00000000000E+00  0.99999998245E-14  0.12500000000E+03  0.12500000000E+03 0.  0.
        -11    1    1    0    0    0  0.10508499877E+01 -0.99841197755E+00 -0.52162494811E+00  0.15405210227E+01  0.51100000000E-03 0. -1.
         11    1    1    0    0    0  0.43267332364E+02 -0.39159867580E+02 -0.17625247692E+02  0.60960697464E+02  0.51100000000E-03 0.  1.
         22    1    1    0    0    0 -0.44318182352E+02  0.40158279558E+02  0.18146872640E+02  0.62498781513E+02  0.00000000000E+00 0.  1.
</event>
<event>
 4    1  0.1956828E-002  0.9118800E+02  0.7818608E-02  0.1130116E+00
         25   -1    0    0    0    0  0.00000000000E+00  0.00000000000E+00  0.99999998245E-14  0.12500000000E+03  0.12500000000E+03 0.  0.
        -11    1    1    0    0    0  0.31779965492E+01 -0.37251268120E+01 -0.12878459312E+02  0.13777915167E+02  0.51100000000E-03 0. -1.
         11    1    1    0    0    0  0.10820763807E+02 -0.12067371681E+02 -0.45948921693E+02  0.48723852410E+02  0.51100000000E-03 0.  1.
         22    1    1    0    0    0 -0.13998760356E+02  0.15792498493E+02  0.58827381005E+02  0.62498232423E+02  0.00000000000E+00 0. -1.
</event>
<event>
 4    1  0.1956828E-002  0.9118800E+02  0.7818608E-02  0.1130116E+00
         25   -1    0    0    0    0  0.00000000000E+00  0.00000000000E+00  0.99999998245E-14  0.12500000000E+03  0.12500000000E+03 0.  0.
        -11    1    1    0    0    0  0.74068754866E+01 -0.21089717542E+02 -0.29051708565E+02  0.36655692072E+02  0.51100000000E-03 0.  1.
         11    1    1    0    0    0  0.52315002556E+01 -0.14871409506E+02 -0.20479278968E+02  0.25844308521E+02  0.51100000000E-03 0. -1.
         22    1    1    0    0    0 -0.12638375742E+02  0.35961127048E+02  0.49530987532E+02  0.62499999407E+02  0.00000000000E+00 0.  1.
</event>
<event>
 4    1  0.1956828E-002  0.9118800E+02  0.7818608E-02  0.1130116E+00
         25   -1    0    0    0    0  0.00000000000E+00  0.00000000000E+00  0.99999998245E-14  0.12500000000E+03  0.12500000000E+03 0.  0.
        -11    1    1    0    0    0 -0.26394397982E+02 -0.32616528723E+02  0.18614529598E+02  0.45902101294E+02  0.51100000000E-03 0.  1.
         11    1    1    0    0    0 -0.95255599181E+01 -0.11818603798E+02  0.67137925484E+01  0.16597912463E+02  0.51100000000E-03 0. -1.
         22    1    1    0    0    0  0.35919957900E+02  0.44435132521E+02 -0.25328322146E+02  0.62499986243E+02  0.00000000000E+00 0. -1.
</event>
<event>
 4    1  0.1956828E-002  0.9118800E+02  0.7818608E-02  0.1130116E+00
         25   -1    0    0    0    0  0.00000000000E+00  0.00000000000E+00  0.99999998245E-14  0.12500000000E+03  0.12500000000E+03 0.  0.
        -11    1    1    0    0    0 -0.79097962482E+01 -0.59250751755E+01  0.18383232202E+02  0.20871382776E+02  0.51100000000E-03 0.  1.
         11    1    1    0    0    0 -0.17105486323E+02 -0.11764936918E+02  0.36087141234E+02  0.41632837589E+02  0.51100000000E-03 0. -1.
         22    1    1    0    0    0  0.25015282571E+02  0.17690012094E+02 -0.54470373435E+02  0.62495779635E+02  0.00000000000E+00 0. -1.
</event>
<event>
 4    1  0.1956828E-002  0.9118800E+02  0.7818608E-02  0.1130116E+00
         25   -1    0    0    0    0  0.00000000000E+00  0.00000000000E+00  0.99999998245E-14  0.12500000000E+03  0.12500000000E+03 0.  0.
        -11    1    1    0    0    0 -0.34075205341E+02  0.11946358240E+02  0.43854818233E+02  0.56807395441E+02  0.51100000000E-03 0. -1.
         11    1    1    0    0    0  0.45848413688E+01 -0.65342730165E+00  0.69629058335E+01  0.83624036929E+01  0.51100000000E-03 0.  1.
         22    1    1    0    0    0  0.29490363972E+02 -0.11292930939E+02 -0.50817724067E+02  0.59830200866E+02  0.00000000000E+00 0. -1.
</event>
<event>
 4    1  0.1956828E-002  0.9118800E+02  0.7818608E-02  0.1130116E+00
         25   -1    0    0    0    0  0.00000000000E+00  0.00000000000E+00  0.99999998245E-14  0.12500000000E+03  0.12500000000E+03 0.  0.
        -11    1    1    0    0    0 -0.22373987051E+02  0.13281948274E+02  0.30799400993E+02  0.40318836148E+02  0.51100000000E-03 0. -1.
         11    1    1    0    0    0  0.47170283029E+00  0.12176271903E+02  0.20215811289E+02  0.23604303153E+02  0.51100000000E-03 0.  1.
         22    1    1    0    0    0  0.21902284221E+02 -0.25458220177E+02 -0.51015212282E+02  0.61076860699E+02  0.00000000000E+00 0. -1.
</event>
<event>
 4    1  0.1956828E-002  0.9118800E+02  0.7818608E-02  0.1130116E+00
         25   -1    0    0    0    0  0.00000000000E+00  0.00000000000E+00  0.99999998245E-14  0.12500000000E+03  0.12500000000E+03 0.  0.
        -11    1    1    0    0    0 -0.30051696647E+01  0.38548118318E+02 -0.46781315341E+02  0.60691679297E+02  0.51100000000E-03 0.  1.
         11    1    1    0    0    0 -0.10496096951E+01 -0.26387175135E+00 -0.19345893842E+01  0.22167420147E+01  0.51100000000E-03 0. -1.
         22    1    1    0    0    0  0.40547793598E+01 -0.38284246566E+02  0.48715904726E+02  0.62091578688E+02  0.00000000000E+00 0.  1.
</event>
<event>
 4    1  0.1956828E-002  0.9118800E+02  0.7818608E-02  0.1130116E+00
         25   -1    0    0    0    0  0.00000000000E+00  0.00000000000E+00  0.99999998245E-14  0.12500000000E+03  0.12500000000E+03 0.  0.
        -11    1    1    0    0    0 -0.88998306140E+01  0.16426434403E+02  0.18020367130E+02  0.25957048444E+02  0.51100000000E-03 0.  1.
         11    1    1    0    0    0 -0.12412572555E+02  0.23056021285E+02  0.25490038990E+02  0.36543045342E+02  0.51100000000E-03 0. -1.
         22    1    1    0    0    0  0.21312403169E+02 -0.39482455688E+02 -0.43510406120E+02  0.62499906214E+02  0.00000000000E+00 0.  1.
</event>
<event>
 4    1  0.1956828E-002  0.9118800E+02  0.7818608E-02  0.1130116E+00
         25   -1    0    0    0    0  0.00000000000E+00  0.00000000000E+00  0.99999998245E-14  0.12500000000E+03  0.12500000000E+03 0.  0.
        -11    1    1    0    0    0 -0.16728784770E+01  0.15423214995E+01  0.72535831865E+01  0.76020883519E+01  0.51100000000E-03 0. -1.
         11    1    1    0    0    0 -0.12039367628E+02  0.11073445469E+02  0.52404327340E+02  0.54897915185E+02  0.51100000000E-03 0.  1.
         22    1    1    0    0    0  0.13712246105E+02 -0.12615766969E+02 -0.59657910527E+02  0.62499996463E+02  0.00000000000E+00 0.  1.
</event>
<event>
 4    1  0.1956828E-002  0.9118800E+02  0.7818608E-02  0.1130116E+00
         25   -1    0    0    0    0  0.00000000000E+00  0.00000000000E+00  0.99999998245E-14  0.12500000000E+03  0.12500000000E+03 0.  0.
        -11    1    1    0    0    0  0.76039471995E-02  0.29956440814E+01  0.42084415373E+01  0.51657450301E+01  0.51100000000E-03 0. -1.
         11    1    1    0    0    0 -0.14957237085E+01  0.30465196228E+02  0.48553221156E+02  0.57339172085E+02  0.51100000000E-03 0.  1.
         22    1    1    0    0    0  0.14881197613E+01 -0.33460840309E+02 -0.52761662693E+02  0.62495082884E+02  0.00000000000E+00 0.  1.
</event>
<event>
 4    1  0.1956828E-002  0.9118800E+02  0.7818608E-02  0.1130116E+00
         25   -1    0    0    0    0  0.00000000000E+00  0.00000000000E+00  0.99999998245E-14  0.12500000000E+03  0.12500000000E+03 0.  0.
        -11    1    1    0    0    0  0.95011520562E+01  0.30177270259E+01  0.31996795243E+01  0.10469790643E+02  0.51100000000E-03 0. -1.
         11    1    1    0    0    0  0.47016643074E+02  0.15625994865E+02  0.15888447578E+02  0.52030560329E+02  0.51100000000E-03 0.  1.
         22    1    1    0    0    0 -0.56517795130E+02 -0.18643721891E+02 -0.19088127102E+02  0.62499649028E+02  0.00000000000E+00 0.  1.
</event>
<event>
 4    1  0.1956828E-002  0.9118800E+02  0.7818608E-02  0.1130116E+00
         25   -1    0    0    0    0  0.00000000000E+00  0.00000000000E+00  0.99999998245E-14  0.12500000000E+03  0.12500000000E+03 0.  0.
        -11    1    1    0    0    0  0.11858881126E+02  0.13040840506E+02 -0.59876454312E+02  0.62417035847E+02  0.51100000000E-03 0. -1.
         11    1    1    0    0    0 -0.88743910839E+00 -0.12347811962E+00  0.11380415284E+01  0.14484245919E+01  0.51100000000E-03 0.  1.
         22    1    1    0    0    0 -0.10971442018E+02 -0.12917362386E+02  0.58738412784E+02  0.61134539561E+02  0.00000000000E+00 0. -1.
</event>
<event>
 4    1  0.1956828E-002  0.9118800E+02  0.7818608E-02  0.1130116E+00
         25   -1    0    0    0    0  0.00000000000E+00  0.00000000000E+00  0.99999998245E-14  0.12500000000E+03  0.12500000000E+03 0.  0.
        -11    1    1    0    0    0 -0.42241161533E+01 -0.11108466330E+01 -0.61250295934E+00  0.44104758989E+01  0.51100000000E-03 0. -1.
         11    1    1    0    0    0  0.45829279399E+02  0.42036020474E+02  0.18720633612E+01  0.62216191534E+02  0.51100000000E-03 0.  1.
         22    1    1    0    0    0 -0.41605163246E+02 -0.40925173841E+02 -0.12595604018E+01  0.58373332567E+02  0.00000000000E+00 0.  1.
</event>
<event>
 4    1  0.1956828E-002  0.9118800E+02  0.7818608E-02  0.1130116E+00
         25   -1    0    0    0    0  0.00000000000E+00  0.00000000000E+00  0.99999998245E-14  0.12500000000E+03  0.12500000000E+03 0.  0.
        -11    1    1    0    0    0 -0.86159767625E+00 -0.13586949281E+01 -0.52381810147E+01  0.54796845773E+01  0.51100000000E-03 0.  1.
         11    1    1    0    0    0 -0.94412555564E+01 -0.14158253784E+02 -0.54421807872E+02  0.57020405374E+02  0.51100000000E-03 0. -1.
         22    1    1    0    0    0  0.10302853233E+02  0.15516948712E+02  0.59659988887E+02  0.62499910048E+02  0.00000000000E+00 0. -1.
</event>
<event>
 4    1  0.1956828E-002  0.9118800E+02  0.7818608E-02  0.1130116E+00
         25   -1    0    0    0    0  0.00000000000E+00  0.00000000000E+00  0.99999998245E-14  0.12500000000E+03  0.12500000000E+03 0.  0.
        -11    1    1    0    0    0  0.16882021100E+01  0.23792834131E+01 -0.35030224172E+01  0.45587478808E+01  0.51100000000E-03 0. -1.
         11    1    1    0    0    0  0.21410827221E+02  0.30281232458E+02 -0.44517550205E+02  0.57941253335E+02  0.51100000000E-03 0.  1.
         22    1    1    0    0    0 -0.23099029331E+02 -0.32660515872E+02  0.48020572622E+02  0.62499998784E+02  0.00000000000E+00 0.  1.
</event>
<event>
 4    1  0.1956828E-002  0.9118800E+02  0.7818608E-02  0.1130116E+00
         25   -1    0    0    0    0  0.00000000000E+00  0.00000000000E+00  0.99999998245E-14  0.12500000000E+03  0.12500000000E+03 0.  0.
        -11    1    1    0    0    0 -0.34994451951E+01 -0.51561486994E+01  0.15211189293E+01  0.64144983547E+01  0.51100000000E-03 0.  1.
         11    1    1    0    0    0 -0.30553111195E+02 -0.45130794159E+02  0.13240193071E+02  0.56085505239E+02  0.51100000000E-03 0. -1.
         22    1    1    0    0    0  0.34052556390E+02  0.50286942859E+02 -0.14761312000E+02  0.62499996406E+02  0.00000000000E+00 0. -1.
</event>
<event>
 4    1  0.1956828E-002  0.9118800E+02  0.7818608E-02  0.1130116E+00
         25   -1    0    0    0    0  0.00000000000E+00  0.00000000000E+00  0.99999998245E-14  0.12500000000E+03  0.12500000000E+03 0.  0.
        -11    1    1    0    0    0 -0.18964943027E+02  0.43325928890E+01 -0.50279470855E+01  0.20092801630E+02  0.51100000000E-03 0. -1.
         11    1    1    0    0    0 -0.40016666813E+02  0.91020072958E+01 -0.10686042424E+02  0.42407212388E+02  0.51100000000E-03 0.  1.
         22    1    1    0    0    0  0.58981609840E+02 -0.13434600185E+02  0.15713989509E+02  0.62499985982E+02  0.00000000000E+00 0.  1.
</event>
<event>
 4    1  0.1956828E-002  0.9118800E+02  0.7818608E-02  0.1130116E+00
         25   -1    0    0    0    0  0.00000000000E+00  0.00000000000E+00  0.99999998245E-14  0.12500000000E+03  0.12500000000E+03 0.  0.
        -11    1    1    0    0    0  0.19771858353E+02  0.36845882405E+02  0.10752985930E+02  0.43176059797E+02  0.51100000000E-03 0. -1.
         11    1    1    0    0    0  0.70411156087E+01  0.18356685272E+02 -0.10211383355E+01  0.19687252905E+02  0.51100000000E-03 0.  1.
         22    1    1    0    0    0 -0.26812973961E+02 -0.55202567677E+02 -0.97318475950E+01  0.62136687298E+02  0.00000000000E+00 0. -1.
</event>
<event>
 4    1  0.1956828E-002  0.9118800E+02  0.7818608E-02  0.1130116E+00
         25   -1    0    0    0    0  0.00000000000E+00  0.00000000000E+00  0.99999998245E-14  0.12500000000E+03  0.12500000000E+03 0.  0.
        -11    1    1    0    0    0  0.35473489210E+02 -0.35285761845E+02 -0.19933663285E-01  0.50034526312E+02  0.51100000000E-03 0.  1.
         11    1    1    0    0    0  0.88375156943E+01 -0.87912634870E+01 -0.61154112345E-02  0.12465473718E+02  0.51100000000E-03 0. -1.
         22    1    1    0    0    0 -0.44311004904E+02  0.44077025332E+02  0.26049074519E-01  0.62499999970E+02  0.00000000000E+00 0.  1.
</event>
<event>
 4    1  0.1956828E-002  0.9118800E+02  0.7818608E-02  0.1130116E+00
         25   -1    0    0    0    0  0.00000000000E+00  0.00000000000E+00  0.99999998245E-14  0.12500000000E+03  0.12500000000E+03 0.  0.
        -11    1    1    0    0    0  0.46611428979E+01 -0.24079599896E+01  0.45488230545E+01  0.69437969345E+01  0.51100000000E-03 0.  1.
         11    1    1    0    0    0  0.38230910925E+02 -0.19344526727E+02  0.35366457846E+02  0.55557174202E+02  0.51100000000E-03 0. -1.
         22    1    1    0    0    0 -0.42892053823E+02  0.21752486717E+02 -0.39915280900E+02  0.62499028864E+02  0.00000000000E+00 0. -1.
</event>
<event>
 4    1  0.1956828E-002  0.9118800E+02  0.7818608E-02  0.1130116E+00
         25   -1    0    0    0    0  0.00000000000E+00  0.00000000000E+00  0.99999998245E-14  0.12500000000E+03  0.12500000000E+03 0.  0.
        -11    1    1    0    0    0  0.12482227748E+02 -0.70844520481E+00  0.15201653134E+02  0.19682432839E+02  0.51100000000E-03 0.  1.
         11    1    1    0    0    0  0.22945907606E+02 -0.11309712539E+02  0.34599712643E+02  0.43029808143E+02  0.51100000000E-03 0. -1.
         22    1    1    0    0    0 -0.35428135354E+02  0.12018157744E+02 -0.49801365777E+02  0.62287759018E+02  0.00000000000E+00 0. -1.
</event>
<event>
 4    1  0.1956828E-002  0.9118800E+02  0.7818608E-02  0.1130116E+00
         25   -1    0    0    0    0  0.00000000000E+00  0.00000000000E+00  0.99999998245E-14  0.12500000000E+03  0.12500000000E+03 0.  0.
        -11    1    1    0    0    0 -0.29330406708E+02 -0.31468046610E+02  0.29428649856E+02  0.52120592357E+02  0.51100000000E-03 0.  1.
         11    1    1    0    0    0 -0.58376719131E+01 -0.62688741523E+01  0.58613064430E+01  0.10379407978E+02  0.51100000000E-03 0. -1.
         22    1    1    0    0    0  0.35168078621E+02  0.37736920762E+02 -0.35289956299E+02  0.62499999664E+02  0.00000000000E+00 0.  1.
</event>
<event>
 4    1  0.1956828E-002  0.9118800E+02  0.7818608E-02  0.1130116E+00
         25   -1    0    0    0    0  0.00000000000E+00  0.00000000000E+00  0.99999998245E-14  0.12500000000E+03  0.12500000000E+03 0.  0.
        -11    1    1    0    0    0  0.28453099770E+01  0.47309562303E+01 -0.42115891013E+01  0.69437179333E+01  0.51100000000E-03 0. -1.
         11    1    1    0    0    0  0.22451339611E+02  0.37763574187E+02 -0.34005315612E+02  0.55556382854E+02  0.51100000000E-03 0.  1.
         22    1    1    0    0    0 -0.25296649588E+02 -0.42494530417E+02  0.38216904713E+02  0.62499899213E+02  0.00000000000E+00 0.  1.
</event>
<event>
 4    1  0.1956828E-002  0.9118800E+02  0.7818608E-02  0.1130116E+00
         25   -1    0    0    0    0  0.00000000000E+00  0.00000000000E+00  0.99999998245E-14  0.12500000000E+03  0.12500000000E+03 0.  0.
        -11    1    1    0    0    0 -0.50592103613E+02 -0.23984298013E+02  0.16779471512E+02  0.58449620731E+02  0.51100000000E-03 0. -1.
         11    1    1    0    0    0 -0.35579998797E+01 -0.18704051736E+01  0.63305521502E+00  0.40692183308E+01  0.51100000000E-03 0.  1.
         22    1    1    0    0    0  0.54150103493E+02  0.25854703186E+02 -0.17412526727E+02  0.62481160938E+02  0.00000000000E+00 0. -1.
</event>
<event>
 4    1  0.1956828E-002  0.9118800E+02  0.7818608E-02  0.1130116E+00
         25   -1    0    0    0    0  0.00000000000E+00  0.00000000000E+00  0.99999998245E-14  0.12500000000E+03  0.12500000000E+03 0.  0.
        -11    1    1    0    0    0  0.13181866119E+02 -0.24907327458E+00 -0.34187924626E+01  0.13620270703E+02  0.51100000000E-03 0.  1.
         11    1    1    0    0    0  0.47623104642E+02 -0.66621205872E+00 -0.11000722774E+02  0.48881692238E+02  0.51100000000E-03 0. -1.
         22    1    1    0    0    0 -0.60804970761E+02  0.91528533330E+00  0.14419515237E+02  0.62498037058E+02  0.00000000000E+00 0.  1.
</event>
<event>
 4    1  0.1956828E-002  0.9118800E+02  0.7818608E-02  0.1130116E+00
         25   -1    0    0    0    0  0.00000000000E+00  0.00000000000E+00  0.99999998245E-14  0.12500000000E+03  0.12500000000E+03 0.  0.
        -11    1    1    0    0    0  0.49526986803E+01 -0.52340273544E+01  0.24704770539E+01  0.76175799109E+01  0.51100000000E-03 0. -1.
         11    1    1    0    0    0  0.35161429141E+02 -0.37321506519E+02  0.19572339193E+02  0.54884400423E+02  0.51100000000E-03 0.  1.
         22    1    1    0    0    0 -0.40114127821E+02  0.42555533873E+02 -0.22042816247E+02  0.62498019666E+02  0.00000000000E+00 0. -1.
</event>
<event>
 4    1  0.1956828E-002  0.9118800E+02  0.7818608E-02  0.1130116E+00
         25   -1    0    0    0    0  0.00000000000E+00  0.00000000000E+00  0.99999998245E-14  0.12500000000E+03  0.12500000000E+03 0.  0.
        -11    1    1    0    0    0 -0.40491593859E+02  0.26811126108E+02 -0.27161649865E+02  0.55643156633E+02  0.51100000000E-03 0. -1.
         11    1    1    0    0    0 -0.48463558206E+01  0.32942775879E+01 -0.35647083170E+01  0.68590506058E+01  0.51100000000E-03 0.  1.
         22    1    1    0    0    0  0.45337949680E+02 -0.30105403695E+02  0.30726358182E+02  0.62497792761E+02  0.00000000000E+00 0. -1.
</event>
<event>
 4    1  0.1956828E-002  0.9118800E+02  0.7818608E-02  0.1130116E+00
         25   -1    0    0    0    0  0.00000000000E+00  0.00000000000E+00  0.99999998245E-14  0.12500000000E+03  0.12500000000E+03 0.  0.
        -11    1    1    0    0    0  0.16763145991E+02  0.64180786117E+01 -0.30676064956E+02  0.35541746693E+02  0.51100000000E-03 0.  1.
         11    1    1    0    0    0 -0.19068335449E+01 -0.24372398292E+02 -0.21346294990E+02  0.32454801227E+02  0.51100000000E-03 0. -1.
         22    1    1    0    0    0 -0.14856312446E+02  0.17954319680E+02  0.52022359945E+02  0.57003452079E+02  0.00000000000E+00 0. -1.
</event>
<event>
 4    1  0.1956828E-002  0.9118800E+02  0.7818608E-02  0.1130116E+00
         25   -1    0    0    0    0  0.00000000000E+00  0.00000000000E+00  0.99999998245E-14  0.12500000000E+03  0.12500000000E+03 0.  0.
        -11    1    1    0    0    0 -0.12580386209E+02  0.50838162880E+02 -0.16392559612E+02  0.54877143995E+02  0.51100000000E-03 0. -1.
         11    1    1    0    0    0 -0.17473905239E+01  0.70615916002E+01 -0.22778244620E+01  0.76228560338E+01  0.51100000000E-03 0.  1.
         22    1    1    0    0    0  0.14327776733E+02 -0.57899754480E+02  0.18670384074E+02  0.62499999971E+02  0.00000000000E+00 0. -1.
</event>
<event>
 4    1  0.1956828E-002  0.9118800E+02  0.7818608E-02  0.1130116E+00
         25   -1    0    0    0    0  0.00000000000E+00  0.00000000000E+00  0.99999998245E-14  0.12500000000E+03  0.12500000000E+03 0.  0.
        -11    1    1    0    0    0 -0.24104860011E+02  0.29196765545E+02  0.21713244920E+01  0.37923739857E+02  0.51100000000E-03 0. -1.
         11    1    1    0    0    0 -0.15618550501E+02  0.18922704282E+02  0.14087971000E+01  0.24576260225E+02  0.51100000000E-03 0.  1.
         22    1    1    0    0    0  0.39723410512E+02 -0.48119469827E+02 -0.35801215920E+01  0.62499999918E+02  0.00000000000E+00 0.  1.
</event>
<event>
 4    1  0.1956828E-002  0.9118800E+02  0.7818608E-02  0.1130116E+00
         25   -1    0    0    0    0  0.00000000000E+00  0.00000000000E+00  0.99999998245E-14  0.12500000000E+03  0.12500000000E+03 0.  0.
        -11    1    1    0    0    0  0.29781762300E+02  0.28635375406E+02  0.13326544876E+02  0.43411229986E+02  0.51100000000E-03 0.  1.
         11    1    1    0    0    0  0.13078012551E+02  0.12605924335E+02  0.58683561695E+01  0.19088775368E+02  0.51100000000E-03 0. -1.
         22    1    1    0    0    0 -0.42859774851E+02 -0.41241299741E+02 -0.19194901045E+02  0.62499994646E+02  0.00000000000E+00 0. -1.
</event>
<event>
 4    1  0.1956828E-002  0.9118800E+02  0.7818608E-02  0.1130116E+00
         25   -1    0    0    0    0  0.00000000000E+00  0.00000000000E+00  0.99999998245E-14  0.12500000000E+03  0.12500000000E+03 0.  0.
        -11    1    1    0    0    0 -0.47407379554E+02  0.74113246500E+01  0.30662998467E+02  0.56943892074E+02  0.51100000000E-03 0.  1.
         11    1    1    0    0    0 -0.49903910531E+01  0.11062223762E+01  0.22613622836E+01  0.55894087744E+01  0.51100000000E-03 0. -1.
         22    1    1    0    0    0  0.52397770608E+02 -0.85175470262E+01 -0.32924360751E+02  0.62466699151E+02  0.00000000000E+00 0.  1.
</event>
<event>
 4    1  0.1956828E-002  0.9118800E+02  0.7818608E-02  0.1130116E+00
         25   -1    0    0    0    0  0.00000000000E+00  0.00000000000E+00  0.99999998245E-14  0.12500000000E+03  0.12500000000E+03 0.  0.
        -11    1    1    0    0    0 -0.85489479160E+01  0.22445483094E+02 -0.24704981850E+02  0.34456064056E+02  0.51100000000E-03 0.  1.
         11    1    1    0    0    0 -0.69678672094E+01  0.18269563947E+02 -0.20103090192E+02  0.28043936525E+02  0.51100000000E-03 0. -1.
         22    1    1    0    0    0  0.15516815125E+02 -0.40715047041E+02  0.44808072042E+02  0.62499999419E+02  0.00000000000E+00 0.  1.
</event>
<event>
 4    1  0.1956828E-002  0.9118800E+02  0.7818608E-02  0.1130116E+00
         25   -1    0    0    0    0  0.00000000000E+00  0.00000000000E+00  0.99999998245E-14  0.12500000000E+03  0.12500000000E+03 0.  0.
        -11    1    1    0    0    0 -0.32401303582E+02  0.43386198878E+01 -0.81385052580E+00  0.32700618485E+02  0.51100000000E-03 0.  1.
         11    1    1    0    0    0 -0.29526395202E+02  0.39551575715E+01 -0.74286914936E+00  0.29799381535E+02  0.51100000000E-03 0. -1.
         22    1    1    0    0    0  0.61927698785E+02 -0.82937774593E+01  0.15567196752E+01  0.62499999980E+02  0.00000000000E+00 0.  1.
</event>
<event>
 4    1  0.1956828E-002  0.9118800E+02  0.7818608E-02  0.1130116E+00
         25   -1    0    0    0    0  0.00000000000E+00  0.00000000000E+00  0.99999998245E-14  0.12500000000E+03  0.12500000000E+03 0.  0.
        -11    1    1    0    0    0  0.14249101154E+02  0.54619084204E+02 -0.25208291992E+02  0.61820216988E+02  0.51100000000E-03 0.  1.
         11    1    1    0    0    0  0.22320106399E+00  0.64075928957E+00 -0.12645741634E+00  0.69020498506E+00  0.51100000000E-03 0. -1.
         22    1    1    0    0    0 -0.14472302218E+02 -0.55259843494E+02  0.25334749408E+02  0.62489578027E+02  0.00000000000E+00 0.  1.
</event>
<event>
 4    1  0.1956828E-002  0.9118800E+02  0.7818608E-02  0.1130116E+00
         25   -1    0    0    0    0  0.00000000000E+00  0.00000000000E+00  0.99999998245E-14  0.12500000000E+03  0.12500000000E+03 0.  0.
        -11    1    1    0    0    0  0.22347080928E+01  0.68744401707E+01  0.10113210295E+02  0.12430964188E+02  0.51100000000E-03 0.  1.
         11    1    1    0    0    0  0.10958804289E+02  0.24635526865E+02  0.42206967188E+02  0.50084255558E+02  0.51100000000E-03 0. -1.
         22    1    1    0    0    0 -0.13193512382E+02 -0.31509967036E+02 -0.52320177482E+02  0.62484780254E+02  0.00000000000E+00 0. -1.
</event>
<event>
 4    1  0.1956828E-002  0.9118800E+02  0.7818608E-02  0.1130116E+00
         25   -1    0    0    0    0  0.00000000000E+00  0.00000000000E+00  0.99999998245E-14  0.12500000000E+03  0.12500000000E+03 0.  0.
        -11    1    1    0    0    0 -0.31932600579E+02  0.33100577324E+02  0.26405800386E+02  0.53034003179E+02  0.51100000000E-03 0. -1.
         11    1    1    0    0    0 -0.17948464573E+01  0.33964794283E+01  0.97701925602E+01  0.10498295540E+02  0.51100000000E-03 0.  1.
         22    1    1    0    0    0  0.33727447036E+02 -0.36497056753E+02 -0.36175992946E+02  0.61467701281E+02  0.00000000000E+00 0. -1.
</event>
<event>
 4    1  0.1956828E-002  0.9118800E+02  0.7818608E-02  0.1130116E+00
         25   -1    0    0    0    0  0.00000000000E+00  0.00000000000E+00  0.99999998245E-14  0.12500000000E+03  0.12500000000E+03 0.  0.
        -11    1    1    0    0    0 -0.21383672036E+02 -0.50966195669E+02  0.25755888370E+02  0.60976883461E+02  0.51100000000E-03 0.  1.
         11    1    1    0    0    0 -0.53427523911E+00 -0.12722143315E+01  0.64490780631E+00  0.15231170921E+01  0.51100000000E-03 0. -1.
         22    1    1    0    0    0  0.21917947275E+02  0.52238410000E+02 -0.26400796176E+02  0.62499999447E+02  0.00000000000E+00 0.  1.
</event>
<event>
 4    1  0.1956828E-002  0.9118800E+02  0.7818608E-02  0.1130116E+00
         25   -1    0    0    0    0  0.00000000000E+00  0.00000000000E+00  0.99999998245E-14  0.12500000000E+03  0.12500000000E+03 0.  0.
        -11    1    1    0    0    0 -0.11719463861E+02  0.25399029929E+01 -0.16245354479E+01  0.12101076650E+02  0.51100000000E-03 0. -1.
         11    1    1    0    0    0 -0.48837670344E+02  0.10430885019E+02 -0.67920772801E+01  0.50398945633E+02  0.51100000000E-03 0.  1.
         22    1    1    0    0    0  0.60557134205E+02 -0.12970788012E+02  0.84166127280E+01  0.62499977717E+02  0.00000000000E+00 0.  1.
</event>
<event>
 4    1  0.1956828E-002  0.9118800E+02  0.7818608E-02  0.1130116E+00
         25   -1    0    0    0    0  0.00000000000E+00  0.00000000000E+00  0.99999998245E-14  0.12500000000E+03  0.12500000000E+03 0.  0.
        -11    1    1    0    0    0 -0.51237775096E+02  0.13026085454E+02 -0.11828037678E+02  0.54174634051E+02  0.51100000000E-03 0.  1.
         11    1    1    0    0    0 -0.78745040853E+01  0.20024329537E+01 -0.18149846254E+01  0.83253661646E+01  0.51100000000E-03 0. -1.
         22    1    1    0    0    0  0.59112279181E+02 -0.15028518407E+02  0.13643022304E+02  0.62499999784E+02  0.00000000000E+00 0.  1.
</event>
<event>
 4    1  0.1956828E-002  0.9118800E+02  0.7818608E-02  0.1130116E+00
         25   -1    0    0    0    0  0.00000000000E+00  0.00000000000E+00  0.99999998245E-14  0.12500000000E+03  0.12500000000E+03 0.  0.
        -11    1    1    0    0    0  0.16858974137E+02  0.15100290320E+02 -0.11340773582E+02  0.25315152032E+02  0.51100000000E-03 0.  1.
         11    1    1    0    0    0  0.24760833029E+02  0.22184095074E+02 -0.16657730829E+02  0.37184848032E+02  0.51100000000E-03 0. -1.
         22    1    1    0    0    0 -0.41619807166E+02 -0.37284385394E+02  0.27998504412E+02  0.62499999936E+02  0.00000000000E+00 0. -1.
</event>
<event>
 4    1  0.1956828E-002  0.9118800E+02  0.7818608E-02  0.1130116E+00
         25   -1    0    0    0    0  0.00000000000E+00  0.00000000000E+00  0.99999998245E-14  0.12500000000E+03  0.12500000000E+03 0.  0.
        -11    1    1    0    0    0 -0.13468804947E+02 -0.61786661820E+01 -0.31348464750E+01  0.15146348905E+02  0.51100000000E-03 0.  1.
         11    1    1    0    0    0 -0.42115457782E+02 -0.19336042737E+02 -0.97352200545E+01  0.47353657120E+02  0.51100000000E-03 0. -1.
         22    1    1    0    0    0  0.55584262728E+02  0.25514708919E+02  0.12870066529E+02  0.62499993974E+02  0.00000000000E+00 0. -1.
</event>
<event>
 4    1  0.1956828E-002  0.9118800E+02  0.7818608E-02  0.1130116E+00
         25   -1    0    0    0    0  0.00000000000E+00  0.00000000000E+00  0.99999998245E-14  0.12500000000E+03  0.12500000000E+03 0.  0.
        -11    1    1    0    0    0  0.29165372772E+01 -0.43043590220E+02 -0.32634001695E+02  0.54094684726E+02  0.51100000000E-03 0.  1.
         11    1    1    0    0    0  0.91720504469E+00 -0.62139955304E+01 -0.56136043077E+01  0.84242245418E+01  0.51100000000E-03 0. -1.
         22    1    1    0    0    0 -0.38337423218E+01  0.49257585750E+02  0.38247606003E+02  0.62481090732E+02  0.00000000000E+00 0.  1.
</event>
<event>
 4    1  0.1956828E-002  0.9118800E+02  0.7818608E-02  0.1130116E+00
         25   -1    0    0    0    0  0.00000000000E+00  0.00000000000E+00  0.99999998245E-14  0.12500000000E+03  0.12500000000E+03 0.  0.
        -11    1    1    0    0    0 -0.32999258828E+02 -0.11402433945E+01  0.34062143932E+02  0.47439233633E+02  0.51100000000E-03 0. -1.
         11    1    1    0    0    0 -0.10329223086E+02 -0.83170514690E+00  0.10933411380E+02  0.15063999060E+02  0.51100000000E-03 0.  1.
         22    1    1    0    0    0  0.43328481914E+02  0.19719485414E+01 -0.44995555312E+02  0.62496767307E+02  0.00000000000E+00 0. -1.
</event>
<event>
 4    1  0.1956828E-002  0.9118800E+02  0.7818608E-02  0.1130116E+00
         25   -1    0    0    0    0  0.00000000000E+00  0.00000000000E+00  0.99999998245E-14  0.12500000000E+03  0.12500000000E+03 0.  0.
        -11    1    1    0    0    0 -0.15859983337E+02 -0.33537103123E+02 -0.37060623782E+02  0.52438213096E+02  0.51100000000E-03 0. -1.
         11    1    1    0    0    0 -0.38330134659E+01 -0.75280626865E+01 -0.56192944037E+01  0.10145944505E+02  0.51100000000E-03 0.  1.
         22    1    1    0    0    0  0.19692996803E+02  0.41065165810E+02  0.42679918185E+02  0.62415842399E+02  0.00000000000E+00 0. -1.
</event>
<event>
 4    1  0.1956828E-002  0.9118800E+02  0.7818608E-02  0.1130116E+00
         25   -1    0    0    0    0  0.00000000000E+00  0.00000000000E+00  0.99999998245E-14  0.12500000000E+03  0.12500000000E+03 0.  0.
        -11    1    1    0    0    0  0.41599643790E+02 -0.33953475870E+02 -0.19599770047E+02  0.57162224180E+02  0.51100000000E-03 0. -1.
         11    1    1    0    0    0  0.38656538131E+01 -0.31906985549E+01 -0.18353132240E+01  0.53378096221E+01  0.51100000000E-03 0.  1.
         22    1    1    0    0    0 -0.45465297603E+02  0.37144174425E+02  0.21435083271E+02  0.62499966197E+02  0.00000000000E+00 0. -1.
</event>
<event>
 4    1  0.1956828E-002  0.9118800E+02  0.7818608E-02  0.1130116E+00
         25   -1    0    0    0    0  0.00000000000E+00  0.00000000000E+00  0.99999998245E-14  0.12500000000E+03  0.12500000000E+03 0.  0.
        -11    1    1    0    0    0 -0.37400613563E+01 -0.44691574171E+02 -0.32208192905E+02  0.55214966733E+02  0.51100000000E-03 0. -1.
         11    1    1    0    0    0  0.27391100800E+01  0.17065729188E+00 -0.88180987073E+01  0.92352971265E+01  0.51100000000E-03 0.  1.
         22    1    1    0    0    0  0.10009512763E+01  0.44520916879E+02  0.41026291612E+02  0.60549736141E+02  0.00000000000E+00 0. -1.
</event>
<event>
 4    1  0.1956828E-002  0.9118800E+02  0.7818608E-02  0.1130116E+00
         25   -1    0    0    0    0  0.00000000000E+00  0.00000000000E+00  0.99999998245E-14  0.12500000000E+03  0.12500000000E+03 0.  0.
        -11    1    1    0    0    0  0.11180721075E+01  0.10112392561E+02  0.12734157692E+02  0.16299366275E+02  0.51100000000E-03 0.  1.
         11    1    1    0    0    0  0.22743082897E+01  0.29781905716E+02  0.35252294624E+02  0.46204530761E+02  0.51100000000E-03 0. -1.
         22    1    1    0    0    0 -0.33923803972E+01 -0.39894298278E+02 -0.47986452317E+02  0.62496102965E+02  0.00000000000E+00 0. -1.
</event>
<event>
 4    1  0.1956828E-002  0.9118800E+02  0.7818608E-02  0.1130116E+00
         25   -1    0    0    0    0  0.00000000000E+00  0.00000000000E+00  0.99999998245E-14  0.12500000000E+03  0.12500000000E+03 0.  0.
        -11    1    1    0    0    0 -0.10271306841E+01 -0.13309004566E+01 -0.74522508763E+01  0.76395246483E+01  0.51100000000E-03 0.  1.
         11    1    1    0    0    0  0.35920028087E+02 -0.45177886155E+02 -0.48833576649E+01  0.57923544414E+02  0.51100000000E-03 0. -1.
         22    1    1    0    0    0 -0.34892897403E+02  0.46508786611E+02  0.12335608541E+02  0.59436930938E+02  0.00000000000E+00 0. -1.
</event>
<event>
 4    1  0.1956828E-002  0.9118800E+02  0.7818608E-02  0.1130116E+00
         25   -1    0    0    0    0  0.00000000000E+00  0.00000000000E+00  0.99999998245E-14  0.12500000000E+03  0.12500000000E+03 0.  0.
        -11    1    1    0    0    0  0.22339689275E+02  0.25031546560E+02  0.78017763472E+01  0.34445721861E+02  0.51100000000E-03 0. -1.
         11    1    1    0    0    0  0.17067925344E+02  0.21740187222E+02  0.49489120090E+01  0.28079201312E+02  0.51100000000E-03 0.  1.
         22    1    1    0    0    0 -0.39407614619E+02 -0.46771733782E+02 -0.12750688356E+02  0.62475076827E+02  0.00000000000E+00 0.  1.
</event>
<event>
 4    1  0.1956828E-002  0.9118800E+02  0.7818608E-02  0.1130116E+00
         25   -1    0    0    0    0  0.00000000000E+00  0.00000000000E+00  0.99999998245E-14  0.12500000000E+03  0.12500000000E+03 0.  0.
        -11    1    1    0    0    0 -0.22139247588E+02 -0.56317846754E+01 -0.48510940353E+02  0.53620654758E+02  0.51100000000E-03 0.  1.
         11    1    1    0    0    0 -0.36582904000E+01 -0.98358872630E+00 -0.80307770972E+01  0.88794096921E+01  0.51100000000E-03 0. -1.
         22    1    1    0    0    0  0.25797537988E+02  0.66153734017E+01  0.56541717451E+02  0.62499935550E+02  0.00000000000E+00 0.  1.
</event>
<event>
 4    1  0.1956828E-002  0.9118800E+02  0.7818608E-02  0.1130116E+00
         25   -1    0    0    0    0  0.00000000000E+00  0.00000000000E+00  0.99999998245E-14  0.12500000000E+03  0.12500000000E+03 0.  0.
        -11    1    1    0    0    0 -0.10129741052E+02  0.15261995825E+02  0.52191998797E+02  0.55313153128E+02  0.51100000000E-03 0.  1.
         11    1    1    0    0    0  0.40309762566E+01  0.19334816857E+01  0.66881191761E+01  0.80447535316E+01  0.51100000000E-03 0. -1.
         22    1    1    0    0    0  0.60987647954E+01 -0.17195477511E+02 -0.58880117973E+02  0.61642093340E+02  0.00000000000E+00 0.  1.
</event>
<event>
 4    1  0.1956828E-002  0.9118800E+02  0.7818608E-02  0.1130116E+00
         25   -1    0    0    0    0  0.00000000000E+00  0.00000000000E+00  0.99999998245E-14  0.12500000000E+03  0.12500000000E+03 0.  0.
        -11    1    1    0    0    0 -0.10549375404E+01 -0.14763617383E+01  0.14612173555E+01  0.23297411052E+01  0.51100000000E-03 0. -1.
         11    1    1    0    0    0 -0.23185359751E+02 -0.22217285856E+02  0.50966496773E+02  0.60239127576E+02  0.51100000000E-03 0.  1.
         22    1    1    0    0    0  0.24240297291E+02  0.23693647594E+02 -0.52427714128E+02  0.62431131319E+02  0.00000000000E+00 0.  1.
</event>
<event>
 4    1  0.1956828E-002  0.9118800E+02  0.7818608E-02  0.1130116E+00
         25   -1    0    0    0    0  0.00000000000E+00  0.00000000000E+00  0.99999998245E-14  0.12500000000E+03  0.12500000000E+03 0.  0.
        -11    1    1    0    0    0  0.58637703005E+01  0.10097284365E+02  0.15755360898E+02  0.19610465343E+02  0.51100000000E-03 0.  1.
         11    1    1    0    0    0  0.19308193943E+02  0.17990341013E+02  0.33945957090E+02  0.42997520000E+02  0.51100000000E-03 0. -1.
         22    1    1    0    0    0 -0.25171964243E+02 -0.28087625378E+02 -0.49701317988E+02  0.62392014657E+02  0.00000000000E+00 0. -1.
</event>
<event>
 4    1  0.1956828E-002  0.9118800E+02  0.7818608E-02  0.1130116E+00
         25   -1    0    0    0    0  0.00000000000E+00  0.00000000000E+00  0.99999998245E-14  0.12500000000E+03  0.12500000000E+03 0.  0.
        -11    1    1    0    0    0 -0.79362411512E+01 -0.11782643146E+02 -0.24945653183E+02  0.28707145732E+02  0.51100000000E-03 0. -1.
         11    1    1    0    0    0 -0.74853427686E+01 -0.16411009645E+02 -0.28618334173E+02  0.33828399978E+02  0.51100000000E-03 0.  1.
         22    1    1    0    0    0  0.15421583920E+02  0.28193652791E+02  0.53563987356E+02  0.62464454290E+02  0.00000000000E+00 0.  1.
</event>
<event>
 4    1  0.1956828E-002  0.9118800E+02  0.7818608E-02  0.1130116E+00
         25   -1    0    0    0    0  0.00000000000E+00  0.00000000000E+00  0.99999998245E-14  0.12500000000E+03  0.12500000000E+03 0.  0.
        -11    1    1    0    0    0 -0.39408081835E+01 -0.12873037007E+02  0.88502615879E+00  0.13491787224E+02  0.51100000000E-03 0.  1.
         11    1    1    0    0    0 -0.14310881284E+02 -0.46761888009E+02  0.32139428198E+01  0.49008212801E+02  0.51100000000E-03 0. -1.
         22    1    1    0    0    0  0.18251689467E+02  0.59634925016E+02 -0.40989689786E+01  0.62499999975E+02  0.00000000000E+00 0. -1.
</event>
<event>
 4    1  0.1956828E-002  0.9118800E+02  0.7818608E-02  0.1130116E+00
         25   -1    0    0    0    0  0.00000000000E+00  0.00000000000E+00  0.99999998245E-14  0.12500000000E+03  0.12500000000E+03 0.  0.
        -11    1    1    0    0    0 -0.48093310807E+02  0.13503762754E+01 -0.36613021070E+02  0.60459104960E+02  0.51100000000E-03 0. -1.
         11    1    1    0    0    0 -0.15571619525E+01  0.26681111132E-01 -0.13212135572E+01  0.20423199438E+01  0.51100000000E-03 0.  1.
         22    1    1    0    0    0  0.49650472760E+02 -0.13770573866E+01  0.37934234627E+02  0.62498575096E+02  0.00000000000E+00 0. -1.
</event>
<event>
 4    1  0.1956828E-002  0.9118800E+02  0.7818608E-02  0.1130116E+00
         25   -1    0    0    0    0  0.00000000000E+00  0.00000000000E+00  0.99999998245E-14  0.12500000000E+03  0.12500000000E+03 0.  0.
        -11    1    1    0    0    0  0.55141502839E+02 -0.17996694165E+02 -0.46020697223E+00  0.58005845627E+02  0.51100000000E-03 0. -1.
         11    1    1    0    0    0  0.43755380799E+01 -0.10373793944E+01 -0.24626589560E+00  0.45035693232E+01  0.51100000000E-03 0.  1.
         22    1    1    0    0    0 -0.59517040919E+02  0.19034073559E+02  0.70647286783E+00  0.62490585050E+02  0.00000000000E+00 0. -1.
</event>
<event>
 4    1  0.1956828E-002  0.9118800E+02  0.7818608E-02  0.1130116E+00
         25   -1    0    0    0    0  0.00000000000E+00  0.00000000000E+00  0.99999998245E-14  0.12500000000E+03  0.12500000000E+03 0.  0.
        -11    1    1    0    0    0 -0.91696472842E+01 -0.18017228712E+01 -0.77199854270E+01  0.12121337050E+02  0.51100000000E-03 0. -1.
         11    1    1    0    0    0 -0.36335204275E+02 -0.54468978488E+01 -0.34487144025E+02  0.50391257864E+02  0.51100000000E-03 0.  1.
         22    1    1    0    0    0  0.45504851559E+02  0.72486207201E+01  0.42207129452E+02  0.62487405086E+02  0.00000000000E+00 0.  1.
</event>
<event>
 4    1  0.1956828E-002  0.9118800E+02  0.7818608E-02  0.1130116E+00
         25   -1    0    0    0    0  0.00000000000E+00  0.00000000000E+00  0.99999998245E-14  0.12500000000E+03  0.12500000000E+03 0.  0.
        -11    1    1    0    0    0 -0.79672472164E+01  0.66459846606E+01  0.37656126391E+01  0.11037480651E+02  0.51100000000E-03 0.  1.
         11    1    1    0    0    0 -0.38005739415E+02  0.29585131324E+02  0.18136783720E+02  0.51465125550E+02  0.51100000000E-03 0. -1.
         22    1    1    0    0    0  0.45972986632E+02 -0.36231115985E+02 -0.21902396359E+02  0.62497393798E+02  0.00000000000E+00 0. -1.
</event>
<event>
 4    1  0.1956828E-002  0.9118800E+02  0.7818608E-02  0.1130116E+00
         25   -1    0    0    0    0  0.00000000000E+00  0.00000000000E+00  0.99999998245E-14  0.12500000000E+03  0.12500000000E+03 0.  0.
        -11    1    1    0    0    0  0.35239564091E+02 -0.77429499036E+01  0.16730684473E+02  0.39770541280E+02  0.51100000000E-03 0.  1.
         11    1    1    0    0    0  0.17119499506E+02 -0.17841670747E+02 -0.48302966339E+00  0.24731271627E+02  0.51100000000E-03 0. -1.
         22    1    1    0    0    0 -0.52359063597E+02  0.25584620651E+02 -0.16247654810E+02  0.60498187092E+02  0.00000000000E+00 0.  1.
</event>
<event>
 4    1  0.1956828E-002  0.9118800E+02  0.7818608E-02  0.1130116E+00
         25   -1    0    0    0    0  0.00000000000E+00  0.00000000000E+00  0.99999998245E-14  0.12500000000E+03  0.12500000000E+03 0.  0.
        -11    1    1    0    0    0  0.18729607409E+02 -0.10823357520E+02  0.55520665624E+02  0.59585967923E+02  0.51100000000E-03 0. -1.
         11    1    1    0    0    0 -0.17288762254E+02  0.20942989713E+01 -0.12358881729E+02  0.21354843627E+02  0.51100000000E-03 0.  1.
         22    1    1    0    0    0 -0.14408451555E+01  0.87290585489E+01 -0.43161783895E+02  0.44059188450E+02  0.00000000000E+00 0. -1.
</event>
<event>
 4    1  0.1956828E-002  0.9118800E+02  0.7818608E-02  0.1130116E+00
         25   -1    0    0    0    0  0.00000000000E+00  0.00000000000E+00  0.99999998245E-14  0.12500000000E+03  0.12500000000E+03 0.  0.
        -11    1    1    0    0    0 -0.36516389581E+02 -0.30313652179E+02 -0.72273614085E+01  0.48006238862E+02  0.51100000000E-03 0.  1.
         11    1    1    0    0    0 -0.11080001191E+02 -0.90724697981E+01 -0.22355498033E+01  0.14493923479E+02  0.51100000000E-03 0. -1.
         22    1    1    0    0    0  0.47596390772E+02  0.39386121977E+02  0.94629112117E+01  0.62499837660E+02  0.00000000000E+00 0.  1.
</event>
<event>
 4    1  0.1956828E-002  0.9118800E+02  0.7818608E-02  0.1130116E+00
         25   -1    0    0    0    0  0.00000000000E+00  0.00000000000E+00  0.99999998245E-14  0.12500000000E+03  0.12500000000E+03 0.  0.
        -11    1    1    0    0    0 -0.70561010858E+01  0.32048132646E+01 -0.89681536548E+01  0.11852728413E+02  0.51100000000E-03 0.  1.
         11    1    1    0    0    0  0.17012643094E+02  0.26532162669E+02 -0.42479702195E+02  0.52895281263E+02  0.51100000000E-03 0. -1.
         22    1    1    0    0    0 -0.99565420087E+01 -0.29736975934E+02  0.51447855850E+02  0.60251990324E+02  0.00000000000E+00 0. -1.
</event>
<event>
 4    1  0.1956828E-002  0.9118800E+02  0.7818608E-02  0.1130116E+00
         25   -1    0    0    0    0  0.00000000000E+00  0.00000000000E+00  0.99999998245E-14  0.12500000000E+03  0.12500000000E+03 0.  0.
        -11    1    1    0    0    0  0.39269400069E+02  0.59694774565E+01  0.46015971628E+02  0.60788075212E+02  0.51100000000E-03 0.  1.
         11    1    1    0    0    0  0.20225710403E+01  0.17777319399E+01 -0.19265826871E+01  0.33110188122E+01  0.51100000000E-03 0. -1.
         22    1    1    0    0    0 -0.41291971109E+02 -0.77472093964E+01 -0.44089388941E+02  0.60900905976E+02  0.00000000000E+00 0.  1.
</event>
<event>
 4    1  0.1956828E-002  0.9118800E+02  0.7818608E-02  0.1130116E+00
         25   -1    0    0    0    0  0.00000000000E+00  0.00000000000E+00  0.99999998245E-14  0.12500000000E+03  0.12500000000E+03 0.  0.
        -11    1    1    0    0    0 -0.19292449626E+02 -0.34443406878E+02  0.33355580477E+02  0.51683088522E+02  0.51100000000E-03 0.  1.
         11    1    1    0    0    0 -0.71481831844E+01 -0.37284723959E+01  0.78374653365E+01  0.11243837975E+02  0.51100000000E-03 0. -1.
         22    1    1    0    0    0  0.26440632811E+02  0.38171879274E+02 -0.41193045813E+02  0.62073073503E+02  0.00000000000E+00 0.  1.
</event>
<event>
 4    1  0.1956828E-002  0.9118800E+02  0.7818608E-02  0.1130116E+00
         25   -1    0    0    0    0  0.00000000000E+00  0.00000000000E+00  0.99999998245E-14  0.12500000000E+03  0.12500000000E+03 0.  0.
        -11    1    1    0    0    0 -0.94663295124E+00 -0.53874950204E+02  0.21166432281E+02  0.57891486672E+02  0.51100000000E-03 0.  1.
         11    1    1    0    0    0  0.66004732176E+01  0.59115251147E+01 -0.16320231419E+02  0.18570469292E+02  0.51100000000E-03 0. -1.
         22    1    1    0    0    0 -0.56538402664E+01  0.47963425089E+02 -0.48462008611E+01  0.48538044036E+02  0.00000000000E+00 0.  1.
</event>
<event>
 4    1  0.1956828E-002  0.9118800E+02  0.7818608E-02  0.1130116E+00
         25   -1    0    0    0    0  0.00000000000E+00  0.00000000000E+00  0.99999998245E-14  0.12500000000E+03  0.12500000000E+03 0.  0.
        -11    1    1    0    0    0  0.33320086256E+01  0.88256041767E+01 -0.72068425519E+01  0.11871484759E+02  0.51100000000E-03 0. -1.
         11    1    1    0    0    0  0.14591471543E+02  0.38291254991E+02 -0.29736581218E+02  0.50629986306E+02  0.51100000000E-03 0.  1.
         22    1    1    0    0    0 -0.17923480169E+02 -0.47116859167E+02  0.36943423770E+02  0.62498528935E+02  0.00000000000E+00 0.  1.
</event>
<event>
 4    1  0.1956828E-002  0.9118800E+02  0.7818608E-02  0.1130116E+00
         25   -1    0    0    0    0  0.00000000000E+00  0.00000000000E+00  0.99999998245E-14  0.12500000000E+03  0.12500000000E+03 0.  0.
        -11    1    1    0    0    0 -0.20545024308E+02  0.42734441038E+02  0.28337999178E+02  0.55239231279E+02  0.51100000000E-03 0. -1.
         11    1    1    0    0    0 -0.26972699603E+01  0.55791250460E+01  0.37840525860E+01  0.72609197594E+01  0.51100000000E-03 0.  1.
         22    1    1    0    0    0  0.23242294269E+02 -0.48313566084E+02 -0.32122051764E+02  0.62499848961E+02  0.00000000000E+00 0. -1.
</event>
<event>
 4    1  0.1956828E-002  0.9118800E+02  0.7818608E-02  0.1130116E+00
         25   -1    0    0    0    0  0.00000000000E+00  0.00000000000E+00  0.99999998245E-14  0.12500000000E+03  0.12500000000E+03 0.  0.
        -11    1    1    0    0    0 -0.77955419394E+01 -0.31095799867E+01 -0.24421876259E+01  0.87409520353E+01  0.51100000000E-03 0.  1.
         11    1    1    0    0    0 -0.47849949392E+02 -0.19318457283E+02 -0.15073760071E+02  0.53759080085E+02  0.51100000000E-03 0. -1.
         22    1    1    0    0    0  0.55645491331E+02  0.22428037270E+02  0.17515947697E+02  0.62499967880E+02  0.00000000000E+00 0. -1.
</event>
<event>
 4    1  0.1956828E-002  0.9118800E+02  0.7818608E-02  0.1130116E+00
         25   -1    0    0    0    0  0.00000000000E+00  0.00000000000E+00  0.99999998245E-14  0.12500000000E+03  0.12500000000E+03 0.  0.
        -11    1    1    0    0    0  0.11355178928E+02 -0.22105783359E+01 -0.16711924101E+02  0.20325234377E+02  0.51100000000E-03 0.  1.
         11    1    1    0    0    0  0.23547043118E+02 -0.45974658214E+01 -0.34685890364E+02  0.42174766416E+02  0.51100000000E-03 0. -1.
         22    1    1    0    0    0 -0.34902222047E+02  0.68080441573E+01  0.51397814465E+02  0.62499999207E+02  0.00000000000E+00 0. -1.
</event>
<event>
 4    1  0.1956828E-002  0.9118800E+02  0.7818608E-02  0.1130116E+00
         25   -1    0    0    0    0  0.00000000000E+00  0.00000000000E+00  0.99999998245E-14  0.12500000000E+03  0.12500000000E+03 0.  0.
        -11    1    1    0    0    0  0.55907524664E+02  0.19387315368E+02 -0.14611664989E+01  0.59191674406E+02  0.51100000000E-03 0.  1.
         11    1    1    0    0    0  0.31281839690E+01  0.10743946118E+01 -0.72425140862E-01  0.33083386144E+01  0.51100000000E-03 0. -1.
         22    1    1    0    0    0 -0.59035708633E+02 -0.20461709980E+02  0.15335916398E+01  0.62499986979E+02  0.00000000000E+00 0.  1.
</event>
<event>
 4    1  0.1956828E-002  0.9118800E+02  0.7818608E-02  0.1130116E+00
         25   -1    0    0    0    0  0.00000000000E+00  0.00000000000E+00  0.99999998245E-14  0.12500000000E+03  0.12500000000E+03 0.  0.
        -11    1    1    0    0    0  0.20728980898E+01  0.16102113500E+01  0.30479924462E+01  0.40224302723E+01  0.51100000000E-03 0.  1.
         11    1    1    0    0    0  0.29651589690E+02  0.23402919792E+02  0.44639934470E+02  0.58477663904E+02  0.51100000000E-03 0. -1.
         22    1    1    0    0    0 -0.31724487780E+02 -0.25013131142E+02 -0.47687926916E+02  0.62499905824E+02  0.00000000000E+00 0. -1.
</event>
<event>
 4    1  0.1956828E-002  0.9118800E+02  0.7818608E-02  0.1130116E+00
         25   -1    0    0    0    0  0.00000000000E+00  0.00000000000E+00  0.99999998245E-14  0.12500000000E+03  0.12500000000E+03 0.  0.
        -11    1    1    0    0    0 -0.27307438535E+02 -0.10901903352E+02 -0.17898198698E+02  0.34422277858E+02  0.51100000000E-03 0.  1.
         11    1    1    0    0    0 -0.14250510097E+02  0.86599511136E+01  0.40084699707E+02  0.43414916126E+02  0.51100000000E-03 0. -1.
         22    1    1    0    0    0  0.41557948632E+02  0.22419522388E+01 -0.22186501009E+02  0.47162806016E+02  0.00000000000E+00 0. -1.
</event>
<event>
 4    1  0.1956828E-002  0.9118800E+02  0.7818608E-02  0.1130116E+00
         25   -1    0    0    0    0  0.00000000000E+00  0.00000000000E+00  0.99999998245E-14  0.12500000000E+03  0.12500000000E+03 0.  0.
        -11    1    1    0    0    0  0.98298336050E+01  0.22619756433E+02 -0.13560548564E+02  0.28145470105E+02  0.51100000000E-03 0. -1.
         11    1    1    0    0    0  0.11996759577E+02  0.27610579095E+02 -0.16551960812E+02  0.34354529909E+02  0.51100000000E-03 0. -1.
         22    1    1    0    0    0 -0.21826593182E+02 -0.50230335528E+02  0.30112509376E+02  0.62499999985E+02  0.00000000000E+00 0. -1.
</event>
<event>
 4    1  0.1956828E-002  0.9118800E+02  0.7818608E-02  0.1130116E+00
         25   -1    0    0    0    0  0.00000000000E+00  0.00000000000E+00  0.99999998245E-14  0.12500000000E+03  0.12500000000E+03 0.  0.
        -11    1    1    0    0    0  0.99887967156E+01 -0.51628808523E+01  0.16801294843E+02  0.20216698721E+02  0.51100000000E-03 0. -1.
         11    1    1    0    0    0  0.20892697487E+02 -0.10796104262E+02  0.35139961476E+02  0.42283301294E+02  0.51100000000E-03 0.  1.
         22    1    1    0    0    0 -0.30881494202E+02  0.15958985114E+02 -0.51941256319E+02  0.62499999985E+02  0.00000000000E+00 0.  1.
</event>
<event>
 4    1  0.1956828E-002  0.9118800E+02  0.7818608E-02  0.1130116E+00
         25   -1    0    0    0    0  0.00000000000E+00  0.00000000000E+00  0.99999998245E-14  0.12500000000E+03  0.12500000000E+03 0.  0.
        -11    1    1    0    0    0 -0.47500552614E+02  0.24325972684E+02  0.31182197105E+02  0.61809261945E+02  0.51100000000E-03 0.  1.
         11    1    1    0    0    0  0.51049816872E-01 -0.13472874820E+00  0.96818920887E+00  0.97885061408E+00  0.51100000000E-03 0. -1.
         22    1    1    0    0    0  0.47449502797E+02 -0.24191243936E+02 -0.32150386314E+02  0.62211887441E+02  0.00000000000E+00 0.  1.
</event>
<event>
 4    1  0.1956828E-002  0.9118800E+02  0.7818608E-02  0.1130116E+00
         25   -1    0    0    0    0  0.00000000000E+00  0.00000000000E+00  0.99999998245E-14  0.12500000000E+03  0.12500000000E+03 0.  0.
        -11    1    1    0    0    0  0.66731658727E+01  0.31390618551E+02 -0.30804060329E+02  0.44483617308E+02  0.51100000000E-03 0.  1.
         11    1    1    0    0    0  0.35666338467E+01  0.15426652694E+02 -0.90047811892E+01  0.18215064503E+02  0.51100000000E-03 0. -1.
         22    1    1    0    0    0 -0.10239799719E+02 -0.46817271244E+02  0.39808841518E+02  0.62301318189E+02  0.00000000000E+00 0.  1.
</event>
<event>
 4    1  0.1956828E-002  0.9118800E+02  0.7818608E-02  0.1130116E+00
         25   -1    0    0    0    0  0.00000000000E+00  0.00000000000E+00  0.99999998245E-14  0.12500000000E+03  0.12500000000E+03 0.  0.
        -11    1    1    0    0    0 -0.11015800217E+02  0.38628811291E+02  0.17924633050E+02  0.43986650093E+02  0.51100000000E-03 0. -1.
         11    1    1    0    0    0 -0.46472657040E+01  0.16256482581E+02  0.75414763613E+01  0.18513351139E+02  0.51100000000E-03 0.  1.
         22    1    1    0    0    0  0.15663065921E+02 -0.54885293872E+02 -0.25466109411E+02  0.62499998768E+02  0.00000000000E+00 0. -1.
</event>
<event>
 4    1  0.1956828E-002  0.9118800E+02  0.7818608E-02  0.1130116E+00
         25   -1    0    0    0    0  0.00000000000E+00  0.00000000000E+00  0.99999998245E-14  0.12500000000E+03  0.12500000000E+03 0.  0.
        -11    1    1    0    0    0 -0.37599323256E+02  0.33419029488E+02 -0.30648182420E+00  0.50305412955E+02  0.51100000000E-03 0.  1.
         11    1    1    0    0    0 -0.10748303397E+02  0.55103700381E+01 -0.32883119714E+01  0.12518114864E+02  0.51100000000E-03 0. -1.
         22    1    1    0    0    0  0.48347626653E+02 -0.38929399526E+02  0.35947937956E+01  0.62176472181E+02  0.00000000000E+00 0.  1.
</event>
<event>
 4    1  0.1956828E-002  0.9118800E+02  0.7818608E-02  0.1130116E+00
         25   -1    0    0    0    0  0.00000000000E+00  0.00000000000E+00  0.99999998245E-14  0.12500000000E+03  0.12500000000E+03 0.  0.
        -11    1    1    0    0    0  0.31381855278E+02  0.38669989130E+02 -0.77699529784E+01  0.50403978707E+02  0.51100000000E-03 0. -1.
         11    1    1    0    0    0  0.75379287858E+01  0.92750110169E+01 -0.18621394070E+01  0.12096022618E+02  0.51100000000E-03 0.  1.
         22    1    1    0    0    0 -0.38919784064E+02 -0.47945000147E+02  0.96320923854E+01  0.62499998675E+02  0.00000000000E+00 0. -1.
</event>
<event>
 4    1  0.1956828E-002  0.9118800E+02  0.7818608E-02  0.1130116E+00
         25   -1    0    0    0    0  0.00000000000E+00  0.00000000000E+00  0.99999998245E-14  0.12500000000E+03  0.12500000000E+03 0.  0.
        -11    1    1    0    0    0  0.21778213442E+02  0.24164480129E+02  0.16767772405E+02  0.36597416197E+02  0.51100000000E-03 0. -1.
         11    1    1    0    0    0  0.15158618107E+02  0.17226063999E+02  0.12018863656E+02  0.25903167135E+02  0.51100000000E-03 0.  1.
         22    1    1    0    0    0 -0.36936831549E+02 -0.41390544127E+02 -0.28786636062E+02  0.62499416667E+02  0.00000000000E+00 0. -1.
</event>
<event>
 4    1  0.1956828E-002  0.9118800E+02  0.7818608E-02  0.1130116E+00
         25   -1    0    0    0    0  0.00000000000E+00  0.00000000000E+00  0.99999998245E-14  0.12500000000E+03  0.12500000000E+03 0.  0.
        -11    1    1    0    0    0 -0.16672315851E+02  0.12567465283E+01  0.41936758178E+00  0.16724873605E+02  0.51100000000E-03 0.  1.
         11    1    1    0    0    0 -0.45631862657E+02  0.34339149133E+01  0.11417289029E+01  0.45775126503E+02  0.51100000000E-03 0. -1.
         22    1    1    0    0    0  0.62304178508E+02 -0.46906614416E+01 -0.15610964847E+01  0.62499999892E+02  0.00000000000E+00 0. -1.
</event>
<event>
 4    1  0.1956828E-002  0.9118800E+02  0.7818608E-02  0.1130116E+00
         25   -1    0    0    0    0  0.00000000000E+00  0.00000000000E+00  0.99999998245E-14  0.12500000000E+03  0.12500000000E+03 0.  0.
        -11    1    1    0    0    0 -0.82031565182E+01  0.61955266468E+01  0.90865554340E+00  0.10319979770E+02  0.51100000000E-03 0.  1.
         11    1    1    0    0    0 -0.41253587416E+02  0.31681091901E+02  0.41515269491E+01  0.52180314631E+02  0.51100000000E-03 0. -1.
         22    1    1    0    0    0  0.49456743934E+02 -0.37876618548E+02 -0.50601824925E+01  0.62499705599E+02  0.00000000000E+00 0. -1.
</event>
<event>
 4    1  0.1956828E-002  0.9118800E+02  0.7818608E-02  0.1130116E+00
         25   -1    0    0    0    0  0.00000000000E+00  0.00000000000E+00  0.99999998245E-14  0.12500000000E+03  0.12500000000E+03 0.  0.
        -11    1    1    0    0    0 -0.15315048519E+02 -0.82367732045E+01  0.21767693909E+02  0.27860862197E+02  0.51100000000E-03 0. -1.
         11    1    1    0    0    0 -0.19111192446E+02 -0.10297364201E+02  0.26992580773E+02  0.34639180176E+02  0.51100000000E-03 0.  1.
         22    1    1    0    0    0  0.34426240964E+02  0.18534137406E+02 -0.48760274682E+02  0.62499957627E+02  0.00000000000E+00 0.  1.
</event>
<event>
 4    1  0.1956828E-002  0.9118800E+02  0.7818608E-02  0.1130116E+00
         25   -1    0    0    0    0  0.00000000000E+00  0.00000000000E+00  0.99999998245E-14  0.12500000000E+03  0.12500000000E+03 0.  0.
        -11    1    1    0    0    0 -0.14395770657E+01  0.18596836882E+00  0.51918012348E+02  0.51938299672E+02  0.51100000000E-03 0. -1.
         11    1    1    0    0    0 -0.29099746854E+00  0.39594528365E-01  0.10557616636E+02  0.10561700458E+02  0.51100000000E-03 0. -1.
         22    1    1    0    0    0  0.17305745342E+01 -0.22556289718E+00 -0.62475628984E+02  0.62499999871E+02  0.00000000000E+00 0. -1.
</event>
<event>
 4    1  0.1956828E-002  0.9118800E+02  0.7818608E-02  0.1130116E+00
         25   -1    0    0    0    0  0.00000000000E+00  0.00000000000E+00  0.99999998245E-14  0.12500000000E+03  0.12500000000E+03 0.  0.
        -11    1    1    0    0    0 -0.19630079066E+00  0.12586119618E+01  0.26508194727E+01  0.29410002055E+01  0.51100000000E-03 0.  1.
         11    1    1    0    0    0  0.18802786453E+02  0.35152518214E+02  0.44434957209E+02  0.59696815138E+02  0.51100000000E-03 0. -1.
         22    1    1    0    0    0 -0.18606485663E+02 -0.36411130176E+02 -0.47085776682E+02  0.62362184656E+02  0.00000000000E+00 0. -1.
</event>
<event>
 4    1  0.1956828E-002  0.9118800E+02  0.7818608E-02  0.1130116E+00
         25   -1    0    0    0    0  0.00000000000E+00  0.00000000000E+00  0.99999998245E-14  0.12500000000E+03  0.12500000000E+03 0.  0.
        -11    1    1    0    0    0  0.20934058480E+02 -0.62129809129E+01  0.10455269288E+02  0.24210505827E+02  0.51100000000E-03 0. -1.
         11    1    1    0    0    0  0.33099753148E+02 -0.98295060534E+01  0.16549095690E+02  0.38289494854E+02  0.51100000000E-03 0.  1.
         22    1    1    0    0    0 -0.54033811628E+02  0.16042486966E+02 -0.27004364978E+02  0.62499999320E+02  0.00000000000E+00 0.  1.
</event>
<event>
 4    1  0.1956828E-002  0.9118800E+02  0.7818608E-02  0.1130116E+00
         25   -1    0    0    0    0  0.00000000000E+00  0.00000000000E+00  0.99999998245E-14  0.12500000000E+03  0.12500000000E+03 0.  0.
        -11    1    1    0    0    0 -0.22415810040E+02  0.20816331165E+02  0.18865429779E+02  0.35940125541E+02  0.51100000000E-03 0.  1.
         11    1    1    0    0    0 -0.16296963307E+02  0.15461329259E+02  0.14171126351E+02  0.26560582407E+02  0.51100000000E-03 0. -1.
         22    1    1    0    0    0  0.38712773346E+02 -0.36277660424E+02 -0.33036556130E+02  0.62499292052E+02  0.00000000000E+00 0.  1.
</event>
<event>
 4    1  0.1956828E-002  0.9118800E+02  0.7818608E-02  0.1130116E+00
         25   -1    0    0    0    0  0.00000000000E+00  0.00000000000E+00  0.99999998245E-14  0.12500000000E+03  0.12500000000E+03 0.  0.
        -11    1    1    0    0    0 -0.57715284893E+01  0.62629665379E+01 -0.80594107223E+01  0.11725587082E+02  0.51100000000E-03 0.  1.
         11    1    1    0    0    0 -0.24990220835E+02  0.27115274490E+02 -0.34904036506E+02  0.50774412972E+02  0.51100000000E-03 0. -1.
         22    1    1    0    0    0  0.30761749324E+02 -0.33378241028E+02  0.42963447228E+02  0.62499999946E+02  0.00000000000E+00 0. -1.
</event>
<event>
 4    1  0.1956828E-002  0.9118800E+02  0.7818608E-02  0.1130116E+00
         25   -1    0    0    0    0  0.00000000000E+00  0.00000000000E+00  0.99999998245E-14  0.12500000000E+03  0.12500000000E+03 0.  0.
        -11    1    1    0    0    0  0.72183149049E+00 -0.10478586496E+00  0.53424224013E+01  0.53919846210E+01  0.51100000000E-03 0.  1.
         11    1    1    0    0    0  0.14159182610E+02 -0.19713643079E+01  0.55307229072E+02  0.57124936037E+02  0.51100000000E-03 0. -1.
         22    1    1    0    0    0 -0.14881014101E+02  0.20761501728E+01 -0.60649651473E+02  0.62483079342E+02  0.00000000000E+00 0. -1.
</event>
<event>
 4    1  0.1956828E-002  0.9118800E+02  0.7818608E-02  0.1130116E+00
         25   -1    0    0    0    0  0.00000000000E+00  0.00000000000E+00  0.99999998245E-14  0.12500000000E+03  0.12500000000E+03 0.  0.
        -11    1    1    0    0    0 -0.22858187331E+01 -0.18832725626E+02 -0.14900941602E+02  0.24123320308E+02  0.51100000000E-03 0. -1.
         11    1    1    0    0    0 -0.36559412587E+01 -0.29979931883E+02 -0.23677154042E+02  0.38376683624E+02  0.51100000000E-03 0.  1.
         22    1    1    0    0    0  0.59417599919E+01  0.48812657509E+02  0.38578095645E+02  0.62499996068E+02  0.00000000000E+00 0.  1.
</event>
<event>
 4    1  0.1956828E-002  0.9118800E+02  0.7818608E-02  0.1130116E+00
         25   -1    0    0    0    0  0.00000000000E+00  0.00000000000E+00  0.99999998245E-14  0.12500000000E+03  0.12500000000E+03 0.  0.
        -11    1    1    0    0    0  0.45762370412E+02 -0.61793213158E+01 -0.36521276565E+02  0.58874291502E+02  0.51100000000E-03 0.  1.
         11    1    1    0    0    0  0.16659218967E+01  0.51314565765E+01 -0.11879379351E+01  0.55243406087E+01  0.51100000000E-03 0. -1.
         22    1    1    0    0    0 -0.47428292309E+02  0.10478647393E+01  0.37709214500E+02  0.60601367889E+02  0.00000000000E+00 0.  1.
</event>
<event>
 4    1  0.1956828E-002  0.9118800E+02  0.7818608E-02  0.1130116E+00
         25   -1    0    0    0    0  0.00000000000E+00  0.00000000000E+00  0.99999998245E-14  0.12500000000E+03  0.12500000000E+03 0.  0.
        -11    1    1    0    0    0  0.14060694963E+02 -0.79567231127E+00  0.18675042528E+02  0.23390028878E+02  0.51100000000E-03 0.  1.
         11    1    1    0    0    0  0.24752767328E+02 -0.18240508861E+01  0.30233786028E+02  0.39116600950E+02  0.51100000000E-03 0. -1.
         22    1    1    0    0    0 -0.38813462291E+02  0.26197231973E+01 -0.48908828556E+02  0.62493370171E+02  0.00000000000E+00 0. -1.
</event>
<event>
 4    1  0.1956828E-002  0.9118800E+02  0.7818608E-02  0.1130116E+00
         25   -1    0    0    0    0  0.00000000000E+00  0.00000000000E+00  0.99999998245E-14  0.12500000000E+03  0.12500000000E+03 0.  0.
        -11    1    1    0    0    0 -0.34393213970E+00 -0.31981847643E+01 -0.14722071404E+02  0.15069374964E+02  0.51100000000E-03 0. -1.
         11    1    1    0    0    0 -0.13695677804E+01 -0.10491067981E+02 -0.46235904919E+02  0.47430972236E+02  0.51100000000E-03 0.  1.
         22    1    1    0    0    0  0.17134999201E+01  0.13689252746E+02  0.60957976323E+02  0.62499652800E+02  0.00000000000E+00 0.  1.
</event>
<event>
 4    1  0.1956828E-002  0.9118800E+02  0.7818608E-02  0.1130116E+00
         25   -1    0    0    0    0  0.00000000000E+00  0.00000000000E+00  0.99999998245E-14  0.12500000000E+03  0.12500000000E+03 0.  0.
        -11    1    1    0    0    0  0.13063979572E+02 -0.11537056261E+02  0.20986096205E+02  0.27279799553E+02  0.51100000000E-03 0. -1.
         11    1    1    0    0    0  0.17106713982E+02 -0.27552800913E+02  0.15867128618E+02  0.36104878787E+02  0.51100000000E-03 0.  1.
         22    1    1    0    0    0 -0.30170693554E+02  0.39089857174E+02 -0.36853224823E+02  0.61615321660E+02  0.00000000000E+00 0.  1.
</event>
<event>
 4    1  0.1956828E-002  0.9118800E+02  0.7818608E-02  0.1130116E+00
         25   -1    0    0    0    0  0.00000000000E+00  0.00000000000E+00  0.99999998245E-14  0.12500000000E+03  0.12500000000E+03 0.  0.
        -11    1    1    0    0    0  0.69052610571E+00 -0.56936305445E+01  0.96841928188E+01  0.11255125317E+02  0.51100000000E-03 0. -1.
         11    1    1    0    0    0  0.31525017323E+01 -0.25939630687E+02  0.44082133735E+02  0.51244875082E+02  0.51100000000E-03 0.  1.
         22    1    1    0    0    0 -0.38430278380E+01  0.31633261231E+02 -0.53766326554E+02  0.62499999601E+02  0.00000000000E+00 0. -1.
</event>
<event>
 4    1  0.1956828E-002  0.9118800E+02  0.7818608E-02  0.1130116E+00
         25   -1    0    0    0    0  0.00000000000E+00  0.00000000000E+00  0.99999998245E-14  0.12500000000E+03  0.12500000000E+03 0.  0.
        -11    1    1    0    0    0  0.37739646456E+01 -0.94678158391E+01 -0.12301205198E+02  0.15975042895E+02  0.51100000000E-03 0.  1.
         11    1    1    0    0    0 -0.31475864700E+02 -0.37758439764E+02 -0.95463527442E+01  0.50075569722E+02  0.51100000000E-03 0. -1.
         22    1    1    0    0    0  0.27701900054E+02  0.47226255603E+02  0.21847557942E+02  0.58949387384E+02  0.00000000000E+00 0. -1.
</event>
<event>
 4    1  0.1956828E-002  0.9118800E+02  0.7818608E-02  0.1130116E+00
         25   -1    0    0    0    0  0.00000000000E+00  0.00000000000E+00  0.99999998245E-14  0.12500000000E+03  0.12500000000E+03 0.  0.
        -11    1    1    0    0    0 -0.53833730810E+01  0.67046210054E+01  0.30046246649E+00  0.86036577402E+01  0.51100000000E-03 0.  1.
         11    1    1    0    0    0 -0.33537162128E+02  0.42149139961E+02  0.18783988729E+01  0.53896378594E+02  0.51100000000E-03 0. -1.
         22    1    1    0    0    0  0.38920535209E+02 -0.48853760966E+02 -0.21788613394E+01  0.62499963665E+02  0.00000000000E+00 0. -1.
</event>
<event>
 4    1  0.1956828E-002  0.9118800E+02  0.7818608E-02  0.1130116E+00
         25   -1    0    0    0    0  0.00000000000E+00  0.00000000000E+00  0.99999998245E-14  0.12500000000E+03  0.12500000000E+03 0.  0.
        -11    1    1    0    0    0 -0.24578165928E+02 -0.20833365537E+02  0.36114418619E+02  0.48398001947E+02  0.51100000000E-03 0. -1.
         11    1    1    0    0    0 -0.62690222687E+01 -0.68296297129E+01  0.10651766500E+02  0.14121069792E+02  0.51100000000E-03 0.  1.
         22    1    1    0    0    0  0.30847188197E+02  0.27662995250E+02 -0.46766185119E+02  0.62480928262E+02  0.00000000000E+00 0. -1.
</event>
<event>
 4    1  0.1956828E-002  0.9118800E+02  0.7818608E-02  0.1130116E+00
         25   -1    0    0    0    0  0.00000000000E+00  0.00000000000E+00  0.99999998245E-14  0.12500000000E+03  0.12500000000E+03 0.  0.
        -11    1    1    0    0    0 -0.30449941134E+02  0.13396352861E+02  0.10960129264E+02  0.35025499550E+02  0.51100000000E-03 0.  1.
         11    1    1    0    0    0 -0.23922614321E+02  0.10448534353E+02  0.85665910415E+01  0.27474530540E+02  0.51100000000E-03 0. -1.
         22    1    1    0    0    0  0.54372555454E+02 -0.23844887213E+02 -0.19526720305E+02  0.62499969910E+02  0.00000000000E+00 0. -1.
</event>
<event>
 4    1  0.1956828E-002  0.9118800E+02  0.7818608E-02  0.1130116E+00
         25   -1    0    0    0    0  0.00000000000E+00  0.00000000000E+00  0.99999998245E-14  0.12500000000E+03  0.12500000000E+03 0.  0.
        -11    1    1    0    0    0 -0.69208338319E+00  0.31691799573E+00 -0.81564436156E-01  0.76555172501E+00  0.51100000000E-03 0.  1.
         11    1    1    0    0    0 -0.56068252206E+02  0.23838508252E+02 -0.99653154899E+01  0.61735167402E+02  0.51100000000E-03 0. -1.
         22    1    1    0    0    0  0.56760335589E+02 -0.24155426248E+02  0.10046879926E+02  0.62499280873E+02  0.00000000000E+00 0. -1.
</event>
<event>
 4    1  0.1956828E-002  0.9118800E+02  0.7818608E-02  0.1130116E+00
         25   -1    0    0    0    0  0.00000000000E+00  0.00000000000E+00  0.99999998245E-14  0.12500000000E+03  0.12500000000E+03 0.  0.
        -11    1    1    0    0    0 -0.26708608147E+02 -0.31681474331E+01  0.28342682481E+01  0.27044777390E+02  0.51100000000E-03 0.  1.
         11    1    1    0    0    0 -0.35075310052E+02 -0.40066069023E+01  0.32845415736E+01  0.35455866761E+02  0.51100000000E-03 0. -1.
         22    1    1    0    0    0  0.61783918200E+02  0.71747543354E+01 -0.61188098217E+01  0.62499355849E+02  0.00000000000E+00 0.  1.
</event>
<event>
 4    1  0.1956828E-002  0.9118800E+02  0.7818608E-02  0.1130116E+00
         25   -1    0    0    0    0  0.00000000000E+00  0.00000000000E+00  0.99999998245E-14  0.12500000000E+03  0.12500000000E+03 0.  0.
        -11    1    1    0    0    0 -0.38129548843E+01 -0.16366918651E+02 -0.14576315104E+02  0.22245979712E+02  0.51100000000E-03 0. -1.
         11    1    1    0    0    0 -0.71745382592E+01 -0.29747036114E+02 -0.26154373226E+02  0.40254333877E+02  0.51100000000E-03 0.  1.
         22    1    1    0    0    0  0.10987493143E+02  0.46113954765E+02  0.40730688330E+02  0.62499686411E+02  0.00000000000E+00 0. -1.
</event>
<event>
 4    1  0.1956828E-002  0.9118800E+02  0.7818608E-02  0.1130116E+00
         25   -1    0    0    0    0  0.00000000000E+00  0.00000000000E+00  0.99999998245E-14  0.12500000000E+03  0.12500000000E+03 0.  0.
        -11    1    1    0    0    0 -0.33022083386E+02  0.43897940491E+01  0.94586389675E+01  0.34629382529E+02  0.51100000000E-03 0. -1.
         11    1    1    0    0    0 -0.26577398152E+02  0.35325620060E+01  0.76114539846E+01  0.27870617483E+02  0.51100000000E-03 0.  1.
         22    1    1    0    0    0  0.59599481538E+02 -0.79223560552E+01 -0.17070092952E+02  0.62499999988E+02  0.00000000000E+00 0. -1.
</event>
<event>
 4    1  0.1956828E-002  0.9118800E+02  0.7818608E-02  0.1130116E+00
         25   -1    0    0    0    0  0.00000000000E+00  0.00000000000E+00  0.99999998245E-14  0.12500000000E+03  0.12500000000E+03 0.  0.
        -11    1    1    0    0    0  0.17918349493E+02  0.19564339218E+02 -0.47370163190E+02  0.54293305098E+02  0.51100000000E-03 0. -1.
         11    1    1    0    0    0  0.27127120058E+01  0.29579424198E+01 -0.71583252936E+01  0.82066955016E+01  0.51100000000E-03 0.  1.
         22    1    1    0    0    0 -0.20631061498E+02 -0.22522281638E+02  0.54528488483E+02  0.62499999400E+02  0.00000000000E+00 0. -1.
</event>
<event>
 4    1  0.1956828E-002  0.9118800E+02  0.7818608E-02  0.1130116E+00
         25   -1    0    0    0    0  0.00000000000E+00  0.00000000000E+00  0.99999998245E-14  0.12500000000E+03  0.12500000000E+03 0.  0.
        -11    1    1    0    0    0 -0.15739619343E+02  0.22764115013E+01 -0.50731746814E+01  0.16692955640E+02  0.51100000000E-03 0. -1.
         11    1    1    0    0    0 -0.43233241674E+02  0.60556801584E+01 -0.13874662735E+02  0.45807103315E+02  0.51100000000E-03 0.  1.
         22    1    1    0    0    0  0.58972861017E+02 -0.83320916597E+01  0.18947837416E+02  0.62499941045E+02  0.00000000000E+00 0.  1.
</event>
<event>
 4    1  0.1956828E-002  0.9118800E+02  0.7818608E-02  0.1130116E+00
         25   -1    0    0    0    0  0.00000000000E+00  0.00000000000E+00  0.99999998245E-14  0.12500000000E+03  0.12500000000E+03 0.  0.
        -11    1    1    0    0    0  0.21796333636E+02  0.34140438336E+01  0.27488081426E+02  0.35246708726E+02  0.51100000000E-03 0.  1.
         11    1    1    0    0    0  0.16851730165E+02  0.26402217241E+01  0.21255359466E+02  0.27253291298E+02  0.51100000000E-03 0.  1.
         22    1    1    0    0    0 -0.38648063802E+02 -0.60542655577E+01 -0.48743440891E+02  0.62499999976E+02  0.00000000000E+00 0.  1.
</event>
<event>
 4    1  0.1956828E-002  0.9118800E+02  0.7818608E-02  0.1130116E+00
         25   -1    0    0    0    0  0.00000000000E+00  0.00000000000E+00  0.99999998245E-14  0.12500000000E+03  0.12500000000E+03 0.  0.
        -11    1    1    0    0    0  0.13659552066E+01 -0.18695764951E-01 -0.32793334947E+01  0.35524937141E+01  0.51100000000E-03 0. -1.
         11    1    1    0    0    0  0.20795297674E+02  0.36239028155E+00 -0.55157598973E+02  0.58948591644E+02  0.51100000000E-03 0.  1.
         22    1    1    0    0    0 -0.22161252881E+02 -0.34369451660E+00  0.58436932468E+02  0.62498914642E+02  0.00000000000E+00 0.  1.
</event>
<event>
 4    1  0.1956828E-002  0.9118800E+02  0.7818608E-02  0.1130116E+00
         25   -1    0    0    0    0  0.00000000000E+00  0.00000000000E+00  0.99999998245E-14  0.12500000000E+03  0.12500000000E+03 0.  0.
        -11    1    1    0    0    0 -0.45183689538E+02  0.18977295690E+02 -0.18040575185E+02  0.52222274033E+02  0.51100000000E-03 0. -1.
         11    1    1    0    0    0 -0.88917011056E+01  0.37361913086E+01 -0.35510812451E+01  0.10277726028E+02  0.51100000000E-03 0.  1.
         22    1    1    0    0    0  0.54075390643E+02 -0.22713486999E+02  0.21591656430E+02  0.62499999938E+02  0.00000000000E+00 0. -1.
</event>
<event>
 4    1  0.1956828E-002  0.9118800E+02  0.7818608E-02  0.1130116E+00
         25   -1    0    0    0    0  0.00000000000E+00  0.00000000000E+00  0.99999998245E-14  0.12500000000E+03  0.12500000000E+03 0.  0.
        -11    1    1    0    0    0 -0.44109674617E+01 -0.90178709419E+01  0.30673199575E+02  0.32274197166E+02  0.51100000000E-03 0.  1.
         11    1    1    0    0    0 -0.41751445311E+01 -0.81492789548E+01  0.28805925981E+02  0.30226212982E+02  0.51100000000E-03 0. -1.
         22    1    1    0    0    0  0.85861119928E+01  0.17167149897E+02 -0.59479125556E+02  0.62499589852E+02  0.00000000000E+00 0.  1.
</event>
<event>
 4    1  0.1956828E-002  0.9118800E+02  0.7818608E-02  0.1130116E+00
         25   -1    0    0    0    0  0.00000000000E+00  0.00000000000E+00  0.99999998245E-14  0.12500000000E+03  0.12500000000E+03 0.  0.
        -11    1    1    0    0    0  0.10465578807E+01 -0.57215138988E+00  0.22774874148E+01  0.25709122498E+01  0.51100000000E-03 0.  1.
         11    1    1    0    0    0  0.24696671320E+02 -0.13398867057E+02  0.52934325192E+02  0.59929108090E+02  0.51100000000E-03 0. -1.
         22    1    1    0    0    0 -0.25743229200E+02  0.13971018447E+02 -0.55211812607E+02  0.62499979660E+02  0.00000000000E+00 0. -1.
</event>
<event>
 4    1  0.1956828E-002  0.9118800E+02  0.7818608E-02  0.1130116E+00
         25   -1    0    0    0    0  0.00000000000E+00  0.00000000000E+00  0.99999998245E-14  0.12500000000E+03  0.12500000000E+03 0.  0.
        -11    1    1    0    0    0  0.37180471204E+01 -0.63345041902E+01 -0.88270803569E+01  0.11483342963E+02  0.51100000000E-03 0. -1.
         11    1    1    0    0    0  0.15186123209E+02 -0.24332275013E+02 -0.42217841626E+02  0.51039436686E+02  0.51100000000E-03 0.  1.
         22    1    1    0    0    0 -0.18904170329E+02  0.30666779203E+02  0.51044921983E+02  0.62477220351E+02  0.00000000000E+00 0. -1.
</event>
<event>
 4    1  0.1956828E-002  0.9118800E+02  0.7818608E-02  0.1130116E+00
         25   -1    0    0    0    0  0.00000000000E+00  0.00000000000E+00  0.99999998245E-14  0.12500000000E+03  0.12500000000E+03 0.  0.
        -11    1    1    0    0    0  0.16922633535E+01  0.14720023037E+01 -0.53514479043E+01  0.58024599070E+01  0.51100000000E-03 0. -1.
         11    1    1    0    0    0  0.16630358218E+02  0.14365368845E+02 -0.52265465446E+02  0.56697544172E+02  0.51100000000E-03 0.  1.
         22    1    1    0    0    0 -0.18322621572E+02 -0.15837371149E+02  0.57616913350E+02  0.62499995921E+02  0.00000000000E+00 0.  1.
</event>
<event>
 4    1  0.1956828E-002  0.9118800E+02  0.7818608E-02  0.1130116E+00
         25   -1    0    0    0    0  0.00000000000E+00  0.00000000000E+00  0.99999998245E-14  0.12500000000E+03  0.12500000000E+03 0.  0.
        -11    1    1    0    0    0 -0.41065491729E+02 -0.38791290417E+02 -0.15342072424E+02  0.58536467349E+02  0.51100000000E-03 0.  1.
         11    1    1    0    0    0 -0.27413247660E+01 -0.26688638519E+01 -0.10360777949E+01  0.39637297071E+01  0.51100000000E-03 0. -1.
         22    1    1    0    0    0  0.43806816495E+02  0.41460154269E+02  0.16378150219E+02  0.62499802944E+02  0.00000000000E+00 0.  1.
</event>
<event>
 4    1  0.1956828E-002  0.9118800E+02  0.7818608E-02  0.1130116E+00
         25   -1    0    0    0    0  0.00000000000E+00  0.00000000000E+00  0.99999998245E-14  0.12500000000E+03  0.12500000000E+03 0.  0.
        -11    1    1    0    0    0  0.51189844093E+02 -0.16759725069E+01  0.13553192571E+01  0.51235201889E+02  0.51100000000E-03 0. -1.
         11    1    1    0    0    0  0.11180520305E+02 -0.77338755537E+00  0.13469597475E+01  0.11287890123E+02  0.51100000000E-03 0.  1.
         22    1    1    0    0    0 -0.62370364398E+02  0.24493600623E+01 -0.27022790046E+01  0.62476907988E+02  0.00000000000E+00 0. -1.
</event>
<event>
 4    1  0.1956828E-002  0.9118800E+02  0.7818608E-02  0.1130116E+00
         25   -1    0    0    0    0  0.00000000000E+00  0.00000000000E+00  0.99999998245E-14  0.12500000000E+03  0.12500000000E+03 0.  0.
        -11    1    1    0    0    0 -0.14673239339E+02  0.48324078402E+01 -0.35282153646E+01  0.15846274709E+02  0.51100000000E-03 0. -1.
         11    1    1    0    0    0 -0.43198588902E+02  0.14221205050E+02 -0.10402372822E+02  0.46653725648E+02  0.51100000000E-03 0.  1.
         22    1    1    0    0    0  0.57871828241E+02 -0.19053612890E+02  0.13930588187E+02  0.62499999643E+02  0.00000000000E+00 0.  1.
</event>
<event>
 4    1  0.1956828E-002  0.9118800E+02  0.7818608E-02  0.1130116E+00
         25   -1    0    0    0    0  0.00000000000E+00  0.00000000000E+00  0.99999998245E-14  0.12500000000E+03  0.12500000000E+03 0.  0.
        -11    1    1    0    0    0 -0.12886039175E+01 -0.23791615385E+01 -0.16164237986E+01  0.31517829621E+01  0.51100000000E-03 0.  1.
         11    1    1    0    0    0 -0.23635235858E+02 -0.45977341481E+02 -0.29150596254E+02  0.59348947471E+02  0.51100000000E-03 0. -1.
         22    1    1    0    0    0  0.24923839776E+02  0.48356503020E+02  0.30767020052E+02  0.62499269567E+02  0.00000000000E+00 0. -1.
</event>
<event>
 4    1  0.1956828E-002  0.9118800E+02  0.7818608E-02  0.1130116E+00
         25   -1    0    0    0    0  0.00000000000E+00  0.00000000000E+00  0.99999998245E-14  0.12500000000E+03  0.12500000000E+03 0.  0.
        -11    1    1    0    0    0  0.13419523161E+02  0.26747904392E+02  0.10263723240E+02  0.31636656053E+02  0.51100000000E-03 0. -1.
         11    1    1    0    0    0  0.13091150409E+02  0.26094351837E+02  0.10012621174E+02  0.30863343952E+02  0.51100000000E-03 0. -1.
         22    1    1    0    0    0 -0.26510673570E+02 -0.52842256229E+02 -0.20276344414E+02  0.62499999995E+02  0.00000000000E+00 0. -1.
</event>
<event>
 4    1  0.1956828E-002  0.9118800E+02  0.7818608E-02  0.1130116E+00
         25   -1    0    0    0    0  0.00000000000E+00  0.00000000000E+00  0.99999998245E-14  0.12500000000E+03  0.12500000000E+03 0.  0.
        -11    1    1    0    0    0  0.54335866946E+01 -0.89705118779E+01  0.31445486652E+02  0.33148342021E+02  0.51100000000E-03 0.  1.
         11    1    1    0    0    0  0.48356959898E+01 -0.79073314122E+01  0.27849784323E+02  0.29351666611E+02  0.51100000000E-03 0. -1.
         22    1    1    0    0    0 -0.10269282684E+02  0.16877843290E+02 -0.59295270975E+02  0.62499991368E+02  0.00000000000E+00 0. -1.
</event>
<event>
 4    1  0.1956828E-002  0.9118800E+02  0.7818608E-02  0.1130116E+00
         25   -1    0    0    0    0  0.00000000000E+00  0.00000000000E+00  0.99999998245E-14  0.12500000000E+03  0.12500000000E+03 0.  0.
        -11    1    1    0    0    0 -0.40229409644E+02  0.17206826915E+02 -0.10760765124E+02  0.45058565879E+02  0.51100000000E-03 0. -1.
         11    1    1    0    0    0 -0.98773534431E+01  0.93203460859E+01 -0.12690619577E+02  0.18587167286E+02  0.51100000000E-03 0.  1.
         22    1    1    0    0    0  0.50106763087E+02 -0.26527173001E+02  0.23451384701E+02  0.61354266835E+02  0.00000000000E+00 0. -1.
</event>
<event>
 4    1  0.1956828E-002  0.9118800E+02  0.7818608E-02  0.1130116E+00
         25   -1    0    0    0    0  0.00000000000E+00  0.00000000000E+00  0.99999998245E-14  0.12500000000E+03  0.12500000000E+03 0.  0.
        -11    1    1    0    0    0  0.25520648388E+02 -0.47595498289E+02 -0.94989855899E+01  0.54834894720E+02  0.51100000000E-03 0. -1.
         11    1    1    0    0    0  0.58093641859E+01 -0.48877399390E+01 -0.22593716777E+01  0.79210778683E+01  0.51100000000E-03 0.  1.
         22    1    1    0    0    0 -0.31330012574E+02  0.52483238228E+02  0.11758357268E+02  0.62244027411E+02  0.00000000000E+00 0. -1.
</event>
<event>
 4    1  0.1956828E-002  0.9118800E+02  0.7818608E-02  0.1130116E+00
         25   -1    0    0    0    0  0.00000000000E+00  0.00000000000E+00  0.99999998245E-14  0.12500000000E+03  0.12500000000E+03 0.  0.
        -11    1    1    0    0    0  0.65113508691E+01 -0.31992069907E+02 -0.42778885889E+02  0.53813783599E+02  0.51100000000E-03 0. -1.
         11    1    1    0    0    0  0.10499590150E+01 -0.51646088802E+01 -0.69046909545E+01  0.86862164523E+01  0.51100000000E-03 0.  1.
         22    1    1    0    0    0 -0.75613098841E+01  0.37156678787E+02  0.49683576843E+02  0.62499999949E+02  0.00000000000E+00 0. -1.
</event>
<event>
 4    1  0.1956828E-002  0.9118800E+02  0.7818608E-02  0.1130116E+00
         25   -1    0    0    0    0  0.00000000000E+00  0.00000000000E+00  0.99999998245E-14  0.12500000000E+03  0.12500000000E+03 0.  0.
        -11    1    1    0    0    0  0.54169049655E+01  0.18879882549E+01 -0.52013382064E+01  0.77434668240E+01  0.51100000000E-03 0. -1.
         11    1    1    0    0    0  0.38583162862E+02  0.76846180578E+01 -0.38113883827E+02  0.54775742366E+02  0.51100000000E-03 0.  1.
         22    1    1    0    0    0 -0.44000067827E+02 -0.95726063126E+01  0.43315222033E+02  0.62480790810E+02  0.00000000000E+00 0.  1.
</event>
<event>
 4    1  0.1956828E-002  0.9118800E+02  0.7818608E-02  0.1130116E+00
         25   -1    0    0    0    0  0.00000000000E+00  0.00000000000E+00  0.99999998245E-14  0.12500000000E+03  0.12500000000E+03 0.  0.
        -11    1    1    0    0    0  0.57930075316E+02  0.14676822942E+02  0.15512582129E+02  0.61740934252E+02  0.51100000000E-03 0.  1.
         11    1    1    0    0    0  0.63468564983E+00  0.28581715898E+00  0.33166530137E+00  0.77105087751E+00  0.51100000000E-03 0. -1.
         22    1    1    0    0    0 -0.58564760966E+02 -0.14962640100E+02 -0.15844247430E+02  0.62488014870E+02  0.00000000000E+00 0.  1.
</event>
<event>
 4    1  0.1956828E-002  0.9118800E+02  0.7818608E-02  0.1130116E+00
         25   -1    0    0    0    0  0.00000000000E+00  0.00000000000E+00  0.99999998245E-14  0.12500000000E+03  0.12500000000E+03 0.  0.
        -11    1    1    0    0    0  0.24962632175E+01  0.52518713050E+01  0.22169367279E+02  0.22919300340E+02  0.51100000000E-03 0.  1.
         11    1    1    0    0    0 -0.35690908155E+02  0.17389187799E+02 -0.41551339829E+02  0.57469458142E+02  0.51100000000E-03 0. -1.
         22    1    1    0    0    0  0.33194644937E+02 -0.22641059104E+02  0.19381972550E+02  0.44611241518E+02  0.00000000000E+00 0. -1.
</event>
<event>
 4    1  0.1956828E-002  0.9118800E+02  0.7818608E-02  0.1130116E+00
         25   -1    0    0    0    0  0.00000000000E+00  0.00000000000E+00  0.99999998245E-14  0.12500000000E+03  0.12500000000E+03 0.  0.
        -11    1    1    0    0    0 -0.12748976098E+02 -0.75466068196E+01 -0.46057909850E+01  0.15514540821E+02  0.51100000000E-03 0.  1.
         11    1    1    0    0    0 -0.39236306669E+02 -0.22205426697E+02 -0.13237387404E+02  0.46987202101E+02  0.51100000000E-03 0. -1.
         22    1    1    0    0    0  0.51985282767E+02  0.29752033516E+02  0.17843178389E+02  0.62498257077E+02  0.00000000000E+00 0. -1.
</event>
<event>
 4    1  0.1956828E-002  0.9118800E+02  0.7818608E-02  0.1130116E+00
         25   -1    0    0    0    0  0.00000000000E+00  0.00000000000E+00  0.99999998245E-14  0.12500000000E+03  0.12500000000E+03 0.  0.
        -11    1    1    0    0    0 -0.21184452637E+01 -0.59183270705E+02  0.12689837321E+02  0.60565496061E+02  0.51100000000E-03 0.  1.
         11    1    1    0    0    0  0.17265985132E-01 -0.18245349480E+01  0.67347613935E+00  0.19449411976E+01  0.51100000000E-03 0. -1.
         22    1    1    0    0    0  0.21011792786E+01  0.61007805653E+02 -0.13363313461E+02  0.62489562741E+02  0.00000000000E+00 0.  1.
</event>
<event>
 4    1  0.1956828E-002  0.9118800E+02  0.7818608E-02  0.1130116E+00
         25   -1    0    0    0    0  0.00000000000E+00  0.00000000000E+00  0.99999998245E-14  0.12500000000E+03  0.12500000000E+03 0.  0.
        -11    1    1    0    0    0 -0.33144652735E+01 -0.14601916210E+01  0.35885272867E+01  0.50985652852E+01  0.51100000000E-03 0. -1.
         11    1    1    0    0    0 -0.40897024223E+02 -0.29006297164E+02  0.28179119906E+02  0.57515168994E+02  0.51100000000E-03 0.  1.
         22    1    1    0    0    0  0.44211489497E+02  0.30466488785E+02 -0.31767647193E+02  0.62386265721E+02  0.00000000000E+00 0.  1.
</event>
<event>
 4    1  0.1956828E-002  0.9118800E+02  0.7818608E-02  0.1130116E+00
         25   -1    0    0    0    0  0.00000000000E+00  0.00000000000E+00  0.99999998245E-14  0.12500000000E+03  0.12500000000E+03 0.  0.
        -11    1    1    0    0    0 -0.77620132041E+01 -0.30107979423E+01  0.21802749470E+00  0.83283425410E+01  0.51100000000E-03 0. -1.
         11    1    1    0    0    0 -0.50478583163E+02 -0.19606462944E+02  0.14379818234E+01  0.54171658082E+02  0.51100000000E-03 0.  1.
         22    1    1    0    0    0  0.58240596368E+02  0.22617260887E+02 -0.16560093181E+01  0.62499999377E+02  0.00000000000E+00 0.  1.
</event>
<event>
 4    1  0.1956828E-002  0.9118800E+02  0.7818608E-02  0.1130116E+00
         25   -1    0    0    0    0  0.00000000000E+00  0.00000000000E+00  0.99999998245E-14  0.12500000000E+03  0.12500000000E+03 0.  0.
        -11    1    1    0    0    0  0.45341507263E+02  0.96126312694E+01  0.16682241128E+02  0.49260045982E+02  0.51100000000E-03 0. -1.
         11    1    1    0    0    0  0.12186692716E+02  0.25850219687E+01  0.44831423433E+01  0.13239954059E+02  0.51100000000E-03 0.  1.
         22    1    1    0    0    0 -0.57528199980E+02 -0.12197653238E+02 -0.21165383471E+02  0.62499999959E+02  0.00000000000E+00 0. -1.
</event>
<event>
 4    1  0.1956828E-002  0.9118800E+02  0.7818608E-02  0.1130116E+00
         25   -1    0    0    0    0  0.00000000000E+00  0.00000000000E+00  0.99999998245E-14  0.12500000000E+03  0.12500000000E+03 0.  0.
        -11    1    1    0    0    0 -0.27191206108E+02  0.13639056024E+02 -0.41573187240E+01  0.30702912534E+02  0.51100000000E-03 0. -1.
         11    1    1    0    0    0 -0.28042499069E+02  0.13857381408E+02 -0.57608435191E+01  0.31805598435E+02  0.51100000000E-03 0.  1.
         22    1    1    0    0    0  0.55233705177E+02 -0.27496437432E+02  0.99181622431E+01  0.62491489031E+02  0.00000000000E+00 0. -1.
</event>
<event>
 4    1  0.1956828E-002  0.9118800E+02  0.7818608E-02  0.1130116E+00
         25   -1    0    0    0    0  0.00000000000E+00  0.00000000000E+00  0.99999998245E-14  0.12500000000E+03  0.12500000000E+03 0.  0.
        -11    1    1    0    0    0  0.21138633967E+01  0.12952795792E+02 -0.29754590650E+01  0.13457217179E+02  0.51100000000E-03 0.  1.
         11    1    1    0    0    0 -0.52573587427E+02  0.88060879490E+01 -0.11890922455E+02  0.54616145205E+02  0.51100000000E-03 0. -1.
         22    1    1    0    0    0  0.50459724030E+02 -0.21758883741E+02  0.14866381520E+02  0.56926637617E+02  0.00000000000E+00 0. -1.
</event>
<event>
 4    1  0.1956828E-002  0.9118800E+02  0.7818608E-02  0.1130116E+00
         25   -1    0    0    0    0  0.00000000000E+00  0.00000000000E+00  0.99999998245E-14  0.12500000000E+03  0.12500000000E+03 0.  0.
        -11    1    1    0    0    0  0.12191491844E+02 -0.25393661710E+02  0.15087833378E+02  0.31954862615E+02  0.51100000000E-03 0. -1.
         11    1    1    0    0    0  0.37265097093E+02  0.75980365339E+01  0.11009419632E+01  0.38047729157E+02  0.51100000000E-03 0.  1.
         22    1    1    0    0    0 -0.49456588937E+02  0.17795625176E+02 -0.16188775341E+02  0.54997408228E+02  0.00000000000E+00 0.  1.
</event>
<event>
 4    1  0.1956828E-002  0.9118800E+02  0.7818608E-02  0.1130116E+00
         25   -1    0    0    0    0  0.00000000000E+00  0.00000000000E+00  0.99999998245E-14  0.12500000000E+03  0.12500000000E+03 0.  0.
        -11    1    1    0    0    0  0.18846140510E+01 -0.92910788258E+01 -0.35820061708E+01  0.10134430637E+02  0.51100000000E-03 0.  1.
         11    1    1    0    0    0  0.97409382638E+01 -0.48008153298E+02 -0.18506328513E+02  0.52365569381E+02  0.51100000000E-03 0.  1.
         22    1    1    0    0    0 -0.11625552315E+02  0.57299232124E+02  0.22088334684E+02  0.62499999982E+02  0.00000000000E+00 0.  1.
</event>
<event>
 4    1  0.1956828E-002  0.9118800E+02  0.7818608E-02  0.1130116E+00
         25   -1    0    0    0    0  0.00000000000E+00  0.00000000000E+00  0.99999998245E-14  0.12500000000E+03  0.12500000000E+03 0.  0.
        -11    1    1    0    0    0  0.54175957721E+02  0.14615772873E+02 -0.13397375876E+02  0.57690076203E+02  0.51100000000E-03 0. -1.
         11    1    1    0    0    0  0.45144294135E+01  0.12087182032E+01 -0.11377790587E+01  0.48099494874E+01  0.51100000000E-03 0.  1.
         22    1    1    0    0    0 -0.58690387134E+02 -0.15824491076E+02  0.14535154935E+02  0.62499974310E+02  0.00000000000E+00 0. -1.
</event>
<event>
 4    1  0.1956828E-002  0.9118800E+02  0.7818608E-02  0.1130116E+00
         25   -1    0    0    0    0  0.00000000000E+00  0.00000000000E+00  0.99999998245E-14  0.12500000000E+03  0.12500000000E+03 0.  0.
        -11    1    1    0    0    0 -0.53430152817E+02 -0.57855148235E+01  0.97396186731E+01  0.54617887033E+02  0.51100000000E-03 0.  1.
         11    1    1    0    0    0 -0.49524759746E+01  0.99894863357E+01 -0.92058103862E+00  0.11187686322E+02  0.51100000000E-03 0. -1.
         22    1    1    0    0    0  0.58382628791E+02 -0.42039715122E+01 -0.88190376345E+01  0.59194426645E+02  0.00000000000E+00 0.  1.
</event>
<event>
 4    1  0.1956828E-002  0.9118800E+02  0.7818608E-02  0.1130116E+00
         25   -1    0    0    0    0  0.00000000000E+00  0.00000000000E+00  0.99999998245E-14  0.12500000000E+03  0.12500000000E+03 0.  0.
        -11    1    1    0    0    0  0.24469232495E+02 -0.17348315599E+02 -0.36003479446E+01  0.30210426985E+02  0.51100000000E-03 0. -1.
         11    1    1    0    0    0  0.26154566497E+02 -0.18539785757E+02 -0.38511719088E+01  0.32289573084E+02  0.51100000000E-03 0.  1.
         22    1    1    0    0    0 -0.50623798992E+02  0.35888101356E+02  0.74515198534E+01  0.62499999932E+02  0.00000000000E+00 0.  1.
</event>
<event>
 4    1  0.1956828E-002  0.9118800E+02  0.7818608E-02  0.1130116E+00
         25   -1    0    0    0    0  0.00000000000E+00  0.00000000000E+00  0.99999998245E-14  0.12500000000E+03  0.12500000000E+03 0.  0.
        -11    1    1    0    0    0 -0.27711919860E+02 -0.16109125880E+02 -0.56169071051E+01  0.32542342950E+02  0.51100000000E-03 0.  1.
         11    1    1    0    0    0 -0.25510679432E+02 -0.14830092933E+02 -0.51705700387E+01  0.29957657056E+02  0.51100000000E-03 0.  1.
         22    1    1    0    0    0  0.53222599292E+02  0.30939218813E+02  0.10787477144E+02  0.62499999995E+02  0.00000000000E+00 0.  1.
</event>
<event>
 4    1  0.1956828E-002  0.9118800E+02  0.7818608E-02  0.1130116E+00
         25   -1    0    0    0    0  0.00000000000E+00  0.00000000000E+00  0.99999998245E-14  0.12500000000E+03  0.12500000000E+03 0.  0.
        -11    1    1    0    0    0 -0.48231606180E+02  0.27084949842E+02  0.25732771593E+02  0.61008670505E+02  0.51100000000E-03 0. -1.
         11    1    1    0    0    0 -0.80877245515E+00  0.87703116778E+00  0.97453369220E+00  0.15404586109E+01  0.51100000000E-03 0.  1.
         22    1    1    0    0    0  0.49040378635E+02 -0.27961981010E+02 -0.26707305285E+02  0.62450870885E+02  0.00000000000E+00 0. -1.
</event>
<event>
 4    1  0.1956828E-002  0.9118800E+02  0.7818608E-02  0.1130116E+00
         25   -1    0    0    0    0  0.00000000000E+00  0.00000000000E+00  0.99999998245E-14  0.12500000000E+03  0.12500000000E+03 0.  0.
        -11    1    1    0    0    0  0.14525249370E+02  0.48171414794E+01  0.64354166209E+01  0.16601274308E+02  0.51100000000E-03 0. -1.
         11    1    1    0    0    0  0.40130863434E+02  0.13306980658E+02  0.17864263016E+02  0.45898734488E+02  0.51100000000E-03 0.  1.
         22    1    1    0    0    0 -0.54656112804E+02 -0.18124122138E+02 -0.24299679637E+02  0.62499991205E+02  0.00000000000E+00 0. -1.
</event>
<event>
 4    1  0.1956828E-002  0.9118800E+02  0.7818608E-02  0.1130116E+00
         25   -1    0    0    0    0  0.00000000000E+00  0.00000000000E+00  0.99999998245E-14  0.12500000000E+03  0.12500000000E+03 0.  0.
        -11    1    1    0    0    0  0.19644288495E+01  0.10749237501E+02 -0.14671220667E+02  0.18293436082E+02  0.51100000000E-03 0. -1.
         11    1    1    0    0    0  0.48013104450E+01  0.25981437216E+02 -0.35441967859E+02  0.44206569057E+02  0.51100000000E-03 0.  1.
         22    1    1    0    0    0 -0.67657392945E+01 -0.36730674717E+02  0.50113188526E+02  0.62499994861E+02  0.00000000000E+00 0.  1.
</event>
<event>
 4    1  0.1956828E-002  0.9118800E+02  0.7818608E-02  0.1130116E+00
         25   -1    0    0    0    0  0.00000000000E+00  0.00000000000E+00  0.99999998245E-14  0.12500000000E+03  0.12500000000E+03 0.  0.
        -11    1    1    0    0    0 -0.11764939221E+02 -0.23035958497E+02  0.52892994226E+02  0.58879011687E+02  0.51100000000E-03 0.  1.
         11    1    1    0    0    0 -0.62593115589E+01 -0.13520784482E+01 -0.21663674350E+02  0.22590305087E+02  0.51100000000E-03 0. -1.
         22    1    1    0    0    0  0.18024250780E+02  0.24388036945E+02 -0.31229319876E+02  0.43530683226E+02  0.00000000000E+00 0.  1.
</event>
<event>
 4    1  0.1956828E-002  0.9118800E+02  0.7818608E-02  0.1130116E+00
         25   -1    0    0    0    0  0.00000000000E+00  0.00000000000E+00  0.99999998245E-14  0.12500000000E+03  0.12500000000E+03 0.  0.
        -11    1    1    0    0    0 -0.51197586278E+02 -0.26925117076E+02  0.16485073627E+02  0.60149084972E+02  0.51100000000E-03 0. -1.
         11    1    1    0    0    0 -0.20005856567E+01 -0.10529372559E+01  0.64481151314E+00  0.23509151374E+01  0.51100000000E-03 0.  1.
         22    1    1    0    0    0  0.53198171935E+02  0.27978054332E+02 -0.17129885140E+02  0.62499999890E+02  0.00000000000E+00 0. -1.
</event>
<event>
 4    1  0.1956828E-002  0.9118800E+02  0.7818608E-02  0.1130116E+00
         25   -1    0    0    0    0  0.00000000000E+00  0.00000000000E+00  0.99999998245E-14  0.12500000000E+03  0.12500000000E+03 0.  0.
        -11    1    1    0    0    0 -0.28204350780E+02  0.24580386031E+02 -0.25333638239E+02  0.45182673748E+02  0.51100000000E-03 0. -1.
         11    1    1    0    0    0 -0.10809650786E+02  0.94209085470E+01 -0.97101864351E+01  0.17317326261E+02  0.51100000000E-03 0.  1.
         22    1    1    0    0    0  0.39014001565E+02 -0.34001294578E+02  0.35043824674E+02  0.62499999991E+02  0.00000000000E+00 0. -1.
</event>
<event>
 4    1  0.1956828E-002  0.9118800E+02  0.7818608E-02  0.1130116E+00
         25   -1    0    0    0    0  0.00000000000E+00  0.00000000000E+00  0.99999998245E-14  0.12500000000E+03  0.12500000000E+03 0.  0.
        -11    1    1    0    0    0 -0.61802733244E+01 -0.70146652749E+00 -0.37459203794E+01  0.72608369630E+01  0.51100000000E-03 0.  1.
         11    1    1    0    0    0 -0.47460498446E+02 -0.59228436933E+01 -0.27638025351E+02  0.55239835587E+02  0.51100000000E-03 0. -1.
         22    1    1    0    0    0  0.53640771771E+02  0.66243102207E+01  0.31383945730E+02  0.62499327450E+02  0.00000000000E+00 0.  1.
</event>
<event>
 4    1  0.1956828E-002  0.9118800E+02  0.7818608E-02  0.1130116E+00
         25   -1    0    0    0    0  0.00000000000E+00  0.00000000000E+00  0.99999998245E-14  0.12500000000E+03  0.12500000000E+03 0.  0.
        -11    1    1    0    0    0 -0.43298309888E+02  0.30277409445E+02 -0.14012279912E+01  0.52852895872E+02  0.51100000000E-03 0. -1.
         11    1    1    0    0    0 -0.87227392971E+01  0.42307902203E+01  0.65350660578E+00  0.97166268776E+01  0.51100000000E-03 0.  1.
         22    1    1    0    0    0  0.52021049186E+02 -0.34508199665E+02  0.74772138544E+00  0.62430477251E+02  0.00000000000E+00 0. -1.
</event>
<event>
 4    1  0.1956828E-002  0.9118800E+02  0.7818608E-02  0.1130116E+00
         25   -1    0    0    0    0  0.00000000000E+00  0.00000000000E+00  0.99999998245E-14  0.12500000000E+03  0.12500000000E+03 0.  0.
        -11    1    1    0    0    0  0.31165502162E+02 -0.48307798612E+00 -0.20451765105E+02  0.37279975664E+02  0.51100000000E-03 0.  1.
         11    1    1    0    0    0  0.21073584921E+02 -0.37551822073E+00 -0.13849672484E+02  0.25220040117E+02  0.51100000000E-03 0. -1.
         22    1    1    0    0    0 -0.52239087082E+02  0.85859620685E+00  0.34301437589E+02  0.62499984219E+02  0.00000000000E+00 0.  1.
</event>
<event>
 4    1  0.1956828E-002  0.9118800E+02  0.7818608E-02  0.1130116E+00
         25   -1    0    0    0    0  0.00000000000E+00  0.00000000000E+00  0.99999998245E-14  0.12500000000E+03  0.12500000000E+03 0.  0.
        -11    1    1    0    0    0 -0.15938736374E+02  0.17792725854E+02 -0.13490924124E+02  0.27434092740E+02  0.51100000000E-03 0.  1.
         11    1    1    0    0    0 -0.20370921206E+02  0.22743800726E+02 -0.17244214996E+02  0.35065907280E+02  0.51100000000E-03 0. -1.
         22    1    1    0    0    0  0.36309657580E+02 -0.40536526580E+02  0.30735139121E+02  0.62499999980E+02  0.00000000000E+00 0. -1.
</event>
<event>
 4    1  0.1956828E-002  0.9118800E+02  0.7818608E-02  0.1130116E+00
         25   -1    0    0    0    0  0.00000000000E+00  0.00000000000E+00  0.99999998245E-14  0.12500000000E+03  0.12500000000E+03 0.  0.
        -11    1    1    0    0    0 -0.79094258760E+01 -0.50115121792E+02  0.31400122647E+02  0.59666172598E+02  0.51100000000E-03 0. -1.
         11    1    1    0    0    0 -0.37463360162E+00 -0.23811162510E+01  0.14901390108E+01  0.28338277063E+01  0.51100000000E-03 0.  1.
         22    1    1    0    0    0  0.82840594776E+01  0.52496238043E+02 -0.32890261658E+02  0.62499999696E+02  0.00000000000E+00 0. -1.
</event>
<event>
 4    1  0.1956828E-002  0.9118800E+02  0.7818608E-02  0.1130116E+00
         25   -1    0    0    0    0  0.00000000000E+00  0.00000000000E+00  0.99999998245E-14  0.12500000000E+03  0.12500000000E+03 0.  0.
        -11    1    1    0    0    0 -0.89226913375E+01 -0.28242063255E+02 -0.40435154844E+00  0.29620804480E+02  0.51100000000E-03 0.  1.
         11    1    1    0    0    0 -0.98920837333E+01 -0.31352953877E+02 -0.42501078255E+00  0.32879198162E+02  0.51100000000E-03 0. -1.
         22    1    1    0    0    0  0.18814775071E+02  0.59595017131E+02  0.82936233100E+00  0.62499997358E+02  0.00000000000E+00 0.  1.
</event>
<event>
 4    1  0.1956828E-002  0.9118800E+02  0.7818608E-02  0.1130116E+00
         25   -1    0    0    0    0  0.00000000000E+00  0.00000000000E+00  0.99999998245E-14  0.12500000000E+03  0.12500000000E+03 0.  0.
        -11    1    1    0    0    0  0.37803680364E+02  0.89340070927E+01 -0.38997097882E+02  0.55042786769E+02  0.51100000000E-03 0. -1.
         11    1    1    0    0    0  0.51191005193E+01  0.12190894436E+01 -0.52838145521E+01  0.74572156788E+01  0.51100000000E-03 0.  1.
         22    1    1    0    0    0 -0.42922780884E+02 -0.10153096536E+02  0.44280912434E+02  0.62499997552E+02  0.00000000000E+00 0. -1.
</event>
<event>
 4    1  0.1956828E-002  0.9118800E+02  0.7818608E-02  0.1130116E+00
         25   -1    0    0    0    0  0.00000000000E+00  0.00000000000E+00  0.99999998245E-14  0.12500000000E+03  0.12500000000E+03 0.  0.
        -11    1    1    0    0    0 -0.45430295494E+02  0.39959165883E+02 -0.20915731572E+01  0.60539419929E+02  0.51100000000E-03 0.  1.
         11    1    1    0    0    0 -0.84740299055E+00  0.18566902325E+01 -0.17164990379E+00  0.20481343702E+01  0.51100000000E-03 0. -1.
         22    1    1    0    0    0  0.46277698485E+02 -0.41815856116E+02  0.22632230610E+01  0.62412445701E+02  0.00000000000E+00 0.  1.
</event>
<event>
 4    1  0.1956828E-002  0.9118800E+02  0.7818608E-02  0.1130116E+00
         25   -1    0    0    0    0  0.00000000000E+00  0.00000000000E+00  0.99999998245E-14  0.12500000000E+03  0.12500000000E+03 0.  0.
        -11    1    1    0    0    0 -0.60025926898E+02  0.47347484826E+01 -0.14878090127E+02  0.62023280381E+02  0.51100000000E-03 0.  1.
         11    1    1    0    0    0 -0.32377382664E+00  0.53548946622E-01 -0.42132819560E+00  0.53405495039E+00  0.51100000000E-03 0. -1.
         22    1    1    0    0    0  0.60349700725E+02 -0.47882974292E+01  0.15299418322E+02  0.62442664668E+02  0.00000000000E+00 0.  1.
</event>
<event>
 4    1  0.1956828E-002  0.9118800E+02  0.7818608E-02  0.1130116E+00
         25   -1    0    0    0    0  0.00000000000E+00  0.00000000000E+00  0.99999998245E-14  0.12500000000E+03  0.12500000000E+03 0.  0.
        -11    1    1    0    0    0  0.17886652979E+02  0.43853914896E+01 -0.18545959841E+02  0.26136500148E+02  0.51100000000E-03 0.  1.
         11    1    1    0    0    0  0.24886675736E+02  0.60982282911E+01 -0.25802501940E+02  0.36363499888E+02  0.51100000000E-03 0. -1.
         22    1    1    0    0    0 -0.42773328715E+02 -0.10483619781E+02  0.44348461781E+02  0.62499999964E+02  0.00000000000E+00 0.  1.
</event>
<event>
 4    1  0.1956828E-002  0.9118800E+02  0.7818608E-02  0.1130116E+00
         25   -1    0    0    0    0  0.00000000000E+00  0.00000000000E+00  0.99999998245E-14  0.12500000000E+03  0.12500000000E+03 0.  0.
        -11    1    1    0    0    0 -0.59864941476E+01 -0.10873065532E+02 -0.22675010689E+02  0.25849908632E+02  0.51100000000E-03 0.  1.
         11    1    1    0    0    0 -0.22628356421E+02  0.39526448229E+02 -0.10571131097E+02  0.46756084490E+02  0.51100000000E-03 0. -1.
         22    1    1    0    0    0  0.28614850569E+02 -0.28653382697E+02  0.33246141787E+02  0.52394006878E+02  0.00000000000E+00 0.  1.
</event>
<event>
 4    1  0.1956828E-002  0.9118800E+02  0.7818608E-02  0.1130116E+00
         25   -1    0    0    0    0  0.00000000000E+00  0.00000000000E+00  0.99999998245E-14  0.12500000000E+03  0.12500000000E+03 0.  0.
        -11    1    1    0    0    0 -0.20775769512E+00  0.18132421910E+02  0.13524129346E+01  0.18183973950E+02  0.51100000000E-03 0. -1.
         11    1    1    0    0    0 -0.52742707871E+00  0.44188818239E+02  0.33136745799E+01  0.44316027306E+02  0.51100000000E-03 0.  1.
         22    1    1    0    0    0  0.73518477384E+00 -0.62321240149E+02 -0.46660875144E+01  0.62499998745E+02  0.00000000000E+00 0.  1.
</event>
<event>
 4    1  0.1956828E-002  0.9118800E+02  0.7818608E-02  0.1130116E+00
         25   -1    0    0    0    0  0.00000000000E+00  0.00000000000E+00  0.99999998245E-14  0.12500000000E+03  0.12500000000E+03 0.  0.
        -11    1    1    0    0    0 -0.14012638094E+02 -0.15474535283E+02  0.12393073030E+02  0.24277634316E+02  0.51100000000E-03 0. -1.
         11    1    1    0    0    0 -0.22040413989E+02 -0.24373744221E+02  0.19521529388E+02  0.38222367353E+02  0.51100000000E-03 0.  1.
         22    1    1    0    0    0  0.36053052082E+02  0.39848279504E+02 -0.31914602419E+02  0.62499998331E+02  0.00000000000E+00 0. -1.
</event>
<event>
 4    1  0.1956828E-002  0.9118800E+02  0.7818608E-02  0.1130116E+00
         25   -1    0    0    0    0  0.00000000000E+00  0.00000000000E+00  0.99999998245E-14  0.12500000000E+03  0.12500000000E+03 0.  0.
        -11    1    1    0    0    0 -0.96710667650E+01 -0.37404018454E+01 -0.16834404643E+02  0.19771629125E+02  0.51100000000E-03 0.  1.
         11    1    1    0    0    0  0.20289308090E+02  0.24616483611E+02 -0.35599559890E+02  0.47801212880E+02  0.51100000000E-03 0. -1.
         22    1    1    0    0    0 -0.10618241325E+02 -0.20876081765E+02  0.52433964533E+02  0.57427157995E+02  0.00000000000E+00 0. -1.
</event>
<event>
 4    1  0.1956828E-002  0.9118800E+02  0.7818608E-02  0.1130116E+00
         25   -1    0    0    0    0  0.00000000000E+00  0.00000000000E+00  0.99999998245E-14  0.12500000000E+03  0.12500000000E+03 0.  0.
        -11    1    1    0    0    0 -0.88290997480E+00  0.20848974979E+02  0.43696121273E+02  0.48423241344E+02  0.51100000000E-03 0.  1.
         11    1    1    0    0    0 -0.25639412548E+00  0.60610714075E+01  0.12702472580E+02  0.14076758663E+02  0.51100000000E-03 0. -1.
         22    1    1    0    0    0  0.11393041003E+01 -0.26910046387E+02 -0.56398593854E+02  0.62499999992E+02  0.00000000000E+00 0.  1.
</event>
<event>
 4    1  0.1956828E-002  0.9118800E+02  0.7818608E-02  0.1130116E+00
         25   -1    0    0    0    0  0.00000000000E+00  0.00000000000E+00  0.99999998245E-14  0.12500000000E+03  0.12500000000E+03 0.  0.
        -11    1    1    0    0    0 -0.37789043064E+02 -0.26254581411E+02  0.33013800666E+02  0.56632374623E+02  0.51100000000E-03 0. -1.
         11    1    1    0    0    0 -0.39207166689E+01 -0.27308940284E+01  0.34057876562E+01  0.58676393219E+01  0.51100000000E-03 0.  1.
         22    1    1    0    0    0  0.41709759733E+02  0.28985475439E+02 -0.36419588322E+02  0.62499986055E+02  0.00000000000E+00 0. -1.
</event>
<event>
 4    1  0.1956828E-002  0.9118800E+02  0.7818608E-02  0.1130116E+00
         25   -1    0    0    0    0  0.00000000000E+00  0.00000000000E+00  0.99999998245E-14  0.12500000000E+03  0.12500000000E+03 0.  0.
        -11    1    1    0    0    0 -0.17363883491E+02  0.12818247230E+02  0.29979419976E+01  0.21789896017E+02  0.51100000000E-03 0. -1.
         11    1    1    0    0    0 -0.32273635310E+02  0.24177605673E+02  0.55841299359E+01  0.40710277076E+02  0.51100000000E-03 0.  1.
         22    1    1    0    0    0  0.49637518801E+02 -0.36995852903E+02 -0.85820719335E+01  0.62499826907E+02  0.00000000000E+00 0.  1.
</event>
<event>
 4    1  0.1956828E-002  0.9118800E+02  0.7818608E-02  0.1130116E+00
         25   -1    0    0    0    0  0.00000000000E+00  0.00000000000E+00  0.99999998245E-14  0.12500000000E+03  0.12500000000E+03 0.  0.
        -11    1    1    0    0    0  0.24009871150E+02  0.18644216657E+02 -0.27474586778E+02  0.40974792815E+02  0.51100000000E-03 0. -1.
         11    1    1    0    0    0  0.94194422222E+01  0.12259128243E+02 -0.15160526281E+02  0.21653029220E+02  0.51100000000E-03 0.  1.
         22    1    1    0    0    0 -0.33429313372E+02 -0.30903344899E+02  0.42635113059E+02  0.62372177964E+02  0.00000000000E+00 0. -1.
</event>
<event>
 4    1  0.1956828E-002  0.9118800E+02  0.7818608E-02  0.1130116E+00
         25   -1    0    0    0    0  0.00000000000E+00  0.00000000000E+00  0.99999998245E-14  0.12500000000E+03  0.12500000000E+03 0.  0.
        -11    1    1    0    0    0  0.17226729878E+02  0.99695903047E+01  0.53761055476E+01  0.20616873290E+02  0.51100000000E-03 0.  1.
         11    1    1    0    0    0  0.34908506425E+02  0.20351875061E+02  0.11018079285E+02  0.41883179329E+02  0.51100000000E-03 0. -1.
         22    1    1    0    0    0 -0.52135236303E+02 -0.30321465365E+02 -0.16394184832E+02  0.62499947381E+02  0.00000000000E+00 0. -1.
</event>
<event>
 4    1  0.1956828E-002  0.9118800E+02  0.7818608E-02  0.1130116E+00
         25   -1    0    0    0    0  0.00000000000E+00  0.00000000000E+00  0.99999998245E-14  0.12500000000E+03  0.12500000000E+03 0.  0.
        -11    1    1    0    0    0  0.11683870752E+02  0.12033449215E+02 -0.18507251284E+02  0.24976690855E+02  0.51100000000E-03 0. -1.
         11    1    1    0    0    0  0.16945210752E+02  0.18376120100E+02 -0.27987050969E+02  0.37524618313E+02  0.51100000000E-03 0.  1.
         22    1    1    0    0    0 -0.28629081504E+02 -0.30409569314E+02  0.46494302253E+02  0.62498690831E+02  0.00000000000E+00 0.  1.
</event>
<event>
 4    1  0.1956828E-002  0.9118800E+02  0.7818608E-02  0.1130116E+00
         25   -1    0    0    0    0  0.00000000000E+00  0.00000000000E+00  0.99999998245E-14  0.12500000000E+03  0.12500000000E+03 0.  0.
        -11    1    1    0    0    0  0.91160981146E+01  0.35513382699E+02 -0.18181784496E+02  0.40925308591E+02  0.51100000000E-03 0. -1.
         11    1    1    0    0    0  0.18320498450E+02  0.13594411318E+02 -0.47929178687E+01  0.23311386585E+02  0.51100000000E-03 0.  1.
         22    1    1    0    0    0 -0.27436596565E+02 -0.49107794018E+02  0.22974702364E+02  0.60763304824E+02  0.00000000000E+00 0.  1.
</event>
<event>
 4    1  0.1956828E-002  0.9118800E+02  0.7818608E-02  0.1130116E+00
         25   -1    0    0    0    0  0.00000000000E+00  0.00000000000E+00  0.99999998245E-14  0.12500000000E+03  0.12500000000E+03 0.  0.
        -11    1    1    0    0    0  0.18715601686E+02 -0.18743457260E+02  0.26603961516E+02  0.37541466476E+02  0.51100000000E-03 0. -1.
         11    1    1    0    0    0  0.12243391190E+02 -0.12497566864E+02  0.17800414949E+02  0.24958857705E+02  0.51100000000E-03 0.  1.
         22    1    1    0    0    0 -0.30958992876E+02  0.31241024124E+02 -0.44404376465E+02  0.62499675819E+02  0.00000000000E+00 0. -1.
</event>
<event>
 4    1  0.1956828E-002  0.9118800E+02  0.7818608E-02  0.1130116E+00
         25   -1    0    0    0    0  0.00000000000E+00  0.00000000000E+00  0.99999998245E-14  0.12500000000E+03  0.12500000000E+03 0.  0.
        -11    1    1    0    0    0  0.17997973133E+02 -0.82901516804E+00 -0.36972492385E+02  0.41128815889E+02  0.51100000000E-03 0.  1.
         11    1    1    0    0    0 -0.47399972947E+01  0.10787715832E+02 -0.20723800360E+02  0.23839427192E+02  0.51100000000E-03 0. -1.
         22    1    1    0    0    0 -0.13257975838E+02 -0.99587006640E+01  0.57696292745E+02  0.60031756919E+02  0.00000000000E+00 0.  1.
</event>
<event>
 4    1  0.1956828E-002  0.9118800E+02  0.7818608E-02  0.1130116E+00
         25   -1    0    0    0    0  0.00000000000E+00  0.00000000000E+00  0.99999998245E-14  0.12500000000E+03  0.12500000000E+03 0.  0.
        -11    1    1    0    0    0 -0.29931605101E+01  0.73939544603E+01 -0.11203610840E+02  0.13753198483E+02  0.51100000000E-03 0.  1.
         11    1    1    0    0    0  0.56264241510E+01  0.20605452698E+02 -0.44213197408E+02  0.49102425143E+02  0.51100000000E-03 0. -1.
         22    1    1    0    0    0 -0.26332636409E+01 -0.27999407159E+02  0.55416808247E+02  0.62144376374E+02  0.00000000000E+00 0. -1.
</event>
<event>
 4    1  0.1956828E-002  0.9118800E+02  0.7818608E-02  0.1130116E+00
         25   -1    0    0    0    0  0.00000000000E+00  0.00000000000E+00  0.99999998245E-14  0.12500000000E+03  0.12500000000E+03 0.  0.
        -11    1    1    0    0    0  0.69385377844E+01  0.12093085201E+02  0.86133821931E+01  0.16388299769E+02  0.51100000000E-03 0.  1.
         11    1    1    0    0    0  0.14228717861E+02  0.38214193902E+02  0.21687279879E+02  0.46185702727E+02  0.51100000000E-03 0. -1.
         22    1    1    0    0    0 -0.21167255645E+02 -0.50307279103E+02 -0.30300662072E+02  0.62425997504E+02  0.00000000000E+00 0.  1.
</event>
<event>
 4    1  0.1956828E-002  0.9118800E+02  0.7818608E-02  0.1130116E+00
         25   -1    0    0    0    0  0.00000000000E+00  0.00000000000E+00  0.99999998245E-14  0.12500000000E+03  0.12500000000E+03 0.  0.
        -11    1    1    0    0    0 -0.34371730888E+02  0.30879204967E+02  0.17756180252E+02  0.49499728494E+02  0.51100000000E-03 0. -1.
         11    1    1    0    0    0  0.20081061809E+01  0.34765587249E+01  0.16627542134E+02  0.17105382447E+02  0.51100000000E-03 0.  1.
         22    1    1    0    0    0  0.32363624707E+02 -0.34355763692E+02 -0.34383722386E+02  0.58394889058E+02  0.00000000000E+00 0. -1.
</event>
<event>
 4    1  0.1956828E-002  0.9118800E+02  0.7818608E-02  0.1130116E+00
         25   -1    0    0    0    0  0.00000000000E+00  0.00000000000E+00  0.99999998245E-14  0.12500000000E+03  0.12500000000E+03 0.  0.
        -11    1    1    0    0    0  0.57507069210E+01  0.51535986819E+01 -0.14225054121E+02  0.16185869592E+02  0.51100000000E-03 0.  1.
         11    1    1    0    0    0 -0.61349435476E+01  0.27472286737E+01 -0.46799126196E+02  0.47279414238E+02  0.51100000000E-03 0. -1.
         22    1    1    0    0    0  0.38423662661E+00 -0.79008273557E+01  0.61024180317E+02  0.61534716169E+02  0.00000000000E+00 0. -1.
</event>
<event>
 4    1  0.1956828E-002  0.9118800E+02  0.7818608E-02  0.1130116E+00
         25   -1    0    0    0    0  0.00000000000E+00  0.00000000000E+00  0.99999998245E-14  0.12500000000E+03  0.12500000000E+03 0.  0.
        -11    1    1    0    0    0 -0.13611767735E+02 -0.30193549822E+02 -0.22046909412E+01  0.33193242296E+02  0.51100000000E-03 0. -1.
         11    1    1    0    0    0 -0.14766103633E+02 -0.25230453845E+02 -0.26356864473E+01  0.29352350179E+02  0.51100000000E-03 0.  1.
         22    1    1    0    0    0  0.28377871369E+02  0.55424003667E+02  0.48403773885E+01  0.62454407524E+02  0.00000000000E+00 0. -1.
</event>
<event>
 4    1  0.1956828E-002  0.9118800E+02  0.7818608E-02  0.1130116E+00
         25   -1    0    0    0    0  0.00000000000E+00  0.00000000000E+00  0.99999998245E-14  0.12500000000E+03  0.12500000000E+03 0.  0.
        -11    1    1    0    0    0 -0.61326580050E+01  0.96842749607E+00  0.26360696407E+01  0.67450878003E+01  0.51100000000E-03 0.  1.
         11    1    1    0    0    0 -0.19483889223E+01 -0.41333164457E+02  0.41009889208E+02  0.58258370356E+02  0.51100000000E-03 0. -1.
         22    1    1    0    0    0  0.80810469273E+01  0.40364736961E+02 -0.43645958848E+02  0.59996541844E+02  0.00000000000E+00 0. -1.
</event>
<event>
 4    1  0.1956828E-002  0.9118800E+02  0.7818608E-02  0.1130116E+00
         25   -1    0    0    0    0  0.00000000000E+00  0.00000000000E+00  0.99999998245E-14  0.12500000000E+03  0.12500000000E+03 0.  0.
        -11    1    1    0    0    0 -0.31174633248E+01 -0.39707298839E+02 -0.15836775290E+02  0.42862473220E+02  0.51100000000E-03 0.  1.
         11    1    1    0    0    0 -0.43763602083E+01 -0.18161199940E+02 -0.63195224430E+01  0.19721005961E+02  0.51100000000E-03 0. -1.
         22    1    1    0    0    0  0.74938235330E+01  0.57868498779E+02  0.22156297733E+02  0.62416520820E+02  0.00000000000E+00 0.  1.
</event>
<event>
 4    1  0.1956828E-002  0.9118800E+02  0.7818608E-02  0.1130116E+00
         25   -1    0    0    0    0  0.00000000000E+00  0.00000000000E+00  0.99999998245E-14  0.12500000000E+03  0.12500000000E+03 0.  0.
        -11    1    1    0    0    0 -0.55600315382E+01  0.49515602208E+01  0.19379689776E+02  0.20760642461E+02  0.51100000000E-03 0. -1.
         11    1    1    0    0    0 -0.11111378896E+02  0.10071767811E+02  0.38952198220E+02  0.41739393793E+02  0.51100000000E-03 0.  1.
         22    1    1    0    0    0  0.16671410434E+02 -0.15023328032E+02 -0.58331887996E+02  0.62499963745E+02  0.00000000000E+00 0.  1.
</event>
<event>
 4    1  0.1956828E-002  0.9118800E+02  0.7818608E-02  0.1130116E+00
         25   -1    0    0    0    0  0.00000000000E+00  0.00000000000E+00  0.99999998245E-14  0.12500000000E+03  0.12500000000E+03 0.  0.
        -11    1    1    0    0    0  0.26543468544E+02  0.40644982496E+02 -0.12648307834E+02  0.50165227157E+02  0.51100000000E-03 0. -1.
         11    1    1    0    0    0 -0.33920664904E+01  0.11111911262E+02  0.13907650516E+02  0.18121904704E+02  0.51100000000E-03 0.  1.
         22    1    1    0    0    0 -0.23151402053E+02 -0.51756893758E+02 -0.12593426829E+01  0.56712868138E+02  0.00000000000E+00 0.  1.
</event>
<event>
 4    1  0.1956828E-002  0.9118800E+02  0.7818608E-02  0.1130116E+00
         25   -1    0    0    0    0  0.00000000000E+00  0.00000000000E+00  0.99999998245E-14  0.12500000000E+03  0.12500000000E+03 0.  0.
        -11    1    1    0    0    0  0.13341424459E+01 -0.71312950389E+01  0.26038728502E+02  0.27030550998E+02  0.51100000000E-03 0. -1.
         11    1    1    0    0    0 -0.17049875688E+01 -0.11432105527E+02  0.33586748696E+02  0.35519990254E+02  0.51100000000E-03 0.  1.
         22    1    1    0    0    0  0.37084512290E+00  0.18563400566E+02 -0.59625477199E+02  0.62449458748E+02  0.00000000000E+00 0.  1.
</event>
<event>
 4    1  0.1956828E-002  0.9118800E+02  0.7818608E-02  0.1130116E+00
         25   -1    0    0    0    0  0.00000000000E+00  0.00000000000E+00  0.99999998245E-14  0.12500000000E+03  0.12500000000E+03 0.  0.
        -11    1    1    0    0    0 -0.67140055244E+01  0.15668476389E+02  0.43760240826E+02  0.46963152577E+02  0.51100000000E-03 0.  1.
         11    1    1    0    0    0 -0.22164449225E+01  0.51683891379E+01  0.14483399575E+02  0.15536850964E+02  0.51100000000E-03 0. -1.
         22    1    1    0    0    0  0.89304504470E+01 -0.20836865527E+02 -0.58243640401E+02  0.62499996459E+02  0.00000000000E+00 0.  1.
</event>
<event>
 4    1  0.1956828E-002  0.9118800E+02  0.7818608E-02  0.1130116E+00
         25   -1    0    0    0    0  0.00000000000E+00  0.00000000000E+00  0.99999998245E-14  0.12500000000E+03  0.12500000000E+03 0.  0.
        -11    1    1    0    0    0 -0.78037159623E+01  0.12279419374E+02 -0.84643261038E+01  0.16832318308E+02  0.51100000000E-03 0.  1.
         11    1    1    0    0    0 -0.20578672678E+02  0.31419184725E+02 -0.26012947725E+02  0.45687201573E+02  0.51100000000E-03 0. -1.
         22    1    1    0    0    0  0.28382388641E+02 -0.43698604099E+02  0.34477273829E+02  0.62480480118E+02  0.00000000000E+00 0. -1.
</event>
<event>
 4    1  0.1956828E-002  0.9118800E+02  0.7818608E-02  0.1130116E+00
         25   -1    0    0    0    0  0.00000000000E+00  0.00000000000E+00  0.99999998245E-14  0.12500000000E+03  0.12500000000E+03 0.  0.
        -11    1    1    0    0    0 -0.37491315621E+01  0.21340594966E+01  0.86179676498E+00  0.43991921225E+01  0.51100000000E-03 0. -1.
         11    1    1    0    0    0 -0.55475237167E+02  0.98343018736E+01  0.14662243504E+02  0.58216808715E+02  0.51100000000E-03 0.  1.
         22    1    1    0    0    0  0.59224368729E+02 -0.11968361370E+02 -0.15524040269E+02  0.62383999163E+02  0.00000000000E+00 0.  1.
</event>
<event>
 4    1  0.1956828E-002  0.9118800E+02  0.7818608E-02  0.1130116E+00
         25   -1    0    0    0    0  0.00000000000E+00  0.00000000000E+00  0.99999998245E-14  0.12500000000E+03  0.12500000000E+03 0.  0.
        -11    1    1    0    0    0 -0.94852302526E+01 -0.31800456726E+02 -0.33144060210E+02  0.46901677672E+02  0.51100000000E-03 0. -1.
         11    1    1    0    0    0 -0.32090165869E+01 -0.10480563832E+02 -0.11098392952E+02  0.15598536216E+02  0.51100000000E-03 0.  1.
         22    1    1    0    0    0  0.12694246840E+02  0.42281020558E+02  0.44242453162E+02  0.62499786112E+02  0.00000000000E+00 0. -1.
</event>
<event>
 4    1  0.1956828E-002  0.9118800E+02  0.7818608E-02  0.1130116E+00
         25   -1    0    0    0    0  0.00000000000E+00  0.00000000000E+00  0.99999998245E-14  0.12500000000E+03  0.12500000000E+03 0.  0.
        -11    1    1    0    0    0  0.68808943171E+00 -0.28402529573E+01 -0.55390582747E+01  0.62627207154E+01  0.51100000000E-03 0.  1.
         11    1    1    0    0    0  0.60714562337E+01 -0.25754520970E+02 -0.49623361723E+02  0.56237318216E+02  0.51100000000E-03 0. -1.
         22    1    1    0    0    0 -0.67595456654E+01  0.28594773927E+02  0.55162419998E+02  0.62499961068E+02  0.00000000000E+00 0. -1.
</event>
<event>
 4    1  0.1956828E-002  0.9118800E+02  0.7818608E-02  0.1130116E+00
         25   -1    0    0    0    0  0.00000000000E+00  0.00000000000E+00  0.99999998245E-14  0.12500000000E+03  0.12500000000E+03 0.  0.
        -11    1    1    0    0    0  0.34876723581E+02  0.32307396317E+02 -0.17986303064E+01  0.47575085662E+02  0.51100000000E-03 0. -1.
         11    1    1    0    0    0  0.10428385391E+02  0.10580036635E+02  0.23329444934E+01  0.15037653652E+02  0.51100000000E-03 0.  1.
         22    1    1    0    0    0 -0.45305108972E+02 -0.42887432953E+02 -0.53431418693E+00  0.62387260686E+02  0.00000000000E+00 0. -1.
</event>
<event>
 4    1  0.1956828E-002  0.9118800E+02  0.7818608E-02  0.1130116E+00
         25   -1    0    0    0    0  0.00000000000E+00  0.00000000000E+00  0.99999998245E-14  0.12500000000E+03  0.12500000000E+03 0.  0.
        -11    1    1    0    0    0  0.10568344255E+02  0.60150960704E+01  0.46352003039E+01  0.13013699057E+02  0.51100000000E-03 0.  1.
         11    1    1    0    0    0  0.37743698963E+02  0.30483893906E+02 -0.14503536991E+02  0.50638001388E+02  0.51100000000E-03 0. -1.
         22    1    1    0    0    0 -0.48312043218E+02 -0.36498989977E+02  0.98683366870E+01  0.61348299554E+02  0.00000000000E+00 0. -1.
</event>
<event>
 4    1  0.1956828E-002  0.9118800E+02  0.7818608E-02  0.1130116E+00
         25   -1    0    0    0    0  0.00000000000E+00  0.00000000000E+00  0.99999998245E-14  0.12500000000E+03  0.12500000000E+03 0.  0.
        -11    1    1    0    0    0 -0.28023116503E+02  0.12111247078E+02 -0.81373361248E+01  0.31594202060E+02  0.51100000000E-03 0.  1.
         11    1    1    0    0    0 -0.27419854545E+02  0.11808119649E+02 -0.79930539667E+01  0.30905808918E+02  0.51100000000E-03 0. -1.
         22    1    1    0    0    0  0.55442971048E+02 -0.23919366727E+02  0.16130390092E+02  0.62499989022E+02  0.00000000000E+00 0. -1.
</event>
<event>
 4    1  0.1956828E-002  0.9118800E+02  0.7818608E-02  0.1130116E+00
         25   -1    0    0    0    0  0.00000000000E+00  0.00000000000E+00  0.99999998245E-14  0.12500000000E+03  0.12500000000E+03 0.  0.
        -11    1    1    0    0    0 -0.85867801322E+01  0.20852525961E+02 -0.33016930879E+02  0.39983476049E+02  0.51100000000E-03 0. -1.
         11    1    1    0    0    0 -0.47972844326E+01  0.11796615337E+02 -0.18569365963E+02  0.22516558881E+02  0.51100000000E-03 0.  1.
         22    1    1    0    0    0  0.13384064565E+02 -0.32649141299E+02  0.51586296842E+02  0.62499965070E+02  0.00000000000E+00 0. -1.
</event>
<event>
 4    1  0.1956828E-002  0.9118800E+02  0.7818608E-02  0.1130116E+00
         25   -1    0    0    0    0  0.00000000000E+00  0.00000000000E+00  0.99999998245E-14  0.12500000000E+03  0.12500000000E+03 0.  0.
        -11    1    1    0    0    0  0.14624953577E+02 -0.18188271417E+02  0.53546710701E+02  0.58411922683E+02  0.51100000000E-03 0.  1.
         11    1    1    0    0    0  0.10242055479E+01 -0.12741676580E+01  0.37469823683E+01  0.40880774644E+01  0.51100000000E-03 0. -1.
         22    1    1    0    0    0 -0.15649159125E+02  0.19462439075E+02 -0.57293693070E+02  0.62499999853E+02  0.00000000000E+00 0.  1.
</event>
<event>
 4    1  0.1956828E-002  0.9118800E+02  0.7818608E-02  0.1130116E+00
         25   -1    0    0    0    0  0.00000000000E+00  0.00000000000E+00  0.99999998245E-14  0.12500000000E+03  0.12500000000E+03 0.  0.
        -11    1    1    0    0    0  0.45569678499E+01 -0.87306993047E+01 -0.57225453759E+01  0.11390284991E+02  0.51100000000E-03 0.  1.
         11    1    1    0    0    0  0.20667905757E+02 -0.39134872484E+02 -0.25563805489E+02  0.51109771317E+02  0.51100000000E-03 0. -1.
         22    1    1    0    0    0 -0.25224873607E+02  0.47865571788E+02  0.31286350865E+02  0.62499943692E+02  0.00000000000E+00 0. -1.
</event>
<event>
 4    1  0.1956828E-002  0.9118800E+02  0.7818608E-02  0.1130116E+00
         25   -1    0    0    0    0  0.00000000000E+00  0.00000000000E+00  0.99999998245E-14  0.12500000000E+03  0.12500000000E+03 0.  0.
        -11    1    1    0    0    0 -0.18919198693E+02  0.29697469283E+02 -0.10234648327E+02  0.36669112174E+02  0.51100000000E-03 0.  1.
         11    1    1    0    0    0 -0.13327329638E+02  0.20919673689E+02 -0.72100141039E+01  0.25830887832E+02  0.51100000000E-03 0.  1.
         22    1    1    0    0    0  0.32246528330E+02 -0.50617142972E+02  0.17444662430E+02  0.62499999995E+02  0.00000000000E+00 0.  1.
</event>
<event>
 4    1  0.1956828E-002  0.9118800E+02  0.7818608E-02  0.1130116E+00
         25   -1    0    0    0    0  0.00000000000E+00  0.00000000000E+00  0.99999998245E-14  0.12500000000E+03  0.12500000000E+03 0.  0.
        -11    1    1    0    0    0 -0.16522345839E+02  0.98461513243E+01 -0.39304295272E+02  0.43757996241E+02  0.51100000000E-03 0. -1.
         11    1    1    0    0    0 -0.70664360395E+01  0.42059988613E+01 -0.16841551551E+02  0.18742006393E+02  0.51100000000E-03 0.  1.
         22    1    1    0    0    0  0.23588781878E+02 -0.14052150186E+02  0.56145846823E+02  0.62499997366E+02  0.00000000000E+00 0. -1.
</event>
<event>
 4    1  0.1956828E-002  0.9118800E+02  0.7818608E-02  0.1130116E+00
         25   -1    0    0    0    0  0.00000000000E+00  0.00000000000E+00  0.99999998245E-14  0.12500000000E+03  0.12500000000E+03 0.  0.
        -11    1    1    0    0    0 -0.13532092504E+01 -0.12481203191E+01  0.86149168769E+01  0.88094138660E+01  0.51100000000E-03 0.  1.
         11    1    1    0    0    0 -0.86989790927E+01 -0.78279152841E+01  0.52399896392E+02  0.53690759327E+02  0.51100000000E-03 0. -1.
         22    1    1    0    0    0  0.10052188343E+02  0.90760356032E+01 -0.61014813269E+02  0.62499826807E+02  0.00000000000E+00 0. -1.
</event>
<event>
 4    1  0.1956828E-002  0.9118800E+02  0.7818608E-02  0.1130116E+00
         25   -1    0    0    0    0  0.00000000000E+00  0.00000000000E+00  0.99999998245E-14  0.12500000000E+03  0.12500000000E+03 0.  0.
        -11    1    1    0    0    0 -0.46154880012E+01  0.79396848604E+01  0.41526443285E+00  0.91931371132E+01  0.51100000000E-03 0. -1.
         11    1    1    0    0    0 -0.26780795979E+02  0.46015961919E+02  0.26354725375E+01  0.53306899181E+02  0.51100000000E-03 0.  1.
         22    1    1    0    0    0  0.31396283980E+02 -0.53955646779E+02 -0.30507369704E+01  0.62499963705E+02  0.00000000000E+00 0.  1.
</event>
<event>
 4    1  0.1956828E-002  0.9118800E+02  0.7818608E-02  0.1130116E+00
         25   -1    0    0    0    0  0.00000000000E+00  0.00000000000E+00  0.99999998245E-14  0.12500000000E+03  0.12500000000E+03 0.  0.
        -11    1    1    0    0    0  0.10752048502E+01 -0.10274469872E+01 -0.33701287556E+00  0.15248903963E+01  0.51100000000E-03 0.  1.
         11    1    1    0    0    0  0.43161204418E+02 -0.40989029295E+02 -0.13227815789E+02  0.60975119517E+02  0.51100000000E-03 0. -1.
         22    1    1    0    0    0 -0.44236409268E+02  0.42016476282E+02  0.13564828665E+02  0.62499990086E+02  0.00000000000E+00 0. -1.
</event>
<event>
 4    1  0.1956828E-002  0.9118800E+02  0.7818608E-02  0.1130116E+00
         25   -1    0    0    0    0  0.00000000000E+00  0.00000000000E+00  0.99999998245E-14  0.12500000000E+03  0.12500000000E+03 0.  0.
        -11    1    1    0    0    0 -0.33578231671E+01  0.14991234229E+02 -0.37993367286E+02  0.40981801304E+02  0.51100000000E-03 0.  1.
         11    1    1    0    0    0 -0.54185681137E+01  0.12056713586E+02 -0.17341179466E+02  0.21804626308E+02  0.51100000000E-03 0. -1.
         22    1    1    0    0    0  0.87763912808E+01 -0.27047947816E+02  0.55334546752E+02  0.62213572388E+02  0.00000000000E+00 0. -1.
</event>
<event>
 4    1  0.1956828E-002  0.9118800E+02  0.7818608E-02  0.1130116E+00
         25   -1    0    0    0    0  0.00000000000E+00  0.00000000000E+00  0.99999998245E-14  0.12500000000E+03  0.12500000000E+03 0.  0.
        -11    1    1    0    0    0  0.32021670918E+02 -0.50964717885E+02 -0.92801051560E+01  0.60900822897E+02  0.51100000000E-03 0. -1.
         11    1    1    0    0    0  0.84127299087E+00 -0.13381193496E+01 -0.24303075630E+00  0.15991772412E+01  0.51100000000E-03 0.  1.
         22    1    1    0    0    0 -0.32862943909E+02  0.52302837235E+02  0.95231359123E+01  0.62499999862E+02  0.00000000000E+00 0. -1.
</event>
<event>
 4    1  0.1956828E-002  0.9118800E+02  0.7818608E-02  0.1130116E+00
         25   -1    0    0    0    0  0.00000000000E+00  0.00000000000E+00  0.99999998245E-14  0.12500000000E+03  0.12500000000E+03 0.  0.
        -11    1    1    0    0    0  0.18972139582E+02 -0.27500534065E+02 -0.13871239220E+02  0.36175029122E+02  0.51100000000E-03 0. -1.
         11    1    1    0    0    0  0.13793481725E+02 -0.20020447118E+02 -0.10095826719E+02  0.26324972142E+02  0.51100000000E-03 0.  1.
         22    1    1    0    0    0 -0.32765621307E+02  0.47520981183E+02  0.23967065939E+02  0.62499998736E+02  0.00000000000E+00 0.  1.
</event>
<event>
 4    1  0.1956828E-002  0.9118800E+02  0.7818608E-02  0.1130116E+00
         25   -1    0    0    0    0  0.00000000000E+00  0.00000000000E+00  0.99999998245E-14  0.12500000000E+03  0.12500000000E+03 0.  0.
        -11    1    1    0    0    0  0.13465969315E+02 -0.78735840790E+01 -0.48728044877E+02  0.51163932742E+02  0.51100000000E-03 0. -1.
         11    1    1    0    0    0  0.40857035289E+01 -0.36080277042E+01 -0.10047344208E+02  0.11430658911E+02  0.51100000000E-03 0.  1.
         22    1    1    0    0    0 -0.17551672844E+02  0.11481611783E+02  0.58775389085E+02  0.62405408347E+02  0.00000000000E+00 0.  1.
</event>
<event>
 4    1  0.1956828E-002  0.9118800E+02  0.7818608E-02  0.1130116E+00
         25   -1    0    0    0    0  0.00000000000E+00  0.00000000000E+00  0.99999998245E-14  0.12500000000E+03  0.12500000000E+03 0.  0.
        -11    1    1    0    0    0  0.75311772200E+01  0.11006968652E+02 -0.26365381773E+02  0.29546663865E+02  0.51100000000E-03 0. -1.
         11    1    1    0    0    0  0.87458210823E+01  0.11608700649E+02 -0.29577215173E+02  0.32955469574E+02  0.51100000000E-03 0.  1.
         22    1    1    0    0    0 -0.16276998302E+02 -0.22615669300E+02  0.55942596947E+02  0.62497866562E+02  0.00000000000E+00 0. -1.
</event>
<event>
 4    1  0.1956828E-002  0.9118800E+02  0.7818608E-02  0.1130116E+00
         25   -1    0    0    0    0  0.00000000000E+00  0.00000000000E+00  0.99999998245E-14  0.12500000000E+03  0.12500000000E+03 0.  0.
        -11    1    1    0    0    0 -0.45131561375E+02 -0.29315397216E+01  0.31267507663E+02  0.54982804521E+02  0.51100000000E-03 0.  1.
         11    1    1    0    0    0 -0.61703532268E+01 -0.40043344432E+00  0.42748826802E+01  0.75171954928E+01  0.51100000000E-03 0.  1.
         22    1    1    0    0    0  0.51301914602E+02  0.33319731659E+01 -0.35542390343E+02  0.62499999986E+02  0.00000000000E+00 0.  1.
</event>
<event>
 4    1  0.1956828E-002  0.9118800E+02  0.7818608E-02  0.1130116E+00
         25   -1    0    0    0    0  0.00000000000E+00  0.00000000000E+00  0.99999998245E-14  0.12500000000E+03  0.12500000000E+03 0.  0.
        -11    1    1    0    0    0 -0.21936590774E+02 -0.33851511782E+01  0.24130983358E+02  0.32786851349E+02  0.51100000000E-03 0. -1.
         11    1    1    0    0    0 -0.20306671149E+02 -0.26765290107E+01  0.21528232789E+02  0.29715139373E+02  0.51100000000E-03 0.  1.
         22    1    1    0    0    0  0.42243261923E+02  0.60616801889E+01 -0.45659216147E+02  0.62498009278E+02  0.00000000000E+00 0.  1.
</event>
<event>
 4    1  0.1956828E-002  0.9118800E+02  0.7818608E-02  0.1130116E+00
         25   -1    0    0    0    0  0.00000000000E+00  0.00000000000E+00  0.99999998245E-14  0.12500000000E+03  0.12500000000E+03 0.  0.
        -11    1    1    0    0    0  0.11341685274E+02 -0.40765446514E+02 -0.43144262418E+02  0.60430810306E+02  0.51100000000E-03 0.  1.
         11    1    1    0    0    0  0.35309282362E+00 -0.13553806512E+01 -0.15238953446E+01  0.20697798275E+01  0.51100000000E-03 0. -1.
         22    1    1    0    0    0 -0.11694778098E+02  0.42120827165E+02  0.44668157762E+02  0.62499409867E+02  0.00000000000E+00 0.  1.
</event>
<event>
 4    1  0.1956828E-002  0.9118800E+02  0.7818608E-02  0.1130116E+00
         25   -1    0    0    0    0  0.00000000000E+00  0.00000000000E+00  0.99999998245E-14  0.12500000000E+03  0.12500000000E+03 0.  0.
        -11    1    1    0    0    0  0.52064010770E+02 -0.25995939979E+02 -0.68782690434E+01  0.58598299447E+02  0.51100000000E-03 0. -1.
         11    1    1    0    0    0  0.34762009563E+01 -0.15762016862E+01 -0.86176868336E+00  0.39129311735E+01  0.51100000000E-03 0.  1.
         22    1    1    0    0    0 -0.55540211726E+02  0.27572141665E+02  0.77400377268E+01  0.62488769379E+02  0.00000000000E+00 0. -1.
</event>
<event>
 4    1  0.1956828E-002  0.9118800E+02  0.7818608E-02  0.1130116E+00
         25   -1    0    0    0    0  0.00000000000E+00  0.00000000000E+00  0.99999998245E-14  0.12500000000E+03  0.12500000000E+03 0.  0.
        -11    1    1    0    0    0 -0.79808728801E+01 -0.47430299953E+02 -0.30602545783E+02  0.57007398592E+02  0.51100000000E-03 0. -1.
         11    1    1    0    0    0 -0.81074599940E+00 -0.45778899262E+01 -0.29249554403E+01  0.54926996860E+01  0.51100000000E-03 0.  1.
         22    1    1    0    0    0  0.87916188795E+01  0.52008189879E+02  0.33527501224E+02  0.62499901722E+02  0.00000000000E+00 0. -1.
</event>
<event>
 4    1  0.1956828E-002  0.9118800E+02  0.7818608E-02  0.1130116E+00
         25   -1    0    0    0    0  0.00000000000E+00  0.00000000000E+00  0.99999998245E-14  0.12500000000E+03  0.12500000000E+03 0.  0.
        -11    1    1    0    0    0  0.14496433327E+02  0.23945442381E+02  0.16384965104E+02  0.32434516672E+02  0.51100000000E-03 0.  1.
         11    1    1    0    0    0  0.13438421073E+02  0.22195950944E+02  0.15188215455E+02  0.30065483336E+02  0.51100000000E-03 0. -1.
         22    1    1    0    0    0 -0.27934854400E+02 -0.46141393325E+02 -0.31573180560E+02  0.62499999992E+02  0.00000000000E+00 0.  1.
</event>
<event>
 4    1  0.1956828E-002  0.9118800E+02  0.7818608E-02  0.1130116E+00
         25   -1    0    0    0    0  0.00000000000E+00  0.00000000000E+00  0.99999998245E-14  0.12500000000E+03  0.12500000000E+03 0.  0.
        -11    1    1    0    0    0 -0.18823294827E+02  0.45594133906E+01  0.40621926297E+01  0.19789039589E+02  0.51100000000E-03 0. -1.
         11    1    1    0    0    0 -0.40624057689E+02  0.98285898734E+01  0.87926686382E+01  0.42710961872E+02  0.51100000000E-03 0.  1.
         22    1    1    0    0    0  0.59447352516E+02 -0.14388003264E+02 -0.12854861268E+02  0.62499998539E+02  0.00000000000E+00 0.  1.
</event>
<event>
 4    1  0.1956828E-002  0.9118800E+02  0.7818608E-02  0.1130116E+00
         25   -1    0    0    0    0  0.00000000000E+00  0.00000000000E+00  0.99999998245E-14  0.12500000000E+03  0.12500000000E+03 0.  0.
        -11    1    1    0    0    0 -0.81927738599E+01  0.14853553178E+02 -0.27860411462E+02  0.32618278812E+02  0.51100000000E-03 0.  1.
         11    1    1    0    0    0 -0.75057458407E+01  0.13608212937E+02 -0.25522491679E+02  0.29881721197E+02  0.51100000000E-03 0. -1.
         22    1    1    0    0    0  0.15698519701E+02 -0.28461766115E+02  0.53382903141E+02  0.62499999991E+02  0.00000000000E+00 0.  1.
</event>
<event>
 4    1  0.1956828E-002  0.9118800E+02  0.7818608E-02  0.1130116E+00
         25   -1    0    0    0    0  0.00000000000E+00  0.00000000000E+00  0.99999998245E-14  0.12500000000E+03  0.12500000000E+03 0.  0.
        -11    1    1    0    0    0 -0.11287161443E+01  0.49728671328E+01  0.35351665324E+01  0.62049021207E+01  0.51100000000E-03 0.  1.
         11    1    1    0    0    0 -0.10239267234E+02  0.45125896491E+02  0.32061642649E+02  0.56295097986E+02  0.51100000000E-03 0. -1.
         22    1    1    0    0    0  0.11367983378E+02 -0.50098763624E+02 -0.35596809182E+02  0.62499999893E+02  0.00000000000E+00 0. -1.
</event>
<event>
 4    1  0.1956828E-002  0.9118800E+02  0.7818608E-02  0.1130116E+00
         25   -1    0    0    0    0  0.00000000000E+00  0.00000000000E+00  0.99999998245E-14  0.12500000000E+03  0.12500000000E+03 0.  0.
        -11    1    1    0    0    0 -0.19917336607E+02 -0.92880258324E+01  0.71303272995E+01  0.23104313213E+02  0.51100000000E-03 0.  1.
         11    1    1    0    0    0 -0.33961312683E+02 -0.15837555795E+02  0.12158174404E+02  0.39395686792E+02  0.51100000000E-03 0.  1.
         22    1    1    0    0    0  0.53878649290E+02  0.25125581627E+02 -0.19288501703E+02  0.62499999995E+02  0.00000000000E+00 0.  1.
</event>
<event>
 4    1  0.1956828E-002  0.9118800E+02  0.7818608E-02  0.1130116E+00
         25   -1    0    0    0    0  0.00000000000E+00  0.00000000000E+00  0.99999998245E-14  0.12500000000E+03  0.12500000000E+03 0.  0.
        -11    1    1    0    0    0 -0.29258077211E+02 -0.52258168186E+02  0.12370209556E+01  0.59903935141E+02  0.51100000000E-03 0. -1.
         11    1    1    0    0    0 -0.12668427420E+01 -0.22653666185E+01  0.52700808447E-01  0.25960651158E+01  0.51100000000E-03 0.  1.
         22    1    1    0    0    0  0.30524919953E+02  0.54523534804E+02 -0.12897217640E+01  0.62499999743E+02  0.00000000000E+00 0. -1.
</event>
<event>
 4    1  0.1956828E-002  0.9118800E+02  0.7818608E-02  0.1130116E+00
         25   -1    0    0    0    0  0.00000000000E+00  0.00000000000E+00  0.99999998245E-14  0.12500000000E+03  0.12500000000E+03 0.  0.
        -11    1    1    0    0    0 -0.27221593086E+02 -0.26161256172E+02 -0.46034851258E+01  0.38034438740E+02  0.51100000000E-03 0.  1.
         11    1    1    0    0    0 -0.17509881244E+02 -0.16828622155E+02 -0.29606119499E+01  0.24465561269E+02  0.51100000000E-03 0.  1.
         22    1    1    0    0    0  0.44731474331E+02  0.42989878327E+02  0.75640970756E+01  0.62499999992E+02  0.00000000000E+00 0.  1.
</event>
<event>
 4    1  0.1956828E-002  0.9118800E+02  0.7818608E-02  0.1130116E+00
         25   -1    0    0    0    0  0.00000000000E+00  0.00000000000E+00  0.99999998245E-14  0.12500000000E+03  0.12500000000E+03 0.  0.
        -11    1    1    0    0    0  0.19870376584E+01 -0.78710801918E+01  0.29655793584E+01  0.86427358651E+01  0.51100000000E-03 0.  1.
         11    1    1    0    0    0  0.97325148506E+01 -0.48936484711E+02  0.20293279899E+02  0.53863889485E+02  0.51100000000E-03 0. -1.
         22    1    1    0    0    0 -0.11719552509E+02  0.56807564902E+02 -0.23258859257E+02  0.62493374650E+02  0.00000000000E+00 0. -1.
</event>
<event>
 4    1  0.1956828E-002  0.9118800E+02  0.7818608E-02  0.1130116E+00
         25   -1    0    0    0    0  0.00000000000E+00  0.00000000000E+00  0.99999998245E-14  0.12500000000E+03  0.12500000000E+03 0.  0.
        -11    1    1    0    0    0  0.12696937439E+02 -0.12803024030E+02  0.11746449441E+02  0.21519960953E+02  0.51100000000E-03 0.  1.
         11    1    1    0    0    0  0.24363165555E+02 -0.24014050002E+02  0.22564591254E+02  0.40980473546E+02  0.51100000000E-03 0. -1.
         22    1    1    0    0    0 -0.37060102994E+02  0.36817074033E+02 -0.34311040695E+02  0.62499565501E+02  0.00000000000E+00 0. -1.
</event>
<event>
 4    1  0.1956828E-002  0.9118800E+02  0.7818608E-02  0.1130116E+00
         25   -1    0    0    0    0  0.00000000000E+00  0.00000000000E+00  0.99999998245E-14  0.12500000000E+03  0.12500000000E+03 0.  0.
        -11    1    1    0    0    0  0.35821085677E+02  0.13346715106E+01  0.30231132421E+02  0.46891927822E+02  0.51100000000E-03 0. -1.
         11    1    1    0    0    0  0.11811075513E+02  0.12954527416E+00  0.10205053552E+02  0.15609657427E+02  0.51100000000E-03 0.  1.
         22    1    1    0    0    0 -0.47632161189E+02 -0.14642167848E+01 -0.40436185973E+02  0.62498414751E+02  0.00000000000E+00 0. -1.
</event>
<event>
 4    1  0.1956828E-002  0.9118800E+02  0.7818608E-02  0.1130116E+00
         25   -1    0    0    0    0  0.00000000000E+00  0.00000000000E+00  0.99999998245E-14  0.12500000000E+03  0.12500000000E+03 0.  0.
        -11    1    1    0    0    0  0.47690819458E+02 -0.70074078379E+00  0.84591116875E+01  0.48440291793E+02  0.51100000000E-03 0.  1.
         11    1    1    0    0    0  0.13923711097E+02 -0.14627137177E+00  0.19696436997E+01  0.14063094346E+02  0.51100000000E-03 0. -1.
         22    1    1    0    0    0 -0.61614530555E+02  0.84701215556E+00 -0.10428755387E+02  0.62496613860E+02  0.00000000000E+00 0.  1.
</event>
<event>
 4    1  0.1956828E-002  0.9118800E+02  0.7818608E-02  0.1130116E+00
         25   -1    0    0    0    0  0.00000000000E+00  0.00000000000E+00  0.99999998245E-14  0.12500000000E+03  0.12500000000E+03 0.  0.
        -11    1    1    0    0    0 -0.54202402885E+00 -0.12569564494E+00  0.72674894885E+00  0.91528888270E+00  0.51100000000E-03 0.  1.
         11    1    1    0    0    0 -0.32958222433E+02 -0.15270320770E+02  0.49736152268E+02  0.61588245348E+02  0.51100000000E-03 0. -1.
         22    1    1    0    0    0  0.33500246462E+02  0.15396016415E+02 -0.50462901216E+02  0.62496465769E+02  0.00000000000E+00 0. -1.
</event>
<event>
 4    1  0.1956828E-002  0.9118800E+02  0.7818608E-02  0.1130116E+00
         25   -1    0    0    0    0  0.00000000000E+00  0.00000000000E+00  0.99999998245E-14  0.12500000000E+03  0.12500000000E+03 0.  0.
        -11    1    1    0    0    0 -0.27110706930E+02  0.26593314715E+01  0.33695744490E+02  0.43329731952E+02  0.51100000000E-03 0.  1.
         11    1    1    0    0    0 -0.12069780049E+02  0.11335132569E+01  0.14850538084E+02  0.19170365786E+02  0.51100000000E-03 0. -1.
         22    1    1    0    0    0  0.39180486979E+02 -0.37928447284E+01 -0.48546282573E+02  0.62499902262E+02  0.00000000000E+00 0.  1.
</event>
<event>
 4    1  0.1956828E-002  0.9118800E+02  0.7818608E-02  0.1130116E+00
         25   -1    0    0    0    0  0.00000000000E+00  0.00000000000E+00  0.99999998245E-14  0.12500000000E+03  0.12500000000E+03 0.  0.
        -11    1    1    0    0    0 -0.42955710800E+02 -0.36113684604E+02  0.16932161155E+02  0.58618166021E+02  0.51100000000E-03 0.  1.
         11    1    1    0    0    0 -0.29908384351E+01  0.11858679218E+02 -0.31371561379E+01  0.12625970704E+02  0.51100000000E-03 0. -1.
         22    1    1    0    0    0  0.45946549235E+02  0.24255005386E+02 -0.13795005017E+02  0.53755863274E+02  0.00000000000E+00 0.  1.
</event>
<event>
 4    1  0.1956828E-002  0.9118800E+02  0.7818608E-02  0.1130116E+00
         25   -1    0    0    0    0  0.00000000000E+00  0.00000000000E+00  0.99999998245E-14  0.12500000000E+03  0.12500000000E+03 0.  0.
        -11    1    1    0    0    0  0.13561865764E+01 -0.27389497553E+02  0.27582481051E+02  0.38894949279E+02  0.51100000000E-03 0. -1.
         11    1    1    0    0    0  0.61122679091E+00 -0.16822249839E+02  0.16549150992E+02  0.23605848569E+02  0.51100000000E-03 0.  1.
         22    1    1    0    0    0 -0.19674133674E+01  0.44211747392E+02 -0.44131632044E+02  0.62499202152E+02  0.00000000000E+00 0. -1.
</event>
<event>
 4    1  0.1956828E-002  0.9118800E+02  0.7818608E-02  0.1130116E+00
         25   -1    0    0    0    0  0.00000000000E+00  0.00000000000E+00  0.99999998245E-14  0.12500000000E+03  0.12500000000E+03 0.  0.
        -11    1    1    0    0    0 -0.28806831945E+02  0.11688130422E+02 -0.22225650276E+02  0.38215513733E+02  0.51100000000E-03 0.  1.
         11    1    1    0    0    0 -0.18304449974E+02  0.74270384433E+01 -0.14125242853E+02  0.24284486299E+02  0.51100000000E-03 0. -1.
         22    1    1    0    0    0  0.47111281919E+02 -0.19115168865E+02  0.36350893128E+02  0.62499999968E+02  0.00000000000E+00 0.  1.
</event>
<event>
 4    1  0.1956828E-002  0.9118800E+02  0.7818608E-02  0.1130116E+00
         25   -1    0    0    0    0  0.00000000000E+00  0.00000000000E+00  0.99999998245E-14  0.12500000000E+03  0.12500000000E+03 0.  0.
        -11    1    1    0    0    0 -0.48887923642E+01 -0.51584261100E+01  0.11534885223E+02  0.13548550775E+02  0.51100000000E-03 0.  1.
         11    1    1    0    0    0 -0.19903790026E+02 -0.84272510491E+00  0.45118123346E+02  0.49320544376E+02  0.51100000000E-03 0. -1.
         22    1    1    0    0    0  0.24792582390E+02  0.60011512150E+01 -0.56653008570E+02  0.62130904850E+02  0.00000000000E+00 0. -1.
</event>
<event>
 4    1  0.1956828E-002  0.9118800E+02  0.7818608E-02  0.1130116E+00
         25   -1    0    0    0    0  0.00000000000E+00  0.00000000000E+00  0.99999998245E-14  0.12500000000E+03  0.12500000000E+03 0.  0.
        -11    1    1    0    0    0  0.63776012461E+01 -0.62454911658E+01 -0.11556595995E+02  0.14602563775E+02  0.51100000000E-03 0. -1.
         11    1    1    0    0    0  0.20920242748E+02 -0.20477905760E+02 -0.37909935702E+02  0.47897436321E+02  0.51100000000E-03 0. -1.
         22    1    1    0    0    0 -0.27297843994E+02  0.26723396925E+02  0.49466531696E+02  0.62499999904E+02  0.00000000000E+00 0. -1.
</event>
<event>
 4    1  0.1956828E-002  0.9118800E+02  0.7818608E-02  0.1130116E+00
         25   -1    0    0    0    0  0.00000000000E+00  0.00000000000E+00  0.99999998245E-14  0.12500000000E+03  0.12500000000E+03 0.  0.
        -11    1    1    0    0    0 -0.14435541236E+02  0.38910730226E+02  0.34646087833E+02  0.54062752241E+02  0.51100000000E-03 0. -1.
         11    1    1    0    0    0 -0.22524771841E+01  0.60733889179E+01  0.54062411929E+01  0.84372478042E+01  0.51100000000E-03 0.  1.
         22    1    1    0    0    0  0.16688018420E+02 -0.44984119144E+02 -0.40052329026E+02  0.62499999955E+02  0.00000000000E+00 0. -1.
</event>
<event>
 4    1  0.1956828E-002  0.9118800E+02  0.7818608E-02  0.1130116E+00
         25   -1    0    0    0    0  0.00000000000E+00  0.00000000000E+00  0.99999998245E-14  0.12500000000E+03  0.12500000000E+03 0.  0.
        -11    1    1    0    0    0 -0.22034512713E+02  0.35207006829E+02 -0.33594031664E+02  0.53419210440E+02  0.51100000000E-03 0. -1.
         11    1    1    0    0    0 -0.28936857046E+01 -0.70811137739E+01 -0.10913792709E+02  0.13327657739E+02  0.51100000000E-03 0.  1.
         22    1    1    0    0    0  0.24928198418E+02 -0.28125893055E+02  0.44507824374E+02  0.58253131821E+02  0.00000000000E+00 0. -1.
</event>
<event>
 4    1  0.1956828E-002  0.9118800E+02  0.7818608E-02  0.1130116E+00
         25   -1    0    0    0    0  0.00000000000E+00  0.00000000000E+00  0.99999998245E-14  0.12500000000E+03  0.12500000000E+03 0.  0.
        -11    1    1    0    0    0  0.45148980856E+00 -0.12419878248E+01  0.60548894164E-01  0.13228919963E+01  0.51100000000E-03 0.  1.
         11    1    1    0    0    0  0.20802088410E+02 -0.57472029753E+02  0.26225700647E+01  0.61177111407E+02  0.51100000000E-03 0. -1.
         22    1    1    0    0    0 -0.21253578219E+02  0.58714017578E+02 -0.26831189589E+01  0.62499996596E+02  0.00000000000E+00 0. -1.
</event>
<event>
 4    1  0.1956828E-002  0.9118800E+02  0.7818608E-02  0.1130116E+00
         25   -1    0    0    0    0  0.00000000000E+00  0.00000000000E+00  0.99999998245E-14  0.12500000000E+03  0.12500000000E+03 0.  0.
        -11    1    1    0    0    0 -0.20261262114E+02 -0.38311235526E+02  0.15401807034E+02  0.45994403683E+02  0.51100000000E-03 0. -1.
         11    1    1    0    0    0  0.47141918019E+01 -0.11466483512E+02 -0.23172606252E+02  0.26280668356E+02  0.51100000000E-03 0.  1.
         22    1    1    0    0    0  0.15547070312E+02  0.49777719038E+02  0.77707992182E+01  0.52724927961E+02  0.00000000000E+00 0. -1.
</event>
<event>
 4    1  0.1956828E-002  0.9118800E+02  0.7818608E-02  0.1130116E+00
         25   -1    0    0    0    0  0.00000000000E+00  0.00000000000E+00  0.99999998245E-14  0.12500000000E+03  0.12500000000E+03 0.  0.
        -11    1    1    0    0    0 -0.45885432424E+02  0.79760629355E+01 -0.20532657561E-01  0.46573500089E+02  0.51100000000E-03 0. -1.
         11    1    1    0    0    0 -0.15691119813E+02  0.27280214532E+01 -0.75829681156E-02  0.15926499923E+02  0.51100000000E-03 0.  1.
         22    1    1    0    0    0  0.61576552237E+02 -0.10704084389E+02  0.28115625676E-01  0.62499999988E+02  0.00000000000E+00 0. -1.
</event>
<event>
 4    1  0.1956828E-002  0.9118800E+02  0.7818608E-02  0.1130116E+00
         25   -1    0    0    0    0  0.00000000000E+00  0.00000000000E+00  0.99999998245E-14  0.12500000000E+03  0.12500000000E+03 0.  0.
        -11    1    1    0    0    0  0.10481616158E+01 -0.22523438096E+02  0.59127489972E+01  0.23310180339E+02  0.51100000000E-03 0. -1.
         11    1    1    0    0    0  0.17618873435E+01 -0.37866804257E+02  0.99419743463E+01  0.39189819670E+02  0.51100000000E-03 0.  1.
         22    1    1    0    0    0 -0.28100489594E+01  0.60390242353E+02 -0.15854723343E+02  0.62499999991E+02  0.00000000000E+00 0. -1.
</event>
<event>
 4    1  0.1956828E-002  0.9118800E+02  0.7818608E-02  0.1130116E+00
         25   -1    0    0    0    0  0.00000000000E+00  0.00000000000E+00  0.99999998245E-14  0.12500000000E+03  0.12500000000E+03 0.  0.
        -11    1    1    0    0    0 -0.33255436669E+02 -0.50377274327E+01 -0.21083722948E+02  0.39696676679E+02  0.51100000000E-03 0. -1.
         11    1    1    0    0    0 -0.19096423488E+02 -0.28970258270E+01 -0.12121281085E+02  0.22803324408E+02  0.51100000000E-03 0.  1.
         22    1    1    0    0    0  0.52351860157E+02  0.79347532597E+01  0.33205004033E+02  0.62499998912E+02  0.00000000000E+00 0. -1.
</event>
<event>
 4    1  0.1956828E-002  0.9118800E+02  0.7818608E-02  0.1130116E+00
         25   -1    0    0    0    0  0.00000000000E+00  0.00000000000E+00  0.99999998245E-14  0.12500000000E+03  0.12500000000E+03 0.  0.
        -11    1    1    0    0    0  0.12942910751E+02 -0.32007911066E+01 -0.58888174016E+01  0.14575396155E+02  0.51100000000E-03 0. -1.
         11    1    1    0    0    0  0.42625761955E+02 -0.10227429034E+02 -0.19370663581E+02  0.47924716949E+02  0.51100000000E-03 0.  1.
         22    1    1    0    0    0 -0.55568672706E+02  0.13428220141E+02  0.25259480983E+02  0.62499886896E+02  0.00000000000E+00 0.  1.
</event>
<event>
 4    1  0.1956828E-002  0.9118800E+02  0.7818608E-02  0.1130116E+00
         25   -1    0    0    0    0  0.00000000000E+00  0.00000000000E+00  0.99999998245E-14  0.12500000000E+03  0.12500000000E+03 0.  0.
        -11    1    1    0    0    0  0.11370660696E+02 -0.67995245480E+01 -0.11442841528E+01  0.13297926350E+02  0.51100000000E-03 0.  1.
         11    1    1    0    0    0  0.42144361353E+02 -0.24990110398E+02 -0.44946690529E+01  0.49202183505E+02  0.51100000000E-03 0. -1.
         22    1    1    0    0    0 -0.53515022048E+02  0.31789634946E+02  0.56389532058E+01  0.62499890145E+02  0.00000000000E+00 0. -1.
</event>
<event>
 4    1  0.1956828E-002  0.9118800E+02  0.7818608E-02  0.1130116E+00
         25   -1    0    0    0    0  0.00000000000E+00  0.00000000000E+00  0.99999998245E-14  0.12500000000E+03  0.12500000000E+03 0.  0.
        -11    1    1    0    0    0  0.12297924715E+01 -0.49728013193E+02 -0.19960801455E+02  0.53598705961E+02  0.51100000000E-03 0. -1.
         11    1    1    0    0    0  0.21128851136E+00 -0.82584608989E+01 -0.33145493822E+01  0.89012952497E+01  0.51100000000E-03 0.  1.
         22    1    1    0    0    0 -0.14410809829E+01  0.57986474092E+02  0.23275350837E+02  0.62499998789E+02  0.00000000000E+00 0. -1.
</event>
<event>
 4    1  0.1956828E-002  0.9118800E+02  0.7818608E-02  0.1130116E+00
         25   -1    0    0    0    0  0.00000000000E+00  0.00000000000E+00  0.99999998245E-14  0.12500000000E+03  0.12500000000E+03 0.  0.
        -11    1    1    0    0    0  0.82199149172E+01  0.49115407436E+02 -0.31062142816E+02  0.58691966788E+02  0.51100000000E-03 0. -1.
         11    1    1    0    0    0 -0.38367743016E+01 -0.51267038574E+00  0.14135370176E+02  0.14655796063E+02  0.51100000000E-03 0.  1.
         22    1    1    0    0    0 -0.43831406157E+01 -0.48602737051E+02  0.16926772640E+02  0.51652237149E+02  0.00000000000E+00 0. -1.
</event>
<event>
 4    1  0.1956828E-002  0.9118800E+02  0.7818608E-02  0.1130116E+00
         25   -1    0    0    0    0  0.00000000000E+00  0.00000000000E+00  0.99999998245E-14  0.12500000000E+03  0.12500000000E+03 0.  0.
        -11    1    1    0    0    0 -0.69600181230E+01  0.80220764040E+01  0.38902497388E+01  0.11310597040E+02  0.51100000000E-03 0. -1.
         11    1    1    0    0    0 -0.31121372048E+02  0.36997345596E+02  0.16826254444E+02  0.51190489529E+02  0.51100000000E-03 0.  1.
         22    1    1    0    0    0  0.38081390171E+02 -0.45019422000E+02 -0.20716504182E+02  0.62498913432E+02  0.00000000000E+00 0.  1.
</event>
<event>
 4    1  0.1956828E-002  0.9118800E+02  0.7818608E-02  0.1130116E+00
         25   -1    0    0    0    0  0.00000000000E+00  0.00000000000E+00  0.99999998245E-14  0.12500000000E+03  0.12500000000E+03 0.  0.
        -11    1    1    0    0    0  0.91417401540E+01 -0.22288888356E+02 -0.23397144813E+01  0.24204136450E+02  0.51100000000E-03 0.  1.
         11    1    1    0    0    0  0.14884575696E+02 -0.34950491899E+02 -0.48793016788E+01  0.38300066094E+02  0.51100000000E-03 0. -1.
         22    1    1    0    0    0 -0.24026315850E+02  0.57239380255E+02  0.72190161601E+01  0.62495797456E+02  0.00000000000E+00 0.  1.
</event>
<event>
 4    1  0.1956828E-002  0.9118800E+02  0.7818608E-02  0.1130116E+00
         25   -1    0    0    0    0  0.00000000000E+00  0.00000000000E+00  0.99999998245E-14  0.12500000000E+03  0.12500000000E+03 0.  0.
        -11    1    1    0    0    0 -0.11548388412E+02 -0.21959172778E+02  0.30973213464E+02  0.39685142013E+02  0.51100000000E-03 0.  1.
         11    1    1    0    0    0 -0.66894998686E+01 -0.12631264691E+02  0.17782589513E+02  0.22814879930E+02  0.51100000000E-03 0. -1.
         22    1    1    0    0    0  0.18237888281E+02  0.34590437468E+02 -0.48755802977E+02  0.62499978057E+02  0.00000000000E+00 0.  1.
</event>
<event>
 4    1  0.1956828E-002  0.9118800E+02  0.7818608E-02  0.1130116E+00
         25   -1    0    0    0    0  0.00000000000E+00  0.00000000000E+00  0.99999998245E-14  0.12500000000E+03  0.12500000000E+03 0.  0.
        -11    1    1    0    0    0 -0.79098409251E+00 -0.18355866343E+01  0.11805090907E+01  0.23213435982E+01  0.51100000000E-03 0.  1.
         11    1    1    0    0    0 -0.20516082964E+02 -0.47567182078E+02  0.30625548748E+02  0.60178656576E+02  0.51100000000E-03 0. -1.
         22    1    1    0    0    0  0.21307067056E+02  0.49402768712E+02 -0.31806057839E+02  0.62499999825E+02  0.00000000000E+00 0. -1.
</event>
<event>
 4    1  0.1956828E-002  0.9118800E+02  0.7818608E-02  0.1130116E+00
         25   -1    0    0    0    0  0.00000000000E+00  0.00000000000E+00  0.99999998245E-14  0.12500000000E+03  0.12500000000E+03 0.  0.
        -11    1    1    0    0    0  0.49056423268E+02  0.18006097799E+02 -0.35967689991E+01  0.52380234529E+02  0.51100000000E-03 0.  1.
         11    1    1    0    0    0  0.94781403772E+01  0.34775835654E+01 -0.69348549076E+00  0.10119765553E+02  0.51100000000E-03 0. -1.
         22    1    1    0    0    0 -0.58534563646E+02 -0.21483681364E+02  0.42902544899E+01  0.62499999918E+02  0.00000000000E+00 0.  1.
</event>
<event>
 4    1  0.1956828E-002  0.9118800E+02  0.7818608E-02  0.1130116E+00
         25   -1    0    0    0    0  0.00000000000E+00  0.00000000000E+00  0.99999998245E-14  0.12500000000E+03  0.12500000000E+03 0.  0.
        -11    1    1    0    0    0  0.33149239067E+02 -0.58994533942E+01 -0.29736803485E+02  0.44921632682E+02  0.51100000000E-03 0.  1.
         11    1    1    0    0    0  0.12999002876E+02 -0.23007620731E+01 -0.11607411709E+02  0.17578384133E+02  0.51100000000E-03 0. -1.
         22    1    1    0    0    0 -0.46148241943E+02  0.82002154673E+01  0.41344215194E+02  0.62499983185E+02  0.00000000000E+00 0.  1.
</event>
<event>
 4    1  0.1956828E-002  0.9118800E+02  0.7818608E-02  0.1130116E+00
         25   -1    0    0    0    0  0.00000000000E+00  0.00000000000E+00  0.99999998245E-14  0.12500000000E+03  0.12500000000E+03 0.  0.
        -11    1    1    0    0    0 -0.13997836610E+02 -0.31331358063E+02  0.95449430628E+01  0.35618806355E+02  0.51100000000E-03 0.  1.
         11    1    1    0    0    0 -0.10562839145E+02 -0.23646114944E+02  0.72032110605E+01  0.26881193660E+02  0.51100000000E-03 0. -1.
         22    1    1    0    0    0  0.24560675754E+02  0.54977473006E+02 -0.16748154123E+02  0.62499999986E+02  0.00000000000E+00 0.  1.
</event>
<event>
 4    1  0.1956828E-002  0.9118800E+02  0.7818608E-02  0.1130116E+00
         25   -1    0    0    0    0  0.00000000000E+00  0.00000000000E+00  0.99999998245E-14  0.12500000000E+03  0.12500000000E+03 0.  0.
        -11    1    1    0    0    0  0.13637115123E+02  0.24736130622E+02  0.35794142621E+01  0.28472078845E+02  0.51100000000E-03 0. -1.
         11    1    1    0    0    0  0.16770632416E+02  0.28032858209E+02  0.99340709070E+01  0.34143535495E+02  0.51100000000E-03 0.  1.
         22    1    1    0    0    0 -0.30407747539E+02 -0.52768988832E+02 -0.13513485169E+02  0.62384385660E+02  0.00000000000E+00 0.  1.
</event>
<event>
 4    1  0.1956828E-002  0.9118800E+02  0.7818608E-02  0.1130116E+00
         25   -1    0    0    0    0  0.00000000000E+00  0.00000000000E+00  0.99999998245E-14  0.12500000000E+03  0.12500000000E+03 0.  0.
        -11    1    1    0    0    0 -0.25520870198E+02  0.34654009070E+02 -0.34145792882E+02  0.54937695002E+02  0.51100000000E-03 0. -1.
         11    1    1    0    0    0 -0.36912413950E+01  0.47549573948E+01 -0.45797403237E+01  0.75636568243E+01  0.51100000000E-03 0.  1.
         22    1    1    0    0    0  0.29212111593E+02 -0.39408966464E+02  0.38725533206E+02  0.62498648174E+02  0.00000000000E+00 0. -1.
</event>
<event>
 4    1  0.1956828E-002  0.9118800E+02  0.7818608E-02  0.1130116E+00
         25   -1    0    0    0    0  0.00000000000E+00  0.00000000000E+00  0.99999998245E-14  0.12500000000E+03  0.12500000000E+03 0.  0.
        -11    1    1    0    0    0 -0.63741590166E+01 -0.13985777779E+02 -0.22902436972E+01  0.15539533446E+02  0.51100000000E-03 0.  1.
         11    1    1    0    0    0 -0.19270776071E+02 -0.42271543366E+02 -0.68585516237E+01  0.46960471884E+02  0.51100000000E-03 0. -1.
         22    1    1    0    0    0  0.25644935088E+02  0.56257321145E+02  0.91487953209E+01  0.62499994671E+02  0.00000000000E+00 0. -1.
</event>
<event>
 4    1  0.1956828E-002  0.9118800E+02  0.7818608E-02  0.1130116E+00
         25   -1    0    0    0    0  0.00000000000E+00  0.00000000000E+00  0.99999998245E-14  0.12500000000E+03  0.12500000000E+03 0.  0.
        -11    1    1    0    0    0 -0.32665231356E+02 -0.19164457241E+02 -0.37201871297E+02  0.53087408951E+02  0.51100000000E-03 0.  1.
         11    1    1    0    0    0 -0.12180548335E+01 -0.50856711004E+01 -0.85551021412E+01  0.10026838037E+02  0.51100000000E-03 0. -1.
         22    1    1    0    0    0  0.33883286189E+02  0.24250128341E+02  0.45756973439E+02  0.61885753012E+02  0.00000000000E+00 0.  1.
</event>
<event>
 4    1  0.1956828E-002  0.9118800E+02  0.7818608E-02  0.1130116E+00
         25   -1    0    0    0    0  0.00000000000E+00  0.00000000000E+00  0.99999998245E-14  0.12500000000E+03  0.12500000000E+03 0.  0.
        -11    1    1    0    0    0  0.49728884187E-01  0.45561313550E+01 -0.14704786113E+01  0.47878088406E+01  0.51100000000E-03 0.  1.
         11    1    1    0    0    0  0.36174397912E+01  0.56042489656E+02 -0.13341061928E+02  0.57722010110E+02  0.51100000000E-03 0. -1.
         22    1    1    0    0    0 -0.36671686754E+01 -0.60598621011E+02  0.14811540540E+02  0.62490181050E+02  0.00000000000E+00 0. -1.
</event>
<event>
 4    1  0.1956828E-002  0.9118800E+02  0.7818608E-02  0.1130116E+00
         25   -1    0    0    0    0  0.00000000000E+00  0.00000000000E+00  0.99999998245E-14  0.12500000000E+03  0.12500000000E+03 0.  0.
        -11    1    1    0    0    0  0.23337564960E+02 -0.39198368220E+02  0.24149936908E+01  0.45683544129E+02  0.51100000000E-03 0. -1.
         11    1    1    0    0    0  0.85927203594E+01 -0.14427934883E+02  0.89052946415E+00  0.16816455963E+02  0.51100000000E-03 0.  1.
         22    1    1    0    0    0 -0.31930285319E+02  0.53626303104E+02 -0.33055231549E+01  0.62499999908E+02  0.00000000000E+00 0. -1.
</event>
<event>
 4    1  0.1956828E-002  0.9118800E+02  0.7818608E-02  0.1130116E+00
         25   -1    0    0    0    0  0.00000000000E+00  0.00000000000E+00  0.99999998245E-14  0.12500000000E+03  0.12500000000E+03 0.  0.
        -11    1    1    0    0    0 -0.49134609612E+00  0.11854645280E+02  0.97536723208E+01  0.15359302058E+02  0.51100000000E-03 0.  1.
         11    1    1    0    0    0 -0.29598301140E+01  0.26399002081E+02  0.39239994531E+02  0.47386127466E+02  0.51100000000E-03 0. -1.
         22    1    1    0    0    0  0.34511762101E+01 -0.38253647361E+02 -0.48993666852E+02  0.62254570476E+02  0.00000000000E+00 0. -1.
</event>
<event>
 4    1  0.1956828E-002  0.9118800E+02  0.7818608E-02  0.1130116E+00
         25   -1    0    0    0    0  0.00000000000E+00  0.00000000000E+00  0.99999998245E-14  0.12500000000E+03  0.12500000000E+03 0.  0.
        -11    1    1    0    0    0 -0.15544129134E+02 -0.30974246547E+02 -0.16029141733E+02  0.38183206841E+02  0.51100000000E-03 0. -1.
         11    1    1    0    0    0 -0.83115272398E+01 -0.19363111991E+02 -0.12220616572E+02  0.24358880530E+02  0.51100000000E-03 0.  1.
         22    1    1    0    0    0  0.23855656374E+02  0.50337358538E+02  0.28249758305E+02  0.62457912629E+02  0.00000000000E+00 0. -1.
</event>
<event>
 4    1  0.1956828E-002  0.9118800E+02  0.7818608E-02  0.1130116E+00
         25   -1    0    0    0    0  0.00000000000E+00  0.00000000000E+00  0.99999998245E-14  0.12500000000E+03  0.12500000000E+03 0.  0.
        -11    1    1    0    0    0 -0.51931489906E+00  0.24396260704E+02 -0.17413052305E+02  0.29977685286E+02  0.51100000000E-03 0. -1.
         11    1    1    0    0    0 -0.56387058206E+00  0.26466778450E+02 -0.18891602445E+02  0.32522314720E+02  0.51100000000E-03 0. -1.
         22    1    1    0    0    0  0.10831854811E+01 -0.50863039154E+02  0.36304654750E+02  0.62499999994E+02  0.00000000000E+00 0. -1.
</event>
<event>
 4    1  0.1956828E-002  0.9118800E+02  0.7818608E-02  0.1130116E+00
         25   -1    0    0    0    0  0.00000000000E+00  0.00000000000E+00  0.99999998245E-14  0.12500000000E+03  0.12500000000E+03 0.  0.
        -11    1    1    0    0    0  0.14839099753E+02  0.35354152694E+02 -0.32555723708E+02  0.50299007352E+02  0.51100000000E-03 0. -1.
         11    1    1    0    0    0  0.36039607492E+01  0.85747807982E+01 -0.78961276215E+01  0.12200993013E+02  0.51100000000E-03 0.  1.
         22    1    1    0    0    0 -0.18443060502E+02 -0.43928933492E+02  0.40451851329E+02  0.62499999635E+02  0.00000000000E+00 0. -1.
</event>
<event>
 4    1  0.1956828E-002  0.9118800E+02  0.7818608E-02  0.1130116E+00
         25   -1    0    0    0    0  0.00000000000E+00  0.00000000000E+00  0.99999998245E-14  0.12500000000E+03  0.12500000000E+03 0.  0.
        -11    1    1    0    0    0  0.38482836065E+02 -0.41246295278E+02 -0.20419111936E+02  0.59992713543E+02  0.51100000000E-03 0. -1.
         11    1    1    0    0    0 -0.14056450790E+00 -0.16261740659E+01 -0.25879615075E+01  0.30596969619E+01  0.51100000000E-03 0.  1.
         22    1    1    0    0    0 -0.38342271557E+02  0.42872469344E+02  0.23007073443E+02  0.61947589495E+02  0.00000000000E+00 0. -1.
</event>
<event>
 4    1  0.1956828E-002  0.9118800E+02  0.7818608E-02  0.1130116E+00
         25   -1    0    0    0    0  0.00000000000E+00  0.00000000000E+00  0.99999998245E-14  0.12500000000E+03  0.12500000000E+03 0.  0.
        -11    1    1    0    0    0 -0.34837215420E+02 -0.28639878828E+02  0.16805203201E+02  0.48127841135E+02  0.51100000000E-03 0. -1.
         11    1    1    0    0    0 -0.11076200724E+02 -0.61637550784E+01  0.70623286726E+01  0.14510361322E+02  0.51100000000E-03 0.  1.
         22    1    1    0    0    0  0.45913416144E+02  0.34803633906E+02 -0.23867531874E+02  0.62361797543E+02  0.00000000000E+00 0. -1.
</event>
<event>
 4    1  0.1956828E-002  0.9118800E+02  0.7818608E-02  0.1130116E+00
         25   -1    0    0    0    0  0.00000000000E+00  0.00000000000E+00  0.99999998245E-14  0.12500000000E+03  0.12500000000E+03 0.  0.
        -11    1    1    0    0    0  0.14109096624E+02  0.25435897216E+01  0.84850747787E+00  0.14361630179E+02  0.51100000000E-03 0.  1.
         11    1    1    0    0    0  0.47291827812E+02  0.85277334454E+01  0.28396190824E+01  0.48138369855E+02  0.51100000000E-03 0. -1.
         22    1    1    0    0    0 -0.61400924435E+02 -0.11071323167E+02 -0.36881265602E+01  0.62499999966E+02  0.00000000000E+00 0. -1.
</event>
<event>
 4    1  0.1956828E-002  0.9118800E+02  0.7818608E-02  0.1130116E+00
         25   -1    0    0    0    0  0.00000000000E+00  0.00000000000E+00  0.99999998245E-14  0.12500000000E+03  0.12500000000E+03 0.  0.
        -11    1    1    0    0    0  0.38017968988E+02 -0.26648554637E+02  0.56983758214E+01  0.46775879655E+02  0.51100000000E-03 0.  1.
         11    1    1    0    0    0  0.12779462808E+02 -0.89588196966E+01  0.19164657921E+01  0.15724120370E+02  0.51100000000E-03 0. -1.
         22    1    1    0    0    0 -0.50797431796E+02  0.35607374334E+02 -0.76148416135E+01  0.62499999975E+02  0.00000000000E+00 0.  1.
</event>
<event>
 4    1  0.1956828E-002  0.9118800E+02  0.7818608E-02  0.1130116E+00
         25   -1    0    0    0    0  0.00000000000E+00  0.00000000000E+00  0.99999998245E-14  0.12500000000E+03  0.12500000000E+03 0.  0.
        -11    1    1    0    0    0  0.57247786756E+01 -0.42864389267E+01  0.24306778416E+01  0.75534657335E+01  0.51100000000E-03 0.  1.
         11    1    1    0    0    0  0.41659746632E+02 -0.31162514702E+02  0.17677241117E+02  0.54946534611E+02  0.51100000000E-03 0. -1.
         22    1    1    0    0    0 -0.47384525308E+02  0.35448953629E+02 -0.20107918959E+02  0.62499999655E+02  0.00000000000E+00 0. -1.
</event>
<event>
 4    1  0.1956828E-002  0.9118800E+02  0.7818608E-02  0.1130116E+00
         25   -1    0    0    0    0  0.00000000000E+00  0.00000000000E+00  0.99999998245E-14  0.12500000000E+03  0.12500000000E+03 0.  0.
        -11    1    1    0    0    0  0.21075742750E+02 -0.29908351600E+02  0.24977367926E+02  0.44300850293E+02  0.51100000000E-03 0.  1.
         11    1    1    0    0    0  0.86625145727E+01 -0.12287050727E+02  0.10256621725E+02  0.18199150084E+02  0.51100000000E-03 0. -1.
         22    1    1    0    0    0 -0.29738257323E+02  0.42195402327E+02 -0.35233989651E+02  0.62499999623E+02  0.00000000000E+00 0.  1.
</event>
<event>
 4    1  0.1956828E-002  0.9118800E+02  0.7818608E-02  0.1130116E+00
         25   -1    0    0    0    0  0.00000000000E+00  0.00000000000E+00  0.99999998245E-14  0.12500000000E+03  0.12500000000E+03 0.  0.
        -11    1    1    0    0    0 -0.98040437167E+01  0.52243748940E+02 -0.30887809312E+02  0.61478332287E+02  0.51100000000E-03 0. -1.
         11    1    1    0    0    0 -0.16358361321E+00  0.86800124146E+00 -0.51343867672E+00  0.10216678959E+01  0.51100000000E-03 0.  1.
         22    1    1    0    0    0  0.99676273299E+01 -0.53111750181E+02  0.31401247988E+02  0.62499999817E+02  0.00000000000E+00 0. -1.
</event>
<event>
 4    1  0.1956828E-002  0.9118800E+02  0.7818608E-02  0.1130116E+00
         25   -1    0    0    0    0  0.00000000000E+00  0.00000000000E+00  0.99999998245E-14  0.12500000000E+03  0.12500000000E+03 0.  0.
        -11    1    1    0    0    0 -0.33342602569E+01  0.17731796027E+01 -0.80427081252E+01  0.88851905783E+01  0.51100000000E-03 0. -1.
         11    1    1    0    0    0 -0.21054822073E+02  0.10207799230E+02 -0.48240320105E+02  0.53615605767E+02  0.51100000000E-03 0.  1.
         22    1    1    0    0    0  0.24389082330E+02 -0.11980978832E+02  0.56283028230E+02  0.62499203655E+02  0.00000000000E+00 0.  1.
</event>
<event>
 4    1  0.1956828E-002  0.9118800E+02  0.7818608E-02  0.1130116E+00
         25   -1    0    0    0    0  0.00000000000E+00  0.00000000000E+00  0.99999998245E-14  0.12500000000E+03  0.12500000000E+03 0.  0.
        -11    1    1    0    0    0 -0.11396980736E+02  0.28560374457E+02 -0.96830215807E+00  0.30765626410E+02  0.51100000000E-03 0. -1.
         11    1    1    0    0    0 -0.11883499872E+02  0.29409416400E+02 -0.97156570505E+00  0.31734449457E+02  0.51100000000E-03 0.  1.
         22    1    1    0    0    0  0.23280480608E+02 -0.57969790857E+02  0.19398678631E+01  0.62499924133E+02  0.00000000000E+00 0.  1.
</event>
<event>
 4    1  0.1956828E-002  0.9118800E+02  0.7818608E-02  0.1130116E+00
         25   -1    0    0    0    0  0.00000000000E+00  0.00000000000E+00  0.99999998245E-14  0.12500000000E+03  0.12500000000E+03 0.  0.
        -11    1    1    0    0    0  0.20600009980E+02  0.13714194322E+02 -0.22334495664E+02  0.33335705091E+02  0.51100000000E-03 0. -1.
         11    1    1    0    0    0  0.17788745018E+02  0.11969949572E+02 -0.19770328613E+02  0.29164791029E+02  0.51100000000E-03 0.  1.
         22    1    1    0    0    0 -0.38388754998E+02 -0.25684143894E+02  0.42104824277E+02  0.62499503880E+02  0.00000000000E+00 0. -1.
</event>
<event>
 4    1  0.1956828E-002  0.9118800E+02  0.7818608E-02  0.1130116E+00
         25   -1    0    0    0    0  0.00000000000E+00  0.00000000000E+00  0.99999998245E-14  0.12500000000E+03  0.12500000000E+03 0.  0.
        -11    1    1    0    0    0 -0.16101445330E+02  0.13590729412E+02 -0.22587922298E+02  0.30889783127E+02  0.51100000000E-03 0. -1.
         11    1    1    0    0    0 -0.23053355108E+02  0.79511273061E+01 -0.20629887257E+02  0.31941663320E+02  0.51100000000E-03 0.  1.
         22    1    1    0    0    0  0.39154800438E+02 -0.21541856718E+02  0.43217809555E+02  0.62168553553E+02  0.00000000000E+00 0. -1.
</event>
<event>
 4    1  0.1956828E-002  0.9118800E+02  0.7818608E-02  0.1130116E+00
         25   -1    0    0    0    0  0.00000000000E+00  0.00000000000E+00  0.99999998245E-14  0.12500000000E+03  0.12500000000E+03 0.  0.
        -11    1    1    0    0    0 -0.25588706196E+02  0.97562169743E+01  0.14497524215E+02  0.30986188263E+02  0.51100000000E-03 0. -1.
         11    1    1    0    0    0 -0.25946339837E+02  0.10135251600E+02  0.14737612218E+02  0.31514014186E+02  0.51100000000E-03 0.  1.
         22    1    1    0    0    0  0.51535046034E+02 -0.19891468574E+02 -0.29235136432E+02  0.62499797551E+02  0.00000000000E+00 0.  1.
</event>
<event>
 4    1  0.1956828E-002  0.9118800E+02  0.7818608E-02  0.1130116E+00
         25   -1    0    0    0    0  0.00000000000E+00  0.00000000000E+00  0.99999998245E-14  0.12500000000E+03  0.12500000000E+03 0.  0.
        -11    1    1    0    0    0  0.20288266608E+01 -0.32451286782E+01  0.28047816929E+02  0.28307720370E+02  0.51100000000E-03 0. -1.
         11    1    1    0    0    0  0.24447647054E+02 -0.25205990036E+02 -0.42587222994E+02  0.55196928744E+02  0.51100000000E-03 0.  1.
         22    1    1    0    0    0 -0.26476473714E+02  0.28451118715E+02  0.14539406065E+02  0.41495350886E+02  0.00000000000E+00 0.  1.
</event>
<event>
 4    1  0.1956828E-002  0.9118800E+02  0.7818608E-02  0.1130116E+00
         25   -1    0    0    0    0  0.00000000000E+00  0.00000000000E+00  0.99999998245E-14  0.12500000000E+03  0.12500000000E+03 0.  0.
        -11    1    1    0    0    0 -0.60282103798E+01 -0.97577245828E+01 -0.78181391470E+01  0.13880771211E+02  0.51100000000E-03 0.  1.
         11    1    1    0    0    0 -0.24613019213E+02 -0.29862917979E+02 -0.29498461119E+02  0.48659570422E+02  0.51100000000E-03 0. -1.
         22    1    1    0    0    0  0.30641229593E+02  0.39620642562E+02  0.37316600266E+02  0.62459658367E+02  0.00000000000E+00 0. -1.
</event>
<event>
 4    1  0.1956828E-002  0.9118800E+02  0.7818608E-02  0.1130116E+00
         25   -1    0    0    0    0  0.00000000000E+00  0.00000000000E+00  0.99999998245E-14  0.12500000000E+03  0.12500000000E+03 0.  0.
        -11    1    1    0    0    0 -0.17978292561E+02  0.46361209423E+02  0.26839007948E+02  0.56505867752E+02  0.51100000000E-03 0. -1.
         11    1    1    0    0    0 -0.19561987516E+01  0.49208804217E+01  0.28088425505E+01  0.59942784733E+01  0.51100000000E-03 0.  1.
         22    1    1    0    0    0  0.19934491312E+02 -0.51282089844E+02 -0.29647850498E+02  0.62499853775E+02  0.00000000000E+00 0. -1.
</event>
<event>
 4    1  0.1956828E-002  0.9118800E+02  0.7818608E-02  0.1130116E+00
         25   -1    0    0    0    0  0.00000000000E+00  0.00000000000E+00  0.99999998245E-14  0.12500000000E+03  0.12500000000E+03 0.  0.
        -11    1    1    0    0    0  0.12235320680E+01  0.45700607107E+01  0.94578066184E+01  0.10575092998E+02  0.51100000000E-03 0. -1.
         11    1    1    0    0    0 -0.20647264480E+01  0.30414444971E+02  0.42182151917E+02  0.52044553017E+02  0.51100000000E-03 0.  1.
         22    1    1    0    0    0  0.84119437999E+00 -0.34984505682E+02 -0.51639958535E+02  0.62380353985E+02  0.00000000000E+00 0.  1.
</event>
<event>
 4    1  0.1956828E-002  0.9118800E+02  0.7818608E-02  0.1130116E+00
         25   -1    0    0    0    0  0.00000000000E+00  0.00000000000E+00  0.99999998245E-14  0.12500000000E+03  0.12500000000E+03 0.  0.
        -11    1    1    0    0    0 -0.28935538393E+01 -0.27273574603E+01  0.84825349853E+01  0.93682726570E+01  0.51100000000E-03 0.  1.
         11    1    1    0    0    0 -0.18912275567E+02 -0.49825932007E+01  0.49490794341E+02  0.53215027266E+02  0.51100000000E-03 0. -1.
         22    1    1    0    0    0  0.21805829406E+02  0.77099506610E+01 -0.57973329327E+02  0.62416700077E+02  0.00000000000E+00 0. -1.
</event>
<event>
 4    1  0.1956828E-002  0.9118800E+02  0.7818608E-02  0.1130116E+00
         25   -1    0    0    0    0  0.00000000000E+00  0.00000000000E+00  0.99999998245E-14  0.12500000000E+03  0.12500000000E+03 0.  0.
        -11    1    1    0    0    0  0.87766400170E+01 -0.21791778727E+01 -0.10164511452E+02  0.13604981423E+02  0.51100000000E-03 0. -1.
         11    1    1    0    0    0  0.31541655231E+02 -0.78330311735E+01 -0.36530678207E+02  0.48895018586E+02  0.51100000000E-03 0. -1.
         22    1    1    0    0    0 -0.40318295248E+02  0.10012209046E+02  0.46695189659E+02  0.62499999991E+02  0.00000000000E+00 0. -1.
</event>
<event>
 4    1  0.1956828E-002  0.9118800E+02  0.7818608E-02  0.1130116E+00
         25   -1    0    0    0    0  0.00000000000E+00  0.00000000000E+00  0.99999998245E-14  0.12500000000E+03  0.12500000000E+03 0.  0.
        -11    1    1    0    0    0 -0.26698021960E+02 -0.64306271252E+01 -0.24914969745E+02  0.37079550421E+02  0.51100000000E-03 0.  1.
         11    1    1    0    0    0 -0.18303397955E+02 -0.44081423439E+01 -0.17080783389E+02  0.25420449585E+02  0.51100000000E-03 0.  1.
         22    1    1    0    0    0  0.45001419915E+02  0.10838769469E+02  0.41995753134E+02  0.62499999994E+02  0.00000000000E+00 0.  1.
</event>
<event>
 4    1  0.1956828E-002  0.9118800E+02  0.7818608E-02  0.1130116E+00
         25   -1    0    0    0    0  0.00000000000E+00  0.00000000000E+00  0.99999998245E-14  0.12500000000E+03  0.12500000000E+03 0.  0.
        -11    1    1    0    0    0  0.12694842280E+01  0.60366283130E+01  0.12836700776E+01  0.63008158776E+01  0.51100000000E-03 0. -1.
         11    1    1    0    0    0  0.43338834641E+02 -0.42767617546E+02  0.42449545363E+00  0.60889275700E+02  0.51100000000E-03 0.  1.
         22    1    1    0    0    0 -0.44608318869E+02  0.36730989233E+02 -0.17081655313E+01  0.57809908423E+02  0.00000000000E+00 0.  1.
</event>
<event>
 4    1  0.1956828E-002  0.9118800E+02  0.7818608E-02  0.1130116E+00
         25   -1    0    0    0    0  0.00000000000E+00  0.00000000000E+00  0.99999998245E-14  0.12500000000E+03  0.12500000000E+03 0.  0.
        -11    1    1    0    0    0 -0.13237218683E+02 -0.24940010432E+02  0.47060076770E+02  0.54880587685E+02  0.51100000000E-03 0. -1.
         11    1    1    0    0    0 -0.18278980165E+01 -0.34682531910E+01  0.65334148664E+01  0.76194160822E+01  0.51100000000E-03 0.  1.
         22    1    1    0    0    0  0.15065116699E+02  0.28408263623E+02 -0.53593491637E+02  0.62499996232E+02  0.00000000000E+00 0. -1.
</event>
<event>
 4    1  0.1956828E-002  0.9118800E+02  0.7818608E-02  0.1130116E+00
         25   -1    0    0    0    0  0.00000000000E+00  0.00000000000E+00  0.99999998245E-14  0.12500000000E+03  0.12500000000E+03 0.  0.
        -11    1    1    0    0    0 -0.33944614416E+02  0.15172911234E+02  0.18601546390E+02  0.41574891599E+02  0.51100000000E-03 0. -1.
         11    1    1    0    0    0 -0.17165242553E+02  0.79342732872E+01  0.89636160893E+01  0.20927127327E+02  0.51100000000E-03 0.  1.
         22    1    1    0    0    0  0.51109856968E+02 -0.23107184521E+02 -0.27565162479E+02  0.62497981074E+02  0.00000000000E+00 0. -1.
</event>
<event>
 4    1  0.1956828E-002  0.9118800E+02  0.7818608E-02  0.1130116E+00
         25   -1    0    0    0    0  0.00000000000E+00  0.00000000000E+00  0.99999998245E-14  0.12500000000E+03  0.12500000000E+03 0.  0.
        -11    1    1    0    0    0  0.20193855415E+02 -0.39136419259E+00  0.33401296180E+02  0.39033210849E+02  0.51100000000E-03 0.  1.
         11    1    1    0    0    0  0.20496396375E+02  0.26053071767E+01  0.12844621579E+02  0.24328464679E+02  0.51100000000E-03 0. -1.
         22    1    1    0    0    0 -0.40690251791E+02 -0.22139429841E+01 -0.46245917759E+02  0.61638324472E+02  0.00000000000E+00 0.  1.
</event>
<event>
 4    1  0.1956828E-002  0.9118800E+02  0.7818608E-02  0.1130116E+00
         25   -1    0    0    0    0  0.00000000000E+00  0.00000000000E+00  0.99999998245E-14  0.12500000000E+03  0.12500000000E+03 0.  0.
        -11    1    1    0    0    0  0.34184428218E+02 -0.10488972956E+02 -0.11654476501E+02  0.37608782339E+02  0.51100000000E-03 0.  1.
         11    1    1    0    0    0  0.21332844258E+02 -0.72543515824E+01 -0.10729810697E+02  0.24956856751E+02  0.51100000000E-03 0. -1.
         22    1    1    0    0    0 -0.55517272476E+02  0.17743324539E+02  0.22384287197E+02  0.62434360910E+02  0.00000000000E+00 0. -1.
</event>
<event>
 4    1  0.1956828E-002  0.9118800E+02  0.7818608E-02  0.1130116E+00
         25   -1    0    0    0    0  0.00000000000E+00  0.00000000000E+00  0.99999998245E-14  0.12500000000E+03  0.12500000000E+03 0.  0.
        -11    1    1    0    0    0  0.40883644405E+01 -0.59541412175E+02  0.17059825919E+00  0.59681853118E+02  0.51100000000E-03 0. -1.
         11    1    1    0    0    0  0.10912987900E+00 -0.26169640723E+01 -0.14721669729E+01  0.30046108140E+01  0.51100000000E-03 0.  1.
         22    1    1    0    0    0 -0.41974943195E+01  0.62158376247E+02  0.13015687137E+01  0.62313536068E+02  0.00000000000E+00 0. -1.
</event>
<event>
 4    1  0.1956828E-002  0.9118800E+02  0.7818608E-02  0.1130116E+00
         25   -1    0    0    0    0  0.00000000000E+00  0.00000000000E+00  0.99999998245E-14  0.12500000000E+03  0.12500000000E+03 0.  0.
        -11    1    1    0    0    0 -0.30596858734E+02  0.29173730211E+02  0.42295576908E+02  0.59801255214E+02  0.51100000000E-03 0.  1.
         11    1    1    0    0    0 -0.13833473827E+01  0.13194413891E+01  0.19049046803E+01  0.26987474247E+01  0.51100000000E-03 0. -1.
         22    1    1    0    0    0  0.31980206117E+02 -0.30493171600E+02 -0.44200481589E+02  0.62499997362E+02  0.00000000000E+00 0.  1.
</event>
<event>
 4    1  0.1956828E-002  0.9118800E+02  0.7818608E-02  0.1130116E+00
         25   -1    0    0    0    0  0.00000000000E+00  0.00000000000E+00  0.99999998245E-14  0.12500000000E+03  0.12500000000E+03 0.  0.
        -11    1    1    0    0    0 -0.40387071992E+02 -0.51772851815E+01  0.23758085556E+02  0.47141982304E+02  0.51100000000E-03 0.  1.
         11    1    1    0    0    0 -0.13159498200E+02 -0.16904010355E+01  0.77355590086E+01  0.15358018166E+02  0.51100000000E-03 0. -1.
         22    1    1    0    0    0  0.53546570193E+02  0.68676862170E+01 -0.31493644564E+02  0.62499999531E+02  0.00000000000E+00 0.  1.
</event>
<event>
 4    1  0.1956828E-002  0.9118800E+02  0.7818608E-02  0.1130116E+00
         25   -1    0    0    0    0  0.00000000000E+00  0.00000000000E+00  0.99999998245E-14  0.12500000000E+03  0.12500000000E+03 0.  0.
        -11    1    1    0    0    0  0.31730788259E+02 -0.27995552804E+02 -0.43762718072E+02  0.60875030954E+02  0.51100000000E-03 0. -1.
         11    1    1    0    0    0  0.85384911761E+00 -0.75732732465E+00 -0.11567440315E+01  0.16250107716E+01  0.51100000000E-03 0.  1.
         22    1    1    0    0    0 -0.32584637377E+02  0.28752880129E+02  0.44919462103E+02  0.62499958274E+02  0.00000000000E+00 0. -1.
</event>
<event>
 4    1  0.1956828E-002  0.9118800E+02  0.7818608E-02  0.1130116E+00
         25   -1    0    0    0    0  0.00000000000E+00  0.00000000000E+00  0.99999998245E-14  0.12500000000E+03  0.12500000000E+03 0.  0.
        -11    1    1    0    0    0  0.15459400108E+02 -0.16149491871E+02  0.26016862726E+02  0.34302715428E+02  0.51100000000E-03 0. -1.
         11    1    1    0    0    0  0.15525276070E+02 -0.11285234785E+02  0.20738342914E+02  0.28257204184E+02  0.51100000000E-03 0.  1.
         22    1    1    0    0    0 -0.30984676178E+02  0.27434726656E+02 -0.46755205639E+02  0.62440080388E+02  0.00000000000E+00 0.  1.
</event>
<event>
 4    1  0.1956828E-002  0.9118800E+02  0.7818608E-02  0.1130116E+00
         25   -1    0    0    0    0  0.00000000000E+00  0.00000000000E+00  0.99999998245E-14  0.12500000000E+03  0.12500000000E+03 0.  0.
        -11    1    1    0    0    0  0.13465277642E+01  0.25034264386E+02  0.66213101786E+01  0.25930084441E+02  0.51100000000E-03 0. -1.
         11    1    1    0    0    0  0.70816843339E+00  0.36108572650E+02  0.59826960345E+01  0.36607692818E+02  0.51100000000E-03 0.  1.
         22    1    1    0    0    0 -0.20546961976E+01 -0.61142837035E+02 -0.12604006213E+02  0.62462222742E+02  0.00000000000E+00 0.  1.
</event>
<event>
 4    1  0.1956828E-002  0.9118800E+02  0.7818608E-02  0.1130116E+00
         25   -1    0    0    0    0  0.00000000000E+00  0.00000000000E+00  0.99999998245E-14  0.12500000000E+03  0.12500000000E+03 0.  0.
        -11    1    1    0    0    0 -0.51733295628E+01  0.28833191786E+02  0.17644623568E+02  0.34197207904E+02  0.51100000000E-03 0. -1.
         11    1    1    0    0    0 -0.54506694154E+01  0.23592719452E+02  0.14666863930E+02  0.28309770504E+02  0.51100000000E-03 0.  1.
         22    1    1    0    0    0  0.10623998978E+02 -0.52425911237E+02 -0.32311487498E+02  0.62493021592E+02  0.00000000000E+00 0.  1.
</event>
<event>
 4    1  0.1956828E-002  0.9118800E+02  0.7818608E-02  0.1130116E+00
         25   -1    0    0    0    0  0.00000000000E+00  0.00000000000E+00  0.99999998245E-14  0.12500000000E+03  0.12500000000E+03 0.  0.
        -11    1    1    0    0    0 -0.15689747717E+01  0.87737545770E+00 -0.12623513541E+02  0.12750865222E+02  0.51100000000E-03 0. -1.
         11    1    1    0    0    0 -0.44487693042E+01  0.59492615916E+01 -0.49200892719E+02  0.49758548074E+02  0.51100000000E-03 0.  1.
         22    1    1    0    0    0  0.60177440760E+01 -0.68266370493E+01  0.61824406260E+02  0.62490586704E+02  0.00000000000E+00 0.  1.
</event>
<event>
 4    1  0.1956828E-002  0.9118800E+02  0.7818608E-02  0.1130116E+00
         25   -1    0    0    0    0  0.00000000000E+00  0.00000000000E+00  0.99999998245E-14  0.12500000000E+03  0.12500000000E+03 0.  0.
        -11    1    1    0    0    0 -0.40978178155E+02 -0.24157380341E+02 -0.40001527194E+02  0.62152331316E+02  0.51100000000E-03 0. -1.
         11    1    1    0    0    0 -0.10435442710E+00 -0.42212070056E+00 -0.38720889192E-01  0.43654931070E+00  0.51100000000E-03 0.  1.
         22    1    1    0    0    0  0.41082532582E+02  0.24579501042E+02  0.40040248084E+02  0.62411119373E+02  0.00000000000E+00 0. -1.
</event>
<event>
 4    1  0.1956828E-002  0.9118800E+02  0.7818608E-02  0.1130116E+00
         25   -1    0    0    0    0  0.00000000000E+00  0.00000000000E+00  0.99999998245E-14  0.12500000000E+03  0.12500000000E+03 0.  0.
        -11    1    1    0    0    0  0.32110432383E+02 -0.62758629371E+01 -0.52394448344E+02  0.61770903677E+02  0.51100000000E-03 0.  1.
         11    1    1    0    0    0  0.12004456744E+01  0.11615202853E+01  0.29837313613E+01  0.34194812893E+01  0.51100000000E-03 0. -1.
         22    1    1    0    0    0 -0.33310878058E+02  0.51143426517E+01  0.49410716983E+02  0.59809615034E+02  0.00000000000E+00 0.  1.
</event>
<event>
 4    1  0.1956828E-002  0.9118800E+02  0.7818608E-02  0.1130116E+00
         25   -1    0    0    0    0  0.00000000000E+00  0.00000000000E+00  0.99999998245E-14  0.12500000000E+03  0.12500000000E+03 0.  0.
        -11    1    1    0    0    0  0.23730982266E+01  0.81775918455E+00  0.25002338192E+00  0.25224664973E+01  0.51100000000E-03 0.  1.
         11    1    1    0    0    0 -0.17614505474E+02 -0.39713065092E+01 -0.58999801774E+02  0.61701042845E+02  0.51100000000E-03 0. -1.
         22    1    1    0    0    0  0.15241407248E+02  0.31535473246E+01  0.58749778392E+02  0.60776490658E+02  0.00000000000E+00 0. -1.
</event>
<event>
 4    1  0.1956828E-002  0.9118800E+02  0.7818608E-02  0.1130116E+00
         25   -1    0    0    0    0  0.00000000000E+00  0.00000000000E+00  0.99999998245E-14  0.12500000000E+03  0.12500000000E+03 0.  0.
        -11    1    1    0    0    0  0.70679792449E+01  0.20421698262E+00 -0.12638176673E+00  0.70720582432E+01  0.51100000000E-03 0. -1.
         11    1    1    0    0    0  0.55094501822E+02 -0.13780828665E+01 -0.60765439866E+01  0.55445717873E+02  0.51100000000E-03 0.  1.
         22    1    1    0    0    0 -0.62162481067E+02  0.11738658839E+01  0.62029257534E+01  0.62482223883E+02  0.00000000000E+00 0.  1.
</event>
<event>
 4    1  0.1956828E-002  0.9118800E+02  0.7818608E-02  0.1130116E+00
         25   -1    0    0    0    0  0.00000000000E+00  0.00000000000E+00  0.99999998245E-14  0.12500000000E+03  0.12500000000E+03 0.  0.
        -11    1    1    0    0    0 -0.23426548473E+02 -0.21979635409E+02 -0.38975140997E+02  0.50507119915E+02  0.51100000000E-03 0.  1.
         11    1    1    0    0    0 -0.55591024400E+01 -0.52449927144E+01 -0.92420746955E+01  0.11992894290E+02  0.51100000000E-03 0. -1.
         22    1    1    0    0    0  0.28985650913E+02  0.27224628123E+02  0.48217215692E+02  0.62499985795E+02  0.00000000000E+00 0.  1.
</event>
<event>
 4    1  0.1956828E-002  0.9118800E+02  0.7818608E-02  0.1130116E+00
         25   -1    0    0    0    0  0.00000000000E+00  0.00000000000E+00  0.99999998245E-14  0.12500000000E+03  0.12500000000E+03 0.  0.
        -11    1    1    0    0    0 -0.24018389502E+02  0.38551092791E+01 -0.35897185376E+02  0.43363035180E+02  0.51100000000E-03 0.  1.
         11    1    1    0    0    0 -0.56386596313E+01  0.16528960834E+01 -0.18513945935E+02  0.19424024872E+02  0.51100000000E-03 0. -1.
         22    1    1    0    0    0  0.29657049133E+02 -0.55080053626E+01  0.54411131311E+02  0.62212939948E+02  0.00000000000E+00 0.  1.
</event>
<event>
 4    1  0.1956828E-002  0.9118800E+02  0.7818608E-02  0.1130116E+00
         25   -1    0    0    0    0  0.00000000000E+00  0.00000000000E+00  0.99999998245E-14  0.12500000000E+03  0.12500000000E+03 0.  0.
        -11    1    1    0    0    0 -0.43363751247E+02 -0.26228011813E+02 -0.24220108689E+02  0.56168827575E+02  0.51100000000E-03 0.  1.
         11    1    1    0    0    0 -0.18442398390E+01  0.15860920076E+02 -0.10686948584E+01  0.16003503217E+02  0.51100000000E-03 0. -1.
         22    1    1    0    0    0  0.45207991086E+02  0.10367091737E+02  0.25288803548E+02  0.52827669209E+02  0.00000000000E+00 0.  1.
</event>
<event>
 4    1  0.1956828E-002  0.9118800E+02  0.7818608E-02  0.1130116E+00
         25   -1    0    0    0    0  0.00000000000E+00  0.00000000000E+00  0.99999998245E-14  0.12500000000E+03  0.12500000000E+03 0.  0.
        -11    1    1    0    0    0 -0.71235953737E+01  0.91962828845E+00 -0.27531906187E+00  0.71879849808E+01  0.51100000000E-03 0.  1.
         11    1    1    0    0    0 -0.55044496030E+02  0.54701896979E+01  0.29126891801E+00  0.55316402236E+02  0.51100000000E-03 0. -1.
         22    1    1    0    0    0  0.62168091404E+02 -0.63898179863E+01 -0.15949856137E-01  0.62495612783E+02  0.00000000000E+00 0. -1.
</event>
<event>
 4    1  0.1956828E-002  0.9118800E+02  0.7818608E-02  0.1130116E+00
         25   -1    0    0    0    0  0.00000000000E+00  0.00000000000E+00  0.99999998245E-14  0.12500000000E+03  0.12500000000E+03 0.  0.
        -11    1    1    0    0    0  0.17833704592E+02 -0.18736366055E+02  0.19859137087E+02  0.32611006708E+02  0.51100000000E-03 0. -1.
         11    1    1    0    0    0  0.16345121746E+02 -0.17172643295E+02  0.18201352625E+02  0.29888993296E+02  0.51100000000E-03 0. -1.
         22    1    1    0    0    0 -0.34178826339E+02  0.35909009350E+02 -0.38060489712E+02  0.62499999996E+02  0.00000000000E+00 0. -1.
</event>
<event>
 4    1  0.1956828E-002  0.9118800E+02  0.7818608E-02  0.1130116E+00
         25   -1    0    0    0    0  0.00000000000E+00  0.00000000000E+00  0.99999998245E-14  0.12500000000E+03  0.12500000000E+03 0.  0.
        -11    1    1    0    0    0 -0.11188192856E+02 -0.12348021260E+02  0.13113262857E+02  0.21203937169E+02  0.51100000000E-03 0. -1.
         11    1    1    0    0    0 -0.21726535237E+02 -0.24097529925E+02  0.25546675278E+02  0.41296076084E+02  0.51100000000E-03 0.  1.
         22    1    1    0    0    0  0.32914728094E+02  0.36445551186E+02 -0.38659938136E+02  0.62499986747E+02  0.00000000000E+00 0.  1.
</event>
<event>
 4    1  0.1956828E-002  0.9118800E+02  0.7818608E-02  0.1130116E+00
         25   -1    0    0    0    0  0.00000000000E+00  0.00000000000E+00  0.99999998245E-14  0.12500000000E+03  0.12500000000E+03 0.  0.
        -11    1    1    0    0    0  0.30133909592E+02  0.28495972709E+01  0.38417903669E+02  0.48909181495E+02  0.51100000000E-03 0.  1.
         11    1    1    0    0    0  0.84103103726E+01  0.29965729757E+01  0.10341507968E+02  0.13662340849E+02  0.51100000000E-03 0. -1.
         22    1    1    0    0    0 -0.38544219965E+02 -0.58461702467E+01 -0.48759411637E+02  0.62428477656E+02  0.00000000000E+00 0.  1.
</event>
<event>
 4    1  0.1956828E-002  0.9118800E+02  0.7818608E-02  0.1130116E+00
         25   -1    0    0    0    0  0.00000000000E+00  0.00000000000E+00  0.99999998245E-14  0.12500000000E+03  0.12500000000E+03 0.  0.
        -11    1    1    0    0    0  0.74615140557E+01  0.40287129703E+02  0.14687604088E+02  0.43525311324E+02  0.51100000000E-03 0. -1.
         11    1    1    0    0    0  0.32262492909E+01  0.17583393077E+02  0.63604586586E+01  0.18974715576E+02  0.51100000000E-03 0.  1.
         22    1    1    0    0    0 -0.10687763347E+02 -0.57870522780E+02 -0.21048062746E+02  0.62499973100E+02  0.00000000000E+00 0. -1.
</event>
<event>
 4    1  0.1956828E-002  0.9118800E+02  0.7818608E-02  0.1130116E+00
         25   -1    0    0    0    0  0.00000000000E+00  0.00000000000E+00  0.99999998245E-14  0.12500000000E+03  0.12500000000E+03 0.  0.
        -11    1    1    0    0    0 -0.15729366104E+01  0.77867464203E+01  0.24092369206E+01  0.83013235207E+01  0.51100000000E-03 0. -1.
         11    1    1    0    0    0 -0.23507577754E+01  0.54257808182E+02 -0.45017896607E+01  0.54494971522E+02  0.51100000000E-03 0.  1.
         22    1    1    0    0    0  0.39236943858E+01 -0.62044554602E+02  0.20925527401E+01  0.62203704957E+02  0.00000000000E+00 0.  1.
</event>
<event>
 4    1  0.1956828E-002  0.9118800E+02  0.7818608E-02  0.1130116E+00
         25   -1    0    0    0    0  0.00000000000E+00  0.00000000000E+00  0.99999998245E-14  0.12500000000E+03  0.12500000000E+03 0.  0.
        -11    1    1    0    0    0 -0.16584581521E+02 -0.15806932776E+02  0.35079964578E+02  0.41898823171E+02  0.51100000000E-03 0. -1.
         11    1    1    0    0    0 -0.81812654317E+01 -0.77518348387E+01  0.17244849146E+02  0.20601186125E+02  0.51100000000E-03 0.  1.
         22    1    1    0    0    0  0.24765846953E+02  0.23558767615E+02 -0.52324813724E+02  0.62499990704E+02  0.00000000000E+00 0. -1.
</event>
<event>
 4    1  0.1956828E-002  0.9118800E+02  0.7818608E-02  0.1130116E+00
         25   -1    0    0    0    0  0.00000000000E+00  0.00000000000E+00  0.99999998245E-14  0.12500000000E+03  0.12500000000E+03 0.  0.
        -11    1    1    0    0    0 -0.13477379134E+02  0.19286753729E+02  0.99786579978E+01  0.25557625739E+02  0.51100000000E-03 0.  1.
         11    1    1    0    0    0 -0.19480455549E+02  0.27879047623E+02  0.14422536941E+02  0.36942374272E+02  0.51100000000E-03 0.  1.
         22    1    1    0    0    0  0.32957834683E+02 -0.47165801352E+02 -0.24401194939E+02  0.62499999989E+02  0.00000000000E+00 0.  1.
</event>
<event>
 4    1  0.1956828E-002  0.9118800E+02  0.7818608E-02  0.1130116E+00
         25   -1    0    0    0    0  0.00000000000E+00  0.00000000000E+00  0.99999998245E-14  0.12500000000E+03  0.12500000000E+03 0.  0.
        -11    1    1    0    0    0 -0.20673221258E+02  0.13800843032E+02 -0.17328469891E+02  0.30300515088E+02  0.51100000000E-03 0. -1.
         11    1    1    0    0    0 -0.21955262430E+02  0.14657423197E+02 -0.18437283237E+02  0.32199487831E+02  0.51100000000E-03 0.  1.
         22    1    1    0    0    0  0.42628483689E+02 -0.28458266229E+02  0.35765753127E+02  0.62499997081E+02  0.00000000000E+00 0. -1.
</event>
<event>
 4    1  0.1956828E-002  0.9118800E+02  0.7818608E-02  0.1130116E+00
         25   -1    0    0    0    0  0.00000000000E+00  0.00000000000E+00  0.99999998245E-14  0.12500000000E+03  0.12500000000E+03 0.  0.
        -11    1    1    0    0    0 -0.16266751694E+02  0.61096173965E+01 -0.78889779000E+01  0.19083254649E+02  0.51100000000E-03 0. -1.
         11    1    1    0    0    0 -0.37007992195E+02  0.13900228507E+02 -0.17950095789E+02  0.43416745363E+02  0.51100000000E-03 0.  1.
         22    1    1    0    0    0  0.53274743889E+02 -0.20009845903E+02  0.25839073689E+02  0.62499999989E+02  0.00000000000E+00 0.  1.
</event>
<event>
 4    1  0.1956828E-002  0.9118800E+02  0.7818608E-02  0.1130116E+00
         25   -1    0    0    0    0  0.00000000000E+00  0.00000000000E+00  0.99999998245E-14  0.12500000000E+03  0.12500000000E+03 0.  0.
        -11    1    1    0    0    0  0.35265192769E+02  0.27145981240E+01  0.73812205780E+01  0.36131499851E+02  0.51100000000E-03 0.  1.
         11    1    1    0    0    0  0.25736413170E+02  0.19771507083E+01  0.53875520420E+01  0.26368500242E+02  0.51100000000E-03 0. -1.
         22    1    1    0    0    0 -0.61001605938E+02 -0.46917488323E+01 -0.12768772620E+02  0.62499999907E+02  0.00000000000E+00 0.  1.
</event>
<event>
 4    1  0.1956828E-002  0.9118800E+02  0.7818608E-02  0.1130116E+00
         25   -1    0    0    0    0  0.00000000000E+00  0.00000000000E+00  0.99999998245E-14  0.12500000000E+03  0.12500000000E+03 0.  0.
        -11    1    1    0    0    0  0.24942004400E+02 -0.12998930728E+02 -0.18534554523E+02  0.33683905581E+02  0.51100000000E-03 0. -1.
         11    1    1    0    0    0  0.21296459962E+02 -0.11169274275E+02 -0.15876920936E+02  0.28816115516E+02  0.51100000000E-03 0.  1.
         22    1    1    0    0    0 -0.46238464362E+02  0.24168205003E+02  0.34411475459E+02  0.62499978903E+02  0.00000000000E+00 0.  1.
</event>
<event>
 4    1  0.1956828E-002  0.9118800E+02  0.7818608E-02  0.1130116E+00
         25   -1    0    0    0    0  0.00000000000E+00  0.00000000000E+00  0.99999998245E-14  0.12500000000E+03  0.12500000000E+03 0.  0.
        -11    1    1    0    0    0 -0.39938431284E+02  0.18337894049E+02  0.39420929850E+02  0.59036991472E+02  0.51100000000E-03 0. -1.
         11    1    1    0    0    0 -0.23414977750E+01  0.10765541277E+01  0.23131901601E+01  0.34630087494E+01  0.51100000000E-03 0.  1.
         22    1    1    0    0    0  0.42279929059E+02 -0.19414448177E+02 -0.41734120010E+02  0.62499999778E+02  0.00000000000E+00 0. -1.
</event>
<event>
 4    1  0.1956828E-002  0.9118800E+02  0.7818608E-02  0.1130116E+00
         25   -1    0    0    0    0  0.00000000000E+00  0.00000000000E+00  0.99999998245E-14  0.12500000000E+03  0.12500000000E+03 0.  0.
        -11    1    1    0    0    0 -0.92385325631E+00 -0.85542755436E+00  0.17548141676E+01  0.21597764153E+01  0.51100000000E-03 0. -1.
         11    1    1    0    0    0 -0.26401593948E+02 -0.25490792472E+02  0.47897700744E+02  0.60340818694E+02  0.51100000000E-03 0.  1.
         22    1    1    0    0    0  0.27325447204E+02  0.26346220026E+02 -0.49652514912E+02  0.62499404890E+02  0.00000000000E+00 0.  1.
</event>
<event>
 4    1  0.1956828E-002  0.9118800E+02  0.7818608E-02  0.1130116E+00
         25   -1    0    0    0    0  0.00000000000E+00  0.00000000000E+00  0.99999998245E-14  0.12500000000E+03  0.12500000000E+03 0.  0.
        -11    1    1    0    0    0 -0.16841838407E+02 -0.15464909337E+02  0.46611336899E+02  0.51917508314E+02  0.51100000000E-03 0.  1.
         11    1    1    0    0    0 -0.41289155767E+01 -0.30326070351E+01  0.92721853314E+01  0.10593303090E+02  0.51100000000E-03 0. -1.
         22    1    1    0    0    0  0.20970753984E+02  0.18497516372E+02 -0.55883522230E+02  0.62489188597E+02  0.00000000000E+00 0.  1.
</event>
<event>
 4    1  0.1956828E-002  0.9118800E+02  0.7818608E-02  0.1130116E+00
         25   -1    0    0    0    0  0.00000000000E+00  0.00000000000E+00  0.99999998245E-14  0.12500000000E+03  0.12500000000E+03 0.  0.
        -11    1    1    0    0    0  0.22477341592E+02 -0.26613401387E+01 -0.22786723644E+02  0.32117727053E+02  0.51100000000E-03 0.  1.
         11    1    1    0    0    0  0.21224311070E+02 -0.26890336798E+01 -0.21572858925E+02  0.30382404859E+02  0.51100000000E-03 0. -1.
         22    1    1    0    0    0 -0.43701652662E+02  0.53503738185E+01  0.44359582569E+02  0.62499868088E+02  0.00000000000E+00 0. -1.
</event>
<event>
 4    1  0.1956828E-002  0.9118800E+02  0.7818608E-02  0.1130116E+00
         25   -1    0    0    0    0  0.00000000000E+00  0.00000000000E+00  0.99999998245E-14  0.12500000000E+03  0.12500000000E+03 0.  0.
        -11    1    1    0    0    0 -0.47851844225E+02  0.18736949077E+01 -0.19918977324E+01  0.47929921606E+02  0.51100000000E-03 0. -1.
         11    1    1    0    0    0  0.13820911159E+02 -0.24879807493E+01  0.29913788991E+02  0.33046064902E+02  0.51100000000E-03 0.  1.
         22    1    1    0    0    0  0.34030933066E+02  0.61428584163E+00 -0.27921891258E+02  0.44024013492E+02  0.00000000000E+00 0. -1.
</event>
<event>
 4    1  0.1956828E-002  0.9118800E+02  0.7818608E-02  0.1130116E+00
         25   -1    0    0    0    0  0.00000000000E+00  0.00000000000E+00  0.99999998245E-14  0.12500000000E+03  0.12500000000E+03 0.  0.
        -11    1    1    0    0    0  0.48174961495E+02  0.11141009184E+02 -0.20644680605E+02  0.53583130165E+02  0.51100000000E-03 0.  1.
         11    1    1    0    0    0  0.79514344185E+01  0.20189927177E+01 -0.34962860520E+01  0.89177159253E+01  0.51100000000E-03 0. -1.
         22    1    1    0    0    0 -0.56126395914E+02 -0.13160001902E+02  0.24140966657E+02  0.62499153910E+02  0.00000000000E+00 0.  1.
</event>
<event>
 4    1  0.1956828E-002  0.9118800E+02  0.7818608E-02  0.1130116E+00
         25   -1    0    0    0    0  0.00000000000E+00  0.00000000000E+00  0.99999998245E-14  0.12500000000E+03  0.12500000000E+03 0.  0.
        -11    1    1    0    0    0 -0.15596136462E+01 -0.11607747547E+02  0.12196300313E+02  0.16909226458E+02  0.51100000000E-03 0.  1.
         11    1    1    0    0    0 -0.22880715260E+01 -0.30853745710E+02  0.33494834687E+02  0.45597070592E+02  0.51100000000E-03 0. -1.
         22    1    1    0    0    0  0.38476851722E+01  0.42461493257E+02 -0.45691134999E+02  0.62493702949E+02  0.00000000000E+00 0. -1.
</event>
<event>
 4    1  0.1956828E-002  0.9118800E+02  0.7818608E-02  0.1130116E+00
         25   -1    0    0    0    0  0.00000000000E+00  0.00000000000E+00  0.99999998245E-14  0.12500000000E+03  0.12500000000E+03 0.  0.
        -11    1    1    0    0    0  0.39719257716E+02 -0.26386534755E+02 -0.17327505142E+02  0.50735698326E+02  0.51100000000E-03 0. -1.
         11    1    1    0    0    0  0.83488169713E+01 -0.67873241058E+01 -0.48355874500E+01  0.11796330768E+02  0.51100000000E-03 0.  1.
         22    1    1    0    0    0 -0.48068074687E+02  0.33173858861E+02  0.22163092592E+02  0.62467970906E+02  0.00000000000E+00 0. -1.
</event>
<event>
 4    1  0.1956828E-002  0.9118800E+02  0.7818608E-02  0.1130116E+00
         25   -1    0    0    0    0  0.00000000000E+00  0.00000000000E+00  0.99999998245E-14  0.12500000000E+03  0.12500000000E+03 0.  0.
        -11    1    1    0    0    0 -0.19161584610E+01  0.43570947596E+01  0.22143833138E+01  0.52497077741E+01  0.51100000000E-03 0.  1.
         11    1    1    0    0    0 -0.20898347125E+02  0.47515303377E+02  0.24148519496E+02  0.57250292241E+02  0.51100000000E-03 0.  1.
         22    1    1    0    0    0  0.22814505586E+02 -0.51872398137E+02 -0.26362902810E+02  0.62499999985E+02  0.00000000000E+00 0.  1.
</event>
<event>
 4    1  0.1956828E-002  0.9118800E+02  0.7818608E-02  0.1130116E+00
         25   -1    0    0    0    0  0.00000000000E+00  0.00000000000E+00  0.99999998245E-14  0.12500000000E+03  0.12500000000E+03 0.  0.
        -11    1    1    0    0    0  0.19892317730E+02  0.12441577508E+02 -0.13173184766E+02  0.26907804680E+02  0.51100000000E-03 0. -1.
         11    1    1    0    0    0  0.26312058882E+02  0.16456823630E+02 -0.17425638620E+02  0.35592195327E+02  0.51100000000E-03 0. -1.
         22    1    1    0    0    0 -0.46204376612E+02 -0.28898401138E+02  0.30598823387E+02  0.62499999993E+02  0.00000000000E+00 0. -1.
</event>
<event>
 4    1  0.1956828E-002  0.9118800E+02  0.7818608E-02  0.1130116E+00
         25   -1    0    0    0    0  0.00000000000E+00  0.00000000000E+00  0.99999998245E-14  0.12500000000E+03  0.12500000000E+03 0.  0.
        -11    1    1    0    0    0  0.38345755485E+02  0.82192705055E+01  0.80031840902E+01  0.40025046249E+02  0.51100000000E-03 0. -1.
         11    1    1    0    0    0  0.17655042049E+02  0.78193856376E+01  0.12747107078E+02  0.23137243583E+02  0.51100000000E-03 0.  1.
         22    1    1    0    0    0 -0.56000797534E+02 -0.16038656143E+02 -0.20750291168E+02  0.61837710168E+02  0.00000000000E+00 0. -1.
</event>
<event>
 4    1  0.1956828E-002  0.9118800E+02  0.7818608E-02  0.1130116E+00
         25   -1    0    0    0    0  0.00000000000E+00  0.00000000000E+00  0.99999998245E-14  0.12500000000E+03  0.12500000000E+03 0.  0.
        -11    1    1    0    0    0  0.60223631177E+01  0.97231317054E+01 -0.45752761535E+02  0.47160612125E+02  0.51100000000E-03 0. -1.
         11    1    1    0    0    0  0.11254830211E+01  0.34926121091E+01 -0.14904198728E+02  0.15349273317E+02  0.51100000000E-03 0.  1.
         22    1    1    0    0    0 -0.71478461388E+01 -0.13215743814E+02  0.60656960263E+02  0.62490114557E+02  0.00000000000E+00 0. -1.
</event>
<event>
 4    1  0.1956828E-002  0.9118800E+02  0.7818608E-02  0.1130116E+00
         25   -1    0    0    0    0  0.00000000000E+00  0.00000000000E+00  0.99999998245E-14  0.12500000000E+03  0.12500000000E+03 0.  0.
        -11    1    1    0    0    0  0.36615630540E+01 -0.25310859969E+01  0.52163542415E+01  0.68573896022E+01  0.51100000000E-03 0. -1.
         11    1    1    0    0    0  0.27944929811E+02 -0.22340491249E+02  0.42619684350E+02  0.55645791806E+02  0.51100000000E-03 0.  1.
         22    1    1    0    0    0 -0.31606492865E+02  0.24871577245E+02 -0.47836038592E+02  0.62496818592E+02  0.00000000000E+00 0.  1.
</event>
<event>
 4    1  0.1956828E-002  0.9118800E+02  0.7818608E-02  0.1130116E+00
         25   -1    0    0    0    0  0.00000000000E+00  0.00000000000E+00  0.99999998245E-14  0.12500000000E+03  0.12500000000E+03 0.  0.
        -11    1    1    0    0    0  0.26292242339E+01 -0.62976130450E+01 -0.19844587564E+02  0.20985242576E+02  0.51100000000E-03 0. -1.
         11    1    1    0    0    0  0.52967996060E+01 -0.12545511193E+02 -0.39217753931E+02  0.41514794481E+02  0.51100000000E-03 0.  1.
         22    1    1    0    0    0 -0.79260238399E+01  0.18843124238E+02  0.59062341495E+02  0.62499962943E+02  0.00000000000E+00 0.  1.
</event>
<event>
 4    1  0.1956828E-002  0.9118800E+02  0.7818608E-02  0.1130116E+00
         25   -1    0    0    0    0  0.00000000000E+00  0.00000000000E+00  0.99999998245E-14  0.12500000000E+03  0.12500000000E+03 0.  0.
        -11    1    1    0    0    0 -0.30750376563E+01 -0.31204748223E+01 -0.18544767547E+01  0.47573421150E+01  0.51100000000E-03 0. -1.
         11    1    1    0    0    0 -0.37615635961E+02 -0.37658536352E+02 -0.22385681156E+02  0.57742706466E+02  0.51100000000E-03 0.  1.
         22    1    1    0    0    0  0.40690673618E+02  0.40779011175E+02  0.24240157910E+02  0.62499951419E+02  0.00000000000E+00 0.  1.
</event>
<event>
 4    1  0.1956828E-002  0.9118800E+02  0.7818608E-02  0.1130116E+00
         25   -1    0    0    0    0  0.00000000000E+00  0.00000000000E+00  0.99999998245E-14  0.12500000000E+03  0.12500000000E+03 0.  0.
        -11    1    1    0    0    0 -0.23023570903E+01 -0.13109703301E+02 -0.11640569948E+02  0.17682421718E+02  0.51100000000E-03 0.  1.
         11    1    1    0    0    0 -0.64116303316E+01 -0.30863228945E+02 -0.31884274268E+02  0.44835865669E+02  0.51100000000E-03 0. -1.
         22    1    1    0    0    0  0.87139874219E+01  0.43972932246E+02  0.43524844216E+02  0.62481712614E+02  0.00000000000E+00 0. -1.
</event>
<event>
 4    1  0.1956828E-002  0.9118800E+02  0.7818608E-02  0.1130116E+00
         25   -1    0    0    0    0  0.00000000000E+00  0.00000000000E+00  0.99999998245E-14  0.12500000000E+03  0.12500000000E+03 0.  0.
        -11    1    1    0    0    0  0.25795616469E+01  0.44013405726E+01  0.94126465504E+00  0.51876696635E+01  0.51100000000E-03 0. -1.
         11    1    1    0    0    0  0.28508958208E+02  0.48696916766E+02  0.10027898095E+02  0.57312382092E+02  0.51100000000E-03 0.  1.
         22    1    1    0    0    0 -0.31088519854E+02 -0.53098257338E+02 -0.10969162750E+02  0.62499948245E+02  0.00000000000E+00 0.  1.
</event>
<event>
 4    1  0.1956828E-002  0.9118800E+02  0.7818608E-02  0.1130116E+00
         25   -1    0    0    0    0  0.00000000000E+00  0.00000000000E+00  0.99999998245E-14  0.12500000000E+03  0.12500000000E+03 0.  0.
        -11    1    1    0    0    0  0.11951920333E+02  0.50035522052E+01 -0.26117462351E+02  0.29154858501E+02  0.51100000000E-03 0.  1.
         11    1    1    0    0    0  0.13667632392E+02  0.57281328763E+01 -0.29871102893E+02  0.33345141622E+02  0.51100000000E-03 0. -1.
         22    1    1    0    0    0 -0.25619552726E+02 -0.10731685081E+02  0.55988565244E+02  0.62499999877E+02  0.00000000000E+00 0.  1.
</event>
<event>
 4    1  0.1956828E-002  0.9118800E+02  0.7818608E-02  0.1130116E+00
         25   -1    0    0    0    0  0.00000000000E+00  0.00000000000E+00  0.99999998245E-14  0.12500000000E+03  0.12500000000E+03 0.  0.
        -11    1    1    0    0    0 -0.40838223398E+01 -0.65424427564E+01 -0.14314368316E+02  0.16259837104E+02  0.51100000000E-03 0.  1.
         11    1    1    0    0    0 -0.11613476614E+02 -0.18606420820E+02 -0.40707258937E+02  0.46240162902E+02  0.51100000000E-03 0.  1.
         22    1    1    0    0    0  0.15697298954E+02  0.25148863577E+02  0.55021627253E+02  0.62499999993E+02  0.00000000000E+00 0.  1.
</event>
<event>
 4    1  0.1956828E-002  0.9118800E+02  0.7818608E-02  0.1130116E+00
         25   -1    0    0    0    0  0.00000000000E+00  0.00000000000E+00  0.99999998245E-14  0.12500000000E+03  0.12500000000E+03 0.  0.
        -11    1    1    0    0    0  0.58893047684E+00  0.14992515260E+00  0.95724348071E-02  0.60778989015E+00  0.51100000000E-03 0. -1.
         11    1    1    0    0    0  0.59144487381E+02  0.17956021843E+02 -0.32062532062E+01  0.61893207769E+02  0.51100000000E-03 0.  1.
         22    1    1    0    0    0 -0.59733417858E+02 -0.18105946996E+02  0.31966807714E+01  0.62499002341E+02  0.00000000000E+00 0.  1.
</event>
<event>
 4    1  0.1956828E-002  0.9118800E+02  0.7818608E-02  0.1130116E+00
         25   -1    0    0    0    0  0.00000000000E+00  0.00000000000E+00  0.99999998245E-14  0.12500000000E+03  0.12500000000E+03 0.  0.
        -11    1    1    0    0    0  0.26439119615E+01 -0.12505520778E+01 -0.13006881350E+01  0.32009281225E+01  0.51100000000E-03 0. -1.
         11    1    1    0    0    0  0.46471944337E+02 -0.23423240962E+02 -0.28438279226E+02  0.59304515454E+02  0.51100000000E-03 0.  1.
         22    1    1    0    0    0 -0.49115856299E+02  0.24673793039E+02  0.29738967361E+02  0.62494556424E+02  0.00000000000E+00 0.  1.
</event>
<event>
 4    1  0.1956828E-002  0.9118800E+02  0.7818608E-02  0.1130116E+00
         25   -1    0    0    0    0  0.00000000000E+00  0.00000000000E+00  0.99999998245E-14  0.12500000000E+03  0.12500000000E+03 0.  0.
        -11    1    1    0    0    0  0.18727516514E+02  0.29549641640E+02  0.18513522939E+01  0.35033251368E+02  0.51100000000E-03 0. -1.
         11    1    1    0    0    0  0.14682490183E+02  0.23167706021E+02  0.14505724250E+01  0.27466748641E+02  0.51100000000E-03 0.  1.
         22    1    1    0    0    0 -0.33410006697E+02 -0.52717347662E+02 -0.33019247189E+01  0.62499999991E+02  0.00000000000E+00 0. -1.
</event>
<event>
 4    1  0.1956828E-002  0.9118800E+02  0.7818608E-02  0.1130116E+00
         25   -1    0    0    0    0  0.00000000000E+00  0.00000000000E+00  0.99999998245E-14  0.12500000000E+03  0.12500000000E+03 0.  0.
        -11    1    1    0    0    0  0.17937507434E+02 -0.44579324274E+01 -0.13276537175E+02  0.22757279585E+02  0.51100000000E-03 0.  1.
         11    1    1    0    0    0  0.31325118623E+02 -0.77842868161E+01 -0.23186755885E+02  0.39742720425E+02  0.51100000000E-03 0.  1.
         22    1    1    0    0    0 -0.49262626057E+02  0.12242219243E+02  0.36463293060E+02  0.62499999991E+02  0.00000000000E+00 0.  1.
</event>
<event>
 4    1  0.1956828E-002  0.9118800E+02  0.7818608E-02  0.1130116E+00
         25   -1    0    0    0    0  0.00000000000E+00  0.00000000000E+00  0.99999998245E-14  0.12500000000E+03  0.12500000000E+03 0.  0.
        -11    1    1    0    0    0  0.19791404477E+02  0.16434616533E+02  0.15143785951E+02  0.29851810078E+02  0.51100000000E-03 0. -1.
         11    1    1    0    0    0 -0.11035318814E+02  0.13227479153E+01  0.37390235939E+02  0.39007148925E+02  0.51100000000E-03 0.  1.
         22    1    1    0    0    0 -0.87560856634E+01 -0.17757364449E+02 -0.52534021890E+02  0.56141040997E+02  0.00000000000E+00 0.  1.
</event>
<event>
 4    1  0.1956828E-002  0.9118800E+02  0.7818608E-02  0.1130116E+00
         25   -1    0    0    0    0  0.00000000000E+00  0.00000000000E+00  0.99999998245E-14  0.12500000000E+03  0.12500000000E+03 0.  0.
        -11    1    1    0    0    0 -0.19927817861E+02 -0.19961136883E+02 -0.45152806884E+01  0.28564885267E+02  0.51100000000E-03 0. -1.
         11    1    1    0    0    0 -0.23675978696E+02 -0.23712156440E+02 -0.53641106446E+01  0.33935114757E+02  0.51100000000E-03 0.  1.
         22    1    1    0    0    0  0.43603796557E+02  0.43673293324E+02  0.98793913330E+01  0.62499999976E+02  0.00000000000E+00 0. -1.
</event>
<event>
 4    1  0.1956828E-002  0.9118800E+02  0.7818608E-02  0.1130116E+00
         25   -1    0    0    0    0  0.00000000000E+00  0.00000000000E+00  0.99999998245E-14  0.12500000000E+03  0.12500000000E+03 0.  0.
        -11    1    1    0    0    0 -0.12878197463E+00 -0.13022339949E+02 -0.20775076513E+02  0.24519415306E+02  0.51100000000E-03 0.  1.
         11    1    1    0    0    0  0.28421476089E+01 -0.18590950517E+02 -0.33034409707E+02  0.38012806645E+02  0.51100000000E-03 0. -1.
         22    1    1    0    0    0 -0.27133656343E+01  0.31613290466E+02  0.53809486219E+02  0.62467778049E+02  0.00000000000E+00 0.  1.
</event>
<event>
 4    1  0.1956828E-002  0.9118800E+02  0.7818608E-02  0.1130116E+00
         25   -1    0    0    0    0  0.00000000000E+00  0.00000000000E+00  0.99999998245E-14  0.12500000000E+03  0.12500000000E+03 0.  0.
        -11    1    1    0    0    0 -0.19128628411E+01  0.18669652945E+02  0.45939085464E+01  0.19321464265E+02  0.51100000000E-03 0. -1.
         11    1    1    0    0    0  0.36205164286E+00  0.43442616960E+02 -0.22749096685E+01  0.43503646560E+02  0.51100000000E-03 0.  1.
         22    1    1    0    0    0  0.15508111983E+01 -0.62112269905E+02 -0.23189988778E+01  0.62174889175E+02  0.00000000000E+00 0. -1.
</event>
<event>
 4    1  0.1956828E-002  0.9118800E+02  0.7818608E-02  0.1130116E+00
         25   -1    0    0    0    0  0.00000000000E+00  0.00000000000E+00  0.99999998245E-14  0.12500000000E+03  0.12500000000E+03 0.  0.
        -11    1    1    0    0    0  0.40888757004E+01 -0.11964689453E+01 -0.12064647267E+02  0.12794770665E+02  0.51100000000E-03 0.  1.
         11    1    1    0    0    0  0.15886714892E+02 -0.46706357480E+01 -0.46865843948E+02  0.49705229881E+02  0.51100000000E-03 0. -1.
         22    1    1    0    0    0 -0.19975590592E+02  0.58671046933E+01  0.58930491214E+02  0.62499999454E+02  0.00000000000E+00 0. -1.
</event>
<event>
 4    1  0.1956828E-002  0.9118800E+02  0.7818608E-02  0.1130116E+00
         25   -1    0    0    0    0  0.00000000000E+00  0.00000000000E+00  0.99999998245E-14  0.12500000000E+03  0.12500000000E+03 0.  0.
        -11    1    1    0    0    0 -0.60305497410E+01  0.37722834199E+02 -0.18429718009E+02  0.42415023946E+02  0.51100000000E-03 0. -1.
         11    1    1    0    0    0 -0.28556372547E+01  0.17863308245E+02 -0.87266154686E+01  0.20084976061E+02  0.51100000000E-03 0. -1.
         22    1    1    0    0    0  0.88861869957E+01 -0.55586142444E+02  0.27156333477E+02  0.62499999993E+02  0.00000000000E+00 0. -1.
</event>
<event>
 4    1  0.1956828E-002  0.9118800E+02  0.7818608E-02  0.1130116E+00
         25   -1    0    0    0    0  0.00000000000E+00  0.00000000000E+00  0.99999998245E-14  0.12500000000E+03  0.12500000000E+03 0.  0.
        -11    1    1    0    0    0  0.31430262265E+02 -0.44183554181E+02 -0.14009137110E+02  0.56002712157E+02  0.51100000000E-03 0.  1.
         11    1    1    0    0    0  0.36489778599E+01 -0.51237370522E+01 -0.16269710835E+01  0.64972883551E+01  0.51100000000E-03 0. -1.
         22    1    1    0    0    0 -0.35079240125E+02  0.49307291233E+02  0.15636108193E+02  0.62499999488E+02  0.00000000000E+00 0.  1.
</event>
<event>
 4    1  0.1956828E-002  0.9118800E+02  0.7818608E-02  0.1130116E+00
         25   -1    0    0    0    0  0.00000000000E+00  0.00000000000E+00  0.99999998245E-14  0.12500000000E+03  0.12500000000E+03 0.  0.
        -11    1    1    0    0    0 -0.81469396891E+01  0.49804049021E+01 -0.22712097105E+02  0.24637703108E+02  0.51100000000E-03 0. -1.
         11    1    1    0    0    0 -0.12507849655E+02  0.77394544840E+01 -0.34888530884E+02  0.37862316968E+02  0.51100000000E-03 0.  1.
         22    1    1    0    0    0  0.20654789344E+02 -0.12719859386E+02  0.57600627989E+02  0.62499979923E+02  0.00000000000E+00 0. -1.
</event>
<event>
 4    1  0.1956828E-002  0.9118800E+02  0.7818608E-02  0.1130116E+00
         25   -1    0    0    0    0  0.00000000000E+00  0.00000000000E+00  0.99999998245E-14  0.12500000000E+03  0.12500000000E+03 0.  0.
        -11    1    1    0    0    0  0.40736960697E+00 -0.78543029202E+00 -0.79687275149E+00  0.11907380835E+01  0.51100000000E-03 0.  1.
         11    1    1    0    0    0  0.20924220635E+02 -0.40464243814E+02 -0.41032275059E+02  0.61309262215E+02  0.51100000000E-03 0. -1.
         22    1    1    0    0    0 -0.21331590242E+02  0.41249674106E+02  0.41829147810E+02  0.62499999701E+02  0.00000000000E+00 0. -1.
</event>
<event>
 4    1  0.1956828E-002  0.9118800E+02  0.7818608E-02  0.1130116E+00
         25   -1    0    0    0    0  0.00000000000E+00  0.00000000000E+00  0.99999998245E-14  0.12500000000E+03  0.12500000000E+03 0.  0.
        -11    1    1    0    0    0  0.57393043188E-01  0.18333654513E+00 -0.12498588624E+00  0.22918984067E+00  0.51100000000E-03 0.  1.
         11    1    1    0    0    0 -0.23452549290E+01  0.52538190700E+02 -0.33354107421E+02  0.62275662862E+02  0.51100000000E-03 0. -1.
         22    1    1    0    0    0  0.22878618858E+01 -0.52721527246E+02  0.33479093307E+02  0.62495147298E+02  0.00000000000E+00 0. -1.
</event>
<event>
 4    1  0.1956828E-002  0.9118800E+02  0.7818608E-02  0.1130116E+00
         25   -1    0    0    0    0  0.00000000000E+00  0.00000000000E+00  0.99999998245E-14  0.12500000000E+03  0.12500000000E+03 0.  0.
        -11    1    1    0    0    0  0.12304129029E+02 -0.15395369327E+02 -0.11393809548E+02  0.22764619131E+02  0.51100000000E-03 0. -1.
         11    1    1    0    0    0  0.21458152965E+02 -0.26905077071E+02 -0.19863669211E+02  0.39735385435E+02  0.51100000000E-03 0.  1.
         22    1    1    0    0    0 -0.33762281994E+02  0.42300446398E+02  0.31257478759E+02  0.62499995435E+02  0.00000000000E+00 0.  1.
</event>
<event>
 4    1  0.1956828E-002  0.9118800E+02  0.7818608E-02  0.1130116E+00
         25   -1    0    0    0    0  0.00000000000E+00  0.00000000000E+00  0.99999998245E-14  0.12500000000E+03  0.12500000000E+03 0.  0.
        -11    1    1    0    0    0  0.74063347068E+01  0.11081016377E+01 -0.15075995351E+02  0.16833517729E+02  0.51100000000E-03 0. -1.
         11    1    1    0    0    0  0.19978160092E+02  0.34849598787E+01 -0.40916848030E+02  0.45666840037E+02  0.51100000000E-03 0.  1.
         22    1    1    0    0    0 -0.27384494799E+02 -0.45930615164E+01  0.55992843381E+02  0.62499642234E+02  0.00000000000E+00 0.  1.
</event>
<event>
 4    1  0.1956828E-002  0.9118800E+02  0.7818608E-02  0.1130116E+00
         25   -1    0    0    0    0  0.00000000000E+00  0.00000000000E+00  0.99999998245E-14  0.12500000000E+03  0.12500000000E+03 0.  0.
        -11    1    1    0    0    0  0.83064179154E+01  0.37103567393E+01  0.18050778373E+02  0.20213706386E+02  0.51100000000E-03 0.  1.
         11    1    1    0    0    0  0.17403426388E+02  0.77812494700E+01  0.37745248087E+02  0.42286296205E+02  0.51100000000E-03 0. -1.
         22    1    1    0    0    0 -0.25709844303E+02 -0.11491606209E+02 -0.55796026460E+02  0.62499997409E+02  0.00000000000E+00 0. -1.
</event>
<event>
 4    1  0.1956828E-002  0.9118800E+02  0.7818608E-02  0.1130116E+00
         25   -1    0    0    0    0  0.00000000000E+00  0.00000000000E+00  0.99999998245E-14  0.12500000000E+03  0.12500000000E+03 0.  0.
        -11    1    1    0    0    0 -0.22332489665E+02  0.17800599265E+02 -0.32071451350E+02  0.42943910171E+02  0.51100000000E-03 0. -1.
         11    1    1    0    0    0 -0.80165398618E+01  0.71398124003E+01 -0.16440001884E+02  0.19634548497E+02  0.51100000000E-03 0.  1.
         22    1    1    0    0    0  0.30349029527E+02 -0.24940411665E+02  0.48511453235E+02  0.62421541331E+02  0.00000000000E+00 0. -1.
</event>
<event>
 4    1  0.1956828E-002  0.9118800E+02  0.7818608E-02  0.1130116E+00
         25   -1    0    0    0    0  0.00000000000E+00  0.00000000000E+00  0.99999998245E-14  0.12500000000E+03  0.12500000000E+03 0.  0.
        -11    1    1    0    0    0  0.21360166675E+02  0.24907320401E+02 -0.18031156659E+02  0.37440004549E+02  0.51100000000E-03 0. -1.
         11    1    1    0    0    0  0.14297124179E+02  0.16670235310E+02 -0.12070578614E+02  0.25059995480E+02  0.51100000000E-03 0.  1.
         22    1    1    0    0    0 -0.35657290854E+02 -0.41577555711E+02  0.30101735273E+02  0.62499999971E+02  0.00000000000E+00 0. -1.
</event>
<event>
 4    1  0.1956828E-002  0.9118800E+02  0.7818608E-02  0.1130116E+00
         25   -1    0    0    0    0  0.00000000000E+00  0.00000000000E+00  0.99999998245E-14  0.12500000000E+03  0.12500000000E+03 0.  0.
        -11    1    1    0    0    0 -0.16455967466E+02  0.17223487562E+02  0.18138657926E+02  0.29940913490E+02  0.51100000000E-03 0. -1.
         11    1    1    0    0    0 -0.17895995746E+02  0.18730026195E+02  0.19723426936E+02  0.32559086525E+02  0.51100000000E-03 0.  1.
         22    1    1    0    0    0  0.34351963212E+02 -0.35953513757E+02 -0.37862084861E+02  0.62499999984E+02  0.00000000000E+00 0.  1.
</event>
<event>
 4    1  0.1956828E-002  0.9118800E+02  0.7818608E-02  0.1130116E+00
         25   -1    0    0    0    0  0.00000000000E+00  0.00000000000E+00  0.99999998245E-14  0.12500000000E+03  0.12500000000E+03 0.  0.
        -11    1    1    0    0    0  0.18407277236E+01  0.43971049445E+01  0.12897526974E+02  0.13750236825E+02  0.51100000000E-03 0. -1.
         11    1    1    0    0    0 -0.41376691342E+02  0.18682637746E+02  0.24992763560E+02  0.51823833997E+02  0.51100000000E-03 0.  1.
         22    1    1    0    0    0  0.39535963618E+02 -0.23079742690E+02 -0.37890290534E+02  0.59425929178E+02  0.00000000000E+00 0.  1.
</event>
<event>
 4    1  0.1956828E-002  0.9118800E+02  0.7818608E-02  0.1130116E+00
         25   -1    0    0    0    0  0.00000000000E+00  0.00000000000E+00  0.99999998245E-14  0.12500000000E+03  0.12500000000E+03 0.  0.
        -11    1    1    0    0    0 -0.12966067746E+01  0.46893098628E+02 -0.33987783392E+01  0.47033983273E+02  0.51100000000E-03 0.  1.
         11    1    1    0    0    0 -0.42383451400E+00  0.15419864995E+02 -0.11161560565E+01  0.15466016836E+02  0.51100000000E-03 0. -1.
         22    1    1    0    0    0  0.17204412886E+01 -0.62312963623E+02  0.45149343957E+01  0.62499999891E+02  0.00000000000E+00 0.  1.
</event>
<event>
 4    1  0.1956828E-002  0.9118800E+02  0.7818608E-02  0.1130116E+00
         25   -1    0    0    0    0  0.00000000000E+00  0.00000000000E+00  0.99999998245E-14  0.12500000000E+03  0.12500000000E+03 0.  0.
        -11    1    1    0    0    0  0.58275771883E+01  0.11230694425E+02 -0.17389318008E+02  0.21505290842E+02  0.51100000000E-03 0.  1.
         11    1    1    0    0    0  0.11107094302E+02  0.21410614718E+02 -0.33147914172E+02  0.40994709178E+02  0.51100000000E-03 0. -1.
         22    1    1    0    0    0 -0.16934671490E+02 -0.32641309143E+02  0.50537232180E+02  0.62499999980E+02  0.00000000000E+00 0. -1.
</event>
<event>
 4    1  0.1956828E-002  0.9118800E+02  0.7818608E-02  0.1130116E+00
         25   -1    0    0    0    0  0.00000000000E+00  0.00000000000E+00  0.99999998245E-14  0.12500000000E+03  0.12500000000E+03 0.  0.
        -11    1    1    0    0    0  0.45319222417E+02 -0.23289637364E+02 -0.63976932452E+01  0.51353379715E+02  0.51100000000E-03 0.  1.
         11    1    1    0    0    0  0.98387693860E+01 -0.50516526169E+01 -0.13880105431E+01  0.11146620596E+02  0.51100000000E-03 0. -1.
         22    1    1    0    0    0 -0.55157991804E+02  0.28341289981E+02  0.77857037883E+01  0.62499999688E+02  0.00000000000E+00 0.  1.
</event>
<event>
 4    1  0.1956828E-002  0.9118800E+02  0.7818608E-02  0.1130116E+00
         25   -1    0    0    0    0  0.00000000000E+00  0.00000000000E+00  0.99999998245E-14  0.12500000000E+03  0.12500000000E+03 0.  0.
        -11    1    1    0    0    0 -0.20726581495E+00  0.90991848577E+01  0.70132653761E+00  0.91285258046E+01  0.51100000000E-03 0.  1.
         11    1    1    0    0    0  0.36648721020E+02  0.36761531336E+02  0.17095007628E+02  0.54651424726E+02  0.51100000000E-03 0. -1.
         22    1    1    0    0    0 -0.36441455205E+02 -0.45860716194E+02 -0.17796334165E+02  0.61220049469E+02  0.00000000000E+00 0. -1.
</event>
<event>
 4    1  0.1956828E-002  0.9118800E+02  0.7818608E-02  0.1130116E+00
         25   -1    0    0    0    0  0.00000000000E+00  0.00000000000E+00  0.99999998245E-14  0.12500000000E+03  0.12500000000E+03 0.  0.
        -11    1    1    0    0    0 -0.14997411443E+01 -0.45691915239E+01  0.14260717888E+02  0.15049744503E+02  0.51100000000E-03 0. -1.
         11    1    1    0    0    0 -0.47237130703E+01 -0.14392607972E+02  0.44967389800E+02  0.47450255795E+02  0.51100000000E-03 0.  1.
         22    1    1    0    0    0  0.62234542146E+01  0.18961799495E+02 -0.59228107687E+02  0.62499999701E+02  0.00000000000E+00 0.  1.
</event>
<event>
 4    1  0.1956828E-002  0.9118800E+02  0.7818608E-02  0.1130116E+00
         25   -1    0    0    0    0  0.00000000000E+00  0.00000000000E+00  0.99999998245E-14  0.12500000000E+03  0.12500000000E+03 0.  0.
        -11    1    1    0    0    0 -0.32515692864E+02 -0.16343179731E+02  0.47672586260E+01  0.36702814077E+02  0.51100000000E-03 0.  1.
         11    1    1    0    0    0 -0.22648985282E+02 -0.11714686727E+02  0.39254212019E+01  0.25799599828E+02  0.51100000000E-03 0. -1.
         22    1    1    0    0    0  0.55164678146E+02  0.28057866458E+02 -0.86926798279E+01  0.62497586095E+02  0.00000000000E+00 0. -1.
</event>
<event>
 4    1  0.1956828E-002  0.9118800E+02  0.7818608E-02  0.1130116E+00
         25   -1    0    0    0    0  0.00000000000E+00  0.00000000000E+00  0.99999998245E-14  0.12500000000E+03  0.12500000000E+03 0.  0.
        -11    1    1    0    0    0  0.32690225473E+02 -0.11305364604E+02  0.41250525331E+02  0.53833706455E+02  0.51100000000E-03 0.  1.
         11    1    1    0    0    0  0.52654292041E+01 -0.18198415013E+01  0.66383794425E+01  0.86662938836E+01  0.51100000000E-03 0. -1.
         22    1    1    0    0    0 -0.37955654677E+02  0.13125206106E+02 -0.47888904773E+02  0.62499999662E+02  0.00000000000E+00 0.  1.
</event>
<event>
 4    1  0.1956828E-002  0.9118800E+02  0.7818608E-02  0.1130116E+00
         25   -1    0    0    0    0  0.00000000000E+00  0.00000000000E+00  0.99999998245E-14  0.12500000000E+03  0.12500000000E+03 0.  0.
        -11    1    1    0    0    0  0.18928866434E+01  0.99927643358E+00 -0.24072074716E+01  0.32212142598E+01  0.51100000000E-03 0.  1.
         11    1    1    0    0    0  0.34480560081E+02  0.19573285769E+02 -0.44068045343E+02  0.59279129210E+02  0.51100000000E-03 0. -1.
         22    1    1    0    0    0 -0.36373446724E+02 -0.20572562202E+02  0.46475252815E+02  0.62499656530E+02  0.00000000000E+00 0. -1.
</event>
<event>
 4    1  0.1956828E-002  0.9118800E+02  0.7818608E-02  0.1130116E+00
         25   -1    0    0    0    0  0.00000000000E+00  0.00000000000E+00  0.99999998245E-14  0.12500000000E+03  0.12500000000E+03 0.  0.
        -11    1    1    0    0    0 -0.59973245559E+00  0.15549314848E+01 -0.14796602220E+01  0.22286510661E+01  0.51100000000E-03 0.  1.
         11    1    1    0    0    0 -0.17781120981E+02  0.44796493118E+02 -0.36196400359E+02  0.60274982026E+02  0.51100000000E-03 0. -1.
         22    1    1    0    0    0  0.18380853437E+02 -0.46351424603E+02  0.37676060581E+02  0.62496366908E+02  0.00000000000E+00 0. -1.
</event>
<event>
 4    1  0.1956828E-002  0.9118800E+02  0.7818608E-02  0.1130116E+00
         25   -1    0    0    0    0  0.00000000000E+00  0.00000000000E+00  0.99999998245E-14  0.12500000000E+03  0.12500000000E+03 0.  0.
        -11    1    1    0    0    0 -0.27462678326E+02  0.34310807554E+01  0.16531388035E+02  0.32237521719E+02  0.51100000000E-03 0. -1.
         11    1    1    0    0    0 -0.25581361011E+02  0.34713577129E+01  0.15792624176E+02  0.30263234034E+02  0.51100000000E-03 0.  1.
         22    1    1    0    0    0  0.53044039337E+02 -0.69024384683E+01 -0.32324012211E+02  0.62499244247E+02  0.00000000000E+00 0. -1.
</event>
<event>
 4    1  0.1956828E-002  0.9118800E+02  0.7818608E-02  0.1130116E+00
         25   -1    0    0    0    0  0.00000000000E+00  0.00000000000E+00  0.99999998245E-14  0.12500000000E+03  0.12500000000E+03 0.  0.
        -11    1    1    0    0    0 -0.40394422304E+00  0.44659530726E+00  0.49561662510E+00  0.77990666364E+00  0.51100000000E-03 0.  1.
         11    1    1    0    0    0 -0.31539061812E+02  0.36361553616E+02  0.38632948602E+02  0.61720172709E+02  0.51100000000E-03 0. -1.
         22    1    1    0    0    0  0.31943006035E+02 -0.36808148923E+02 -0.39128565227E+02  0.62499920627E+02  0.00000000000E+00 0. -1.
</event>
<event>
 4    1  0.1956828E-002  0.9118800E+02  0.7818608E-02  0.1130116E+00
         25   -1    0    0    0    0  0.00000000000E+00  0.00000000000E+00  0.99999998245E-14  0.12500000000E+03  0.12500000000E+03 0.  0.
        -11    1    1    0    0    0 -0.58661936004E+01  0.68714274714E+01  0.26654561569E+01  0.94198407438E+01  0.51100000000E-03 0.  1.
         11    1    1    0    0    0 -0.10014254428E+02  0.46109905641E+02 -0.27866714891E+02  0.54799292779E+02  0.51100000000E-03 0. -1.
         22    1    1    0    0    0  0.15880448029E+02 -0.52981333113E+02  0.25201258734E+02  0.60780866477E+02  0.00000000000E+00 0. -1.
</event>
<event>
 4    1  0.1956828E-002  0.9118800E+02  0.7818608E-02  0.1130116E+00
         25   -1    0    0    0    0  0.00000000000E+00  0.00000000000E+00  0.99999998245E-14  0.12500000000E+03  0.12500000000E+03 0.  0.
        -11    1    1    0    0    0  0.60676912099E+01  0.37445883099E+01  0.22770412415E+02  0.23860647520E+02  0.51100000000E-03 0.  1.
         11    1    1    0    0    0  0.97880972713E+01  0.60822878610E+01  0.36880873535E+02  0.38639356967E+02  0.51100000000E-03 0. -1.
         22    1    1    0    0    0 -0.15855788481E+02 -0.98268761709E+01 -0.59651285951E+02  0.62499995514E+02  0.00000000000E+00 0. -1.
</event>
<event>
 4    1  0.1956828E-002  0.9118800E+02  0.7818608E-02  0.1130116E+00
         25   -1    0    0    0    0  0.00000000000E+00  0.00000000000E+00  0.99999998245E-14  0.12500000000E+03  0.12500000000E+03 0.  0.
        -11    1    1    0    0    0 -0.21927881999E+02  0.15327722472E+02  0.21292489843E+02  0.34192706958E+02  0.51100000000E-03 0. -1.
         11    1    1    0    0    0 -0.18140225600E+02  0.12683842280E+02  0.17645264032E+02  0.28307295576E+02  0.51100000000E-03 0.  1.
         22    1    1    0    0    0  0.40068107599E+02 -0.28011564752E+02 -0.38937753875E+02  0.62499997466E+02  0.00000000000E+00 0.  1.
</event>
<event>
 4    1  0.1956828E-002  0.9118800E+02  0.7818608E-02  0.1130116E+00
         25   -1    0    0    0    0  0.00000000000E+00  0.00000000000E+00  0.99999998245E-14  0.12500000000E+03  0.12500000000E+03 0.  0.
        -11    1    1    0    0    0 -0.26347771041E+02 -0.39088350193E+01  0.81522340573E+01  0.27855752555E+02  0.51100000000E-03 0. -1.
         11    1    1    0    0    0 -0.32769701790E+02 -0.48548492530E+01  0.10139081526E+02  0.34644247591E+02  0.51100000000E-03 0.  1.
         22    1    1    0    0    0  0.59117472831E+02  0.87636842723E+01 -0.18291315583E+02  0.62499999854E+02  0.00000000000E+00 0. -1.
</event>
<event>
 4    1  0.1956828E-002  0.9118800E+02  0.7818608E-02  0.1130116E+00
         25   -1    0    0    0    0  0.00000000000E+00  0.00000000000E+00  0.99999998245E-14  0.12500000000E+03  0.12500000000E+03 0.  0.
        -11    1    1    0    0    0 -0.19461225726E+02  0.27889717083E+02 -0.30725098059E+02  0.45832382403E+02  0.51100000000E-03 0. -1.
         11    1    1    0    0    0  0.12665151746E+02  0.27071661648E+01 -0.17427549048E+02  0.21712998031E+02  0.51100000000E-03 0.  1.
         22    1    1    0    0    0  0.67960739801E+01 -0.30596883248E+02  0.48152647108E+02  0.57454619566E+02  0.00000000000E+00 0. -1.
</event>
<event>
 4    1  0.1956828E-002  0.9118800E+02  0.7818608E-02  0.1130116E+00
         25   -1    0    0    0    0  0.00000000000E+00  0.00000000000E+00  0.99999998245E-14  0.12500000000E+03  0.12500000000E+03 0.  0.
        -11    1    1    0    0    0  0.13701408628E+02 -0.17565536127E+02  0.25731456278E+02  0.34035048117E+02  0.51100000000E-03 0.  1.
         11    1    1    0    0    0  0.11059152238E+02 -0.13580253459E+02  0.22453100135E+02  0.28475776340E+02  0.51100000000E-03 0. -1.
         22    1    1    0    0    0 -0.24760560867E+02  0.31145789586E+02 -0.48184556413E+02  0.62489175543E+02  0.00000000000E+00 0.  1.
</event>
<event>
 4    1  0.1956828E-002  0.9118800E+02  0.7818608E-02  0.1130116E+00
         25   -1    0    0    0    0  0.00000000000E+00  0.00000000000E+00  0.99999998245E-14  0.12500000000E+03  0.12500000000E+03 0.  0.
        -11    1    1    0    0    0  0.45552299168E+02  0.29148495367E+02 -0.30150485366E+02  0.61916867732E+02  0.51100000000E-03 0.  1.
         11    1    1    0    0    0  0.68402450801E+00  0.40655895501E-01  0.10586226201E+00  0.69336102359E+00  0.51100000000E-03 0. -1.
         22    1    1    0    0    0 -0.46236323676E+02 -0.29189151262E+02  0.30044623104E+02  0.62389771245E+02  0.00000000000E+00 0.  1.
</event>
<event>
 4    1  0.1956828E-002  0.9118800E+02  0.7818608E-02  0.1130116E+00
         25   -1    0    0    0    0  0.00000000000E+00  0.00000000000E+00  0.99999998245E-14  0.12500000000E+03  0.12500000000E+03 0.  0.
        -11    1    1    0    0    0  0.13990029185E+02  0.28515520667E+02  0.27201945246E+02  0.41818675982E+02  0.51100000000E-03 0.  1.
         11    1    1    0    0    0  0.77965715397E+01  0.14015619321E+02  0.13069147186E+02  0.20688806663E+02  0.51100000000E-03 0. -1.
         22    1    1    0    0    0 -0.21786600724E+02 -0.42531139988E+02 -0.40271092431E+02  0.62492517355E+02  0.00000000000E+00 0.  1.
</event>
<event>
 4    1  0.1956828E-002  0.9118800E+02  0.7818608E-02  0.1130116E+00
         25   -1    0    0    0    0  0.00000000000E+00  0.00000000000E+00  0.99999998245E-14  0.12500000000E+03  0.12500000000E+03 0.  0.
        -11    1    1    0    0    0 -0.12827979274E+02  0.15482140957E+02 -0.98248741127E+01  0.22378156592E+02  0.51100000000E-03 0. -1.
         11    1    1    0    0    0 -0.22917659878E+02  0.27872759903E+02 -0.17540153829E+02  0.40121900198E+02  0.51100000000E-03 0.  1.
         22    1    1    0    0    0  0.35745639152E+02 -0.43354900860E+02  0.27365027942E+02  0.62499943210E+02  0.00000000000E+00 0.  1.
</event>
<event>
 4    1  0.1956828E-002  0.9118800E+02  0.7818608E-02  0.1130116E+00
         25   -1    0    0    0    0  0.00000000000E+00  0.00000000000E+00  0.99999998245E-14  0.12500000000E+03  0.12500000000E+03 0.  0.
        -11    1    1    0    0    0  0.72466098777E+01 -0.92147520049E+01 -0.20525872367E+01  0.11901181616E+02  0.51100000000E-03 0.  1.
         11    1    1    0    0    0  0.30705543159E+02 -0.39266170447E+02 -0.86936635906E+01  0.50598837034E+02  0.51100000000E-03 0. -1.
         22    1    1    0    0    0 -0.37952153037E+02  0.48480922452E+02  0.10746250827E+02  0.62499981350E+02  0.00000000000E+00 0. -1.
</event>
<event>
 4    1  0.1956828E-002  0.9118800E+02  0.7818608E-02  0.1130116E+00
         25   -1    0    0    0    0  0.00000000000E+00  0.00000000000E+00  0.99999998245E-14  0.12500000000E+03  0.12500000000E+03 0.  0.
        -11    1    1    0    0    0  0.24781999585E+00  0.18817772245E+01 -0.25898106673E+01  0.32108596710E+01  0.51100000000E-03 0.  1.
         11    1    1    0    0    0  0.47018503195E+01  0.35785938545E+02 -0.47037275364E+02  0.59289510606E+02  0.51100000000E-03 0. -1.
         22    1    1    0    0    0 -0.49496703154E+01 -0.37667715770E+02  0.49627086031E+02  0.62499629723E+02  0.00000000000E+00 0. -1.
</event>
<event>
 4    1  0.1956828E-002  0.9118800E+02  0.7818608E-02  0.1130116E+00
         25   -1    0    0    0    0  0.00000000000E+00  0.00000000000E+00  0.99999998245E-14  0.12500000000E+03  0.12500000000E+03 0.  0.
        -11    1    1    0    0    0 -0.35574266378E+02  0.11553210286E+01 -0.43788378489E+02  0.56429471785E+02  0.51100000000E-03 0.  1.
         11    1    1    0    0    0 -0.38476753990E+01  0.89771966612E-01 -0.46946239996E+01  0.60705979723E+01  0.51100000000E-03 0. -1.
         22    1    1    0    0    0  0.39421941777E+02 -0.12450929952E+01  0.48483002489E+02  0.62499930243E+02  0.00000000000E+00 0.  1.
</event>
<event>
 4    1  0.1956828E-002  0.9118800E+02  0.7818608E-02  0.1130116E+00
         25   -1    0    0    0    0  0.00000000000E+00  0.00000000000E+00  0.99999998245E-14  0.12500000000E+03  0.12500000000E+03 0.  0.
        -11    1    1    0    0    0  0.50687258699E+01 -0.42537011507E+01  0.16268419765E+01  0.68141448841E+01  0.51100000000E-03 0.  1.
         11    1    1    0    0    0  0.38472705375E+02 -0.37602860546E+02  0.14414331600E+02  0.55694677805E+02  0.51100000000E-03 0. -1.
         22    1    1    0    0    0 -0.43541431245E+02  0.41856561697E+02 -0.16041173576E+02  0.62491177310E+02  0.00000000000E+00 0. -1.
</event>
<event>
 4    1  0.1956828E-002  0.9118800E+02  0.7818608E-02  0.1130116E+00
         25   -1    0    0    0    0  0.00000000000E+00  0.00000000000E+00  0.99999998245E-14  0.12500000000E+03  0.12500000000E+03 0.  0.
        -11    1    1    0    0    0 -0.26052698633E+00  0.30442810341E+00  0.85408060187E+00  0.94340061287E+00  0.51100000000E-03 0.  1.
         11    1    1    0    0    0 -0.16635740699E+02  0.19989012459E+02  0.55793436858E+02  0.61556608779E+02  0.51100000000E-03 0. -1.
         22    1    1    0    0    0  0.16896267685E+02 -0.20293440563E+02 -0.56647517460E+02  0.62499990608E+02  0.00000000000E+00 0. -1.
</event>
<event>
 4    1  0.1956828E-002  0.9118800E+02  0.7818608E-02  0.1130116E+00
         25   -1    0    0    0    0  0.00000000000E+00  0.00000000000E+00  0.99999998245E-14  0.12500000000E+03  0.12500000000E+03 0.  0.
        -11    1    1    0    0    0  0.28462912636E+02  0.51270520918E+02 -0.21345129863E+02  0.62405274457E+02  0.51100000000E-03 0.  1.
         11    1    1    0    0    0 -0.14998342597E+01 -0.17297651978E+01  0.42898378032E-02  0.22894560730E+01  0.51100000000E-03 0. -1.
         22    1    1    0    0    0 -0.26963078377E+02 -0.49540755720E+02  0.21340840026E+02  0.60305269470E+02  0.00000000000E+00 0.  1.
</event>
<event>
 4    1  0.1956828E-002  0.9118800E+02  0.7818608E-02  0.1130116E+00
         25   -1    0    0    0    0  0.00000000000E+00  0.00000000000E+00  0.99999998245E-14  0.12500000000E+03  0.12500000000E+03 0.  0.
        -11    1    1    0    0    0  0.35563123658E+00  0.31382811366E+02 -0.11898167581E+01  0.31407371539E+02  0.51100000000E-03 0.  1.
         11    1    1    0    0    0  0.35249664457E+00  0.31068277821E+02 -0.11787299076E+01  0.31092628469E+02  0.51100000000E-03 0.  1.
         22    1    1    0    0    0 -0.70812788114E+00 -0.62451089187E+02  0.23685466657E+01  0.62499999992E+02  0.00000000000E+00 0.  1.
</event>
<event>
 4    1  0.1956828E-002  0.9118800E+02  0.7818608E-02  0.1130116E+00
         25   -1    0    0    0    0  0.00000000000E+00  0.00000000000E+00  0.99999998245E-14  0.12500000000E+03  0.12500000000E+03 0.  0.
        -11    1    1    0    0    0  0.27912457831E+02 -0.10754671044E+02  0.53871066686E+01  0.30393900210E+02  0.51100000000E-03 0.  1.
         11    1    1    0    0    0  0.29484423012E+02 -0.11362456640E+02  0.56890266359E+01  0.32106099818E+02  0.51100000000E-03 0. -1.
         22    1    1    0    0    0 -0.57396880843E+02  0.22117127683E+02 -0.11076133305E+02  0.62499999972E+02  0.00000000000E+00 0. -1.
</event>
<event>
 4    1  0.1956828E-002  0.9118800E+02  0.7818608E-02  0.1130116E+00
         25   -1    0    0    0    0  0.00000000000E+00  0.00000000000E+00  0.99999998245E-14  0.12500000000E+03  0.12500000000E+03 0.  0.
        -11    1    1    0    0    0  0.14411195735E+02 -0.10080818672E+02  0.54972500960E+02  0.57717253310E+02  0.51100000000E-03 0. -1.
         11    1    1    0    0    0  0.11945873882E+01 -0.84072634246E+00  0.45542090365E+01  0.47827481661E+01  0.51100000000E-03 0.  1.
         22    1    1    0    0    0 -0.15605783123E+02  0.10921545015E+02 -0.59526709997E+02  0.62499998523E+02  0.00000000000E+00 0. -1.
</event>
<event>
 4    1  0.1956828E-002  0.9118800E+02  0.7818608E-02  0.1130116E+00
         25   -1    0    0    0    0  0.00000000000E+00  0.00000000000E+00  0.99999998245E-14  0.12500000000E+03  0.12500000000E+03 0.  0.
        -11    1    1    0    0    0  0.60585886577E+01 -0.44456327958E+01 -0.60213866343E+01  0.96294986754E+01  0.51100000000E-03 0.  1.
         11    1    1    0    0    0  0.33109639811E+02 -0.24731684167E+02 -0.32975686492E+02  0.52870600053E+02  0.51100000000E-03 0. -1.
         22    1    1    0    0    0 -0.39168228468E+02  0.29177316963E+02  0.38997073126E+02  0.62499901271E+02  0.00000000000E+00 0. -1.
</event>
<event>
 4    1  0.1956828E-002  0.9118800E+02  0.7818608E-02  0.1130116E+00
         25   -1    0    0    0    0  0.00000000000E+00  0.00000000000E+00  0.99999998245E-14  0.12500000000E+03  0.12500000000E+03 0.  0.
        -11    1    1    0    0    0  0.41807522851E+02  0.14014141953E+02  0.22107419201E+02  0.49325481504E+02  0.51100000000E-03 0.  1.
         11    1    1    0    0    0  0.11167062096E+02  0.37427624238E+01  0.59039301750E+01  0.13174518518E+02  0.51100000000E-03 0. -1.
         22    1    1    0    0    0 -0.52974584947E+02 -0.17756904377E+02 -0.28011349376E+02  0.62499999978E+02  0.00000000000E+00 0.  1.
</event>
<event>
 4    1  0.1956828E-002  0.9118800E+02  0.7818608E-02  0.1130116E+00
         25   -1    0    0    0    0  0.00000000000E+00  0.00000000000E+00  0.99999998245E-14  0.12500000000E+03  0.12500000000E+03 0.  0.
        -11    1    1    0    0    0  0.95611104713E+01  0.63826748816E+00 -0.47681512066E+01  0.10703153041E+02  0.51100000000E-03 0. -1.
         11    1    1    0    0    0 -0.13129675526E+02 -0.48891491967E+02 -0.26047737340E+02  0.56931985623E+02  0.51100000000E-03 0.  1.
         22    1    1    0    0    0  0.35685650550E+01  0.48253224479E+02  0.30815888547E+02  0.57364861336E+02  0.00000000000E+00 0.  1.
</event>
<event>
 4    1  0.1956828E-002  0.9118800E+02  0.7818608E-02  0.1130116E+00
         25   -1    0    0    0    0  0.00000000000E+00  0.00000000000E+00  0.99999998245E-14  0.12500000000E+03  0.12500000000E+03 0.  0.
        -11    1    1    0    0    0 -0.37683672647E+02 -0.41947090232E+02  0.22326136423E+02  0.60647126321E+02  0.51100000000E-03 0.  1.
         11    1    1    0    0    0 -0.14280847588E+01 -0.12560026663E+01  0.11227111519E+00  0.19051440472E+01  0.51100000000E-03 0. -1.
         22    1    1    0    0    0  0.39111757406E+02  0.43203092898E+02 -0.22438407538E+02  0.62447729632E+02  0.00000000000E+00 0.  1.
</event>
<event>
 4    1  0.1956828E-002  0.9118800E+02  0.7818608E-02  0.1130116E+00
         25   -1    0    0    0    0  0.00000000000E+00  0.00000000000E+00  0.99999998245E-14  0.12500000000E+03  0.12500000000E+03 0.  0.
        -11    1    1    0    0    0 -0.12458808801E+02 -0.15815171468E+02  0.10667497924E+02  0.22784579819E+02  0.51100000000E-03 0. -1.
         11    1    1    0    0    0 -0.21861249180E+02 -0.27461860683E+02  0.18580970170E+02  0.39715493961E+02  0.51100000000E-03 0.  1.
         22    1    1    0    0    0  0.34320057981E+02  0.43277032151E+02 -0.29248468094E+02  0.62499926220E+02  0.00000000000E+00 0.  1.
</event>
<event>
 4    1  0.1956828E-002  0.9118800E+02  0.7818608E-02  0.1130116E+00
         25   -1    0    0    0    0  0.00000000000E+00  0.00000000000E+00  0.99999998245E-14  0.12500000000E+03  0.12500000000E+03 0.  0.
        -11    1    1    0    0    0  0.55301076480E+02 -0.99764465623E+01  0.16524586841E+02  0.58573035745E+02  0.51100000000E-03 0.  1.
         11    1    1    0    0    0  0.36953595663E+01 -0.72959241256E+00  0.11112446328E+01  0.39271939483E+01  0.51100000000E-03 0. -1.
         22    1    1    0    0    0 -0.58996436046E+02  0.10706038975E+02 -0.17635831474E+02  0.62499770307E+02  0.00000000000E+00 0.  1.
</event>
<event>
 4    1  0.1956828E-002  0.9118800E+02  0.7818608E-02  0.1130116E+00
         25   -1    0    0    0    0  0.00000000000E+00  0.00000000000E+00  0.99999998245E-14  0.12500000000E+03  0.12500000000E+03 0.  0.
        -11    1    1    0    0    0 -0.18423745393E+02 -0.11851682280E+02 -0.25202224381E+01  0.22051038265E+02  0.51100000000E-03 0.  1.
         11    1    1    0    0    0 -0.31255729476E+02 -0.23846985466E+02 -0.98636126103E+01  0.40532581893E+02  0.51100000000E-03 0. -1.
         22    1    1    0    0    0  0.49679474869E+02  0.35698667746E+02  0.12383835048E+02  0.62416379842E+02  0.00000000000E+00 0. -1.
</event>
<event>
 4    1  0.1956828E-002  0.9118800E+02  0.7818608E-02  0.1130116E+00
         25   -1    0    0    0    0  0.00000000000E+00  0.00000000000E+00  0.99999998245E-14  0.12500000000E+03  0.12500000000E+03 0.  0.
        -11    1    1    0    0    0 -0.33554004380E+01  0.27052278122E+01 -0.38715924433E+01  0.57936342587E+01  0.51100000000E-03 0.  1.
         11    1    1    0    0    0 -0.36537227573E+02  0.31654965615E+02 -0.29725007963E+02  0.56750171326E+02  0.51100000000E-03 0. -1.
         22    1    1    0    0    0  0.39892628011E+02 -0.34360193427E+02  0.33596600407E+02  0.62456194416E+02  0.00000000000E+00 0. -1.
</event>
<event>
 4    1  0.1956828E-002  0.9118800E+02  0.7818608E-02  0.1130116E+00
         25   -1    0    0    0    0  0.00000000000E+00  0.00000000000E+00  0.99999998245E-14  0.12500000000E+03  0.12500000000E+03 0.  0.
        -11    1    1    0    0    0 -0.14149366440E+01  0.13963319056E+02 -0.26311747001E+01  0.14279334905E+02  0.51100000000E-03 0. -1.
         11    1    1    0    0    0 -0.23754137785E+02  0.42461928061E+02 -0.25363765825E+01  0.48720710206E+02  0.51100000000E-03 0.  1.
         22    1    1    0    0    0  0.25169074429E+02 -0.56425247117E+02  0.51675512826E+01  0.61999954888E+02  0.00000000000E+00 0.  1.
</event>
<event>
 4    1  0.1956828E-002  0.9118800E+02  0.7818608E-02  0.1130116E+00
         25   -1    0    0    0    0  0.00000000000E+00  0.00000000000E+00  0.99999998245E-14  0.12500000000E+03  0.12500000000E+03 0.  0.
        -11    1    1    0    0    0  0.44986134356E+02 -0.38584019188E+02  0.14377124229E+02  0.60985084425E+02  0.51100000000E-03 0. -1.
         11    1    1    0    0    0 -0.40754802431E+00  0.46538753840E+00  0.28238613553E+01  0.28908258626E+01  0.51100000000E-03 0.  1.
         22    1    1    0    0    0 -0.44578586332E+02  0.38118631649E+02 -0.17200985584E+02  0.61124089713E+02  0.00000000000E+00 0. -1.
</event>
<event>
 4    1  0.1956828E-002  0.9118800E+02  0.7818608E-02  0.1130116E+00
         25   -1    0    0    0    0  0.00000000000E+00  0.00000000000E+00  0.99999998245E-14  0.12500000000E+03  0.12500000000E+03 0.  0.
        -11    1    1    0    0    0  0.10571607420E+00 -0.10977870136E-01 -0.29460988339E-02  0.10632658462E+00  0.51100000000E-03 0. -1.
         11    1    1    0    0    0  0.60768407213E+02 -0.98338399449E+01 -0.10175395543E+02  0.62394249719E+02  0.51100000000E-03 0.  1.
         22    1    1    0    0    0 -0.60874123287E+02  0.98448178151E+01  0.10178341642E+02  0.62499423696E+02  0.00000000000E+00 0.  1.
</event>
<event>
 4    1  0.1956828E-002  0.9118800E+02  0.7818608E-02  0.1130116E+00
         25   -1    0    0    0    0  0.00000000000E+00  0.00000000000E+00  0.99999998245E-14  0.12500000000E+03  0.12500000000E+03 0.  0.
        -11    1    1    0    0    0 -0.93946882978E+01  0.22616381122E+02 -0.44608627785E+02  0.50889002116E+02  0.51100000000E-03 0.  1.
         11    1    1    0    0    0 -0.18879010160E+02 -0.16357492164E+02  0.57222639142E+01  0.25626721973E+02  0.51100000000E-03 0. -1.
         22    1    1    0    0    0  0.28273698458E+02 -0.62588889585E+01  0.38886363871E+02  0.48484275911E+02  0.00000000000E+00 0.  1.
</event>
<event>
 4    1  0.1956828E-002  0.9118800E+02  0.7818608E-02  0.1130116E+00
         25   -1    0    0    0    0  0.00000000000E+00  0.00000000000E+00  0.99999998245E-14  0.12500000000E+03  0.12500000000E+03 0.  0.
        -11    1    1    0    0    0 -0.92946647537E+01  0.94798211735E+01  0.11982372442E+02  0.17883932788E+02  0.51100000000E-03 0. -1.
         11    1    1    0    0    0 -0.23101106406E+02  0.23521309232E+02  0.30061401217E+02  0.44616151207E+02  0.51100000000E-03 0.  1.
         22    1    1    0    0    0  0.32395771159E+02 -0.33001130405E+02 -0.42043773660E+02  0.62499916005E+02  0.00000000000E+00 0. -1.
</event>
<event>
 4    1  0.1956828E-002  0.9118800E+02  0.7818608E-02  0.1130116E+00
         25   -1    0    0    0    0  0.00000000000E+00  0.00000000000E+00  0.99999998245E-14  0.12500000000E+03  0.12500000000E+03 0.  0.
        -11    1    1    0    0    0 -0.36393404531E+02 -0.14862181691E+02  0.13612932426E+02  0.41601397422E+02  0.51100000000E-03 0.  1.
         11    1    1    0    0    0 -0.17994781363E+02 -0.76861300941E+01  0.73479841850E+01  0.20901713422E+02  0.51100000000E-03 0. -1.
         22    1    1    0    0    0  0.54388185893E+02  0.22548311785E+02 -0.20960916611E+02  0.62496889157E+02  0.00000000000E+00 0.  1.
</event>
<event>
 4    1  0.1956828E-002  0.9118800E+02  0.7818608E-02  0.1130116E+00
         25   -1    0    0    0    0  0.00000000000E+00  0.00000000000E+00  0.99999998245E-14  0.12500000000E+03  0.12500000000E+03 0.  0.
        -11    1    1    0    0    0  0.32876978324E+02  0.13997232509E+02 -0.13797060165E+02  0.38303747742E+02  0.51100000000E-03 0.  1.
         11    1    1    0    0    0  0.21920188415E+02  0.10242830046E+02 -0.32173056409E+01  0.24408221634E+02  0.51100000000E-03 0. -1.
         22    1    1    0    0    0 -0.54797166739E+02 -0.24240062555E+02  0.17014365806E+02  0.62288030624E+02  0.00000000000E+00 0.  1.
</event>
<event>
 4    1  0.1956828E-002  0.9118800E+02  0.7818608E-02  0.1130116E+00
         25   -1    0    0    0    0  0.00000000000E+00  0.00000000000E+00  0.99999998245E-14  0.12500000000E+03  0.12500000000E+03 0.  0.
        -11    1    1    0    0    0 -0.48317610656E-01  0.26629911036E+00  0.76200820384E+00  0.80864489828E+00  0.51100000000E-03 0.  1.
         11    1    1    0    0    0 -0.37497904087E+01  0.20150543803E+02  0.58186924494E+02  0.61691356980E+02  0.51100000000E-03 0. -1.
         22    1    1    0    0    0  0.37981080193E+01 -0.20416842913E+02 -0.58948932698E+02  0.62499998122E+02  0.00000000000E+00 0. -1.
</event>
<event>
 4    1  0.1956828E-002  0.9118800E+02  0.7818608E-02  0.1130116E+00
         25   -1    0    0    0    0  0.00000000000E+00  0.00000000000E+00  0.99999998245E-14  0.12500000000E+03  0.12500000000E+03 0.  0.
        -11    1    1    0    0    0  0.37291087518E+02 -0.34582325586E+02  0.14315457061E+02  0.52834598156E+02  0.51100000000E-03 0.  1.
         11    1    1    0    0    0  0.68197990435E+01 -0.63280121447E+01  0.26204198302E+01  0.96654020632E+01  0.51100000000E-03 0. -1.
         22    1    1    0    0    0 -0.44110886562E+02  0.40910337730E+02 -0.16935876891E+02  0.62499999780E+02  0.00000000000E+00 0. -1.
</event>
<event>
 4    1  0.1956828E-002  0.9118800E+02  0.7818608E-02  0.1130116E+00
         25   -1    0    0    0    0  0.00000000000E+00  0.00000000000E+00  0.99999998245E-14  0.12500000000E+03  0.12500000000E+03 0.  0.
        -11    1    1    0    0    0  0.34120714376E+02 -0.10115392821E+02  0.38239432150E+01  0.35793391337E+02  0.51100000000E-03 0.  1.
         11    1    1    0    0    0  0.25458631571E+02 -0.75466008974E+01  0.28547925644E+01  0.26706608685E+02  0.51100000000E-03 0. -1.
         22    1    1    0    0    0 -0.59579345947E+02  0.17661993718E+02 -0.66787357794E+01  0.62499999978E+02  0.00000000000E+00 0.  1.
</event>
<event>
 4    1  0.1956828E-002  0.9118800E+02  0.7818608E-02  0.1130116E+00
         25   -1    0    0    0    0  0.00000000000E+00  0.00000000000E+00  0.99999998245E-14  0.12500000000E+03  0.12500000000E+03 0.  0.
        -11    1    1    0    0    0  0.76122658553E+01  0.35941357510E+01 -0.55589710892E+01  0.10087941469E+02  0.51100000000E-03 0. -1.
         11    1    1    0    0    0  0.39507696899E+02  0.18704982705E+02 -0.28918674252E+02  0.52412061713E+02  0.51100000000E-03 0.  1.
         22    1    1    0    0    0 -0.47119962755E+02 -0.22299118456E+02  0.34477645341E+02  0.62499996818E+02  0.00000000000E+00 0.  1.
</event>
<event>
 4    1  0.1956828E-002  0.9118800E+02  0.7818608E-02  0.1130116E+00
         25   -1    0    0    0    0  0.00000000000E+00  0.00000000000E+00  0.99999998245E-14  0.12500000000E+03  0.12500000000E+03 0.  0.
        -11    1    1    0    0    0  0.98566001407E+01  0.18815056985E+02  0.41458386170E+02  0.46582794246E+02  0.51100000000E-03 0.  1.
         11    1    1    0    0    0  0.10291709878E+02 -0.40450146326E+01  0.13853227502E+02  0.17725499939E+02  0.51100000000E-03 0. -1.
         22    1    1    0    0    0 -0.20148310019E+02 -0.14770042353E+02 -0.55311613672E+02  0.60691705815E+02  0.00000000000E+00 0.  1.
</event>
<event>
 4    1  0.1956828E-002  0.9118800E+02  0.7818608E-02  0.1130116E+00
         25   -1    0    0    0    0  0.00000000000E+00  0.00000000000E+00  0.99999998245E-14  0.12500000000E+03  0.12500000000E+03 0.  0.
        -11    1    1    0    0    0  0.12179576516E+01 -0.34050163943E+02 -0.78738369365E+01  0.34969906974E+02  0.51100000000E-03 0. -1.
         11    1    1    0    0    0  0.12044397782E+01 -0.26832835592E+02 -0.60397371840E+01  0.27530531535E+02  0.51100000000E-03 0.  1.
         22    1    1    0    0    0 -0.24223974298E+01  0.60882999535E+02  0.13913574120E+02  0.62499561491E+02  0.00000000000E+00 0.  1.
</event>
<event>
 4    1  0.1956828E-002  0.9118800E+02  0.7818608E-02  0.1130116E+00
         25   -1    0    0    0    0  0.00000000000E+00  0.00000000000E+00  0.99999998245E-14  0.12500000000E+03  0.12500000000E+03 0.  0.
        -11    1    1    0    0    0  0.49070101285E+01  0.31792188428E+00 -0.18781002279E+01  0.52637518419E+01  0.51100000000E-03 0.  1.
         11    1    1    0    0    0  0.52498812550E+02  0.45366160201E+01 -0.22349911836E+02  0.57238315519E+02  0.51100000000E-03 0. -1.
         22    1    1    0    0    0 -0.57405822678E+02 -0.48545379043E+01  0.24228012064E+02  0.62497932640E+02  0.00000000000E+00 0. -1.
</event>
<event>
 4    1  0.1956828E-002  0.9118800E+02  0.7818608E-02  0.1130116E+00
         25   -1    0    0    0    0  0.00000000000E+00  0.00000000000E+00  0.99999998245E-14  0.12500000000E+03  0.12500000000E+03 0.  0.
        -11    1    1    0    0    0 -0.50610179811E+02  0.10696374941E+02 -0.20221397699E+01  0.51767671252E+02  0.51100000000E-03 0.  1.
         11    1    1    0    0    0 -0.10599137006E+02  0.16101939428E+01 -0.65497847069E+00  0.10740736794E+02  0.51100000000E-03 0. -1.
         22    1    1    0    0    0  0.61209316817E+02 -0.12306568884E+02  0.26771182406E+01  0.62491591954E+02  0.00000000000E+00 0.  1.
</event>
<event>
 4    1  0.1956828E-002  0.9118800E+02  0.7818608E-02  0.1130116E+00
         25   -1    0    0    0    0  0.00000000000E+00  0.00000000000E+00  0.99999998245E-14  0.12500000000E+03  0.12500000000E+03 0.  0.
        -11    1    1    0    0    0  0.54664117598E+01 -0.30762350752E+01 -0.61482071312E+01  0.87832414833E+01  0.51100000000E-03 0.  1.
         11    1    1    0    0    0  0.33434556364E+02 -0.18645349396E+02 -0.37682542223E+02  0.53716781382E+02  0.51100000000E-03 0. -1.
         22    1    1    0    0    0 -0.38900968124E+02  0.21721584471E+02  0.43830749354E+02  0.62499977135E+02  0.00000000000E+00 0. -1.
</event>
<event>
 4    1  0.1956828E-002  0.9118800E+02  0.7818608E-02  0.1130116E+00
         25   -1    0    0    0    0  0.00000000000E+00  0.00000000000E+00  0.99999998245E-14  0.12500000000E+03  0.12500000000E+03 0.  0.
        -11    1    1    0    0    0 -0.17319911601E+00  0.15955728645E+01 -0.78607867025E+00  0.17871123738E+01  0.51100000000E-03 0.  1.
         11    1    1    0    0    0 -0.84460561014E+01  0.49892806772E+02 -0.33562760594E+02  0.60721387749E+02  0.51100000000E-03 0. -1.
         22    1    1    0    0    0  0.86192552174E+01 -0.51488379636E+02  0.34348839264E+02  0.62491499877E+02  0.00000000000E+00 0. -1.
</event>
<event>
 4    1  0.1956828E-002  0.9118800E+02  0.7818608E-02  0.1130116E+00
         25   -1    0    0    0    0  0.00000000000E+00  0.00000000000E+00  0.99999998245E-14  0.12500000000E+03  0.12500000000E+03 0.  0.
        -11    1    1    0    0    0 -0.34252951257E+00 -0.19617432058E+01 -0.10723386978E+01  0.22617854488E+01  0.51100000000E-03 0.  1.
         11    1    1    0    0    0 -0.91915172313E+01 -0.52393435607E+02 -0.28268152085E+02  0.60238231268E+02  0.51100000000E-03 0. -1.
         22    1    1    0    0    0  0.95340467439E+01  0.54355178812E+02  0.29340490783E+02  0.62499983284E+02  0.00000000000E+00 0. -1.
</event>
<event>
 4    1  0.1956828E-002  0.9118800E+02  0.7818608E-02  0.1130116E+00
         25   -1    0    0    0    0  0.00000000000E+00  0.00000000000E+00  0.99999998245E-14  0.12500000000E+03  0.12500000000E+03 0.  0.
        -11    1    1    0    0    0 -0.16335454506E+02  0.17845096173E+02 -0.10780819420E+02  0.26486234141E+02  0.51100000000E-03 0.  1.
         11    1    1    0    0    0 -0.22157268472E+02  0.24321755155E+02 -0.14645831241E+02  0.36013784763E+02  0.51100000000E-03 0. -1.
         22    1    1    0    0    0  0.38492722978E+02 -0.42166851328E+02  0.25426650661E+02  0.62499981096E+02  0.00000000000E+00 0.  1.
</event>
<event>
 4    1  0.1956828E-002  0.9118800E+02  0.7818608E-02  0.1130116E+00
         25   -1    0    0    0    0  0.00000000000E+00  0.00000000000E+00  0.99999998245E-14  0.12500000000E+03  0.12500000000E+03 0.  0.
        -11    1    1    0    0    0 -0.19923895923E+02 -0.46475223618E+02  0.10186293333E+02  0.51581669334E+02  0.51100000000E-03 0.  1.
         11    1    1    0    0    0 -0.12941798269E+01 -0.10638619541E+02  0.28968655698E+01  0.11101664630E+02  0.51100000000E-03 0. -1.
         22    1    1    0    0    0  0.21218075750E+02  0.57113843160E+02 -0.13083158903E+02  0.62316666036E+02  0.00000000000E+00 0.  1.
</event>
<event>
 4    1  0.1956828E-002  0.9118800E+02  0.7818608E-02  0.1130116E+00
         25   -1    0    0    0    0  0.00000000000E+00  0.00000000000E+00  0.99999998245E-14  0.12500000000E+03  0.12500000000E+03 0.  0.
        -11    1    1    0    0    0  0.15954728773E+02 -0.53563966025E+01  0.38021839759E+01  0.17254012810E+02  0.51100000000E-03 0. -1.
         11    1    1    0    0    0  0.41831577402E+02 -0.14054973831E+02  0.99888068745E+01  0.45245987893E+02  0.51100000000E-03 0.  1.
         22    1    1    0    0    0 -0.57786306176E+02  0.19411370433E+02 -0.13790990850E+02  0.62499999297E+02  0.00000000000E+00 0.  1.
</event>
<event>
 4    1  0.1956828E-002  0.9118800E+02  0.7818608E-02  0.1130116E+00
         25   -1    0    0    0    0  0.00000000000E+00  0.00000000000E+00  0.99999998245E-14  0.12500000000E+03  0.12500000000E+03 0.  0.
        -11    1    1    0    0    0 -0.37971662195E+02 -0.15300988418E+01 -0.21421313410E+02  0.43624087392E+02  0.51100000000E-03 0.  1.
         11    1    1    0    0    0 -0.13803023943E+02  0.19136203807E+02  0.93053712565E+01  0.25363511204E+02  0.51100000000E-03 0. -1.
         22    1    1    0    0    0  0.51774686138E+02 -0.17606104965E+02  0.12115942153E+02  0.56012401404E+02  0.00000000000E+00 0.  1.
</event>
<event>
 4    1  0.1956828E-002  0.9118800E+02  0.7818608E-02  0.1130116E+00
         25   -1    0    0    0    0  0.00000000000E+00  0.00000000000E+00  0.99999998245E-14  0.12500000000E+03  0.12500000000E+03 0.  0.
        -11    1    1    0    0    0 -0.23612047711E+02 -0.21451290072E+02  0.40260813080E+02  0.51367496659E+02  0.51100000000E-03 0. -1.
         11    1    1    0    0    0 -0.51225266284E+01 -0.46470136326E+01  0.87233955801E+01  0.11132504007E+02  0.51100000000E-03 0.  1.
         22    1    1    0    0    0  0.28734574339E+02  0.26098303704E+02 -0.48984208660E+02  0.62499999334E+02  0.00000000000E+00 0. -1.
</event>
<event>
 4    1  0.1956828E-002  0.9118800E+02  0.7818608E-02  0.1130116E+00
         25   -1    0    0    0    0  0.00000000000E+00  0.00000000000E+00  0.99999998245E-14  0.12500000000E+03  0.12500000000E+03 0.  0.
        -11    1    1    0    0    0  0.35643463989E+02 -0.47989300618E+02 -0.22487568123E+01  0.59820451406E+02  0.51100000000E-03 0. -1.
         11    1    1    0    0    0  0.98015674378E+00 -0.24581065651E+01 -0.80238468598E+00  0.27652877921E+01  0.51100000000E-03 0.  1.
         22    1    1    0    0    0 -0.36623620732E+02  0.50447407183E+02  0.30511414983E+01  0.62414260802E+02  0.00000000000E+00 0. -1.
</event>
<event>
 4    1  0.1956828E-002  0.9118800E+02  0.7818608E-02  0.1130116E+00
         25   -1    0    0    0    0  0.00000000000E+00  0.00000000000E+00  0.99999998245E-14  0.12500000000E+03  0.12500000000E+03 0.  0.
        -11    1    1    0    0    0 -0.37590013456E+00 -0.46120214029E+00 -0.34548493472E+01  0.35057085729E+01  0.51100000000E-03 0. -1.
         11    1    1    0    0    0 -0.63272356169E+01 -0.77315191488E+01 -0.58142206264E+02  0.58994291659E+02  0.51100000000E-03 0.  1.
         22    1    1    0    0    0  0.67031357515E+01  0.81927212891E+01  0.61597055611E+02  0.62499999768E+02  0.00000000000E+00 0.  1.
</event>
<event>
 4    1  0.1956828E-002  0.9118800E+02  0.7818608E-02  0.1130116E+00
         25   -1    0    0    0    0  0.00000000000E+00  0.00000000000E+00  0.99999998245E-14  0.12500000000E+03  0.12500000000E+03 0.  0.
        -11    1    1    0    0    0 -0.25949791507E+01 -0.84717731404E+01  0.85139658451E+01  0.12287899398E+02  0.51100000000E-03 0.  1.
         11    1    1    0    0    0 -0.89924162425E+01 -0.34696733324E+02  0.35168140233E+02  0.50214788070E+02  0.51100000000E-03 0. -1.
         22    1    1    0    0    0  0.11587395393E+02  0.43168506464E+02 -0.43682106078E+02  0.62497312532E+02  0.00000000000E+00 0. -1.
</event>
<event>
 4    1  0.1956828E-002  0.9118800E+02  0.7818608E-02  0.1130116E+00
         25   -1    0    0    0    0  0.00000000000E+00  0.00000000000E+00  0.99999998245E-14  0.12500000000E+03  0.12500000000E+03 0.  0.
        -11    1    1    0    0    0 -0.50185246472E+02 -0.19118004983E+02 -0.11374899169E+02  0.54894857768E+02  0.51100000000E-03 0.  1.
         11    1    1    0    0    0 -0.69308325373E+01 -0.27805463961E+01 -0.14442219658E+01  0.76061590352E+01  0.51100000000E-03 0. -1.
         22    1    1    0    0    0  0.57116079010E+02  0.21898551379E+02  0.12819121135E+02  0.62498983197E+02  0.00000000000E+00 0.  1.
</event>
<event>
 4    1  0.1956828E-002  0.9118800E+02  0.7818608E-02  0.1130116E+00
         25   -1    0    0    0    0  0.00000000000E+00  0.00000000000E+00  0.99999998245E-14  0.12500000000E+03  0.12500000000E+03 0.  0.
        -11    1    1    0    0    0  0.20746729665E+02 -0.21564248474E+02  0.20969801966E+02  0.36540062928E+02  0.51100000000E-03 0.  1.
         11    1    1    0    0    0  0.15259680029E+02 -0.15301739040E+02  0.14389993739E+02  0.25962915328E+02  0.51100000000E-03 0. -1.
         22    1    1    0    0    0 -0.36006409694E+02  0.36865987514E+02 -0.35359795706E+02  0.62497021744E+02  0.00000000000E+00 0.  1.
</event>
<event>
 4    1  0.1956828E-002  0.9118800E+02  0.7818608E-02  0.1130116E+00
         25   -1    0    0    0    0  0.00000000000E+00  0.00000000000E+00  0.99999998245E-14  0.12500000000E+03  0.12500000000E+03 0.  0.
        -11    1    1    0    0    0 -0.31632722131E+02  0.25566095677E+01 -0.73539981441E+01  0.32576780855E+02  0.51100000000E-03 0.  1.
         11    1    1    0    0    0 -0.29055392581E+02  0.23430717329E+01 -0.67596770636E+01  0.29923219370E+02  0.51100000000E-03 0. -1.
         22    1    1    0    0    0  0.60688114712E+02 -0.48996813006E+01  0.14113675208E+02  0.62499999776E+02  0.00000000000E+00 0. -1.
</event>
<event>
 4    1  0.1956828E-002  0.9118800E+02  0.7818608E-02  0.1130116E+00
         25   -1    0    0    0    0  0.00000000000E+00  0.00000000000E+00  0.99999998245E-14  0.12500000000E+03  0.12500000000E+03 0.  0.
        -11    1    1    0    0    0  0.21136039375E+01 -0.92706752074E-01  0.11526743630E+02  0.11719289019E+02  0.51100000000E-03 0. -1.
         11    1    1    0    0    0  0.90043097170E+01 -0.59184171265E+00  0.49972576666E+02  0.50780766921E+02  0.51100000000E-03 0.  1.
         22    1    1    0    0    0 -0.11117913655E+02  0.68454846472E+00 -0.61499320296E+02  0.62499944060E+02  0.00000000000E+00 0.  1.
</event>
<event>
 4    1  0.1956828E-002  0.9118800E+02  0.7818608E-02  0.1130116E+00
         25   -1    0    0    0    0  0.00000000000E+00  0.00000000000E+00  0.99999998245E-14  0.12500000000E+03  0.12500000000E+03 0.  0.
        -11    1    1    0    0    0 -0.46037309846E+01 -0.54837006421E+02 -0.13318913213E+02  0.56618769517E+02  0.51100000000E-03 0.  1.
         11    1    1    0    0    0  0.97083718703E+01  0.13786573984E+02  0.20342797124E+02  0.26422556684E+02  0.51100000000E-03 0. -1.
         22    1    1    0    0    0 -0.51046408857E+01  0.41050432437E+02 -0.70238839108E+01  0.41958673799E+02  0.00000000000E+00 0.  1.
</event>
<event>
 4    1  0.1956828E-002  0.9118800E+02  0.7818608E-02  0.1130116E+00
         25   -1    0    0    0    0  0.00000000000E+00  0.00000000000E+00  0.99999998245E-14  0.12500000000E+03  0.12500000000E+03 0.  0.
        -11    1    1    0    0    0 -0.67129637498E+01  0.11260103566E+02  0.24113045588E+02  0.27446179742E+02  0.51100000000E-03 0.  1.
         11    1    1    0    0    0 -0.16772794145E+02  0.16756143202E+02  0.26217293197E+02  0.35347438680E+02  0.51100000000E-03 0. -1.
         22    1    1    0    0    0  0.23485757895E+02 -0.28016246769E+02 -0.50330338784E+02  0.62206381578E+02  0.00000000000E+00 0.  1.
</event>
<event>
 4    1  0.1956828E-002  0.9118800E+02  0.7818608E-02  0.1130116E+00
         25   -1    0    0    0    0  0.00000000000E+00  0.00000000000E+00  0.99999998245E-14  0.12500000000E+03  0.12500000000E+03 0.  0.
        -11    1    1    0    0    0 -0.36931212343E+01  0.62142048964E+00  0.38008038254E+01  0.53358614915E+01  0.51100000000E-03 0. -1.
         11    1    1    0    0    0 -0.39565143326E+02  0.66577975303E+01  0.40718692247E+02  0.57164138522E+02  0.51100000000E-03 0. -1.
         22    1    1    0    0    0  0.43258264560E+02 -0.72792180200E+01 -0.44519496073E+02  0.62499999987E+02  0.00000000000E+00 0. -1.
</event>
<event>
 4    1  0.1956828E-002  0.9118800E+02  0.7818608E-02  0.1130116E+00
         25   -1    0    0    0    0  0.00000000000E+00  0.00000000000E+00  0.99999998245E-14  0.12500000000E+03  0.12500000000E+03 0.  0.
        -11    1    1    0    0    0 -0.41069805271E+01  0.17874242784E+02 -0.40511449255E+02  0.44469465537E+02  0.51100000000E-03 0. -1.
         11    1    1    0    0    0 -0.16776743947E+01  0.72709511766E+01 -0.16413992637E+02  0.18030542891E+02  0.51100000000E-03 0.  1.
         22    1    1    0    0    0  0.57846549218E+01 -0.25145193960E+02  0.56925441892E+02  0.62499991572E+02  0.00000000000E+00 0. -1.
</event>
<event>
 4    1  0.1956828E-002  0.9118800E+02  0.7818608E-02  0.1130116E+00
         25   -1    0    0    0    0  0.00000000000E+00  0.00000000000E+00  0.99999998245E-14  0.12500000000E+03  0.12500000000E+03 0.  0.
        -11    1    1    0    0    0 -0.68014854405E+01 -0.34502318159E+01  0.86495774114E+01  0.11531673488E+02  0.51100000000E-03 0.  1.
         11    1    1    0    0    0 -0.30032321613E+02 -0.15290471420E+02  0.38236522958E+02  0.50968328851E+02  0.51100000000E-03 0. -1.
         22    1    1    0    0    0  0.36833807053E+02  0.18740703235E+02 -0.46886100369E+02  0.62499997661E+02  0.00000000000E+00 0. -1.
</event>
<event>
 4    1  0.1956828E-002  0.9118800E+02  0.7818608E-02  0.1130116E+00
         25   -1    0    0    0    0  0.00000000000E+00  0.00000000000E+00  0.99999998245E-14  0.12500000000E+03  0.12500000000E+03 0.  0.
        -11    1    1    0    0    0 -0.13768606685E+02  0.25886817519E+02  0.12523020139E+02  0.31883034438E+02  0.51100000000E-03 0. -1.
         11    1    1    0    0    0  0.15688840200E+02 -0.50927684705E+02  0.15489237658E+02  0.55494912016E+02  0.51100000000E-03 0.  1.
         22    1    1    0    0    0 -0.19202335155E+01  0.25040867185E+02 -0.28012257796E+02  0.37622053546E+02  0.00000000000E+00 0.  1.
</event>
<event>
 4    1  0.1956828E-002  0.9118800E+02  0.7818608E-02  0.1130116E+00
         25   -1    0    0    0    0  0.00000000000E+00  0.00000000000E+00  0.99999998245E-14  0.12500000000E+03  0.12500000000E+03 0.  0.
        -11    1    1    0    0    0 -0.61264899928E+02  0.46048389551E+00  0.87504738672E+01  0.61888373720E+02  0.51100000000E-03 0. -1.
         11    1    1    0    0    0  0.68519467035E+01 -0.77728289330E-02  0.29385195986E+01  0.74554766271E+01  0.51100000000E-03 0.  1.
         22    1    1    0    0    0  0.54412953224E+02 -0.45271106658E+00 -0.11688993466E+02  0.55656149653E+02  0.00000000000E+00 0. -1.
</event>
<event>
 4    1  0.1956828E-002  0.9118800E+02  0.7818608E-02  0.1130116E+00
         25   -1    0    0    0    0  0.00000000000E+00  0.00000000000E+00  0.99999998245E-14  0.12500000000E+03  0.12500000000E+03 0.  0.
        -11    1    1    0    0    0 -0.15026480338E+00 -0.33674482837E+01  0.80645605044E+00  0.34659283139E+01  0.51100000000E-03 0.  1.
         11    1    1    0    0    0 -0.62936080370E+01 -0.57861894505E+02  0.99102420292E+01  0.59040843787E+02  0.51100000000E-03 0. -1.
         22    1    1    0    0    0  0.64438728404E+01  0.61229342788E+02 -0.10716698080E+02  0.62493227899E+02  0.00000000000E+00 0. -1.
</event>
<event>
 4    1  0.1956828E-002  0.9118800E+02  0.7818608E-02  0.1130116E+00
         25   -1    0    0    0    0  0.00000000000E+00  0.00000000000E+00  0.99999998245E-14  0.12500000000E+03  0.12500000000E+03 0.  0.
        -11    1    1    0    0    0  0.41172827185E+01  0.22733388013E+02 -0.13845637323E+02  0.26934376189E+02  0.51100000000E-03 0. -1.
         11    1    1    0    0    0  0.13033344176E+02  0.14820544358E+02 -0.31228175682E+02  0.36942056686E+02  0.51100000000E-03 0.  1.
         22    1    1    0    0    0 -0.17150626895E+02 -0.37553932370E+02  0.45073813005E+02  0.61123567126E+02  0.00000000000E+00 0.  1.
</event>
<event>
 4    1  0.1956828E-002  0.9118800E+02  0.7818608E-02  0.1130116E+00
         25   -1    0    0    0    0  0.00000000000E+00  0.00000000000E+00  0.99999998245E-14  0.12500000000E+03  0.12500000000E+03 0.  0.
        -11    1    1    0    0    0 -0.43893439772E+01 -0.15578824570E+02 -0.16854598924E+02  0.23367576269E+02  0.51100000000E-03 0. -1.
         11    1    1    0    0    0 -0.73360562764E+01 -0.26122117964E+02 -0.28198655951E+02  0.39132428577E+02  0.51100000000E-03 0.  1.
         22    1    1    0    0    0  0.11725400254E+02  0.41700942535E+02  0.45053254875E+02  0.62499995154E+02  0.00000000000E+00 0.  1.
</event>
<event>
 4    1  0.1956828E-002  0.9118800E+02  0.7818608E-02  0.1130116E+00
         25   -1    0    0    0    0  0.00000000000E+00  0.00000000000E+00  0.99999998245E-14  0.12500000000E+03  0.12500000000E+03 0.  0.
        -11    1    1    0    0    0 -0.48825299849E+00 -0.19039312396E+02 -0.94838536032E+01  0.21276214112E+02  0.51100000000E-03 0.  1.
         11    1    1    0    0    0 -0.92185041945E+00 -0.36983278093E+02 -0.18187782791E+02  0.41223877908E+02  0.51100000000E-03 0. -1.
         22    1    1    0    0    0  0.14101034179E+01  0.56022590489E+02  0.27671636395E+02  0.62499907980E+02  0.00000000000E+00 0. -1.
</event>
<event>
 4    1  0.1956828E-002  0.9118800E+02  0.7818608E-02  0.1130116E+00
         25   -1    0    0    0    0  0.00000000000E+00  0.00000000000E+00  0.99999998245E-14  0.12500000000E+03  0.12500000000E+03 0.  0.
        -11    1    1    0    0    0  0.22489217679E+02  0.27739921105E+01  0.20003259786E+02  0.30225657087E+02  0.51100000000E-03 0. -1.
         11    1    1    0    0    0  0.23850072760E+02  0.26636610482E+01  0.21581289923E+02  0.32274961438E+02  0.51100000000E-03 0.  1.
         22    1    1    0    0    0 -0.46339290438E+02 -0.54376531587E+01 -0.41584549709E+02  0.62499381475E+02  0.00000000000E+00 0.  1.
</event>
<event>
 4    1  0.1956828E-002  0.9118800E+02  0.7818608E-02  0.1130116E+00
         25   -1    0    0    0    0  0.00000000000E+00  0.00000000000E+00  0.99999998245E-14  0.12500000000E+03  0.12500000000E+03 0.  0.
        -11    1    1    0    0    0  0.99702513757E+01 -0.22865773801E+01 -0.16682334527E+02  0.19568715700E+02  0.51100000000E-03 0. -1.
         11    1    1    0    0    0  0.21877379772E+02 -0.50169751117E+01 -0.36596521559E+02  0.42931284344E+02  0.51100000000E-03 0.  1.
         22    1    1    0    0    0 -0.31847631147E+02  0.73035524919E+01  0.53278856086E+02  0.62499999956E+02  0.00000000000E+00 0.  1.
</event>
<event>
 4    1  0.1956828E-002  0.9118800E+02  0.7818608E-02  0.1130116E+00
         25   -1    0    0    0    0  0.00000000000E+00  0.00000000000E+00  0.99999998245E-14  0.12500000000E+03  0.12500000000E+03 0.  0.
        -11    1    1    0    0    0  0.11319181341E+02  0.47426468146E+01  0.34334622084E+01  0.12743830980E+02  0.51100000000E-03 0. -1.
         11    1    1    0    0    0  0.44337352659E+02  0.18296290002E+02  0.13233720243E+02  0.49756270161E+02  0.51100000000E-03 0.  1.
         22    1    1    0    0    0 -0.55656534000E+02 -0.23038936817E+02 -0.16667182452E+02  0.62499898859E+02  0.00000000000E+00 0.  1.
</event>
<event>
 4    1  0.1956828E-002  0.9118800E+02  0.7818608E-02  0.1130116E+00
         25   -1    0    0    0    0  0.00000000000E+00  0.00000000000E+00  0.99999998245E-14  0.12500000000E+03  0.12500000000E+03 0.  0.
        -11    1    1    0    0    0 -0.40840597235E+00  0.13015209520E+01 -0.59243463204E+00  0.14871890536E+01  0.51100000000E-03 0.  1.
         11    1    1    0    0    0 -0.17020629016E+02  0.53380582756E+02 -0.24153173561E+02  0.61012820135E+02  0.51100000000E-03 0. -1.
         22    1    1    0    0    0  0.17429034988E+02 -0.54682103708E+02  0.24745608193E+02  0.62499990811E+02  0.00000000000E+00 0. -1.
</event>
<event>
 4    1  0.1956828E-002  0.9118800E+02  0.7818608E-02  0.1130116E+00
         25   -1    0    0    0    0  0.00000000000E+00  0.00000000000E+00  0.99999998245E-14  0.12500000000E+03  0.12500000000E+03 0.  0.
        -11    1    1    0    0    0 -0.11636383348E+02  0.28909648070E+02 -0.27532329119E+02  0.41583678480E+02  0.51100000000E-03 0.  1.
         11    1    1    0    0    0 -0.58494747544E+01  0.14541487755E+02 -0.13849956306E+02  0.20916321640E+02  0.51100000000E-03 0. -1.
         22    1    1    0    0    0  0.17485858102E+02 -0.43451135825E+02  0.41382285425E+02  0.62499999880E+02  0.00000000000E+00 0.  1.
</event>
<event>
 4    1  0.1956828E-002  0.9118800E+02  0.7818608E-02  0.1130116E+00
         25   -1    0    0    0    0  0.00000000000E+00  0.00000000000E+00  0.99999998245E-14  0.12500000000E+03  0.12500000000E+03 0.  0.
        -11    1    1    0    0    0  0.12498624311E+02 -0.32891721407E+01  0.15536964418E+02  0.20209688929E+02  0.51100000000E-03 0. -1.
         11    1    1    0    0    0  0.26156052082E+02 -0.68853846781E+01  0.32510349584E+02  0.42290311101E+02  0.51100000000E-03 0.  1.
         22    1    1    0    0    0 -0.38654676392E+02  0.10174556819E+02 -0.48047314002E+02  0.62499999970E+02  0.00000000000E+00 0.  1.
</event>
<event>
 4    1  0.1956828E-002  0.9118800E+02  0.7818608E-02  0.1130116E+00
         25   -1    0    0    0    0  0.00000000000E+00  0.00000000000E+00  0.99999998245E-14  0.12500000000E+03  0.12500000000E+03 0.  0.
        -11    1    1    0    0    0  0.30537239912E-01 -0.13727508782E+01 -0.43578488566E+00  0.14405853756E+01  0.51100000000E-03 0. -1.
         11    1    1    0    0    0  0.17274319630E+01 -0.60354606052E+02 -0.91459420564E+01  0.61068082901E+02  0.51100000000E-03 0.  1.
         22    1    1    0    0    0 -0.17579692029E+01  0.61727356930E+02  0.95817269421E+01  0.62491331723E+02  0.00000000000E+00 0.  1.
</event>
<event>
 4    1  0.1956828E-002  0.9118800E+02  0.7818608E-02  0.1130116E+00
         25   -1    0    0    0    0  0.00000000000E+00  0.00000000000E+00  0.99999998245E-14  0.12500000000E+03  0.12500000000E+03 0.  0.
        -11    1    1    0    0    0 -0.12764367645E+01 -0.29611868842E+02 -0.22047530854E+02  0.36940298918E+02  0.51100000000E-03 0. -1.
         11    1    1    0    0    0 -0.58450113848E+00 -0.20732735053E+02 -0.14939336070E+02  0.25561136650E+02  0.51100000000E-03 0.  1.
         22    1    1    0    0    0  0.18609379029E+01  0.50344603895E+02  0.36986866924E+02  0.62498564432E+02  0.00000000000E+00 0.  1.
</event>
<event>
 4    1  0.1956828E-002  0.9118800E+02  0.7818608E-02  0.1130116E+00
         25   -1    0    0    0    0  0.00000000000E+00  0.00000000000E+00  0.99999998245E-14  0.12500000000E+03  0.12500000000E+03 0.  0.
        -11    1    1    0    0    0  0.10217477773E+02 -0.28650723441E+02 -0.26269741331E+02  0.40191542836E+02  0.51100000000E-03 0.  1.
         11    1    1    0    0    0  0.68147501022E+01 -0.14871805947E+02 -0.15196712697E+02  0.22328267021E+02  0.51100000000E-03 0. -1.
         22    1    1    0    0    0 -0.17032227875E+02  0.43522529388E+02  0.41466454028E+02  0.62480190143E+02  0.00000000000E+00 0.  1.
</event>
<event>
 4    1  0.1956828E-002  0.9118800E+02  0.7818608E-02  0.1130116E+00
         25   -1    0    0    0    0  0.00000000000E+00  0.00000000000E+00  0.99999998245E-14  0.12500000000E+03  0.12500000000E+03 0.  0.
        -11    1    1    0    0    0  0.46023114649E+02  0.31480846883E+02  0.17623914971E+02  0.58478826780E+02  0.51100000000E-03 0. -1.
         11    1    1    0    0    0  0.31661842672E+01  0.21545597436E+01  0.12260205508E+01  0.40211910120E+01  0.51100000000E-03 0.  1.
         22    1    1    0    0    0 -0.49189298916E+02 -0.33635406626E+02 -0.18849935521E+02  0.62499982208E+02  0.00000000000E+00 0. -1.
</event>
<event>
 4    1  0.1956828E-002  0.9118800E+02  0.7818608E-02  0.1130116E+00
         25   -1    0    0    0    0  0.00000000000E+00  0.00000000000E+00  0.99999998245E-14  0.12500000000E+03  0.12500000000E+03 0.  0.
        -11    1    1    0    0    0  0.27538649542E+02  0.20981586247E+02 -0.91339167202E+01  0.35805483029E+02  0.51100000000E-03 0.  1.
         11    1    1    0    0    0  0.20584262699E+02  0.15585626627E+02 -0.67805301853E+01  0.26694554090E+02  0.51100000000E-03 0. -1.
         22    1    1    0    0    0 -0.48122912241E+02 -0.36567212874E+02  0.15914446906E+02  0.62499962881E+02  0.00000000000E+00 0. -1.
</event>
<event>
 4    1  0.1956828E-002  0.9118800E+02  0.7818608E-02  0.1130116E+00
         25   -1    0    0    0    0  0.00000000000E+00  0.00000000000E+00  0.99999998245E-14  0.12500000000E+03  0.12500000000E+03 0.  0.
        -11    1    1    0    0    0  0.14994406355E+02 -0.28836633979E+02  0.31772953559E+02  0.45452219520E+02  0.51100000000E-03 0. -1.
         11    1    1    0    0    0  0.56251539300E+01 -0.10816230199E+02  0.11916107910E+02  0.17047780513E+02  0.51100000000E-03 0.  1.
         22    1    1    0    0    0 -0.20619560285E+02  0.39652864178E+02 -0.43689061469E+02  0.62499999967E+02  0.00000000000E+00 0.  1.
</event>
<event>
 4    1  0.1956828E-002  0.9118800E+02  0.7818608E-02  0.1130116E+00
         25   -1    0    0    0    0  0.00000000000E+00  0.00000000000E+00  0.99999998245E-14  0.12500000000E+03  0.12500000000E+03 0.  0.
        -11    1    1    0    0    0  0.30444762263E+01  0.10249292322E+01  0.16159743457E+02  0.16475940771E+02  0.51100000000E-03 0. -1.
         11    1    1    0    0    0  0.20152039869E+01 -0.41670474244E+00  0.46054999170E+02  0.46100950519E+02  0.51100000000E-03 0.  1.
         22    1    1    0    0    0 -0.50596802132E+01 -0.60822448977E+00 -0.62214742627E+02  0.62423108710E+02  0.00000000000E+00 0.  1.
</event>
<event>
 4    1  0.1956828E-002  0.9118800E+02  0.7818608E-02  0.1130116E+00
         25   -1    0    0    0    0  0.00000000000E+00  0.00000000000E+00  0.99999998245E-14  0.12500000000E+03  0.12500000000E+03 0.  0.
        -11    1    1    0    0    0 -0.80440879496E+01  0.54591364587E+01  0.47178875008E+02  0.48170071301E+02  0.51100000000E-03 0.  1.
         11    1    1    0    0    0  0.63603878510E+01  0.33460813383E+00  0.13986116772E+02  0.15368082471E+02  0.51100000000E-03 0. -1.
         22    1    1    0    0    0  0.16837000986E+01 -0.57937445925E+01 -0.61164991780E+02  0.61461846229E+02  0.00000000000E+00 0.  1.
</event>
<event>
 4    1  0.1956828E-002  0.9118800E+02  0.7818608E-02  0.1130116E+00
         25   -1    0    0    0    0  0.00000000000E+00  0.00000000000E+00  0.99999998245E-14  0.12500000000E+03  0.12500000000E+03 0.  0.
        -11    1    1    0    0    0 -0.22243870572E+02 -0.27756038761E+02 -0.25255633205E+02  0.43623783359E+02  0.51100000000E-03 0.  1.
         11    1    1    0    0    0 -0.94195347710E+01 -0.11949071210E+02 -0.11173209078E+02  0.18877196282E+02  0.51100000000E-03 0. -1.
         22    1    1    0    0    0  0.31663405343E+02  0.39705109971E+02  0.36428842283E+02  0.62499020359E+02  0.00000000000E+00 0.  1.
</event>
<event>
 4    1  0.1956828E-002  0.9118800E+02  0.7818608E-02  0.1130116E+00
         25   -1    0    0    0    0  0.00000000000E+00  0.00000000000E+00  0.99999998245E-14  0.12500000000E+03  0.12500000000E+03 0.  0.
        -11    1    1    0    0    0  0.40264424807E+02  0.27038050325E+01  0.31334721088E+02  0.51092066044E+02  0.51100000000E-03 0.  1.
         11    1    1    0    0    0  0.89881320966E+01  0.62379931610E+00  0.69975338679E+01  0.11407941298E+02  0.51100000000E-03 0. -1.
         22    1    1    0    0    0 -0.49252556904E+02 -0.33276043486E+01 -0.38332254956E+02  0.62499992658E+02  0.00000000000E+00 0.  1.
</event>
<event>
 4    1  0.1956828E-002  0.9118800E+02  0.7818608E-02  0.1130116E+00
         25   -1    0    0    0    0  0.00000000000E+00  0.00000000000E+00  0.99999998245E-14  0.12500000000E+03  0.12500000000E+03 0.  0.
        -11    1    1    0    0    0 -0.28487358433E+02 -0.37168323103E+01  0.17891957863E+02  0.33844742419E+02  0.51100000000E-03 0. -1.
         11    1    1    0    0    0 -0.26430120302E+02 -0.19550225908E+01  0.11174326617E+02  0.28761761909E+02  0.51100000000E-03 0.  1.
         22    1    1    0    0    0  0.54917478736E+02  0.56718549011E+01 -0.29066284480E+02  0.62393495672E+02  0.00000000000E+00 0.  1.
</event>
<event>
 4    1  0.1956828E-002  0.9118800E+02  0.7818608E-02  0.1130116E+00
         25   -1    0    0    0    0  0.00000000000E+00  0.00000000000E+00  0.99999998245E-14  0.12500000000E+03  0.12500000000E+03 0.  0.
        -11    1    1    0    0    0  0.12292848084E+02 -0.18766587679E+01 -0.39054441330E+01  0.13034126602E+02  0.51100000000E-03 0. -1.
         11    1    1    0    0    0  0.46672679297E+02 -0.72786912947E+01 -0.14681925052E+02  0.49465920220E+02  0.51100000000E-03 0.  1.
         22    1    1    0    0    0 -0.58965527381E+02  0.91553500626E+01  0.18587369185E+02  0.62499953178E+02  0.00000000000E+00 0.  1.
</event>
<event>
 4    1  0.1956828E-002  0.9118800E+02  0.7818608E-02  0.1130116E+00
         25   -1    0    0    0    0  0.00000000000E+00  0.00000000000E+00  0.99999998245E-14  0.12500000000E+03  0.12500000000E+03 0.  0.
        -11    1    1    0    0    0  0.50481196276E+01  0.96383367279E+01 -0.15006326131E+02  0.18535664835E+02  0.51100000000E-03 0. -1.
         11    1    1    0    0    0  0.94316870370E+01  0.43065446452E+02  0.25324686074E+02  0.50842198255E+02  0.51100000000E-03 0.  1.
         22    1    1    0    0    0 -0.14479806665E+02 -0.52703783180E+02 -0.10318359942E+02  0.55622136910E+02  0.00000000000E+00 0.  1.
</event>
<event>
 4    1  0.1956828E-002  0.9118800E+02  0.7818608E-02  0.1130116E+00
         25   -1    0    0    0    0  0.00000000000E+00  0.00000000000E+00  0.99999998245E-14  0.12500000000E+03  0.12500000000E+03 0.  0.
        -11    1    1    0    0    0  0.44724787690E-01  0.20183620669E+01 -0.29866272054E+01  0.36049588160E+01  0.51100000000E-03 0.  1.
         11    1    1    0    0    0  0.40212439743E+00  0.33134399137E+02 -0.48688601691E+02  0.58895076577E+02  0.51100000000E-03 0. -1.
         22    1    1    0    0    0 -0.44684918512E+00 -0.35152761203E+02  0.51675228896E+02  0.62499964607E+02  0.00000000000E+00 0. -1.
</event>
<event>
 4    1  0.1956828E-002  0.9118800E+02  0.7818608E-02  0.1130116E+00
         25   -1    0    0    0    0  0.00000000000E+00  0.00000000000E+00  0.99999998245E-14  0.12500000000E+03  0.12500000000E+03 0.  0.
        -11    1    1    0    0    0  0.22579165469E+01  0.35507217619E+01  0.15803775820E+01  0.44948198769E+01  0.51100000000E-03 0. -1.
         11    1    1    0    0    0  0.29588707828E+02  0.45709005794E+02  0.19995238726E+02  0.58005296427E+02  0.51100000000E-03 0.  1.
         22    1    1    0    0    0 -0.31846624375E+02 -0.49259727556E+02 -0.21575616308E+02  0.62499883696E+02  0.00000000000E+00 0.  1.
</event>
<event>
 4    1  0.1956828E-002  0.9118800E+02  0.7818608E-02  0.1130116E+00
         25   -1    0    0    0    0  0.00000000000E+00  0.00000000000E+00  0.99999998245E-14  0.12500000000E+03  0.12500000000E+03 0.  0.
        -11    1    1    0    0    0 -0.71237482109E+00  0.74136593886E+01  0.15182744249E+02  0.16911107196E+02  0.51100000000E-03 0.  1.
         11    1    1    0    0    0 -0.44345663870E+01  0.21669104679E+02  0.39881312307E+02  0.45604106703E+02  0.51100000000E-03 0. -1.
         22    1    1    0    0    0  0.51469412081E+01 -0.29082764068E+02 -0.55064056556E+02  0.62484786100E+02  0.00000000000E+00 0.  1.
</event>
<event>
 4    1  0.1956828E-002  0.9118800E+02  0.7818608E-02  0.1130116E+00
         25   -1    0    0    0    0  0.00000000000E+00  0.00000000000E+00  0.99999998245E-14  0.12500000000E+03  0.12500000000E+03 0.  0.
        -11    1    1    0    0    0  0.12148541326E+02 -0.31928494437E+01  0.10994471617E+02  0.16693104874E+02  0.51100000000E-03 0. -1.
         11    1    1    0    0    0 -0.59697391248E+02  0.63773274606E+01 -0.78469845785E+01  0.60547700160E+02  0.51100000000E-03 0.  1.
         22    1    1    0    0    0  0.47548849922E+02 -0.31844780170E+01 -0.31474870388E+01  0.47759194966E+02  0.00000000000E+00 0.  1.
</event>
<event>
 4    1  0.1956828E-002  0.9118800E+02  0.7818608E-02  0.1130116E+00
         25   -1    0    0    0    0  0.00000000000E+00  0.00000000000E+00  0.99999998245E-14  0.12500000000E+03  0.12500000000E+03 0.  0.
        -11    1    1    0    0    0 -0.31314490536E+02 -0.79597090577E+00  0.18684556310E+02  0.36473874650E+02  0.51100000000E-03 0. -1.
         11    1    1    0    0    0 -0.22056854141E+02 -0.46760792282E+00  0.13810485467E+02  0.26027926942E+02  0.51100000000E-03 0.  1.
         22    1    1    0    0    0  0.53371344678E+02  0.12635788286E+01 -0.32495041777E+02  0.62498198408E+02  0.00000000000E+00 0.  1.
</event>
<event>
 4    1  0.1956828E-002  0.9118800E+02  0.7818608E-02  0.1130116E+00
         25   -1    0    0    0    0  0.00000000000E+00  0.00000000000E+00  0.99999998245E-14  0.12500000000E+03  0.12500000000E+03 0.  0.
        -11    1    1    0    0    0  0.69669640897E+00  0.65460975262E+01  0.63314971665E+01  0.91337087395E+01  0.51100000000E-03 0.  1.
         11    1    1    0    0    0  0.40933336358E+01  0.38240593573E+02  0.36998144670E+02  0.53366291668E+02  0.51100000000E-03 0. -1.
         22    1    1    0    0    0 -0.47900300448E+01 -0.44786691099E+02 -0.43329641837E+02  0.62499999593E+02  0.00000000000E+00 0. -1.
</event>
<event>
 4    1  0.1956828E-002  0.9118800E+02  0.7818608E-02  0.1130116E+00
         25   -1    0    0    0    0  0.00000000000E+00  0.00000000000E+00  0.99999998245E-14  0.12500000000E+03  0.12500000000E+03 0.  0.
        -11    1    1    0    0    0 -0.70498481371E+01  0.24688001789E+01  0.25975681357E+02  0.27028343555E+02  0.51100000000E-03 0.  1.
         11    1    1    0    0    0 -0.93269535797E+01  0.30824737278E+01  0.34084472832E+02  0.35471749264E+02  0.51100000000E-03 0. -1.
         22    1    1    0    0    0  0.16376801717E+02 -0.55512739066E+01 -0.60060154189E+02  0.62499907181E+02  0.00000000000E+00 0. -1.
</event>
<event>
 4    1  0.1956828E-002  0.9118800E+02  0.7818608E-02  0.1130116E+00
         25   -1    0    0    0    0  0.00000000000E+00  0.00000000000E+00  0.99999998245E-14  0.12500000000E+03  0.12500000000E+03 0.  0.
        -11    1    1    0    0    0 -0.13881240230E+01 -0.10930904308E+02 -0.11136847812E+02  0.15666554718E+02  0.51100000000E-03 0. -1.
         11    1    1    0    0    0 -0.41483200995E+01 -0.32677126442E+02 -0.33292167927E+02  0.46833445290E+02  0.51100000000E-03 0.  1.
         22    1    1    0    0    0  0.55364441225E+01  0.43608030750E+02  0.44429015739E+02  0.62499999992E+02  0.00000000000E+00 0.  1.
</event>
<event>
 4    1  0.1956828E-002  0.9118800E+02  0.7818608E-02  0.1130116E+00
         25   -1    0    0    0    0  0.00000000000E+00  0.00000000000E+00  0.99999998245E-14  0.12500000000E+03  0.12500000000E+03 0.  0.
        -11    1    1    0    0    0 -0.35363818275E+02 -0.28747281625E+02 -0.35405949145E+02  0.57711238758E+02  0.51100000000E-03 0. -1.
         11    1    1    0    0    0 -0.29405865408E+01 -0.23871546063E+01 -0.29303111585E+01  0.47887660274E+01  0.51100000000E-03 0.  1.
         22    1    1    0    0    0  0.38304404816E+02  0.31134436232E+02  0.38336260303E+02  0.62499995215E+02  0.00000000000E+00 0. -1.
</event>
<event>
 4    1  0.1956828E-002  0.9118800E+02  0.7818608E-02  0.1130116E+00
         25   -1    0    0    0    0  0.00000000000E+00  0.00000000000E+00  0.99999998245E-14  0.12500000000E+03  0.12500000000E+03 0.  0.
        -11    1    1    0    0    0 -0.47123648991E+02  0.18723275326E+02 -0.47267086178E+01  0.50926821104E+02  0.51100000000E-03 0.  1.
         11    1    1    0    0    0 -0.10709516084E+02  0.42535988605E+01 -0.10731415866E+01  0.11573178956E+02  0.51100000000E-03 0. -1.
         22    1    1    0    0    0  0.57833165075E+02 -0.22976874187E+02  0.57998502044E+01  0.62499999939E+02  0.00000000000E+00 0.  1.
</event>
<event>
 4    1  0.1956828E-002  0.9118800E+02  0.7818608E-02  0.1130116E+00
         25   -1    0    0    0    0  0.00000000000E+00  0.00000000000E+00  0.99999998245E-14  0.12500000000E+03  0.12500000000E+03 0.  0.
        -11    1    1    0    0    0  0.47065407684E+01 -0.11092939666E+01  0.15326842476E+02  0.16071532585E+02  0.51100000000E-03 0. -1.
         11    1    1    0    0    0  0.13112449291E+02 -0.32057557727E+01  0.44423217638E+02  0.46428821459E+02  0.51100000000E-03 0.  1.
         22    1    1    0    0    0 -0.17818990059E+02  0.43150497393E+01 -0.59750060114E+02  0.62499645956E+02  0.00000000000E+00 0.  1.
</event>
<event>
 4    1  0.1956828E-002  0.9118800E+02  0.7818608E-02  0.1130116E+00
         25   -1    0    0    0    0  0.00000000000E+00  0.00000000000E+00  0.99999998245E-14  0.12500000000E+03  0.12500000000E+03 0.  0.
        -11    1    1    0    0    0 -0.10303813546E+02  0.56178097059E+02  0.16366025582E+02  0.59413752250E+02  0.51100000000E-03 0. -1.
         11    1    1    0    0    0 -0.34912308594E+00  0.29707686442E+01  0.77340409226E+00  0.30895804598E+01  0.51100000000E-03 0.  1.
         22    1    1    0    0    0  0.10652936631E+02 -0.59148865703E+02 -0.17139429675E+02  0.62496667291E+02  0.00000000000E+00 0. -1.
</event>
<event>
 4    1  0.1956828E-002  0.9118800E+02  0.7818608E-02  0.1130116E+00
         25   -1    0    0    0    0  0.00000000000E+00  0.00000000000E+00  0.99999998245E-14  0.12500000000E+03  0.12500000000E+03 0.  0.
        -11    1    1    0    0    0  0.28651860503E+02 -0.43771026420E+01 -0.15890908134E+02  0.33054638092E+02  0.51100000000E-03 0.  1.
         11    1    1    0    0    0  0.25517032012E+02 -0.38902014032E+01 -0.14169574109E+02  0.29445363308E+02  0.51100000000E-03 0. -1.
         22    1    1    0    0    0 -0.54168892514E+02  0.82673040453E+01  0.30060482242E+02  0.62499998600E+02  0.00000000000E+00 0. -1.
</event>
<event>
 4    1  0.1956828E-002  0.9118800E+02  0.7818608E-02  0.1130116E+00
         25   -1    0    0    0    0  0.00000000000E+00  0.00000000000E+00  0.99999998245E-14  0.12500000000E+03  0.12500000000E+03 0.  0.
        -11    1    1    0    0    0 -0.10311380497E+02 -0.16083088025E+01 -0.22230510912E+01  0.10670200624E+02  0.51100000000E-03 0. -1.
         11    1    1    0    0    0 -0.50087079679E+02 -0.78127656110E+01 -0.10796909128E+02  0.51829799385E+02  0.51100000000E-03 0. -1.
         22    1    1    0    0    0  0.60398460176E+02  0.94210744135E+01  0.13019960220E+02  0.62499999991E+02  0.00000000000E+00 0. -1.
</event>
<event>
 4    1  0.1956828E-002  0.9118800E+02  0.7818608E-02  0.1130116E+00
         25   -1    0    0    0    0  0.00000000000E+00  0.00000000000E+00  0.99999998245E-14  0.12500000000E+03  0.12500000000E+03 0.  0.
        -11    1    1    0    0    0 -0.69467326334E+01 -0.73645965222E+01 -0.22620536170E+02  0.24782716419E+02  0.51100000000E-03 0. -1.
         11    1    1    0    0    0 -0.92764717449E+01 -0.11749574660E+02 -0.34624946196E+02  0.37722570592E+02  0.51100000000E-03 0.  1.
         22    1    1    0    0    0  0.16223204378E+02  0.19114171182E+02  0.57245482366E+02  0.62494712989E+02  0.00000000000E+00 0. -1.
</event>
<event>
 4    1  0.1956828E-002  0.9118800E+02  0.7818608E-02  0.1130116E+00
         25   -1    0    0    0    0  0.00000000000E+00  0.00000000000E+00  0.99999998245E-14  0.12500000000E+03  0.12500000000E+03 0.  0.
        -11    1    1    0    0    0 -0.45039841777E+01  0.18795699879E+01  0.59158604575E+01  0.76691630590E+01  0.51100000000E-03 0. -1.
         11    1    1    0    0    0  0.44216583324E+02  0.38942559976E+02 -0.11750088676E+02  0.60080727380E+02  0.51100000000E-03 0.  1.
         22    1    1    0    0    0 -0.39712599146E+02 -0.40822129964E+02  0.58342282188E+01  0.57250109561E+02  0.00000000000E+00 0.  1.
</event>
<event>
 4    1  0.1956828E-002  0.9118800E+02  0.7818608E-02  0.1130116E+00
         25   -1    0    0    0    0  0.00000000000E+00  0.00000000000E+00  0.99999998245E-14  0.12500000000E+03  0.12500000000E+03 0.  0.
        -11    1    1    0    0    0 -0.10834334127E+01  0.74178510995E+01 -0.44939358293E+01  0.87403548208E+01  0.51100000000E-03 0. -1.
         11    1    1    0    0    0 -0.67314721553E+01  0.45625904466E+02 -0.27623611550E+02  0.53759648353E+02  0.51100000000E-03 0.  1.
         22    1    1    0    0    0  0.78149055680E+01 -0.53043755566E+02  0.32117547380E+02  0.62499996826E+02  0.00000000000E+00 0.  1.
</event>
<event>
 4    1  0.1956828E-002  0.9118800E+02  0.7818608E-02  0.1130116E+00
         25   -1    0    0    0    0  0.00000000000E+00  0.00000000000E+00  0.99999998245E-14  0.12500000000E+03  0.12500000000E+03 0.  0.
        -11    1    1    0    0    0 -0.26223695142E+02  0.12564067159E+02  0.21465481973E+02  0.36142840053E+02  0.51100000000E-03 0. -1.
         11    1    1    0    0    0 -0.96992839500E+01  0.28859315120E+02 -0.14239410523E+01  0.30478907243E+02  0.51100000000E-03 0.  1.
         22    1    1    0    0    0  0.35922979092E+02 -0.41423382279E+02 -0.20041540921E+02  0.58378252704E+02  0.00000000000E+00 0. -1.
</event>
<event>
 4    1  0.1956828E-002  0.9118800E+02  0.7818608E-02  0.1130116E+00
         25   -1    0    0    0    0  0.00000000000E+00  0.00000000000E+00  0.99999998245E-14  0.12500000000E+03  0.12500000000E+03 0.  0.
        -11    1    1    0    0    0 -0.10937935883E+01  0.72176201899E+01  0.39906855017E+01  0.83196151746E+01  0.51100000000E-03 0.  1.
         11    1    1    0    0    0  0.52188126761E+02 -0.24327161875E+02 -0.19192669607E+02  0.60694068463E+02  0.51100000000E-03 0. -1.
         22    1    1    0    0    0 -0.51094333173E+02  0.17109541685E+02  0.15201984105E+02  0.55986316362E+02  0.00000000000E+00 0. -1.
</event>
<event>
 4    1  0.1956828E-002  0.9118800E+02  0.7818608E-02  0.1130116E+00
         25   -1    0    0    0    0  0.00000000000E+00  0.00000000000E+00  0.99999998245E-14  0.12500000000E+03  0.12500000000E+03 0.  0.
        -11    1    1    0    0    0  0.38109254727E+01  0.22556345075E+02  0.65928484104E+01  0.23807089417E+02  0.51100000000E-03 0.  1.
         11    1    1    0    0    0  0.30006805335E+02 -0.12936757562E+01 -0.39371124585E+02  0.49519364038E+02  0.51100000000E-03 0. -1.
         22    1    1    0    0    0 -0.33817730807E+02 -0.21262669319E+02  0.32778276175E+02  0.51673546545E+02  0.00000000000E+00 0.  1.
</event>
<event>
 4    1  0.1956828E-002  0.9118800E+02  0.7818608E-02  0.1130116E+00
         25   -1    0    0    0    0  0.00000000000E+00  0.00000000000E+00  0.99999998245E-14  0.12500000000E+03  0.12500000000E+03 0.  0.
        -11    1    1    0    0    0  0.25593280157E+02 -0.16553724761E+02  0.46680881617E+02  0.55750753371E+02  0.51100000000E-03 0.  1.
         11    1    1    0    0    0  0.31235514878E+01 -0.20030864292E+01  0.56377092934E+01  0.67492737000E+01  0.51100000000E-03 0. -1.
         22    1    1    0    0    0 -0.28716831645E+02  0.18556811191E+02 -0.52318590910E+02  0.62499972929E+02  0.00000000000E+00 0.  1.
</event>
<event>
 4    1  0.1956828E-002  0.9118800E+02  0.7818608E-02  0.1130116E+00
         25   -1    0    0    0    0  0.00000000000E+00  0.00000000000E+00  0.99999998245E-14  0.12500000000E+03  0.12500000000E+03 0.  0.
        -11    1    1    0    0    0 -0.29151504307E+02  0.32352723468E+02 -0.26351303823E+02  0.50900885381E+02  0.51100000000E-03 0. -1.
         11    1    1    0    0    0 -0.92482336189E+01  0.46077985495E+01 -0.58058711946E+01  0.11851994479E+02  0.51100000000E-03 0.  1.
         22    1    1    0    0    0  0.38399737926E+02 -0.36960522017E+02  0.32157175017E+02  0.62247120140E+02  0.00000000000E+00 0. -1.
</event>
<event>
 4    1  0.1956828E-002  0.9118800E+02  0.7818608E-02  0.1130116E+00
         25   -1    0    0    0    0  0.00000000000E+00  0.00000000000E+00  0.99999998245E-14  0.12500000000E+03  0.12500000000E+03 0.  0.
        -11    1    1    0    0    0 -0.23328898027E+02 -0.31600465834E+02 -0.19644132019E+02  0.43917181685E+02  0.51100000000E-03 0.  1.
         11    1    1    0    0    0 -0.96466074859E+01 -0.13932273986E+02 -0.76446527525E+01  0.18590481715E+02  0.51100000000E-03 0. -1.
         22    1    1    0    0    0  0.32975505513E+02  0.45532739821E+02  0.27288784772E+02  0.62492336600E+02  0.00000000000E+00 0. -1.
</event>
<event>
 4    1  0.1956828E-002  0.9118800E+02  0.7818608E-02  0.1130116E+00
         25   -1    0    0    0    0  0.00000000000E+00  0.00000000000E+00  0.99999998245E-14  0.12500000000E+03  0.12500000000E+03 0.  0.
        -11    1    1    0    0    0  0.26353413938E+02 -0.51547525797E+02  0.23460818547E+02  0.62466469798E+02  0.51100000000E-03 0.  1.
         11    1    1    0    0    0  0.93303668183E-02 -0.29830152367E-01  0.12696406905E-01  0.33739496209E-01  0.51100000000E-03 0. -1.
         22    1    1    0    0    0 -0.26362744304E+02  0.51577355949E+02 -0.23473514953E+02  0.62499790705E+02  0.00000000000E+00 0.  1.
</event>
<event>
 4    1  0.1956828E-002  0.9118800E+02  0.7818608E-02  0.1130116E+00
         25   -1    0    0    0    0  0.00000000000E+00  0.00000000000E+00  0.99999998245E-14  0.12500000000E+03  0.12500000000E+03 0.  0.
        -11    1    1    0    0    0  0.41737893726E+01 -0.34486555763E+01  0.24101523775E+01  0.59264304395E+01  0.51100000000E-03 0.  1.
         11    1    1    0    0    0  0.39913918188E+02 -0.32773758598E+02  0.23093944584E+02  0.56573583893E+02  0.51100000000E-03 0. -1.
         22    1    1    0    0    0 -0.44087707561E+02  0.36222414174E+02 -0.25504096962E+02  0.62499985667E+02  0.00000000000E+00 0. -1.
</event>
<event>
 4    1  0.1956828E-002  0.9118800E+02  0.7818608E-02  0.1130116E+00
         25   -1    0    0    0    0  0.00000000000E+00  0.00000000000E+00  0.99999998245E-14  0.12500000000E+03  0.12500000000E+03 0.  0.
        -11    1    1    0    0    0 -0.23073269951E+02  0.32413167176E+02 -0.41827021053E+02  0.57727713302E+02  0.51100000000E-03 0. -1.
         11    1    1    0    0    0 -0.19062042440E+01  0.26799665852E+01 -0.34581621613E+01  0.47722868012E+01  0.51100000000E-03 0.  1.
         22    1    1    0    0    0  0.24979474195E+02 -0.35093133762E+02  0.45285183215E+02  0.62499999897E+02  0.00000000000E+00 0. -1.
</event>
<event>
 4    1  0.1956828E-002  0.9118800E+02  0.7818608E-02  0.1130116E+00
         25   -1    0    0    0    0  0.00000000000E+00  0.00000000000E+00  0.99999998245E-14  0.12500000000E+03  0.12500000000E+03 0.  0.
        -11    1    1    0    0    0 -0.12252412335E+01  0.69580152174E+00 -0.29999133861E+01  0.33143380068E+01  0.51100000000E-03 0.  1.
         11    1    1    0    0    0 -0.44867673282E+01  0.71546506776E+01 -0.58660661460E+02  0.59265447864E+02  0.51100000000E-03 0. -1.
         22    1    1    0    0    0  0.57120085617E+01 -0.78504521994E+01  0.61660574846E+02  0.62420214129E+02  0.00000000000E+00 0. -1.
</event>
<event>
 4    1  0.1956828E-002  0.9118800E+02  0.7818608E-02  0.1130116E+00
         25   -1    0    0    0    0  0.00000000000E+00  0.00000000000E+00  0.99999998245E-14  0.12500000000E+03  0.12500000000E+03 0.  0.
        -11    1    1    0    0    0  0.65559103390E+01 -0.40042981463E+02  0.17943432869E+02  0.44366508857E+02  0.51100000000E-03 0. -1.
         11    1    1    0    0    0  0.26741703742E+01 -0.16368378907E+02  0.73313368216E+01  0.18133491530E+02  0.51100000000E-03 0.  1.
         22    1    1    0    0    0 -0.92300807131E+01  0.56411360369E+02 -0.25274769691E+02  0.62499999613E+02  0.00000000000E+00 0. -1.
</event>
<event>
 4    1  0.1956828E-002  0.9118800E+02  0.7818608E-02  0.1130116E+00
         25   -1    0    0    0    0  0.00000000000E+00  0.00000000000E+00  0.99999998245E-14  0.12500000000E+03  0.12500000000E+03 0.  0.
        -11    1    1    0    0    0 -0.13281784891E+01 -0.52481267940E+02 -0.23800320681E+02  0.57641155501E+02  0.51100000000E-03 0.  1.
         11    1    1    0    0    0 -0.72956717330E-01 -0.43935820228E+01 -0.20743060481E+01  0.48591801279E+01  0.51100000000E-03 0. -1.
         22    1    1    0    0    0  0.14011352064E+01  0.56874849963E+02  0.25874626729E+02  0.62499664371E+02  0.00000000000E+00 0.  1.
</event>
<event>
 4    1  0.1956828E-002  0.9118800E+02  0.7818608E-02  0.1130116E+00
         25   -1    0    0    0    0  0.00000000000E+00  0.00000000000E+00  0.99999998245E-14  0.12500000000E+03  0.12500000000E+03 0.  0.
        -11    1    1    0    0    0  0.65069218844E+01 -0.44777786648E+01  0.95329446554E+01  0.12380127958E+02  0.51100000000E-03 0.  1.
         11    1    1    0    0    0  0.14578326579E+02 -0.18774824590E+02  0.44317031757E+02  0.50289372120E+02  0.51100000000E-03 0. -1.
         22    1    1    0    0    0 -0.21085248464E+02  0.23252603255E+02 -0.53849976412E+02  0.62330499922E+02  0.00000000000E+00 0. -1.
</event>
<event>
 4    1  0.1956828E-002  0.9118800E+02  0.7818608E-02  0.1130116E+00
         25   -1    0    0    0    0  0.00000000000E+00  0.00000000000E+00  0.99999998245E-14  0.12500000000E+03  0.12500000000E+03 0.  0.
        -11    1    1    0    0    0  0.22906346112E+02  0.67737708906E+01  0.10589719454E+01  0.23910376118E+02  0.51100000000E-03 0. -1.
         11    1    1    0    0    0  0.36955006895E+02  0.11007406945E+02  0.15267626781E+01  0.38589720741E+02  0.51100000000E-03 0.  1.
         22    1    1    0    0    0 -0.59861353007E+02 -0.17781177836E+02 -0.25857346235E+01  0.62499903141E+02  0.00000000000E+00 0.  1.
</event>
<event>
 4    1  0.1956828E-002  0.9118800E+02  0.7818608E-02  0.1130116E+00
         25   -1    0    0    0    0  0.00000000000E+00  0.00000000000E+00  0.99999998245E-14  0.12500000000E+03  0.12500000000E+03 0.  0.
        -11    1    1    0    0    0  0.43685565423E+00 -0.12357695462E+02 -0.20476353252E+02  0.23920378817E+02  0.51100000000E-03 0. -1.
         11    1    1    0    0    0  0.70459672139E+00 -0.19930009854E+02 -0.33025526818E+02  0.38579621190E+02  0.51100000000E-03 0. -1.
         22    1    1    0    0    0 -0.11414523756E+01  0.32287705316E+02  0.53501880070E+02  0.62499999993E+02  0.00000000000E+00 0. -1.
</event>
<event>
 4    1  0.1956828E-002  0.9118800E+02  0.7818608E-02  0.1130116E+00
         25   -1    0    0    0    0  0.00000000000E+00  0.00000000000E+00  0.99999998245E-14  0.12500000000E+03  0.12500000000E+03 0.  0.
        -11    1    1    0    0    0  0.33004152002E+02  0.16179111526E+02 -0.45509008767E+01  0.37037121894E+02  0.51100000000E-03 0. -1.
         11    1    1    0    0    0  0.22690990089E+02  0.11121850387E+02 -0.31275509864E+01  0.25462878131E+02  0.51100000000E-03 0.  1.
         22    1    1    0    0    0 -0.55695142091E+02 -0.27300961913E+02  0.76784518631E+01  0.62499999975E+02  0.00000000000E+00 0.  1.
</event>
<event>
 4    1  0.1956828E-002  0.9118800E+02  0.7818608E-02  0.1130116E+00
         25   -1    0    0    0    0  0.00000000000E+00  0.00000000000E+00  0.99999998245E-14  0.12500000000E+03  0.12500000000E+03 0.  0.
        -11    1    1    0    0    0  0.21943204026E+02  0.54526222756E+02 -0.51706395926E+00  0.58778231739E+02  0.51100000000E-03 0.  1.
         11    1    1    0    0    0  0.14510060771E+01  0.27011851296E+01  0.30775174775E+01  0.43442990028E+01  0.51100000000E-03 0. -1.
         22    1    1    0    0    0 -0.23394210103E+02 -0.57227407885E+02 -0.25604535182E+01  0.61877469259E+02  0.00000000000E+00 0.  1.
</event>
<event>
 4    1  0.1956828E-002  0.9118800E+02  0.7818608E-02  0.1130116E+00
         25   -1    0    0    0    0  0.00000000000E+00  0.00000000000E+00  0.99999998245E-14  0.12500000000E+03  0.12500000000E+03 0.  0.
        -11    1    1    0    0    0  0.32345327404E-01 -0.17704230607E+00  0.19564170594E+01  0.19646776249E+01  0.51100000000E-03 0. -1.
         11    1    1    0    0    0  0.12460852104E+01 -0.48794124004E+01  0.60325534245E+02  0.60535373758E+02  0.51100000000E-03 0.  1.
         22    1    1    0    0    0 -0.12784305378E+01  0.50564547065E+01 -0.62281951305E+02  0.62499948617E+02  0.00000000000E+00 0.  1.
</event>
<event>
 4    1  0.1956828E-002  0.9118800E+02  0.7818608E-02  0.1130116E+00
         25   -1    0    0    0    0  0.00000000000E+00  0.00000000000E+00  0.99999998245E-14  0.12500000000E+03  0.12500000000E+03 0.  0.
        -11    1    1    0    0    0  0.36277192059E-01 -0.29073755371E+00 -0.15738104881E+00  0.33258595197E+00  0.51100000000E-03 0.  1.
         11    1    1    0    0    0  0.73252218491E+01 -0.53832396780E+02 -0.30219278146E+02  0.62167439952E+02  0.51100000000E-03 0. -1.
         22    1    1    0    0    0 -0.73614990412E+01  0.54123134333E+02  0.30376659195E+02  0.62499974096E+02  0.00000000000E+00 0. -1.
</event>
<event>
 4    1  0.1956828E-002  0.9118800E+02  0.7818608E-02  0.1130116E+00
         25   -1    0    0    0    0  0.00000000000E+00  0.00000000000E+00  0.99999998245E-14  0.12500000000E+03  0.12500000000E+03 0.  0.
        -11    1    1    0    0    0  0.12031604245E+02 -0.18221243352E+01  0.96351835208E+01  0.15521481873E+02  0.51100000000E-03 0.  1.
         11    1    1    0    0    0  0.18850231975E+02  0.10805919696E+02  0.42780612058E+02  0.47982079095E+02  0.51100000000E-03 0. -1.
         22    1    1    0    0    0 -0.30881836221E+02 -0.89837953605E+01 -0.52415795578E+02  0.61496439032E+02  0.00000000000E+00 0. -1.
</event>
<event>
 4    1  0.1956828E-002  0.9118800E+02  0.7818608E-02  0.1130116E+00
         25   -1    0    0    0    0  0.00000000000E+00  0.00000000000E+00  0.99999998245E-14  0.12500000000E+03  0.12500000000E+03 0.  0.
        -11    1    1    0    0    0 -0.21264941120E+01 -0.18987151211E+02 -0.28617823440E+02  0.34409500244E+02  0.51100000000E-03 0. -1.
         11    1    1    0    0    0 -0.18158385827E+02 -0.17088437703E+02 -0.16083146551E+02  0.29671691596E+02  0.51100000000E-03 0.  1.
         22    1    1    0    0    0  0.20284879939E+02  0.36075588914E+02  0.44700969990E+02  0.60918808160E+02  0.00000000000E+00 0. -1.
</event>
<event>
 4    1  0.1956828E-002  0.9118800E+02  0.7818608E-02  0.1130116E+00
         25   -1    0    0    0    0  0.00000000000E+00  0.00000000000E+00  0.99999998245E-14  0.12500000000E+03  0.12500000000E+03 0.  0.
        -11    1    1    0    0    0 -0.24367533877E+02  0.22917564302E+02 -0.26773947864E+02  0.42846653839E+02  0.51100000000E-03 0.  1.
         11    1    1    0    0    0 -0.11184095074E+02  0.10507230931E+02 -0.12278768544E+02  0.19653346831E+02  0.51100000000E-03 0. -1.
         22    1    1    0    0    0  0.35551628951E+02 -0.33424795232E+02  0.39052716407E+02  0.62499999329E+02  0.00000000000E+00 0.  1.
</event>
<event>
 4    1  0.1956828E-002  0.9118800E+02  0.7818608E-02  0.1130116E+00
         25   -1    0    0    0    0  0.00000000000E+00  0.00000000000E+00  0.99999998245E-14  0.12500000000E+03  0.12500000000E+03 0.  0.
        -11    1    1    0    0    0 -0.16367975796E+02  0.27235130612E+02 -0.16908833143E+02  0.35994049642E+02  0.51100000000E-03 0.  1.
         11    1    1    0    0    0 -0.11900814371E+02  0.19679039419E+02 -0.13186143756E+02  0.26509778621E+02  0.51100000000E-03 0. -1.
         22    1    1    0    0    0  0.28268790166E+02 -0.46914170031E+02  0.30094976899E+02  0.62496171737E+02  0.00000000000E+00 0.  1.
</event>
<event>
 4    1  0.1956828E-002  0.9118800E+02  0.7818608E-02  0.1130116E+00
         25   -1    0    0    0    0  0.00000000000E+00  0.00000000000E+00  0.99999998245E-14  0.12500000000E+03  0.12500000000E+03 0.  0.
        -11    1    1    0    0    0  0.19974518585E+02 -0.31175440864E+02 -0.19993992114E+01  0.37079470105E+02  0.51100000000E-03 0. -1.
         11    1    1    0    0    0  0.13217681755E+02 -0.21697580005E+02 -0.93118677404E+00  0.25423595303E+02  0.51100000000E-03 0.  1.
         22    1    1    0    0    0 -0.33192200340E+02  0.52873020869E+02  0.29305859854E+01  0.62496934593E+02  0.00000000000E+00 0.  1.
</event>
<event>
 4    1  0.1956828E-002  0.9118800E+02  0.7818608E-02  0.1130116E+00
         25   -1    0    0    0    0  0.00000000000E+00  0.00000000000E+00  0.99999998245E-14  0.12500000000E+03  0.12500000000E+03 0.  0.
        -11    1    1    0    0    0  0.17338536993E+02 -0.28626952026E+02  0.18791186234E+02  0.38382755602E+02  0.51100000000E-03 0.  1.
         11    1    1    0    0    0  0.10898114991E+02 -0.17983300516E+02  0.11809889116E+02  0.24117244639E+02  0.51100000000E-03 0. -1.
         22    1    1    0    0    0 -0.28236651984E+02  0.46610252541E+02 -0.30601075350E+02  0.62499999758E+02  0.00000000000E+00 0. -1.
</event>
<event>
 4    1  0.1956828E-002  0.9118800E+02  0.7818608E-02  0.1130116E+00
         25   -1    0    0    0    0  0.00000000000E+00  0.00000000000E+00  0.99999998245E-14  0.12500000000E+03  0.12500000000E+03 0.  0.
        -11    1    1    0    0    0 -0.61826056549E+01  0.22217891174E+02 -0.47522219468E+00  0.23066970700E+02  0.51100000000E-03 0.  1.
         11    1    1    0    0    0  0.42320104739E+00  0.39579298396E+02  0.39025177077E+01  0.39773478668E+02  0.51100000000E-03 0. -1.
         22    1    1    0    0    0  0.57594046075E+01 -0.61797189570E+02 -0.34272955130E+01  0.62159550631E+02  0.00000000000E+00 0. -1.
</event>
<event>
 4    1  0.1956828E-002  0.9118800E+02  0.7818608E-02  0.1130116E+00
         25   -1    0    0    0    0  0.00000000000E+00  0.00000000000E+00  0.99999998245E-14  0.12500000000E+03  0.12500000000E+03 0.  0.
        -11    1    1    0    0    0  0.69765370776E-01 -0.56216267295E-01 -0.77162209971E+00  0.77680654062E+00  0.51100000000E-03 0.  1.
         11    1    1    0    0    0  0.52474100986E+01 -0.45096776264E+01 -0.61334172165E+02  0.61723198074E+02  0.51100000000E-03 0. -1.
         22    1    1    0    0    0 -0.53171754693E+01  0.45658938937E+01  0.62105794264E+02  0.62499995386E+02  0.00000000000E+00 0. -1.
</event>
<event>
 4    1  0.1956828E-002  0.9118800E+02  0.7818608E-02  0.1130116E+00
         25   -1    0    0    0    0  0.00000000000E+00  0.00000000000E+00  0.99999998245E-14  0.12500000000E+03  0.12500000000E+03 0.  0.
        -11    1    1    0    0    0 -0.63042134450E+00  0.12562560559E+02  0.72342858334E+01  0.14510349777E+02  0.51100000000E-03 0.  1.
         11    1    1    0    0    0 -0.20842775251E+01  0.41547905105E+02  0.23925590849E+02  0.47989650229E+02  0.51100000000E-03 0.  1.
         22    1    1    0    0    0  0.27146988696E+01 -0.54110465664E+02 -0.31159876683E+02  0.62499999994E+02  0.00000000000E+00 0.  1.
</event>
<event>
 4    1  0.1956828E-002  0.9118800E+02  0.7818608E-02  0.1130116E+00
         25   -1    0    0    0    0  0.00000000000E+00  0.00000000000E+00  0.99999998245E-14  0.12500000000E+03  0.12500000000E+03 0.  0.
        -11    1    1    0    0    0  0.30314517840E+02 -0.46433994486E+02 -0.42810351386E+01  0.55618460047E+02  0.51100000000E-03 0. -1.
         11    1    1    0    0    0  0.36531985655E+01 -0.58058268250E+01 -0.55521911199E+00  0.68819876056E+01  0.51100000000E-03 0.  1.
         22    1    1    0    0    0 -0.33967716406E+02  0.52239821311E+02  0.48362542506E+01  0.62499552348E+02  0.00000000000E+00 0. -1.
</event>
<event>
 4    1  0.1956828E-002  0.9118800E+02  0.7818608E-02  0.1130116E+00
         25   -1    0    0    0    0  0.00000000000E+00  0.00000000000E+00  0.99999998245E-14  0.12500000000E+03  0.12500000000E+03 0.  0.
        -11    1    1    0    0    0 -0.46258112192E+01 -0.35064243416E+02 -0.43669499592E+02  0.56195413431E+02  0.51100000000E-03 0. -1.
         11    1    1    0    0    0 -0.14316682641E+01  0.44726594411E+01 -0.75187225564E+01  0.88648488783E+01  0.51100000000E-03 0.  1.
         22    1    1    0    0    0  0.60574794833E+01  0.30591583975E+02  0.51188222148E+02  0.59939737691E+02  0.00000000000E+00 0. -1.
</event>
<event>
 4    1  0.1956828E-002  0.9118800E+02  0.7818608E-02  0.1130116E+00
         25   -1    0    0    0    0  0.00000000000E+00  0.00000000000E+00  0.99999998245E-14  0.12500000000E+03  0.12500000000E+03 0.  0.
        -11    1    1    0    0    0 -0.49430159169E+01 -0.67071424257E+00  0.10372070138E+02  0.11509261625E+02  0.51100000000E-03 0. -1.
         11    1    1    0    0    0 -0.21864254630E+02 -0.29918920114E+01  0.45968016352E+02  0.50990740100E+02  0.51100000000E-03 0. -1.
         22    1    1    0    0    0  0.26807270547E+02  0.36626062539E+01 -0.56340086489E+02  0.62499998275E+02  0.00000000000E+00 0. -1.
</event>
<event>
 4    1  0.1956828E-002  0.9118800E+02  0.7818608E-02  0.1130116E+00
         25   -1    0    0    0    0  0.00000000000E+00  0.00000000000E+00  0.99999998245E-14  0.12500000000E+03  0.12500000000E+03 0.  0.
        -11    1    1    0    0    0  0.21644911464E+01 -0.91669223898E+00 -0.25820519825E+01  0.34917530390E+01  0.51100000000E-03 0.  1.
         11    1    1    0    0    0  0.38127294274E+02 -0.18710888323E+02 -0.40972428316E+02  0.59012945977E+02  0.51100000000E-03 0. -1.
         22    1    1    0    0    0 -0.40291785420E+02  0.19627580562E+02  0.43554480298E+02  0.62495300984E+02  0.00000000000E+00 0. -1.
</event>
<event>
 4    1  0.1956828E-002  0.9118800E+02  0.7818608E-02  0.1130116E+00
         25   -1    0    0    0    0  0.00000000000E+00  0.00000000000E+00  0.99999998245E-14  0.12500000000E+03  0.12500000000E+03 0.  0.
        -11    1    1    0    0    0  0.16450848780E+02  0.17624781796E+02 -0.98718474009E+01  0.26052192428E+02  0.51100000000E-03 0. -1.
         11    1    1    0    0    0  0.29835056730E+02  0.18894880159E+02 -0.10045982816E+02  0.36716057486E+02  0.51100000000E-03 0.  1.
         22    1    1    0    0    0 -0.46285905510E+02 -0.36519661956E+02  0.19917830217E+02  0.62231750086E+02  0.00000000000E+00 0.  1.
</event>
<event>
 4    1  0.1956828E-002  0.9118800E+02  0.7818608E-02  0.1130116E+00
         25   -1    0    0    0    0  0.00000000000E+00  0.00000000000E+00  0.99999998245E-14  0.12500000000E+03  0.12500000000E+03 0.  0.
        -11    1    1    0    0    0  0.29844127216E+02  0.13233498819E+02 -0.34696305899E-01  0.32646571403E+02  0.51100000000E-03 0.  1.
         11    1    1    0    0    0  0.27537639988E+02  0.11523808102E+02 -0.52294118452E+00  0.29856209354E+02  0.51100000000E-03 0. -1.
         22    1    1    0    0    0 -0.57381767204E+02 -0.24757306921E+02  0.55763749042E+00  0.62497219242E+02  0.00000000000E+00 0. -1.
</event>
<event>
 4    1  0.1956828E-002  0.9118800E+02  0.7818608E-02  0.1130116E+00
         25   -1    0    0    0    0  0.00000000000E+00  0.00000000000E+00  0.99999998245E-14  0.12500000000E+03  0.12500000000E+03 0.  0.
        -11    1    1    0    0    0 -0.41092505901E+01 -0.60771950939E+01  0.25597139395E+00  0.73405559896E+01  0.51100000000E-03 0. -1.
         11    1    1    0    0    0 -0.65559579621E+01 -0.52737492905E+02 -0.16627873308E+02  0.55684018476E+02  0.51100000000E-03 0.  1.
         22    1    1    0    0    0  0.10665208552E+02  0.58814687999E+02  0.16371901914E+02  0.61975425534E+02  0.00000000000E+00 0.  1.
</event>
<event>
 4    1  0.1956828E-002  0.9118800E+02  0.7818608E-02  0.1130116E+00
         25   -1    0    0    0    0  0.00000000000E+00  0.00000000000E+00  0.99999998245E-14  0.12500000000E+03  0.12500000000E+03 0.  0.
        -11    1    1    0    0    0  0.39730640431E+02 -0.65587732037E+00  0.10995285880E+02  0.41229240546E+02  0.51100000000E-03 0. -1.
         11    1    1    0    0    0  0.20498057619E+02 -0.33537638630E+00  0.56711875243E+01  0.21270759546E+02  0.51100000000E-03 0.  1.
         22    1    1    0    0    0 -0.60228698050E+02  0.99125370668E+00 -0.16666473404E+02  0.62499999908E+02  0.00000000000E+00 0. -1.
</event>
<event>
 4    1  0.1956828E-002  0.9118800E+02  0.7818608E-02  0.1130116E+00
         25   -1    0    0    0    0  0.00000000000E+00  0.00000000000E+00  0.99999998245E-14  0.12500000000E+03  0.12500000000E+03 0.  0.
        -11    1    1    0    0    0 -0.57112066563E+01  0.55881161952E+01 -0.83430800989E+00  0.80337409840E+01  0.51100000000E-03 0.  1.
         11    1    1    0    0    0 -0.38713346237E+02  0.37892490757E+02 -0.56576802165E+01  0.54466259081E+02  0.51100000000E-03 0. -1.
         22    1    1    0    0    0  0.44424552893E+02 -0.43480606952E+02  0.64919882264E+01  0.62499999935E+02  0.00000000000E+00 0. -1.
</event>
<event>
 4    1  0.1956828E-002  0.9118800E+02  0.7818608E-02  0.1130116E+00
         25   -1    0    0    0    0  0.00000000000E+00  0.00000000000E+00  0.99999998245E-14  0.12500000000E+03  0.12500000000E+03 0.  0.
        -11    1    1    0    0    0 -0.18341282513E+02  0.42951555695E+02  0.34910559240E+02  0.58309398278E+02  0.51100000000E-03 0.  1.
         11    1    1    0    0    0 -0.13214244752E+01  0.30883556447E+01  0.25054044333E+01  0.41906031627E+01  0.51100000000E-03 0. -1.
         22    1    1    0    0    0  0.19662706989E+02 -0.46039911340E+02 -0.37415963673E+02  0.62499998559E+02  0.00000000000E+00 0.  1.
</event>
<event>
 4    1  0.1956828E-002  0.9118800E+02  0.7818608E-02  0.1130116E+00
         25   -1    0    0    0    0  0.00000000000E+00  0.00000000000E+00  0.99999998245E-14  0.12500000000E+03  0.12500000000E+03 0.  0.
        -11    1    1    0    0    0 -0.28482459431E+02 -0.34567433550E+02 -0.20173204583E+01  0.44835561104E+02  0.51100000000E-03 0.  1.
         11    1    1    0    0    0 -0.11221639790E+02 -0.13619022186E+02 -0.79337082355E+00  0.17664438921E+02  0.51100000000E-03 0. -1.
         22    1    1    0    0    0  0.39704099221E+02  0.48186455736E+02  0.28106912818E+01  0.62499999974E+02  0.00000000000E+00 0.  1.
</event>
<event>
 4    1  0.1956828E-002  0.9118800E+02  0.7818608E-02  0.1130116E+00
         25   -1    0    0    0    0  0.00000000000E+00  0.00000000000E+00  0.99999998245E-14  0.12500000000E+03  0.12500000000E+03 0.  0.
        -11    1    1    0    0    0  0.32056156980E+02  0.92266388294E+01 -0.33303357119E+02  0.47136415436E+02  0.51100000000E-03 0.  1.
         11    1    1    0    0    0  0.98020419217E+01  0.17812886543E+01 -0.11739104987E+02  0.15396739956E+02  0.51100000000E-03 0. -1.
         22    1    1    0    0    0 -0.41858198902E+02 -0.11007927484E+02  0.45042462106E+02  0.62466844609E+02  0.00000000000E+00 0.  1.
</event>
<event>
 4    1  0.1956828E-002  0.9118800E+02  0.7818608E-02  0.1130116E+00
         25   -1    0    0    0    0  0.00000000000E+00  0.00000000000E+00  0.99999998245E-14  0.12500000000E+03  0.12500000000E+03 0.  0.
        -11    1    1    0    0    0  0.73066103803E+01  0.62151225598E+01 -0.72660546528E+00  0.96198887440E+01  0.51100000000E-03 0.  1.
         11    1    1    0    0    0  0.40209502966E+02  0.34164945707E+02 -0.35038803517E+01  0.52880287648E+02  0.51100000000E-03 0. -1.
         22    1    1    0    0    0 -0.47516113347E+02 -0.40380068267E+02  0.42304858169E+01  0.62499823608E+02  0.00000000000E+00 0. -1.
</event>
<event>
 4    1  0.1956828E-002  0.9118800E+02  0.7818608E-02  0.1130116E+00
         25   -1    0    0    0    0  0.00000000000E+00  0.00000000000E+00  0.99999998245E-14  0.12500000000E+03  0.12500000000E+03 0.  0.
        -11    1    1    0    0    0 -0.29949544252E+02 -0.82837775462E+01 -0.15767823675E+02  0.34845665943E+02  0.51100000000E-03 0. -1.
         11    1    1    0    0    0 -0.23769031005E+02 -0.65735831914E+01 -0.12513327350E+02  0.27654334064E+02  0.51100000000E-03 0. -1.
         22    1    1    0    0    0  0.53718575257E+02  0.14857360738E+02  0.28281151025E+02  0.62499999992E+02  0.00000000000E+00 0. -1.
</event>
<event>
 4    1  0.1956828E-002  0.9118800E+02  0.7818608E-02  0.1130116E+00
         25   -1    0    0    0    0  0.00000000000E+00  0.00000000000E+00  0.99999998245E-14  0.12500000000E+03  0.12500000000E+03 0.  0.
        -11    1    1    0    0    0 -0.19847569527E+01  0.53764761337E+01 -0.16063377954E+01  0.59519809435E+01  0.51100000000E-03 0.  1.
         11    1    1    0    0    0 -0.18976560634E+02  0.51061786476E+02 -0.15174440023E+02  0.56548028452E+02  0.51100000000E-03 0. -1.
         22    1    1    0    0    0  0.20961317587E+02 -0.56438262609E+02  0.16780777819E+02  0.62499990604E+02  0.00000000000E+00 0. -1.
</event>
<event>
 4    1  0.1956828E-002  0.9118800E+02  0.7818608E-02  0.1130116E+00
         25   -1    0    0    0    0  0.00000000000E+00  0.00000000000E+00  0.99999998245E-14  0.12500000000E+03  0.12500000000E+03 0.  0.
        -11    1    1    0    0    0 -0.23119033776E+01 -0.10476129328E+02 -0.14037200745E+02  0.17667404675E+02  0.51100000000E-03 0.  1.
         11    1    1    0    0    0 -0.19799275058E+02 -0.19987887040E+02 -0.35385717578E+02  0.45207034076E+02  0.51100000000E-03 0. -1.
         22    1    1    0    0    0  0.22111178435E+02  0.30464016368E+02  0.49422918323E+02  0.62125561250E+02  0.00000000000E+00 0. -1.
</event>
<event>
 4    1  0.1956828E-002  0.9118800E+02  0.7818608E-02  0.1130116E+00
         25   -1    0    0    0    0  0.00000000000E+00  0.00000000000E+00  0.99999998245E-14  0.12500000000E+03  0.12500000000E+03 0.  0.
        -11    1    1    0    0    0  0.12327018764E+02  0.29021543178E+02  0.73697062882E+00  0.31539633574E+02  0.51100000000E-03 0. -1.
         11    1    1    0    0    0  0.12185607217E+02  0.28449686699E+02  0.82172592532E+00  0.30960441377E+02  0.51100000000E-03 0.  1.
         22    1    1    0    0    0 -0.24512625981E+02 -0.57471229877E+02 -0.15586965541E+01  0.62499925048E+02  0.00000000000E+00 0.  1.
</event>
<event>
 4    1  0.1956828E-002  0.9118800E+02  0.7818608E-02  0.1130116E+00
         25   -1    0    0    0    0  0.00000000000E+00  0.00000000000E+00  0.99999998245E-14  0.12500000000E+03  0.12500000000E+03 0.  0.
        -11    1    1    0    0    0  0.83266443768E+01 -0.22551379956E+02 -0.17483159575E+02  0.29724713850E+02  0.51100000000E-03 0. -1.
         11    1    1    0    0    0 -0.97703532490E+00 -0.23417893150E+02 -0.23545446379E+02  0.33222588145E+02  0.51100000000E-03 0.  1.
         22    1    1    0    0    0 -0.73496090519E+01  0.45969273106E+02  0.41028605954E+02  0.62052698005E+02  0.00000000000E+00 0.  1.
</event>
<event>
 4    1  0.1956828E-002  0.9118800E+02  0.7818608E-02  0.1130116E+00
         25   -1    0    0    0    0  0.00000000000E+00  0.00000000000E+00  0.99999998245E-14  0.12500000000E+03  0.12500000000E+03 0.  0.
        -11    1    1    0    0    0 -0.38410318452E+01 -0.57224864542E+02 -0.20429859805E+02  0.60883641641E+02  0.51100000000E-03 0.  1.
         11    1    1    0    0    0  0.19936997908E+01  0.28967957761E+01 -0.32821506108E+01  0.48102783202E+01  0.51100000000E-03 0. -1.
         22    1    1    0    0    0  0.18473320543E+01  0.54328068766E+02  0.23712010416E+02  0.59306080039E+02  0.00000000000E+00 0.  1.
</event>
<event>
 4    1  0.1956828E-002  0.9118800E+02  0.7818608E-02  0.1130116E+00
         25   -1    0    0    0    0  0.00000000000E+00  0.00000000000E+00  0.99999998245E-14  0.12500000000E+03  0.12500000000E+03 0.  0.
        -11    1    1    0    0    0 -0.88916342035E+01  0.34638599030E+02  0.48424169976E+02  0.60197956275E+02  0.51100000000E-03 0.  1.
         11    1    1    0    0    0 -0.61324551267E+00  0.12417170541E+01  0.18495333182E+01  0.23105637965E+01  0.51100000000E-03 0. -1.
         22    1    1    0    0    0  0.95048797162E+01 -0.35880316085E+02 -0.50273703294E+02  0.62491479928E+02  0.00000000000E+00 0.  1.
</event>
<event>
 4    1  0.1956828E-002  0.9118800E+02  0.7818608E-02  0.1130116E+00
         25   -1    0    0    0    0  0.00000000000E+00  0.00000000000E+00  0.99999998245E-14  0.12500000000E+03  0.12500000000E+03 0.  0.
        -11    1    1    0    0    0  0.40418691664E+02  0.10347130154E+02  0.45845525012E+02  0.61988272295E+02  0.51100000000E-03 0.  1.
         11    1    1    0    0    0 -0.41373235774E+00  0.66085867199E+00  0.40394601660E+00  0.87811234681E+00  0.51100000000E-03 0. -1.
         22    1    1    0    0    0 -0.40004959306E+02 -0.11007988826E+02 -0.46249471028E+02  0.62133615358E+02  0.00000000000E+00 0.  1.
</event>
<event>
 4    1  0.1956828E-002  0.9118800E+02  0.7818608E-02  0.1130116E+00
         25   -1    0    0    0    0  0.00000000000E+00  0.00000000000E+00  0.99999998245E-14  0.12500000000E+03  0.12500000000E+03 0.  0.
        -11    1    1    0    0    0 -0.31883775014E+02  0.29408030930E+02 -0.17566423972E+02  0.46797293124E+02  0.51100000000E-03 0.  1.
         11    1    1    0    0    0 -0.16194105749E+02  0.47820252005E+01  0.95039231589E+00  0.16912127951E+02  0.51100000000E-03 0. -1.
         22    1    1    0    0    0  0.48077880763E+02 -0.34190056130E+02  0.16616031657E+02  0.61290578924E+02  0.00000000000E+00 0.  1.
</event>
<event>
 4    1  0.1956828E-002  0.9118800E+02  0.7818608E-02  0.1130116E+00
         25   -1    0    0    0    0  0.00000000000E+00  0.00000000000E+00  0.99999998245E-14  0.12500000000E+03  0.12500000000E+03 0.  0.
        -11    1    1    0    0    0  0.64404319510E+01  0.46232544469E+00  0.18624008769E+01  0.67202266196E+01  0.51100000000E-03 0.  1.
         11    1    1    0    0    0  0.52870052473E+02  0.43998226191E+01  0.17233314907E+02  0.55781610146E+02  0.51100000000E-03 0. -1.
         22    1    1    0    0    0 -0.59310484424E+02 -0.48621480638E+01 -0.19095715784E+02  0.62498163234E+02  0.00000000000E+00 0. -1.
</event>
<event>
 4    1  0.1956828E-002  0.9118800E+02  0.7818608E-02  0.1130116E+00
         25   -1    0    0    0    0  0.00000000000E+00  0.00000000000E+00  0.99999998245E-14  0.12500000000E+03  0.12500000000E+03 0.  0.
        -11    1    1    0    0    0 -0.31909902005E+01 -0.50000334659E+01 -0.11295121962E+01  0.60380916838E+01  0.51100000000E-03 0.  1.
         11    1    1    0    0    0 -0.31673609911E+02 -0.45767674914E+02 -0.95033320668E+01  0.56464244903E+02  0.51100000000E-03 0. -1.
         22    1    1    0    0    0  0.34864600111E+02  0.50767708380E+02  0.10632844263E+02  0.62497663414E+02  0.00000000000E+00 0. -1.
</event>
<event>
 4    1  0.1956828E-002  0.9118800E+02  0.7818608E-02  0.1130116E+00
         25   -1    0    0    0    0  0.00000000000E+00  0.00000000000E+00  0.99999998245E-14  0.12500000000E+03  0.12500000000E+03 0.  0.
        -11    1    1    0    0    0  0.39738800917E+02 -0.35674048080E+02 -0.63565317007E+01  0.53779322237E+02  0.51100000000E-03 0. -1.
         11    1    1    0    0    0  0.64370045758E+01 -0.57917385996E+01 -0.10348938686E+01  0.87206805638E+01  0.51100000000E-03 0.  1.
         22    1    1    0    0    0 -0.46175805493E+02  0.41465786680E+02  0.73914255694E+01  0.62499997199E+02  0.00000000000E+00 0. -1.
</event>
<event>
 4    1  0.1956828E-002  0.9118800E+02  0.7818608E-02  0.1130116E+00
         25   -1    0    0    0    0  0.00000000000E+00  0.00000000000E+00  0.99999998245E-14  0.12500000000E+03  0.12500000000E+03 0.  0.
        -11    1    1    0    0    0 -0.15866714976E+02  0.31738311121E+02  0.54061693820E+01  0.35892892118E+02  0.51100000000E-03 0. -1.
         11    1    1    0    0    0 -0.11771404688E+02  0.23520705065E+02  0.40185480312E+01  0.26607109268E+02  0.51100000000E-03 0.  1.
         22    1    1    0    0    0  0.27638119664E+02 -0.55259016186E+02 -0.94247174132E+01  0.62499998614E+02  0.00000000000E+00 0. -1.
</event>
<event>
 4    1  0.1956828E-002  0.9118800E+02  0.7818608E-02  0.1130116E+00
         25   -1    0    0    0    0  0.00000000000E+00  0.00000000000E+00  0.99999998245E-14  0.12500000000E+03  0.12500000000E+03 0.  0.
        -11    1    1    0    0    0 -0.38101246630E+02 -0.37883486948E+01 -0.26362389355E+02  0.46486903031E+02  0.51100000000E-03 0. -1.
         11    1    1    0    0    0 -0.13122836901E+02 -0.13012047119E+01 -0.90839034594E+01  0.16013097275E+02  0.51100000000E-03 0.  1.
         22    1    1    0    0    0  0.51224083531E+02  0.50895534067E+01  0.35446292814E+02  0.62499999694E+02  0.00000000000E+00 0. -1.
</event>
<event>
 4    1  0.1956828E-002  0.9118800E+02  0.7818608E-02  0.1130116E+00
         25   -1    0    0    0    0  0.00000000000E+00  0.00000000000E+00  0.99999998245E-14  0.12500000000E+03  0.12500000000E+03 0.  0.
        -11    1    1    0    0    0 -0.10651102708E+02 -0.47117167588E+01  0.43450530299E+02  0.44984384482E+02  0.51100000000E-03 0. -1.
         11    1    1    0    0    0 -0.41967650721E+01 -0.19165696792E+01  0.16897164647E+02  0.17515714367E+02  0.51100000000E-03 0.  1.
         22    1    1    0    0    0  0.14847867780E+02  0.66282864380E+01 -0.60347694946E+02  0.62499901152E+02  0.00000000000E+00 0. -1.
</event>
<event>
 4    1  0.1956828E-002  0.9118800E+02  0.7818608E-02  0.1130116E+00
         25   -1    0    0    0    0  0.00000000000E+00  0.00000000000E+00  0.99999998245E-14  0.12500000000E+03  0.12500000000E+03 0.  0.
        -11    1    1    0    0    0 -0.42798272870E+02  0.18267892054E+02 -0.39004208772E+01  0.46697123295E+02  0.51100000000E-03 0. -1.
         11    1    1    0    0    0 -0.15451510945E+02  0.12662677244E+01  0.64980724608E+01  0.16810043736E+02  0.51100000000E-03 0.  1.
         22    1    1    0    0    0  0.58249783815E+02 -0.19534159779E+02 -0.25976515836E+01  0.61492832969E+02  0.00000000000E+00 0. -1.
</event>
<event>
 4    1  0.1956828E-002  0.9118800E+02  0.7818608E-02  0.1130116E+00
         25   -1    0    0    0    0  0.00000000000E+00  0.00000000000E+00  0.99999998245E-14  0.12500000000E+03  0.12500000000E+03 0.  0.
        -11    1    1    0    0    0  0.73805257149E+01  0.12073056534E+02  0.51311087063E+01  0.15051881302E+02  0.51100000000E-03 0. -1.
         11    1    1    0    0    0  0.23259506943E+02  0.38047084403E+02  0.16209220672E+02  0.47448120404E+02  0.51100000000E-03 0.  1.
         22    1    1    0    0    0 -0.30640032658E+02 -0.50120140937E+02 -0.21340329378E+02  0.62499998294E+02  0.00000000000E+00 0.  1.
</event>
<event>
 4    1  0.1956828E-002  0.9118800E+02  0.7818608E-02  0.1130116E+00
         25   -1    0    0    0    0  0.00000000000E+00  0.00000000000E+00  0.99999998245E-14  0.12500000000E+03  0.12500000000E+03 0.  0.
        -11    1    1    0    0    0  0.21115972734E+02 -0.48436043744E+02  0.80511575807E+01  0.53448627454E+02  0.51100000000E-03 0. -1.
         11    1    1    0    0    0  0.35723582998E+01 -0.82073515162E+01  0.13435648595E+01  0.90513827411E+01  0.51100000000E-03 0.  1.
         22    1    1    0    0    0 -0.24688331033E+02  0.56643395261E+02 -0.93947224402E+01  0.62499989805E+02  0.00000000000E+00 0. -1.
</event>
<event>
 4    1  0.1956828E-002  0.9118800E+02  0.7818608E-02  0.1130116E+00
         25   -1    0    0    0    0  0.00000000000E+00  0.00000000000E+00  0.99999998245E-14  0.12500000000E+03  0.12500000000E+03 0.  0.
        -11    1    1    0    0    0 -0.34579409426E+02 -0.11481347715E+02 -0.28953000250E+01  0.36550508397E+02  0.51100000000E-03 0. -1.
         11    1    1    0    0    0 -0.24549075795E+02 -0.81182507240E+01 -0.21952270337E+01  0.25949607689E+02  0.51100000000E-03 0.  1.
         22    1    1    0    0    0  0.59128485221E+02  0.19599598439E+02  0.50905270587E+01  0.62499883914E+02  0.00000000000E+00 0. -1.
</event>
<event>
 4    1  0.1956828E-002  0.9118800E+02  0.7818608E-02  0.1130116E+00
         25   -1    0    0    0    0  0.00000000000E+00  0.00000000000E+00  0.99999998245E-14  0.12500000000E+03  0.12500000000E+03 0.  0.
        -11    1    1    0    0    0  0.58525463132E+00 -0.61282205335E+00 -0.14317576436E+01  0.16637319687E+01  0.51100000000E-03 0.  1.
         11    1    1    0    0    0  0.21446465539E+02 -0.22345032709E+02 -0.52362202250E+02  0.60836268752E+02  0.51100000000E-03 0. -1.
         22    1    1    0    0    0 -0.22031720170E+02  0.22957854762E+02  0.53793959894E+02  0.62499999280E+02  0.00000000000E+00 0. -1.
</event>
<event>
 4    1  0.1956828E-002  0.9118800E+02  0.7818608E-02  0.1130116E+00
         25   -1    0    0    0    0  0.00000000000E+00  0.00000000000E+00  0.99999998245E-14  0.12500000000E+03  0.12500000000E+03 0.  0.
        -11    1    1    0    0    0  0.22834469827E+02  0.39294150653E+02  0.23614674490E+02  0.51216170683E+02  0.51100000000E-03 0. -1.
         11    1    1    0    0    0  0.50683391736E+01  0.86593198737E+01  0.51627660986E+01  0.11283883937E+02  0.51100000000E-03 0.  1.
         22    1    1    0    0    0 -0.27902809001E+02 -0.47953470527E+02 -0.28777440588E+02  0.62499945380E+02  0.00000000000E+00 0. -1.
</event>
<event>
 4    1  0.1956828E-002  0.9118800E+02  0.7818608E-02  0.1130116E+00
         25   -1    0    0    0    0  0.00000000000E+00  0.00000000000E+00  0.99999998245E-14  0.12500000000E+03  0.12500000000E+03 0.  0.
        -11    1    1    0    0    0  0.18868166252E+02  0.63903067324E+01 -0.29509075085E+02  0.35603781126E+02  0.51100000000E-03 0.  1.
         11    1    1    0    0    0  0.14009342612E+02  0.45369778026E+01 -0.22508110974E+02  0.26897228628E+02  0.51100000000E-03 0. -1.
         22    1    1    0    0    0 -0.32877508864E+02 -0.10927284535E+02  0.52017186058E+02  0.62498990246E+02  0.00000000000E+00 0. -1.
</event>
<event>
 4    1  0.1956828E-002  0.9118800E+02  0.7818608E-02  0.1130116E+00
         25   -1    0    0    0    0  0.00000000000E+00  0.00000000000E+00  0.99999998245E-14  0.12500000000E+03  0.12500000000E+03 0.  0.
        -11    1    1    0    0    0 -0.31167314284E+02 -0.32945085286E+02  0.18097881099E+02  0.48829431952E+02  0.51100000000E-03 0.  1.
         11    1    1    0    0    0 -0.87257328106E+01 -0.92231531360E+01  0.50674909036E+01  0.13670568063E+02  0.51100000000E-03 0. -1.
         22    1    1    0    0    0  0.39893047095E+02  0.42168238422E+02 -0.23165372002E+02  0.62499999985E+02  0.00000000000E+00 0.  1.
</event>
<event>
 4    1  0.1956828E-002  0.9118800E+02  0.7818608E-02  0.1130116E+00
         25   -1    0    0    0    0  0.00000000000E+00  0.00000000000E+00  0.99999998245E-14  0.12500000000E+03  0.12500000000E+03 0.  0.
        -11    1    1    0    0    0  0.14431042849E+02  0.43865968841E+02  0.31008191805E+02  0.55623611707E+02  0.51100000000E-03 0. -1.
         11    1    1    0    0    0  0.17951240052E+01  0.54297157705E+01  0.38184560600E+01  0.68764009834E+01  0.51100000000E-03 0.  1.
         22    1    1    0    0    0 -0.16226166854E+02 -0.49295684612E+02 -0.34826647865E+02  0.62499987309E+02  0.00000000000E+00 0. -1.
</event>
<event>
 4    1  0.1956828E-002  0.9118800E+02  0.7818608E-02  0.1130116E+00
         25   -1    0    0    0    0  0.00000000000E+00  0.00000000000E+00  0.99999998245E-14  0.12500000000E+03  0.12500000000E+03 0.  0.
        -11    1    1    0    0    0  0.35692595963E+02 -0.37044254705E+02 -0.12263249292E+02  0.52883130549E+02  0.51100000000E-03 0. -1.
         11    1    1    0    0    0  0.64956416169E+01 -0.67293989796E+01 -0.22374230259E+01  0.96168722930E+01  0.51100000000E-03 0.  1.
         22    1    1    0    0    0 -0.42188237580E+02  0.43773653685E+02  0.14500672318E+02  0.62499997158E+02  0.00000000000E+00 0. -1.
</event>
<event>
 4    1  0.1956828E-002  0.9118800E+02  0.7818608E-02  0.1130116E+00
         25   -1    0    0    0    0  0.00000000000E+00  0.00000000000E+00  0.99999998245E-14  0.12500000000E+03  0.12500000000E+03 0.  0.
        -11    1    1    0    0    0 -0.46404157182E+00 -0.13538458153E+02  0.78634939685E+01  0.15663324085E+02  0.51100000000E-03 0.  1.
         11    1    1    0    0    0 -0.13939888531E+01 -0.40482580081E+02  0.23513649679E+02  0.46836675975E+02  0.51100000000E-03 0. -1.
         22    1    1    0    0    0  0.18580304249E+01  0.54021038234E+02 -0.31377143647E+02  0.62499999939E+02  0.00000000000E+00 0. -1.
</event>
<event>
 4    1  0.1956828E-002  0.9118800E+02  0.7818608E-02  0.1130116E+00
         25   -1    0    0    0    0  0.00000000000E+00  0.00000000000E+00  0.99999998245E-14  0.12500000000E+03  0.12500000000E+03 0.  0.
        -11    1    1    0    0    0 -0.12060845921E+02  0.26314523368E+02 -0.10994908480E+01  0.28967689324E+02  0.51100000000E-03 0.  1.
         11    1    1    0    0    0 -0.22742143247E+02  0.24614254696E+02 -0.56297033595E+01  0.33981762372E+02  0.51100000000E-03 0. -1.
         22    1    1    0    0    0  0.34802989168E+02 -0.50928778064E+02  0.67291942075E+01  0.62050548304E+02  0.00000000000E+00 0.  1.
</event>
<event>
 4    1  0.1956828E-002  0.9118800E+02  0.7818608E-02  0.1130116E+00
         25   -1    0    0    0    0  0.00000000000E+00  0.00000000000E+00  0.99999998245E-14  0.12500000000E+03  0.12500000000E+03 0.  0.
        -11    1    1    0    0    0  0.23684869264E+02 -0.25565625598E+02  0.23816746509E+02  0.42211510975E+02  0.51100000000E-03 0.  1.
         11    1    1    0    0    0  0.11434259849E+02 -0.12336909947E+02  0.11344003367E+02  0.20288618927E+02  0.51100000000E-03 0. -1.
         22    1    1    0    0    0 -0.35119129113E+02  0.37902535545E+02 -0.35160749876E+02  0.62499870098E+02  0.00000000000E+00 0.  1.
</event>
<event>
 4    1  0.1956828E-002  0.9118800E+02  0.7818608E-02  0.1130116E+00
         25   -1    0    0    0    0  0.00000000000E+00  0.00000000000E+00  0.99999998245E-14  0.12500000000E+03  0.12500000000E+03 0.  0.
        -11    1    1    0    0    0 -0.13471731376E+02 -0.83583159602E+01 -0.25097202615E+02  0.29685325859E+02  0.51100000000E-03 0. -1.
         11    1    1    0    0    0 -0.14907764190E+02 -0.92319856621E+01 -0.27736833423E+02  0.32814675391E+02  0.51100000000E-03 0.  1.
         22    1    1    0    0    0  0.28379495566E+02  0.17590301622E+02  0.52834036038E+02  0.62499998751E+02  0.00000000000E+00 0.  1.
</event>
<event>
 4    1  0.1956828E-002  0.9118800E+02  0.7818608E-02  0.1130116E+00
         25   -1    0    0    0    0  0.00000000000E+00  0.00000000000E+00  0.99999998245E-14  0.12500000000E+03  0.12500000000E+03 0.  0.
        -11    1    1    0    0    0 -0.43712255009E+00 -0.14592400191E+01 -0.17384645498E+01  0.23114317661E+01  0.51100000000E-03 0. -1.
         11    1    1    0    0    0 -0.10161057075E+02 -0.37374696728E+02 -0.46071633357E+02  0.60188956103E+02  0.51100000000E-03 0.  1.
         22    1    1    0    0    0  0.10598179625E+02  0.38833936747E+02  0.47810097907E+02  0.62499612131E+02  0.00000000000E+00 0.  1.
</event>
<event>
 4    1  0.1956828E-002  0.9118800E+02  0.7818608E-02  0.1130116E+00
         25   -1    0    0    0    0  0.00000000000E+00  0.00000000000E+00  0.99999998245E-14  0.12500000000E+03  0.12500000000E+03 0.  0.
        -11    1    1    0    0    0 -0.57930644870E+01  0.41855674879E+02  0.52320552300E+00  0.42257908846E+02  0.51100000000E-03 0. -1.
         11    1    1    0    0    0 -0.27714276368E+01  0.20049731245E+02  0.26417113578E+00  0.20242092797E+02  0.51100000000E-03 0.  1.
         22    1    1    0    0    0  0.85644921238E+01 -0.61905406124E+02 -0.78737665878E+00  0.62499998358E+02  0.00000000000E+00 0. -1.
</event>
<event>
 4    1  0.1956828E-002  0.9118800E+02  0.7818608E-02  0.1130116E+00
         25   -1    0    0    0    0  0.00000000000E+00  0.00000000000E+00  0.99999998245E-14  0.12500000000E+03  0.12500000000E+03 0.  0.
        -11    1    1    0    0    0  0.25933470211E+02 -0.17786848844E+02  0.14891307996E+01  0.31482286762E+02  0.51100000000E-03 0.  1.
         11    1    1    0    0    0  0.25916868965E+02 -0.17012605544E+02  0.10615321912E+01  0.31019988639E+02  0.51100000000E-03 0. -1.
         22    1    1    0    0    0 -0.51850339176E+02  0.34799454388E+02 -0.25506629908E+01  0.62497724599E+02  0.00000000000E+00 0.  1.
</event>
<event>
 4    1  0.1956828E-002  0.9118800E+02  0.7818608E-02  0.1130116E+00
         25   -1    0    0    0    0  0.00000000000E+00  0.00000000000E+00  0.99999998245E-14  0.12500000000E+03  0.12500000000E+03 0.  0.
        -11    1    1    0    0    0  0.16990744761E+02 -0.22391705401E+01  0.21005675160E+02  0.27109734071E+02  0.51100000000E-03 0.  1.
         11    1    1    0    0    0  0.22179865498E+02 -0.29159013842E+01  0.27423019889E+02  0.35390266098E+02  0.51100000000E-03 0. -1.
         22    1    1    0    0    0 -0.39170610259E+02  0.51550719244E+01 -0.48428695049E+02  0.62499999830E+02  0.00000000000E+00 0. -1.
</event>
<event>
 4    1  0.1956828E-002  0.9118800E+02  0.7818608E-02  0.1130116E+00
         25   -1    0    0    0    0  0.00000000000E+00  0.00000000000E+00  0.99999998245E-14  0.12500000000E+03  0.12500000000E+03 0.  0.
        -11    1    1    0    0    0 -0.38043839646E+00 -0.25098795570E+02 -0.24376559487E+02  0.34990154689E+02  0.51100000000E-03 0.  1.
         11    1    1    0    0    0 -0.30300920287E+00 -0.19728679053E+02 -0.19169742112E+02  0.27509845595E+02  0.51100000000E-03 0. -1.
         22    1    1    0    0    0  0.68344759933E+00  0.44827474623E+02  0.43546301599E+02  0.62499999717E+02  0.00000000000E+00 0. -1.
</event>
<event>
 4    1  0.1956828E-002  0.9118800E+02  0.7818608E-02  0.1130116E+00
         25   -1    0    0    0    0  0.00000000000E+00  0.00000000000E+00  0.99999998245E-14  0.12500000000E+03  0.12500000000E+03 0.  0.
        -11    1    1    0    0    0 -0.24669570359E+02 -0.19605745094E+02 -0.73540128731E+01  0.32358220717E+02  0.51100000000E-03 0.  1.
         11    1    1    0    0    0 -0.23072139625E+02 -0.17870216778E+02 -0.75516919535E+01  0.30144590331E+02  0.51100000000E-03 0. -1.
         22    1    1    0    0    0  0.47741709984E+02  0.37475961873E+02  0.14905704827E+02  0.62497188952E+02  0.00000000000E+00 0. -1.
</event>
<event>
 4    1  0.1956828E-002  0.9118800E+02  0.7818608E-02  0.1130116E+00
         25   -1    0    0    0    0  0.00000000000E+00  0.00000000000E+00  0.99999998245E-14  0.12500000000E+03  0.12500000000E+03 0.  0.
        -11    1    1    0    0    0  0.26120913805E+02  0.66278454866E+01  0.43945806100E+01  0.27304629879E+02  0.51100000000E-03 0. -1.
         11    1    1    0    0    0  0.33672144258E+02  0.85413225272E+01  0.56521345154E+01  0.35195370637E+02  0.51100000000E-03 0.  1.
         22    1    1    0    0    0 -0.59793058063E+02 -0.15169168014E+02 -0.10046715125E+02  0.62499999484E+02  0.00000000000E+00 0. -1.
</event>
<event>
 4    1  0.1956828E-002  0.9118800E+02  0.7818608E-02  0.1130116E+00
         25   -1    0    0    0    0  0.00000000000E+00  0.00000000000E+00  0.99999998245E-14  0.12500000000E+03  0.12500000000E+03 0.  0.
        -11    1    1    0    0    0 -0.42103131583E+01 -0.17097918992E+02  0.24052123294E+02  0.29808894746E+02  0.51100000000E-03 0. -1.
         11    1    1    0    0    0 -0.85443968704E+01 -0.10229776270E+02  0.30261382024E+02  0.33066694463E+02  0.51100000000E-03 0.  1.
         22    1    1    0    0    0  0.12754710029E+02  0.27327695263E+02 -0.54313505318E+02  0.62124410792E+02  0.00000000000E+00 0. -1.
</event>
<event>
 4    1  0.1956828E-002  0.9118800E+02  0.7818608E-02  0.1130116E+00
         25   -1    0    0    0    0  0.00000000000E+00  0.00000000000E+00  0.99999998245E-14  0.12500000000E+03  0.12500000000E+03 0.  0.
        -11    1    1    0    0    0  0.14012991423E+02  0.24354036563E+02  0.17464495063E+02  0.33083101632E+02  0.51100000000E-03 0.  1.
         11    1    1    0    0    0  0.13806966437E+02  0.19852095780E+02  0.16804390504E+02  0.29446995934E+02  0.51100000000E-03 0. -1.
         22    1    1    0    0    0 -0.27819957860E+02 -0.44206132343E+02 -0.34268885567E+02  0.62469902434E+02  0.00000000000E+00 0.  1.
</event>
<event>
 4    1  0.1956828E-002  0.9118800E+02  0.7818608E-02  0.1130116E+00
         25   -1    0    0    0    0  0.00000000000E+00  0.00000000000E+00  0.99999998245E-14  0.12500000000E+03  0.12500000000E+03 0.  0.
        -11    1    1    0    0    0  0.70033156481E+01 -0.22151805632E+02 -0.17473699489E+02  0.29070244184E+02  0.51100000000E-03 0.  1.
         11    1    1    0    0    0  0.79944263390E+01 -0.25429690429E+02 -0.20173529630E+02  0.33429796676E+02  0.51100000000E-03 0. -1.
         22    1    1    0    0    0 -0.14997741987E+02  0.47581496061E+02  0.37647229120E+02  0.62499959140E+02  0.00000000000E+00 0.  1.
</event>
<event>
 4    1  0.1956828E-002  0.9118800E+02  0.7818608E-02  0.1130116E+00
         25   -1    0    0    0    0  0.00000000000E+00  0.00000000000E+00  0.99999998245E-14  0.12500000000E+03  0.12500000000E+03 0.  0.
        -11    1    1    0    0    0 -0.30764912834E+01 -0.23113769370E+02 -0.81008413612E+01  0.24684707090E+02  0.51100000000E-03 0. -1.
         11    1    1    0    0    0 -0.52503618298E+01 -0.35218738989E+02 -0.12734025339E+02  0.37816415443E+02  0.51100000000E-03 0.  1.
         22    1    1    0    0    0  0.83268531132E+01  0.58332508359E+02  0.20834866701E+02  0.62498877467E+02  0.00000000000E+00 0.  1.
</event>
<event>
 4    1  0.1956828E-002  0.9118800E+02  0.7818608E-02  0.1130116E+00
         25   -1    0    0    0    0  0.00000000000E+00  0.00000000000E+00  0.99999998245E-14  0.12500000000E+03  0.12500000000E+03 0.  0.
        -11    1    1    0    0    0 -0.32722133583E+02  0.28475564419E+02 -0.26400399222E+02  0.50779689587E+02  0.51100000000E-03 0. -1.
         11    1    1    0    0    0 -0.75519875311E+01  0.65636480000E+01 -0.61034217535E+01  0.11720313481E+02  0.51100000000E-03 0.  1.
         22    1    1    0    0    0  0.40274121114E+02 -0.35039212419E+02  0.32503820975E+02  0.62499996932E+02  0.00000000000E+00 0. -1.
</event>
<event>
 4    1  0.1956828E-002  0.9118800E+02  0.7818608E-02  0.1130116E+00
         25   -1    0    0    0    0  0.00000000000E+00  0.00000000000E+00  0.99999998245E-14  0.12500000000E+03  0.12500000000E+03 0.  0.
        -11    1    1    0    0    0  0.14151524814E+02  0.31875548183E+02  0.39443693208E+01  0.35098066559E+02  0.51100000000E-03 0.  1.
         11    1    1    0    0    0  0.11303060293E+02  0.24723066789E+02  0.34557442499E+01  0.27403127048E+02  0.51100000000E-03 0. -1.
         22    1    1    0    0    0 -0.25454585107E+02 -0.56598614972E+02 -0.74001135708E+01  0.62498806393E+02  0.00000000000E+00 0.  1.
</event>
<event>
 4    1  0.1956828E-002  0.9118800E+02  0.7818608E-02  0.1130116E+00
         25   -1    0    0    0    0  0.00000000000E+00  0.00000000000E+00  0.99999998245E-14  0.12500000000E+03  0.12500000000E+03 0.  0.
        -11    1    1    0    0    0 -0.42107420706E+01 -0.35134664838E+01  0.98207071684E+00  0.55712887802E+01  0.51100000000E-03 0. -1.
         11    1    1    0    0    0 -0.42278143893E+02 -0.36563279217E+02  0.10799715827E+02  0.56929330756E+02  0.51100000000E-03 0.  1.
         22    1    1    0    0    0  0.46488885964E+02  0.40076745701E+02 -0.11781786544E+02  0.62499380463E+02  0.00000000000E+00 0.  1.
</event>
<event>
 4    1  0.1956828E-002  0.9118800E+02  0.7818608E-02  0.1130116E+00
         25   -1    0    0    0    0  0.00000000000E+00  0.00000000000E+00  0.99999998245E-14  0.12500000000E+03  0.12500000000E+03 0.  0.
        -11    1    1    0    0    0  0.12054645965E+02 -0.20473277225E+02 -0.40636772662E+02  0.47072463950E+02  0.51100000000E-03 0. -1.
         11    1    1    0    0    0  0.23457920939E+02 -0.22939347408E+01  0.20256754390E+02  0.31078485968E+02  0.51100000000E-03 0.  1.
         22    1    1    0    0    0 -0.35512566904E+02  0.22767211966E+02  0.20380018272E+02  0.46849050082E+02  0.00000000000E+00 0. -1.
</event>
<event>
 4    1  0.1956828E-002  0.9118800E+02  0.7818608E-02  0.1130116E+00
         25   -1    0    0    0    0  0.00000000000E+00  0.00000000000E+00  0.99999998245E-14  0.12500000000E+03  0.12500000000E+03 0.  0.
        -11    1    1    0    0    0 -0.51424495854E+01 -0.10015077315E+02  0.12501441078E+01  0.11327374891E+02  0.51100000000E-03 0.  1.
         11    1    1    0    0    0 -0.23192128464E+02 -0.45269638667E+02  0.56056144330E+01  0.51172628633E+02  0.51100000000E-03 0. -1.
         22    1    1    0    0    0  0.28334578049E+02  0.55284715982E+02 -0.68557585408E+01  0.62499996477E+02  0.00000000000E+00 0. -1.
</event>
<event>
 4    1  0.1956828E-002  0.9118800E+02  0.7818608E-02  0.1130116E+00
         25   -1    0    0    0    0  0.00000000000E+00  0.00000000000E+00  0.99999998245E-14  0.12500000000E+03  0.12500000000E+03 0.  0.
        -11    1    1    0    0    0  0.30808782803E+01 -0.26894187598E+00  0.51182612797E+01  0.59800283861E+01  0.51100000000E-03 0.  1.
         11    1    1    0    0    0 -0.21253724912E+01  0.16440582505E+02  0.54642833859E+02  0.57102095003E+02  0.51100000000E-03 0. -1.
         22    1    1    0    0    0 -0.95550578902E+00 -0.16171640629E+02 -0.59761095138E+02  0.61917876611E+02  0.00000000000E+00 0. -1.
</event>
<event>
 4    1  0.1956828E-002  0.9118800E+02  0.7818608E-02  0.1130116E+00
         25   -1    0    0    0    0  0.00000000000E+00  0.00000000000E+00  0.99999998245E-14  0.12500000000E+03  0.12500000000E+03 0.  0.
        -11    1    1    0    0    0 -0.23659736128E+02  0.29858242637E+02 -0.33130949490E+02  0.50487202154E+02  0.51100000000E-03 0.  1.
         11    1    1    0    0    0 -0.56369209222E+01  0.70813723128E+01 -0.78985399361E+01  0.12012811690E+02  0.51100000000E-03 0. -1.
         22    1    1    0    0    0  0.29296657050E+02 -0.36939614950E+02  0.41029489426E+02  0.62499986156E+02  0.00000000000E+00 0.  1.
</event>
<event>
 4    1  0.1956828E-002  0.9118800E+02  0.7818608E-02  0.1130116E+00
         25   -1    0    0    0    0  0.00000000000E+00  0.00000000000E+00  0.99999998245E-14  0.12500000000E+03  0.12500000000E+03 0.  0.
        -11    1    1    0    0    0 -0.49667909179E+01  0.36582287111E+01  0.10236454651E+02  0.11951428927E+02  0.51100000000E-03 0. -1.
         11    1    1    0    0    0 -0.19792170836E+02  0.15644354761E+02  0.43804690923E+02  0.50550240449E+02  0.51100000000E-03 0.  1.
         22    1    1    0    0    0  0.24758961754E+02 -0.19302583472E+02 -0.54041145574E+02  0.62498330624E+02  0.00000000000E+00 0.  1.
</event>
<event>
 4    1  0.1956828E-002  0.9118800E+02  0.7818608E-02  0.1130116E+00
         25   -1    0    0    0    0  0.00000000000E+00  0.00000000000E+00  0.99999998245E-14  0.12500000000E+03  0.12500000000E+03 0.  0.
        -11    1    1    0    0    0  0.56539201321E+00 -0.14158702921E+02  0.49343904218E+01  0.15004557495E+02  0.51100000000E-03 0.  1.
         11    1    1    0    0    0 -0.62842311360E+00 -0.44602025621E+02 -0.20672049396E+02  0.49163698311E+02  0.51100000000E-03 0. -1.
         22    1    1    0    0    0  0.63031100393E-01  0.58760728542E+02  0.15737658974E+02  0.60831744194E+02  0.00000000000E+00 0. -1.
</event>
<event>
 4    1  0.1956828E-002  0.9118800E+02  0.7818608E-02  0.1130116E+00
         25   -1    0    0    0    0  0.00000000000E+00  0.00000000000E+00  0.99999998245E-14  0.12500000000E+03  0.12500000000E+03 0.  0.
        -11    1    1    0    0    0  0.30253074000E+02 -0.13625104255E+02  0.11264634137E+02  0.35039747929E+02  0.51100000000E-03 0. -1.
         11    1    1    0    0    0  0.23783249798E+02 -0.10640412085E+02  0.86725321777E+01  0.27460410684E+02  0.51100000000E-03 0.  1.
         22    1    1    0    0    0 -0.54036323798E+02  0.24265516340E+02 -0.19937166315E+02  0.62499841388E+02  0.00000000000E+00 0. -1.
</event>
<event>
 4    1  0.1956828E-002  0.9118800E+02  0.7818608E-02  0.1130116E+00
         25   -1    0    0    0    0  0.00000000000E+00  0.00000000000E+00  0.99999998245E-14  0.12500000000E+03  0.12500000000E+03 0.  0.
        -11    1    1    0    0    0  0.15623758853E+01 -0.12067740131E+01  0.11706055588E+01  0.22951338874E+01  0.51100000000E-03 0.  1.
         11    1    1    0    0    0  0.49582689636E+02 -0.27655433613E+02  0.20126293574E+02  0.60235652343E+02  0.51100000000E-03 0. -1.
         22    1    1    0    0    0 -0.51145065522E+02  0.28862207626E+02 -0.21296899133E+02  0.62469213769E+02  0.00000000000E+00 0. -1.
</event>
<event>
 4    1  0.1956828E-002  0.9118800E+02  0.7818608E-02  0.1130116E+00
         25   -1    0    0    0    0  0.00000000000E+00  0.00000000000E+00  0.99999998245E-14  0.12500000000E+03  0.12500000000E+03 0.  0.
        -11    1    1    0    0    0  0.53210179323E+02 -0.32166198031E+01  0.91655822943E+01  0.54089534345E+02  0.51100000000E-03 0.  1.
         11    1    1    0    0    0  0.82814771905E+01 -0.60171799182E+00  0.13411007091E+01  0.84109143600E+01  0.51100000000E-03 0. -1.
         22    1    1    0    0    0 -0.61491656514E+02  0.38183377949E+01 -0.10506683003E+02  0.62499551295E+02  0.00000000000E+00 0.  1.
</event>
<event>
 4    1  0.1956828E-002  0.9118800E+02  0.7818608E-02  0.1130116E+00
         25   -1    0    0    0    0  0.00000000000E+00  0.00000000000E+00  0.99999998245E-14  0.12500000000E+03  0.12500000000E+03 0.  0.
        -11    1    1    0    0    0 -0.41727084758E+01 -0.70939449702E+01  0.33354337399E+01  0.88803530200E+01  0.51100000000E-03 0.  1.
         11    1    1    0    0    0  0.28349549391E+02 -0.24542131133E+02  0.41651346744E+02  0.56043267544E+02  0.51100000000E-03 0. -1.
         22    1    1    0    0    0 -0.24176840915E+02  0.31636076104E+02 -0.44986780483E+02  0.60076379436E+02  0.00000000000E+00 0. -1.
</event>
<event>
 4    1  0.1956828E-002  0.9118800E+02  0.7818608E-02  0.1130116E+00
         25   -1    0    0    0    0  0.00000000000E+00  0.00000000000E+00  0.99999998245E-14  0.12500000000E+03  0.12500000000E+03 0.  0.
        -11    1    1    0    0    0  0.17858166836E+01  0.30304207181E+01  0.16333810891E+02  0.16708260515E+02  0.51100000000E-03 0. -1.
         11    1    1    0    0    0  0.48059675404E+01  0.82771227558E+01  0.44780313751E+02  0.45791752369E+02  0.51100000000E-03 0.  1.
         22    1    1    0    0    0 -0.65917842240E+01 -0.11307543474E+02 -0.61114124642E+02  0.62499987116E+02  0.00000000000E+00 0.  1.
</event>
<event>
 4    1  0.1956828E-002  0.9118800E+02  0.7818608E-02  0.1130116E+00
         25   -1    0    0    0    0  0.00000000000E+00  0.00000000000E+00  0.99999998245E-14  0.12500000000E+03  0.12500000000E+03 0.  0.
        -11    1    1    0    0    0  0.22173268734E+02  0.43074986198E+02  0.37711691116E+02  0.61394461716E+02  0.51100000000E-03 0.  1.
         11    1    1    0    0    0  0.39083553904E+00  0.77506571105E+00  0.68467953618E+00  0.11055612165E+01  0.51100000000E-03 0. -1.
         22    1    1    0    0    0 -0.22564104273E+02 -0.43850051909E+02 -0.38396370652E+02  0.62499977067E+02  0.00000000000E+00 0.  1.
</event>
<event>
 4    1  0.1956828E-002  0.9118800E+02  0.7818608E-02  0.1130116E+00
         25   -1    0    0    0    0  0.00000000000E+00  0.00000000000E+00  0.99999998245E-14  0.12500000000E+03  0.12500000000E+03 0.  0.
        -11    1    1    0    0    0 -0.42279815183E+02 -0.22314805046E+02 -0.36974728152E+02  0.60437271764E+02  0.51100000000E-03 0.  1.
         11    1    1    0    0    0 -0.14426490986E+01 -0.76126386758E+00 -0.12625723181E+01  0.20627283431E+01  0.51100000000E-03 0. -1.
         22    1    1    0    0    0  0.43722464282E+02  0.23076068913E+02  0.38237300470E+02  0.62499999893E+02  0.00000000000E+00 0.  1.
</event>
<event>
 4    1  0.1956828E-002  0.9118800E+02  0.7818608E-02  0.1130116E+00
         25   -1    0    0    0    0  0.00000000000E+00  0.00000000000E+00  0.99999998245E-14  0.12500000000E+03  0.12500000000E+03 0.  0.
        -11    1    1    0    0    0 -0.33167925917E+02  0.11456028375E+01 -0.94589005246E+01  0.34509339531E+02  0.51100000000E-03 0. -1.
         11    1    1    0    0    0 -0.26901365727E+02  0.94934359030E+00 -0.76741420186E+01  0.27990662501E+02  0.51100000000E-03 0.  1.
         22    1    1    0    0    0  0.60069291644E+02 -0.20949464278E+01  0.17133042543E+02  0.62499997968E+02  0.00000000000E+00 0. -1.
</event>
<event>
 4    1  0.1956828E-002  0.9118800E+02  0.7818608E-02  0.1130116E+00
         25   -1    0    0    0    0  0.00000000000E+00  0.00000000000E+00  0.99999998245E-14  0.12500000000E+03  0.12500000000E+03 0.  0.
        -11    1    1    0    0    0  0.92193696825E+01 -0.46492584951E+02  0.30256415758E+02  0.56231734168E+02  0.51100000000E-03 0. -1.
         11    1    1    0    0    0  0.10272103096E+01 -0.51830519501E+01  0.33722348960E+01  0.62682658681E+01  0.51100000000E-03 0.  1.
         22    1    1    0    0    0 -0.10246579992E+02  0.51675636901E+02 -0.33628650654E+02  0.62499999964E+02  0.00000000000E+00 0. -1.
</event>
<event>
 4    1  0.1956828E-002  0.9118800E+02  0.7818608E-02  0.1130116E+00
         25   -1    0    0    0    0  0.00000000000E+00  0.00000000000E+00  0.99999998245E-14  0.12500000000E+03  0.12500000000E+03 0.  0.
        -11    1    1    0    0    0  0.18005201774E+01 -0.11732597479E+01  0.13782741746E+00  0.21534641867E+01  0.51100000000E-03 0. -1.
         11    1    1    0    0    0  0.24002003945E+02 -0.54610762290E+02  0.10207285706E+02  0.60519585532E+02  0.51100000000E-03 0.  1.
         22    1    1    0    0    0 -0.25802524123E+02  0.55784022038E+02 -0.10345113123E+02  0.62326950281E+02  0.00000000000E+00 0.  1.
</event>
<event>
 4    1  0.1956828E-002  0.9118800E+02  0.7818608E-02  0.1130116E+00
         25   -1    0    0    0    0  0.00000000000E+00  0.00000000000E+00  0.99999998245E-14  0.12500000000E+03  0.12500000000E+03 0.  0.
        -11    1    1    0    0    0 -0.16027476140E+02  0.58940740645E+01 -0.28201681987E+02  0.32969000101E+02  0.51100000000E-03 0. -1.
         11    1    1    0    0    0 -0.14349768435E+02  0.52786408904E+01 -0.25264601044E+02  0.29531000151E+02  0.51100000000E-03 0.  1.
         22    1    1    0    0    0  0.30377244575E+02 -0.11172714955E+02  0.53466283030E+02  0.62499999748E+02  0.00000000000E+00 0.  1.
</event>
<event>
 4    1  0.1956828E-002  0.9118800E+02  0.7818608E-02  0.1130116E+00
         25   -1    0    0    0    0  0.00000000000E+00  0.00000000000E+00  0.99999998245E-14  0.12500000000E+03  0.12500000000E+03 0.  0.
        -11    1    1    0    0    0  0.93860370374E+01 -0.67808815095E+01  0.11148099570E+02  0.16073523870E+02  0.51100000000E-03 0. -1.
         11    1    1    0    0    0  0.92803414772E+01 -0.10147426828E+02  0.45175883988E+02  0.47222404677E+02  0.51100000000E-03 0.  1.
         22    1    1    0    0    0 -0.18666378515E+02  0.16928308337E+02 -0.56323983558E+02  0.61704071453E+02  0.00000000000E+00 0.  1.
</event>
<event>
 4    1  0.1956828E-002  0.9118800E+02  0.7818608E-02  0.1130116E+00
         25   -1    0    0    0    0  0.00000000000E+00  0.00000000000E+00  0.99999998245E-14  0.12500000000E+03  0.12500000000E+03 0.  0.
        -11    1    1    0    0    0 -0.41324074753E+01  0.40582882773E+02  0.22870279744E+02  0.46766407405E+02  0.51100000000E-03 0. -1.
         11    1    1    0    0    0 -0.13872563040E+01  0.13655327765E+02  0.76911304762E+01  0.15733592873E+02  0.51100000000E-03 0.  1.
         22    1    1    0    0    0  0.55196637794E+01 -0.54238210538E+02 -0.30561410220E+02  0.62499999722E+02  0.00000000000E+00 0. -1.
</event>
<event>
 4    1  0.1956828E-002  0.9118800E+02  0.7818608E-02  0.1130116E+00
         25   -1    0    0    0    0  0.00000000000E+00  0.00000000000E+00  0.99999998245E-14  0.12500000000E+03  0.12500000000E+03 0.  0.
        -11    1    1    0    0    0  0.43940721621E+02  0.46499694560E+01  0.40703906726E+02  0.60076761360E+02  0.51100000000E-03 0. -1.
         11    1    1    0    0    0  0.17744769944E+01  0.18046843215E+00  0.16403582631E+01  0.24232443027E+01  0.51100000000E-03 0.  1.
         22    1    1    0    0    0 -0.45715198615E+02 -0.48304378882E+01 -0.42344264989E+02  0.62499994337E+02  0.00000000000E+00 0. -1.
</event>
<event>
 4    1  0.1956828E-002  0.9118800E+02  0.7818608E-02  0.1130116E+00
         25   -1    0    0    0    0  0.00000000000E+00  0.00000000000E+00  0.99999998245E-14  0.12500000000E+03  0.12500000000E+03 0.  0.
        -11    1    1    0    0    0 -0.23472572786E+01  0.40398015347E+01 -0.24196728641E+01  0.52615995859E+01  0.51100000000E-03 0. -1.
         11    1    1    0    0    0 -0.25617660434E+02  0.43876690474E+02 -0.26359183318E+02  0.57238405276E+02  0.51100000000E-03 0.  1.
         22    1    1    0    0    0  0.27964917712E+02 -0.47916492009E+02  0.28778856182E+02  0.62499995138E+02  0.00000000000E+00 0.  1.
</event>
<event>
 4    1  0.1956828E-002  0.9118800E+02  0.7818608E-02  0.1130116E+00
         25   -1    0    0    0    0  0.00000000000E+00  0.00000000000E+00  0.99999998245E-14  0.12500000000E+03  0.12500000000E+03 0.  0.
        -11    1    1    0    0    0 -0.19555023094E+01  0.89818120571E+01  0.76452624673E+00  0.92239599822E+01  0.51100000000E-03 0.  1.
         11    1    1    0    0    0 -0.11291492562E+02  0.51878720136E+02  0.44087456084E+01  0.53276040068E+02  0.51100000000E-03 0. -1.
         22    1    1    0    0    0  0.13246994871E+02 -0.60860532194E+02 -0.51732718551E+01  0.62499999949E+02  0.00000000000E+00 0. -1.
</event>
<event>
 4    1  0.1956828E-002  0.9118800E+02  0.7818608E-02  0.1130116E+00
         25   -1    0    0    0    0  0.00000000000E+00  0.00000000000E+00  0.99999998245E-14  0.12500000000E+03  0.12500000000E+03 0.  0.
        -11    1    1    0    0    0  0.36670682472E+01 -0.28873685735E+01 -0.84803384526E+00  0.47437799772E+01  0.51100000000E-03 0. -1.
         11    1    1    0    0    0  0.46000375856E+02 -0.33453212841E+02 -0.10040482755E+02  0.57757798802E+02  0.51100000000E-03 0.  1.
         22    1    1    0    0    0 -0.49667444103E+02  0.36340581415E+02  0.10888516600E+02  0.62498421220E+02  0.00000000000E+00 0.  1.
</event>
<event>
 4    1  0.1956828E-002  0.9118800E+02  0.7818608E-02  0.1130116E+00
         25   -1    0    0    0    0  0.00000000000E+00  0.00000000000E+00  0.99999998245E-14  0.12500000000E+03  0.12500000000E+03 0.  0.
        -11    1    1    0    0    0  0.23355736747E+02 -0.13877800207E+02 -0.15002789539E+01  0.27209090664E+02  0.51100000000E-03 0.  1.
         11    1    1    0    0    0  0.30293587724E+02 -0.17998938251E+02 -0.19455196567E+01  0.35290909344E+02  0.51100000000E-03 0.  1.
         22    1    1    0    0    0 -0.53649324471E+02  0.31876738457E+02  0.34457986106E+01  0.62499999992E+02  0.00000000000E+00 0.  1.
</event>
<event>
 4    1  0.1956828E-002  0.9118800E+02  0.7818608E-02  0.1130116E+00
         25   -1    0    0    0    0  0.00000000000E+00  0.00000000000E+00  0.99999998245E-14  0.12500000000E+03  0.12500000000E+03 0.  0.
        -11    1    1    0    0    0  0.23884179173E+02 -0.90018122231E+01  0.80414709663E+01  0.26761014435E+02  0.51100000000E-03 0.  1.
         11    1    1    0    0    0  0.31896238044E+02 -0.12022055596E+02  0.10741288011E+02  0.35738985583E+02  0.51100000000E-03 0. -1.
         22    1    1    0    0    0 -0.55780417216E+02  0.21023867819E+02 -0.18782758978E+02  0.62499999982E+02  0.00000000000E+00 0. -1.
</event>
<event>
 4    1  0.1956828E-002  0.9118800E+02  0.7818608E-02  0.1130116E+00
         25   -1    0    0    0    0  0.00000000000E+00  0.00000000000E+00  0.99999998245E-14  0.12500000000E+03  0.12500000000E+03 0.  0.
        -11    1    1    0    0    0 -0.12068733301E+02  0.89609323098E+01 -0.30010574418E+02  0.33564672031E+02  0.51100000000E-03 0.  1.
         11    1    1    0    0    0 -0.12141193937E+02  0.72017437597E+01 -0.25277620372E+02  0.28952232994E+02  0.51100000000E-03 0. -1.
         22    1    1    0    0    0  0.24209927238E+02 -0.16162676070E+02  0.55288194790E+02  0.62483094976E+02  0.00000000000E+00 0. -1.
</event>
<event>
 4    1  0.1956828E-002  0.9118800E+02  0.7818608E-02  0.1130116E+00
         25   -1    0    0    0    0  0.00000000000E+00  0.00000000000E+00  0.99999998245E-14  0.12500000000E+03  0.12500000000E+03 0.  0.
        -11    1    1    0    0    0  0.23214654114E+01  0.82816242825E+01  0.17083944598E+01  0.87688718947E+01  0.51100000000E-03 0.  1.
         11    1    1    0    0    0  0.12879116362E+02  0.51332928471E+02  0.92919977266E+01  0.53733438432E+02  0.51100000000E-03 0. -1.
         22    1    1    0    0    0 -0.15200581774E+02 -0.59614552754E+02 -0.11000392186E+02  0.62497689674E+02  0.00000000000E+00 0. -1.
</event>
<event>
 4    1  0.1956828E-002  0.9118800E+02  0.7818608E-02  0.1130116E+00
         25   -1    0    0    0    0  0.00000000000E+00  0.00000000000E+00  0.99999998245E-14  0.12500000000E+03  0.12500000000E+03 0.  0.
        -11    1    1    0    0    0  0.29233731424E+02  0.17393750881E+00  0.87314299047E+01  0.30510312612E+02  0.51100000000E-03 0.  1.
         11    1    1    0    0    0  0.31704744370E+02 -0.90949285317E+00  0.47553553911E+01  0.32072283953E+02  0.51100000000E-03 0. -1.
         22    1    1    0    0    0 -0.60938475795E+02  0.73555534435E+00 -0.13486785296E+02  0.62417403434E+02  0.00000000000E+00 0.  1.
</event>
<event>
 4    1  0.1956828E-002  0.9118800E+02  0.7818608E-02  0.1130116E+00
         25   -1    0    0    0    0  0.00000000000E+00  0.00000000000E+00  0.99999998245E-14  0.12500000000E+03  0.12500000000E+03 0.  0.
        -11    1    1    0    0    0  0.48647761975E+02 -0.10268757671E+02 -0.27594420046E+02  0.56863909004E+02  0.51100000000E-03 0.  1.
         11    1    1    0    0    0  0.12130292143E+01 -0.47328555516E+01 -0.47703683565E+01  0.68284534167E+01  0.51100000000E-03 0. -1.
         22    1    1    0    0    0 -0.49860791189E+02  0.15001613222E+02  0.32364788403E+02  0.61307637580E+02  0.00000000000E+00 0.  1.
</event>
<event>
 4    1  0.1956828E-002  0.9118800E+02  0.7818608E-02  0.1130116E+00
         25   -1    0    0    0    0  0.00000000000E+00  0.00000000000E+00  0.99999998245E-14  0.12500000000E+03  0.12500000000E+03 0.  0.
        -11    1    1    0    0    0  0.12811947049E+02  0.87282020759E+01  0.15093185397E+02  0.21636352381E+02  0.51100000000E-03 0. -1.
         11    1    1    0    0    0  0.24196287386E+02  0.16480102829E+02  0.28509359694E+02  0.40863647695E+02  0.51100000000E-03 0. -1.
         22    1    1    0    0    0 -0.37008234435E+02 -0.25208304905E+02 -0.43602545091E+02  0.62499999924E+02  0.00000000000E+00 0. -1.
</event>
<event>
 4    1  0.1956828E-002  0.9118800E+02  0.7818608E-02  0.1130116E+00
         25   -1    0    0    0    0  0.00000000000E+00  0.00000000000E+00  0.99999998245E-14  0.12500000000E+03  0.12500000000E+03 0.  0.
        -11    1    1    0    0    0 -0.95370227267E+01  0.56265621652E+02 -0.21734528799E+02  0.61066887302E+02  0.51100000000E-03 0.  1.
         11    1    1    0    0    0  0.31915287939E+00  0.14865356591E+01  0.12431683372E+01  0.19639538187E+01  0.51100000000E-03 0. -1.
         22    1    1    0    0    0  0.92178698473E+01 -0.57752157311E+02  0.20491360462E+02  0.61969158879E+02  0.00000000000E+00 0.  1.
</event>
<event>
 4    1  0.1956828E-002  0.9118800E+02  0.7818608E-02  0.1130116E+00
         25   -1    0    0    0    0  0.00000000000E+00  0.00000000000E+00  0.99999998245E-14  0.12500000000E+03  0.12500000000E+03 0.  0.
        -11    1    1    0    0    0  0.87766908913E+01  0.10672576408E+02  0.56258576357E+00  0.13829341748E+02  0.51100000000E-03 0. -1.
         11    1    1    0    0    0  0.29216636470E+02  0.38654892855E+02  0.47216333741E+01  0.48683738663E+02  0.51100000000E-03 0.  1.
         22    1    1    0    0    0 -0.37993327361E+02 -0.49327469262E+02 -0.52842191377E+01  0.62486919589E+02  0.00000000000E+00 0.  1.
</event>
<event>
 4    1  0.1956828E-002  0.9118800E+02  0.7818608E-02  0.1130116E+00
         25   -1    0    0    0    0  0.00000000000E+00  0.00000000000E+00  0.99999998245E-14  0.12500000000E+03  0.12500000000E+03 0.  0.
        -11    1    1    0    0    0  0.28231885636E+01 -0.46730204409E+02  0.39159580645E+02  0.61034049140E+02  0.51100000000E-03 0. -1.
         11    1    1    0    0    0  0.58360878249E-01 -0.11466380781E+01  0.91189834849E+00  0.14662004411E+01  0.51100000000E-03 0.  1.
         22    1    1    0    0    0 -0.28815494418E+01  0.47876842487E+02 -0.40071478994E+02  0.62499750419E+02  0.00000000000E+00 0. -1.
</event>
<event>
 4    1  0.1956828E-002  0.9118800E+02  0.7818608E-02  0.1130116E+00
         25   -1    0    0    0    0  0.00000000000E+00  0.00000000000E+00  0.99999998245E-14  0.12500000000E+03  0.12500000000E+03 0.  0.
        -11    1    1    0    0    0  0.39723286916E+02  0.19010210092E+02 -0.37858632109E+01  0.44200230448E+02  0.51100000000E-03 0. -1.
         11    1    1    0    0    0  0.16396563061E+02  0.79134640524E+01 -0.18553172312E+01  0.18300611897E+02  0.51100000000E-03 0.  1.
         22    1    1    0    0    0 -0.56119849976E+02 -0.26923674145E+02  0.56411804421E+01  0.62499157655E+02  0.00000000000E+00 0. -1.
</event>
<event>
 4    1  0.1956828E-002  0.9118800E+02  0.7818608E-02  0.1130116E+00
         25   -1    0    0    0    0  0.00000000000E+00  0.00000000000E+00  0.99999998245E-14  0.12500000000E+03  0.12500000000E+03 0.  0.
        -11    1    1    0    0    0 -0.28319047496E+02  0.40689836153E+01  0.26393045863E+02  0.38924516040E+02  0.51100000000E-03 0. -1.
         11    1    1    0    0    0 -0.17153820290E+02  0.24671007305E+01  0.15983219704E+02  0.23575484066E+02  0.51100000000E-03 0.  1.
         22    1    1    0    0    0  0.45472867787E+02 -0.65360843459E+01 -0.42376265567E+02  0.62499999894E+02  0.00000000000E+00 0.  1.
</event>
<event>
 4    1  0.1956828E-002  0.9118800E+02  0.7818608E-02  0.1130116E+00
         25   -1    0    0    0    0  0.00000000000E+00  0.00000000000E+00  0.99999998245E-14  0.12500000000E+03  0.12500000000E+03 0.  0.
        -11    1    1    0    0    0 -0.21311668465E+02 -0.19447429415E+02  0.44215916455E+02  0.52796183497E+02  0.51100000000E-03 0.  1.
         11    1    1    0    0    0  0.36566832792E+01 -0.17416553488E+01  0.10322257230E+02  0.11088448518E+02  0.51100000000E-03 0. -1.
         22    1    1    0    0    0  0.17654985186E+02  0.21189084763E+02 -0.54538173685E+02  0.61115367985E+02  0.00000000000E+00 0.  1.
</event>
<event>
 4    1  0.1956828E-002  0.9118800E+02  0.7818608E-02  0.1130116E+00
         25   -1    0    0    0    0  0.00000000000E+00  0.00000000000E+00  0.99999998245E-14  0.12500000000E+03  0.12500000000E+03 0.  0.
        -11    1    1    0    0    0 -0.23376238676E+02  0.43526709901E+02  0.10869252763E+02  0.50588177130E+02  0.51100000000E-03 0. -1.
         11    1    1    0    0    0 -0.54751804430E+01  0.10260914991E+02  0.25744979927E+01  0.11911843581E+02  0.51100000000E-03 0.  1.
         22    1    1    0    0    0  0.28851419119E+02 -0.53787624892E+02 -0.13443750756E+02  0.62499979289E+02  0.00000000000E+00 0. -1.
</event>
<event>
 4    1  0.1956828E-002  0.9118800E+02  0.7818608E-02  0.1130116E+00
         25   -1    0    0    0    0  0.00000000000E+00  0.00000000000E+00  0.99999998245E-14  0.12500000000E+03  0.12500000000E+03 0.  0.
        -11    1    1    0    0    0 -0.29857266569E+02  0.11695677214E+02 -0.40680889776E+02  0.51799421094E+02  0.51100000000E-03 0. -1.
         11    1    1    0    0    0 -0.13047732705E+02  0.37417921306E+01  0.26618030969E+01  0.13832191911E+02  0.51100000000E-03 0.  1.
         22    1    1    0    0    0  0.42904999274E+02 -0.15437469345E+02  0.38019086679E+02  0.59368386995E+02  0.00000000000E+00 0. -1.
</event>
<event>
 4    1  0.1956828E-002  0.9118800E+02  0.7818608E-02  0.1130116E+00
         25   -1    0    0    0    0  0.00000000000E+00  0.00000000000E+00  0.99999998245E-14  0.12500000000E+03  0.12500000000E+03 0.  0.
        -11    1    1    0    0    0 -0.22161897480E+02  0.64325217582E+01 -0.58549322583E+01  0.23807714466E+02  0.51100000000E-03 0. -1.
         11    1    1    0    0    0 -0.31822332424E+02  0.10758259847E+02 -0.19806780822E+02  0.38996276266E+02  0.51100000000E-03 0.  1.
         22    1    1    0    0    0  0.53984229904E+02 -0.17190781605E+02  0.25661713080E+02  0.62196009267E+02  0.00000000000E+00 0.  1.
</event>
<event>
 4    1  0.1956828E-002  0.9118800E+02  0.7818608E-02  0.1130116E+00
         25   -1    0    0    0    0  0.00000000000E+00  0.00000000000E+00  0.99999998245E-14  0.12500000000E+03  0.12500000000E+03 0.  0.
        -11    1    1    0    0    0 -0.88625264274E-01 -0.21790527085E+02  0.73279819865E+01  0.22989872669E+02  0.51100000000E-03 0.  1.
         11    1    1    0    0    0 -0.74482212653E-01 -0.37442114895E+02  0.12614826613E+02  0.39510142573E+02  0.51100000000E-03 0. -1.
         22    1    1    0    0    0  0.16310747693E+00  0.59232641980E+02 -0.19942808599E+02  0.62499984758E+02  0.00000000000E+00 0.  1.
</event>
<event>
 4    1  0.1956828E-002  0.9118800E+02  0.7818608E-02  0.1130116E+00
         25   -1    0    0    0    0  0.00000000000E+00  0.00000000000E+00  0.99999998245E-14  0.12500000000E+03  0.12500000000E+03 0.  0.
        -11    1    1    0    0    0  0.54428979948E+02  0.24856048235E+02 -0.38033284258E+01  0.59956670183E+02  0.51100000000E-03 0.  1.
         11    1    1    0    0    0  0.23097124487E+01  0.10523251559E+01 -0.16238694104E+00  0.25433304168E+01  0.51100000000E-03 0. -1.
         22    1    1    0    0    0 -0.56738692397E+02 -0.25908373391E+02  0.39657153669E+01  0.62499999400E+02  0.00000000000E+00 0.  1.
</event>
<event>
 4    1  0.1956828E-002  0.9118800E+02  0.7818608E-02  0.1130116E+00
         25   -1    0    0    0    0  0.00000000000E+00  0.00000000000E+00  0.99999998245E-14  0.12500000000E+03  0.12500000000E+03 0.  0.
        -11    1    1    0    0    0  0.41418376326E+02  0.22906512352E+02  0.35755912464E+02  0.59318424473E+02  0.51100000000E-03 0.  1.
         11    1    1    0    0    0  0.22263839565E+01  0.12240270764E+01  0.19150508423E+01  0.31815794498E+01  0.51100000000E-03 0. -1.
         22    1    1    0    0    0 -0.43644760282E+02 -0.24130539428E+02 -0.37670963306E+02  0.62499996077E+02  0.00000000000E+00 0.  1.
</event>
<event>
 4    1  0.1956828E-002  0.9118800E+02  0.7818608E-02  0.1130116E+00
         25   -1    0    0    0    0  0.00000000000E+00  0.00000000000E+00  0.99999998245E-14  0.12500000000E+03  0.12500000000E+03 0.  0.
        -11    1    1    0    0    0 -0.27449683128E+00 -0.59414895084E-01 -0.23493190020E-01  0.28183475875E+00  0.51100000000E-03 0. -1.
         11    1    1    0    0    0 -0.60671671288E+02 -0.13512078196E+02  0.27595073760E+01  0.62219312398E+02  0.51100000000E-03 0.  1.
         22    1    1    0    0    0  0.60946168119E+02  0.13571493092E+02 -0.27360141860E+01  0.62498852843E+02  0.00000000000E+00 0.  1.
</event>
<event>
 4    1  0.1956828E-002  0.9118800E+02  0.7818608E-02  0.1130116E+00
         25   -1    0    0    0    0  0.00000000000E+00  0.00000000000E+00  0.99999998245E-14  0.12500000000E+03  0.12500000000E+03 0.  0.
        -11    1    1    0    0    0  0.32039277512E+02 -0.21954641441E+02 -0.44735890495E+01  0.39096477892E+02  0.51100000000E-03 0.  1.
         11    1    1    0    0    0  0.19259637444E+02 -0.13041087665E+02 -0.25939707539E+01  0.23403681045E+02  0.51100000000E-03 0. -1.
         22    1    1    0    0    0 -0.51298914956E+02  0.34995729105E+02  0.70675598034E+01  0.62499841063E+02  0.00000000000E+00 0.  1.
</event>
<event>
 4    1  0.1956828E-002  0.9118800E+02  0.7818608E-02  0.1130116E+00
         25   -1    0    0    0    0  0.00000000000E+00  0.00000000000E+00  0.99999998245E-14  0.12500000000E+03  0.12500000000E+03 0.  0.
        -11    1    1    0    0    0 -0.40614821940E+01 -0.10619638704E+02  0.37029816538E+01  0.11957610012E+02  0.51100000000E-03 0. -1.
         11    1    1    0    0    0 -0.16796351804E+02 -0.44940151279E+02  0.15900247740E+02  0.50542581150E+02  0.51100000000E-03 0.  1.
         22    1    1    0    0    0  0.20857833998E+02  0.55559789983E+02 -0.19603229394E+02  0.62499808837E+02  0.00000000000E+00 0.  1.
</event>
<event>
 4    1  0.1956828E-002  0.9118800E+02  0.7818608E-02  0.1130116E+00
         25   -1    0    0    0    0  0.00000000000E+00  0.00000000000E+00  0.99999998245E-14  0.12500000000E+03  0.12500000000E+03 0.  0.
        -11    1    1    0    0    0  0.81471564041E+01 -0.45503467472E+01  0.33405402819E+02  0.34684330046E+02  0.51100000000E-03 0. -1.
         11    1    1    0    0    0  0.65491134421E+01 -0.36209189062E+01  0.26790107171E+02  0.27815675133E+02  0.51100000000E-03 0.  1.
         22    1    1    0    0    0 -0.14696269846E+02  0.81712656535E+01 -0.60195509990E+02  0.62499994821E+02  0.00000000000E+00 0.  1.
</event>
<event>
 4    1  0.1956828E-002  0.9118800E+02  0.7818608E-02  0.1130116E+00
         25   -1    0    0    0    0  0.00000000000E+00  0.00000000000E+00  0.99999998245E-14  0.12500000000E+03  0.12500000000E+03 0.  0.
        -11    1    1    0    0    0 -0.34307704752E+01  0.34391361523E+00  0.41434314378E+01  0.53904069391E+01  0.51100000000E-03 0. -1.
         11    1    1    0    0    0 -0.35960590271E+02  0.24378116365E+01  0.44299828076E+02  0.57110259551E+02  0.51100000000E-03 0.  1.
         22    1    1    0    0    0  0.39391360746E+02 -0.27817252518E+01 -0.48443259514E+02  0.62499333509E+02  0.00000000000E+00 0.  1.
</event>
<event>
 4    1  0.1956828E-002  0.9118800E+02  0.7818608E-02  0.1130116E+00
         25   -1    0    0    0    0  0.00000000000E+00  0.00000000000E+00  0.99999998245E-14  0.12500000000E+03  0.12500000000E+03 0.  0.
        -11    1    1    0    0    0  0.36725891059E+02 -0.12026800208E+02  0.13095708372E+02  0.40803585325E+02  0.51100000000E-03 0. -1.
         11    1    1    0    0    0  0.19530613664E+02 -0.63973809371E+01  0.69543574096E+01  0.21696415376E+02  0.51100000000E-03 0.  1.
         22    1    1    0    0    0 -0.56256504723E+02  0.18424181145E+02 -0.20050065782E+02  0.62499999299E+02  0.00000000000E+00 0. -1.
</event>
<event>
 4    1  0.1956828E-002  0.9118800E+02  0.7818608E-02  0.1130116E+00
         25   -1    0    0    0    0  0.00000000000E+00  0.00000000000E+00  0.99999998245E-14  0.12500000000E+03  0.12500000000E+03 0.  0.
        -11    1    1    0    0    0 -0.94523224068E+01 -0.10458235976E+01  0.40588283013E+01  0.10339933913E+02  0.51100000000E-03 0. -1.
         11    1    1    0    0    0 -0.47683257715E+02 -0.52742072758E+01  0.20473450282E+02  0.52160066099E+02  0.51100000000E-03 0. -1.
         22    1    1    0    0    0  0.57135580122E+02  0.63200308735E+01 -0.24532278583E+02  0.62499999989E+02  0.00000000000E+00 0. -1.
</event>
<event>
 4    1  0.1956828E-002  0.9118800E+02  0.7818608E-02  0.1130116E+00
         25   -1    0    0    0    0  0.00000000000E+00  0.00000000000E+00  0.99999998245E-14  0.12500000000E+03  0.12500000000E+03 0.  0.
        -11    1    1    0    0    0 -0.13182755110E+02 -0.86920988787E+01 -0.20398952364E+02  0.25796412018E+02  0.51100000000E-03 0. -1.
         11    1    1    0    0    0 -0.16688610240E+02 -0.11213560414E+02 -0.30735352512E+02  0.36727585589E+02  0.51100000000E-03 0.  1.
         22    1    1    0    0    0  0.29871365350E+02  0.19905659293E+02  0.51134304876E+02  0.62476002392E+02  0.00000000000E+00 0. -1.
</event>
<event>
 4    1  0.1956828E-002  0.9118800E+02  0.7818608E-02  0.1130116E+00
         25   -1    0    0    0    0  0.00000000000E+00  0.00000000000E+00  0.99999998245E-14  0.12500000000E+03  0.12500000000E+03 0.  0.
        -11    1    1    0    0    0 -0.74305800867E+01  0.39600235066E+02  0.13684804671E+02  0.42551921424E+02  0.51100000000E-03 0. -1.
         11    1    1    0    0    0 -0.34753221722E+01  0.18572072367E+02  0.63973631558E+01  0.19948082409E+02  0.51100000000E-03 0.  1.
         22    1    1    0    0    0  0.10905902259E+02 -0.58172307433E+02 -0.20082167827E+02  0.62499996167E+02  0.00000000000E+00 0. -1.
</event>
<event>
 4    1  0.1956828E-002  0.9118800E+02  0.7818608E-02  0.1130116E+00
         25   -1    0    0    0    0  0.00000000000E+00  0.00000000000E+00  0.99999998245E-14  0.12500000000E+03  0.12500000000E+03 0.  0.
        -11    1    1    0    0    0  0.35853970094E-03  0.12264936997E+01 -0.17417124517E+00  0.12387989375E+01  0.51100000000E-03 0.  1.
         11    1    1    0    0    0 -0.22109563789E+02  0.20359742685E+02 -0.53766552184E+02  0.61597029694E+02  0.51100000000E-03 0. -1.
         22    1    1    0    0    0  0.22109205249E+02 -0.21586236384E+02  0.53940723429E+02  0.62164171369E+02  0.00000000000E+00 0. -1.
</event>
<event>
 4    1  0.1956828E-002  0.9118800E+02  0.7818608E-02  0.1130116E+00
         25   -1    0    0    0    0  0.00000000000E+00  0.00000000000E+00  0.99999998245E-14  0.12500000000E+03  0.12500000000E+03 0.  0.
        -11    1    1    0    0    0 -0.29738144852E+01  0.33962633332E+01  0.10225808302E+02  0.11177894834E+02  0.51100000000E-03 0.  1.
         11    1    1    0    0    0 -0.79268808279E+01  0.55653701786E+01  0.50529552351E+02  0.51449435818E+02  0.51100000000E-03 0. -1.
         22    1    1    0    0    0  0.10900695313E+02 -0.89616335119E+01 -0.60755360654E+02  0.62372669348E+02  0.00000000000E+00 0.  1.
</event>
<event>
 4    1  0.1956828E-002  0.9118800E+02  0.7818608E-02  0.1130116E+00
         25   -1    0    0    0    0  0.00000000000E+00  0.00000000000E+00  0.99999998245E-14  0.12500000000E+03  0.12500000000E+03 0.  0.
        -11    1    1    0    0    0 -0.17268873351E+02  0.35739893342E+02 -0.11813005658E+02  0.41413778696E+02  0.51100000000E-03 0. -1.
         11    1    1    0    0    0 -0.87937414498E+01  0.18196574045E+02 -0.60152750453E+01  0.21086221326E+02  0.51100000000E-03 0.  1.
         22    1    1    0    0    0  0.26062614801E+02 -0.53936467387E+02  0.17828280703E+02  0.62499999979E+02  0.00000000000E+00 0.  1.
</event>
<event>
 4    1  0.1956828E-002  0.9118800E+02  0.7818608E-02  0.1130116E+00
         25   -1    0    0    0    0  0.00000000000E+00  0.00000000000E+00  0.99999998245E-14  0.12500000000E+03  0.12500000000E+03 0.  0.
        -11    1    1    0    0    0  0.59599606397E+01  0.52160026100E+02 -0.42512845844E+01  0.52671271813E+02  0.51100000000E-03 0. -1.
         11    1    1    0    0    0  0.67281933929E+00  0.97346238037E+01 -0.12476675857E+01  0.98372893182E+01  0.51100000000E-03 0.  1.
         22    1    1    0    0    0 -0.66327799790E+01 -0.61894649903E+02  0.54989521701E+01  0.62491438869E+02  0.00000000000E+00 0. -1.
</event>
<event>
 4    1  0.1956828E-002  0.9118800E+02  0.7818608E-02  0.1130116E+00
         25   -1    0    0    0    0  0.00000000000E+00  0.00000000000E+00  0.99999998245E-14  0.12500000000E+03  0.12500000000E+03 0.  0.
        -11    1    1    0    0    0 -0.48142769421E+01 -0.13727961287E+02  0.18472880718E+02  0.23513432456E+02  0.51100000000E-03 0.  1.
         11    1    1    0    0    0  0.39325851962E+02 -0.89625506388E+01  0.20018406982E+02  0.45028730438E+02  0.51100000000E-03 0. -1.
         22    1    1    0    0    0 -0.34511575020E+02  0.22690511926E+02 -0.38491287701E+02  0.56457837106E+02  0.00000000000E+00 0. -1.
</event>
<event>
 4    1  0.1956828E-002  0.9118800E+02  0.7818608E-02  0.1130116E+00
         25   -1    0    0    0    0  0.00000000000E+00  0.00000000000E+00  0.99999998245E-14  0.12500000000E+03  0.12500000000E+03 0.  0.
        -11    1    1    0    0    0  0.52587377081E+02 -0.11076965923E+02  0.24965810674E+01  0.53799296646E+02  0.51100000000E-03 0.  1.
         11    1    1    0    0    0  0.25206342493E+01  0.14908935142E+02  0.38313429342E+01  0.15598369563E+02  0.51100000000E-03 0. -1.
         22    1    1    0    0    0 -0.55108011330E+02 -0.38319692185E+01 -0.63279240016E+01  0.55602333791E+02  0.00000000000E+00 0.  1.
</event>
<event>
 4    1  0.1956828E-002  0.9118800E+02  0.7818608E-02  0.1130116E+00
         25   -1    0    0    0    0  0.00000000000E+00  0.00000000000E+00  0.99999998245E-14  0.12500000000E+03  0.12500000000E+03 0.  0.
        -11    1    1    0    0    0  0.86631621445E+00  0.31152942902E+01  0.57190275292E+01  0.65698431061E+01  0.51100000000E-03 0.  1.
         11    1    1    0    0    0  0.73759481467E+01  0.26519399264E+02  0.48687773650E+02  0.55930156907E+02  0.51100000000E-03 0.  1.
         22    1    1    0    0    0 -0.82422643612E+01 -0.29634693554E+02 -0.54406801179E+02  0.62499999987E+02  0.00000000000E+00 0.  1.
</event>
<event>
 4    1  0.1956828E-002  0.9118800E+02  0.7818608E-02  0.1130116E+00
         25   -1    0    0    0    0  0.00000000000E+00  0.00000000000E+00  0.99999998245E-14  0.12500000000E+03  0.12500000000E+03 0.  0.
        -11    1    1    0    0    0 -0.19786983921E+02  0.80159301398E+01 -0.15768289245E+02  0.26540889485E+02  0.51100000000E-03 0. -1.
         11    1    1    0    0    0 -0.26796264356E+02  0.10842475263E+02 -0.21388286603E+02  0.35959113690E+02  0.51100000000E-03 0.  1.
         22    1    1    0    0    0  0.46583248276E+02 -0.18858405403E+02  0.37156575849E+02  0.62499996825E+02  0.00000000000E+00 0. -1.
</event>
<event>
 4    1  0.1956828E-002  0.9118800E+02  0.7818608E-02  0.1130116E+00
         25   -1    0    0    0    0  0.00000000000E+00  0.00000000000E+00  0.99999998245E-14  0.12500000000E+03  0.12500000000E+03 0.  0.
        -11    1    1    0    0    0 -0.56811664680E+02  0.73347338645E+01  0.89564945997E+01  0.57979154533E+02  0.51100000000E-03 0.  1.
         11    1    1    0    0    0 -0.44173233824E+01  0.59262625864E+00  0.75899125120E+00  0.45210640040E+01  0.51100000000E-03 0. -1.
         22    1    1    0    0    0  0.61228988062E+02 -0.79273601231E+01 -0.97154858509E+01  0.62499781463E+02  0.00000000000E+00 0.  1.
</event>
<event>
 4    1  0.1956828E-002  0.9118800E+02  0.7818608E-02  0.1130116E+00
         25   -1    0    0    0    0  0.00000000000E+00  0.00000000000E+00  0.99999998245E-14  0.12500000000E+03  0.12500000000E+03 0.  0.
        -11    1    1    0    0    0  0.18453745469E+01 -0.36592743181E+02  0.16613813875E+02  0.40230002143E+02  0.51100000000E-03 0. -1.
         11    1    1    0    0    0  0.69354952467E+01 -0.20414542692E+02  0.66692621423E+01  0.22568422750E+02  0.51100000000E-03 0.  1.
         22    1    1    0    0    0 -0.87808697936E+01  0.57007285873E+02 -0.23283076017E+02  0.62201575107E+02  0.00000000000E+00 0. -1.
</event>
<event>
 4    1  0.1956828E-002  0.9118800E+02  0.7818608E-02  0.1130116E+00
         25   -1    0    0    0    0  0.00000000000E+00  0.00000000000E+00  0.99999998245E-14  0.12500000000E+03  0.12500000000E+03 0.  0.
        -11    1    1    0    0    0 -0.57145027440E+02  0.69270933260E+00 -0.21533033644E+02  0.61071315243E+02  0.51100000000E-03 0. -1.
         11    1    1    0    0    0 -0.14648932269E+01 -0.10131450488E+00 -0.47503359536E-01  0.14691608576E+01  0.51100000000E-03 0.  1.
         22    1    1    0    0    0  0.58609920667E+02 -0.59139482772E+00  0.21580537003E+02  0.62459523900E+02  0.00000000000E+00 0. -1.
</event>
<event>
 4    1  0.1956828E-002  0.9118800E+02  0.7818608E-02  0.1130116E+00
         25   -1    0    0    0    0  0.00000000000E+00  0.00000000000E+00  0.99999998245E-14  0.12500000000E+03  0.12500000000E+03 0.  0.
        -11    1    1    0    0    0 -0.10184157021E+02 -0.84060592597E+01  0.12628674440E+02  0.18271899323E+02  0.51100000000E-03 0. -1.
         11    1    1    0    0    0 -0.25213595174E+02 -0.20076257506E+02  0.30288806118E+02  0.44228873752E+02  0.51100000000E-03 0.  1.
         22    1    1    0    0    0  0.35397752195E+02  0.28482316766E+02 -0.42917480558E+02  0.62499226925E+02  0.00000000000E+00 0.  1.
</event>
<event>
 4    1  0.1956828E-002  0.9118800E+02  0.7818608E-02  0.1130116E+00
         25   -1    0    0    0    0  0.00000000000E+00  0.00000000000E+00  0.99999998245E-14  0.12500000000E+03  0.12500000000E+03 0.  0.
        -11    1    1    0    0    0 -0.43341819896E+02  0.18599079460E+02 -0.28429003639E+02  0.55069477543E+02  0.51100000000E-03 0.  1.
         11    1    1    0    0    0 -0.56265398396E+01  0.41535058810E+01 -0.28237633937E+01  0.75420953080E+01  0.51100000000E-03 0. -1.
         22    1    1    0    0    0  0.48968359736E+02 -0.22752585341E+02  0.31252767032E+02  0.62388427149E+02  0.00000000000E+00 0.  1.
</event>
<event>
 4    1  0.1956828E-002  0.9118800E+02  0.7818608E-02  0.1130116E+00
         25   -1    0    0    0    0  0.00000000000E+00  0.00000000000E+00  0.99999998245E-14  0.12500000000E+03  0.12500000000E+03 0.  0.
        -11    1    1    0    0    0 -0.58655185825E+02 -0.56915958405E+01  0.12121910373E+02  0.60164489516E+02  0.51100000000E-03 0.  1.
         11    1    1    0    0    0 -0.22769247544E+01 -0.22096513166E+00  0.47052860458E+00  0.23355105128E+01  0.51100000000E-03 0.  1.
         22    1    1    0    0    0  0.60932110580E+02  0.59125609721E+01 -0.12592438977E+02  0.62499999971E+02  0.00000000000E+00 0.  1.
</event>
<event>
 4    1  0.1956828E-002  0.9118800E+02  0.7818608E-02  0.1130116E+00
         25   -1    0    0    0    0  0.00000000000E+00  0.00000000000E+00  0.99999998245E-14  0.12500000000E+03  0.12500000000E+03 0.  0.
        -11    1    1    0    0    0  0.14132634048E+02 -0.10499886275E+02 -0.84524660975E+00  0.17626497072E+02  0.51100000000E-03 0.  1.
         11    1    1    0    0    0  0.35974173364E+02 -0.26737470290E+02 -0.21442519298E+01  0.44873503132E+02  0.51100000000E-03 0. -1.
         22    1    1    0    0    0 -0.50106807412E+02  0.37237356565E+02  0.29894985395E+01  0.62499999796E+02  0.00000000000E+00 0. -1.
</event>
<event>
 4    1  0.1956828E-002  0.9118800E+02  0.7818608E-02  0.1130116E+00
         25   -1    0    0    0    0  0.00000000000E+00  0.00000000000E+00  0.99999998245E-14  0.12500000000E+03  0.12500000000E+03 0.  0.
        -11    1    1    0    0    0  0.23964717842E+02 -0.18468997755E+02 -0.24965759830E+02  0.39226276187E+02  0.51100000000E-03 0.  1.
         11    1    1    0    0    0  0.14159320640E+02 -0.11047727277E+02 -0.14803082223E+02  0.23273802494E+02  0.51100000000E-03 0. -1.
         22    1    1    0    0    0 -0.38124038481E+02  0.29516725031E+02  0.39768842053E+02  0.62499921320E+02  0.00000000000E+00 0. -1.
</event>
<event>
 4    1  0.1956828E-002  0.9118800E+02  0.7818608E-02  0.1130116E+00
         25   -1    0    0    0    0  0.00000000000E+00  0.00000000000E+00  0.99999998245E-14  0.12500000000E+03  0.12500000000E+03 0.  0.
        -11    1    1    0    0    0 -0.17958881942E+02  0.22170943189E+02 -0.51061046187E+01  0.28985245680E+02  0.51100000000E-03 0. -1.
         11    1    1    0    0    0 -0.20763338112E+02  0.25660961705E+02 -0.58000216226E+01  0.33514793991E+02  0.51100000000E-03 0.  1.
         22    1    1    0    0    0  0.38722220053E+02 -0.47831904894E+02  0.10906126241E+02  0.62499960330E+02  0.00000000000E+00 0.  1.
</event>
<event>
 4    1  0.1956828E-002  0.9118800E+02  0.7818608E-02  0.1130116E+00
         25   -1    0    0    0    0  0.00000000000E+00  0.00000000000E+00  0.99999998245E-14  0.12500000000E+03  0.12500000000E+03 0.  0.
        -11    1    1    0    0    0 -0.65530506169E+01  0.31853141485E+01 -0.32368249572E+02  0.33178189812E+02  0.51100000000E-03 0. -1.
         11    1    1    0    0    0 -0.57916437128E+01  0.28147518953E+01 -0.28605988667E+02  0.29321810193E+02  0.51100000000E-03 0. -1.
         22    1    1    0    0    0  0.12344694330E+02 -0.60000660438E+01  0.60974238238E+02  0.62499999995E+02  0.00000000000E+00 0. -1.
</event>
<event>
 4    1  0.1956828E-002  0.9118800E+02  0.7818608E-02  0.1130116E+00
         25   -1    0    0    0    0  0.00000000000E+00  0.00000000000E+00  0.99999998245E-14  0.12500000000E+03  0.12500000000E+03 0.  0.
        -11    1    1    0    0    0 -0.51778196394E+01  0.17621727662E+01 -0.80766705288E+00  0.55287788350E+01  0.51100000000E-03 0. -1.
         11    1    1    0    0    0 -0.53356823686E+02  0.18152868768E+02 -0.83212237923E+01  0.56971221192E+02  0.51100000000E-03 0.  1.
         22    1    1    0    0    0  0.58534643326E+02 -0.19915041534E+02  0.91288908452E+01  0.62499999973E+02  0.00000000000E+00 0.  1.
</event>
<event>
 4    1  0.1956828E-002  0.9118800E+02  0.7818608E-02  0.1130116E+00
         25   -1    0    0    0    0  0.00000000000E+00  0.00000000000E+00  0.99999998245E-14  0.12500000000E+03  0.12500000000E+03 0.  0.
        -11    1    1    0    0    0 -0.31356813773E+02  0.19076873011E+01  0.20401880323E+02  0.37458320328E+02  0.51100000000E-03 0.  1.
         11    1    1    0    0    0 -0.20972563278E+02  0.13126577906E+01  0.13620381473E+02  0.25041690690E+02  0.51100000000E-03 0. -1.
         22    1    1    0    0    0  0.52329377051E+02 -0.32203450917E+01 -0.34022261795E+02  0.62499988982E+02  0.00000000000E+00 0.  1.
</event>
<event>
 4    1  0.1956828E-002  0.9118800E+02  0.7818608E-02  0.1130116E+00
         25   -1    0    0    0    0  0.00000000000E+00  0.00000000000E+00  0.99999998245E-14  0.12500000000E+03  0.12500000000E+03 0.  0.
        -11    1    1    0    0    0  0.23023464137E+02 -0.18897610287E+01 -0.28912086969E+02  0.37007565048E+02  0.51100000000E-03 0. -1.
         11    1    1    0    0    0  0.15860194564E+02 -0.13029836452E+01 -0.19915338371E+02  0.25492434970E+02  0.51100000000E-03 0. -1.
         22    1    1    0    0    0 -0.38883658701E+02  0.31927446739E+01  0.48827425340E+02  0.62499999983E+02  0.00000000000E+00 0. -1.
</event>
<event>
 4    1  0.1956828E-002  0.9118800E+02  0.7818608E-02  0.1130116E+00
         25   -1    0    0    0    0  0.00000000000E+00  0.00000000000E+00  0.99999998245E-14  0.12500000000E+03  0.12500000000E+03 0.  0.
        -11    1    1    0    0    0 -0.21718822954E+02  0.73874969631E+01 -0.82979026321E+00  0.22955847491E+02  0.51100000000E-03 0. -1.
         11    1    1    0    0    0 -0.29016560373E+02  0.18258702784E+02  0.22717746207E+02  0.41127083488E+02  0.51100000000E-03 0.  1.
         22    1    1    0    0    0  0.50735383327E+02 -0.25646199747E+02 -0.21887955944E+02  0.60917069021E+02  0.00000000000E+00 0.  1.
</event>
<event>
 4    1  0.1956828E-002  0.9118800E+02  0.7818608E-02  0.1130116E+00
         25   -1    0    0    0    0  0.00000000000E+00  0.00000000000E+00  0.99999998245E-14  0.12500000000E+03  0.12500000000E+03 0.  0.
        -11    1    1    0    0    0  0.52402101192E+01  0.42861054591E+01 -0.13885241297E+01  0.69107526088E+01  0.51100000000E-03 0.  1.
         11    1    1    0    0    0 -0.74838136242E+01 -0.58364017613E+02  0.17896600096E+02  0.61503287015E+02  0.51100000000E-03 0. -1.
         22    1    1    0    0    0  0.22436035050E+01  0.54077912154E+02 -0.16508075967E+02  0.56585960377E+02  0.00000000000E+00 0. -1.
</event>
<event>
 4    1  0.1956828E-002  0.9118800E+02  0.7818608E-02  0.1130116E+00
         25   -1    0    0    0    0  0.00000000000E+00  0.00000000000E+00  0.99999998245E-14  0.12500000000E+03  0.12500000000E+03 0.  0.
        -11    1    1    0    0    0 -0.26144406510E+02 -0.42101453267E+02 -0.62259946794E+01  0.49948226885E+02  0.51100000000E-03 0.  1.
         11    1    1    0    0    0 -0.66343827245E+01 -0.10505396113E+02 -0.17866775260E+01  0.12552712793E+02  0.51100000000E-03 0. -1.
         22    1    1    0    0    0  0.32778789234E+02  0.52606849379E+02  0.80126722054E+01  0.62499060322E+02  0.00000000000E+00 0.  1.
</event>
<event>
 4    1  0.1956828E-002  0.9118800E+02  0.7818608E-02  0.1130116E+00
         25   -1    0    0    0    0  0.00000000000E+00  0.00000000000E+00  0.99999998245E-14  0.12500000000E+03  0.12500000000E+03 0.  0.
        -11    1    1    0    0    0  0.36449647900E+01 -0.16525504558E+01 -0.72364916290E+01  0.82694318237E+01  0.51100000000E-03 0.  1.
         11    1    1    0    0    0  0.18868860448E+02 -0.30476959446E+01 -0.50814096004E+02  0.54289913411E+02  0.51100000000E-03 0. -1.
         22    1    1    0    0    0 -0.22513825238E+02  0.47002464003E+01  0.58050587633E+02  0.62440654766E+02  0.00000000000E+00 0. -1.
</event>
<event>
 4    1  0.1956828E-002  0.9118800E+02  0.7818608E-02  0.1130116E+00
         25   -1    0    0    0    0  0.00000000000E+00  0.00000000000E+00  0.99999998245E-14  0.12500000000E+03  0.12500000000E+03 0.  0.
        -11    1    1    0    0    0  0.27386730373E+01  0.24737553505E+02  0.31390602682E+02  0.40060165008E+02  0.51100000000E-03 0.  1.
         11    1    1    0    0    0  0.15851859179E+01  0.13838370832E+02  0.17593574145E+02  0.22439856799E+02  0.51100000000E-03 0. -1.
         22    1    1    0    0    0 -0.43238589552E+01 -0.38575924337E+02 -0.48984176827E+02  0.62499978194E+02  0.00000000000E+00 0. -1.
</event>
<event>
 4    1  0.1956828E-002  0.9118800E+02  0.7818608E-02  0.1130116E+00
         25   -1    0    0    0    0  0.00000000000E+00  0.00000000000E+00  0.99999998245E-14  0.12500000000E+03  0.12500000000E+03 0.  0.
        -11    1    1    0    0    0 -0.55358167828E+02  0.11898473293E+02 -0.47249388244E+01  0.56819234939E+02  0.51100000000E-03 0. -1.
         11    1    1    0    0    0 -0.38341116163E+01  0.45582667840E+01 -0.22102176156E+01  0.63532094354E+01  0.51100000000E-03 0.  1.
         22    1    1    0    0    0  0.59192279444E+02 -0.16456740077E+02  0.69351564401E+01  0.61827555625E+02  0.00000000000E+00 0. -1.
</event>
<event>
 4    1  0.1956828E-002  0.9118800E+02  0.7818608E-02  0.1130116E+00
         25   -1    0    0    0    0  0.00000000000E+00  0.00000000000E+00  0.99999998245E-14  0.12500000000E+03  0.12500000000E+03 0.  0.
        -11    1    1    0    0    0 -0.33910794188E+02  0.28311575185E+02 -0.19162160491E+02  0.48152628660E+02  0.51100000000E-03 0.  1.
         11    1    1    0    0    0 -0.10166781262E+02  0.82599531755E+01 -0.58547703505E+01  0.14348121961E+02  0.51100000000E-03 0. -1.
         22    1    1    0    0    0  0.44077575450E+02 -0.36571528360E+02  0.25016930842E+02  0.62499249379E+02  0.00000000000E+00 0. -1.
</event>
<event>
 4    1  0.1956828E-002  0.9118800E+02  0.7818608E-02  0.1130116E+00
         25   -1    0    0    0    0  0.00000000000E+00  0.00000000000E+00  0.99999998245E-14  0.12500000000E+03  0.12500000000E+03 0.  0.
        -11    1    1    0    0    0  0.54142429453E+02 -0.75584552954E+01  0.97768441660E+01  0.55534850280E+02  0.51100000000E-03 0. -1.
         11    1    1    0    0    0  0.67900676270E+01 -0.94065257850E+00  0.12343086885E+01  0.69651535412E+01  0.51100000000E-03 0.  1.
         22    1    1    0    0    0 -0.60932497080E+02  0.84991078739E+01 -0.11011152855E+02  0.62499996178E+02  0.00000000000E+00 0. -1.
</event>
<event>
 4    1  0.1956828E-002  0.9118800E+02  0.7818608E-02  0.1130116E+00
         25   -1    0    0    0    0  0.00000000000E+00  0.00000000000E+00  0.99999998245E-14  0.12500000000E+03  0.12500000000E+03 0.  0.
        -11    1    1    0    0    0  0.27826278684E+01  0.11212752075E+01 -0.10526559875E+02  0.10945717839E+02  0.51100000000E-03 0.  1.
         11    1    1    0    0    0  0.13065595507E+02  0.56109001506E+01 -0.49554633914E+02  0.51554376430E+02  0.51100000000E-03 0. -1.
         22    1    1    0    0    0 -0.15848223375E+02 -0.67321753581E+01  0.60081193790E+02  0.62499905731E+02  0.00000000000E+00 0. -1.
</event>
<event>
 4    1  0.1956828E-002  0.9118800E+02  0.7818608E-02  0.1130116E+00
         25   -1    0    0    0    0  0.00000000000E+00  0.00000000000E+00  0.99999998245E-14  0.12500000000E+03  0.12500000000E+03 0.  0.
        -11    1    1    0    0    0  0.25796446059E+02 -0.16430492605E+02  0.37002362196E+01  0.30807620240E+02  0.51100000000E-03 0. -1.
         11    1    1    0    0    0  0.26544071241E+02 -0.16909552005E+02  0.37266424194E+01  0.31692404942E+02  0.51100000000E-03 0.  1.
         22    1    1    0    0    0 -0.52340517300E+02  0.33340044610E+02 -0.74268786390E+01  0.62499974817E+02  0.00000000000E+00 0. -1.
</event>
<event>
 4    1  0.1956828E-002  0.9118800E+02  0.7818608E-02  0.1130116E+00
         25   -1    0    0    0    0  0.00000000000E+00  0.00000000000E+00  0.99999998245E-14  0.12500000000E+03  0.12500000000E+03 0.  0.
        -11    1    1    0    0    0  0.17143401716E+02 -0.19700862240E+01 -0.22824369922E+02  0.28613446572E+02  0.51100000000E-03 0.  1.
         11    1    1    0    0    0  0.20255144325E+02 -0.24150684655E+01 -0.27059144784E+02  0.33886586491E+02  0.51100000000E-03 0. -1.
         22    1    1    0    0    0 -0.37398546041E+02  0.43851546895E+01  0.49883514706E+02  0.62499966937E+02  0.00000000000E+00 0.  1.
</event>
<event>
 4    1  0.1956828E-002  0.9118800E+02  0.7818608E-02  0.1130116E+00
         25   -1    0    0    0    0  0.00000000000E+00  0.00000000000E+00  0.99999998245E-14  0.12500000000E+03  0.12500000000E+03 0.  0.
        -11    1    1    0    0    0  0.34458937756E+02  0.31052832229E+02 -0.36587044267E+02  0.59078833682E+02  0.51100000000E-03 0. -1.
         11    1    1    0    0    0  0.20019595814E+01  0.18347279417E+01 -0.20812550479E+01  0.34213581545E+01  0.51100000000E-03 0.  1.
         22    1    1    0    0    0 -0.36460897337E+02 -0.32887560171E+02  0.38668299315E+02  0.62499808164E+02  0.00000000000E+00 0. -1.
</event>
<event>
 4    1  0.1956828E-002  0.9118800E+02  0.7818608E-02  0.1130116E+00
         25   -1    0    0    0    0  0.00000000000E+00  0.00000000000E+00  0.99999998245E-14  0.12500000000E+03  0.12500000000E+03 0.  0.
        -11    1    1    0    0    0  0.47739307178E+01  0.30066036556E+02  0.46686541695E+02  0.55734999277E+02  0.51100000000E-03 0. -1.
         11    1    1    0    0    0  0.58300824452E+00  0.36545587868E+01  0.56629992070E+01  0.67650024996E+01  0.51100000000E-03 0.  1.
         22    1    1    0    0    0 -0.53569389623E+01 -0.33720595343E+02 -0.52349540902E+02  0.62499998224E+02  0.00000000000E+00 0. -1.
</event>
<event>
 4    1  0.1956828E-002  0.9118800E+02  0.7818608E-02  0.1130116E+00
         25   -1    0    0    0    0  0.00000000000E+00  0.00000000000E+00  0.99999998245E-14  0.12500000000E+03  0.12500000000E+03 0.  0.
        -11    1    1    0    0    0  0.15685475957E+00  0.54701498812E-01  0.29100216859E+00  0.33507938286E+00  0.51100000000E-03 0. -1.
         11    1    1    0    0    0  0.29144162038E+02  0.99092441309E+01  0.54008353418E+02  0.62164922097E+02  0.51100000000E-03 0.  1.
         22    1    1    0    0    0 -0.29301016798E+02 -0.99639456297E+01 -0.54299355587E+02  0.62499998520E+02  0.00000000000E+00 0.  1.
</event>
<event>
 4    1  0.1956828E-002  0.9118800E+02  0.7818608E-02  0.1130116E+00
         25   -1    0    0    0    0  0.00000000000E+00  0.00000000000E+00  0.99999998245E-14  0.12500000000E+03  0.12500000000E+03 0.  0.
        -11    1    1    0    0    0  0.54957435437E+02  0.95646622979E+01  0.49649828513E+01  0.56004049225E+02  0.51100000000E-03 0.  1.
         11    1    1    0    0    0  0.62437530390E+01  0.19141211882E+01 -0.76034601298E-02  0.65305719511E+01  0.51100000000E-03 0. -1.
         22    1    1    0    0    0 -0.61201188476E+02 -0.11478783486E+02 -0.49573793912E+01  0.62465378824E+02  0.00000000000E+00 0.  1.
</event>
<event>
 4    1  0.1956828E-002  0.9118800E+02  0.7818608E-02  0.1130116E+00
         25   -1    0    0    0    0  0.00000000000E+00  0.00000000000E+00  0.99999998245E-14  0.12500000000E+03  0.12500000000E+03 0.  0.
        -11    1    1    0    0    0  0.72556033040E+01  0.51045765958E+01  0.29182943889E+02  0.30501552351E+02  0.51100000000E-03 0.  1.
         11    1    1    0    0    0  0.90912490620E-01  0.13097042945E+02  0.29684164319E+02  0.32445190869E+02  0.51100000000E-03 0. -1.
         22    1    1    0    0    0 -0.73465157946E+01 -0.18201619541E+02 -0.58867108208E+02  0.62053256780E+02  0.00000000000E+00 0. -1.
</event>
<event>
 4    1  0.1956828E-002  0.9118800E+02  0.7818608E-02  0.1130116E+00
         25   -1    0    0    0    0  0.00000000000E+00  0.00000000000E+00  0.99999998245E-14  0.12500000000E+03  0.12500000000E+03 0.  0.
        -11    1    1    0    0    0  0.12082951502E+02  0.12809389999E+02 -0.43118300385E+02  0.46575379950E+02  0.51100000000E-03 0. -1.
         11    1    1    0    0    0 -0.53400444990E+01  0.20444786860E+02 -0.28156040253E+01  0.21317434444E+02  0.51100000000E-03 0.  1.
         22    1    1    0    0    0 -0.67429070026E+01 -0.33254176859E+02  0.45933904410E+02  0.57107185606E+02  0.00000000000E+00 0. -1.
</event>
<event>
 4    1  0.1956828E-002  0.9118800E+02  0.7818608E-02  0.1130116E+00
         25   -1    0    0    0    0  0.00000000000E+00  0.00000000000E+00  0.99999998245E-14  0.12500000000E+03  0.12500000000E+03 0.  0.
        -11    1    1    0    0    0 -0.23795191271E+01  0.58041109522E+01  0.68519372775E+01  0.92897179687E+01  0.51100000000E-03 0. -1.
         11    1    1    0    0    0 -0.15537446078E+02  0.34596094777E+02  0.37332435019E+02  0.53216658193E+02  0.51100000000E-03 0.  1.
         22    1    1    0    0    0  0.17916965205E+02 -0.40400205730E+02 -0.44184372297E+02  0.62493623838E+02  0.00000000000E+00 0.  1.
</event>
<event>
 4    1  0.1956828E-002  0.9118800E+02  0.7818608E-02  0.1130116E+00
         25   -1    0    0    0    0  0.00000000000E+00  0.00000000000E+00  0.99999998245E-14  0.12500000000E+03  0.12500000000E+03 0.  0.
        -11    1    1    0    0    0  0.36236834928E+02 -0.11230076548E+02  0.20394095876E+02  0.43071359065E+02  0.51100000000E-03 0. -1.
         11    1    1    0    0    0  0.16372589727E+02 -0.51058840324E+01  0.91292301889E+01  0.19428705315E+02  0.51100000000E-03 0.  1.
         22    1    1    0    0    0 -0.52609424655E+02  0.16335960580E+02 -0.29523326064E+02  0.62499935620E+02  0.00000000000E+00 0. -1.
</event>
<event>
 4    1  0.1956828E-002  0.9118800E+02  0.7818608E-02  0.1130116E+00
         25   -1    0    0    0    0  0.00000000000E+00  0.00000000000E+00  0.99999998245E-14  0.12500000000E+03  0.12500000000E+03 0.  0.
        -11    1    1    0    0    0 -0.14355623675E+02 -0.32211891604E+02  0.21763093995E+02  0.41440585810E+02  0.51100000000E-03 0.  1.
         11    1    1    0    0    0 -0.72956205742E+01 -0.16369525440E+02  0.11059452216E+02  0.21059414196E+02  0.51100000000E-03 0.  1.
         22    1    1    0    0    0  0.21651244249E+02  0.48581417044E+02 -0.32822546211E+02  0.62499999994E+02  0.00000000000E+00 0.  1.
</event>
<event>
 4    1  0.1956828E-002  0.9118800E+02  0.7818608E-02  0.1130116E+00
         25   -1    0    0    0    0  0.00000000000E+00  0.00000000000E+00  0.99999998245E-14  0.12500000000E+03  0.12500000000E+03 0.  0.
        -11    1    1    0    0    0  0.60130507088E+01  0.32770816278E+02 -0.43422365415E+02  0.54731937631E+02  0.51100000000E-03 0. -1.
         11    1    1    0    0    0  0.85591188464E+00  0.46535443783E+01 -0.61607418145E+01  0.77680628474E+01  0.51100000000E-03 0.  1.
         22    1    1    0    0    0 -0.68689625934E+01 -0.37424360656E+02  0.49583107230E+02  0.62499999521E+02  0.00000000000E+00 0. -1.
</event>
<event>
 4    1  0.1956828E-002  0.9118800E+02  0.7818608E-02  0.1130116E+00
         25   -1    0    0    0    0  0.00000000000E+00  0.00000000000E+00  0.99999998245E-14  0.12500000000E+03  0.12500000000E+03 0.  0.
        -11    1    1    0    0    0 -0.17572239293E+02  0.40028205278E+02 -0.18086198308E+02  0.47309104632E+02  0.51100000000E-03 0. -1.
         11    1    1    0    0    0 -0.45898822320E+01  0.12679154982E+02 -0.70688736467E+01  0.15224879798E+02  0.51100000000E-03 0.  1.
         22    1    1    0    0    0  0.22162121525E+02 -0.52707360261E+02  0.25155071955E+02  0.62466015570E+02  0.00000000000E+00 0. -1.
</event>
<event>
 4    1  0.1956828E-002  0.9118800E+02  0.7818608E-02  0.1130116E+00
         25   -1    0    0    0    0  0.00000000000E+00  0.00000000000E+00  0.99999998245E-14  0.12500000000E+03  0.12500000000E+03 0.  0.
        -11    1    1    0    0    0  0.50007819377E+02  0.10205038703E+01 -0.25075139102E+02  0.55951640085E+02  0.51100000000E-03 0.  1.
         11    1    1    0    0    0  0.58613777947E+01  0.11754308614E+00 -0.29174679856E+01  0.65483727550E+01  0.51100000000E-03 0. -1.
         22    1    1    0    0    0 -0.55869197171E+02 -0.11380469564E+01  0.27992607088E+02  0.62499987160E+02  0.00000000000E+00 0.  1.
</event>
<event>
 4    1  0.1956828E-002  0.9118800E+02  0.7818608E-02  0.1130116E+00
         25   -1    0    0    0    0  0.00000000000E+00  0.00000000000E+00  0.99999998245E-14  0.12500000000E+03  0.12500000000E+03 0.  0.
        -11    1    1    0    0    0 -0.10747543544E+02 -0.61025899252E+00 -0.21502259679E+02  0.24046398479E+02  0.51100000000E-03 0.  1.
         11    1    1    0    0    0 -0.17148756448E+02 -0.11646436443E+01 -0.34398406853E+02  0.38453694710E+02  0.51100000000E-03 0. -1.
         22    1    1    0    0    0  0.27896299992E+02  0.17749026369E+01  0.55900666532E+02  0.62499906811E+02  0.00000000000E+00 0. -1.
</event>
<event>
 4    1  0.1956828E-002  0.9118800E+02  0.7818608E-02  0.1130116E+00
         25   -1    0    0    0    0  0.00000000000E+00  0.00000000000E+00  0.99999998245E-14  0.12500000000E+03  0.12500000000E+03 0.  0.
        -11    1    1    0    0    0 -0.19027900829E+02 -0.17999824418E+02 -0.18183808183E+02  0.31885820819E+02  0.51100000000E-03 0.  1.
         11    1    1    0    0    0 -0.18267605271E+02 -0.17284987738E+02 -0.17457140856E+02  0.30614179241E+02  0.51100000000E-03 0. -1.
         22    1    1    0    0    0  0.37295506100E+02  0.35284812156E+02  0.35640949039E+02  0.62499999940E+02  0.00000000000E+00 0. -1.
</event>
<event>
 4    1  0.1956828E-002  0.9118800E+02  0.7818608E-02  0.1130116E+00
         25   -1    0    0    0    0  0.00000000000E+00  0.00000000000E+00  0.99999998245E-14  0.12500000000E+03  0.12500000000E+03 0.  0.
        -11    1    1    0    0    0 -0.26427692116E+02  0.20710824450E+02 -0.60916322607E+01  0.34124318951E+02  0.51100000000E-03 0.  1.
         11    1    1    0    0    0 -0.21633509010E+02  0.17613813307E+02 -0.51964147990E+01  0.28377065710E+02  0.51100000000E-03 0. -1.
         22    1    1    0    0    0  0.48061201126E+02 -0.38324637758E+02  0.11288047060E+02  0.62498615339E+02  0.00000000000E+00 0.  1.
</event>
<event>
 4    1  0.1956828E-002  0.9118800E+02  0.7818608E-02  0.1130116E+00
         25   -1    0    0    0    0  0.00000000000E+00  0.00000000000E+00  0.99999998245E-14  0.12500000000E+03  0.12500000000E+03 0.  0.
        -11    1    1    0    0    0  0.31280377085E+02  0.24087418100E+02  0.32790403600E+02  0.51321304249E+02  0.51100000000E-03 0.  1.
         11    1    1    0    0    0  0.70403929254E+01  0.63722289238E+01  0.59898898789E+01  0.11227253227E+02  0.51100000000E-03 0. -1.
         22    1    1    0    0    0 -0.38320770011E+02 -0.30459647024E+02 -0.38780293478E+02  0.62451442524E+02  0.00000000000E+00 0.  1.
</event>
<event>
 4    1  0.1956828E-002  0.9118800E+02  0.7818608E-02  0.1130116E+00
         25   -1    0    0    0    0  0.00000000000E+00  0.00000000000E+00  0.99999998245E-14  0.12500000000E+03  0.12500000000E+03 0.  0.
        -11    1    1    0    0    0 -0.11574108427E+02 -0.52940420217E+02  0.24893411856E+02  0.59634973235E+02  0.51100000000E-03 0.  1.
         11    1    1    0    0    0 -0.61807750011E+00 -0.25500490992E+01  0.11516939511E+01  0.28655138148E+01  0.51100000000E-03 0. -1.
         22    1    1    0    0    0  0.12192185927E+02  0.55490469316E+02 -0.26045105807E+02  0.62499512951E+02  0.00000000000E+00 0.  1.
</event>
<event>
 4    1  0.1956828E-002  0.9118800E+02  0.7818608E-02  0.1130116E+00
         25   -1    0    0    0    0  0.00000000000E+00  0.00000000000E+00  0.99999998245E-14  0.12500000000E+03  0.12500000000E+03 0.  0.
        -11    1    1    0    0    0  0.79378449443E+01 -0.48415224482E+02 -0.25710603436E+02  0.55390238069E+02  0.51100000000E-03 0. -1.
         11    1    1    0    0    0  0.10184577012E+01 -0.62151289043E+01 -0.32990350178E+01  0.71097619999E+01  0.51100000000E-03 0.  1.
         22    1    1    0    0    0 -0.89563026456E+01  0.54630353386E+02  0.29009638454E+02  0.62499999931E+02  0.00000000000E+00 0. -1.
</event>
<event>
 4    1  0.1956828E-002  0.9118800E+02  0.7818608E-02  0.1130116E+00
         25   -1    0    0    0    0  0.00000000000E+00  0.00000000000E+00  0.99999998245E-14  0.12500000000E+03  0.12500000000E+03 0.  0.
        -11    1    1    0    0    0  0.83133366555E+01 -0.23515283440E+02 -0.41231300663E+02  0.48188175689E+02  0.51100000000E-03 0. -1.
         11    1    1    0    0    0  0.24676408191E+01 -0.69825987191E+01 -0.12246729397E+02  0.14311824386E+02  0.51100000000E-03 0.  1.
         22    1    1    0    0    0 -0.10780977475E+02  0.30497882160E+02  0.53478030060E+02  0.62499999925E+02  0.00000000000E+00 0.  1.
</event>
<event>
 4    1  0.1956828E-002  0.9118800E+02  0.7818608E-02  0.1130116E+00
         25   -1    0    0    0    0  0.00000000000E+00  0.00000000000E+00  0.99999998245E-14  0.12500000000E+03  0.12500000000E+03 0.  0.
        -11    1    1    0    0    0  0.33786713981E+02  0.42287230386E+02  0.11664708213E+02  0.55369823128E+02  0.51100000000E-03 0.  1.
         11    1    1    0    0    0  0.45034582679E+01  0.52980792144E+01  0.15848076951E+01  0.71317876738E+01  0.51100000000E-03 0. -1.
         22    1    1    0    0    0 -0.38290172249E+02 -0.47585309600E+02 -0.13249515908E+02  0.62498389198E+02  0.00000000000E+00 0.  1.
</event>
<event>
 4    1  0.1956828E-002  0.9118800E+02  0.7818608E-02  0.1130116E+00
         25   -1    0    0    0    0  0.00000000000E+00  0.00000000000E+00  0.99999998245E-14  0.12500000000E+03  0.12500000000E+03 0.  0.
        -11    1    1    0    0    0 -0.23660230864E+02  0.69877580751E+01 -0.43869997918E+02  0.50331024280E+02  0.51100000000E-03 0. -1.
         11    1    1    0    0    0 -0.57224484161E+01  0.16917057317E+01 -0.10605455673E+02  0.12168975900E+02  0.51100000000E-03 0.  1.
         22    1    1    0    0    0  0.29382679280E+02 -0.86794638068E+01  0.54475453591E+02  0.62499999821E+02  0.00000000000E+00 0. -1.
</event>
<event>
 4    1  0.1956828E-002  0.9118800E+02  0.7818608E-02  0.1130116E+00
         25   -1    0    0    0    0  0.00000000000E+00  0.00000000000E+00  0.99999998245E-14  0.12500000000E+03  0.12500000000E+03 0.  0.
        -11    1    1    0    0    0 -0.18376492305E+02 -0.10080967943E+02  0.13656408272E+02  0.25016372064E+02  0.51100000000E-03 0. -1.
         11    1    1    0    0    0 -0.27641050934E+02 -0.15161352507E+02  0.20276534762E+02  0.37483758733E+02  0.51100000000E-03 0.  1.
         22    1    1    0    0    0  0.46017543239E+02  0.25242320450E+02 -0.33932943034E+02  0.62499869203E+02  0.00000000000E+00 0. -1.
</event>
<event>
 4    1  0.1956828E-002  0.9118800E+02  0.7818608E-02  0.1130116E+00
         25   -1    0    0    0    0  0.00000000000E+00  0.00000000000E+00  0.99999998245E-14  0.12500000000E+03  0.12500000000E+03 0.  0.
        -11    1    1    0    0    0  0.29300165972E+01 -0.20779438032E+01 -0.74997300816E+01  0.83155757027E+01  0.51100000000E-03 0. -1.
         11    1    1    0    0    0  0.18525254781E+02 -0.13942380706E+02 -0.48973560979E+02  0.54184727734E+02  0.51100000000E-03 0.  1.
         22    1    1    0    0    0 -0.21455271378E+02  0.16020324509E+02  0.56473291060E+02  0.62499696563E+02  0.00000000000E+00 0.  1.
</event>
<event>
 4    1  0.1956828E-002  0.9118800E+02  0.7818608E-02  0.1130116E+00
         25   -1    0    0    0    0  0.00000000000E+00  0.00000000000E+00  0.99999998245E-14  0.12500000000E+03  0.12500000000E+03 0.  0.
        -11    1    1    0    0    0  0.31919602312E+01 -0.23000896645E+01  0.25164277696E+02  0.25469980267E+02  0.51100000000E-03 0.  1.
         11    1    1    0    0    0  0.47157910763E+01 -0.31347984628E+01  0.36594628030E+02  0.37030155924E+02  0.51100000000E-03 0. -1.
         22    1    1    0    0    0 -0.79077513076E+01  0.54348881273E+01 -0.61758905726E+02  0.62499863809E+02  0.00000000000E+00 0. -1.
</event>
<event>
 4    1  0.1956828E-002  0.9118800E+02  0.7818608E-02  0.1130116E+00
         25   -1    0    0    0    0  0.00000000000E+00  0.00000000000E+00  0.99999998245E-14  0.12500000000E+03  0.12500000000E+03 0.  0.
        -11    1    1    0    0    0 -0.92060948851E+01  0.60809243974E+01 -0.12018557138E+01  0.11098390964E+02  0.51100000000E-03 0. -1.
         11    1    1    0    0    0 -0.42635178153E+02  0.28163133358E+02 -0.55861391512E+01  0.51401609387E+02  0.51100000000E-03 0.  1.
         22    1    1    0    0    0  0.51841273039E+02 -0.34244057756E+02  0.67879948651E+01  0.62499999649E+02  0.00000000000E+00 0.  1.
</event>
<event>
 4    1  0.1956828E-002  0.9118800E+02  0.7818608E-02  0.1130116E+00
         25   -1    0    0    0    0  0.00000000000E+00  0.00000000000E+00  0.99999998245E-14  0.12500000000E+03  0.12500000000E+03 0.  0.
        -11    1    1    0    0    0 -0.44146439547E-01 -0.39932406674E-01 -0.76778558782E-01  0.97153041317E-01  0.51100000000E-03 0. -1.
         11    1    1    0    0    0 -0.21434862902E+02 -0.25345906992E+02 -0.52842161279E+02  0.62403223937E+02  0.51100000000E-03 0.  1.
         22    1    1    0    0    0  0.21479009342E+02  0.25385839398E+02  0.52918939838E+02  0.62499623021E+02  0.00000000000E+00 0.  1.
</event>
<event>
 4    1  0.1956828E-002  0.9118800E+02  0.7818608E-02  0.1130116E+00
         25   -1    0    0    0    0  0.00000000000E+00  0.00000000000E+00  0.99999998245E-14  0.12500000000E+03  0.12500000000E+03 0.  0.
        -11    1    1    0    0    0  0.25645728337E+02 -0.37781273512E+02  0.34553171712E+02  0.57262987049E+02  0.51100000000E-03 0.  1.
         11    1    1    0    0    0  0.23451772984E+01 -0.34553766648E+01  0.31601930500E+01  0.52370129684E+01  0.51100000000E-03 0. -1.
         22    1    1    0    0    0 -0.27990905635E+02  0.41236650177E+02 -0.37713364762E+02  0.62499999983E+02  0.00000000000E+00 0.  1.
</event>
<event>
 4    1  0.1956828E-002  0.9118800E+02  0.7818608E-02  0.1130116E+00
         25   -1    0    0    0    0  0.00000000000E+00  0.00000000000E+00  0.99999998245E-14  0.12500000000E+03  0.12500000000E+03 0.  0.
        -11    1    1    0    0    0 -0.14276770984E+02  0.18632318131E+02  0.25821506954E+02  0.34896127153E+02  0.51100000000E-03 0.  1.
         11    1    1    0    0    0 -0.11305012866E+02  0.14730656076E+02  0.20424943280E+02  0.27603873869E+02  0.51100000000E-03 0. -1.
         22    1    1    0    0    0  0.25581783850E+02 -0.33362974208E+02 -0.46246450234E+02  0.62499998977E+02  0.00000000000E+00 0. -1.
</event>
<event>
 4    1  0.1956828E-002  0.9118800E+02  0.7818608E-02  0.1130116E+00
         25   -1    0    0    0    0  0.00000000000E+00  0.00000000000E+00  0.99999998245E-14  0.12500000000E+03  0.12500000000E+03 0.  0.
        -11    1    1    0    0    0 -0.18398028896E+01  0.37024679073E+00 -0.53422676586E+01  0.56623123683E+01  0.51100000000E-03 0. -1.
         11    1    1    0    0    0 -0.18355202055E+02  0.37008408120E+01 -0.53664827659E+02  0.56837693418E+02  0.51100000000E-03 0.  1.
         22    1    1    0    0    0  0.20195004944E+02 -0.40710876027E+01  0.59007095317E+02  0.62499994214E+02  0.00000000000E+00 0.  1.
</event>
<event>
 4    1  0.1956828E-002  0.9118800E+02  0.7818608E-02  0.1130116E+00
         25   -1    0    0    0    0  0.00000000000E+00  0.00000000000E+00  0.99999998245E-14  0.12500000000E+03  0.12500000000E+03 0.  0.
        -11    1    1    0    0    0 -0.14487091226E+02 -0.21118311510E+01 -0.83123256065E+01  0.16835391301E+02  0.51100000000E-03 0. -1.
         11    1    1    0    0    0 -0.31715081521E+02 -0.11817628911E+02 -0.31019468247E+02  0.45909804612E+02  0.51100000000E-03 0.  1.
         22    1    1    0    0    0  0.46202172747E+02  0.13929460062E+02  0.39331793853E+02  0.62254804087E+02  0.00000000000E+00 0.  1.
</event>
<event>
 4    1  0.1956828E-002  0.9118800E+02  0.7818608E-02  0.1130116E+00
         25   -1    0    0    0    0  0.00000000000E+00  0.00000000000E+00  0.99999998245E-14  0.12500000000E+03  0.12500000000E+03 0.  0.
        -11    1    1    0    0    0 -0.39828707728E+02 -0.21905175397E+01  0.18051793758E+02  0.43783462455E+02  0.51100000000E-03 0. -1.
         11    1    1    0    0    0 -0.17023550271E+02 -0.91839008958E+00  0.77242610471E+01  0.18716541165E+02  0.51100000000E-03 0.  1.
         22    1    1    0    0    0  0.56852257999E+02  0.31089076293E+01 -0.25776054805E+02  0.62499996381E+02  0.00000000000E+00 0. -1.
</event>
<event>
 4    1  0.1956828E-002  0.9118800E+02  0.7818608E-02  0.1130116E+00
         25   -1    0    0    0    0  0.00000000000E+00  0.00000000000E+00  0.99999998245E-14  0.12500000000E+03  0.12500000000E+03 0.  0.
        -11    1    1    0    0    0  0.19383130210E+02  0.32936718565E+02  0.43432238146E+02  0.57852333377E+02  0.51100000000E-03 0. -1.
         11    1    1    0    0    0  0.15419696896E+01  0.26162647607E+01  0.35184094271E+01  0.46477647294E+01  0.51100000000E-03 0.  1.
         22    1    1    0    0    0 -0.20925099899E+02 -0.35552983326E+02 -0.46950647573E+02  0.62499901893E+02  0.00000000000E+00 0. -1.
</event>
<event>
 4    1  0.1956828E-002  0.9118800E+02  0.7818608E-02  0.1130116E+00
         25   -1    0    0    0    0  0.00000000000E+00  0.00000000000E+00  0.99999998245E-14  0.12500000000E+03  0.12500000000E+03 0.  0.
        -11    1    1    0    0    0  0.35317450143E+02 -0.11548032672E+02  0.44786909427E+02  0.58194042646E+02  0.51100000000E-03 0.  1.
         11    1    1    0    0    0 -0.75123216900E+00 -0.31071153760E+01  0.40789744526E+01  0.51823304195E+01  0.51100000000E-03 0. -1.
         22    1    1    0    0    0 -0.34566217974E+02  0.14655148048E+02 -0.48865883879E+02  0.61623626935E+02  0.00000000000E+00 0.  1.
</event>
<event>
 4    1  0.1956828E-002  0.9118800E+02  0.7818608E-02  0.1130116E+00
         25   -1    0    0    0    0  0.00000000000E+00  0.00000000000E+00  0.99999998245E-14  0.12500000000E+03  0.12500000000E+03 0.  0.
        -11    1    1    0    0    0 -0.22907142222E+01 -0.20826834757E+02  0.14032000613E+02  0.25217086650E+02  0.51100000000E-03 0.  1.
         11    1    1    0    0    0 -0.33791242787E+01 -0.30770342352E+02  0.20779401102E+02  0.37282917801E+02  0.51100000000E-03 0. -1.
         22    1    1    0    0    0  0.56698385009E+01  0.51597177109E+02 -0.34811401715E+02  0.62499995549E+02  0.00000000000E+00 0. -1.
</event>
<event>
 4    1  0.1956828E-002  0.9118800E+02  0.7818608E-02  0.1130116E+00
         25   -1    0    0    0    0  0.00000000000E+00  0.00000000000E+00  0.99999998245E-14  0.12500000000E+03  0.12500000000E+03 0.  0.
        -11    1    1    0    0    0 -0.82047448738E+00 -0.44178319413E+02  0.21683264614E+02  0.49219518985E+02  0.51100000000E-03 0. -1.
         11    1    1    0    0    0 -0.22169125991E+00 -0.11920009834E+02  0.58511019989E+01  0.13280481027E+02  0.51100000000E-03 0. -1.
         22    1    1    0    0    0  0.10421657473E+01  0.56098329247E+02 -0.27534366613E+02  0.62499999988E+02  0.00000000000E+00 0. -1.
</event>
<event>
 4    1  0.1956828E-002  0.9118800E+02  0.7818608E-02  0.1130116E+00
         25   -1    0    0    0    0  0.00000000000E+00  0.00000000000E+00  0.99999998245E-14  0.12500000000E+03  0.12500000000E+03 0.  0.
        -11    1    1    0    0    0  0.43563762292E+01  0.37277965148E+01 -0.28568458108E+00  0.57407400784E+01  0.51100000000E-03 0. -1.
         11    1    1    0    0    0  0.43072309829E+02  0.36881552866E+02 -0.24791690924E+01  0.56759308448E+02  0.51100000000E-03 0.  1.
         22    1    1    0    0    0 -0.47428686058E+02 -0.40609349381E+02  0.27648536735E+01  0.62499951474E+02  0.00000000000E+00 0.  1.
</event>
<event>
 4    1  0.1956828E-002  0.9118800E+02  0.7818608E-02  0.1130116E+00
         25   -1    0    0    0    0  0.00000000000E+00  0.00000000000E+00  0.99999998245E-14  0.12500000000E+03  0.12500000000E+03 0.  0.
        -11    1    1    0    0    0  0.13389940961E+02 -0.54136198172E+02 -0.27467291528E+01  0.55835141200E+02  0.51100000000E-03 0.  1.
         11    1    1    0    0    0 -0.10179423195E+01 -0.61637010947E+01 -0.37186989535E+01  0.72702228246E+01  0.51100000000E-03 0. -1.
         22    1    1    0    0    0 -0.12371998641E+02  0.60299899267E+02  0.64654281063E+01  0.61894635976E+02  0.00000000000E+00 0.  1.
</event>
<event>
 4    1  0.1956828E-002  0.9118800E+02  0.7818608E-02  0.1130116E+00
         25   -1    0    0    0    0  0.00000000000E+00  0.00000000000E+00  0.99999998245E-14  0.12500000000E+03  0.12500000000E+03 0.  0.
        -11    1    1    0    0    0  0.15434874638E+01 -0.56053571186E+01 -0.76631769586E-01  0.58144866211E+01  0.51100000000E-03 0. -1.
         11    1    1    0    0    0  0.15052184650E+02 -0.54644863523E+02 -0.78621142425E+00  0.56685514030E+02  0.51100000000E-03 0.  1.
         22    1    1    0    0    0 -0.16595672114E+02  0.60250220641E+02  0.86284319384E+00  0.62499999349E+02  0.00000000000E+00 0.  1.
</event>
<event>
 4    1  0.1956828E-002  0.9118800E+02  0.7818608E-02  0.1130116E+00
         25   -1    0    0    0    0  0.00000000000E+00  0.00000000000E+00  0.99999998245E-14  0.12500000000E+03  0.12500000000E+03 0.  0.
        -11    1    1    0    0    0 -0.28395301150E+02  0.18641464214E+02 -0.35869471067E+02  0.49400569535E+02  0.51100000000E-03 0. -1.
         11    1    1    0    0    0 -0.75726069723E+01  0.48760627488E+01 -0.95119516846E+01  0.13099526304E+02  0.51100000000E-03 0.  1.
         22    1    1    0    0    0  0.35967908122E+02 -0.23517526962E+02  0.45381422752E+02  0.62499904161E+02  0.00000000000E+00 0. -1.
</event>
<event>
 4    1  0.1956828E-002  0.9118800E+02  0.7818608E-02  0.1130116E+00
         25   -1    0    0    0    0  0.00000000000E+00  0.00000000000E+00  0.99999998245E-14  0.12500000000E+03  0.12500000000E+03 0.  0.
        -11    1    1    0    0    0 -0.28076624779E+02 -0.11633100921E+02 -0.12583094461E+02  0.32893162853E+02  0.51100000000E-03 0. -1.
         11    1    1    0    0    0 -0.26171783004E+02 -0.84364178561E+01 -0.11034246672E+02  0.29629208085E+02  0.51100000000E-03 0.  1.
         22    1    1    0    0    0  0.54248407783E+02  0.20069518777E+02  0.23617341133E+02  0.62477629062E+02  0.00000000000E+00 0. -1.
</event>
<event>
 4    1  0.1956828E-002  0.9118800E+02  0.7818608E-02  0.1130116E+00
         25   -1    0    0    0    0  0.00000000000E+00  0.00000000000E+00  0.99999998245E-14  0.12500000000E+03  0.12500000000E+03 0.  0.
        -11    1    1    0    0    0  0.10799828278E+01  0.26997586931E+01  0.27817192536E+01  0.40240554390E+01  0.51100000000E-03 0.  1.
         11    1    1    0    0    0  0.15911136273E+02  0.39220099935E+02  0.40349192014E+02  0.58475959101E+02  0.51100000000E-03 0. -1.
         22    1    1    0    0    0 -0.16991119101E+02 -0.41919858628E+02 -0.43130911268E+02  0.62499985460E+02  0.00000000000E+00 0. -1.
</event>
<event>
 4    1  0.1956828E-002  0.9118800E+02  0.7818608E-02  0.1130116E+00
         25   -1    0    0    0    0  0.00000000000E+00  0.00000000000E+00  0.99999998245E-14  0.12500000000E+03  0.12500000000E+03 0.  0.
        -11    1    1    0    0    0  0.36682093822E+02 -0.26691570827E+02  0.35841184919E+02  0.57815279097E+02  0.51100000000E-03 0. -1.
         11    1    1    0    0    0  0.58579333696E+00 -0.65421361392E+01 -0.66378305635E+01  0.93382811024E+01  0.51100000000E-03 0.  1.
         22    1    1    0    0    0 -0.37267887159E+02  0.33233706966E+02 -0.29203354355E+02  0.57846439801E+02  0.00000000000E+00 0. -1.
</event>
<event>
 4    1  0.1956828E-002  0.9118800E+02  0.7818608E-02  0.1130116E+00
         25   -1    0    0    0    0  0.00000000000E+00  0.00000000000E+00  0.99999998245E-14  0.12500000000E+03  0.12500000000E+03 0.  0.
        -11    1    1    0    0    0 -0.17851183041E+02 -0.83623820111E+01  0.13293806128E+01  0.19757566194E+02  0.51100000000E-03 0. -1.
         11    1    1    0    0    0 -0.38560500950E+02 -0.18213607880E+02  0.28759027669E+01  0.42742467904E+02  0.51100000000E-03 0.  1.
         22    1    1    0    0    0  0.56411683991E+02  0.26575989891E+02 -0.42052833797E+01  0.62499965902E+02  0.00000000000E+00 0.  1.
</event>
<event>
 4    1  0.1956828E-002  0.9118800E+02  0.7818608E-02  0.1130116E+00
         25   -1    0    0    0    0  0.00000000000E+00  0.00000000000E+00  0.99999998245E-14  0.12500000000E+03  0.12500000000E+03 0.  0.
        -11    1    1    0    0    0  0.67181439454E+01  0.14047630141E+02  0.10005367294E+02  0.18508828856E+02  0.51100000000E-03 0.  1.
         11    1    1    0    0    0  0.16345613902E+02  0.40301031772E+02  0.91104950556E+01  0.44433696404E+02  0.51100000000E-03 0. -1.
         22    1    1    0    0    0 -0.23063757847E+02 -0.54348661913E+02 -0.19115862350E+02  0.62057474740E+02  0.00000000000E+00 0. -1.
</event>
<event>
 4    1  0.1956828E-002  0.9118800E+02  0.7818608E-02  0.1130116E+00
         25   -1    0    0    0    0  0.00000000000E+00  0.00000000000E+00  0.99999998245E-14  0.12500000000E+03  0.12500000000E+03 0.  0.
        -11    1    1    0    0    0  0.37825649244E+00  0.47592969054E+02 -0.72264720582E+01  0.48139959285E+02  0.51100000000E-03 0. -1.
         11    1    1    0    0    0  0.31079297300E+01  0.13992500821E+02 -0.20602853972E+01  0.14480817747E+02  0.51100000000E-03 0.  1.
         22    1    1    0    0    0 -0.34861862224E+01 -0.61585469875E+02  0.92867574554E+01  0.62379222968E+02  0.00000000000E+00 0. -1.
</event>
<event>
 4    1  0.1956828E-002  0.9118800E+02  0.7818608E-02  0.1130116E+00
         25   -1    0    0    0    0  0.00000000000E+00  0.00000000000E+00  0.99999998245E-14  0.12500000000E+03  0.12500000000E+03 0.  0.
        -11    1    1    0    0    0  0.36669688981E+02 -0.16925969055E+02 -0.20798554703E+02  0.45428343536E+02  0.51100000000E-03 0.  1.
         11    1    1    0    0    0  0.13781762682E+02 -0.63582910565E+01 -0.78151525722E+01  0.17071656562E+02  0.51100000000E-03 0. -1.
         22    1    1    0    0    0 -0.50451451662E+02  0.23284260112E+02  0.28613707275E+02  0.62499999903E+02  0.00000000000E+00 0.  1.
</event>
<event>
 4    1  0.1956828E-002  0.9118800E+02  0.7818608E-02  0.1130116E+00
         25   -1    0    0    0    0  0.00000000000E+00  0.00000000000E+00  0.99999998245E-14  0.12500000000E+03  0.12500000000E+03 0.  0.
        -11    1    1    0    0    0  0.44400193507E+02 -0.23195458289E+02  0.13575377525E+01  0.50112367513E+02  0.51100000000E-03 0. -1.
         11    1    1    0    0    0  0.10176205645E+02 -0.67951008484E+01 -0.29753112167E+01  0.12592896171E+02  0.51100000000E-03 0.  1.
         22    1    1    0    0    0 -0.54576399152E+02  0.29990559137E+02  0.16177734642E+01  0.62294736317E+02  0.00000000000E+00 0. -1.
</event>
<event>
 4    1  0.1956828E-002  0.9118800E+02  0.7818608E-02  0.1130116E+00
         25   -1    0    0    0    0  0.00000000000E+00  0.00000000000E+00  0.99999998245E-14  0.12500000000E+03  0.12500000000E+03 0.  0.
        -11    1    1    0    0    0 -0.11251021612E+01  0.24151672020E+01  0.57447612625E+00  0.27256027897E+01  0.51100000000E-03 0.  1.
         11    1    1    0    0    0 -0.25388540971E+02  0.52462879128E+02  0.13269262290E+02  0.59774618535E+02  0.51100000000E-03 0. -1.
         22    1    1    0    0    0  0.26513643132E+02 -0.54878046330E+02 -0.13843738417E+02  0.62499778675E+02  0.00000000000E+00 0. -1.
</event>
<event>
 4    1  0.1956828E-002  0.9118800E+02  0.7818608E-02  0.1130116E+00
         25   -1    0    0    0    0  0.00000000000E+00  0.00000000000E+00  0.99999998245E-14  0.12500000000E+03  0.12500000000E+03 0.  0.
        -11    1    1    0    0    0 -0.50434141323E+01 -0.84041707887E+01  0.66212750096E+01  0.11828245676E+02  0.51100000000E-03 0.  1.
         11    1    1    0    0    0 -0.24631443318E+02 -0.29580103891E+02  0.33057430054E+02  0.50739375520E+02  0.51100000000E-03 0. -1.
         22    1    1    0    0    0  0.29674857450E+02  0.37984274680E+02 -0.39678705064E+02  0.62432378804E+02  0.00000000000E+00 0. -1.
</event>
<event>
 4    1  0.1956828E-002  0.9118800E+02  0.7818608E-02  0.1130116E+00
         25   -1    0    0    0    0  0.00000000000E+00  0.00000000000E+00  0.99999998245E-14  0.12500000000E+03  0.12500000000E+03 0.  0.
        -11    1    1    0    0    0  0.44285413058E+02 -0.20041244685E+02  0.36379988113E+02  0.60715342654E+02  0.51100000000E-03 0.  1.
         11    1    1    0    0    0 -0.10611085967E+02  0.74935853559E+01  0.21936706034E+00  0.12992193389E+02  0.51100000000E-03 0. -1.
         22    1    1    0    0    0 -0.33674327091E+02  0.12547659329E+02 -0.36599355173E+02  0.51292463957E+02  0.00000000000E+00 0.  1.
</event>
<event>
 4    1  0.1956828E-002  0.9118800E+02  0.7818608E-02  0.1130116E+00
         25   -1    0    0    0    0  0.00000000000E+00  0.00000000000E+00  0.99999998245E-14  0.12500000000E+03  0.12500000000E+03 0.  0.
        -11    1    1    0    0    0  0.62099097871E-01  0.44959303407E+00  0.41146403274E+00  0.61261170867E+00  0.51100000000E-03 0.  1.
         11    1    1    0    0    0  0.55071775941E+00  0.36507623006E+02  0.49978350219E+02  0.61894630773E+02  0.51100000000E-03 0. -1.
         22    1    1    0    0    0 -0.61281685729E+00 -0.36957216040E+02 -0.50389814252E+02  0.62492757519E+02  0.00000000000E+00 0. -1.
</event>
<event>
 4    1  0.1956828E-002  0.9118800E+02  0.7818608E-02  0.1130116E+00
         25   -1    0    0    0    0  0.00000000000E+00  0.00000000000E+00  0.99999998245E-14  0.12500000000E+03  0.12500000000E+03 0.  0.
        -11    1    1    0    0    0 -0.31162364060E+01  0.36414255681E+02  0.46016716028E+02  0.58764335276E+02  0.51100000000E-03 0.  1.
         11    1    1    0    0    0 -0.19742632568E+00  0.23143231770E+01  0.29257686760E+01  0.37356648041E+01  0.51100000000E-03 0. -1.
         22    1    1    0    0    0  0.33136627317E+01 -0.38728578858E+02 -0.48942484704E+02  0.62499999920E+02  0.00000000000E+00 0.  1.
</event>
<event>
 4    1  0.1956828E-002  0.9118800E+02  0.7818608E-02  0.1130116E+00
         25   -1    0    0    0    0  0.00000000000E+00  0.00000000000E+00  0.99999998245E-14  0.12500000000E+03  0.12500000000E+03 0.  0.
        -11    1    1    0    0    0 -0.30284792711E+01 -0.24836643354E+02 -0.15718998378E+02  0.29548560880E+02  0.51100000000E-03 0. -1.
         11    1    1    0    0    0 -0.49895098837E+01 -0.28651458797E+02 -0.15548438220E+02  0.32978102302E+02  0.51100000000E-03 0.  1.
         22    1    1    0    0    0  0.80179891548E+01  0.53488102151E+02  0.31267436598E+02  0.62473336818E+02  0.00000000000E+00 0. -1.
</event>
<event>
 4    1  0.1956828E-002  0.9118800E+02  0.7818608E-02  0.1130116E+00
         25   -1    0    0    0    0  0.00000000000E+00  0.00000000000E+00  0.99999998245E-14  0.12500000000E+03  0.12500000000E+03 0.  0.
        -11    1    1    0    0    0 -0.17719133517E+02  0.34299647454E+02 -0.93567057485E+01  0.39723814656E+02  0.51100000000E-03 0. -1.
         11    1    1    0    0    0 -0.49610218373E+01  0.22715934960E+02  0.32131474473E+00  0.23253573536E+02  0.51100000000E-03 0.  1.
         22    1    1    0    0    0  0.22680155354E+02 -0.57015582414E+02  0.90353910038E+01  0.62022611808E+02  0.00000000000E+00 0. -1.
</event>
<event>
 4    1  0.1956828E-002  0.9118800E+02  0.7818608E-02  0.1130116E+00
         25   -1    0    0    0    0  0.00000000000E+00  0.00000000000E+00  0.99999998245E-14  0.12500000000E+03  0.12500000000E+03 0.  0.
        -11    1    1    0    0    0 -0.30220040005E+02  0.39239668217E+01 -0.22699254276E+01  0.30558155953E+02  0.51100000000E-03 0. -1.
         11    1    1    0    0    0 -0.31588914616E+02  0.40988908670E+01 -0.23708586982E+01  0.31941844095E+02  0.51100000000E-03 0. -1.
         22    1    1    0    0    0  0.61808954621E+02 -0.80228576887E+01  0.46407841258E+01  0.62499999953E+02  0.00000000000E+00 0. -1.
</event>
<event>
 4    1  0.1956828E-002  0.9118800E+02  0.7818608E-02  0.1130116E+00
         25   -1    0    0    0    0  0.00000000000E+00  0.00000000000E+00  0.99999998245E-14  0.12500000000E+03  0.12500000000E+03 0.  0.
        -11    1    1    0    0    0  0.12244622387E+02 -0.14586749007E+02  0.36024653035E+02  0.40748983430E+02  0.51100000000E-03 0. -1.
         11    1    1    0    0    0  0.75074018656E+01 -0.65278341427E+01  0.19363960611E+02  0.21770086637E+02  0.51100000000E-03 0.  1.
         22    1    1    0    0    0 -0.19752024252E+02  0.21114583149E+02 -0.55388613647E+02  0.62480929933E+02  0.00000000000E+00 0. -1.
</event>
<event>
 4    1  0.1956828E-002  0.9118800E+02  0.7818608E-02  0.1130116E+00
         25   -1    0    0    0    0  0.00000000000E+00  0.00000000000E+00  0.99999998245E-14  0.12500000000E+03  0.12500000000E+03 0.  0.
        -11    1    1    0    0    0 -0.24758710417E+02  0.60635957413E+01 -0.99214403203E+01  0.27353170074E+02  0.51100000000E-03 0. -1.
         11    1    1    0    0    0  0.14594099595E+02  0.33211241018E+02 -0.25050371291E+02  0.44085092435E+02  0.51100000000E-03 0.  1.
         22    1    1    0    0    0  0.10164610821E+02 -0.39274836760E+02  0.34971811611E+02  0.53561737490E+02  0.00000000000E+00 0.  1.
</event>
<event>
 4    1  0.1956828E-002  0.9118800E+02  0.7818608E-02  0.1130116E+00
         25   -1    0    0    0    0  0.00000000000E+00  0.00000000000E+00  0.99999998245E-14  0.12500000000E+03  0.12500000000E+03 0.  0.
        -11    1    1    0    0    0  0.58823060168E+01 -0.44857681429E+01  0.14664234869E+02  0.16424476383E+02  0.51100000000E-03 0.  1.
         11    1    1    0    0    0  0.16497671505E+02 -0.12582388861E+02  0.41139569822E+02  0.46075523654E+02  0.51100000000E-03 0. -1.
         22    1    1    0    0    0 -0.22379977522E+02  0.17068157004E+02 -0.55803804691E+02  0.62499999963E+02  0.00000000000E+00 0. -1.
</event>
<event>
 4    1  0.1956828E-002  0.9118800E+02  0.7818608E-02  0.1130116E+00
         25   -1    0    0    0    0  0.00000000000E+00  0.00000000000E+00  0.99999998245E-14  0.12500000000E+03  0.12500000000E+03 0.  0.
        -11    1    1    0    0    0  0.96986726298E+01 -0.71564120462E+01 -0.13174651369E+01  0.12124941188E+02  0.51100000000E-03 0.  1.
         11    1    1    0    0    0  0.39448189368E+02 -0.31213285669E+02 -0.28572689187E+01  0.50384450306E+02  0.51100000000E-03 0. -1.
         22    1    1    0    0    0 -0.49146861998E+02  0.38369697715E+02  0.41747340556E+01  0.62490608506E+02  0.00000000000E+00 0. -1.
</event>
<event>
 4    1  0.1956828E-002  0.9118800E+02  0.7818608E-02  0.1130116E+00
         25   -1    0    0    0    0  0.00000000000E+00  0.00000000000E+00  0.99999998245E-14  0.12500000000E+03  0.12500000000E+03 0.  0.
        -11    1    1    0    0    0 -0.26676040166E+01  0.38342121710E+02  0.15107750070E+02  0.41297439640E+02  0.51100000000E-03 0.  1.
         11    1    1    0    0    0 -0.16378569178E+01  0.19788383249E+02  0.74395137832E+01  0.21203986712E+02  0.51100000000E-03 0. -1.
         22    1    1    0    0    0  0.43054609344E+01 -0.58130504959E+02 -0.22547263853E+02  0.62498573647E+02  0.00000000000E+00 0.  1.
</event>
<event>
 4    1  0.1956828E-002  0.9118800E+02  0.7818608E-02  0.1130116E+00
         25   -1    0    0    0    0  0.00000000000E+00  0.00000000000E+00  0.99999998245E-14  0.12500000000E+03  0.12500000000E+03 0.  0.
        -11    1    1    0    0    0  0.41112716778E+02 -0.18624906414E+02 -0.28569753915E+02  0.53416977253E+02  0.51100000000E-03 0.  1.
         11    1    1    0    0    0  0.69927566130E+01 -0.31635520888E+01 -0.48574275117E+01  0.90830231289E+01  0.51100000000E-03 0. -1.
         22    1    1    0    0    0 -0.48105473391E+02  0.21788458503E+02  0.33427181426E+02  0.62499999618E+02  0.00000000000E+00 0.  1.
</event>
<event>
 4    1  0.1956828E-002  0.9118800E+02  0.7818608E-02  0.1130116E+00
         25   -1    0    0    0    0  0.00000000000E+00  0.00000000000E+00  0.99999998245E-14  0.12500000000E+03  0.12500000000E+03 0.  0.
        -11    1    1    0    0    0 -0.79825591295E+00 -0.87049765495E+00 -0.16804488527E+01  0.20539930081E+01  0.51100000000E-03 0.  1.
         11    1    1    0    0    0 -0.19923645920E+02 -0.29937071329E+02 -0.48590820851E+02  0.60450374505E+02  0.51100000000E-03 0. -1.
         22    1    1    0    0    0  0.20721901833E+02  0.30807568984E+02  0.50271269704E+02  0.62495632487E+02  0.00000000000E+00 0. -1.
</event>
<event>
 4    1  0.1956828E-002  0.9118800E+02  0.7818608E-02  0.1130116E+00
         25   -1    0    0    0    0  0.00000000000E+00  0.00000000000E+00  0.99999998245E-14  0.12500000000E+03  0.12500000000E+03 0.  0.
        -11    1    1    0    0    0  0.40763120569E+02  0.24290216082E+02  0.13481668781E+02  0.49329524518E+02  0.51100000000E-03 0.  1.
         11    1    1    0    0    0  0.10845921280E+02  0.65143196016E+01  0.36596958538E+01  0.13170563476E+02  0.51100000000E-03 0. -1.
         22    1    1    0    0    0 -0.51609041848E+02 -0.30804535684E+02 -0.17141364634E+02  0.62499912006E+02  0.00000000000E+00 0.  1.
</event>
<event>
 4    1  0.1956828E-002  0.9118800E+02  0.7818608E-02  0.1130116E+00
         25   -1    0    0    0    0  0.00000000000E+00  0.00000000000E+00  0.99999998245E-14  0.12500000000E+03  0.12500000000E+03 0.  0.
        -11    1    1    0    0    0  0.19414825381E+02  0.29148301143E+02  0.16620356633E+02  0.38765902014E+02  0.51100000000E-03 0.  1.
         11    1    1    0    0    0 -0.55128898082E+01  0.26594888335E+02 -0.48385821406E+01  0.27587894392E+02  0.51100000000E-03 0. -1.
         22    1    1    0    0    0 -0.13901935572E+02 -0.55743189478E+02 -0.11781774493E+02  0.58646203594E+02  0.00000000000E+00 0.  1.
</event>
<event>
 4    1  0.1956828E-002  0.9118800E+02  0.7818608E-02  0.1130116E+00
         25   -1    0    0    0    0  0.00000000000E+00  0.00000000000E+00  0.99999998245E-14  0.12500000000E+03  0.12500000000E+03 0.  0.
        -11    1    1    0    0    0  0.92615211583E+01 -0.18217351709E+02  0.27826706594E+01  0.20625007484E+02  0.51100000000E-03 0.  1.
         11    1    1    0    0    0  0.18804706984E+02 -0.36986419718E+02  0.56482519889E+01  0.41874992527E+02  0.51100000000E-03 0.  1.
         22    1    1    0    0    0 -0.28066228142E+02  0.55203771428E+02 -0.84309226483E+01  0.62499999989E+02  0.00000000000E+00 0.  1.
</event>
<event>
 4    1  0.1956828E-002  0.9118800E+02  0.7818608E-02  0.1130116E+00
         25   -1    0    0    0    0  0.00000000000E+00  0.00000000000E+00  0.99999998245E-14  0.12500000000E+03  0.12500000000E+03 0.  0.
        -11    1    1    0    0    0  0.15435902656E+01  0.42136208810E+01  0.20752094989E+01  0.49440637700E+01  0.51100000000E-03 0.  1.
         11    1    1    0    0    0  0.23254211486E+02  0.52521449443E+02 -0.73803253481E+01  0.57911399620E+02  0.51100000000E-03 0. -1.
         22    1    1    0    0    0 -0.24797801752E+02 -0.56735070324E+02  0.53051158492E+01  0.62144536610E+02  0.00000000000E+00 0. -1.
</event>
<event>
 4    1  0.1956828E-002  0.9118800E+02  0.7818608E-02  0.1130116E+00
         25   -1    0    0    0    0  0.00000000000E+00  0.00000000000E+00  0.99999998245E-14  0.12500000000E+03  0.12500000000E+03 0.  0.
        -11    1    1    0    0    0  0.94430897824E+01  0.91811864363E+01 -0.21519028832E+01  0.13345291878E+02  0.51100000000E-03 0.  1.
         11    1    1    0    0    0  0.35322396825E+02  0.33619606324E+02 -0.62116721170E+01  0.49158259912E+02  0.51100000000E-03 0. -1.
         22    1    1    0    0    0 -0.44765486607E+02 -0.42800792761E+02  0.83635750002E+01  0.62496448210E+02  0.00000000000E+00 0. -1.
</event>
<event>
 4    1  0.1956828E-002  0.9118800E+02  0.7818608E-02  0.1130116E+00
         25   -1    0    0    0    0  0.00000000000E+00  0.00000000000E+00  0.99999998245E-14  0.12500000000E+03  0.12500000000E+03 0.  0.
        -11    1    1    0    0    0  0.21344459673E+01  0.14886639590E+02 -0.96438672067E+01  0.17865387564E+02  0.51100000000E-03 0. -1.
         11    1    1    0    0    0  0.57000190885E+01  0.37642994705E+02 -0.23300251389E+02  0.44636162280E+02  0.51100000000E-03 0.  1.
         22    1    1    0    0    0 -0.78344650558E+01 -0.52529634295E+02  0.32944118596E+02  0.62498450156E+02  0.00000000000E+00 0.  1.
</event>
<event>
 4    1  0.1956828E-002  0.9118800E+02  0.7818608E-02  0.1130116E+00
         25   -1    0    0    0    0  0.00000000000E+00  0.00000000000E+00  0.99999998245E-14  0.12500000000E+03  0.12500000000E+03 0.  0.
        -11    1    1    0    0    0 -0.92740674430E+01 -0.42122914928E+02  0.25375995198E+02  0.50042875832E+02  0.51100000000E-03 0.  1.
         11    1    1    0    0    0 -0.25596549779E+01 -0.10624643356E+02  0.59851550678E+01  0.12460215146E+02  0.51100000000E-03 0. -1.
         22    1    1    0    0    0  0.11833722421E+02  0.52747558284E+02 -0.31361150266E+02  0.62496909022E+02  0.00000000000E+00 0.  1.
</event>
<event>
 4    1  0.1956828E-002  0.9118800E+02  0.7818608E-02  0.1130116E+00
         25   -1    0    0    0    0  0.00000000000E+00  0.00000000000E+00  0.99999998245E-14  0.12500000000E+03  0.12500000000E+03 0.  0.
        -11    1    1    0    0    0 -0.57853470017E+01  0.10818535083E+02 -0.16637490553E+02  0.20671648058E+02  0.51100000000E-03 0. -1.
         11    1    1    0    0    0 -0.57051406430E+01  0.19904816061E+02 -0.36452171502E+02  0.41922680493E+02  0.51100000000E-03 0.  1.
         22    1    1    0    0    0  0.11490487645E+02 -0.30723351144E+02  0.53089662056E+02  0.62405671449E+02  0.00000000000E+00 0.  1.
</event>
<event>
 4    1  0.1956828E-002  0.9118800E+02  0.7818608E-02  0.1130116E+00
         25   -1    0    0    0    0  0.00000000000E+00  0.00000000000E+00  0.99999998245E-14  0.12500000000E+03  0.12500000000E+03 0.  0.
        -11    1    1    0    0    0 -0.16094275889E+02  0.31621238125E+02  0.15905738631E+02  0.38883427557E+02  0.51100000000E-03 0.  1.
         11    1    1    0    0    0 -0.98183434867E+01  0.19185837950E+02  0.96564463525E+01  0.23616587457E+02  0.51100000000E-03 0. -1.
         22    1    1    0    0    0  0.25912619375E+02 -0.50807076075E+02 -0.25562184984E+02  0.62499984986E+02  0.00000000000E+00 0.  1.
</event>
<event>
 4    1  0.1956828E-002  0.9118800E+02  0.7818608E-02  0.1130116E+00
         25   -1    0    0    0    0  0.00000000000E+00  0.00000000000E+00  0.99999998245E-14  0.12500000000E+03  0.12500000000E+03 0.  0.
        -11    1    1    0    0    0 -0.11439749403E+02 -0.12921576712E+02 -0.32522297997E+02  0.36817589253E+02  0.51100000000E-03 0. -1.
         11    1    1    0    0    0 -0.73232167181E+01 -0.10159058767E+02 -0.22433960044E+02  0.25692772168E+02  0.51100000000E-03 0.  1.
         22    1    1    0    0    0  0.18762966121E+02  0.23080635479E+02  0.54956258042E+02  0.62489638579E+02  0.00000000000E+00 0.  1.
</event>
<event>
 4    1  0.1956828E-002  0.9118800E+02  0.7818608E-02  0.1130116E+00
         25   -1    0    0    0    0  0.00000000000E+00  0.00000000000E+00  0.99999998245E-14  0.12500000000E+03  0.12500000000E+03 0.  0.
        -11    1    1    0    0    0  0.12257268430E+01  0.20600417247E+02  0.37497072407E+02  0.42800818174E+02  0.51100000000E-03 0. -1.
         11    1    1    0    0    0 -0.90434196240E-01  0.90909331553E+01  0.17482008421E+02  0.19704666012E+02  0.51100000000E-03 0.  1.
         22    1    1    0    0    0 -0.11352926468E+01 -0.29691350402E+02 -0.54979080828E+02  0.62494515813E+02  0.00000000000E+00 0. -1.
</event>
<event>
 4    1  0.1956828E-002  0.9118800E+02  0.7818608E-02  0.1130116E+00
         25   -1    0    0    0    0  0.00000000000E+00  0.00000000000E+00  0.99999998245E-14  0.12500000000E+03  0.12500000000E+03 0.  0.
        -11    1    1    0    0    0 -0.83086866785E+01  0.16684549141E+02 -0.11172652940E+02  0.21731006151E+02  0.51100000000E-03 0.  1.
         11    1    1    0    0    0 -0.15614537457E+02  0.31301962206E+02 -0.20940020087E+02  0.40768996302E+02  0.51100000000E-03 0. -1.
         22    1    1    0    0    0  0.23923224135E+02 -0.47986511347E+02  0.32112673028E+02  0.62499997547E+02  0.00000000000E+00 0. -1.
</event>
<event>
 4    1  0.1956828E-002  0.9118800E+02  0.7818608E-02  0.1130116E+00
         25   -1    0    0    0    0  0.00000000000E+00  0.00000000000E+00  0.99999998245E-14  0.12500000000E+03  0.12500000000E+03 0.  0.
        -11    1    1    0    0    0  0.47094684345E+00  0.45359972239E+01  0.30238027550E+01  0.54717862812E+01  0.51100000000E-03 0.  1.
         11    1    1    0    0    0  0.46516561261E+01  0.47741642524E+02  0.30843912421E+02  0.57028495239E+02  0.51100000000E-03 0. -1.
         22    1    1    0    0    0 -0.51226029695E+01 -0.52277639748E+02 -0.33867715176E+02  0.62499718479E+02  0.00000000000E+00 0. -1.
</event>
<event>
 4    1  0.1956828E-002  0.9118800E+02  0.7818608E-02  0.1130116E+00
         25   -1    0    0    0    0  0.00000000000E+00  0.00000000000E+00  0.99999998245E-14  0.12500000000E+03  0.12500000000E+03 0.  0.
        -11    1    1    0    0    0 -0.90334477795E+01  0.42701367429E+02 -0.19485951291E+02  0.47798663758E+02  0.51100000000E-03 0.  1.
         11    1    1    0    0    0 -0.28126378834E+01  0.13080015441E+02 -0.60940116981E+01  0.14701520827E+02  0.51100000000E-03 0. -1.
         22    1    1    0    0    0  0.11846085663E+02 -0.55781382869E+02  0.25579962989E+02  0.62499815415E+02  0.00000000000E+00 0.  1.
</event>
<event>
 4    1  0.1956828E-002  0.9118800E+02  0.7818608E-02  0.1130116E+00
         25   -1    0    0    0    0  0.00000000000E+00  0.00000000000E+00  0.99999998245E-14  0.12500000000E+03  0.12500000000E+03 0.  0.
        -11    1    1    0    0    0  0.76952254692E+01 -0.39494259381E+02 -0.29059858305E+02  0.49633540918E+02  0.51100000000E-03 0.  1.
         11    1    1    0    0    0  0.19915433042E+01 -0.10239109804E+02 -0.75326064375E+01  0.12866459277E+02  0.51100000000E-03 0. -1.
         22    1    1    0    0    0 -0.96867687735E+01  0.49733369185E+02  0.36592464743E+02  0.62499999806E+02  0.00000000000E+00 0.  1.
</event>
<event>
 4    1  0.1956828E-002  0.9118800E+02  0.7818608E-02  0.1130116E+00
         25   -1    0    0    0    0  0.00000000000E+00  0.00000000000E+00  0.99999998245E-14  0.12500000000E+03  0.12500000000E+03 0.  0.
        -11    1    1    0    0    0  0.47920210458E+01  0.12478858224E+01  0.43788430805E+01  0.66102157086E+01  0.51100000000E-03 0. -1.
         11    1    1    0    0    0  0.29536343662E+02 -0.28337745457E+02  0.39184310863E+02  0.56664218274E+02  0.51100000000E-03 0.  1.
         22    1    1    0    0    0 -0.34328364708E+02  0.27089859635E+02 -0.43563153944E+02  0.61725566017E+02  0.00000000000E+00 0.  1.
</event>
<event>
 4    1  0.1956828E-002  0.9118800E+02  0.7818608E-02  0.1130116E+00
         25   -1    0    0    0    0  0.00000000000E+00  0.00000000000E+00  0.99999998245E-14  0.12500000000E+03  0.12500000000E+03 0.  0.
        -11    1    1    0    0    0  0.13030939907E+01  0.32335465241E+01  0.37702190545E+02  0.37863030112E+02  0.51100000000E-03 0. -1.
         11    1    1    0    0    0  0.13291795289E+02 -0.18085354862E+02  0.17291702304E+02  0.28332928746E+02  0.51100000000E-03 0.  1.
         22    1    1    0    0    0 -0.14594889280E+02  0.14851808338E+02 -0.54993892849E+02  0.58804041142E+02  0.00000000000E+00 0. -1.
</event>
<event>
 4    1  0.1956828E-002  0.9118800E+02  0.7818608E-02  0.1130116E+00
         25   -1    0    0    0    0  0.00000000000E+00  0.00000000000E+00  0.99999998245E-14  0.12500000000E+03  0.12500000000E+03 0.  0.
        -11    1    1    0    0    0  0.19224581078E+02  0.35830629739E+02 -0.18530642349E+02  0.44685604519E+02  0.51100000000E-03 0. -1.
         11    1    1    0    0    0  0.14237977311E+02  0.93615103369E+01 -0.71703974006E+01  0.18487089356E+02  0.51100000000E-03 0.  1.
         22    1    1    0    0    0 -0.33462558389E+02 -0.45192140076E+02  0.25701039749E+02  0.61827306126E+02  0.00000000000E+00 0. -1.
</event>
<event>
 4    1  0.1956828E-002  0.9118800E+02  0.7818608E-02  0.1130116E+00
         25   -1    0    0    0    0  0.00000000000E+00  0.00000000000E+00  0.99999998245E-14  0.12500000000E+03  0.12500000000E+03 0.  0.
        -11    1    1    0    0    0 -0.95504678166E+01 -0.11323993416E+02 -0.12161507421E+02  0.19166286167E+02  0.51100000000E-03 0.  1.
         11    1    1    0    0    0 -0.22600730776E+02 -0.24253366745E+02 -0.27915117112E+02  0.43339042372E+02  0.51100000000E-03 0. -1.
         22    1    1    0    0    0  0.32151198593E+02  0.35577360162E+02  0.40076624533E+02  0.62494671461E+02  0.00000000000E+00 0. -1.
</event>
<event>
 4    1  0.1956828E-002  0.9118800E+02  0.7818608E-02  0.1130116E+00
         25   -1    0    0    0    0  0.00000000000E+00  0.00000000000E+00  0.99999998245E-14  0.12500000000E+03  0.12500000000E+03 0.  0.
        -11    1    1    0    0    0 -0.32389270293E+02 -0.20558324058E+01 -0.57324654859E+01  0.32956826877E+02  0.51100000000E-03 0. -1.
         11    1    1    0    0    0 -0.29036560814E+02 -0.18513217416E+01 -0.51234659387E+01  0.29543174501E+02  0.51100000000E-03 0.  1.
         22    1    1    0    0    0  0.61425831107E+02  0.39071541474E+01  0.10855931425E+02  0.62499998622E+02  0.00000000000E+00 0.  1.
</event>
<event>
 4    1  0.1956828E-002  0.9118800E+02  0.7818608E-02  0.1130116E+00
         25   -1    0    0    0    0  0.00000000000E+00  0.00000000000E+00  0.99999998245E-14  0.12500000000E+03  0.12500000000E+03 0.  0.
        -11    1    1    0    0    0 -0.48306729431E+02  0.22441212561E+02 -0.70782182964E+01  0.53733130414E+02  0.51100000000E-03 0.  1.
         11    1    1    0    0    0 -0.64064829205E-01  0.11698337807E+02  0.70492073000E+00  0.11719732303E+02  0.51100000000E-03 0. -1.
         22    1    1    0    0    0  0.48370794261E+02 -0.34139550368E+02  0.63732975664E+01  0.59547137283E+02  0.00000000000E+00 0.  1.
</event>
<event>
 4    1  0.1956828E-002  0.9118800E+02  0.7818608E-02  0.1130116E+00
         25   -1    0    0    0    0  0.00000000000E+00  0.00000000000E+00  0.99999998245E-14  0.12500000000E+03  0.12500000000E+03 0.  0.
        -11    1    1    0    0    0 -0.31690984247E+02  0.34166658094E+01 -0.13039842564E+02  0.34438780207E+02  0.51100000000E-03 0. -1.
         11    1    1    0    0    0 -0.24401757120E+02  0.80058748060E+01 -0.11673909289E+02  0.28210280755E+02  0.51100000000E-03 0.  1.
         22    1    1    0    0    0  0.56092741367E+02 -0.11422540615E+02  0.24713751852E+02  0.62350939037E+02  0.00000000000E+00 0. -1.
</event>
<event>
 4    1  0.1956828E-002  0.9118800E+02  0.7818608E-02  0.1130116E+00
         25   -1    0    0    0    0  0.00000000000E+00  0.00000000000E+00  0.99999998245E-14  0.12500000000E+03  0.12500000000E+03 0.  0.
        -11    1    1    0    0    0 -0.47743156258E+01  0.21302289396E+02 -0.32499917014E+02  0.39151324746E+02  0.51100000000E-03 0.  1.
         11    1    1    0    0    0 -0.28499917293E+01  0.12508734895E+02 -0.19508631661E+02  0.23349038762E+02  0.51100000000E-03 0. -1.
         22    1    1    0    0    0  0.76243073551E+01 -0.33811024292E+02  0.52008548675E+02  0.62499636492E+02  0.00000000000E+00 0.  1.
</event>
<event>
 4    1  0.1956828E-002  0.9118800E+02  0.7818608E-02  0.1130116E+00
         25   -1    0    0    0    0  0.00000000000E+00  0.00000000000E+00  0.99999998245E-14  0.12500000000E+03  0.12500000000E+03 0.  0.
        -11    1    1    0    0    0 -0.47217457125E+01 -0.16170777629E+02 -0.56207957731E+02  0.58678134295E+02  0.51100000000E-03 0. -1.
         11    1    1    0    0    0 -0.29351555066E+00 -0.10480266020E+01 -0.36636395374E+01  0.38218799116E+01  0.51100000000E-03 0.  1.
         22    1    1    0    0    0  0.50152612632E+01  0.17218804231E+02  0.59871597269E+02  0.62499985794E+02  0.00000000000E+00 0. -1.
</event>
