<event>
 5    1  0.1111613E-009  0.9118800E+02  0.7818608E-02  0.1130116E+00
         25   -1    0    0    0    0  0.00000000000E+00  0.00000000000E+00  0.99999998245E-14  0.12500000000E+03  0.12500000000E+03 0.  0.
        -11    1    3    3    0    0 -0.16424985109E+02 -0.26616087641E+02 -0.33168470032E+02  0.45588854577E+02  0.51100000000E-03 0. -1.
         23    2    1    0    0    0 -0.24187581010E+02  0.12190471038E+02  0.10319260132E+01  0.97894437276E+02  0.94067046935E+02 0.  0.
         11    1    3    3    0    0 -0.77625959010E+01  0.38806558679E+02  0.34200396045E+02  0.52305582699E+02  0.51100000000E-03 0.  1.
         22    1    1    0    0    0  0.24187581010E+02 -0.12190471038E+02 -0.10319260132E+01  0.27105562724E+02  0.00000000000E+00 0.  1.
</event>
<event>
 5    1  0.1111613E-009  0.9118800E+02  0.7818608E-02  0.1130116E+00
         25   -1    0    0    0    0  0.00000000000E+00  0.00000000000E+00  0.99999998245E-14  0.12500000000E+03  0.12500000000E+03 0.  0.
        -11    1    3    3    0    0 -0.16987453369E+01  0.52599802527E+02  0.24439220257E+02  0.58024998481E+02  0.51100000000E-03 0.  1.
         23    2    1    0    0    0 -0.10760343819E+02  0.15267760732E+02  0.21450045311E+02  0.96557180859E+02  0.92272938691E+02 0.  0.
         11    1    3    3    0    0 -0.90615984819E+01 -0.37332041796E+02 -0.29891749464E+01  0.38532182378E+02  0.51100000000E-03 0. -1.
         22    1    1    0    0    0  0.10760343819E+02 -0.15267760732E+02 -0.21450045311E+02  0.28442819141E+02  0.00000000000E+00 0. -1.
</event>
<event>
 5    1  0.1111613E-009  0.9118800E+02  0.7818608E-02  0.1130116E+00
         25   -1    0    0    0    0  0.00000000000E+00  0.00000000000E+00  0.99999998245E-14  0.12500000000E+03  0.12500000000E+03 0.  0.
        -11    1    3    3    0    0 -0.60584433639E+01  0.14185933823E+02  0.27412433577E+02  0.31454522240E+02  0.51100000000E-03 0. -1.
         23    2    1    0    0    0 -0.31135263841E+02  0.64007055068E+01 -0.21260889386E+02  0.86758672841E+02  0.77875979674E+02 0.  0.
         11    1    3    3    0    0 -0.25076820477E+02 -0.77852283165E+01 -0.48673322963E+02  0.55304150601E+02  0.51100000000E-03 0.  1.
         22    1    1    0    0    0  0.31135263841E+02 -0.64007055068E+01  0.21260889386E+02  0.38241327159E+02  0.00000000000E+00 0.  1.
</event>
<event>
 5    1  0.1111613E-009  0.9118800E+02  0.7818608E-02  0.1130116E+00
         25   -1    0    0    0    0  0.00000000000E+00  0.00000000000E+00  0.99999998245E-14  0.12500000000E+03  0.12500000000E+03 0.  0.
        -11    1    3    3    0    0 -0.24354204338E+02  0.17668367139E+02 -0.38716973716E+02  0.49033687606E+02  0.51100000000E-03 0.  1.
         23    2    1    0    0    0 -0.25015898890E+02  0.12685645750E+02  0.78519869236E+01  0.95873130893E+02  0.91341571714E+02 0.  0.
         11    1    3    3    0    0 -0.66169455229E+00 -0.49827213893E+01  0.46568960639E+02  0.46839443287E+02  0.51100000000E-03 0. -1.
         22    1    1    0    0    0  0.25015898890E+02 -0.12685645750E+02 -0.78519869236E+01  0.29126869107E+02  0.00000000000E+00 0. -1.
</event>
<event>
 5    1  0.1111613E-009  0.9118800E+02  0.7818608E-02  0.1130116E+00
         25   -1    0    0    0    0  0.00000000000E+00  0.00000000000E+00  0.99999998245E-14  0.12500000000E+03  0.12500000000E+03 0.  0.
        -11    1    3    3    0    0 -0.34510880361E+02  0.33062631124E+01 -0.40404566562E+01  0.34903546085E+02  0.51100000000E-03 0. -1.
         23    2    1    0    0    0  0.97347858444E+01 -0.31511285931E+02 -0.70042709652E+01  0.91283727842E+02  0.84828839203E+02 0.  0.
         11    1    3    3    0    0  0.44245666206E+02 -0.34817549044E+02 -0.29638143090E+01  0.56380181757E+02  0.51100000000E-03 0.  1.
         22    1    1    0    0    0 -0.97347858444E+01  0.31511285931E+02  0.70042709652E+01  0.33716272158E+02  0.00000000000E+00 0.  1.
</event>
<event>
 5    1  0.1111613E-009  0.9118800E+02  0.7818608E-02  0.1130116E+00
         25   -1    0    0    0    0  0.00000000000E+00  0.00000000000E+00  0.99999998245E-14  0.12500000000E+03  0.12500000000E+03 0.  0.
        -11    1    3    3    0    0 -0.11824159528E+02  0.17180874482E+02 -0.41278375494E+02  0.46248215967E+02  0.51100000000E-03 0. -1.
         23    2    1    0    0    0 -0.12875239057E+02 -0.23183289736E+02 -0.13641834378E+02  0.95178257111E+02  0.90385641989E+02 0.  0.
         11    1    3    3    0    0 -0.10510795287E+01 -0.40364164218E+02  0.27636541116E+02  0.48930041143E+02  0.51100000000E-03 0.  1.
         22    1    1    0    0    0  0.12875239057E+02  0.23183289736E+02  0.13641834378E+02  0.29821742889E+02  0.00000000000E+00 0. -1.
</event>
<event>
 5    1  0.1111613E-009  0.9118800E+02  0.7818608E-02  0.1130116E+00
         25   -1    0    0    0    0  0.00000000000E+00  0.00000000000E+00  0.99999998245E-14  0.12500000000E+03  0.12500000000E+03 0.  0.
        -11    1    3    3    0    0  0.22735558682E+02  0.39425109392E+02  0.31438513172E+02  0.55313877010E+02  0.51100000000E-03 0.  1.
         23    2    1    0    0    0  0.14566409518E+02  0.23702271417E+02 -0.58257961942E+01  0.96576104104E+02  0.92298570011E+02 0.  0.
         11    1    3    3    0    0 -0.81691491636E+01 -0.15722837974E+02 -0.37264309366E+02  0.41262227095E+02  0.51100000000E-03 0. -1.
         22    1    1    0    0    0 -0.14566409518E+02 -0.23702271417E+02  0.58257961942E+01  0.28423895896E+02  0.00000000000E+00 0.  1.
</event>
<event>
 5    1  0.1111613E-009  0.9118800E+02  0.7818608E-02  0.1130116E+00
         25   -1    0    0    0    0  0.00000000000E+00  0.00000000000E+00  0.99999998245E-14  0.12500000000E+03  0.12500000000E+03 0.  0.
        -11    1    3    3    0    0 -0.66229019723E+01 -0.35966386534E+02 -0.47472504149E+02  0.59925640934E+02  0.51100000000E-03 0.  1.
         23    2    1    0    0    0  0.47913115852E+01 -0.79291571930E+01 -0.26960419460E+02  0.96492239338E+02  0.92184921947E+02 0.  0.
         11    1    3    3    0    0  0.11414213558E+02  0.28037229341E+02  0.20512084689E+02  0.36566598404E+02  0.51100000000E-03 0. -1.
         22    1    1    0    0    0 -0.47913115852E+01  0.79291571930E+01  0.26960419460E+02  0.28507760662E+02  0.00000000000E+00 0.  1.
</event>
<event>
 5    1  0.1111613E-009  0.9118800E+02  0.7818608E-02  0.1130116E+00
         25   -1    0    0    0    0  0.00000000000E+00  0.00000000000E+00  0.99999998245E-14  0.12500000000E+03  0.12500000000E+03 0.  0.
        -11    1    3    3    0    0 -0.48378778209E+01  0.36176877757E+02 -0.29658517657E+02  0.47029769465E+02  0.51100000000E-03 0. -1.
         23    2    1    0    0    0 -0.28976248744E+02  0.11921706613E+01 -0.71278220620E+01  0.95136140411E+02  0.90327377372E+02 0.  0.
         11    1    3    3    0    0 -0.24138370923E+02 -0.34984707096E+02  0.22530695595E+02  0.48106370947E+02  0.51100000000E-03 0.  1.
         22    1    1    0    0    0  0.28976248744E+02 -0.11921706613E+01  0.71278220620E+01  0.29863859589E+02  0.00000000000E+00 0. -1.
</event>
<event>
 5    1  0.1111613E-009  0.9118800E+02  0.7818608E-02  0.1130116E+00
         25   -1    0    0    0    0  0.00000000000E+00  0.00000000000E+00  0.99999998245E-14  0.12500000000E+03  0.12500000000E+03 0.  0.
        -11    1    3    3    0    0  0.34301576897E+02 -0.60103285419E+00  0.51487960072E+02  0.61870586314E+02  0.51100000000E-03 0.  1.
         23    2    1    0    0    0  0.12904141275E+02 -0.50191855642E+01  0.26774196926E+02  0.94857559707E+02  0.89941035834E+02 0.  0.
         11    1    3    3    0    0 -0.21397435622E+02 -0.44181527100E+01 -0.24713763147E+02  0.32986973394E+02  0.51100000000E-03 0. -1.
         22    1    1    0    0    0 -0.12904141275E+02  0.50191855642E+01 -0.26774196926E+02  0.30142440293E+02  0.00000000000E+00 0.  1.
</event>
<event>
 5    1  0.1111613E-009  0.9118800E+02  0.7818608E-02  0.1130116E+00
         25   -1    0    0    0    0  0.00000000000E+00  0.00000000000E+00  0.99999998245E-14  0.12500000000E+03  0.12500000000E+03 0.  0.
        -11    1    3    3    0    0  0.14392879838E+02  0.37433204679E+02 -0.63598801330E+01  0.40606007908E+02  0.51100000000E-03 0. -1.
         23    2    1    0    0    0 -0.42693586374E+00 -0.24564505011E+01 -0.33714505651E+02  0.91193427938E+02  0.84695672762E+02 0.  0.
         11    1    3    3    0    0 -0.14819815702E+02 -0.39889655181E+02 -0.27354625518E+02  0.50587420031E+02  0.51100000000E-03 0.  1.
         22    1    1    0    0    0  0.42693586374E+00  0.24564505011E+01  0.33714505651E+02  0.33806572062E+02  0.00000000000E+00 0.  1.
</event>
<event>
 5    1  0.1111613E-009  0.9118800E+02  0.7818608E-02  0.1130116E+00
         25   -1    0    0    0    0  0.00000000000E+00  0.00000000000E+00  0.99999998245E-14  0.12500000000E+03  0.12500000000E+03 0.  0.
        -11    1    3    3    0    0  0.10852788888E+02 -0.17763808897E+02 -0.38382712432E+02  0.43664270829E+02  0.51100000000E-03 0. -1.
         23    2    1    0    0    0  0.20074597650E+01  0.26413430806E+02 -0.11563711408E+02  0.96096390482E+02  0.91646590883E+02 0.  0.
         11    1    3    3    0    0 -0.88453291226E+01  0.44177239703E+02  0.26819001024E+02  0.52432119653E+02  0.51100000000E-03 0.  1.
         22    1    1    0    0    0 -0.20074597650E+01 -0.26413430806E+02  0.11563711408E+02  0.28903609518E+02  0.00000000000E+00 0. -1.
</event>
<event>
 5    1  0.1111613E-009  0.9118800E+02  0.7818608E-02  0.1130116E+00
         25   -1    0    0    0    0  0.00000000000E+00  0.00000000000E+00  0.99999998245E-14  0.12500000000E+03  0.12500000000E+03 0.  0.
        -11    1    3    3    0    0 -0.32797675044E+02  0.17376352241E+02  0.20536633049E+02  0.42419080645E+02  0.51100000000E-03 0. -1.
         23    2    1    0    0    0  0.19773164971E+02  0.16253417844E+02  0.15099376597E+02  0.95282281073E+02  0.90529388976E+02 0.  0.
         11    1    3    3    0    0  0.52570840015E+02 -0.11229343976E+01 -0.54372564522E+01  0.52863200429E+02  0.51100000000E-03 0.  1.
         22    1    1    0    0    0 -0.19773164971E+02 -0.16253417844E+02 -0.15099376597E+02  0.29717718927E+02  0.00000000000E+00 0. -1.
</event>
<event>
 5    1  0.1111613E-009  0.9118800E+02  0.7818608E-02  0.1130116E+00
         25   -1    0    0    0    0  0.00000000000E+00  0.00000000000E+00  0.99999998245E-14  0.12500000000E+03  0.12500000000E+03 0.  0.
        -11    1    3    3    0    0 -0.33381507406E+02  0.47610865306E+02 -0.22664321600E+02  0.62408260717E+02  0.51100000000E-03 0.  1.
         23    2    1    0    0    0 -0.13793202794E+02  0.22370639048E+02 -0.12176447846E+02  0.96035127881E+02  0.91562994546E+02 0.  0.
         11    1    3    3    0    0  0.19588304612E+02 -0.25240226258E+02  0.10487873754E+02  0.33626867164E+02  0.51100000000E-03 0. -1.
         22    1    1    0    0    0  0.13793202794E+02 -0.22370639048E+02  0.12176447846E+02  0.28964872119E+02  0.00000000000E+00 0.  1.
</event>
<event>
 5    1  0.1111613E-009  0.9118800E+02  0.7818608E-02  0.1130116E+00
         25   -1    0    0    0    0  0.00000000000E+00  0.00000000000E+00  0.99999998245E-14  0.12500000000E+03  0.12500000000E+03 0.  0.
        -11    1    3    3    0    0 -0.44384599590E+02  0.35632559562E+02 -0.22029213601E+02  0.61032435916E+02  0.51100000000E-03 0. -1.
         23    2    1    0    0    0 -0.24129352606E+02  0.81680587242E+01 -0.13326186993E+02  0.96250563479E+02  0.91856632149E+02 0.  0.
         11    1    3    3    0    0  0.20255246983E+02 -0.27464500838E+02  0.87030266081E+01  0.35218127563E+02  0.51100000000E-03 0.  1.
         22    1    1    0    0    0  0.24129352606E+02 -0.81680587242E+01  0.13326186993E+02  0.28749436521E+02  0.00000000000E+00 0. -1.
</event>
<event>
 5    1  0.1111613E-009  0.9118800E+02  0.7818608E-02  0.1130116E+00
         25   -1    0    0    0    0  0.00000000000E+00  0.00000000000E+00  0.99999998245E-14  0.12500000000E+03  0.12500000000E+03 0.  0.
        -11    1    3    3    0    0 -0.50736895939E+02  0.13186473931E+02 -0.29301960533E+02  0.60055978850E+02  0.51100000000E-03 0. -1.
         23    2    1    0    0    0 -0.16257029799E+02  0.37802249461E+01 -0.23365317166E+02  0.96285558254E+02  0.91904241270E+02 0.  0.
         11    1    3    3    0    0  0.34479866141E+02 -0.94062489851E+01  0.59366433670E+01  0.36229579404E+02  0.51100000000E-03 0.  1.
         22    1    1    0    0    0  0.16257029799E+02 -0.37802249461E+01  0.23365317166E+02  0.28714441746E+02  0.00000000000E+00 0. -1.
</event>
<event>
 5    1  0.1111613E-009  0.9118800E+02  0.7818608E-02  0.1130116E+00
         25   -1    0    0    0    0  0.00000000000E+00  0.00000000000E+00  0.99999998245E-14  0.12500000000E+03  0.12500000000E+03 0.  0.
        -11    1    3    3    0    0 -0.26641856954E+02  0.74197550147E+01  0.49115968614E+02  0.56366831378E+02  0.51100000000E-03 0.  1.
         23    2    1    0    0    0  0.50762846244E+01  0.13142261070E+02  0.23766470251E+02  0.97371521942E+02  0.93369590796E+02 0.  0.
         11    1    3    3    0    0  0.31718141579E+02  0.57225060554E+01 -0.25349498363E+02  0.41004690564E+02  0.51100000000E-03 0. -1.
         22    1    1    0    0    0 -0.50762846244E+01 -0.13142261070E+02 -0.23766470251E+02  0.27628478058E+02  0.00000000000E+00 0.  1.
</event>
<event>
 5    1  0.1111613E-009  0.9118800E+02  0.7818608E-02  0.1130116E+00
         25   -1    0    0    0    0  0.00000000000E+00  0.00000000000E+00  0.99999998245E-14  0.12500000000E+03  0.12500000000E+03 0.  0.
        -11    1    3    3    0    0  0.31126608797E+02  0.28220762664E+01  0.50247883867E+02  0.59174992378E+02  0.51100000000E-03 0. -1.
         23    2    1    0    0    0  0.79725588611E+01  0.13971542885E+02  0.25484855491E+02  0.94862920434E+02  0.89948485860E+02 0.  0.
         11    1    3    3    0    0 -0.23154049936E+02  0.11149466619E+02 -0.24763028376E+02  0.35687928056E+02  0.51100000000E-03 0.  1.
         22    1    1    0    0    0 -0.79725588611E+01 -0.13971542885E+02 -0.25484855491E+02  0.30137079566E+02  0.00000000000E+00 0. -1.
</event>
<event>
 5    1  0.1111613E-009  0.9118800E+02  0.7818608E-02  0.1130116E+00
         25   -1    0    0    0    0  0.00000000000E+00  0.00000000000E+00  0.99999998245E-14  0.12500000000E+03  0.12500000000E+03 0.  0.
        -11    1    3    3    0    0 -0.48555115629E+02 -0.81979352119E+01  0.36979934916E+02  0.61581823472E+02  0.51100000000E-03 0.  1.
         23    2    1    0    0    0 -0.26979792388E+02 -0.19816583965E+01  0.11330044385E+02  0.95670730097E+02  0.91064167070E+02 0.  0.
         11    1    3    3    0    0  0.21575323241E+02  0.62162768154E+01 -0.25649890531E+02  0.34088906625E+02  0.51100000000E-03 0. -1.
         22    1    1    0    0    0  0.26979792388E+02  0.19816583965E+01 -0.11330044385E+02  0.29329269903E+02  0.00000000000E+00 0.  1.
</event>
<event>
 5    1  0.1111613E-009  0.9118800E+02  0.7818608E-02  0.1130116E+00
         25   -1    0    0    0    0  0.00000000000E+00  0.00000000000E+00  0.99999998245E-14  0.12500000000E+03  0.12500000000E+03 0.  0.
        -11    1    3    3    0    0 -0.11376929987E-01 -0.24413180537E+01  0.38333884695E+02  0.38411546172E+02  0.51100000000E-03 0.  1.
         23    2    1    0    0    0 -0.26966134735E+02 -0.10300199227E+02 -0.10118879348E+02  0.94411468719E+02  0.89318907180E+02 0.  0.
         11    1    3    3    0    0 -0.26954757805E+02 -0.78588811730E+01 -0.48452764043E+02  0.55999922547E+02  0.51100000000E-03 0. -1.
         22    1    1    0    0    0  0.26966134735E+02  0.10300199227E+02  0.10118879348E+02  0.30588531281E+02  0.00000000000E+00 0. -1.
</event>
<event>
 5    1  0.1111613E-009  0.9118800E+02  0.7818608E-02  0.1130116E+00
         25   -1    0    0    0    0  0.00000000000E+00  0.00000000000E+00  0.99999998245E-14  0.12500000000E+03  0.12500000000E+03 0.  0.
        -11    1    3    3    0    0 -0.55791033448E+02 -0.22878978637E+02  0.92056556701E+01  0.60998616158E+02  0.51100000000E-03 0. -1.
         23    2    1    0    0    0 -0.24799207757E+02 -0.13650057105E+02 -0.48883305634E+01  0.96273347915E+02  0.91887632349E+02 0.  0.
         11    1    3    3    0    0  0.30991825691E+02  0.92289215320E+01 -0.14093986234E+02  0.35274731757E+02  0.51100000000E-03 0.  1.
         22    1    1    0    0    0  0.24799207757E+02  0.13650057105E+02  0.48883305634E+01  0.28726652085E+02  0.00000000000E+00 0. -1.
</event>
<event>
 5    1  0.1111613E-009  0.9118800E+02  0.7818608E-02  0.1130116E+00
         25   -1    0    0    0    0  0.00000000000E+00  0.00000000000E+00  0.99999998245E-14  0.12500000000E+03  0.12500000000E+03 0.  0.
        -11    1    3    3    0    0 -0.71489406420E+01  0.20057446935E+02  0.31353894859E+02  0.37900860847E+02  0.51100000000E-03 0. -1.
         23    2    1    0    0    0  0.11083624965E+01 -0.29796955249E+02  0.54444247113E+01  0.94689461074E+02  0.89707108239E+02 0.  0.
         11    1    3    3    0    0  0.82573031385E+01 -0.49854402184E+02 -0.25909470148E+02  0.56788600228E+02  0.51100000000E-03 0.  1.
         22    1    1    0    0    0 -0.11083624965E+01  0.29796955249E+02 -0.54444247113E+01  0.30310538926E+02  0.00000000000E+00 0.  1.
</event>
<event>
 5    1  0.1111613E-009  0.9118800E+02  0.7818608E-02  0.1130116E+00
         25   -1    0    0    0    0  0.00000000000E+00  0.00000000000E+00  0.99999998245E-14  0.12500000000E+03  0.12500000000E+03 0.  0.
        -11    1    3    3    0    0 -0.34916503280E+02  0.46665249230E+02  0.10277207008E+02  0.59181320289E+02  0.51100000000E-03 0.  1.
         23    2    1    0    0    0 -0.69292395446E+01  0.23383994478E+02  0.15709941424E+02  0.95989177572E+02  0.91500242584E+02 0.  0.
         11    1    3    3    0    0  0.27987263736E+02 -0.23281254752E+02  0.54327344154E+01  0.36807857282E+02  0.51100000000E-03 0. -1.
         22    1    1    0    0    0  0.69292395446E+01 -0.23383994478E+02 -0.15709941424E+02  0.29010822428E+02  0.00000000000E+00 0.  1.
</event>
<event>
 5    1  0.1111613E-009  0.9118800E+02  0.7818608E-02  0.1130116E+00
         25   -1    0    0    0    0  0.00000000000E+00  0.00000000000E+00  0.99999998245E-14  0.12500000000E+03  0.12500000000E+03 0.  0.
        -11    1    3    3    0    0  0.27419187585E+01 -0.33318112785E+02  0.22492863203E+02  0.40293220936E+02  0.51100000000E-03 0.  1.
         23    2    1    0    0    0 -0.15763457749E+02 -0.35205662052E+01 -0.22474804228E+02  0.97323334528E+02  0.93305056840E+02 0.  0.
         11    1    3    3    0    0 -0.18505376507E+02  0.29797546580E+02 -0.44967667431E+02  0.57030113592E+02  0.51100000000E-03 0. -1.
         22    1    1    0    0    0  0.15763457749E+02  0.35205662052E+01  0.22474804228E+02  0.27676665472E+02  0.00000000000E+00 0. -1.
</event>
<event>
 5    1  0.1111613E-009  0.9118800E+02  0.7818608E-02  0.1130116E+00
         25   -1    0    0    0    0  0.00000000000E+00  0.00000000000E+00  0.99999998245E-14  0.12500000000E+03  0.12500000000E+03 0.  0.
        -11    1    3    3    0    0 -0.41018603470E+02 -0.39660955368E+02  0.49644187008E+00  0.57059299559E+02  0.51100000000E-03 0.  1.
         23    2    1    0    0    0 -0.29103028960E+02 -0.32069506235E+01  0.34157674616E+01  0.95522240684E+02  0.90860113202E+02 0.  0.
         11    1    3    3    0    0  0.11915574510E+02  0.36454004745E+02  0.29193255916E+01  0.38462941125E+02  0.51100000000E-03 0. -1.
         22    1    1    0    0    0  0.29103028960E+02  0.32069506235E+01 -0.34157674616E+01  0.29477759316E+02  0.00000000000E+00 0.  1.
</event>
<event>
 5    1  0.1111613E-009  0.9118800E+02  0.7818608E-02  0.1130116E+00
         25   -1    0    0    0    0  0.00000000000E+00  0.00000000000E+00  0.99999998245E-14  0.12500000000E+03  0.12500000000E+03 0.  0.
        -11    1    3    3    0    0  0.57234273069E+01  0.34608200807E+02  0.19364233173E+02  0.40068175774E+02  0.51100000000E-03 0. -1.
         23    2    1    0    0    0  0.20299264672E+02 -0.97196667222E+00 -0.20973612985E+02  0.95795594389E+02  0.91235402106E+02 0.  0.
         11    1    3    3    0    0  0.14575837365E+02 -0.35580167479E+02 -0.40337846157E+02  0.55727418616E+02  0.51100000000E-03 0.  1.
         22    1    1    0    0    0 -0.20299264672E+02  0.97196667222E+00  0.20973612985E+02  0.29204405611E+02  0.00000000000E+00 0.  1.
</event>
<event>
 5    1  0.1111613E-009  0.9118800E+02  0.7818608E-02  0.1130116E+00
         25   -1    0    0    0    0  0.00000000000E+00  0.00000000000E+00  0.99999998245E-14  0.12500000000E+03  0.12500000000E+03 0.  0.
        -11    1    3    3    0    0  0.97623870531E+01 -0.80683248729E+01  0.35265309482E+02  0.37470576728E+02  0.51100000000E-03 0.  1.
         23    2    1    0    0    0 -0.23140442588E+02 -0.30920918174E+02  0.25550822214E+02  0.78692033302E+02  0.63623960310E+02 0.  0.
         11    1    3    3    0    0 -0.32902829641E+02 -0.22852593301E+02 -0.97144872678E+01  0.41221456574E+02  0.51100000000E-03 0. -1.
         22    1    1    0    0    0  0.23140442588E+02  0.30920918174E+02 -0.25550822214E+02  0.46307966698E+02  0.00000000000E+00 0.  1.
</event>
<event>
 5    1  0.1111613E-009  0.9118800E+02  0.7818608E-02  0.1130116E+00
         25   -1    0    0    0    0  0.00000000000E+00  0.00000000000E+00  0.99999998245E-14  0.12500000000E+03  0.12500000000E+03 0.  0.
        -11    1    3    3    0    0 -0.18367493333E+02  0.18955421454E+02  0.44560010359E+02  0.51790610513E+02  0.51100000000E-03 0.  1.
         23    2    1    0    0    0 -0.27274954269E+02 -0.86262537924E+01  0.26906844997E+02  0.85727698150E+02  0.76203179314E+02 0.  0.
         11    1    3    3    0    0 -0.89074609357E+01 -0.27581675247E+02 -0.17653165362E+02  0.33937087637E+02  0.51100000000E-03 0. -1.
         22    1    1    0    0    0  0.27274954269E+02  0.86262537924E+01 -0.26906844997E+02  0.39272301850E+02  0.00000000000E+00 0. -1.
</event>
<event>
 5    1  0.1111613E-009  0.9118800E+02  0.7818608E-02  0.1130116E+00
         25   -1    0    0    0    0  0.00000000000E+00  0.00000000000E+00  0.99999998245E-14  0.12500000000E+03  0.12500000000E+03 0.  0.
        -11    1    3    3    0    0 -0.25215678388E+02  0.21059595624E+02  0.94735392660E+01  0.34191884284E+02  0.51100000000E-03 0.  1.
         23    2    1    0    0    0  0.17686284906E+02 -0.19288564316E+02 -0.11096088280E+02  0.96575071464E+02  0.92297171495E+02 0.  0.
         11    1    3    3    0    0  0.42901963294E+02 -0.40348159941E+02 -0.20569627546E+02  0.62383187180E+02  0.51100000000E-03 0. -1.
         22    1    1    0    0    0 -0.17686284906E+02  0.19288564316E+02  0.11096088280E+02  0.28424928536E+02  0.00000000000E+00 0. -1.
</event>
<event>
 5    1  0.1111613E-009  0.9118800E+02  0.7818608E-02  0.1130116E+00
         25   -1    0    0    0    0  0.00000000000E+00  0.00000000000E+00  0.99999998245E-14  0.12500000000E+03  0.12500000000E+03 0.  0.
        -11    1    3    3    0    0 -0.60827305996E+00  0.25501709429E+02 -0.25593996009E+02  0.36135298697E+02  0.51100000000E-03 0.  1.
         23    2    1    0    0    0  0.12040279548E+01  0.13813248747E+01  0.29049349531E+02  0.95892914095E+02  0.91368640812E+02 0.  0.
         11    1    3    3    0    0  0.18123010147E+01 -0.24120384554E+02  0.54643345540E+02  0.59757615398E+02  0.51100000000E-03 0. -1.
         22    1    1    0    0    0 -0.12040279548E+01 -0.13813248747E+01 -0.29049349531E+02  0.29107085905E+02  0.00000000000E+00 0. -1.
</event>
<event>
 5    1  0.1111613E-009  0.9118800E+02  0.7818608E-02  0.1130116E+00
         25   -1    0    0    0    0  0.00000000000E+00  0.00000000000E+00  0.99999998245E-14  0.12500000000E+03  0.12500000000E+03 0.  0.
        -11    1    3    3    0    0  0.28158661974E+02 -0.19705597930E+02  0.28157617744E+02  0.44430533096E+02  0.51100000000E-03 0.  1.
         23    2    1    0    0    0 -0.18538721551E+02 -0.21592039579E+02  0.72327313344E+01  0.95636540182E+02  0.91017223895E+02 0.  0.
         11    1    3    3    0    0 -0.46697383525E+02 -0.18864416489E+01 -0.20924886410E+02  0.51206007086E+02  0.51100000000E-03 0. -1.
         22    1    1    0    0    0  0.18538721551E+02  0.21592039579E+02 -0.72327313344E+01  0.29363459818E+02  0.00000000000E+00 0. -1.
</event>
<event>
 5    1  0.1111613E-009  0.9118800E+02  0.7818608E-02  0.1130116E+00
         25   -1    0    0    0    0  0.00000000000E+00  0.00000000000E+00  0.99999998245E-14  0.12500000000E+03  0.12500000000E+03 0.  0.
        -11    1    3    3    0    0  0.54205564414E+01 -0.52256489238E+02 -0.13530638024E+02  0.54251278927E+02  0.51100000000E-03 0.  1.
         23    2    1    0    0    0 -0.18283623404E+02 -0.20623496088E+02  0.33543578453E+01  0.97235432792E+02  0.93187221217E+02 0.  0.
         11    1    3    3    0    0 -0.23704179846E+02  0.31632993150E+02  0.16884995869E+02  0.42984153866E+02  0.51100000000E-03 0. -1.
         22    1    1    0    0    0  0.18283623404E+02  0.20623496088E+02 -0.33543578453E+01  0.27764567208E+02  0.00000000000E+00 0.  1.
</event>
<event>
 5    1  0.1111613E-009  0.9118800E+02  0.7818608E-02  0.1130116E+00
         25   -1    0    0    0    0  0.00000000000E+00  0.00000000000E+00  0.99999998245E-14  0.12500000000E+03  0.12500000000E+03 0.  0.
        -11    1    3    3    0    0  0.28715971753E+02  0.35227527733E+02  0.37204565686E+02  0.58734703984E+02  0.51100000000E-03 0. -1.
         23    2    1    0    0    0  0.14648105283E+02  0.36460936839E+01  0.25742376259E+02  0.95158235257E+02  0.90357948262E+02 0.  0.
         11    1    3    3    0    0 -0.14067866471E+02 -0.31581434049E+02 -0.11462189427E+02  0.36423531273E+02  0.51100000000E-03 0.  1.
         22    1    1    0    0    0 -0.14648105283E+02 -0.36460936839E+01 -0.25742376259E+02  0.29841764743E+02  0.00000000000E+00 0. -1.
</event>
<event>
 5    1  0.1111613E-009  0.9118800E+02  0.7818608E-02  0.1130116E+00
         25   -1    0    0    0    0  0.00000000000E+00  0.00000000000E+00  0.99999998245E-14  0.12500000000E+03  0.12500000000E+03 0.  0.
        -11    1    3    3    0    0  0.13502706257E+02  0.47753555684E+02 -0.22185123501E+02  0.54359036616E+02  0.51100000000E-03 0. -1.
         23    2    1    0    0    0  0.21406685817E+02  0.14852144816E+02  0.58445958298E+01  0.98298095504E+02  0.94601923216E+02 0.  0.
         11    1    3    3    0    0  0.79039795592E+01 -0.32901410868E+02  0.28029719331E+02  0.43939058889E+02  0.51100000000E-03 0.  1.
         22    1    1    0    0    0 -0.21406685817E+02 -0.14852144816E+02 -0.58445958298E+01  0.26701904496E+02  0.00000000000E+00 0. -1.
</event>
<event>
 5    1  0.1111613E-009  0.9118800E+02  0.7818608E-02  0.1130116E+00
         25   -1    0    0    0    0  0.00000000000E+00  0.00000000000E+00  0.99999998245E-14  0.12500000000E+03  0.12500000000E+03 0.  0.
        -11    1    3    3    0    0 -0.28229335309E+02  0.11829194766E+02  0.19218873728E+02  0.36141255214E+02  0.51100000000E-03 0. -1.
         23    2    1    0    0    0  0.21766819075E+02 -0.18118904324E+02  0.87864376009E+01  0.95347165527E+02  0.90618935007E+02 0.  0.
         11    1    3    3    0    0  0.49996154384E+02 -0.29948099090E+02 -0.10432436127E+02  0.59205910314E+02  0.51100000000E-03 0.  1.
         22    1    1    0    0    0 -0.21766819075E+02  0.18118904324E+02 -0.87864376009E+01  0.29652834473E+02  0.00000000000E+00 0.  1.
</event>
<event>
 5    1  0.1111613E-009  0.9118800E+02  0.7818608E-02  0.1130116E+00
         25   -1    0    0    0    0  0.00000000000E+00  0.00000000000E+00  0.99999998245E-14  0.12500000000E+03  0.12500000000E+03 0.  0.
        -11    1    3    3    0    0  0.98007310033E+01  0.37725489934E+01  0.32165634555E+02  0.33836585240E+02  0.51100000000E-03 0.  1.
         23    2    1    0    0    0  0.22634135106E+02  0.39914359518E+02  0.10341954122E+02  0.77963671670E+02  0.62176506154E+02 0.  0.
         11    1    3    3    0    0  0.12833404102E+02  0.36141810525E+02 -0.21823680433E+02  0.44127086430E+02  0.51100000000E-03 0. -1.
         22    1    1    0    0    0 -0.22634135106E+02 -0.39914359518E+02 -0.10341954122E+02  0.47036328330E+02  0.00000000000E+00 0. -1.
</event>
<event>
 5    1  0.1111613E-009  0.9118800E+02  0.7818608E-02  0.1130116E+00
         25   -1    0    0    0    0  0.00000000000E+00  0.00000000000E+00  0.99999998245E-14  0.12500000000E+03  0.12500000000E+03 0.  0.
        -11    1    3    3    0    0  0.27331073423E+01 -0.40780969954E+02 -0.31302483867E+02  0.51482063698E+02  0.51100000000E-03 0. -1.
         23    2    1    0    0    0 -0.45519175963E+01 -0.23008912626E+02  0.11854053244E+02  0.98719806083E+02  0.95157509009E+02 0.  0.
         11    1    3    3    0    0 -0.72850249386E+01  0.17772057328E+02  0.43156537110E+02  0.47237742385E+02  0.51100000000E-03 0.  1.
         22    1    1    0    0    0  0.45519175963E+01  0.23008912626E+02 -0.11854053244E+02  0.26280193917E+02  0.00000000000E+00 0.  1.
</event>
<event>
 5    1  0.1111613E-009  0.9118800E+02  0.7818608E-02  0.1130116E+00
         25   -1    0    0    0    0  0.00000000000E+00  0.00000000000E+00  0.99999998245E-14  0.12500000000E+03  0.12500000000E+03 0.  0.
        -11    1    3    3    0    0 -0.13537399868E+02  0.29548115505E+02 -0.70627188162E+01  0.33260101059E+02  0.51100000000E-03 0. -1.
         23    2    1    0    0    0 -0.50849712910E+01 -0.25812720834E+02  0.16421109534E+02  0.93986997433E+02  0.88722879565E+02 0.  0.
         11    1    3    3    0    0  0.84524285772E+01 -0.55360836339E+02  0.23483828350E+02  0.60726896374E+02  0.51100000000E-03 0.  1.
         22    1    1    0    0    0  0.50849712910E+01  0.25812720834E+02 -0.16421109534E+02  0.31013002567E+02  0.00000000000E+00 0.  1.
</event>
<event>
 5    1  0.1111613E-009  0.9118800E+02  0.7818608E-02  0.1130116E+00
         25   -1    0    0    0    0  0.00000000000E+00  0.00000000000E+00  0.99999998245E-14  0.12500000000E+03  0.12500000000E+03 0.  0.
        -11    1    3    3    0    0 -0.27417133245E+02  0.28172518807E+02 -0.33404755271E+01  0.39453121401E+02  0.51100000000E-03 0. -1.
         23    2    1    0    0    0 -0.11605168248E+02 -0.25558410044E+02  0.61597217516E+01  0.96262316967E+02  0.91872625094E+02 0.  0.
         11    1    3    3    0    0  0.15811964997E+02 -0.53730928851E+02  0.95001972787E+01  0.56809195566E+02  0.51100000000E-03 0.  1.
         22    1    1    0    0    0  0.11605168248E+02  0.25558410044E+02 -0.61597217516E+01  0.28737683033E+02  0.00000000000E+00 0.  1.
</event>
<event>
 5    1  0.1111613E-009  0.9118800E+02  0.7818608E-02  0.1130116E+00
         25   -1    0    0    0    0  0.00000000000E+00  0.00000000000E+00  0.99999998245E-14  0.12500000000E+03  0.12500000000E+03 0.  0.
        -11    1    3    3    0    0 -0.17578759226E+02 -0.29938559318E+02  0.22155984297E+02  0.41185164202E+02  0.51100000000E-03 0.  1.
         23    2    1    0    0    0 -0.14205876518E+02 -0.38140684964E+01 -0.25457078246E+02  0.95599032687E+02  0.90965697775E+02 0.  0.
         11    1    3    3    0    0  0.33728827079E+01  0.26124490822E+02 -0.47613062543E+02  0.54413868484E+02  0.51100000000E-03 0. -1.
         22    1    1    0    0    0  0.14205876518E+02  0.38140684964E+01  0.25457078246E+02  0.29400967313E+02  0.00000000000E+00 0. -1.
</event>
<event>
 5    1  0.1111613E-009  0.9118800E+02  0.7818608E-02  0.1130116E+00
         25   -1    0    0    0    0  0.00000000000E+00  0.00000000000E+00  0.99999998245E-14  0.12500000000E+03  0.12500000000E+03 0.  0.
        -11    1    3    3    0    0  0.41837591985E+01 -0.44865818210E+02  0.33381490145E+02  0.56078243279E+02  0.51100000000E-03 0.  1.
         23    2    1    0    0    0 -0.17325845333E+02 -0.24391281478E+02  0.11577794997E+02  0.92919400479E+02  0.87205791779E+02 0.  0.
         11    1    3    3    0    0 -0.21509604532E+02  0.20474536732E+02 -0.21803695148E+02  0.36841157200E+02  0.51100000000E-03 0. -1.
         22    1    1    0    0    0  0.17325845333E+02  0.24391281478E+02 -0.11577794997E+02  0.32080599521E+02  0.00000000000E+00 0.  1.
</event>
<event>
 5    1  0.1111613E-009  0.9118800E+02  0.7818608E-02  0.1130116E+00
         25   -1    0    0    0    0  0.00000000000E+00  0.00000000000E+00  0.99999998245E-14  0.12500000000E+03  0.12500000000E+03 0.  0.
        -11    1    3    3    0    0 -0.95182695526E+01 -0.37247053938E+02 -0.21824622072E+01  0.38505890769E+02  0.51100000000E-03 0.  1.
         23    2    1    0    0    0  0.28054377258E+02  0.45681736069E+01 -0.91216340483E+01  0.95148358485E+02  0.90344283833E+02 0.  0.
         11    1    3    3    0    0  0.37572646810E+02  0.41815227545E+02 -0.69391718410E+01  0.56642467717E+02  0.51100000000E-03 0. -1.
         22    1    1    0    0    0 -0.28054377258E+02 -0.45681736069E+01  0.91216340483E+01  0.29851641515E+02  0.00000000000E+00 0. -1.
</event>
<event>
 5    1  0.1111613E-009  0.9118800E+02  0.7818608E-02  0.1130116E+00
         25   -1    0    0    0    0  0.00000000000E+00  0.00000000000E+00  0.99999998245E-14  0.12500000000E+03  0.12500000000E+03 0.  0.
        -11    1    3    3    0    0  0.14923611880E+02  0.23832877866E+02  0.34023383778E+01  0.28324833020E+02  0.51100000000E-03 0.  1.
         23    2    1    0    0    0  0.22870565464E+02 -0.14948840062E+02 -0.33035863217E+02  0.82129277562E+02  0.70052261851E+02 0.  0.
         11    1    3    3    0    0  0.79469535840E+01 -0.38781717928E+02 -0.36438201595E+02  0.53804444542E+02  0.51100000000E-03 0. -1.
         22    1    1    0    0    0 -0.22870565464E+02  0.14948840062E+02  0.33035863217E+02  0.42870722438E+02  0.00000000000E+00 0.  1.
</event>
<event>
 5    1  0.1111613E-009  0.9118800E+02  0.7818608E-02  0.1130116E+00
         25   -1    0    0    0    0  0.00000000000E+00  0.00000000000E+00  0.99999998245E-14  0.12500000000E+03  0.12500000000E+03 0.  0.
        -11    1    3    3    0    0  0.74482224665E+01  0.27538629278E+01  0.33228714197E+02  0.34164414621E+02  0.51100000000E-03 0. -1.
         23    2    1    0    0    0  0.42631149729E+00 -0.83392336662E+01 -0.27481476900E+02  0.96277950417E+02  0.91893893183E+02 0.  0.
         11    1    3    3    0    0 -0.70219109692E+01 -0.11093096594E+02 -0.60710191098E+02  0.62113535796E+02  0.51100000000E-03 0.  1.
         22    1    1    0    0    0 -0.42631149729E+00  0.83392336662E+01  0.27481476900E+02  0.28722049583E+02  0.00000000000E+00 0.  1.
</event>
<event>
 5    1  0.1111613E-009  0.9118800E+02  0.7818608E-02  0.1130116E+00
         25   -1    0    0    0    0  0.00000000000E+00  0.00000000000E+00  0.99999998245E-14  0.12500000000E+03  0.12500000000E+03 0.  0.
        -11    1    3    3    0    0 -0.31213765235E+02  0.42755981915E+01  0.51821679822E+02  0.60647064067E+02  0.51100000000E-03 0. -1.
         23    2    1    0    0    0 -0.64610765172E+01 -0.69793622803E+01  0.22154819283E+02  0.10088998082E+03  0.97966806644E+02 0.  0.
         11    1    3    3    0    0  0.24752688718E+02 -0.11254960472E+02 -0.29666860539E+02  0.40242916750E+02  0.51100000000E-03 0.  1.
         22    1    1    0    0    0  0.64610765172E+01  0.69793622803E+01 -0.22154819283E+02  0.24110019184E+02  0.00000000000E+00 0. -1.
</event>
<event>
 5    1  0.1111613E-009  0.9118800E+02  0.7818608E-02  0.1130116E+00
         25   -1    0    0    0    0  0.00000000000E+00  0.00000000000E+00  0.99999998245E-14  0.12500000000E+03  0.12500000000E+03 0.  0.
        -11    1    3    3    0    0  0.51680811040E+02  0.33644913802E+02 -0.29881456387E+01  0.61739901758E+02  0.51100000000E-03 0. -1.
         23    2    1    0    0    0  0.21190782089E+02  0.15557368566E+02 -0.79475078341E+01  0.97536499805E+02  0.93590196875E+02 0.  0.
         11    1    3    3    0    0 -0.30490028951E+02 -0.18087545236E+02 -0.49593621955E+01  0.35796598047E+02  0.51100000000E-03 0.  1.
         22    1    1    0    0    0 -0.21190782089E+02 -0.15557368566E+02  0.79475078341E+01  0.27463500195E+02  0.00000000000E+00 0. -1.
</event>
<event>
 5    1  0.1111613E-009  0.9118800E+02  0.7818608E-02  0.1130116E+00
         25   -1    0    0    0    0  0.00000000000E+00  0.00000000000E+00  0.99999998245E-14  0.12500000000E+03  0.12500000000E+03 0.  0.
        -11    1    3    3    0    0 -0.17640992370E+02 -0.14215901398E+02  0.56262696411E+01  0.23344193597E+02  0.51100000000E-03 0. -1.
         23    2    1    0    0    0  0.66919332499E+01  0.38710424353E+02 -0.11509292303E+02  0.84064163212E+02  0.73423707364E+02 0.  0.
         11    1    3    3    0    0  0.24332925620E+02  0.52926325750E+02 -0.17135561944E+02  0.60719969615E+02  0.51100000000E-03 0.  1.
         22    1    1    0    0    0 -0.66919332499E+01 -0.38710424353E+02  0.11509292303E+02  0.40935836788E+02  0.00000000000E+00 0.  1.
</event>
<event>
 5    1  0.1111613E-009  0.9118800E+02  0.7818608E-02  0.1130116E+00
         25   -1    0    0    0    0  0.00000000000E+00  0.00000000000E+00  0.99999998245E-14  0.12500000000E+03  0.12500000000E+03 0.  0.
        -11    1    3    3    0    0  0.22103064224E+02 -0.51640100431E+02  0.25320934271E+02  0.61614893762E+02  0.51100000000E-03 0.  1.
         23    2    1    0    0    0  0.70178911497E+01 -0.34057576279E+02  0.17540086669E+02  0.86053576050E+02  0.76735871744E+02 0.  0.
         11    1    3    3    0    0 -0.15085173075E+02  0.17582524152E+02 -0.77808476030E+01  0.24438682287E+02  0.51100000000E-03 0. -1.
         22    1    1    0    0    0 -0.70178911497E+01  0.34057576279E+02 -0.17540086669E+02  0.38946423950E+02  0.00000000000E+00 0.  1.
</event>
<event>
 5    1  0.1111613E-009  0.9118800E+02  0.7818608E-02  0.1130116E+00
         25   -1    0    0    0    0  0.00000000000E+00  0.00000000000E+00  0.99999998245E-14  0.12500000000E+03  0.12500000000E+03 0.  0.
        -11    1    3    3    0    0  0.75920078401E+01  0.24067246005E+02 -0.50262060130E+02  0.56241849206E+02  0.51100000000E-03 0.  1.
         23    2    1    0    0    0 -0.16248036886E+02  0.11448652965E+02 -0.19490613012E+02  0.97161998043E+02  0.93088664781E+02 0.  0.
         11    1    3    3    0    0 -0.23840044727E+02 -0.12618593040E+02  0.30771447118E+02  0.40920148837E+02  0.51100000000E-03 0. -1.
         22    1    1    0    0    0  0.16248036886E+02 -0.11448652965E+02  0.19490613012E+02  0.27838001957E+02  0.00000000000E+00 0.  1.
</event>
<event>
 5    1  0.1111613E-009  0.9118800E+02  0.7818608E-02  0.1130116E+00
         25   -1    0    0    0    0  0.00000000000E+00  0.00000000000E+00  0.99999998245E-14  0.12500000000E+03  0.12500000000E+03 0.  0.
        -11    1    3    3    0    0  0.25413183537E+00  0.48177883604E+02  0.16802969931E+01  0.48207846351E+02  0.51100000000E-03 0. -1.
         23    2    1    0    0    0  0.14627785170E+02  0.12772064015E+02 -0.23910189238E+02  0.94197486018E+02  0.89018939021E+02 0.  0.
         11    1    3    3    0    0  0.14373653335E+02 -0.35405819588E+02 -0.25590486232E+02  0.45989639667E+02  0.51100000000E-03 0.  1.
         22    1    1    0    0    0 -0.14627785170E+02 -0.12772064015E+02  0.23910189238E+02  0.30802513982E+02  0.00000000000E+00 0. -1.
</event>
<event>
 5    1  0.1111613E-009  0.9118800E+02  0.7818608E-02  0.1130116E+00
         25   -1    0    0    0    0  0.00000000000E+00  0.00000000000E+00  0.99999998245E-14  0.12500000000E+03  0.12500000000E+03 0.  0.
        -11    1    3    3    0    0  0.49207624048E+02 -0.32614596461E+02 -0.63403544016E+01  0.59374255877E+02  0.51100000000E-03 0.  1.
         23    2    1    0    0    0  0.18644043951E+02 -0.21361834197E+02  0.88299138733E+01  0.95303270986E+02  0.90558366519E+02 0.  0.
         11    1    3    3    0    0 -0.30563580097E+02  0.11252762264E+02  0.15170268275E+02  0.35929015109E+02  0.51100000000E-03 0. -1.
         22    1    1    0    0    0 -0.18644043951E+02  0.21361834197E+02 -0.88299138733E+01  0.29696729014E+02  0.00000000000E+00 0.  1.
</event>
<event>
 5    1  0.1111613E-009  0.9118800E+02  0.7818608E-02  0.1130116E+00
         25   -1    0    0    0    0  0.00000000000E+00  0.00000000000E+00  0.99999998245E-14  0.12500000000E+03  0.12500000000E+03 0.  0.
        -11    1    3    3    0    0 -0.40498827544E+02 -0.42787042973E+01 -0.15506167777E+02  0.43576410847E+02  0.51100000000E-03 0.  1.
         23    2    1    0    0    0 -0.21662758969E+02  0.27803260078E+02  0.96141625322E+01  0.88466063471E+02  0.80569943947E+02 0.  0.
         11    1    3    3    0    0  0.18836068575E+02  0.32081964376E+02  0.25120330309E+02  0.44889652624E+02  0.51100000000E-03 0. -1.
         22    1    1    0    0    0  0.21662758969E+02 -0.27803260078E+02 -0.96141625322E+01  0.36533936529E+02  0.00000000000E+00 0. -1.
</event>
<event>
 5    1  0.1111613E-009  0.9118800E+02  0.7818608E-02  0.1130116E+00
         25   -1    0    0    0    0  0.00000000000E+00  0.00000000000E+00  0.99999998245E-14  0.12500000000E+03  0.12500000000E+03 0.  0.
        -11    1    3    3    0    0  0.81948046644E+01 -0.41750034278E+02 -0.52057841570E+00  0.42549867072E+02  0.51100000000E-03 0.  1.
         23    2    1    0    0    0 -0.24011516312E+02 -0.29019066310E+01  0.16405215943E+02  0.95774923647E+02  0.91207077093E+02 0.  0.
         11    1    3    3    0    0 -0.32206320976E+02  0.38848127647E+02  0.16925794358E+02  0.53225056575E+02  0.51100000000E-03 0. -1.
         22    1    1    0    0    0  0.24011516312E+02  0.29019066310E+01 -0.16405215943E+02  0.29225076353E+02  0.00000000000E+00 0. -1.
</event>
<event>
 5    1  0.1111613E-009  0.9118800E+02  0.7818608E-02  0.1130116E+00
         25   -1    0    0    0    0  0.00000000000E+00  0.00000000000E+00  0.99999998245E-14  0.12500000000E+03  0.12500000000E+03 0.  0.
        -11    1    3    3    0    0  0.23071102979E+01 -0.35447488986E+02 -0.44510370996E+02  0.56947522859E+02  0.51100000000E-03 0. -1.
         23    2    1    0    0    0 -0.55518881809E+01 -0.28055627985E+02 -0.75924278824E+01  0.95409685957E+02  0.90705134856E+02 0.  0.
         11    1    3    3    0    0 -0.78589984789E+01  0.73918610006E+01  0.36917943114E+02  0.38462163097E+02  0.51100000000E-03 0.  1.
         22    1    1    0    0    0  0.55518881809E+01  0.28055627985E+02  0.75924278824E+01  0.29590314043E+02  0.00000000000E+00 0. -1.
</event>
<event>
 5    1  0.1111613E-009  0.9118800E+02  0.7818608E-02  0.1130116E+00
         25   -1    0    0    0    0  0.00000000000E+00  0.00000000000E+00  0.99999998245E-14  0.12500000000E+03  0.12500000000E+03 0.  0.
        -11    1    3    3    0    0  0.20102483972E+02  0.13744031071E+02 -0.29533424482E+02  0.38278341315E+02  0.51100000000E-03 0. -1.
         23    2    1    0    0    0 -0.62754587776E+01 -0.28377975830E+02 -0.30655599443E+00  0.95934816848E+02  0.91425949336E+02 0.  0.
         11    1    3    3    0    0 -0.26377942750E+02 -0.42122006901E+02  0.29226868487E+02  0.57656475533E+02  0.51100000000E-03 0.  1.
         22    1    1    0    0    0  0.62754587776E+01  0.28377975830E+02  0.30655599443E+00  0.29065183152E+02  0.00000000000E+00 0. -1.
</event>
<event>
 5    1  0.1111613E-009  0.9118800E+02  0.7818608E-02  0.1130116E+00
         25   -1    0    0    0    0  0.00000000000E+00  0.00000000000E+00  0.99999998245E-14  0.12500000000E+03  0.12500000000E+03 0.  0.
        -11    1    3    3    0    0 -0.46089814680E+02  0.10726485761E+02  0.12901183112E+02  0.49048639532E+02  0.51100000000E-03 0.  1.
         23    2    1    0    0    0 -0.16948843477E+02 -0.15032636384E+02 -0.15794680661E+02  0.97382697651E+02  0.93384551253E+02 0.  0.
         11    1    3    3    0    0  0.29140971203E+02 -0.25759122145E+02 -0.28695863773E+02  0.48334058119E+02  0.51100000000E-03 0. -1.
         22    1    1    0    0    0  0.16948843477E+02  0.15032636384E+02  0.15794680661E+02  0.27617302349E+02  0.00000000000E+00 0. -1.
</event>
<event>
 5    1  0.1111613E-009  0.9118800E+02  0.7818608E-02  0.1130116E+00
         25   -1    0    0    0    0  0.00000000000E+00  0.00000000000E+00  0.99999998245E-14  0.12500000000E+03  0.12500000000E+03 0.  0.
        -11    1    3    3    0    0 -0.78458673379E+01  0.21530716765E+02 -0.28256758507E+02  0.36380953812E+02  0.51100000000E-03 0.  1.
         23    2    1    0    0    0  0.18752831331E+01  0.97373417148E+01  0.28324401939E+02  0.94989930762E+02  0.90124817284E+02 0.  0.
         11    1    3    3    0    0  0.97211504710E+01 -0.11793375050E+02  0.56581160445E+02  0.58608976950E+02  0.51100000000E-03 0. -1.
         22    1    1    0    0    0 -0.18752831331E+01 -0.97373417148E+01 -0.28324401939E+02  0.30010069238E+02  0.00000000000E+00 0. -1.
</event>
<event>
 5    1  0.1111613E-009  0.9118800E+02  0.7818608E-02  0.1130116E+00
         25   -1    0    0    0    0  0.00000000000E+00  0.00000000000E+00  0.99999998245E-14  0.12500000000E+03  0.12500000000E+03 0.  0.
        -11    1    3    3    0    0 -0.32840173896E+02  0.38863417176E+02  0.71928494777E+00  0.50885750335E+02  0.51100000000E-03 0. -1.
         23    2    1    0    0    0  0.56628579520E+01  0.23455912610E+02 -0.16477151825E+02  0.95781096379E+02  0.91215536477E+02 0.  0.
         11    1    3    3    0    0  0.38503031848E+02 -0.15407504566E+02 -0.17196436773E+02  0.44895346044E+02  0.51100000000E-03 0.  1.
         22    1    1    0    0    0 -0.56628579520E+01 -0.23455912610E+02  0.16477151825E+02  0.29218903621E+02  0.00000000000E+00 0. -1.
</event>
<event>
 5    1  0.1111613E-009  0.9118800E+02  0.7818608E-02  0.1130116E+00
         25   -1    0    0    0    0  0.00000000000E+00  0.00000000000E+00  0.99999998245E-14  0.12500000000E+03  0.12500000000E+03 0.  0.
        -11    1    3    3    0    0  0.87552736865E+01 -0.13883174163E+02 -0.47838120168E+02  0.50575518620E+02  0.51100000000E-03 0.  1.
         23    2    1    0    0    0 -0.21394001658E+02  0.42578648974E+01 -0.17525360637E+02  0.97018381286E+02  0.92895615189E+02 0.  0.
         11    1    3    3    0    0 -0.30149275344E+02  0.18141039060E+02  0.30312759531E+02  0.46442862666E+02  0.51100000000E-03 0. -1.
         22    1    1    0    0    0  0.21394001658E+02 -0.42578648974E+01  0.17525360637E+02  0.27981618714E+02  0.00000000000E+00 0. -1.
</event>
<event>
 5    1  0.1111613E-009  0.9118800E+02  0.7818608E-02  0.1130116E+00
         25   -1    0    0    0    0  0.00000000000E+00  0.00000000000E+00  0.99999998245E-14  0.12500000000E+03  0.12500000000E+03 0.  0.
        -11    1    3    3    0    0  0.60082496813E+02 -0.50962568335E+01 -0.13014531375E+02  0.61686759391E+02  0.51100000000E-03 0.  1.
         23    2    1    0    0    0  0.25519705591E+02 -0.59578064983E+01 -0.11742029073E+02  0.96283696644E+02  0.91901709238E+02 0.  0.
         11    1    3    3    0    0 -0.34562791222E+02 -0.86154966475E+00  0.12725023025E+01  0.34596937252E+02  0.51100000000E-03 0. -1.
         22    1    1    0    0    0 -0.25519705591E+02  0.59578064983E+01  0.11742029073E+02  0.28716303356E+02  0.00000000000E+00 0.  1.
</event>
<event>
 5    1  0.1111613E-009  0.9118800E+02  0.7818608E-02  0.1130116E+00
         25   -1    0    0    0    0  0.00000000000E+00  0.00000000000E+00  0.99999998245E-14  0.12500000000E+03  0.12500000000E+03 0.  0.
        -11    1    3    3    0    0 -0.23502715318E+02 -0.46135275689E+02 -0.54622993285E+01  0.52064171985E+02  0.51100000000E-03 0. -1.
         23    2    1    0    0    0 -0.27477075923E+02 -0.52789148421E+01  0.90344534752E+01  0.95597993388E+02  0.90964269618E+02 0.  0.
         11    1    3    3    0    0 -0.39743606054E+01  0.40856360847E+02  0.14496752804E+02  0.43533821404E+02  0.51100000000E-03 0.  1.
         22    1    1    0    0    0  0.27477075923E+02  0.52789148421E+01 -0.90344534752E+01  0.29402006612E+02  0.00000000000E+00 0. -1.
</event>
<event>
 5    1  0.1111613E-009  0.9118800E+02  0.7818608E-02  0.1130116E+00
         25   -1    0    0    0    0  0.00000000000E+00  0.00000000000E+00  0.99999998245E-14  0.12500000000E+03  0.12500000000E+03 0.  0.
        -11    1    3    3    0    0  0.30644609768E+02 -0.13741309470E+02  0.20410324437E+02  0.39300089538E+02  0.51100000000E-03 0.  1.
         23    2    1    0    0    0 -0.21654841648E+02 -0.18499768275E+01  0.23458611964E+02  0.93020927838E+02  0.87351198958E+02 0.  0.
         11    1    3    3    0    0 -0.52299451417E+02  0.11891332643E+02  0.30482875269E+01  0.53720838300E+02  0.51100000000E-03 0. -1.
         22    1    1    0    0    0  0.21654841648E+02  0.18499768275E+01 -0.23458611964E+02  0.31979072162E+02  0.00000000000E+00 0. -1.
</event>
<event>
 5    1  0.1111613E-009  0.9118800E+02  0.7818608E-02  0.1130116E+00
         25   -1    0    0    0    0  0.00000000000E+00  0.00000000000E+00  0.99999998245E-14  0.12500000000E+03  0.12500000000E+03 0.  0.
        -11    1    3    3    0    0  0.25471768374E+02  0.27707434731E+02 -0.31491945807E+02  0.49073980625E+02  0.51100000000E-03 0. -1.
         23    2    1    0    0    0 -0.13020698447E+02  0.23738146105E+02 -0.17701716102E+01  0.97867516220E+02  0.94031266369E+02 0.  0.
         11    1    3    3    0    0 -0.38492466821E+02 -0.39692886254E+01  0.29721774197E+02  0.48793535594E+02  0.51100000000E-03 0.  1.
         22    1    1    0    0    0  0.13020698447E+02 -0.23738146105E+02  0.17701716102E+01  0.27132483780E+02  0.00000000000E+00 0.  1.
</event>
<event>
 5    1  0.1111613E-009  0.9118800E+02  0.7818608E-02  0.1130116E+00
         25   -1    0    0    0    0  0.00000000000E+00  0.00000000000E+00  0.99999998245E-14  0.12500000000E+03  0.12500000000E+03 0.  0.
        -11    1    3    3    0    0 -0.17077018304E+01  0.13612898480E+02  0.34448670264E+02  0.37080158222E+02  0.51100000000E-03 0.  1.
         23    2    1    0    0    0  0.70722577479E+01  0.43111256563E+01 -0.25401673469E+02  0.98282072515E+02  0.94580749250E+02 0.  0.
         11    1    3    3    0    0  0.87799595783E+01 -0.93017728240E+01 -0.59850343733E+02  0.61201914293E+02  0.51100000000E-03 0. -1.
         22    1    1    0    0    0 -0.70722577479E+01 -0.43111256563E+01  0.25401673469E+02  0.26717927485E+02  0.00000000000E+00 0. -1.
</event>
<event>
 5    1  0.1111613E-009  0.9118800E+02  0.7818608E-02  0.1130116E+00
         25   -1    0    0    0    0  0.00000000000E+00  0.00000000000E+00  0.99999998245E-14  0.12500000000E+03  0.12500000000E+03 0.  0.
        -11    1    3    3    0    0  0.14805768265E+02 -0.41228621660E+02  0.46236235961E+01  0.44049834430E+02  0.51100000000E-03 0.  1.
         23    2    1    0    0    0  0.20962966678E+02  0.78837931093E+01  0.19040680325E+02  0.95603611225E+02  0.90971989130E+02 0.  0.
         11    1    3    3    0    0  0.61571984137E+01  0.49112414770E+02  0.14417056729E+02  0.51553776795E+02  0.51100000000E-03 0. -1.
         22    1    1    0    0    0 -0.20962966678E+02 -0.78837931093E+01 -0.19040680325E+02  0.29396388775E+02  0.00000000000E+00 0. -1.
</event>
<event>
 5    1  0.1111613E-009  0.9118800E+02  0.7818608E-02  0.1130116E+00
         25   -1    0    0    0    0  0.00000000000E+00  0.00000000000E+00  0.99999998245E-14  0.12500000000E+03  0.12500000000E+03 0.  0.
        -11    1    3    3    0    0  0.88915462717E+01  0.33131438980E+02  0.24630990574E+02  0.42230765337E+02  0.51100000000E-03 0. -1.
         23    2    1    0    0    0  0.14528607244E+02  0.82454553417E+01 -0.23181746645E+02  0.96426212366E+02  0.92095347828E+02 0.  0.
         11    1    3    3    0    0  0.56370609724E+01 -0.24885983639E+02 -0.47812737219E+02  0.54195447029E+02  0.51100000000E-03 0.  1.
         22    1    1    0    0    0 -0.14528607244E+02 -0.82454553417E+01  0.23181746645E+02  0.28573787634E+02  0.00000000000E+00 0. -1.
</event>
<event>
 5    1  0.1111613E-009  0.9118800E+02  0.7818608E-02  0.1130116E+00
         25   -1    0    0    0    0  0.00000000000E+00  0.00000000000E+00  0.99999998245E-14  0.12500000000E+03  0.12500000000E+03 0.  0.
        -11    1    3    3    0    0 -0.35673231927E+02  0.19936041256E+02  0.14695119871E+02  0.43427776426E+02  0.51100000000E-03 0.  1.
         23    2    1    0    0    0 -0.79613970265E+00  0.15190120740E+02 -0.24534029893E+02  0.96133198491E+02  0.91696780875E+02 0.  0.
         11    1    3    3    0    0  0.34877092224E+02 -0.47459205156E+01 -0.39229149764E+02  0.52705422065E+02  0.51100000000E-03 0. -1.
         22    1    1    0    0    0  0.79613970265E+00 -0.15190120740E+02  0.24534029893E+02  0.28866801509E+02  0.00000000000E+00 0. -1.
</event>
<event>
 5    1  0.1111613E-009  0.9118800E+02  0.7818608E-02  0.1130116E+00
         25   -1    0    0    0    0  0.00000000000E+00  0.00000000000E+00  0.99999998245E-14  0.12500000000E+03  0.12500000000E+03 0.  0.
        -11    1    3    3    0    0  0.45754433045E+02 -0.11772909947E+02  0.19504816146E+02  0.51112693189E+02  0.51100000000E-03 0.  1.
         23    2    1    0    0    0  0.20393274189E+02 -0.12094300097E+02 -0.17186021151E+02  0.95716607949E+02  0.91127119933E+02 0.  0.
         11    1    3    3    0    0 -0.25361158856E+02 -0.32139014944E+00 -0.36690837298E+02  0.44603914761E+02  0.51100000000E-03 0. -1.
         22    1    1    0    0    0 -0.20393274189E+02  0.12094300097E+02  0.17186021151E+02  0.29283392051E+02  0.00000000000E+00 0.  1.
</event>
<event>
 5    1  0.1111613E-009  0.9118800E+02  0.7818608E-02  0.1130116E+00
         25   -1    0    0    0    0  0.00000000000E+00  0.00000000000E+00  0.99999998245E-14  0.12500000000E+03  0.12500000000E+03 0.  0.
        -11    1    3    3    0    0 -0.14381220635E+02  0.57154180967E+02  0.66796216223E+01  0.59313044553E+02  0.51100000000E-03 0.  1.
         23    2    1    0    0    0 -0.23918244727E+01  0.13691543874E+02  0.14322462253E+02  0.10504224153E+03  0.10312885330E+03 0.  0.
         11    1    3    3    0    0  0.11989396162E+02 -0.43462637092E+02  0.76428406310E+01  0.45729196981E+02  0.51100000000E-03 0. -1.
         22    1    1    0    0    0  0.23918244727E+01 -0.13691543874E+02 -0.14322462253E+02  0.19957758465E+02  0.00000000000E+00 0.  1.
</event>
<event>
 5    1  0.1111613E-009  0.9118800E+02  0.7818608E-02  0.1130116E+00
         25   -1    0    0    0    0  0.00000000000E+00  0.00000000000E+00  0.99999998245E-14  0.12500000000E+03  0.12500000000E+03 0.  0.
        -11    1    3    3    0    0 -0.35989167812E+02 -0.25093177737E+02 -0.30640177694E+02  0.53513626846E+02  0.51100000000E-03 0.  1.
         23    2    1    0    0    0 -0.79062318034E+00 -0.27853642846E+02 -0.62009595777E+01  0.96453504515E+02  0.92132383713E+02 0.  0.
         11    1    3    3    0    0  0.35198544632E+02 -0.27604651089E+01  0.24439218117E+02  0.42939877669E+02  0.51100000000E-03 0. -1.
         22    1    1    0    0    0  0.79062318034E+00  0.27853642846E+02  0.62009595777E+01  0.28546495485E+02  0.00000000000E+00 0.  1.
</event>
<event>
 5    1  0.1111613E-009  0.9118800E+02  0.7818608E-02  0.1130116E+00
         25   -1    0    0    0    0  0.00000000000E+00  0.00000000000E+00  0.99999998245E-14  0.12500000000E+03  0.12500000000E+03 0.  0.
        -11    1    3    3    0    0  0.31385651727E+02 -0.10858971726E+02  0.23332055134E+02  0.40587697623E+02  0.51100000000E-03 0.  1.
         23    2    1    0    0    0 -0.22397900209E+02 -0.65801501573E+01  0.19333472446E+02  0.94689152656E+02  0.89706678481E+02 0.  0.
         11    1    3    3    0    0 -0.53783551937E+02  0.42788215690E+01 -0.39985826887E+01  0.54101455033E+02  0.51100000000E-03 0. -1.
         22    1    1    0    0    0  0.22397900209E+02  0.65801501573E+01 -0.19333472446E+02  0.30310847344E+02  0.00000000000E+00 0.  1.
</event>
<event>
 5    1  0.1111613E-009  0.9118800E+02  0.7818608E-02  0.1130116E+00
         25   -1    0    0    0    0  0.00000000000E+00  0.00000000000E+00  0.99999998245E-14  0.12500000000E+03  0.12500000000E+03 0.  0.
        -11    1    3    3    0    0  0.32982839595E+02  0.32157412303E+02  0.29147432084E+02  0.54511830561E+02  0.51100000000E-03 0. -1.
         23    2    1    0    0    0 -0.12413773803E+01  0.29366900526E+02  0.93113553514E+01  0.94167270592E+02  0.88976500538E+02 0.  0.
         11    1    3    3    0    0 -0.34224216976E+02 -0.27905117770E+01 -0.19836076733E+02  0.39655440030E+02  0.51100000000E-03 0.  1.
         22    1    1    0    0    0  0.12413773803E+01 -0.29366900526E+02 -0.93113553514E+01  0.30832729408E+02  0.00000000000E+00 0.  1.
</event>
<event>
 5    1  0.1111613E-009  0.9118800E+02  0.7818608E-02  0.1130116E+00
         25   -1    0    0    0    0  0.00000000000E+00  0.00000000000E+00  0.99999998245E-14  0.12500000000E+03  0.12500000000E+03 0.  0.
        -11    1    3    3    0    0  0.19848044067E+02 -0.99494235964E+00 -0.49217947492E+02  0.53078631474E+02  0.51100000000E-03 0.  1.
         23    2    1    0    0    0 -0.12889053929E+02 -0.10786701197E+02 -0.24655693470E+02  0.95160699499E+02  0.90361357199E+02 0.  0.
         11    1    3    3    0    0 -0.32737097997E+02 -0.97917588370E+01  0.24562254022E+02  0.42082068025E+02  0.51100000000E-03 0. -1.
         22    1    1    0    0    0  0.12889053929E+02  0.10786701197E+02  0.24655693470E+02  0.29839300501E+02  0.00000000000E+00 0.  1.
</event>
<event>
 5    1  0.1111613E-009  0.9118800E+02  0.7818608E-02  0.1130116E+00
         25   -1    0    0    0    0  0.00000000000E+00  0.00000000000E+00  0.99999998245E-14  0.12500000000E+03  0.12500000000E+03 0.  0.
        -11    1    3    3    0    0  0.36976647068E+02 -0.29275321455E+02  0.25126104930E+02  0.53438170103E+02  0.51100000000E-03 0.  1.
         23    2    1    0    0    0  0.15143583398E+02  0.65828520689E+01  0.24536861840E+02  0.95424340270E+02  0.90725327597E+02 0.  0.
         11    1    3    3    0    0 -0.21833063670E+02  0.35858173524E+02 -0.58924309004E+00  0.41986170168E+02  0.51100000000E-03 0. -1.
         22    1    1    0    0    0 -0.15143583398E+02 -0.65828520689E+01 -0.24536861840E+02  0.29575659730E+02  0.00000000000E+00 0.  1.
</event>
<event>
 5    1  0.1111613E-009  0.9118800E+02  0.7818608E-02  0.1130116E+00
         25   -1    0    0    0    0  0.00000000000E+00  0.00000000000E+00  0.99999998245E-14  0.12500000000E+03  0.12500000000E+03 0.  0.
        -11    1    3    3    0    0 -0.47927446634E+02  0.37447628688E+02  0.13304587831E+02  0.62260558083E+02  0.51100000000E-03 0. -1.
         23    2    1    0    0    0 -0.21722685172E+02  0.18281491551E+02  0.24073580815E+01  0.96506433053E+02  0.92204166192E+02 0.  0.
         11    1    3    3    0    0  0.26204761461E+02 -0.19166137137E+02 -0.10897229749E+02  0.34245874970E+02  0.51100000000E-03 0.  1.
         22    1    1    0    0    0  0.21722685172E+02 -0.18281491551E+02 -0.24073580815E+01  0.28493566947E+02  0.00000000000E+00 0. -1.
</event>
<event>
 5    1  0.1111613E-009  0.9118800E+02  0.7818608E-02  0.1130116E+00
         25   -1    0    0    0    0  0.00000000000E+00  0.00000000000E+00  0.99999998245E-14  0.12500000000E+03  0.12500000000E+03 0.  0.
        -11    1    3    3    0    0  0.27909191154E+01 -0.33316487066E+02 -0.48154459132E+02  0.58622772661E+02  0.51100000000E-03 0.  1.
         23    2    1    0    0    0  0.13102885744E+02 -0.18738493319E+02 -0.11476965616E+02  0.99416069762E+02  0.96067775245E+02 0.  0.
         11    1    3    3    0    0  0.10311966628E+02  0.14577993747E+02  0.36677493516E+02  0.40793297101E+02  0.51100000000E-03 0. -1.
         22    1    1    0    0    0 -0.13102885744E+02  0.18738493319E+02  0.11476965616E+02  0.25583930238E+02  0.00000000000E+00 0.  1.
</event>
<event>
 5    1  0.1111613E-009  0.9118800E+02  0.7818608E-02  0.1130116E+00
         25   -1    0    0    0    0  0.00000000000E+00  0.00000000000E+00  0.99999998245E-14  0.12500000000E+03  0.12500000000E+03 0.  0.
        -11    1    3    3    0    0  0.26465149341E+02  0.47091134895E+02  0.10089291416E+01  0.54027743369E+02  0.51100000000E-03 0.  1.
         23    2    1    0    0    0 -0.19167314256E+01  0.29296334324E+02 -0.15964225386E+02  0.91581359149E+02  0.85266287518E+02 0.  0.
         11    1    3    3    0    0 -0.28381880767E+02 -0.17794800570E+02 -0.16973154527E+02  0.37553615779E+02  0.51100000000E-03 0. -1.
         22    1    1    0    0    0  0.19167314256E+01 -0.29296334324E+02  0.15964225386E+02  0.33418640851E+02  0.00000000000E+00 0.  1.
</event>
<event>
 5    1  0.1111613E-009  0.9118800E+02  0.7818608E-02  0.1130116E+00
         25   -1    0    0    0    0  0.00000000000E+00  0.00000000000E+00  0.99999998245E-14  0.12500000000E+03  0.12500000000E+03 0.  0.
        -11    1    3    3    0    0 -0.28411687371E+02 -0.20414608263E+02  0.14436616271E+02  0.37847009121E+02  0.51100000000E-03 0.  1.
         23    2    1    0    0    0 -0.62687774115E+01  0.26283343161E+02 -0.11454871300E+02  0.95651647841E+02  0.91037969883E+02 0.  0.
         11    1    3    3    0    0  0.22142909960E+02  0.46697951424E+02 -0.25891487571E+02  0.57804638720E+02  0.51100000000E-03 0. -1.
         22    1    1    0    0    0  0.62687774115E+01 -0.26283343161E+02  0.11454871300E+02  0.29348352159E+02  0.00000000000E+00 0. -1.
</event>
<event>
 5    1  0.1111613E-009  0.9118800E+02  0.7818608E-02  0.1130116E+00
         25   -1    0    0    0    0  0.00000000000E+00  0.00000000000E+00  0.99999998245E-14  0.12500000000E+03  0.12500000000E+03 0.  0.
        -11    1    3    3    0    0  0.33793929521E+02  0.18370095748E+02 -0.28684680233E+02  0.47982298513E+02  0.51100000000E-03 0. -1.
         23    2    1    0    0    0  0.92885363229E+00 -0.16342641561E+02 -0.23911147196E+02  0.96022635342E+02  0.91545938389E+02 0.  0.
         11    1    3    3    0    0 -0.32865075889E+02 -0.34712737310E+02  0.47735330367E+01  0.48040336829E+02  0.51100000000E-03 0.  1.
         22    1    1    0    0    0 -0.92885363229E+00  0.16342641561E+02  0.23911147196E+02  0.28977364658E+02  0.00000000000E+00 0. -1.
</event>
<event>
 5    1  0.1111613E-009  0.9118800E+02  0.7818608E-02  0.1130116E+00
         25   -1    0    0    0    0  0.00000000000E+00  0.00000000000E+00  0.99999998245E-14  0.12500000000E+03  0.12500000000E+03 0.  0.
        -11    1    3    3    0    0 -0.48611339242E+02 -0.23149635691E+02  0.13763588604E+02  0.55573413671E+02  0.51100000000E-03 0.  1.
         23    2    1    0    0    0 -0.15783813327E+02 -0.29283423671E+02 -0.10305905912E+00  0.91733526094E+02  0.85489072538E+02 0.  0.
         11    1    3    3    0    0  0.32827525916E+02 -0.61337879793E+01 -0.13866647663E+02  0.36160112422E+02  0.51100000000E-03 0. -1.
         22    1    1    0    0    0  0.15783813327E+02  0.29283423671E+02  0.10305905912E+00  0.33266473906E+02  0.00000000000E+00 0.  1.
</event>
<event>
 5    1  0.1111613E-009  0.9118800E+02  0.7818608E-02  0.1130116E+00
         25   -1    0    0    0    0  0.00000000000E+00  0.00000000000E+00  0.99999998245E-14  0.12500000000E+03  0.12500000000E+03 0.  0.
        -11    1    3    3    0    0  0.19083708605E+02 -0.26715738167E+02 -0.90673049196E+01  0.34060748945E+02  0.51100000000E-03 0.  1.
         23    2    1    0    0    0  0.10012533713E+02  0.30633074480E+02 -0.61117230437E+01  0.92197725048E+02  0.86165139482E+02 0.  0.
         11    1    3    3    0    0 -0.90711748922E+01  0.57348812647E+02  0.29555818759E+01  0.58136976103E+02  0.51100000000E-03 0. -1.
         22    1    1    0    0    0 -0.10012533713E+02 -0.30633074480E+02  0.61117230437E+01  0.32802274952E+02  0.00000000000E+00 0. -1.
</event>
<event>
 5    1  0.1111613E-009  0.9118800E+02  0.7818608E-02  0.1130116E+00
         25   -1    0    0    0    0  0.00000000000E+00  0.00000000000E+00  0.99999998245E-14  0.12500000000E+03  0.12500000000E+03 0.  0.
        -11    1    3    3    0    0 -0.19064872645E+02  0.18765920805E+02 -0.34623446370E+02  0.43753996291E+02  0.51100000000E-03 0.  1.
         23    2    1    0    0    0 -0.66725265253E+01 -0.26106532458E+02 -0.12920330366E+02  0.95116750780E+02  0.90300540945E+02 0.  0.
         11    1    3    3    0    0  0.12392346119E+02 -0.44872453263E+02  0.21703116004E+02  0.51362754489E+02  0.51100000000E-03 0. -1.
         22    1    1    0    0    0  0.66725265253E+01  0.26106532458E+02  0.12920330366E+02  0.29883249220E+02  0.00000000000E+00 0.  1.
</event>
<event>
 5    1  0.1111613E-009  0.9118800E+02  0.7818608E-02  0.1130116E+00
         25   -1    0    0    0    0  0.00000000000E+00  0.00000000000E+00  0.99999998245E-14  0.12500000000E+03  0.12500000000E+03 0.  0.
        -11    1    3    3    0    0  0.22897794397E+02  0.31706789452E+02 -0.47342941136E+02  0.61408334624E+02  0.51100000000E-03 0.  1.
         23    2    1    0    0    0  0.84368866974E+01  0.23749450921E+02 -0.22622526241E+02  0.91132668104E+02  0.84605951482E+02 0.  0.
         11    1    3    3    0    0 -0.14460907700E+02 -0.79573385313E+01  0.24720414895E+02  0.29724333480E+02  0.51100000000E-03 0. -1.
         22    1    1    0    0    0 -0.84368866974E+01 -0.23749450921E+02  0.22622526241E+02  0.33867331896E+02  0.00000000000E+00 0.  1.
</event>
<event>
 5    1  0.1111613E-009  0.9118800E+02  0.7818608E-02  0.1130116E+00
         25   -1    0    0    0    0  0.00000000000E+00  0.00000000000E+00  0.99999998245E-14  0.12500000000E+03  0.12500000000E+03 0.  0.
        -11    1    3    3    0    0 -0.33726546102E+02 -0.49609214169E+00 -0.11998874343E+02  0.35800824084E+02  0.51100000000E-03 0.  1.
         23    2    1    0    0    0  0.24770377193E+02  0.57201435707E+01 -0.16327442659E+02  0.94786145354E+02  0.89841729383E+02 0.  0.
         11    1    3    3    0    0  0.58496923295E+02  0.62162357124E+01 -0.43285683164E+01  0.58985321270E+02  0.51100000000E-03 0. -1.
         22    1    1    0    0    0 -0.24770377193E+02 -0.57201435707E+01  0.16327442659E+02  0.30213854646E+02  0.00000000000E+00 0. -1.
</event>
<event>
 5    1  0.1111613E-009  0.9118800E+02  0.7818608E-02  0.1130116E+00
         25   -1    0    0    0    0  0.00000000000E+00  0.00000000000E+00  0.99999998245E-14  0.12500000000E+03  0.12500000000E+03 0.  0.
        -11    1    3    3    0    0  0.80607776136E+01 -0.23495359737E+02  0.21285671119E+02  0.32712197422E+02  0.51100000000E-03 0.  1.
         23    2    1    0    0    0 -0.53105519636E+01  0.23080794147E+02 -0.18127963422E+02  0.95174707404E+02  0.90380732742E+02 0.  0.
         11    1    3    3    0    0 -0.13371329577E+02  0.46576153884E+02 -0.39413634541E+02  0.62462509982E+02  0.51100000000E-03 0. -1.
         22    1    1    0    0    0  0.53105519636E+01 -0.23080794147E+02  0.18127963422E+02  0.29825292596E+02  0.00000000000E+00 0. -1.
</event>
<event>
 5    1  0.1111613E-009  0.9118800E+02  0.7818608E-02  0.1130116E+00
         25   -1    0    0    0    0  0.00000000000E+00  0.00000000000E+00  0.99999998245E-14  0.12500000000E+03  0.12500000000E+03 0.  0.
        -11    1    3    3    0    0 -0.30747945896E+02  0.48227305212E+02  0.36090512182E+01  0.57309112677E+02  0.51100000000E-03 0. -1.
         23    2    1    0    0    0 -0.28053434725E+02  0.10784808583E+02  0.16888178191E+01  0.94897518347E+02  0.89996553194E+02 0.  0.
         11    1    3    3    0    0  0.26945111713E+01 -0.37442496629E+02 -0.19202333991E+01  0.37588405670E+02  0.51100000000E-03 0.  1.
         22    1    1    0    0    0  0.28053434725E+02 -0.10784808583E+02 -0.16888178191E+01  0.30102481653E+02  0.00000000000E+00 0. -1.
</event>
<event>
 5    1  0.1111613E-009  0.9118800E+02  0.7818608E-02  0.1130116E+00
         25   -1    0    0    0    0  0.00000000000E+00  0.00000000000E+00  0.99999998245E-14  0.12500000000E+03  0.12500000000E+03 0.  0.
        -11    1    3    3    0    0  0.40668389602E+01 -0.16631443835E+02 -0.32003742453E+02  0.36295779843E+02  0.51100000000E-03 0. -1.
         23    2    1    0    0    0 -0.15863445750E+02  0.25191401202E+02  0.39901804069E+01  0.94963736163E+02  0.90088478957E+02 0.  0.
         11    1    3    3    0    0 -0.19930284710E+02  0.41822845037E+02  0.35993922860E+02  0.58667956320E+02  0.51100000000E-03 0.  1.
         22    1    1    0    0    0  0.15863445750E+02 -0.25191401202E+02 -0.39901804069E+01  0.30036263837E+02  0.00000000000E+00 0.  1.
</event>
<event>
 5    1  0.1111613E-009  0.9118800E+02  0.7818608E-02  0.1130116E+00
         25   -1    0    0    0    0  0.00000000000E+00  0.00000000000E+00  0.99999998245E-14  0.12500000000E+03  0.12500000000E+03 0.  0.
        -11    1    3    3    0    0 -0.63403947051E+01 -0.10052652613E+02 -0.57528836955E+02  0.58743710398E+02  0.51100000000E-03 0.  1.
         23    2    1    0    0    0 -0.17270920463E+02 -0.68997822434E+01 -0.21267898874E+02  0.96747297277E+02  0.92530126550E+02 0.  0.
         11    1    3    3    0    0 -0.10930525757E+02  0.31528703694E+01  0.36260938082E+02  0.38003586880E+02  0.51100000000E-03 0. -1.
         22    1    1    0    0    0  0.17270920463E+02  0.68997822434E+01  0.21267898874E+02  0.28252702723E+02  0.00000000000E+00 0.  1.
</event>
<event>
 5    1  0.1111613E-009  0.9118800E+02  0.7818608E-02  0.1130116E+00
         25   -1    0    0    0    0  0.00000000000E+00  0.00000000000E+00  0.99999998245E-14  0.12500000000E+03  0.12500000000E+03 0.  0.
        -11    1    3    3    0    0  0.12834033606E+02 -0.11280823184E+02  0.45686596796E+02  0.48777397608E+02  0.51100000000E-03 0. -1.
         23    2    1    0    0    0  0.18870673206E+00 -0.28172054456E+02  0.26565855603E+01  0.96702337387E+02  0.92469369776E+02 0.  0.
         11    1    3    3    0    0 -0.12645326874E+02 -0.16891231272E+02 -0.43030011236E+02  0.47924939779E+02  0.51100000000E-03 0.  1.
         22    1    1    0    0    0 -0.18870673206E+00  0.28172054456E+02 -0.26565855603E+01  0.28297662613E+02  0.00000000000E+00 0. -1.
</event>
<event>
 5    1  0.1111613E-009  0.9118800E+02  0.7818608E-02  0.1130116E+00
         25   -1    0    0    0    0  0.00000000000E+00  0.00000000000E+00  0.99999998245E-14  0.12500000000E+03  0.12500000000E+03 0.  0.
        -11    1    3    3    0    0 -0.21475126929E+02 -0.22050537086E+02 -0.21153752893E+02  0.37348206438E+02  0.51100000000E-03 0. -1.
         23    2    1    0    0    0 -0.31479306337E+01  0.29462617947E+02 -0.19246280520E+01  0.95307248078E+02  0.90563856033E+02 0.  0.
         11    1    3    3    0    0  0.18327196295E+02  0.51513155033E+02  0.19229124841E+02  0.57959041641E+02  0.51100000000E-03 0.  1.
         22    1    1    0    0    0  0.31479306337E+01 -0.29462617947E+02  0.19246280520E+01  0.29692751922E+02  0.00000000000E+00 0.  1.
</event>
<event>
 5    1  0.1111613E-009  0.9118800E+02  0.7818608E-02  0.1130116E+00
         25   -1    0    0    0    0  0.00000000000E+00  0.00000000000E+00  0.99999998245E-14  0.12500000000E+03  0.12500000000E+03 0.  0.
        -11    1    3    3    0    0 -0.12768170310E+02 -0.65926257958E+01  0.18481247618E+02  0.23410369535E+02  0.51100000000E-03 0.  1.
         23    2    1    0    0    0  0.32904001649E+02 -0.15518112449E+02 -0.19721245456E+02  0.83618691890E+02  0.72661358180E+02 0.  0.
         11    1    3    3    0    0  0.45672171960E+02 -0.89254866528E+01 -0.38202493075E+02  0.60208322356E+02  0.51100000000E-03 0. -1.
         22    1    1    0    0    0 -0.32904001649E+02  0.15518112449E+02  0.19721245456E+02  0.41381308110E+02  0.00000000000E+00 0. -1.
</event>
<event>
 5    1  0.1111613E-009  0.9118800E+02  0.7818608E-02  0.1130116E+00
         25   -1    0    0    0    0  0.00000000000E+00  0.00000000000E+00  0.99999998245E-14  0.12500000000E+03  0.12500000000E+03 0.  0.
        -11    1    3    3    0    0  0.24734252853E+02 -0.38775470304E+02 -0.22335519307E+02  0.51129206766E+02  0.51100000000E-03 0.  1.
         23    2    1    0    0    0  0.14056265843E+02 -0.21507346598E+02  0.16157620311E+02  0.94648504794E+02  0.89650020627E+02 0.  0.
         11    1    3    3    0    0 -0.10677987009E+02  0.17268123707E+02  0.38493139618E+02  0.43519298028E+02  0.51100000000E-03 0. -1.
         22    1    1    0    0    0 -0.14056265843E+02  0.21507346598E+02 -0.16157620311E+02  0.30351495206E+02  0.00000000000E+00 0.  1.
</event>
<event>
 5    1  0.1111613E-009  0.9118800E+02  0.7818608E-02  0.1130116E+00
         25   -1    0    0    0    0  0.00000000000E+00  0.00000000000E+00  0.99999998245E-14  0.12500000000E+03  0.12500000000E+03 0.  0.
        -11    1    3    3    0    0  0.78748485356E+01  0.21291260522E+02  0.31712574877E+02  0.39000236149E+02  0.51100000000E-03 0.  1.
         23    2    1    0    0    0  0.17302278314E+02  0.95901589919E+01 -0.22373629571E+02  0.95134982261E+02  0.90325774645E+02 0.  0.
         11    1    3    3    0    0  0.94274297785E+01 -0.11701101530E+02 -0.54086204448E+02  0.56134746113E+02  0.51100000000E-03 0. -1.
         22    1    1    0    0    0 -0.17302278314E+02 -0.95901589919E+01  0.22373629571E+02  0.29865017739E+02  0.00000000000E+00 0. -1.
</event>
<event>
 5    1  0.1111613E-009  0.9118800E+02  0.7818608E-02  0.1130116E+00
         25   -1    0    0    0    0  0.00000000000E+00  0.00000000000E+00  0.99999998245E-14  0.12500000000E+03  0.12500000000E+03 0.  0.
        -11    1    3    3    0    0  0.38479851634E+02 -0.24513757442E+01 -0.43871621727E+02  0.58407426052E+02  0.51100000000E-03 0. -1.
         23    2    1    0    0    0  0.26228883360E+02 -0.85323108896E+01 -0.88050600391E+01  0.96046870053E+02  0.91579023326E+02 0.  0.
         11    1    3    3    0    0 -0.12250968274E+02 -0.60809351455E+01  0.35066561688E+02  0.37639444002E+02  0.51100000000E-03 0.  1.
         22    1    1    0    0    0 -0.26228883360E+02  0.85323108896E+01  0.88050600391E+01  0.28953129947E+02  0.00000000000E+00 0. -1.
</event>
<event>
 5    1  0.1111613E-009  0.9118800E+02  0.7818608E-02  0.1130116E+00
         25   -1    0    0    0    0  0.00000000000E+00  0.00000000000E+00  0.99999998245E-14  0.12500000000E+03  0.12500000000E+03 0.  0.
        -11    1    3    3    0    0 -0.14322101300E+02 -0.14276034862E+02  0.23049090718E+02  0.30662490770E+02  0.51100000000E-03 0. -1.
         23    2    1    0    0    0  0.35498601375E+02 -0.19881101130E+02  0.47311601770E+01  0.84039131377E+02  0.73381079607E+02 0.  0.
         11    1    3    3    0    0  0.49820702675E+02 -0.56050662674E+01 -0.18317930541E+02  0.53376640607E+02  0.51100000000E-03 0.  1.
         22    1    1    0    0    0 -0.35498601375E+02  0.19881101130E+02 -0.47311601770E+01  0.40960868623E+02  0.00000000000E+00 0.  1.
</event>
<event>
 5    1  0.1111613E-009  0.9118800E+02  0.7818608E-02  0.1130116E+00
         25   -1    0    0    0    0  0.00000000000E+00  0.00000000000E+00  0.99999998245E-14  0.12500000000E+03  0.12500000000E+03 0.  0.
        -11    1    3    3    0    0  0.20500326432E+02  0.16712574826E+02  0.34671370297E+02  0.43608226973E+02  0.51100000000E-03 0. -1.
         23    2    1    0    0    0  0.17995795246E+02 -0.23543517163E+02  0.23890705618E+01  0.95270326186E+02  0.90512880556E+02 0.  0.
         11    1    3    3    0    0 -0.25045311865E+01 -0.40256091989E+02 -0.32282299735E+02  0.51662099214E+02  0.51100000000E-03 0.  1.
         22    1    1    0    0    0 -0.17995795246E+02  0.23543517163E+02 -0.23890705618E+01  0.29729673814E+02  0.00000000000E+00 0.  1.
</event>
<event>
 5    1  0.1111613E-009  0.9118800E+02  0.7818608E-02  0.1130116E+00
         25   -1    0    0    0    0  0.00000000000E+00  0.00000000000E+00  0.99999998245E-14  0.12500000000E+03  0.12500000000E+03 0.  0.
        -11    1    3    3    0    0  0.66771314500E+01 -0.11707792224E+02  0.54832218247E+02  0.56464401540E+02  0.51100000000E-03 0.  1.
         23    2    1    0    0    0 -0.16109955983E+02 -0.19582793571E+01  0.24092007404E+02  0.95951930175E+02  0.91449344140E+02 0.  0.
         11    1    3    3    0    0 -0.22787087433E+02  0.97495128665E+01 -0.30740210842E+02  0.39487528635E+02  0.51100000000E-03 0. -1.
         22    1    1    0    0    0  0.16109955983E+02  0.19582793571E+01 -0.24092007404E+02  0.29048069825E+02  0.00000000000E+00 0.  1.
</event>
<event>
 5    1  0.1111613E-009  0.9118800E+02  0.7818608E-02  0.1130116E+00
         25   -1    0    0    0    0  0.00000000000E+00  0.00000000000E+00  0.99999998245E-14  0.12500000000E+03  0.12500000000E+03 0.  0.
        -11    1    3    3    0    0 -0.55748880827E+02  0.15983595476E+02  0.74191236227E+01  0.58467567364E+02  0.51100000000E-03 0.  1.
         23    2    1    0    0    0 -0.26723878679E+02  0.27781773544E+01 -0.11751695350E+02  0.95674476908E+02  0.91069310017E+02 0.  0.
         11    1    3    3    0    0  0.29025002148E+02 -0.13205418122E+02 -0.19170818972E+02  0.37206909544E+02  0.51100000000E-03 0. -1.
         22    1    1    0    0    0  0.26723878679E+02 -0.27781773544E+01  0.11751695350E+02  0.29325523092E+02  0.00000000000E+00 0.  1.
</event>
<event>
 5    1  0.1111613E-009  0.9118800E+02  0.7818608E-02  0.1130116E+00
         25   -1    0    0    0    0  0.00000000000E+00  0.00000000000E+00  0.99999998245E-14  0.12500000000E+03  0.12500000000E+03 0.  0.
        -11    1    3    3    0    0 -0.41054510462E+02 -0.95120512289E+01  0.12063977956E+02  0.43834820773E+02  0.51100000000E-03 0.  1.
         23    2    1    0    0    0  0.26785877747E+01  0.12027510235E+02  0.27413905380E+02  0.94944084724E+02  0.90061207969E+02 0.  0.
         11    1    3    3    0    0  0.43733098236E+02  0.21539561464E+02  0.15349927424E+02  0.51109263951E+02  0.51100000000E-03 0. -1.
         22    1    1    0    0    0 -0.26785877747E+01 -0.12027510235E+02 -0.27413905380E+02  0.30055915276E+02  0.00000000000E+00 0. -1.
</event>
<event>
 5    1  0.1111613E-009  0.9118800E+02  0.7818608E-02  0.1130116E+00
         25   -1    0    0    0    0  0.00000000000E+00  0.00000000000E+00  0.99999998245E-14  0.12500000000E+03  0.12500000000E+03 0.  0.
        -11    1    3    3    0    0 -0.11020549546E+02  0.96084950995E+01  0.30133703074E+02  0.33493518053E+02  0.51100000000E-03 0.  1.
         23    2    1    0    0    0  0.15773598940E+02 -0.16066781060E+01 -0.24760044223E+02  0.95598509766E+02  0.90964979204E+02 0.  0.
         11    1    3    3    0    0  0.26794148487E+02 -0.11215173206E+02 -0.54893747297E+02  0.62104991713E+02  0.51100000000E-03 0. -1.
         22    1    1    0    0    0 -0.15773598940E+02  0.16066781060E+01  0.24760044223E+02  0.29401490234E+02  0.00000000000E+00 0. -1.
</event>
<event>
 5    1  0.1111613E-009  0.9118800E+02  0.7818608E-02  0.1130116E+00
         25   -1    0    0    0    0  0.00000000000E+00  0.00000000000E+00  0.99999998245E-14  0.12500000000E+03  0.12500000000E+03 0.  0.
        -11    1    3    3    0    0 -0.31150743723E+02  0.29030884546E+02 -0.68394344748E+01  0.43127009591E+02  0.51100000000E-03 0. -1.
         23    2    1    0    0    0  0.16451777743E+02  0.12636234316E+02 -0.21055378548E+02  0.95442185900E+02  0.90749911707E+02 0.  0.
         11    1    3    3    0    0  0.47602521466E+02 -0.16394650230E+02 -0.14215944073E+02  0.52315176309E+02  0.51100000000E-03 0.  1.
         22    1    1    0    0    0 -0.16451777743E+02 -0.12636234316E+02  0.21055378548E+02  0.29557814100E+02  0.00000000000E+00 0.  1.
</event>
<event>
 5    1  0.1111613E-009  0.9118800E+02  0.7818608E-02  0.1130116E+00
         25   -1    0    0    0    0  0.00000000000E+00  0.00000000000E+00  0.99999998245E-14  0.12500000000E+03  0.12500000000E+03 0.  0.
        -11    1    3    3    0    0  0.31406749032E+02  0.32494500575E+01  0.12395286078E+02  0.33920287847E+02  0.51100000000E-03 0.  1.
         23    2    1    0    0    0 -0.19036737401E+02  0.68485408577E+01 -0.22024392246E+02  0.95093918067E+02  0.90268928856E+02 0.  0.
         11    1    3    3    0    0 -0.50443486433E+02  0.35990908002E+01 -0.34419678325E+02  0.61173630220E+02  0.51100000000E-03 0. -1.
         22    1    1    0    0    0  0.19036737401E+02 -0.68485408577E+01  0.22024392246E+02  0.29906081933E+02  0.00000000000E+00 0. -1.
</event>
<event>
 5    1  0.1111613E-009  0.9118800E+02  0.7818608E-02  0.1130116E+00
         25   -1    0    0    0    0  0.00000000000E+00  0.00000000000E+00  0.99999998245E-14  0.12500000000E+03  0.12500000000E+03 0.  0.
        -11    1    3    3    0    0  0.20864030367E+02  0.23476148273E+02  0.14633667880E+02  0.34649408895E+02  0.51100000000E-03 0. -1.
         23    2    1    0    0    0 -0.24772204234E+02 -0.13297173476E+02 -0.49684043962E+01  0.96448958560E+02  0.92126215813E+02 0.  0.
         11    1    3    3    0    0 -0.45636234601E+02 -0.36773321749E+02 -0.19602072276E+02  0.61799549665E+02  0.51100000000E-03 0.  1.
         22    1    1    0    0    0  0.24772204234E+02  0.13297173476E+02  0.49684043962E+01  0.28551041440E+02  0.00000000000E+00 0.  1.
</event>
<event>
 5    1  0.1111613E-009  0.9118800E+02  0.7818608E-02  0.1130116E+00
         25   -1    0    0    0    0  0.00000000000E+00  0.00000000000E+00  0.99999998245E-14  0.12500000000E+03  0.12500000000E+03 0.  0.
        -11    1    3    3    0    0  0.46481394784E+02 -0.16733155826E+02  0.38053440671E+02  0.62358503127E+02  0.51100000000E-03 0. -1.
         23    2    1    0    0    0  0.23368468854E+02 -0.52756478752E+01  0.17887076170E+02  0.95102419981E+02  0.90280701122E+02 0.  0.
         11    1    3    3    0    0 -0.23112925930E+02  0.11457507951E+02 -0.20166364501E+02  0.32743916854E+02  0.51100000000E-03 0.  1.
         22    1    1    0    0    0 -0.23368468854E+02  0.52756478752E+01 -0.17887076170E+02  0.29897580019E+02  0.00000000000E+00 0. -1.
</event>
<event>
 5    1  0.1111613E-009  0.9118800E+02  0.7818608E-02  0.1130116E+00
         25   -1    0    0    0    0  0.00000000000E+00  0.00000000000E+00  0.99999998245E-14  0.12500000000E+03  0.12500000000E+03 0.  0.
        -11    1    3    3    0    0 -0.16456985671E+01 -0.50713436734E+02 -0.36426790792E+02  0.62461764919E+02  0.51100000000E-03 0.  1.
         23    2    1    0    0    0  0.77318513183E+00 -0.23731834730E+02 -0.17020061392E+02  0.95785615107E+02  0.91221728643E+02 0.  0.
         11    1    3    3    0    0  0.24188836990E+01  0.26981602004E+02  0.19406729400E+02  0.33323850187E+02  0.51100000000E-03 0. -1.
         22    1    1    0    0    0 -0.77318513183E+00  0.23731834730E+02  0.17020061392E+02  0.29214384893E+02  0.00000000000E+00 0.  1.
</event>
<event>
 5    1  0.1111613E-009  0.9118800E+02  0.7818608E-02  0.1130116E+00
         25   -1    0    0    0    0  0.00000000000E+00  0.00000000000E+00  0.99999998245E-14  0.12500000000E+03  0.12500000000E+03 0.  0.
        -11    1    3    3    0    0 -0.90361377094E+01  0.26153997642E+02  0.32712055573E+02  0.42845792762E+02  0.51100000000E-03 0. -1.
         23    2    1    0    0    0 -0.29894581485E+02 -0.46686374657E+00 -0.62679148125E+01  0.94451829515E+02  0.89375373446E+02 0.  0.
         11    1    3    3    0    0 -0.20858443775E+02 -0.26620861389E+02 -0.38979970385E+02  0.51606036752E+02  0.51100000000E-03 0.  1.
         22    1    1    0    0    0  0.29894581485E+02  0.46686374657E+00  0.62679148125E+01  0.30548170485E+02  0.00000000000E+00 0.  1.
</event>
<event>
 5    1  0.1111613E-009  0.9118800E+02  0.7818608E-02  0.1130116E+00
         25   -1    0    0    0    0  0.00000000000E+00  0.00000000000E+00  0.99999998245E-14  0.12500000000E+03  0.12500000000E+03 0.  0.
        -11    1    3    3    0    0  0.32172025651E+02  0.32571949749E+02 -0.10320898197E+02  0.46930715792E+02  0.51100000000E-03 0. -1.
         23    2    1    0    0    0  0.25339955299E+02 -0.12006590404E+02  0.83511735081E+01  0.95742289108E+02  0.91162340234E+02 0.  0.
         11    1    3    3    0    0 -0.68320703521E+01 -0.44578540154E+02  0.18672071705E+02  0.48811573316E+02  0.51100000000E-03 0.  1.
         22    1    1    0    0    0 -0.25339955299E+02  0.12006590404E+02 -0.83511735081E+01  0.29257710892E+02  0.00000000000E+00 0.  1.
</event>
<event>
 5    1  0.1111613E-009  0.9118800E+02  0.7818608E-02  0.1130116E+00
         25   -1    0    0    0    0  0.00000000000E+00  0.00000000000E+00  0.99999998245E-14  0.12500000000E+03  0.12500000000E+03 0.  0.
        -11    1    3    3    0    0  0.24769067579E+02  0.15665895725E+02  0.33868491356E+02  0.44788410383E+02  0.51100000000E-03 0. -1.
         23    2    1    0    0    0  0.25422576344E+02  0.24616950302E+02 -0.89177288881E+01  0.88505787875E+02  0.80631550702E+02 0.  0.
         11    1    3    3    0    0  0.65350876468E+00  0.89510545772E+01 -0.42786220244E+02  0.43717377492E+02  0.51100000000E-03 0.  1.
         22    1    1    0    0    0 -0.25422576344E+02 -0.24616950302E+02  0.89177288881E+01  0.36494212125E+02  0.00000000000E+00 0. -1.
</event>
<event>
 5    1  0.1111613E-009  0.9118800E+02  0.7818608E-02  0.1130116E+00
         25   -1    0    0    0    0  0.00000000000E+00  0.00000000000E+00  0.99999998245E-14  0.12500000000E+03  0.12500000000E+03 0.  0.
        -11    1    3    3    0    0 -0.27460870581E+02  0.24599791308E+01  0.37806800779E+02  0.46792147800E+02  0.51100000000E-03 0. -1.
         23    2    1    0    0    0  0.19374392509E+02  0.29163495646E+01  0.20280134804E+02  0.96801488558E+02  0.92603305230E+02 0.  0.
         11    1    3    3    0    0  0.46835263089E+02  0.45637043378E+00 -0.17526665975E+02  0.50009340758E+02  0.51100000000E-03 0.  1.
         22    1    1    0    0    0 -0.19374392509E+02 -0.29163495646E+01 -0.20280134804E+02  0.28198511442E+02  0.00000000000E+00 0.  1.
</event>
<event>
 5    1  0.1111613E-009  0.9118800E+02  0.7818608E-02  0.1130116E+00
         25   -1    0    0    0    0  0.00000000000E+00  0.00000000000E+00  0.99999998245E-14  0.12500000000E+03  0.12500000000E+03 0.  0.
        -11    1    3    3    0    0 -0.11803787991E+02  0.52557612282E+02 -0.26463779671E+02  0.60016361557E+02  0.51100000000E-03 0.  1.
         23    2    1    0    0    0  0.50945614097E+01  0.29404882707E+02 -0.80307073032E+01  0.94095405798E+02  0.88875482837E+02 0.  0.
         11    1    3    3    0    0  0.16898349401E+02 -0.23152729575E+02  0.18433072368E+02  0.34079044242E+02  0.51100000000E-03 0. -1.
         22    1    1    0    0    0 -0.50945614097E+01 -0.29404882707E+02  0.80307073032E+01  0.30904594202E+02  0.00000000000E+00 0.  1.
</event>
<event>
 5    1  0.1111613E-009  0.9118800E+02  0.7818608E-02  0.1130116E+00
         25   -1    0    0    0    0  0.00000000000E+00  0.00000000000E+00  0.99999998245E-14  0.12500000000E+03  0.12500000000E+03 0.  0.
        -11    1    3    3    0    0  0.13516244848E+02 -0.33354564308E+02  0.24519600372E+02  0.43547980867E+02  0.51100000000E-03 0. -1.
         23    2    1    0    0    0  0.28153063709E+02  0.14940895982E+01 -0.10344436687E+02  0.94969437729E+02  0.90096389674E+02 0.  0.
         11    1    3    3    0    0  0.14636818861E+02  0.34848653906E+02 -0.34864037060E+02  0.51421456862E+02  0.51100000000E-03 0.  1.
         22    1    1    0    0    0 -0.28153063709E+02 -0.14940895982E+01  0.10344436687E+02  0.30030562271E+02  0.00000000000E+00 0.  1.
</event>
<event>
 5    1  0.1111613E-009  0.9118800E+02  0.7818608E-02  0.1130116E+00
         25   -1    0    0    0    0  0.00000000000E+00  0.00000000000E+00  0.99999998245E-14  0.12500000000E+03  0.12500000000E+03 0.  0.
        -11    1    3    3    0    0  0.12206167022E+02 -0.17997343585E+02 -0.25161587812E+02  0.33256584175E+02  0.51100000000E-03 0.  1.
         23    2    1    0    0    0 -0.65002802601E+01 -0.12466825962E+01  0.30219416719E+02  0.94064243862E+02  0.88831643943E+02 0.  0.
         11    1    3    3    0    0 -0.18706447282E+02  0.16750660989E+02  0.55381004531E+02  0.60807659687E+02  0.51100000000E-03 0. -1.
         22    1    1    0    0    0  0.65002802601E+01  0.12466825962E+01 -0.30219416719E+02  0.30935756138E+02  0.00000000000E+00 0. -1.
</event>
<event>
 5    1  0.1111613E-009  0.9118800E+02  0.7818608E-02  0.1130116E+00
         25   -1    0    0    0    0  0.00000000000E+00  0.00000000000E+00  0.99999998245E-14  0.12500000000E+03  0.12500000000E+03 0.  0.
        -11    1    3    3    0    0  0.39876114333E+01 -0.23827853177E+02 -0.43941906782E+02  0.50145376695E+02  0.51100000000E-03 0. -1.
         23    2    1    0    0    0  0.86985897295E+01  0.16160422628E+02 -0.23138040301E+02  0.95467075462E+02  0.90784188411E+02 0.  0.
         11    1    3    3    0    0  0.47109782963E+01  0.39988275805E+02  0.20803866480E+02  0.45321698767E+02  0.51100000000E-03 0.  1.
         22    1    1    0    0    0 -0.86985897295E+01 -0.16160422628E+02  0.23138040301E+02  0.29532924538E+02  0.00000000000E+00 0. -1.
</event>
<event>
 5    1  0.1111613E-009  0.9118800E+02  0.7818608E-02  0.1130116E+00
         25   -1    0    0    0    0  0.00000000000E+00  0.00000000000E+00  0.99999998245E-14  0.12500000000E+03  0.12500000000E+03 0.  0.
        -11    1    3    3    0    0 -0.48601393512E+02  0.33117862124E+02 -0.16249826812E+02  0.61015941480E+02  0.51100000000E-03 0.  1.
         23    2    1    0    0    0 -0.20497678404E+02  0.10055227080E+02 -0.15547144002E+02  0.97377978021E+02  0.93378233573E+02 0.  0.
         11    1    3    3    0    0  0.28103715108E+02 -0.23062635044E+02  0.70268280959E+00  0.36362036541E+02  0.51100000000E-03 0. -1.
         22    1    1    0    0    0  0.20497678404E+02 -0.10055227080E+02  0.15547144002E+02  0.27622021979E+02  0.00000000000E+00 0.  1.
</event>
<event>
 5    1  0.1111613E-009  0.9118800E+02  0.7818608E-02  0.1130116E+00
         25   -1    0    0    0    0  0.00000000000E+00  0.00000000000E+00  0.99999998245E-14  0.12500000000E+03  0.12500000000E+03 0.  0.
        -11    1    3    3    0    0  0.18096181459E+02  0.20477388086E+02  0.27493311097E+02  0.38764382641E+02  0.51100000000E-03 0.  1.
         23    2    1    0    0    0 -0.29236827899E+02  0.80133191508E+01  0.45719185480E+00  0.94681450994E+02  0.89695946110E+02 0.  0.
         11    1    3    3    0    0 -0.47333009358E+02 -0.12464068935E+02 -0.27036119242E+02  0.55917068353E+02  0.51100000000E-03 0. -1.
         22    1    1    0    0    0  0.29236827899E+02 -0.80133191508E+01 -0.45719185480E+00  0.30318549006E+02  0.00000000000E+00 0. -1.
</event>
<event>
 5    1  0.1111613E-009  0.9118800E+02  0.7818608E-02  0.1130116E+00
         25   -1    0    0    0    0  0.00000000000E+00  0.00000000000E+00  0.99999998245E-14  0.12500000000E+03  0.12500000000E+03 0.  0.
        -11    1    3    3    0    0 -0.21058311571E+02 -0.63496238358E+01 -0.16734984165E+02  0.27637472828E+02  0.51100000000E-03 0. -1.
         23    2    1    0    0    0  0.16367761288E+02  0.84648985430E+01  0.30295192531E+02  0.89540772605E+02  0.82220393768E+02 0.  0.
         11    1    3    3    0    0  0.37426072859E+02  0.14814522379E+02  0.47030176696E+02  0.61903299777E+02  0.51100000000E-03 0.  1.
         22    1    1    0    0    0 -0.16367761288E+02 -0.84648985430E+01 -0.30295192531E+02  0.35459227395E+02  0.00000000000E+00 0.  1.
</event>
<event>
 5    1  0.1111613E-009  0.9118800E+02  0.7818608E-02  0.1130116E+00
         25   -1    0    0    0    0  0.00000000000E+00  0.00000000000E+00  0.99999998245E-14  0.12500000000E+03  0.12500000000E+03 0.  0.
        -11    1    3    3    0    0  0.50442727645E+02 -0.53118326054E+01 -0.35288583706E+01  0.50844244311E+02  0.51100000000E-03 0.  1.
         23    2    1    0    0    0  0.15814819255E+02  0.23102518021E+02  0.53159408215E+01  0.96502735679E+02  0.92199153574E+02 0.  0.
         11    1    3    3    0    0 -0.34627908390E+02  0.28414350626E+02  0.88447991922E+01  0.45658491368E+02  0.51100000000E-03 0. -1.
         22    1    1    0    0    0 -0.15814819255E+02 -0.23102518021E+02 -0.53159408215E+01  0.28497264321E+02  0.00000000000E+00 0. -1.
</event>
<event>
 5    1  0.1111613E-009  0.9118800E+02  0.7818608E-02  0.1130116E+00
         25   -1    0    0    0    0  0.00000000000E+00  0.00000000000E+00  0.99999998245E-14  0.12500000000E+03  0.12500000000E+03 0.  0.
        -11    1    3    3    0    0  0.37673885416E+01 -0.24461479574E+02  0.27396599103E+02  0.36920601865E+02  0.51100000000E-03 0. -1.
         23    2    1    0    0    0  0.34140873235E+01 -0.36986435076E+01 -0.28244531691E+02  0.96310463118E+02  0.91938108418E+02 0.  0.
         11    1    3    3    0    0 -0.35330121811E+00  0.20762836067E+02 -0.55641130795E+02  0.59389861253E+02  0.51100000000E-03 0.  1.
         22    1    1    0    0    0 -0.34140873235E+01  0.36986435076E+01  0.28244531691E+02  0.28689536882E+02  0.00000000000E+00 0.  1.
</event>
<event>
 5    1  0.1111613E-009  0.9118800E+02  0.7818608E-02  0.1130116E+00
         25   -1    0    0    0    0  0.00000000000E+00  0.00000000000E+00  0.99999998245E-14  0.12500000000E+03  0.12500000000E+03 0.  0.
        -11    1    3    3    0    0  0.93888047687E+01 -0.28265440316E+02 -0.12664291623E+02  0.32364626582E+02  0.51100000000E-03 0. -1.
         23    2    1    0    0    0 -0.32517859382E+02 -0.36284512175E+02 -0.25737158208E+01  0.76208596908E+02  0.58541858760E+02 0.  0.
         11    1    3    3    0    0 -0.41906664150E+02 -0.80190718591E+01  0.10090575802E+02  0.43843970326E+02  0.51100000000E-03 0.  1.
         22    1    1    0    0    0  0.32517859382E+02  0.36284512175E+02  0.25737158208E+01  0.48791403092E+02  0.00000000000E+00 0.  1.
</event>
<event>
 5    1  0.1111613E-009  0.9118800E+02  0.7818608E-02  0.1130116E+00
         25   -1    0    0    0    0  0.00000000000E+00  0.00000000000E+00  0.99999998245E-14  0.12500000000E+03  0.12500000000E+03 0.  0.
        -11    1    3    3    0    0 -0.51315330386E+01 -0.46684118856E+02  0.17262413134E+02  0.50037291015E+02  0.51100000000E-03 0. -1.
         23    2    1    0    0    0  0.24276721079E+02 -0.11838419467E+02  0.99469764881E+01  0.96217197790E+02  0.91811216349E+02 0.  0.
         11    1    3    3    0    0  0.29408254117E+02  0.34845699389E+02 -0.73154366461E+01  0.46179906775E+02  0.51100000000E-03 0.  1.
         22    1    1    0    0    0 -0.24276721079E+02  0.11838419467E+02 -0.99469764881E+01  0.28782802210E+02  0.00000000000E+00 0.  1.
</event>
<event>
 5    1  0.1111613E-009  0.9118800E+02  0.7818608E-02  0.1130116E+00
         25   -1    0    0    0    0  0.00000000000E+00  0.00000000000E+00  0.99999998245E-14  0.12500000000E+03  0.12500000000E+03 0.  0.
        -11    1    3    3    0    0 -0.94547636578E+01  0.33094625485E+02  0.51765048106E+02  0.62163228660E+02  0.51100000000E-03 0.  1.
         23    2    1    0    0    0 -0.35695408126E+01  0.18974191619E+02  0.21309815608E+02  0.96244655967E+02  0.91848592759E+02 0.  0.
         11    1    3    3    0    0  0.58852228452E+01 -0.14120433866E+02 -0.30455232498E+02  0.34081427307E+02  0.51100000000E-03 0. -1.
         22    1    1    0    0    0  0.35695408126E+01 -0.18974191619E+02 -0.21309815608E+02  0.28755344033E+02  0.00000000000E+00 0.  1.
</event>
<event>
 5    1  0.1111613E-009  0.9118800E+02  0.7818608E-02  0.1130116E+00
         25   -1    0    0    0    0  0.00000000000E+00  0.00000000000E+00  0.99999998245E-14  0.12500000000E+03  0.12500000000E+03 0.  0.
        -11    1    3    3    0    0  0.17693829661E+02  0.28248787155E+02  0.28585848203E+02  0.43911459798E+02  0.51100000000E-03 0.  1.
         23    2    1    0    0    0  0.26210133150E+02 -0.77728583607E+01 -0.85618352058E+01  0.96352252638E+02  0.91994908334E+02 0.  0.
         11    1    3    3    0    0  0.85163034895E+01 -0.36021645516E+02 -0.37147683409E+02  0.52440792840E+02  0.51100000000E-03 0. -1.
         22    1    1    0    0    0 -0.26210133150E+02  0.77728583607E+01  0.85618352058E+01  0.28647747362E+02  0.00000000000E+00 0. -1.
</event>
<event>
 5    1  0.1111613E-009  0.9118800E+02  0.7818608E-02  0.1130116E+00
         25   -1    0    0    0    0  0.00000000000E+00  0.00000000000E+00  0.99999998245E-14  0.12500000000E+03  0.12500000000E+03 0.  0.
        -11    1    3    3    0    0 -0.17341214864E+02  0.23942548607E+02  0.51028184407E+02  0.58973205533E+02  0.51100000000E-03 0. -1.
         23    2    1    0    0    0 -0.17783729600E+02 -0.13670081188E+00  0.22977579309E+02  0.95944038882E+02  0.91438557078E+02 0.  0.
         11    1    3    3    0    0 -0.44251473611E+00 -0.24079249419E+02 -0.28050605098E+02  0.36970833349E+02  0.51100000000E-03 0.  1.
         22    1    1    0    0    0  0.17783729600E+02  0.13670081188E+00 -0.22977579309E+02  0.29055961118E+02  0.00000000000E+00 0. -1.
</event>
<event>
 5    1  0.1111613E-009  0.9118800E+02  0.7818608E-02  0.1130116E+00
         25   -1    0    0    0    0  0.00000000000E+00  0.00000000000E+00  0.99999998245E-14  0.12500000000E+03  0.12500000000E+03 0.  0.
        -11    1    3    3    0    0 -0.17821995165E+01  0.39311770630E+02 -0.21156142069E+02  0.44678561891E+02  0.51100000000E-03 0.  1.
         23    2    1    0    0    0 -0.30138436957E+02  0.22835143858E+01 -0.13317052210E+02  0.91971471427E+02  0.85836285198E+02 0.  0.
         11    1    3    3    0    0 -0.28356237441E+02 -0.37028256244E+02  0.78390898593E+01  0.47292909536E+02  0.51100000000E-03 0. -1.
         22    1    1    0    0    0  0.30138436957E+02 -0.22835143858E+01  0.13317052210E+02  0.33028528573E+02  0.00000000000E+00 0. -1.
</event>
<event>
 5    1  0.1111613E-009  0.9118800E+02  0.7818608E-02  0.1130116E+00
         25   -1    0    0    0    0  0.00000000000E+00  0.00000000000E+00  0.99999998245E-14  0.12500000000E+03  0.12500000000E+03 0.  0.
        -11    1    3    3    0    0  0.62813874639E+01 -0.42753191567E+02  0.11965709991E+01  0.43228728874E+02  0.51100000000E-03 0.  1.
         23    2    1    0    0    0 -0.11203714935E+02  0.52771999661E+00  0.26427664190E+02  0.96290713152E+02  0.91911252239E+02 0.  0.
         11    1    3    3    0    0 -0.17485102399E+02  0.43280911564E+02  0.25231093191E+02  0.53061984278E+02  0.51100000000E-03 0. -1.
         22    1    1    0    0    0  0.11203714935E+02 -0.52771999661E+00 -0.26427664190E+02  0.28709286848E+02  0.00000000000E+00 0. -1.
</event>
<event>
 5    1  0.1111613E-009  0.9118800E+02  0.7818608E-02  0.1130116E+00
         25   -1    0    0    0    0  0.00000000000E+00  0.00000000000E+00  0.99999998245E-14  0.12500000000E+03  0.12500000000E+03 0.  0.
        -11    1    3    3    0    0 -0.14330599289E+02  0.18538532299E+01 -0.52660162705E+02  0.54606735703E+02  0.51100000000E-03 0. -1.
         23    2    1    0    0    0  0.13430863761E+02  0.10785728703E+02 -0.23653106684E+02  0.95739284000E+02  0.91158219597E+02 0.  0.
         11    1    3    3    0    0  0.27761463050E+02  0.89318754734E+01  0.29007056021E+02  0.41132548297E+02  0.51100000000E-03 0.  1.
         22    1    1    0    0    0 -0.13430863761E+02 -0.10785728703E+02  0.23653106684E+02  0.29260716000E+02  0.00000000000E+00 0.  1.
</event>
<event>
 5    1  0.1111613E-009  0.9118800E+02  0.7818608E-02  0.1130116E+00
         25   -1    0    0    0    0  0.00000000000E+00  0.00000000000E+00  0.99999998245E-14  0.12500000000E+03  0.12500000000E+03 0.  0.
        -11    1    3    3    0    0  0.56067307578E+01  0.18140918969E+02  0.29341841779E+02  0.34949564376E+02  0.51100000000E-03 0.  1.
         23    2    1    0    0    0  0.97844707990E+00 -0.25538451364E+02 -0.13318769755E+02  0.96180571058E+02  0.91761335891E+02 0.  0.
         11    1    3    3    0    0 -0.46282836779E+01 -0.43679370334E+02 -0.42660611534E+02  0.61231006682E+02  0.51100000000E-03 0. -1.
         22    1    1    0    0    0 -0.97844707990E+00  0.25538451364E+02  0.13318769755E+02  0.28819428942E+02  0.00000000000E+00 0. -1.
</event>
<event>
 5    1  0.1111613E-009  0.9118800E+02  0.7818608E-02  0.1130116E+00
         25   -1    0    0    0    0  0.00000000000E+00  0.00000000000E+00  0.99999998245E-14  0.12500000000E+03  0.12500000000E+03 0.  0.
        -11    1    3    3    0    0 -0.16179919412E+02 -0.22145033300E+02 -0.27364563163E+02  0.38742891082E+02  0.51100000000E-03 0. -1.
         23    2    1    0    0    0 -0.13112490466E+01  0.28626350164E+02 -0.64774364194E+01  0.95620679375E+02  0.90995438588E+02 0.  0.
         11    1    3    3    0    0  0.14868670365E+02  0.50771383465E+02  0.20887126743E+02  0.56877788294E+02  0.51100000000E-03 0.  1.
         22    1    1    0    0    0  0.13112490466E+01 -0.28626350164E+02  0.64774364194E+01  0.29379320625E+02  0.00000000000E+00 0.  1.
</event>
<event>
 5    1  0.1111613E-009  0.9118800E+02  0.7818608E-02  0.1130116E+00
         25   -1    0    0    0    0  0.00000000000E+00  0.00000000000E+00  0.99999998245E-14  0.12500000000E+03  0.12500000000E+03 0.  0.
        -11    1    3    3    0    0 -0.62757046738E+01 -0.29737149220E+02 -0.34000995805E+02  0.45604278625E+02  0.51100000000E-03 0.  1.
         23    2    1    0    0    0  0.26543897969E+02 -0.20819174514E+02 -0.38648544563E+01  0.91044828865E+02  0.84476074815E+02 0.  0.
         11    1    3    3    0    0  0.32819602643E+02  0.89179747058E+01  0.30136141348E+02  0.45440550240E+02  0.51100000000E-03 0. -1.
         22    1    1    0    0    0 -0.26543897969E+02  0.20819174514E+02  0.38648544563E+01  0.33955171135E+02  0.00000000000E+00 0.  1.
</event>
<event>
 5    1  0.1111613E-009  0.9118800E+02  0.7818608E-02  0.1130116E+00
         25   -1    0    0    0    0  0.00000000000E+00  0.00000000000E+00  0.99999998245E-14  0.12500000000E+03  0.12500000000E+03 0.  0.
        -11    1    3    3    0    0 -0.27442999940E+02 -0.28475703102E+02  0.48000517699E+01  0.39837474946E+02  0.51100000000E-03 0. -1.
         23    2    1    0    0    0 -0.12175122374E+02  0.24955802387E+02  0.96133288644E+01  0.95615620315E+02  0.90988488716E+02 0.  0.
         11    1    3    3    0    0  0.15267877566E+02  0.53431505489E+02  0.48132770945E+01  0.55778145369E+02  0.51100000000E-03 0.  1.
         22    1    1    0    0    0  0.12175122374E+02 -0.24955802387E+02 -0.96133288644E+01  0.29384379685E+02  0.00000000000E+00 0.  1.
</event>
<event>
 5    1  0.1111613E-009  0.9118800E+02  0.7818608E-02  0.1130116E+00
         25   -1    0    0    0    0  0.00000000000E+00  0.00000000000E+00  0.99999998245E-14  0.12500000000E+03  0.12500000000E+03 0.  0.
        -11    1    3    3    0    0  0.37686059379E+02 -0.40610905606E+02  0.18158907000E+02  0.58302921276E+02  0.51100000000E-03 0. -1.
         23    2    1    0    0    0  0.54526082835E+01 -0.19717947751E+02  0.19498103633E+02  0.96738640410E+02  0.92518431150E+02 0.  0.
         11    1    3    3    0    0 -0.32233451096E+02  0.20892957855E+02  0.13391966329E+01  0.38435719134E+02  0.51100000000E-03 0.  1.
         22    1    1    0    0    0 -0.54526082835E+01  0.19717947751E+02 -0.19498103633E+02  0.28261359590E+02  0.00000000000E+00 0. -1.
</event>
<event>
 5    1  0.1111613E-009  0.9118800E+02  0.7818608E-02  0.1130116E+00
         25   -1    0    0    0    0  0.00000000000E+00  0.00000000000E+00  0.99999998245E-14  0.12500000000E+03  0.12500000000E+03 0.  0.
        -11    1    3    3    0    0 -0.31917590890E+02 -0.43004565979E+02 -0.28388444532E+02  0.60613769776E+02  0.51100000000E-03 0.  1.
         23    2    1    0    0    0 -0.24267918561E+02 -0.14980084078E+02 -0.16878240023E+02  0.91860751720E+02  0.85674896732E+02 0.  0.
         11    1    3    3    0    0  0.76496723287E+01  0.28024481901E+02  0.11510204508E+02  0.31246981944E+02  0.51100000000E-03 0. -1.
         22    1    1    0    0    0  0.24267918561E+02  0.14980084078E+02  0.16878240023E+02  0.33139248280E+02  0.00000000000E+00 0.  1.
</event>
<event>
 5    1  0.1111613E-009  0.9118800E+02  0.7818608E-02  0.1130116E+00
         25   -1    0    0    0    0  0.00000000000E+00  0.00000000000E+00  0.99999998245E-14  0.12500000000E+03  0.12500000000E+03 0.  0.
        -11    1    3    3    0    0 -0.39132389636E+02 -0.55616104355E+01 -0.40512106112E+02  0.56599524478E+02  0.51100000000E-03 0. -1.
         23    2    1    0    0    0 -0.23788691755E+02  0.12824845863E+02 -0.83186893330E+01  0.96723169926E+02  0.92497526894E+02 0.  0.
         11    1    3    3    0    0  0.15343697881E+02  0.18386456298E+02  0.32193416779E+02  0.40123645448E+02  0.51100000000E-03 0.  1.
         22    1    1    0    0    0  0.23788691755E+02 -0.12824845863E+02  0.83186893330E+01  0.28276830074E+02  0.00000000000E+00 0. -1.
</event>
<event>
 5    1  0.1111613E-009  0.9118800E+02  0.7818608E-02  0.1130116E+00
         25   -1    0    0    0    0  0.00000000000E+00  0.00000000000E+00  0.99999998245E-14  0.12500000000E+03  0.12500000000E+03 0.  0.
        -11    1    3    3    0    0 -0.28540358763E+02 -0.26493561593E+02  0.28988296144E+02  0.48546701204E+02  0.51100000000E-03 0.  1.
         23    2    1    0    0    0 -0.60020537331E+00 -0.26052203051E+02 -0.10485707909E+02  0.96910364889E+02  0.92750154837E+02 0.  0.
         11    1    3    3    0    0  0.27940153390E+02  0.44135854269E+00 -0.39474004053E+02  0.48363663685E+02  0.51100000000E-03 0. -1.
         22    1    1    0    0    0  0.60020537331E+00  0.26052203051E+02  0.10485707909E+02  0.28089635111E+02  0.00000000000E+00 0. -1.
</event>
<event>
 5    1  0.1111613E-009  0.9118800E+02  0.7818608E-02  0.1130116E+00
         25   -1    0    0    0    0  0.00000000000E+00  0.00000000000E+00  0.99999998245E-14  0.12500000000E+03  0.12500000000E+03 0.  0.
        -11    1    3    3    0    0  0.38545274361E+02  0.19732048081E+02  0.82295437250E+01  0.44077401094E+02  0.51100000000E-03 0.  1.
         23    2    1    0    0    0 -0.13555121878E+02  0.19624817068E+02  0.15311693504E+02  0.96657051458E+02  0.92408132026E+02 0.  0.
         11    1    3    3    0    0 -0.52100396238E+02 -0.10723101293E+00  0.70821497793E+01  0.52579650364E+02  0.51100000000E-03 0. -1.
         22    1    1    0    0    0  0.13555121878E+02 -0.19624817068E+02 -0.15311693504E+02  0.28342948542E+02  0.00000000000E+00 0. -1.
</event>
<event>
 5    1  0.1111613E-009  0.9118800E+02  0.7818608E-02  0.1130116E+00
         25   -1    0    0    0    0  0.00000000000E+00  0.00000000000E+00  0.99999998245E-14  0.12500000000E+03  0.12500000000E+03 0.  0.
        -11    1    3    3    0    0 -0.64486129664E+01  0.28944832203E+02 -0.53568712971E+02  0.61229036658E+02  0.51100000000E-03 0. -1.
         23    2    1    0    0    0 -0.62180254945E+01  0.48129170783E+01 -0.25846265144E+02  0.97984126264E+02  0.94186153791E+02 0.  0.
         11    1    3    3    0    0  0.23058747191E+00 -0.24131915125E+02  0.27722447827E+02  0.36755089606E+02  0.51100000000E-03 0.  1.
         22    1    1    0    0    0  0.62180254945E+01 -0.48129170783E+01  0.25846265144E+02  0.27015873736E+02  0.00000000000E+00 0. -1.
</event>
<event>
 5    1  0.1111613E-009  0.9118800E+02  0.7818608E-02  0.1130116E+00
         25   -1    0    0    0    0  0.00000000000E+00  0.00000000000E+00  0.99999998245E-14  0.12500000000E+03  0.12500000000E+03 0.  0.
        -11    1    3    3    0    0 -0.22989037089E+02 -0.25257017187E+02 -0.13325176777E+02  0.36660238404E+02  0.51100000000E-03 0. -1.
         23    2    1    0    0    0  0.12672525214E+02  0.22585331074E+02 -0.12274918858E+02  0.96340556391E+02  0.91979014442E+02 0.  0.
         11    1    3    3    0    0  0.35661562304E+02  0.47842348260E+02  0.10502579195E+01  0.59680317986E+02  0.51100000000E-03 0.  1.
         22    1    1    0    0    0 -0.12672525214E+02 -0.22585331074E+02  0.12274918858E+02  0.28659443609E+02  0.00000000000E+00 0.  1.
</event>
<event>
 5    1  0.1111613E-009  0.9118800E+02  0.7818608E-02  0.1130116E+00
         25   -1    0    0    0    0  0.00000000000E+00  0.00000000000E+00  0.99999998245E-14  0.12500000000E+03  0.12500000000E+03 0.  0.
        -11    1    3    3    0    0 -0.18919921500E+02 -0.53382894780E+02  0.25120400775E+02  0.61957496883E+02  0.51100000000E-03 0.  1.
         23    2    1    0    0    0  0.75273158501E-01 -0.13992237892E+02  0.76807820672E+01  0.10903808281E+03  0.10786343543E+03 0.  0.
         11    1    3    3    0    0  0.18995194658E+02  0.39390656887E+02 -0.17439618708E+02  0.47080585925E+02  0.51100000000E-03 0. -1.
         22    1    1    0    0    0 -0.75273158501E-01  0.13992237892E+02 -0.76807820672E+01  0.15961917192E+02  0.00000000000E+00 0.  1.
</event>
<event>
 5    1  0.1111613E-009  0.9118800E+02  0.7818608E-02  0.1130116E+00
         25   -1    0    0    0    0  0.00000000000E+00  0.00000000000E+00  0.99999998245E-14  0.12500000000E+03  0.12500000000E+03 0.  0.
        -11    1    3    3    0    0  0.98673221121E+01 -0.23867594738E+02  0.22328009753E+02  0.34140388751E+02  0.51100000000E-03 0.  1.
         23    2    1    0    0    0  0.69249211807E+01  0.19828304416E+02 -0.20682242711E+02  0.95523376161E+02  0.90861675311E+02 0.  0.
         11    1    3    3    0    0 -0.29424009314E+01  0.43695899154E+02 -0.43010252464E+02  0.61382987411E+02  0.51100000000E-03 0. -1.
         22    1    1    0    0    0 -0.69249211807E+01 -0.19828304416E+02  0.20682242711E+02  0.29476623839E+02  0.00000000000E+00 0. -1.
</event>
<event>
 5    1  0.1111613E-009  0.9118800E+02  0.7818608E-02  0.1130116E+00
         25   -1    0    0    0    0  0.00000000000E+00  0.00000000000E+00  0.99999998245E-14  0.12500000000E+03  0.12500000000E+03 0.  0.
        -11    1    3    3    0    0  0.19646684575E+02 -0.11991687099E+02 -0.41634324624E+02  0.47573204238E+02  0.51100000000E-03 0.  1.
         23    2    1    0    0    0  0.24567424144E+02 -0.12152985063E+02  0.72048142409E+01  0.96659874325E+02  0.92411950425E+02 0.  0.
         11    1    3    3    0    0  0.49207395692E+01 -0.16129796366E+00  0.48839138865E+02  0.49086670087E+02  0.51100000000E-03 0. -1.
         22    1    1    0    0    0 -0.24567424144E+02  0.12152985063E+02 -0.72048142409E+01  0.28340125675E+02  0.00000000000E+00 0.  1.
</event>
<event>
 5    1  0.1111613E-009  0.9118800E+02  0.7818608E-02  0.1130116E+00
         25   -1    0    0    0    0  0.00000000000E+00  0.00000000000E+00  0.99999998245E-14  0.12500000000E+03  0.12500000000E+03 0.  0.
        -11    1    3    3    0    0  0.14068960509E+02 -0.15759407714E+02  0.31239926622E+02  0.37712432922E+02  0.51100000000E-03 0.  1.
         23    2    1    0    0    0 -0.85171739090E+01  0.28375244823E+02  0.19192244089E+01  0.95311952026E+02  0.90570348385E+02 0.  0.
         11    1    3    3    0    0 -0.22586134418E+02  0.44134652537E+02 -0.29320702213E+02  0.57599519104E+02  0.51100000000E-03 0. -1.
         22    1    1    0    0    0  0.85171739090E+01 -0.28375244823E+02 -0.19192244089E+01  0.29688047974E+02  0.00000000000E+00 0. -1.
</event>
<event>
 5    1  0.1111613E-009  0.9118800E+02  0.7818608E-02  0.1130116E+00
         25   -1    0    0    0    0  0.00000000000E+00  0.00000000000E+00  0.99999998245E-14  0.12500000000E+03  0.12500000000E+03 0.  0.
        -11    1    3    3    0    0  0.36353802032E+02 -0.11636822653E+02 -0.25802242357E+02  0.46073531170E+02  0.51100000000E-03 0. -1.
         23    2    1    0    0    0  0.14132187827E+02 -0.20913910831E+02  0.16567003933E+02  0.94807682793E+02  0.89871690193E+02 0.  0.
         11    1    3    3    0    0 -0.22221614205E+02 -0.92770881784E+01  0.42369246290E+02  0.48734151622E+02  0.51100000000E-03 0.  1.
         22    1    1    0    0    0 -0.14132187827E+02  0.20913910831E+02 -0.16567003933E+02  0.30192317207E+02  0.00000000000E+00 0.  1.
</event>
<event>
 5    1  0.1111613E-009  0.9118800E+02  0.7818608E-02  0.1130116E+00
         25   -1    0    0    0    0  0.00000000000E+00  0.00000000000E+00  0.99999998245E-14  0.12500000000E+03  0.12500000000E+03 0.  0.
        -11    1    3    3    0    0 -0.56113307712E+02 -0.18264188710E+02  0.10420638347E+02  0.59923898367E+02  0.51100000000E-03 0.  1.
         23    2    1    0    0    0 -0.22681079002E+02 -0.81292073124E+01  0.17052064550E+02  0.95482407591E+02  0.90805296639E+02 0.  0.
         11    1    3    3    0    0  0.33432228710E+02  0.10134981398E+02  0.66314262036E+01  0.35558509224E+02  0.51100000000E-03 0. -1.
         22    1    1    0    0    0  0.22681079002E+02  0.81292073124E+01 -0.17052064550E+02  0.29517592409E+02  0.00000000000E+00 0.  1.
</event>
<event>
 5    1  0.1111613E-009  0.9118800E+02  0.7818608E-02  0.1130116E+00
         25   -1    0    0    0    0  0.00000000000E+00  0.00000000000E+00  0.99999998245E-14  0.12500000000E+03  0.12500000000E+03 0.  0.
        -11    1    3    3    0    0 -0.26905576457E+02 -0.44484575232E+02  0.32734606551E+02  0.61435673223E+02  0.51100000000E-03 0.  1.
         23    2    1    0    0    0 -0.17562017935E+02 -0.17950342460E+02  0.87402611780E+01  0.98409937311E+02  0.94749587480E+02 0.  0.
         11    1    3    3    0    0  0.93435585223E+01  0.26534232772E+02 -0.23994345373E+02  0.36974264087E+02  0.51100000000E-03 0. -1.
         22    1    1    0    0    0  0.17562017935E+02  0.17950342460E+02 -0.87402611780E+01  0.26590062689E+02  0.00000000000E+00 0.  1.
</event>
<event>
 5    1  0.1111613E-009  0.9118800E+02  0.7818608E-02  0.1130116E+00
         25   -1    0    0    0    0  0.00000000000E+00  0.00000000000E+00  0.99999998245E-14  0.12500000000E+03  0.12500000000E+03 0.  0.
        -11    1    3    3    0    0 -0.14662897224E+02  0.70344199837E+00  0.37369889446E+02  0.40149769901E+02  0.51100000000E-03 0. -1.
         23    2    1    0    0    0 -0.11120841980E+02  0.31571658165E+02 -0.33386646365E+01  0.91360894673E+02  0.84942472699E+02 0.  0.
         11    1    3    3    0    0  0.35420552442E+01  0.30868216167E+02 -0.40708554082E+02  0.51211124772E+02  0.51100000000E-03 0.  1.
         22    1    1    0    0    0  0.11120841980E+02 -0.31571658165E+02  0.33386646365E+01  0.33639105327E+02  0.00000000000E+00 0.  1.
</event>
<event>
 5    1  0.1111613E-009  0.9118800E+02  0.7818608E-02  0.1130116E+00
         25   -1    0    0    0    0  0.00000000000E+00  0.00000000000E+00  0.99999998245E-14  0.12500000000E+03  0.12500000000E+03 0.  0.
        -11    1    3    3    0    0  0.65574296199E+00 -0.45667914211E+01  0.34150430231E+02  0.34460665518E+02  0.51100000000E-03 0. -1.
         23    2    1    0    0    0  0.16154791607E+02  0.75411543968E+01 -0.23573942000E+02  0.95443663235E+02  0.90751946584E+02 0.  0.
         11    1    3    3    0    0  0.15499048645E+02  0.12107945818E+02 -0.57724372231E+02  0.60982997717E+02  0.51100000000E-03 0.  1.
         22    1    1    0    0    0 -0.16154791607E+02 -0.75411543968E+01  0.23573942000E+02  0.29556336765E+02  0.00000000000E+00 0.  1.
</event>
<event>
 5    1  0.1111613E-009  0.9118800E+02  0.7818608E-02  0.1130116E+00
         25   -1    0    0    0    0  0.00000000000E+00  0.00000000000E+00  0.99999998245E-14  0.12500000000E+03  0.12500000000E+03 0.  0.
        -11    1    3    3    0    0  0.33943213298E+02 -0.26240676898E+02  0.21041491999E+01  0.42955119568E+02  0.51100000000E-03 0. -1.
         23    2    1    0    0    0  0.28427125449E+02 -0.15887431101E+01 -0.29890045143E+02  0.83719976204E+02  0.72835390100E+02 0.  0.
         11    1    3    3    0    0 -0.55160878484E+01  0.24651933788E+02 -0.31994194343E+02  0.40764856636E+02  0.51100000000E-03 0.  1.
         22    1    1    0    0    0 -0.28427125449E+02  0.15887431101E+01  0.29890045143E+02  0.41280023796E+02  0.00000000000E+00 0. -1.
</event>
<event>
 5    1  0.1111613E-009  0.9118800E+02  0.7818608E-02  0.1130116E+00
         25   -1    0    0    0    0  0.00000000000E+00  0.00000000000E+00  0.99999998245E-14  0.12500000000E+03  0.12500000000E+03 0.  0.
        -11    1    3    3    0    0  0.39512917559E+02  0.44722480488E+02 -0.25047794460E+01  0.59729765070E+02  0.51100000000E-03 0. -1.
         23    2    1    0    0    0  0.11101356551E+02  0.25124233139E+02 -0.11221296691E+02  0.95328722516E+02  0.90593491096E+02 0.  0.
         11    1    3    3    0    0 -0.28411561008E+02 -0.19598247349E+02 -0.87165172451E+01  0.35598957445E+02  0.51100000000E-03 0.  1.
         22    1    1    0    0    0 -0.11101356551E+02 -0.25124233139E+02  0.11221296691E+02  0.29671277484E+02  0.00000000000E+00 0. -1.
</event>
<event>
 5    1  0.1111613E-009  0.9118800E+02  0.7818608E-02  0.1130116E+00
         25   -1    0    0    0    0  0.00000000000E+00  0.00000000000E+00  0.99999998245E-14  0.12500000000E+03  0.12500000000E+03 0.  0.
        -11    1    3    3    0    0 -0.35030152369E+01 -0.16472128663E+02  0.33572063596E+02  0.37559094675E+02  0.51100000000E-03 0.  1.
         23    2    1    0    0    0 -0.15506994777E+02  0.24940279210E+02 -0.47563855762E+01  0.95249241726E+02  0.90483757833E+02 0.  0.
         11    1    3    3    0    0 -0.12003979541E+02  0.41412407873E+02 -0.38328449172E+02  0.57690147052E+02  0.51100000000E-03 0. -1.
         22    1    1    0    0    0  0.15506994777E+02 -0.24940279210E+02  0.47563855762E+01  0.29750758274E+02  0.00000000000E+00 0. -1.
</event>
<event>
 5    1  0.1111613E-009  0.9118800E+02  0.7818608E-02  0.1130116E+00
         25   -1    0    0    0    0  0.00000000000E+00  0.00000000000E+00  0.99999998245E-14  0.12500000000E+03  0.12500000000E+03 0.  0.
        -11    1    3    3    0    0 -0.66188139714E+01  0.29127905227E+02  0.42318406888E+02  0.51798562944E+02  0.51100000000E-03 0. -1.
         23    2    1    0    0    0  0.21785645808E+02  0.16026096407E+02  0.11826123775E+02  0.95482084544E+02  0.90804851941E+02 0.  0.
         11    1    3    3    0    0  0.28404459780E+02 -0.13101808820E+02 -0.30492283112E+02  0.43683521600E+02  0.51100000000E-03 0.  1.
         22    1    1    0    0    0 -0.21785645808E+02 -0.16026096407E+02 -0.11826123775E+02  0.29517915456E+02  0.00000000000E+00 0.  1.
</event>
<event>
 5    1  0.1111613E-009  0.9118800E+02  0.7818608E-02  0.1130116E+00
         25   -1    0    0    0    0  0.00000000000E+00  0.00000000000E+00  0.99999998245E-14  0.12500000000E+03  0.12500000000E+03 0.  0.
        -11    1    3    3    0    0 -0.12117020934E+02 -0.15256517051E+02 -0.27880190588E+02  0.34013064201E+02  0.51100000000E-03 0.  1.
         23    2    1    0    0    0  0.17907489216E+02  0.19842333111E+02  0.12619090231E+02  0.95442635578E+02  0.90750531098E+02 0.  0.
         11    1    3    3    0    0  0.30024510150E+02  0.35098850163E+02  0.40499280819E+02  0.61429571377E+02  0.51100000000E-03 0. -1.
         22    1    1    0    0    0 -0.17907489216E+02 -0.19842333111E+02 -0.12619090231E+02  0.29557364422E+02  0.00000000000E+00 0. -1.
</event>
<event>
 5    1  0.1111613E-009  0.9118800E+02  0.7818608E-02  0.1130116E+00
         25   -1    0    0    0    0  0.00000000000E+00  0.00000000000E+00  0.99999998245E-14  0.12500000000E+03  0.12500000000E+03 0.  0.
        -11    1    3    3    0    0 -0.32537533154E+02 -0.32665528799E+02 -0.70137083291E+01  0.46636036927E+02  0.51100000000E-03 0.  1.
         23    2    1    0    0    0 -0.26355710580E+02  0.12724222450E+02  0.76779475690E+01  0.94743096722E+02  0.89781814308E+02 0.  0.
         11    1    3    3    0    0  0.61818225743E+01  0.45389751249E+02  0.14691655898E+02  0.48107059794E+02  0.51100000000E-03 0. -1.
         22    1    1    0    0    0  0.26355710580E+02 -0.12724222450E+02 -0.76779475690E+01  0.30256903278E+02  0.00000000000E+00 0. -1.
</event>
<event>
 5    1  0.1111613E-009  0.9118800E+02  0.7818608E-02  0.1130116E+00
         25   -1    0    0    0    0  0.00000000000E+00  0.00000000000E+00  0.99999998245E-14  0.12500000000E+03  0.12500000000E+03 0.  0.
        -11    1    3    3    0    0  0.40455129899E+02  0.15549861388E+02  0.34875119498E+02  0.55629935148E+02  0.51100000000E-03 0. -1.
         23    2    1    0    0    0  0.12064507654E+02  0.25400366483E+02  0.84738592166E+01  0.95631015468E+02  0.91009636122E+02 0.  0.
         11    1    3    3    0    0 -0.28390622245E+02  0.98505050951E+01 -0.26401260281E+02  0.40001080320E+02  0.51100000000E-03 0.  1.
         22    1    1    0    0    0 -0.12064507654E+02 -0.25400366483E+02 -0.84738592166E+01  0.29368984532E+02  0.00000000000E+00 0. -1.
</event>
<event>
 5    1  0.1111613E-009  0.9118800E+02  0.7818608E-02  0.1130116E+00
         25   -1    0    0    0    0  0.00000000000E+00  0.00000000000E+00  0.99999998245E-14  0.12500000000E+03  0.12500000000E+03 0.  0.
        -11    1    3    3    0    0  0.44048203046E+02  0.33738128741E+02 -0.21744798971E+02  0.59593135553E+02  0.51100000000E-03 0. -1.
         23    2    1    0    0    0  0.11573457483E+02  0.25677053405E+02 -0.11393410968E+02  0.94618001988E+02  0.89607480140E+02 0.  0.
         11    1    3    3    0    0 -0.32474745563E+02 -0.80610753360E+01  0.10351388003E+02  0.35024866435E+02  0.51100000000E-03 0.  1.
         22    1    1    0    0    0 -0.11573457483E+02 -0.25677053405E+02  0.11393410968E+02  0.30381998012E+02  0.00000000000E+00 0. -1.
</event>
<event>
 5    1  0.1111613E-009  0.9118800E+02  0.7818608E-02  0.1130116E+00
         25   -1    0    0    0    0  0.00000000000E+00  0.00000000000E+00  0.99999998245E-14  0.12500000000E+03  0.12500000000E+03 0.  0.
        -11    1    3    3    0    0 -0.40148766684E+02  0.61166600657E+01  0.21917507059E+02  0.46148825690E+02  0.51100000000E-03 0.  1.
         23    2    1    0    0    0 -0.21923584920E+02 -0.98798441723E+01 -0.19431042740E+02  0.94083656125E+02  0.88858955831E+02 0.  0.
         11    1    3    3    0    0  0.18225181765E+02 -0.15996504238E+02 -0.41348549799E+02  0.47934830436E+02  0.51100000000E-03 0. -1.
         22    1    1    0    0    0  0.21923584920E+02  0.98798441723E+01  0.19431042740E+02  0.30916343875E+02  0.00000000000E+00 0.  1.
</event>
<event>
 5    1  0.1111613E-009  0.9118800E+02  0.7818608E-02  0.1130116E+00
         25   -1    0    0    0    0  0.00000000000E+00  0.00000000000E+00  0.99999998245E-14  0.12500000000E+03  0.12500000000E+03 0.  0.
        -11    1    3    3    0    0 -0.30223361673E+02 -0.21267961064E+02  0.42542062143E+02  0.56352504916E+02  0.51100000000E-03 0.  1.
         23    2    1    0    0    0  0.34242515510E+01 -0.62841810831E+01  0.28244056982E+02  0.95863370384E+02  0.91328213581E+02 0.  0.
         11    1    3    3    0    0  0.33647613224E+02  0.14983779981E+02 -0.14298005161E+02  0.39510865468E+02  0.51100000000E-03 0. -1.
         22    1    1    0    0    0 -0.34242515510E+01  0.62841810831E+01 -0.28244056982E+02  0.29136629616E+02  0.00000000000E+00 0.  1.
</event>
<event>
 5    1  0.1111613E-009  0.9118800E+02  0.7818608E-02  0.1130116E+00
         25   -1    0    0    0    0  0.00000000000E+00  0.00000000000E+00  0.99999998245E-14  0.12500000000E+03  0.12500000000E+03 0.  0.
        -11    1    3    3    0    0  0.26153515955E+02  0.19332144889E+02 -0.44836936926E+02  0.55390334319E+02  0.51100000000E-03 0. -1.
         23    2    1    0    0    0  0.19440654245E+02  0.21461767116E+02 -0.52854573060E+01  0.95563924444E+02  0.90917441181E+02 0.  0.
         11    1    3    3    0    0 -0.67128617102E+01  0.21296222275E+01  0.39551479620E+02  0.40173590125E+02  0.51100000000E-03 0.  1.
         22    1    1    0    0    0 -0.19440654245E+02 -0.21461767116E+02  0.52854573060E+01  0.29436075556E+02  0.00000000000E+00 0. -1.
</event>
<event>
 5    1  0.1111613E-009  0.9118800E+02  0.7818608E-02  0.1130116E+00
         25   -1    0    0    0    0  0.00000000000E+00  0.00000000000E+00  0.99999998245E-14  0.12500000000E+03  0.12500000000E+03 0.  0.
        -11    1    3    3    0    0 -0.23261550623E+02 -0.32470078235E+02  0.93051651133E+01  0.41012093534E+02  0.51100000000E-03 0.  1.
         23    2    1    0    0    0  0.22140742229E+02 -0.16301438651E+02  0.20757807147E+02  0.90549514864E+02  0.83739946955E+02 0.  0.
         11    1    3    3    0    0  0.45402292852E+02  0.16168639584E+02  0.11452642033E+02  0.49537421330E+02  0.51100000000E-03 0. -1.
         22    1    1    0    0    0 -0.22140742229E+02  0.16301438651E+02 -0.20757807147E+02  0.34450485136E+02  0.00000000000E+00 0. -1.
</event>
<event>
 5    1  0.1111613E-009  0.9118800E+02  0.7818608E-02  0.1130116E+00
         25   -1    0    0    0    0  0.00000000000E+00  0.00000000000E+00  0.99999998245E-14  0.12500000000E+03  0.12500000000E+03 0.  0.
        -11    1    3    3    0    0  0.24627411132E+02 -0.38107213459E+02  0.12733983534E+02  0.47125613350E+02  0.51100000000E-03 0.  1.
         23    2    1    0    0    0 -0.40069706022E+00 -0.18708920054E+02 -0.23312904580E+02  0.95105589691E+02  0.90285089704E+02 0.  0.
         11    1    3    3    0    0 -0.25028108192E+02  0.19398293405E+02 -0.36046888115E+02  0.47979976341E+02  0.51100000000E-03 0. -1.
         22    1    1    0    0    0  0.40069706022E+00  0.18708920054E+02  0.23312904580E+02  0.29894410309E+02  0.00000000000E+00 0. -1.
</event>
<event>
 5    1  0.1111613E-009  0.9118800E+02  0.7818608E-02  0.1130116E+00
         25   -1    0    0    0    0  0.00000000000E+00  0.00000000000E+00  0.99999998245E-14  0.12500000000E+03  0.12500000000E+03 0.  0.
        -11    1    3    3    0    0  0.84121581782E+01 -0.44280380209E+01  0.42729116528E+02  0.43773842937E+02  0.51100000000E-03 0.  1.
         23    2    1    0    0    0  0.13307815892E+02 -0.21148575544E+02 -0.90646445901E+01  0.98419405708E+02  0.94762078001E+02 0.  0.
         11    1    3    3    0    0  0.48956577138E+01 -0.16720537523E+02 -0.51793761118E+02  0.54645562771E+02  0.51100000000E-03 0. -1.
         22    1    1    0    0    0 -0.13307815892E+02  0.21148575544E+02  0.90646445901E+01  0.26580594292E+02  0.00000000000E+00 0. -1.
</event>
<event>
 5    1  0.1111613E-009  0.9118800E+02  0.7818608E-02  0.1130116E+00
         25   -1    0    0    0    0  0.00000000000E+00  0.00000000000E+00  0.99999998245E-14  0.12500000000E+03  0.12500000000E+03 0.  0.
        -11    1    3    3    0    0  0.29509354085E+02 -0.31506341270E+02  0.14082191900E+02  0.45406603570E+02  0.51100000000E-03 0.  1.
         23    2    1    0    0    0 -0.63250364340E+01 -0.34429129380E+01  0.30399947972E+02  0.93758736068E+02  0.88400701451E+02 0.  0.
         11    1    3    3    0    0 -0.35834390519E+02  0.28063428332E+02  0.16317756072E+02  0.48352132498E+02  0.51100000000E-03 0. -1.
         22    1    1    0    0    0  0.63250364340E+01  0.34429129380E+01 -0.30399947972E+02  0.31241263932E+02  0.00000000000E+00 0. -1.
</event>
<event>
 5    1  0.1111613E-009  0.9118800E+02  0.7818608E-02  0.1130116E+00
         25   -1    0    0    0    0  0.00000000000E+00  0.00000000000E+00  0.99999998245E-14  0.12500000000E+03  0.12500000000E+03 0.  0.
        -11    1    3    3    0    0 -0.36053275506E+01  0.14772453524E-01  0.35549070413E+02  0.35731428917E+02  0.51100000000E-03 0. -1.
         23    2    1    0    0    0 -0.15885178689E+02  0.43190212783E+01 -0.23561556024E+02  0.96257352783E+02  0.91865870680E+02 0.  0.
         11    1    3    3    0    0 -0.12279851138E+02  0.43042488247E+01 -0.59110626436E+02  0.60525923866E+02  0.51100000000E-03 0.  1.
         22    1    1    0    0    0  0.15885178689E+02 -0.43190212783E+01  0.23561556024E+02  0.28742647217E+02  0.00000000000E+00 0. -1.
</event>
<event>
 5    1  0.1111613E-009  0.9118800E+02  0.7818608E-02  0.1130116E+00
         25   -1    0    0    0    0  0.00000000000E+00  0.00000000000E+00  0.99999998245E-14  0.12500000000E+03  0.12500000000E+03 0.  0.
        -11    1    3    3    0    0  0.13792025255E+02  0.28712407337E+02 -0.99894075821E+01  0.33382788377E+02  0.51100000000E-03 0.  1.
         23    2    1    0    0    0 -0.16730914603E+02 -0.10275026959E+02  0.24409903399E+02  0.93673604318E+02  0.88280241728E+02 0.  0.
         11    1    3    3    0    0 -0.30522939858E+02 -0.38987434296E+02  0.34399310981E+02  0.60290815941E+02  0.51100000000E-03 0. -1.
         22    1    1    0    0    0  0.16730914603E+02  0.10275026959E+02 -0.24409903399E+02  0.31326395682E+02  0.00000000000E+00 0. -1.
</event>
<event>
 5    1  0.1111613E-009  0.9118800E+02  0.7818608E-02  0.1130116E+00
         25   -1    0    0    0    0  0.00000000000E+00  0.00000000000E+00  0.99999998245E-14  0.12500000000E+03  0.12500000000E+03 0.  0.
        -11    1    3    3    0    0 -0.15736260499E+02 -0.22694260125E+02  0.37888149935E+02  0.46884658929E+02  0.51100000000E-03 0.  1.
         23    2    1    0    0    0  0.16760722759E+02 -0.23365001793E+02  0.75362177634E+00  0.96235211074E+02  0.91835737970E+02 0.  0.
         11    1    3    3    0    0  0.32496983258E+02 -0.67074166803E+00 -0.37134528158E+02  0.49350552145E+02  0.51100000000E-03 0. -1.
         22    1    1    0    0    0 -0.16760722759E+02  0.23365001793E+02 -0.75362177634E+00  0.28764788926E+02  0.00000000000E+00 0.  1.
</event>
<event>
 5    1  0.1111613E-009  0.9118800E+02  0.7818608E-02  0.1130116E+00
         25   -1    0    0    0    0  0.00000000000E+00  0.00000000000E+00  0.99999998245E-14  0.12500000000E+03  0.12500000000E+03 0.  0.
        -11    1    3    3    0    0 -0.28747356692E+02  0.20120050197E+01  0.19404488774E+02  0.34741802858E+02  0.51100000000E-03 0. -1.
         23    2    1    0    0    0  0.27857307547E+02  0.12347106528E+01 -0.54837504700E+01  0.96581245394E+02  0.92305532599E+02 0.  0.
         11    1    3    3    0    0  0.56604664239E+02 -0.77729436686E+00 -0.24888239244E+02  0.61839442535E+02  0.51100000000E-03 0.  1.
         22    1    1    0    0    0 -0.27857307547E+02 -0.12347106528E+01  0.54837504700E+01  0.28418754606E+02  0.00000000000E+00 0.  1.
</event>
<event>
 5    1  0.1111613E-009  0.9118800E+02  0.7818608E-02  0.1130116E+00
         25   -1    0    0    0    0  0.00000000000E+00  0.00000000000E+00  0.99999998245E-14  0.12500000000E+03  0.12500000000E+03 0.  0.
        -11    1    3    3    0    0 -0.21116786461E+02  0.36167931376E+02 -0.18765836982E+02  0.45893295462E+02  0.51100000000E-03 0. -1.
         23    2    1    0    0    0 -0.13217716964E+01 -0.13250786100E+02 -0.22061494868E+02  0.99231027019E+02  0.95826701679E+02 0.  0.
         11    1    3    3    0    0  0.19795014765E+02 -0.49418717476E+02 -0.32956578861E+01  0.53337731557E+02  0.51100000000E-03 0.  1.
         22    1    1    0    0    0  0.13217716964E+01  0.13250786100E+02  0.22061494868E+02  0.25768972981E+02  0.00000000000E+00 0.  1.
</event>
<event>
 5    1  0.1111613E-009  0.9118800E+02  0.7818608E-02  0.1130116E+00
         25   -1    0    0    0    0  0.00000000000E+00  0.00000000000E+00  0.99999998245E-14  0.12500000000E+03  0.12500000000E+03 0.  0.
        -11    1    3    3    0    0  0.39148227683E+02 -0.46772082401E+01  0.31894026430E+01  0.39555433219E+02  0.51100000000E-03 0.  1.
         23    2    1    0    0    0 -0.93409300782E+01 -0.25956973560E+02  0.14694396930E+02  0.93743916556E+02  0.88379743940E+02 0.  0.
         11    1    3    3    0    0 -0.48489157762E+02 -0.21279765320E+02  0.11504994287E+02  0.54188483337E+02  0.51100000000E-03 0. -1.
         22    1    1    0    0    0  0.93409300782E+01  0.25956973560E+02 -0.14694396930E+02  0.31256083444E+02  0.00000000000E+00 0. -1.
</event>
<event>
 5    1  0.1111613E-009  0.9118800E+02  0.7818608E-02  0.1130116E+00
         25   -1    0    0    0    0  0.00000000000E+00  0.00000000000E+00  0.99999998245E-14  0.12500000000E+03  0.12500000000E+03 0.  0.
        -11    1    3    3    0    0 -0.35044793952E+02  0.32524717960E+02  0.76566787964E+00  0.47818208970E+02  0.51100000000E-03 0.  1.
         23    2    1    0    0    0  0.10192266029E+02  0.25101566155E+02 -0.11947776323E+02  0.95390537504E+02  0.90678742691E+02 0.  0.
         11    1    3    3    0    0  0.45237059981E+02 -0.74231518048E+01 -0.12713444203E+02  0.47572328535E+02  0.51100000000E-03 0. -1.
         22    1    1    0    0    0 -0.10192266029E+02 -0.25101566155E+02  0.11947776323E+02  0.29609462496E+02  0.00000000000E+00 0. -1.
</event>
<event>
 5    1  0.1111613E-009  0.9118800E+02  0.7818608E-02  0.1130116E+00
         25   -1    0    0    0    0  0.00000000000E+00  0.00000000000E+00  0.99999998245E-14  0.12500000000E+03  0.12500000000E+03 0.  0.
        -11    1    3    3    0    0 -0.47549076605E+01  0.94974549240E+01  0.56685651237E+02  0.57672123711E+02  0.51100000000E-03 0. -1.
         23    2    1    0    0    0  0.14246309657E+02 -0.10902285359E+01  0.26712653200E+02  0.94706241929E+02  0.89730488030E+02 0.  0.
         11    1    3    3    0    0  0.19001217318E+02 -0.10587683460E+02 -0.29972998037E+02  0.37034118218E+02  0.51100000000E-03 0.  1.
         22    1    1    0    0    0 -0.14246309657E+02  0.10902285359E+01 -0.26712653200E+02  0.30293758071E+02  0.00000000000E+00 0.  1.
</event>
<event>
 5    1  0.1111613E-009  0.9118800E+02  0.7818608E-02  0.1130116E+00
         25   -1    0    0    0    0  0.00000000000E+00  0.00000000000E+00  0.99999998245E-14  0.12500000000E+03  0.12500000000E+03 0.  0.
        -11    1    3    3    0    0 -0.36800894139E+02 -0.31762636928E+02  0.38106160787E+01  0.48761580258E+02  0.51100000000E-03 0.  1.
         23    2    1    0    0    0 -0.87768814926E+01 -0.44159392995E+02  0.64439174865E+01  0.79518028726E+02  0.65226583395E+02 0.  0.
         11    1    3    3    0    0  0.28024012647E+02 -0.12396756067E+02  0.26333014077E+01  0.30756448468E+02  0.51100000000E-03 0. -1.
         22    1    1    0    0    0  0.87768814926E+01  0.44159392995E+02 -0.64439174865E+01  0.45481971274E+02  0.00000000000E+00 0. -1.
</event>
<event>
 5    1  0.1111613E-009  0.9118800E+02  0.7818608E-02  0.1130116E+00
         25   -1    0    0    0    0  0.00000000000E+00  0.00000000000E+00  0.99999998245E-14  0.12500000000E+03  0.12500000000E+03 0.  0.
        -11    1    3    3    0    0  0.24942913353E+02 -0.26718220439E+02 -0.11929773372E+02  0.38449079611E+02  0.51100000000E-03 0. -1.
         23    2    1    0    0    0 -0.27219217794E+02 -0.31953034846E+01 -0.10389776721E+02  0.95690560531E+02  0.91091383416E+02 0.  0.
         11    1    3    3    0    0 -0.52162131148E+02  0.23522916955E+02  0.15399966509E+01  0.57241480919E+02  0.51100000000E-03 0.  1.
         22    1    1    0    0    0  0.27219217794E+02  0.31953034846E+01  0.10389776721E+02  0.29309439469E+02  0.00000000000E+00 0.  1.
</event>
<event>
 5    1  0.1111613E-009  0.9118800E+02  0.7818608E-02  0.1130116E+00
         25   -1    0    0    0    0  0.00000000000E+00  0.00000000000E+00  0.99999998245E-14  0.12500000000E+03  0.12500000000E+03 0.  0.
        -11    1    3    3    0    0  0.14937944197E+01  0.35355288501E+02 -0.34559176127E+02  0.49462758734E+02  0.51100000000E-03 0.  1.
         23    2    1    0    0    0 -0.21071437368E+02  0.14547708575E+02  0.43564358907E+01  0.99026555269E+02  0.95559608712E+02 0.  0.
         11    1    3    3    0    0 -0.22565231788E+02 -0.20807579926E+02  0.38915612017E+02  0.49563796535E+02  0.51100000000E-03 0. -1.
         22    1    1    0    0    0  0.21071437368E+02 -0.14547708575E+02 -0.43564358907E+01  0.25973444731E+02  0.00000000000E+00 0. -1.
</event>
<event>
 5    1  0.1111613E-009  0.9118800E+02  0.7818608E-02  0.1130116E+00
         25   -1    0    0    0    0  0.00000000000E+00  0.00000000000E+00  0.99999998245E-14  0.12500000000E+03  0.12500000000E+03 0.  0.
        -11    1    3    3    0    0 -0.40896991778E+02  0.28510163835E+02  0.20892715204E+02  0.54054592101E+02  0.51100000000E-03 0.  1.
         23    2    1    0    0    0 -0.14213014517E+02  0.32762680763E+02 -0.16574899809E+01  0.89248771973E+02  0.81775259053E+02 0.  0.
         11    1    3    3    0    0  0.26683977261E+02  0.42525169273E+01 -0.22550205185E+02  0.35194179871E+02  0.51100000000E-03 0. -1.
         22    1    1    0    0    0  0.14213014517E+02 -0.32762680763E+02  0.16574899809E+01  0.35751228027E+02  0.00000000000E+00 0.  1.
</event>
<event>
 5    1  0.1111613E-009  0.9118800E+02  0.7818608E-02  0.1130116E+00
         25   -1    0    0    0    0  0.00000000000E+00  0.00000000000E+00  0.99999998245E-14  0.12500000000E+03  0.12500000000E+03 0.  0.
        -11    1    3    3    0    0  0.45431631430E+02 -0.19427085315E+01 -0.71211156732E+01  0.46027356425E+02  0.51100000000E-03 0.  1.
         23    2    1    0    0    0  0.18438618434E+02 -0.31674625324E+02  0.50840485422E+01  0.87998485318E+02  0.79841225751E+02 0.  0.
         11    1    3    3    0    0 -0.26993012996E+02 -0.29731916792E+02  0.12205164215E+02  0.41971128893E+02  0.51100000000E-03 0. -1.
         22    1    1    0    0    0 -0.18438618434E+02  0.31674625324E+02 -0.50840485422E+01  0.37001514682E+02  0.00000000000E+00 0.  1.
</event>
<event>
 5    1  0.1111613E-009  0.9118800E+02  0.7818608E-02  0.1130116E+00
         25   -1    0    0    0    0  0.00000000000E+00  0.00000000000E+00  0.99999998245E-14  0.12500000000E+03  0.12500000000E+03 0.  0.
        -11    1    3    3    0    0 -0.44419488124E+01 -0.55190919636E+02  0.28637125871E+02  0.62336614425E+02  0.51100000000E-03 0. -1.
         23    2    1    0    0    0 -0.51316177945E+01 -0.25651197488E+02  0.12426373040E+02  0.96039126728E+02  0.91568453530E+02 0.  0.
         11    1    3    3    0    0 -0.68966898218E+00  0.29539722148E+02 -0.16210752831E+02  0.33702512303E+02  0.51100000000E-03 0.  1.
         22    1    1    0    0    0  0.51316177945E+01  0.25651197488E+02 -0.12426373040E+02  0.28960873272E+02  0.00000000000E+00 0. -1.
</event>
<event>
 5    1  0.1111613E-009  0.9118800E+02  0.7818608E-02  0.1130116E+00
         25   -1    0    0    0    0  0.00000000000E+00  0.00000000000E+00  0.99999998245E-14  0.12500000000E+03  0.12500000000E+03 0.  0.
        -11    1    3    3    0    0  0.28112616949E+01 -0.69566523200E+01  0.31334211012E+02  0.32220040097E+02  0.51100000000E-03 0. -1.
         23    2    1    0    0    0 -0.17703250368E+02 -0.17628702127E+01 -0.26091202029E+02  0.93420519189E+02  0.87921156709E+02 0.  0.
         11    1    3    3    0    0 -0.20514512063E+02  0.51937821073E+01 -0.57425413042E+02  0.61200479092E+02  0.51100000000E-03 0.  1.
         22    1    1    0    0    0  0.17703250368E+02  0.17628702127E+01  0.26091202029E+02  0.31579480811E+02  0.00000000000E+00 0.  1.
</event>
<event>
 5    1  0.1111613E-009  0.9118800E+02  0.7818608E-02  0.1130116E+00
         25   -1    0    0    0    0  0.00000000000E+00  0.00000000000E+00  0.99999998245E-14  0.12500000000E+03  0.12500000000E+03 0.  0.
        -11    1    3    3    0    0  0.34932683006E+02  0.12850702696E+02 -0.23759032016E+02  0.44157949504E+02  0.51100000000E-03 0.  1.
         23    2    1    0    0    0 -0.12430248416E+02  0.25358431327E+02 -0.73762095680E+01  0.95811482007E+02  0.91257166851E+02 0.  0.
         11    1    3    3    0    0 -0.47362931422E+02  0.12507728631E+02  0.16382822448E+02  0.51653532503E+02  0.51100000000E-03 0. -1.
         22    1    1    0    0    0  0.12430248416E+02 -0.25358431327E+02  0.73762095680E+01  0.29188517993E+02  0.00000000000E+00 0. -1.
</event>
<event>
 5    1  0.1111613E-009  0.9118800E+02  0.7818608E-02  0.1130116E+00
         25   -1    0    0    0    0  0.00000000000E+00  0.00000000000E+00  0.99999998245E-14  0.12500000000E+03  0.12500000000E+03 0.  0.
        -11    1    3    3    0    0 -0.14150277168E+02 -0.34154721978E+02  0.63813511210E+01  0.37516623245E+02  0.51100000000E-03 0.  1.
         23    2    1    0    0    0 -0.88916635448E+01  0.11313857996E+02 -0.27160861976E+02  0.94262767095E+02  0.89110559273E+02 0.  0.
         11    1    3    3    0    0  0.52586136229E+01  0.45468579975E+02 -0.33542213097E+02  0.56746143850E+02  0.51100000000E-03 0. -1.
         22    1    1    0    0    0  0.88916635448E+01 -0.11313857996E+02  0.27160861976E+02  0.30737232905E+02  0.00000000000E+00 0. -1.
</event>
<event>
 5    1  0.1111613E-009  0.9118800E+02  0.7818608E-02  0.1130116E+00
         25   -1    0    0    0    0  0.00000000000E+00  0.00000000000E+00  0.99999998245E-14  0.12500000000E+03  0.12500000000E+03 0.  0.
        -11    1    3    3    0    0  0.12610387977E+02  0.48244535435E+01  0.37069704455E+02  0.39451999006E+02  0.51100000000E-03 0. -1.
         23    2    1    0    0    0  0.13291844861E+02  0.20609287373E+02 -0.16591617558E+02  0.95390919652E+02  0.90679269478E+02 0.  0.
         11    1    3    3    0    0  0.68145688412E+00  0.15784833829E+02 -0.53661322014E+02  0.55938920646E+02  0.51100000000E-03 0.  1.
         22    1    1    0    0    0 -0.13291844861E+02 -0.20609287373E+02  0.16591617558E+02  0.29609080348E+02  0.00000000000E+00 0.  1.
</event>
<event>
 5    1  0.1111613E-009  0.9118800E+02  0.7818608E-02  0.1130116E+00
         25   -1    0    0    0    0  0.00000000000E+00  0.00000000000E+00  0.99999998245E-14  0.12500000000E+03  0.12500000000E+03 0.  0.
        -11    1    3    3    0    0  0.39844149670E+02  0.34014856174E+02  0.23757833282E+02  0.57523919772E+02  0.51100000000E-03 0.  1.
         23    2    1    0    0    0  0.17588407503E+02  0.25223232179E+02 -0.37942644107E+01  0.94016779339E+02  0.88764828817E+02 0.  0.
         11    1    3    3    0    0 -0.22255742167E+02 -0.87916239941E+01 -0.27552097693E+02  0.36492859567E+02  0.51100000000E-03 0. -1.
         22    1    1    0    0    0 -0.17588407503E+02 -0.25223232179E+02  0.37942644107E+01  0.30983220661E+02  0.00000000000E+00 0.  1.
</event>
<event>
 5    1  0.1111613E-009  0.9118800E+02  0.7818608E-02  0.1130116E+00
         25   -1    0    0    0    0  0.00000000000E+00  0.00000000000E+00  0.99999998245E-14  0.12500000000E+03  0.12500000000E+03 0.  0.
        -11    1    3    3    0    0 -0.30979537216E+02 -0.21314028147E+02  0.45873777943E+02  0.59316296454E+02  0.51100000000E-03 0. -1.
         23    2    1    0    0    0 -0.13235869592E+02  0.36719571366E+01  0.50438799553E+01  0.11036742545E+03  0.10939312758E+03 0.  0.
         11    1    3    3    0    0  0.17743667624E+02  0.24985985284E+02 -0.40829897988E+02  0.51051128992E+02  0.51100000000E-03 0.  1.
         22    1    1    0    0    0  0.13235869592E+02 -0.36719571366E+01 -0.50438799553E+01  0.14632574554E+02  0.00000000000E+00 0. -1.
</event>
<event>
 4    1  0.1111613E-009  0.9118800E+02  0.7818608E-02  0.1130116E+00
         25   -1    0    0    0    0  0.00000000000E+00  0.00000000000E+00  0.99999998245E-14  0.12500000000E+03  0.12500000000E+03 0.  0.
        -11    1    1    0    0    0  0.29590971639E+01 -0.50058741837E+02  0.92946257001E+01  0.51000234876E+02  0.51100000000E-03 0. -1.
         11    1    1    0    0    0  0.50418757196E+01 -0.10721844487E+02 -0.38297940399E+01  0.12451738137E+02  0.51100000000E-03 0.  1.
         22    1    1    0    0    0 -0.80009728835E+01  0.60780586323E+02 -0.54648316602E+01  0.61548026987E+02  0.00000000000E+00 0. -1.
</event>
<event>
 5    1  0.1111613E-009  0.9118800E+02  0.7818608E-02  0.1130116E+00
         25   -1    0    0    0    0  0.00000000000E+00  0.00000000000E+00  0.99999998245E-14  0.12500000000E+03  0.12500000000E+03 0.  0.
        -11    1    3    3    0    0  0.35092548000E+02  0.12070582964E+02  0.67723569916E+01  0.37723344466E+02  0.51100000000E-03 0. -1.
         23    2    1    0    0    0 -0.23640704055E+02  0.14563706689E+02  0.63756260355E+01  0.96510825774E+02  0.92210121155E+02 0.  0.
         11    1    3    3    0    0 -0.58733252055E+02  0.24931237246E+01 -0.39673095611E+00  0.58787481308E+02  0.51100000000E-03 0.  1.
         22    1    1    0    0    0  0.23640704055E+02 -0.14563706689E+02 -0.63756260355E+01  0.28489174226E+02  0.00000000000E+00 0.  1.
</event>
<event>
 5    1  0.1111613E-009  0.9118800E+02  0.7818608E-02  0.1130116E+00
         25   -1    0    0    0    0  0.00000000000E+00  0.00000000000E+00  0.99999998245E-14  0.12500000000E+03  0.12500000000E+03 0.  0.
        -11    1    3    3    0    0 -0.15263369116E+02 -0.40254243094E+02 -0.39126874343E+02  0.58174623505E+02  0.51100000000E-03 0. -1.
         23    2    1    0    0    0  0.93252752195E+01 -0.20817228717E+02 -0.17364346971E+02  0.96332277469E+02  0.91967762653E+02 0.  0.
         11    1    3    3    0    0  0.24588644336E+02  0.19437014377E+02  0.21762527372E+02  0.38157653964E+02  0.51100000000E-03 0.  1.
         22    1    1    0    0    0 -0.93252752195E+01  0.20817228717E+02  0.17364346971E+02  0.28667722531E+02  0.00000000000E+00 0. -1.
</event>
<event>
 5    1  0.1111613E-009  0.9118800E+02  0.7818608E-02  0.1130116E+00
         25   -1    0    0    0    0  0.00000000000E+00  0.00000000000E+00  0.99999998245E-14  0.12500000000E+03  0.12500000000E+03 0.  0.
        -11    1    3    3    0    0 -0.25024177046E+02 -0.43474429213E+02 -0.36575712260E+02  0.62080739041E+02  0.51100000000E-03 0.  1.
         23    2    1    0    0    0 -0.10074503338E+02 -0.17412002893E+02 -0.20984098264E+02  0.95931015804E+02  0.91420752299E+02 0.  0.
         11    1    3    3    0    0  0.14949673708E+02  0.26062426320E+02  0.15591613996E+02  0.33850276763E+02  0.51100000000E-03 0. -1.
         22    1    1    0    0    0  0.10074503338E+02  0.17412002893E+02  0.20984098264E+02  0.29068984196E+02  0.00000000000E+00 0.  1.
</event>
<event>
 5    1  0.1111613E-009  0.9118800E+02  0.7818608E-02  0.1130116E+00
         25   -1    0    0    0    0  0.00000000000E+00  0.00000000000E+00  0.99999998245E-14  0.12500000000E+03  0.12500000000E+03 0.  0.
        -11    1    3    3    0    0  0.35772167301E+01 -0.34899249106E+02  0.19801784312E+02  0.40284795269E+02  0.51100000000E-03 0. -1.
         23    2    1    0    0    0 -0.31081963404E+02  0.74882143323E+00 -0.28243701494E+00  0.93907734832E+02  0.88611137607E+02 0.  0.
         11    1    3    3    0    0 -0.34659180135E+02  0.35648070539E+02 -0.20084221327E+02  0.53622939563E+02  0.51100000000E-03 0.  1.
         22    1    1    0    0    0  0.31081963404E+02 -0.74882143323E+00  0.28243701494E+00  0.31092265168E+02  0.00000000000E+00 0.  1.
</event>
<event>
 5    1  0.1111613E-009  0.9118800E+02  0.7818608E-02  0.1130116E+00
         25   -1    0    0    0    0  0.00000000000E+00  0.00000000000E+00  0.99999998245E-14  0.12500000000E+03  0.12500000000E+03 0.  0.
        -11    1    3    3    0    0  0.13377876344E+02  0.37230006040E+02 -0.16988826771E+02  0.43054165426E+02  0.51100000000E-03 0. -1.
         23    2    1    0    0    0 -0.27229442250E+02  0.10389947191E+02  0.30561912666E+01  0.95695839324E+02  0.91098626944E+02 0.  0.
         11    1    3    3    0    0 -0.40607318594E+02 -0.26840058849E+02  0.20045018038E+02  0.52641673898E+02  0.51100000000E-03 0.  1.
         22    1    1    0    0    0  0.27229442250E+02 -0.10389947191E+02 -0.30561912666E+01  0.29304160676E+02  0.00000000000E+00 0.  1.
</event>
<event>
 5    1  0.1111613E-009  0.9118800E+02  0.7818608E-02  0.1130116E+00
         25   -1    0    0    0    0  0.00000000000E+00  0.00000000000E+00  0.99999998245E-14  0.12500000000E+03  0.12500000000E+03 0.  0.
        -11    1    3    3    0    0  0.14336206922E+02  0.40733749218E+02 -0.17337230781E+02  0.46533264723E+02  0.51100000000E-03 0.  1.
         23    2    1    0    0    0 -0.21296982423E+02  0.66409199171E+01 -0.18734003086E+02  0.95868811399E+02  0.91335660340E+02 0.  0.
         11    1    3    3    0    0 -0.35633189346E+02 -0.34092829301E+02 -0.13967723047E+01  0.49335546676E+02  0.51100000000E-03 0. -1.
         22    1    1    0    0    0  0.21296982423E+02 -0.66409199171E+01  0.18734003086E+02  0.29131188601E+02  0.00000000000E+00 0. -1.
</event>
<event>
 5    1  0.1111613E-009  0.9118800E+02  0.7818608E-02  0.1130116E+00
         25   -1    0    0    0    0  0.00000000000E+00  0.00000000000E+00  0.99999998245E-14  0.12500000000E+03  0.12500000000E+03 0.  0.
        -11    1    3    3    0    0 -0.97943892087E+01  0.28861910891E+02  0.20051490323E+02  0.36482903184E+02  0.51100000000E-03 0. -1.
         23    2    1    0    0    0  0.14485498880E+02 -0.64520594291E+00 -0.25332327118E+02  0.95811427480E+02  0.91257092163E+02 0.  0.
         11    1    3    3    0    0  0.24279888088E+02 -0.29507116834E+02 -0.45383817441E+02  0.59328524297E+02  0.51100000000E-03 0.  1.
         22    1    1    0    0    0 -0.14485498880E+02  0.64520594291E+00  0.25332327118E+02  0.29188572520E+02  0.00000000000E+00 0.  1.
</event>
<event>
 5    1  0.1111613E-009  0.9118800E+02  0.7818608E-02  0.1130116E+00
         25   -1    0    0    0    0  0.00000000000E+00  0.00000000000E+00  0.99999998245E-14  0.12500000000E+03  0.12500000000E+03 0.  0.
        -11    1    3    3    0    0 -0.15366011718E+02  0.73782900025E+01 -0.58663512614E+02  0.61089779767E+02  0.51100000000E-03 0. -1.
         23    2    1    0    0    0 -0.81651588531E+01 -0.58586248337E+01 -0.27891928982E+02  0.95352858378E+02  0.90626787400E+02 0.  0.
         11    1    3    3    0    0  0.72008528646E+01 -0.13236914836E+02  0.30771583633E+02  0.34263078611E+02  0.51100000000E-03 0.  1.
         22    1    1    0    0    0  0.81651588531E+01  0.58586248337E+01  0.27891928982E+02  0.29647141622E+02  0.00000000000E+00 0. -1.
</event>
<event>
 5    1  0.1111613E-009  0.9118800E+02  0.7818608E-02  0.1130116E+00
         25   -1    0    0    0    0  0.00000000000E+00  0.00000000000E+00  0.99999998245E-14  0.12500000000E+03  0.12500000000E+03 0.  0.
        -11    1    3    3    0    0  0.41783999298E+02  0.66853905508E-01 -0.31751471666E+01  0.41904517973E+02  0.51100000000E-03 0.  1.
         23    2    1    0    0    0 -0.15637318428E+01 -0.11394449375E+02 -0.29108649350E+02  0.93701562326E+02  0.88319819868E+02 0.  0.
         11    1    3    3    0    0 -0.43347731141E+02 -0.11461303280E+02 -0.25933502184E+02  0.51797044353E+02  0.51100000000E-03 0. -1.
         22    1    1    0    0    0  0.15637318428E+01  0.11394449375E+02  0.29108649350E+02  0.31298437674E+02  0.00000000000E+00 0. -1.
</event>
<event>
 5    1  0.1111613E-009  0.9118800E+02  0.7818608E-02  0.1130116E+00
         25   -1    0    0    0    0  0.00000000000E+00  0.00000000000E+00  0.99999998245E-14  0.12500000000E+03  0.12500000000E+03 0.  0.
        -11    1    3    3    0    0  0.31081079782E+02 -0.17794251440E+02  0.51130383541E+01  0.36177507739E+02  0.51100000000E-03 0.  1.
         23    2    1    0    0    0 -0.90796330112E+01  0.26990188282E+02  0.29578856004E+01  0.96370311103E+02  0.92019442379E+02 0.  0.
         11    1    3    3    0    0 -0.40160712793E+02  0.44784439721E+02 -0.21551527537E+01  0.60192803364E+02  0.51100000000E-03 0. -1.
         22    1    1    0    0    0  0.90796330112E+01 -0.26990188282E+02 -0.29578856004E+01  0.28629688897E+02  0.00000000000E+00 0. -1.
</event>
<event>
 5    1  0.1111613E-009  0.9118800E+02  0.7818608E-02  0.1130116E+00
         25   -1    0    0    0    0  0.00000000000E+00  0.00000000000E+00  0.99999998245E-14  0.12500000000E+03  0.12500000000E+03 0.  0.
        -11    1    3    3    0    0  0.18360379632E+02 -0.37607235936E+02  0.95776722129E+01  0.42931801037E+02  0.51100000000E-03 0.  1.
         23    2    1    0    0    0  0.25828874602E+02  0.13346929172E+02  0.94455812371E+01  0.94430566142E+02  0.89345629638E+02 0.  0.
         11    1    3    3    0    0  0.74684949695E+01  0.50954165108E+02 -0.13209097581E+00  0.51498765104E+02  0.51100000000E-03 0. -1.
         22    1    1    0    0    0 -0.25828874602E+02 -0.13346929172E+02 -0.94455812371E+01  0.30569433858E+02  0.00000000000E+00 0. -1.
</event>
<event>
 5    1  0.1111613E-009  0.9118800E+02  0.7818608E-02  0.1130116E+00
         25   -1    0    0    0    0  0.00000000000E+00  0.00000000000E+00  0.99999998245E-14  0.12500000000E+03  0.12500000000E+03 0.  0.
        -11    1    3    3    0    0  0.52930399079E+02 -0.67901629336E+01  0.26213352851E+02  0.59454800708E+02  0.51100000000E-03 0. -1.
         23    2    1    0    0    0  0.18236233345E+02 -0.63354994530E+01  0.23967233620E+02  0.94224570721E+02  0.89056963121E+02 0.  0.
         11    1    3    3    0    0 -0.34694165734E+02  0.45466348062E+00 -0.22461192312E+01  0.34769770013E+02  0.51100000000E-03 0.  1.
         22    1    1    0    0    0 -0.18236233345E+02  0.63354994530E+01 -0.23967233620E+02  0.30775429279E+02  0.00000000000E+00 0. -1.
</event>
<event>
 5    1  0.1111613E-009  0.9118800E+02  0.7818608E-02  0.1130116E+00
         25   -1    0    0    0    0  0.00000000000E+00  0.00000000000E+00  0.99999998245E-14  0.12500000000E+03  0.12500000000E+03 0.  0.
        -11    1    3    3    0    0  0.33525150849E+02  0.48025703073E+01 -0.36763326828E+02  0.49985424082E+02  0.51100000000E-03 0. -1.
         23    2    1    0    0    0  0.27231908590E+02  0.59981579533E+01  0.86159287749E+01  0.95814576019E+02  0.91261404793E+02 0.  0.
         11    1    3    3    0    0 -0.62932422592E+01  0.11955876460E+01  0.45379255603E+02  0.45829151937E+02  0.51100000000E-03 0.  1.
         22    1    1    0    0    0 -0.27231908590E+02 -0.59981579533E+01 -0.86159287749E+01  0.29185423981E+02  0.00000000000E+00 0.  1.
</event>
<event>
 5    1  0.1111613E-009  0.9118800E+02  0.7818608E-02  0.1130116E+00
         25   -1    0    0    0    0  0.00000000000E+00  0.00000000000E+00  0.99999998245E-14  0.12500000000E+03  0.12500000000E+03 0.  0.
        -11    1    3    3    0    0  0.25211613019E+02  0.93610937184E+01  0.44852098377E+02  0.52296904647E+02  0.51100000000E-03 0.  1.
         23    2    1    0    0    0  0.25041573075E+02 -0.13815643504E+02  0.89462209682E+01  0.95033564491E+02  0.90185315449E+02 0.  0.
         11    1    3    3    0    0 -0.17003994402E+00 -0.23176737223E+02 -0.35905877408E+02  0.42736659844E+02  0.51100000000E-03 0. -1.
         22    1    1    0    0    0 -0.25041573075E+02  0.13815643504E+02 -0.89462209682E+01  0.29966435509E+02  0.00000000000E+00 0.  1.
</event>
<event>
 5    1  0.1111613E-009  0.9118800E+02  0.7818608E-02  0.1130116E+00
         25   -1    0    0    0    0  0.00000000000E+00  0.00000000000E+00  0.99999998245E-14  0.12500000000E+03  0.12500000000E+03 0.  0.
        -11    1    3    3    0    0  0.38582286539E+01  0.13815429073E+02 -0.33734163253E+02  0.36657138178E+02  0.51100000000E-03 0. -1.
         23    2    1    0    0    0  0.89263991126E+01 -0.15280175860E+02  0.20197963915E+02  0.98146282906E+02  0.94401116130E+02 0.  0.
         11    1    3    3    0    0  0.50681704587E+01 -0.29095604933E+02  0.53932127168E+02  0.61489144728E+02  0.51100000000E-03 0.  1.
         22    1    1    0    0    0 -0.89263991126E+01  0.15280175860E+02 -0.20197963915E+02  0.26853717094E+02  0.00000000000E+00 0.  1.
</event>
<event>
 5    1  0.1111613E-009  0.9118800E+02  0.7818608E-02  0.1130116E+00
         25   -1    0    0    0    0  0.00000000000E+00  0.00000000000E+00  0.99999998245E-14  0.12500000000E+03  0.12500000000E+03 0.  0.
        -11    1    3    3    0    0  0.24644368161E+02 -0.17429928836E+02 -0.25840570465E+02  0.39735152995E+02  0.51100000000E-03 0. -1.
         23    2    1    0    0    0  0.82435469721E+00 -0.45446068261E+01  0.26197491133E+02  0.98398467083E+02  0.94734453980E+02 0.  0.
         11    1    3    3    0    0 -0.23820013464E+02  0.12885322010E+02  0.52038061598E+02  0.58663314089E+02  0.51100000000E-03 0.  1.
         22    1    1    0    0    0 -0.82435469721E+00  0.45446068261E+01 -0.26197491133E+02  0.26601532917E+02  0.00000000000E+00 0.  1.
</event>
<event>
 5    1  0.1111613E-009  0.9118800E+02  0.7818608E-02  0.1130116E+00
         25   -1    0    0    0    0  0.00000000000E+00  0.00000000000E+00  0.99999998245E-14  0.12500000000E+03  0.12500000000E+03 0.  0.
        -11    1    3    3    0    0 -0.15206854036E+02  0.28990552657E+02 -0.84525224529E+01  0.33810437576E+02  0.51100000000E-03 0.  1.
         23    2    1    0    0    0  0.17129474848E+02 -0.17036236527E+02  0.16906706921E+02  0.95512901084E+02  0.90847263421E+02 0.  0.
         11    1    3    3    0    0  0.32336328884E+02 -0.46026789184E+02  0.25359229374E+02  0.61702463508E+02  0.51100000000E-03 0. -1.
         22    1    1    0    0    0 -0.17129474848E+02  0.17036236527E+02 -0.16906706921E+02  0.29487098916E+02  0.00000000000E+00 0. -1.
</event>
<event>
 5    1  0.1111613E-009  0.9118800E+02  0.7818608E-02  0.1130116E+00
         25   -1    0    0    0    0  0.00000000000E+00  0.00000000000E+00  0.99999998245E-14  0.12500000000E+03  0.12500000000E+03 0.  0.
        -11    1    3    3    0    0 -0.42623861064E+02  0.31766972673E+02 -0.32343666639E+02  0.62225773251E+02  0.51100000000E-03 0. -1.
         23    2    1    0    0    0 -0.21983829622E+02  0.11484961032E+02 -0.16408344512E+02  0.95260684870E+02  0.90499564737E+02 0.  0.
         11    1    3    3    0    0  0.20640031442E+02 -0.20282011641E+02  0.15935322127E+02  0.33034911619E+02  0.51100000000E-03 0.  1.
         22    1    1    0    0    0  0.21983829622E+02 -0.11484961032E+02  0.16408344512E+02  0.29739315130E+02  0.00000000000E+00 0. -1.
</event>
<event>
 5    1  0.1111613E-009  0.9118800E+02  0.7818608E-02  0.1130116E+00
         25   -1    0    0    0    0  0.00000000000E+00  0.00000000000E+00  0.99999998245E-14  0.12500000000E+03  0.12500000000E+03 0.  0.
        -11    1    3    3    0    0  0.64350921087E+01  0.25849026031E+02 -0.30895230747E+02  0.40793355346E+02  0.51100000000E-03 0.  1.
         23    2    1    0    0    0  0.39895687025E+02  0.18276238682E+02 -0.19871271359E+02  0.76827869375E+02  0.59849539210E+02 0.  0.
         11    1    3    3    0    0  0.33460594916E+02 -0.75727873494E+01  0.11023959389E+02  0.36034514028E+02  0.51100000000E-03 0. -1.
         22    1    1    0    0    0 -0.39895687025E+02 -0.18276238682E+02  0.19871271359E+02  0.48172130625E+02  0.00000000000E+00 0.  1.
</event>
<event>
 5    1  0.1111613E-009  0.9118800E+02  0.7818608E-02  0.1130116E+00
         25   -1    0    0    0    0  0.00000000000E+00  0.00000000000E+00  0.99999998245E-14  0.12500000000E+03  0.12500000000E+03 0.  0.
        -11    1    3    3    0    0  0.30099122839E+02 -0.25777318527E+02 -0.10834235340E+01  0.39643425091E+02  0.51100000000E-03 0. -1.
         23    2    1    0    0    0  0.41781152961E+01  0.18697440262E+02 -0.22543917007E+02  0.95414883577E+02  0.90712297371E+02 0.  0.
         11    1    3    3    0    0 -0.25921007543E+02  0.44474758788E+02 -0.21460493473E+02  0.55771458486E+02  0.51100000000E-03 0.  1.
         22    1    1    0    0    0 -0.41781152961E+01 -0.18697440262E+02  0.22543917007E+02  0.29585116423E+02  0.00000000000E+00 0.  1.
</event>
<event>
 5    1  0.1111613E-009  0.9118800E+02  0.7818608E-02  0.1130116E+00
         25   -1    0    0    0    0  0.00000000000E+00  0.00000000000E+00  0.99999998245E-14  0.12500000000E+03  0.12500000000E+03 0.  0.
        -11    1    3    3    0    0  0.74245566231E+01 -0.56513310476E+02 -0.23727194740E+01  0.57048296206E+02  0.51100000000E-03 0.  1.
         23    2    1    0    0    0  0.17343836043E+02 -0.19916664103E+02  0.97371771688E+01  0.96852268708E+02  0.92671825152E+02 0.  0.
         11    1    3    3    0    0  0.99192794196E+01  0.36596646373E+02  0.12109896643E+02  0.39803972502E+02  0.51100000000E-03 0. -1.
         22    1    1    0    0    0 -0.17343836043E+02  0.19916664103E+02 -0.97371771688E+01  0.28147731292E+02  0.00000000000E+00 0.  1.
</event>
<event>
 5    1  0.1111613E-009  0.9118800E+02  0.7818608E-02  0.1130116E+00
         25   -1    0    0    0    0  0.00000000000E+00  0.00000000000E+00  0.99999998245E-14  0.12500000000E+03  0.12500000000E+03 0.  0.
        -11    1    3    3    0    0 -0.31709478474E+02  0.34807710276E+02  0.10873873507E+02  0.48325033317E+02  0.51100000000E-03 0.  1.
         23    2    1    0    0    0 -0.19397260921E+02 -0.10922097028E+02  0.18199361474E+02  0.96246518597E+02  0.91851127643E+02 0.  0.
         11    1    3    3    0    0  0.12312217554E+02 -0.45729807305E+02  0.73254879672E+01  0.47921485280E+02  0.51100000000E-03 0. -1.
         22    1    1    0    0    0  0.19397260921E+02  0.10922097028E+02 -0.18199361474E+02  0.28753481403E+02  0.00000000000E+00 0. -1.
</event>
<event>
 5    1  0.1111613E-009  0.9118800E+02  0.7818608E-02  0.1130116E+00
         25   -1    0    0    0    0  0.00000000000E+00  0.00000000000E+00  0.99999998245E-14  0.12500000000E+03  0.12500000000E+03 0.  0.
        -11    1    3    3    0    0 -0.79755109988E+01 -0.32172940693E+02  0.10895014247E+02  0.34891377505E+02  0.51100000000E-03 0.  1.
         23    2    1    0    0    0  0.19215023113E+02  0.19547751064E+02 -0.82410659010E+01  0.96377511428E+02  0.92029222842E+02 0.  0.
         11    1    3    3    0    0  0.27190534112E+02  0.51720691756E+02 -0.19136080148E+02  0.61486133923E+02  0.51100000000E-03 0. -1.
         22    1    1    0    0    0 -0.19215023113E+02 -0.19547751064E+02  0.82410659010E+01  0.28622488572E+02  0.00000000000E+00 0. -1.
</event>
<event>
 5    1  0.1111613E-009  0.9118800E+02  0.7818608E-02  0.1130116E+00
         25   -1    0    0    0    0  0.00000000000E+00  0.00000000000E+00  0.99999998245E-14  0.12500000000E+03  0.12500000000E+03 0.  0.
        -11    1    3    3    0    0 -0.15109669122E+01 -0.45670402190E+02 -0.32157355706E+02  0.55876329367E+02  0.51100000000E-03 0.  1.
         23    2    1    0    0    0 -0.20932737120E+02 -0.20178468521E+02 -0.16897608002E+02  0.91371452137E+02  0.84958007476E+02 0.  0.
         11    1    3    3    0    0 -0.19421770208E+02  0.25491933670E+02  0.15259747704E+02  0.35495122770E+02  0.51100000000E-03 0. -1.
         22    1    1    0    0    0  0.20932737120E+02  0.20178468521E+02  0.16897608002E+02  0.33628547863E+02  0.00000000000E+00 0.  1.
</event>
<event>
 5    1  0.1111613E-009  0.9118800E+02  0.7818608E-02  0.1130116E+00
         25   -1    0    0    0    0  0.00000000000E+00  0.00000000000E+00  0.99999998245E-14  0.12500000000E+03  0.12500000000E+03 0.  0.
        -11    1    3    3    0    0  0.87873292112E+01  0.37881169717E+02 -0.18941386837E+02  0.43254783659E+02  0.51100000000E-03 0.  1.
         23    2    1    0    0    0  0.27499397862E+02 -0.90156645856E+01 -0.87650952041E+01  0.94762176258E+02  0.89808374134E+02 0.  0.
         11    1    3    3    0    0  0.18712068651E+02 -0.46896834302E+02  0.10176291633E+02  0.51507392600E+02  0.51100000000E-03 0. -1.
         22    1    1    0    0    0 -0.27499397862E+02  0.90156645856E+01  0.87650952041E+01  0.30237823742E+02  0.00000000000E+00 0. -1.
</event>
<event>
 5    1  0.1111613E-009  0.9118800E+02  0.7818608E-02  0.1130116E+00
         25   -1    0    0    0    0  0.00000000000E+00  0.00000000000E+00  0.99999998245E-14  0.12500000000E+03  0.12500000000E+03 0.  0.
        -11    1    3    3    0    0 -0.41191003364E+02  0.27181849965E+02  0.37042308986E+02  0.61706437111E+02  0.51100000000E-03 0. -1.
         23    2    1    0    0    0 -0.20849958959E+02  0.74203087992E+01  0.21940235288E+02  0.93836628941E+02  0.88510774685E+02 0.  0.
         11    1    3    3    0    0  0.20341044405E+02 -0.19761541166E+02 -0.15102073699E+02  0.32130191830E+02  0.51100000000E-03 0.  1.
         22    1    1    0    0    0  0.20849958959E+02 -0.74203087992E+01 -0.21940235288E+02  0.31163371059E+02  0.00000000000E+00 0. -1.
</event>
<event>
 5    1  0.1111613E-009  0.9118800E+02  0.7818608E-02  0.1130116E+00
         25   -1    0    0    0    0  0.00000000000E+00  0.00000000000E+00  0.99999998245E-14  0.12500000000E+03  0.12500000000E+03 0.  0.
        -11    1    3    3    0    0  0.27981178366E+02 -0.35368744507E+02  0.23778426222E+02  0.50983408915E+02  0.51100000000E-03 0.  1.
         23    2    1    0    0    0  0.12155694251E+02 -0.16996393320E+02 -0.16754964868E+02  0.98216289720E+02  0.94493769265E+02 0.  0.
         11    1    3    3    0    0 -0.15825484114E+02  0.18372351187E+02 -0.40533391090E+02  0.47232880805E+02  0.51100000000E-03 0. -1.
         22    1    1    0    0    0 -0.12155694251E+02  0.16996393320E+02  0.16754964868E+02  0.26783710280E+02  0.00000000000E+00 0.  1.
</event>
<event>
 5    1  0.1111613E-009  0.9118800E+02  0.7818608E-02  0.1130116E+00
         25   -1    0    0    0    0  0.00000000000E+00  0.00000000000E+00  0.99999998245E-14  0.12500000000E+03  0.12500000000E+03 0.  0.
        -11    1    3    3    0    0  0.36882534337E+02  0.43074692458E+02  0.75302954085E+01  0.57205382777E+02  0.51100000000E-03 0. -1.
         23    2    1    0    0    0  0.66090395042E+01  0.34093965675E+02  0.99461826187E+01  0.88875154709E+02  0.81202146999E+02 0.  0.
         11    1    3    3    0    0 -0.30273494833E+02 -0.89807267833E+01  0.24158872102E+01  0.31669771932E+02  0.51100000000E-03 0.  1.
         22    1    1    0    0    0 -0.66090395042E+01 -0.34093965675E+02 -0.99461826187E+01  0.36124845291E+02  0.00000000000E+00 0. -1.
</event>
<event>
 5    1  0.1111613E-009  0.9118800E+02  0.7818608E-02  0.1130116E+00
         25   -1    0    0    0    0  0.00000000000E+00  0.00000000000E+00  0.99999998245E-14  0.12500000000E+03  0.12500000000E+03 0.  0.
        -11    1    3    3    0    0  0.35117333601E+02  0.30314669045E+01  0.36436177974E+02  0.50695285545E+02  0.51100000000E-03 0. -1.
         23    2    1    0    0    0  0.27259670590E+02  0.88933253502E+01 -0.72139801246E+01  0.95432748087E+02  0.90736911022E+02 0.  0.
         11    1    3    3    0    0 -0.78576630112E+01  0.58618584457E+01 -0.43650158099E+02  0.44737462543E+02  0.51100000000E-03 0.  1.
         22    1    1    0    0    0 -0.27259670590E+02 -0.88933253502E+01  0.72139801246E+01  0.29567251913E+02  0.00000000000E+00 0. -1.
</event>
<event>
 5    1  0.1111613E-009  0.9118800E+02  0.7818608E-02  0.1130116E+00
         25   -1    0    0    0    0  0.00000000000E+00  0.00000000000E+00  0.99999998245E-14  0.12500000000E+03  0.12500000000E+03 0.  0.
        -11    1    3    3    0    0  0.37682398797E+02 -0.82258239448E+01 -0.45391614534E+02  0.59565308939E+02  0.51100000000E-03 0.  1.
         23    2    1    0    0    0  0.16820095998E+02  0.91578976954E+01 -0.12908123942E+02  0.10190449431E+03  0.99252826541E+02 0.  0.
         11    1    3    3    0    0 -0.20862302800E+02  0.17383721640E+02  0.32483490593E+02  0.42339185367E+02  0.51100000000E-03 0. -1.
         22    1    1    0    0    0 -0.16820095998E+02 -0.91578976954E+01  0.12908123942E+02  0.23095505694E+02  0.00000000000E+00 0.  1.
</event>
<event>
 5    1  0.1111613E-009  0.9118800E+02  0.7818608E-02  0.1130116E+00
         25   -1    0    0    0    0  0.00000000000E+00  0.00000000000E+00  0.99999998245E-14  0.12500000000E+03  0.12500000000E+03 0.  0.
        -11    1    3    3    0    0  0.22483740813E+02 -0.39940455764E+01  0.31932768700E+02  0.39257772710E+02  0.51100000000E-03 0.  1.
         23    2    1    0    0    0 -0.11437077433E+02 -0.25683603937E+02 -0.77988983638E+01  0.95823347226E+02  0.91273417853E+02 0.  0.
         11    1    3    3    0    0 -0.33920818246E+02 -0.21689558361E+02 -0.39731667064E+02  0.56565574516E+02  0.51100000000E-03 0. -1.
         22    1    1    0    0    0  0.11437077433E+02  0.25683603937E+02  0.77988983638E+01  0.29176652774E+02  0.00000000000E+00 0. -1.
</event>
<event>
 5    1  0.1111613E-009  0.9118800E+02  0.7818608E-02  0.1130116E+00
         25   -1    0    0    0    0  0.00000000000E+00  0.00000000000E+00  0.99999998245E-14  0.12500000000E+03  0.12500000000E+03 0.  0.
        -11    1    3    3    0    0 -0.16605738447E+02 -0.10803900714E+02  0.22107745195E+02  0.29685471495E+02  0.51100000000E-03 0.  1.
         23    2    1    0    0    0  0.11619551279E+02  0.31760083018E+02 -0.96562502806E+01  0.89829557655E+02  0.82658268877E+02 0.  0.
         11    1    3    3    0    0  0.28225289726E+02  0.42563983732E+02 -0.31763995475E+02  0.60144086161E+02  0.51100000000E-03 0. -1.
         22    1    1    0    0    0 -0.11619551279E+02 -0.31760083018E+02  0.96562502806E+01  0.35170442345E+02  0.00000000000E+00 0. -1.
</event>
<event>
 5    1  0.1111613E-009  0.9118800E+02  0.7818608E-02  0.1130116E+00
         25   -1    0    0    0    0  0.00000000000E+00  0.00000000000E+00  0.99999998245E-14  0.12500000000E+03  0.12500000000E+03 0.  0.
        -11    1    3    3    0    0  0.51547408814E+01 -0.34385011715E+02  0.12765850571E+02  0.37038727371E+02  0.51100000000E-03 0.  1.
         23    2    1    0    0    0  0.22235418795E+02  0.20018101356E+02  0.25006787848E+01  0.94976815205E+02  0.90106624624E+02 0.  0.
         11    1    3    3    0    0  0.17080677913E+02  0.54403113071E+02 -0.10265171786E+02  0.57938087834E+02  0.51100000000E-03 0. -1.
         22    1    1    0    0    0 -0.22235418795E+02 -0.20018101356E+02 -0.25006787848E+01  0.30023184795E+02  0.00000000000E+00 0. -1.
</event>
<event>
 5    1  0.1111613E-009  0.9118800E+02  0.7818608E-02  0.1130116E+00
         25   -1    0    0    0    0  0.00000000000E+00  0.00000000000E+00  0.99999998245E-14  0.12500000000E+03  0.12500000000E+03 0.  0.
        -11    1    3    3    0    0  0.97057369720E+01 -0.50764226446E+02 -0.25251701809E+02  0.57522660416E+02  0.51100000000E-03 0. -1.
         23    2    1    0    0    0  0.16431823881E+01 -0.30592336181E+02  0.41550176837E+01  0.94083091142E+02  0.88858161052E+02 0.  0.
         11    1    3    3    0    0 -0.80625545838E+01  0.20171890266E+02  0.29406719492E+02  0.36560430726E+02  0.51100000000E-03 0.  1.
         22    1    1    0    0    0 -0.16431823881E+01  0.30592336181E+02 -0.41550176837E+01  0.30916908858E+02  0.00000000000E+00 0. -1.
</event>
<event>
 5    1  0.1111613E-009  0.9118800E+02  0.7818608E-02  0.1130116E+00
         25   -1    0    0    0    0  0.00000000000E+00  0.00000000000E+00  0.99999998245E-14  0.12500000000E+03  0.12500000000E+03 0.  0.
        -11    1    3    3    0    0 -0.48641144936E+02  0.13149705426E+02 -0.85970057658E+00  0.50394591166E+02  0.51100000000E-03 0. -1.
         23    2    1    0    0    0 -0.18418922160E+02  0.17930978114E+02 -0.24827519554E+02  0.89262311254E+02  0.81795952305E+02 0.  0.
         11    1    3    3    0    0  0.30222222776E+02  0.47812726883E+01 -0.23967818978E+02  0.38867720088E+02  0.51100000000E-03 0.  1.
         22    1    1    0    0    0  0.18418922160E+02 -0.17930978114E+02  0.24827519554E+02  0.35737688746E+02  0.00000000000E+00 0.  1.
</event>
<event>
 5    1  0.1111613E-009  0.9118800E+02  0.7818608E-02  0.1130116E+00
         25   -1    0    0    0    0  0.00000000000E+00  0.00000000000E+00  0.99999998245E-14  0.12500000000E+03  0.12500000000E+03 0.  0.
        -11    1    3    3    0    0 -0.37148037247E+02 -0.24125788165E+02 -0.17016884443E+02  0.47451076724E+02  0.51100000000E-03 0.  1.
         23    2    1    0    0    0  0.70869158675E+01 -0.55121024942E+01 -0.27066166346E+02  0.96483601015E+02  0.92173207895E+02 0.  0.
         11    1    3    3    0    0  0.44234953115E+02  0.18613685670E+02 -0.10049281903E+02  0.49032524291E+02  0.51100000000E-03 0. -1.
         22    1    1    0    0    0 -0.70869158675E+01  0.55121024942E+01  0.27066166346E+02  0.28516398985E+02  0.00000000000E+00 0. -1.
</event>
<event>
 5    1  0.1111613E-009  0.9118800E+02  0.7818608E-02  0.1130116E+00
         25   -1    0    0    0    0  0.00000000000E+00  0.00000000000E+00  0.99999998245E-14  0.12500000000E+03  0.12500000000E+03 0.  0.
        -11    1    3    3    0    0 -0.29649493778E+02  0.16119410095E+02  0.10788228908E+02  0.35430407087E+02  0.51100000000E-03 0.  1.
         23    2    1    0    0    0  0.18887819173E+02 -0.13080636644E+02 -0.14889047333E+02  0.97622335772E+02  0.93704770118E+02 0.  0.
         11    1    3    3    0    0  0.48537312952E+02 -0.29200046739E+02 -0.25677276240E+02  0.62191928685E+02  0.51100000000E-03 0. -1.
         22    1    1    0    0    0 -0.18887819173E+02  0.13080636644E+02  0.14889047333E+02  0.27377664228E+02  0.00000000000E+00 0. -1.
</event>
<event>
 5    1  0.1111613E-009  0.9118800E+02  0.7818608E-02  0.1130116E+00
         25   -1    0    0    0    0  0.00000000000E+00  0.00000000000E+00  0.99999998245E-14  0.12500000000E+03  0.12500000000E+03 0.  0.
        -11    1    3    3    0    0  0.12059504207E+02 -0.27642893993E+02  0.23557293744E+02  0.38268881860E+02  0.51100000000E-03 0.  1.
         23    2    1    0    0    0  0.73297250224E+01  0.27282270515E+02  0.60583636409E+01  0.96107943594E+02  0.91662347224E+02 0.  0.
         11    1    3    3    0    0 -0.47297791845E+01  0.54925164508E+02 -0.17498930103E+02  0.57839061734E+02  0.51100000000E-03 0. -1.
         22    1    1    0    0    0 -0.73297250224E+01 -0.27282270515E+02 -0.60583636409E+01  0.28892056406E+02  0.00000000000E+00 0. -1.
</event>
<event>
 5    1  0.1111613E-009  0.9118800E+02  0.7818608E-02  0.1130116E+00
         25   -1    0    0    0    0  0.00000000000E+00  0.00000000000E+00  0.99999998245E-14  0.12500000000E+03  0.12500000000E+03 0.  0.
        -11    1    3    3    0    0 -0.61047765216E+02  0.62256724805E+01  0.12783398479E+01  0.61377705959E+02  0.51100000000E-03 0.  1.
         23    2    1    0    0    0 -0.27858127963E+02  0.10969687864E+02 -0.15206715164E+01  0.95021311115E+02  0.90168330242E+02 0.  0.
         11    1    3    3    0    0  0.33189637254E+02  0.47440153835E+01 -0.27990113643E+01  0.33643605156E+02  0.51100000000E-03 0. -1.
         22    1    1    0    0    0  0.27858127963E+02 -0.10969687864E+02  0.15206715164E+01  0.29978688885E+02  0.00000000000E+00 0.  1.
</event>
<event>
 5    1  0.1111613E-009  0.9118800E+02  0.7818608E-02  0.1130116E+00
         25   -1    0    0    0    0  0.00000000000E+00  0.00000000000E+00  0.99999998245E-14  0.12500000000E+03  0.12500000000E+03 0.  0.
        -11    1    3    3    0    0 -0.22475389580E+01 -0.35604078923E+02 -0.10511125781E+02  0.37191203701E+02  0.51100000000E-03 0.  1.
         23    2    1    0    0    0 -0.15174089210E+02  0.15522275696E+02  0.17693870829E+02  0.96995230924E+02  0.92864458922E+02 0.  0.
         11    1    3    3    0    0 -0.12926550252E+02  0.51126354618E+02  0.28204996610E+02  0.59804027222E+02  0.51100000000E-03 0. -1.
         22    1    1    0    0    0  0.15174089210E+02 -0.15522275696E+02 -0.17693870829E+02  0.28004769076E+02  0.00000000000E+00 0. -1.
</event>
<event>
 5    1  0.1111613E-009  0.9118800E+02  0.7818608E-02  0.1130116E+00
         25   -1    0    0    0    0  0.00000000000E+00  0.00000000000E+00  0.99999998245E-14  0.12500000000E+03  0.12500000000E+03 0.  0.
        -11    1    3    3    0    0 -0.22202659685E+02 -0.29988804389E+02  0.32654054065E+02  0.49584006826E+02  0.51100000000E-03 0.  1.
         23    2    1    0    0    0  0.16404324880E+02 -0.21790443191E+01  0.20428481545E+02  0.98709831359E+02  0.95144405195E+02 0.  0.
         11    1    3    3    0    0  0.38606984566E+02  0.27809760069E+02 -0.12225572520E+02  0.49125824533E+02  0.51100000000E-03 0. -1.
         22    1    1    0    0    0 -0.16404324880E+02  0.21790443191E+01 -0.20428481545E+02  0.26290168641E+02  0.00000000000E+00 0.  1.
</event>
<event>
 5    1  0.1111613E-009  0.9118800E+02  0.7818608E-02  0.1130116E+00
         25   -1    0    0    0    0  0.00000000000E+00  0.00000000000E+00  0.99999998245E-14  0.12500000000E+03  0.12500000000E+03 0.  0.
        -11    1    3    3    0    0  0.49500483017E+00 -0.53656417996E+02 -0.47913999168E+01  0.53872198167E+02  0.51100000000E-03 0.  1.
         23    2    1    0    0    0 -0.21299320390E+02 -0.19159698608E+02  0.52019935183E+01  0.95882722717E+02  0.91354697083E+02 0.  0.
         11    1    3    3    0    0 -0.21794325221E+02  0.34496719388E+02  0.99933934351E+01  0.42010524550E+02  0.51100000000E-03 0. -1.
         22    1    1    0    0    0  0.21299320390E+02  0.19159698608E+02 -0.52019935183E+01  0.29117277283E+02  0.00000000000E+00 0.  1.
</event>
<event>
 5    1  0.1111613E-009  0.9118800E+02  0.7818608E-02  0.1130116E+00
         25   -1    0    0    0    0  0.00000000000E+00  0.00000000000E+00  0.99999998245E-14  0.12500000000E+03  0.12500000000E+03 0.  0.
        -11    1    3    3    0    0 -0.34325973198E+02 -0.26556143327E+02 -0.80252971192E+01  0.44135094636E+02  0.51100000000E-03 0. -1.
         23    2    1    0    0    0 -0.10348282249E+02  0.73103824772E+01  0.24870644839E+02  0.97088038188E+02  0.92989298024E+02 0.  0.
         11    1    3    3    0    0  0.23977690949E+02  0.33866525804E+02  0.32895941958E+02  0.52952943553E+02  0.51100000000E-03 0.  1.
         22    1    1    0    0    0  0.10348282249E+02 -0.73103824772E+01 -0.24870644839E+02  0.27911961812E+02  0.00000000000E+00 0.  1.
</event>
<event>
 5    1  0.1111613E-009  0.9118800E+02  0.7818608E-02  0.1130116E+00
         25   -1    0    0    0    0  0.00000000000E+00  0.00000000000E+00  0.99999998245E-14  0.12500000000E+03  0.12500000000E+03 0.  0.
        -11    1    3    3    0    0  0.38435972110E+02  0.18267838080E+02  0.16542878012E+02  0.45658566264E+02  0.51100000000E-03 0.  1.
         23    2    1    0    0    0 -0.11608432744E+01  0.29898842734E+02 -0.84527471216E+01  0.93907600803E+02  0.88610948538E+02 0.  0.
         11    1    3    3    0    0 -0.39596815384E+02  0.11631004654E+02 -0.24995625133E+02  0.48249034539E+02  0.51100000000E-03 0. -1.
         22    1    1    0    0    0  0.11608432744E+01 -0.29898842734E+02  0.84527471216E+01  0.31092399197E+02  0.00000000000E+00 0.  1.
</event>
<event>
 5    1  0.1111613E-009  0.9118800E+02  0.7818608E-02  0.1130116E+00
         25   -1    0    0    0    0  0.00000000000E+00  0.00000000000E+00  0.99999998245E-14  0.12500000000E+03  0.12500000000E+03 0.  0.
        -11    1    3    3    0    0  0.92070976797E+01 -0.51394597781E+02  0.12706399105E+02  0.53736653294E+02  0.51100000000E-03 0.  1.
         23    2    1    0    0    0  0.17130997110E+02 -0.12404735818E+02  0.21881014613E+02  0.94567659748E+02  0.89537226544E+02 0.  0.
         11    1    3    3    0    0  0.79238994300E+01  0.38989861963E+02  0.91746155079E+01  0.40831006454E+02  0.51100000000E-03 0. -1.
         22    1    1    0    0    0 -0.17130997110E+02  0.12404735818E+02 -0.21881014613E+02  0.30432340252E+02  0.00000000000E+00 0.  1.
</event>
<event>
 5    1  0.1111613E-009  0.9118800E+02  0.7818608E-02  0.1130116E+00
         25   -1    0    0    0    0  0.00000000000E+00  0.00000000000E+00  0.99999998245E-14  0.12500000000E+03  0.12500000000E+03 0.  0.
        -11    1    3    3    0    0  0.25313168822E+02  0.11041325716E+02  0.18382145607E+02  0.33174849913E+02  0.51100000000E-03 0.  1.
         23    2    1    0    0    0 -0.18276171589E+02 -0.11452724452E+02 -0.20098575800E+02  0.95518885799E+02  0.90855497631E+02 0.  0.
         11    1    3    3    0    0 -0.43589340411E+02 -0.22494050167E+02 -0.38480721407E+02  0.62344035887E+02  0.51100000000E-03 0. -1.
         22    1    1    0    0    0  0.18276171589E+02  0.11452724452E+02  0.20098575800E+02  0.29481114201E+02  0.00000000000E+00 0. -1.
</event>
<event>
 5    1  0.1111613E-009  0.9118800E+02  0.7818608E-02  0.1130116E+00
         25   -1    0    0    0    0  0.00000000000E+00  0.00000000000E+00  0.99999998245E-14  0.12500000000E+03  0.12500000000E+03 0.  0.
        -11    1    3    3    0    0  0.36641551034E+02  0.26501145214E+02 -0.38361693139E+02  0.59300366446E+02  0.51100000000E-03 0.  1.
         23    2    1    0    0    0  0.16029100793E+02  0.25630610306E+02 -0.12741752002E+02  0.92194322123E+02  0.86160202709E+02 0.  0.
         11    1    3    3    0    0 -0.20612450241E+02 -0.87053490823E+00  0.25619941137E+02  0.32893955677E+02  0.51100000000E-03 0. -1.
         22    1    1    0    0    0 -0.16029100793E+02 -0.25630610306E+02  0.12741752002E+02  0.32805677877E+02  0.00000000000E+00 0.  1.
</event>
<event>
 5    1  0.1111613E-009  0.9118800E+02  0.7818608E-02  0.1130116E+00
         25   -1    0    0    0    0  0.00000000000E+00  0.00000000000E+00  0.99999998245E-14  0.12500000000E+03  0.12500000000E+03 0.  0.
        -11    1    3    3    0    0 -0.21069997223E+02 -0.23621058802E+01 -0.39272954872E+02  0.44630587178E+02  0.51100000000E-03 0.  1.
         23    2    1    0    0    0  0.20207272818E+02  0.14972631624E+02 -0.17078075660E+02  0.94599765778E+02  0.89582037510E+02 0.  0.
         11    1    3    3    0    0  0.41277270042E+02  0.17334737504E+02  0.22194879212E+02  0.49969178600E+02  0.51100000000E-03 0. -1.
         22    1    1    0    0    0 -0.20207272818E+02 -0.14972631624E+02  0.17078075660E+02  0.30400234222E+02  0.00000000000E+00 0. -1.
</event>
<event>
 5    1  0.1111613E-009  0.9118800E+02  0.7818608E-02  0.1130116E+00
         25   -1    0    0    0    0  0.00000000000E+00  0.00000000000E+00  0.99999998245E-14  0.12500000000E+03  0.12500000000E+03 0.  0.
        -11    1    3    3    0    0  0.15356059983E+02 -0.16606381810E+02  0.26401420593E+02  0.34765147844E+02  0.51100000000E-03 0.  1.
         23    2    1    0    0    0 -0.17068835994E+02  0.18453720486E+02 -0.13021216768E+02  0.96690336490E+02  0.92453145552E+02 0.  0.
         11    1    3    3    0    0 -0.32424895977E+02  0.35060102296E+02 -0.39422637361E+02  0.61925188646E+02  0.51100000000E-03 0. -1.
         22    1    1    0    0    0  0.17068835994E+02 -0.18453720486E+02  0.13021216768E+02  0.28309663510E+02  0.00000000000E+00 0. -1.
</event>
<event>
 5    1  0.1111613E-009  0.9118800E+02  0.7818608E-02  0.1130116E+00
         25   -1    0    0    0    0  0.00000000000E+00  0.00000000000E+00  0.99999998245E-14  0.12500000000E+03  0.12500000000E+03 0.  0.
        -11    1    3    3    0    0 -0.10106561019E+02  0.34427941158E+02 -0.93908095736E+01  0.37089257377E+02  0.51100000000E-03 0.  1.
         23    2    1    0    0    0  0.16877184503E+02 -0.54722154870E+01  0.23602002752E+02  0.95473079521E+02  0.90792454974E+02 0.  0.
         11    1    3    3    0    0  0.26983745522E+02 -0.39900156645E+02  0.32992812326E+02  0.58383822144E+02  0.51100000000E-03 0. -1.
         22    1    1    0    0    0 -0.16877184503E+02  0.54722154870E+01 -0.23602002752E+02  0.29526920479E+02  0.00000000000E+00 0. -1.
</event>
<event>
 5    1  0.1111613E-009  0.9118800E+02  0.7818608E-02  0.1130116E+00
         25   -1    0    0    0    0  0.00000000000E+00  0.00000000000E+00  0.99999998245E-14  0.12500000000E+03  0.12500000000E+03 0.  0.
        -11    1    3    3    0    0  0.68072855082E+01  0.47568050342E+02 -0.31785847815E+02  0.57614222818E+02  0.51100000000E-03 0. -1.
         23    2    1    0    0    0  0.14887920828E+02  0.24554705168E+02 -0.18551209977E+01  0.96224572872E+02  0.91821256897E+02 0.  0.
         11    1    3    3    0    0  0.80806353196E+01 -0.23013345174E+02  0.29930726818E+02  0.38610350055E+02  0.51100000000E-03 0.  1.
         22    1    1    0    0    0 -0.14887920828E+02 -0.24554705168E+02  0.18551209977E+01  0.28775427128E+02  0.00000000000E+00 0. -1.
</event>
<event>
 5    1  0.1111613E-009  0.9118800E+02  0.7818608E-02  0.1130116E+00
         25   -1    0    0    0    0  0.00000000000E+00  0.00000000000E+00  0.99999998245E-14  0.12500000000E+03  0.12500000000E+03 0.  0.
        -11    1    3    3    0    0  0.35893212215E+02 -0.13105592782E+02  0.30244716479E+01  0.38330492748E+02  0.51100000000E-03 0.  1.
         23    2    1    0    0    0  0.11365833610E+02  0.13057539290E+02 -0.32100744634E+02  0.88528924995E+02  0.80667411318E+02 0.  0.
         11    1    3    3    0    0 -0.24527378605E+02  0.26163132072E+02 -0.35125216282E+02  0.50198432248E+02  0.51100000000E-03 0. -1.
         22    1    1    0    0    0 -0.11365833610E+02 -0.13057539290E+02  0.32100744634E+02  0.36471075005E+02  0.00000000000E+00 0. -1.
</event>
<event>
 5    1  0.1111613E-009  0.9118800E+02  0.7818608E-02  0.1130116E+00
         25   -1    0    0    0    0  0.00000000000E+00  0.00000000000E+00  0.99999998245E-14  0.12500000000E+03  0.12500000000E+03 0.  0.
        -11    1    3    3    0    0  0.11049551598E+01  0.19739338173E+02 -0.39387642669E+02  0.44070951802E+02  0.51100000000E-03 0.  1.
         23    2    1    0    0    0 -0.35517100071E+00  0.28082868752E+02  0.10756521008E+02  0.94925485740E+02  0.90035389903E+02 0.  0.
         11    1    3    3    0    0 -0.14601261605E+01  0.83435305792E+01  0.50144163677E+02  0.50854533938E+02  0.51100000000E-03 0. -1.
         22    1    1    0    0    0  0.35517100071E+00 -0.28082868752E+02 -0.10756521008E+02  0.30074514260E+02  0.00000000000E+00 0. -1.
</event>
<event>
 5    1  0.1111613E-009  0.9118800E+02  0.7818608E-02  0.1130116E+00
         25   -1    0    0    0    0  0.00000000000E+00  0.00000000000E+00  0.99999998245E-14  0.12500000000E+03  0.12500000000E+03 0.  0.
        -11    1    3    3    0    0  0.18198383007E+02 -0.38944714194E+02  0.27720918147E+01  0.43076169757E+02  0.51100000000E-03 0.  1.
         23    2    1    0    0    0  0.32293106227E+02  0.57305912515E+01  0.10515671173E+02  0.90557820538E+02  0.83752344053E+02 0.  0.
         11    1    3    3    0    0  0.14094723221E+02  0.44675305445E+02  0.77435793582E+01  0.47481650780E+02  0.51100000000E-03 0. -1.
         22    1    1    0    0    0 -0.32293106227E+02 -0.57305912515E+01 -0.10515671173E+02  0.34442179462E+02  0.00000000000E+00 0. -1.
</event>
<event>
 5    1  0.1111613E-009  0.9118800E+02  0.7818608E-02  0.1130116E+00
         25   -1    0    0    0    0  0.00000000000E+00  0.00000000000E+00  0.99999998245E-14  0.12500000000E+03  0.12500000000E+03 0.  0.
        -11    1    3    3    0    0  0.48404987733E+02  0.13959903833E+02 -0.27822815654E+02  0.57550246078E+02  0.51100000000E-03 0. -1.
         23    2    1    0    0    0  0.28258001195E+02  0.80221665360E+01  0.36619860133E+01  0.95397974241E+02  0.90688993601E+02 0.  0.
         11    1    3    3    0    0 -0.20146986539E+02 -0.59377372971E+01  0.31484801667E+02  0.37847728163E+02  0.51100000000E-03 0.  1.
         22    1    1    0    0    0 -0.28258001195E+02 -0.80221665360E+01 -0.36619860133E+01  0.29602025759E+02  0.00000000000E+00 0. -1.
</event>
<event>
 5    1  0.1111613E-009  0.9118800E+02  0.7818608E-02  0.1130116E+00
         25   -1    0    0    0    0  0.00000000000E+00  0.00000000000E+00  0.99999998245E-14  0.12500000000E+03  0.12500000000E+03 0.  0.
        -11    1    3    3    0    0  0.17819134901E+02 -0.10517920098E+02  0.34026443089E+02  0.39823950600E+02  0.51100000000E-03 0.  1.
         23    2    1    0    0    0 -0.14924902798E+00 -0.17355452129E+02 -0.20792068863E+02  0.97915980330E+02  0.94095669839E+02 0.  0.
         11    1    3    3    0    0 -0.17968383929E+02 -0.68375320315E+01 -0.54818511952E+02  0.58092029730E+02  0.51100000000E-03 0. -1.
         22    1    1    0    0    0  0.14924902798E+00  0.17355452129E+02  0.20792068863E+02  0.27084019670E+02  0.00000000000E+00 0. -1.
</event>
<event>
 5    1  0.1111613E-009  0.9118800E+02  0.7818608E-02  0.1130116E+00
         25   -1    0    0    0    0  0.00000000000E+00  0.00000000000E+00  0.99999998245E-14  0.12500000000E+03  0.12500000000E+03 0.  0.
        -11    1    3    3    0    0  0.26451706406E+02  0.32083629464E+02 -0.44952341776E+01  0.41824145920E+02  0.51100000000E-03 0. -1.
         23    2    1    0    0    0  0.37043415365E+01 -0.39378635710E+01  0.28676593321E+02  0.95818226232E+02  0.91266404323E+02 0.  0.
         11    1    3    3    0    0 -0.22747364869E+02 -0.36021493035E+02  0.33171827499E+02  0.53994080313E+02  0.51100000000E-03 0.  1.
         22    1    1    0    0    0 -0.37043415365E+01  0.39378635710E+01 -0.28676593321E+02  0.29181773768E+02  0.00000000000E+00 0.  1.
</event>
<event>
 5    1  0.1111613E-009  0.9118800E+02  0.7818608E-02  0.1130116E+00
         25   -1    0    0    0    0  0.00000000000E+00  0.00000000000E+00  0.99999998245E-14  0.12500000000E+03  0.12500000000E+03 0.  0.
        -11    1    3    3    0    0  0.27711857775E+02  0.22312205741E+02 -0.25747258939E+01  0.35670867666E+02  0.51100000000E-03 0. -1.
         23    2    1    0    0    0 -0.21608506344E+02 -0.44174748363E+00  0.20984016485E+02  0.94876062091E+02  0.89966746762E+02 0.  0.
         11    1    3    3    0    0 -0.49320364119E+02 -0.22753953224E+02  0.23558742379E+02  0.59205194425E+02  0.51100000000E-03 0.  1.
         22    1    1    0    0    0  0.21608506344E+02  0.44174748363E+00 -0.20984016485E+02  0.30123937909E+02  0.00000000000E+00 0.  1.
</event>
<event>
 5    1  0.1111613E-009  0.9118800E+02  0.7818608E-02  0.1130116E+00
         25   -1    0    0    0    0  0.00000000000E+00  0.00000000000E+00  0.99999998245E-14  0.12500000000E+03  0.12500000000E+03 0.  0.
        -11    1    3    3    0    0 -0.93562910618E+01 -0.58149229886E+02 -0.10041311221E+02  0.59746975238E+02  0.51100000000E-03 0.  1.
         23    2    1    0    0    0 -0.13754063655E+02 -0.22701069303E+02 -0.12719297056E+02  0.95567138567E+02  0.90921860087E+02 0.  0.
         11    1    3    3    0    0 -0.43977725929E+01  0.35448160583E+02 -0.26779858351E+01  0.35820163329E+02  0.51100000000E-03 0. -1.
         22    1    1    0    0    0  0.13754063655E+02  0.22701069303E+02  0.12719297056E+02  0.29432861433E+02  0.00000000000E+00 0.  1.
</event>
<event>
 5    1  0.1111613E-009  0.9118800E+02  0.7818608E-02  0.1130116E+00
         25   -1    0    0    0    0  0.00000000000E+00  0.00000000000E+00  0.99999998245E-14  0.12500000000E+03  0.12500000000E+03 0.  0.
        -11    1    3    3    0    0  0.33527775463E+00 -0.35183342927E+02 -0.15011367563E+02  0.38253381380E+02  0.51100000000E-03 0.  1.
         23    2    1    0    0    0 -0.42440758690E+01 -0.56421562176E+01  0.31045752523E+02  0.93161582067E+02  0.87552244499E+02 0.  0.
         11    1    3    3    0    0 -0.45793536236E+01  0.29541186709E+02  0.46057120086E+02  0.54908200687E+02  0.51100000000E-03 0. -1.
         22    1    1    0    0    0  0.42440758690E+01  0.56421562176E+01 -0.31045752523E+02  0.31838417933E+02  0.00000000000E+00 0. -1.
</event>
<event>
 5    1  0.1111613E-009  0.9118800E+02  0.7818608E-02  0.1130116E+00
         25   -1    0    0    0    0  0.00000000000E+00  0.00000000000E+00  0.99999998245E-14  0.12500000000E+03  0.12500000000E+03 0.  0.
        -11    1    3    3    0    0 -0.27062630087E+01  0.40266515918E+02  0.19282770759E+01  0.40403396100E+02  0.51100000000E-03 0. -1.
         23    2    1    0    0    0 -0.16890831643E+01 -0.66964411282E+01  0.29385784140E+02  0.94813585254E+02  0.89879899385E+02 0.  0.
         11    1    3    3    0    0  0.10171798444E+01 -0.46962957046E+02  0.27457507064E+02  0.54410189154E+02  0.51100000000E-03 0.  1.
         22    1    1    0    0    0  0.16890831643E+01  0.66964411282E+01 -0.29385784140E+02  0.30186414746E+02  0.00000000000E+00 0.  1.
</event>
<event>
 5    1  0.1111613E-009  0.9118800E+02  0.7818608E-02  0.1130116E+00
         25   -1    0    0    0    0  0.00000000000E+00  0.00000000000E+00  0.99999998245E-14  0.12500000000E+03  0.12500000000E+03 0.  0.
        -11    1    3    3    0    0  0.26234755668E+02  0.24918887850E+02  0.28329411590E+02  0.45953987182E+02  0.51100000000E-03 0. -1.
         23    2    1    0    0    0 -0.17169899177E+02  0.22831928689E+02  0.29417842028E+01  0.96281425876E+02  0.91898620604E+02 0.  0.
         11    1    3    3    0    0 -0.43404654846E+02 -0.20869591612E+01 -0.25387627387E+02  0.50327438693E+02  0.51100000000E-03 0.  1.
         22    1    1    0    0    0  0.17169899177E+02 -0.22831928689E+02 -0.29417842028E+01  0.28718574124E+02  0.00000000000E+00 0. -1.
</event>
<event>
 5    1  0.1111613E-009  0.9118800E+02  0.7818608E-02  0.1130116E+00
         25   -1    0    0    0    0  0.00000000000E+00  0.00000000000E+00  0.99999998245E-14  0.12500000000E+03  0.12500000000E+03 0.  0.
        -11    1    3    3    0    0 -0.25428150376E+02 -0.24866060694E+02 -0.23382539957E+02  0.42563540514E+02  0.51100000000E-03 0. -1.
         23    2    1    0    0    0  0.58850331143E+01  0.19245529293E+02 -0.19784109427E+02  0.96778820040E+02  0.92572701213E+02 0.  0.
         11    1    3    3    0    0  0.31313183491E+02  0.44111589987E+02  0.35984305303E+01  0.54215279526E+02  0.51100000000E-03 0.  1.
         22    1    1    0    0    0 -0.58850331143E+01 -0.19245529293E+02  0.19784109427E+02  0.28221179960E+02  0.00000000000E+00 0.  1.
</event>
<event>
 5    1  0.1111613E-009  0.9118800E+02  0.7818608E-02  0.1130116E+00
         25   -1    0    0    0    0  0.00000000000E+00  0.00000000000E+00  0.99999998245E-14  0.12500000000E+03  0.12500000000E+03 0.  0.
        -11    1    3    3    0    0  0.34888109915E+02 -0.13900646539E+02  0.42000726674E+02  0.56342428321E+02  0.51100000000E-03 0. -1.
         23    2    1    0    0    0  0.31098721051E+02 -0.36810629735E+00  0.83680739945E+01  0.92793003623E+02  0.87024427064E+02 0.  0.
         11    1    3    3    0    0 -0.37893888640E+01  0.13532540241E+02 -0.33632652680E+02  0.36450575303E+02  0.51100000000E-03 0.  1.
         22    1    1    0    0    0 -0.31098721051E+02  0.36810629735E+00 -0.83680739945E+01  0.32206996377E+02  0.00000000000E+00 0. -1.
</event>
<event>
 5    1  0.1111613E-009  0.9118800E+02  0.7818608E-02  0.1130116E+00
         25   -1    0    0    0    0  0.00000000000E+00  0.00000000000E+00  0.99999998245E-14  0.12500000000E+03  0.12500000000E+03 0.  0.
        -11    1    3    3    0    0  0.98387208319E+01  0.61495481914E+01 -0.29023449584E+02  0.31256647238E+02  0.51100000000E-03 0. -1.
         23    2    1    0    0    0 -0.20027416692E+01 -0.15557180176E+02  0.27717925221E+02  0.93151605883E+02  0.87538000153E+02 0.  0.
         11    1    3    3    0    0 -0.11841462501E+02 -0.21706728368E+02  0.56741374805E+02  0.61894958645E+02  0.51100000000E-03 0.  1.
         22    1    1    0    0    0  0.20027416692E+01  0.15557180176E+02 -0.27717925221E+02  0.31848394117E+02  0.00000000000E+00 0.  1.
</event>
<event>
 5    1  0.1111613E-009  0.9118800E+02  0.7818608E-02  0.1130116E+00
         25   -1    0    0    0    0  0.00000000000E+00  0.00000000000E+00  0.99999998245E-14  0.12500000000E+03  0.12500000000E+03 0.  0.
        -11    1    3    3    0    0  0.21519884881E+02 -0.20461885165E+02  0.44519424871E+02  0.53514235311E+02  0.51100000000E-03 0.  1.
         23    2    1    0    0    0  0.23854425796E+02  0.91493840051E+01  0.15090810247E+02  0.95327160371E+02  0.90591335639E+02 0.  0.
         11    1    3    3    0    0  0.23345409151E+01  0.29611269170E+02 -0.29428614624E+02  0.41812925061E+02  0.51100000000E-03 0. -1.
         22    1    1    0    0    0 -0.23854425796E+02 -0.91493840051E+01 -0.15090810247E+02  0.29672839629E+02  0.00000000000E+00 0.  1.
</event>
<event>
 5    1  0.1111613E-009  0.9118800E+02  0.7818608E-02  0.1130116E+00
         25   -1    0    0    0    0  0.00000000000E+00  0.00000000000E+00  0.99999998245E-14  0.12500000000E+03  0.12500000000E+03 0.  0.
        -11    1    3    3    0    0  0.15304866130E+02  0.97928408767E+01 -0.31902074668E+02  0.36713499262E+02  0.51100000000E-03 0. -1.
         23    2    1    0    0    0 -0.20012936634E+02 -0.20088222154E+02  0.53916453790E+01  0.96136110069E+02  0.91700749819E+02 0.  0.
         11    1    3    3    0    0 -0.35317802764E+02 -0.29881063031E+02  0.37293720047E+02  0.59422610807E+02  0.51100000000E-03 0.  1.
         22    1    1    0    0    0  0.20012936634E+02  0.20088222154E+02 -0.53916453790E+01  0.28863889931E+02  0.00000000000E+00 0.  1.
</event>
<event>
 5    1  0.1111613E-009  0.9118800E+02  0.7818608E-02  0.1130116E+00
         25   -1    0    0    0    0  0.00000000000E+00  0.00000000000E+00  0.99999998245E-14  0.12500000000E+03  0.12500000000E+03 0.  0.
        -11    1    3    3    0    0  0.44003584736E+02  0.99735777642E+01 -0.91547400111E+01  0.46039081094E+02  0.51100000000E-03 0. -1.
         23    2    1    0    0    0  0.22421158009E+02 -0.30101347469E+00  0.27324855012E+02  0.89652487541E+02  0.82390059384E+02 0.  0.
         11    1    3    3    0    0 -0.21582426727E+02 -0.10274591239E+02  0.36479595024E+02  0.43613406447E+02  0.51100000000E-03 0.  1.
         22    1    1    0    0    0 -0.22421158009E+02  0.30101347469E+00 -0.27324855012E+02  0.35347512459E+02  0.00000000000E+00 0.  1.
</event>
<event>
 5    1  0.1111613E-009  0.9118800E+02  0.7818608E-02  0.1130116E+00
         25   -1    0    0    0    0  0.00000000000E+00  0.00000000000E+00  0.99999998245E-14  0.12500000000E+03  0.12500000000E+03 0.  0.
        -11    1    3    3    0    0 -0.47046992730E+02  0.32008371427E+02 -0.45132626444E+01  0.57081738816E+02  0.51100000000E-03 0.  1.
         23    2    1    0    0    0 -0.13719440691E+02  0.20023044784E+02 -0.17790751085E+02  0.94905877660E+02  0.90008163046E+02 0.  0.
         11    1    3    3    0    0  0.33327552039E+02 -0.11985326643E+02 -0.13277488440E+02  0.37824138843E+02  0.51100000000E-03 0. -1.
         22    1    1    0    0    0  0.13719440691E+02 -0.20023044784E+02  0.17790751085E+02  0.30094122340E+02  0.00000000000E+00 0.  1.
</event>
<event>
 5    1  0.1111613E-009  0.9118800E+02  0.7818608E-02  0.1130116E+00
         25   -1    0    0    0    0  0.00000000000E+00  0.00000000000E+00  0.99999998245E-14  0.12500000000E+03  0.12500000000E+03 0.  0.
        -11    1    3    3    0    0 -0.29032030098E+02  0.43055653507E+02 -0.86429426720E+01  0.52643599124E+02  0.51100000000E-03 0.  1.
         23    2    1    0    0    0  0.10397377942E+02  0.27246214675E+02 -0.61394228400E+01  0.95198084039E+02  0.90413057739E+02 0.  0.
         11    1    3    3    0    0  0.39429408039E+02 -0.15809438832E+02  0.25035198320E+01  0.42554484914E+02  0.51100000000E-03 0. -1.
         22    1    1    0    0    0 -0.10397377942E+02 -0.27246214675E+02  0.61394228400E+01  0.29801915961E+02  0.00000000000E+00 0.  1.
</event>
<event>
 5    1  0.1111613E-009  0.9118800E+02  0.7818608E-02  0.1130116E+00
         25   -1    0    0    0    0  0.00000000000E+00  0.00000000000E+00  0.99999998245E-14  0.12500000000E+03  0.12500000000E+03 0.  0.
        -11    1    3    3    0    0  0.26053195546E+02  0.31940479405E+02 -0.14578323585E+02  0.43720598596E+02  0.51100000000E-03 0. -1.
         23    2    1    0    0    0  0.10992780302E+02  0.59568451161E+01  0.27136374683E+02  0.95121779614E+02  0.90307501922E+02 0.  0.
         11    1    3    3    0    0 -0.15060415244E+02 -0.25983634289E+02  0.41714698268E+02  0.51401181018E+02  0.51100000000E-03 0.  1.
         22    1    1    0    0    0 -0.10992780302E+02 -0.59568451161E+01 -0.27136374683E+02  0.29878220386E+02  0.00000000000E+00 0.  1.
</event>
<event>
 5    1  0.1111613E-009  0.9118800E+02  0.7818608E-02  0.1130116E+00
         25   -1    0    0    0    0  0.00000000000E+00  0.00000000000E+00  0.99999998245E-14  0.12500000000E+03  0.12500000000E+03 0.  0.
        -11    1    3    3    0    0 -0.32160499260E+02  0.15572450040E+02 -0.34286441899E+01  0.35896441525E+02  0.51100000000E-03 0.  1.
         23    2    1    0    0    0  0.20125867661E+02 -0.13898188018E+02 -0.13967305789E+02  0.96834492543E+02  0.92647844744E+02 0.  0.
         11    1    3    3    0    0  0.52286366921E+02 -0.29470638057E+02 -0.10538661600E+02  0.60938051018E+02  0.51100000000E-03 0. -1.
         22    1    1    0    0    0 -0.20125867661E+02  0.13898188018E+02  0.13967305789E+02  0.28165507457E+02  0.00000000000E+00 0. -1.
</event>
<event>
 5    1  0.1111613E-009  0.9118800E+02  0.7818608E-02  0.1130116E+00
         25   -1    0    0    0    0  0.00000000000E+00  0.00000000000E+00  0.99999998245E-14  0.12500000000E+03  0.12500000000E+03 0.  0.
        -11    1    3    3    0    0 -0.34221332702E+02  0.36527928263E+02  0.36366450930E+02  0.61870088966E+02  0.51100000000E-03 0. -1.
         23    2    1    0    0    0 -0.17362842280E+02  0.26702845697E+02  0.19564391033E+02  0.87619849427E+02  0.79246213517E+02 0.  0.
         11    1    3    3    0    0  0.16858490422E+02 -0.98250825664E+01 -0.16802059897E+02  0.25749760461E+02  0.51100000000E-03 0.  1.
         22    1    1    0    0    0  0.17362842280E+02 -0.26702845697E+02 -0.19564391033E+02  0.37380150573E+02  0.00000000000E+00 0. -1.
</event>
<event>
 5    1  0.1111613E-009  0.9118800E+02  0.7818608E-02  0.1130116E+00
         25   -1    0    0    0    0  0.00000000000E+00  0.00000000000E+00  0.99999998245E-14  0.12500000000E+03  0.12500000000E+03 0.  0.
        -11    1    3    3    0    0  0.57089876515E+02  0.24685538333E+02  0.49797119311E+01  0.62397334354E+02  0.51100000000E-03 0.  1.
         23    2    1    0    0    0  0.29920016189E+02  0.15132154630E+02  0.11498883339E+01  0.91451352998E+02  0.85075485597E+02 0.  0.
         11    1    3    3    0    0 -0.27169860326E+02 -0.95533837030E+01 -0.38298235972E+01  0.29054018644E+02  0.51100000000E-03 0. -1.
         22    1    1    0    0    0 -0.29920016189E+02 -0.15132154630E+02 -0.11498883339E+01  0.33548647002E+02  0.00000000000E+00 0.  1.
</event>
<event>
 5    1  0.1111613E-009  0.9118800E+02  0.7818608E-02  0.1130116E+00
         25   -1    0    0    0    0  0.00000000000E+00  0.00000000000E+00  0.99999998245E-14  0.12500000000E+03  0.12500000000E+03 0.  0.
        -11    1    3    3    0    0  0.42508319061E+02 -0.35472568755E+01 -0.10946043313E+02  0.44038120818E+02  0.51100000000E-03 0.  1.
         23    2    1    0    0    0  0.97779792817E+01  0.30190792128E+02  0.31434858120E+01  0.93109965330E+02  0.87478519264E+02 0.  0.
         11    1    3    3    0    0 -0.32730339779E+02  0.33738049004E+02  0.14089529125E+02  0.49071844513E+02  0.51100000000E-03 0. -1.
         22    1    1    0    0    0 -0.97779792817E+01 -0.30190792128E+02 -0.31434858120E+01  0.31890034670E+02  0.00000000000E+00 0. -1.
</event>
<event>
 5    1  0.1111613E-009  0.9118800E+02  0.7818608E-02  0.1130116E+00
         25   -1    0    0    0    0  0.00000000000E+00  0.00000000000E+00  0.99999998245E-14  0.12500000000E+03  0.12500000000E+03 0.  0.
        -11    1    3    3    0    0 -0.60389819474E+01  0.39212571461E+02  0.74566805955E+01  0.40369507667E+02  0.51100000000E-03 0.  1.
         23    2    1    0    0    0  0.27051905868E+02 -0.10785381065E+01 -0.11139150885E+02  0.95724591583E+02  0.91138070507E+02 0.  0.
         11    1    3    3    0    0  0.33090887816E+02 -0.40291109567E+02 -0.18595831481E+02  0.55355083916E+02  0.51100000000E-03 0. -1.
         22    1    1    0    0    0 -0.27051905868E+02  0.10785381065E+01  0.11139150885E+02  0.29275408417E+02  0.00000000000E+00 0.  1.
</event>
<event>
 5    1  0.1111613E-009  0.9118800E+02  0.7818608E-02  0.1130116E+00
         25   -1    0    0    0    0  0.00000000000E+00  0.00000000000E+00  0.99999998245E-14  0.12500000000E+03  0.12500000000E+03 0.  0.
        -11    1    3    3    0    0  0.30555215288E+02 -0.57440842672E+01 -0.21999745405E+02  0.38086801960E+02  0.51100000000E-03 0.  1.
         23    2    1    0    0    0  0.77522263356E+00  0.14173921960E+02  0.24437862178E+02  0.96738539640E+02  0.92518295002E+02 0.  0.
         11    1    3    3    0    0 -0.29779992655E+02  0.19918006227E+02  0.46437607583E+02  0.58651737680E+02  0.51100000000E-03 0. -1.
         22    1    1    0    0    0 -0.77522263356E+00 -0.14173921960E+02 -0.24437862178E+02  0.28261460360E+02  0.00000000000E+00 0. -1.
</event>
<event>
 5    1  0.1111613E-009  0.9118800E+02  0.7818608E-02  0.1130116E+00
         25   -1    0    0    0    0  0.00000000000E+00  0.00000000000E+00  0.99999998245E-14  0.12500000000E+03  0.12500000000E+03 0.  0.
        -11    1    3    3    0    0  0.40216727312E+02 -0.29751985628E+02  0.29156224175E+02  0.57902082976E+02  0.51100000000E-03 0. -1.
         23    2    1    0    0    0  0.45692634429E+01 -0.23223309075E+02  0.15880423233E+02  0.96497577386E+02  0.92192159897E+02 0.  0.
         11    1    3    3    0    0 -0.35647463869E+02  0.65286765532E+01 -0.13275800941E+02  0.38595494410E+02  0.51100000000E-03 0.  1.
         22    1    1    0    0    0 -0.45692634429E+01  0.23223309075E+02 -0.15880423233E+02  0.28502422614E+02  0.00000000000E+00 0. -1.
</event>
<event>
 5    1  0.1111613E-009  0.9118800E+02  0.7818608E-02  0.1130116E+00
         25   -1    0    0    0    0  0.00000000000E+00  0.00000000000E+00  0.99999998245E-14  0.12500000000E+03  0.12500000000E+03 0.  0.
        -11    1    3    3    0    0 -0.11390493233E+02  0.40372074257E+02  0.40896183768E+02  0.58584516410E+02  0.51100000000E-03 0.  1.
         23    2    1    0    0    0 -0.23837896937E+01  0.56234753730E+01  0.27388520839E+02  0.96938692077E+02  0.92788323723E+02 0.  0.
         11    1    3    3    0    0  0.90067035393E+01 -0.34748598884E+02 -0.13507662928E+02  0.38354175667E+02  0.51100000000E-03 0. -1.
         22    1    1    0    0    0  0.23837896937E+01 -0.56234753730E+01 -0.27388520839E+02  0.28061307923E+02  0.00000000000E+00 0.  1.
</event>
<event>
 5    1  0.1111613E-009  0.9118800E+02  0.7818608E-02  0.1130116E+00
         25   -1    0    0    0    0  0.00000000000E+00  0.00000000000E+00  0.99999998245E-14  0.12500000000E+03  0.12500000000E+03 0.  0.
        -11    1    3    3    0    0 -0.16102191394E+01  0.13087047112E+02 -0.52551282570E+02  0.54180263083E+02  0.51100000000E-03 0. -1.
         23    2    1    0    0    0 -0.13993690419E+02  0.22196586666E+02 -0.14955517282E+02  0.94797693328E+02  0.89857795054E+02 0.  0.
         11    1    3    3    0    0 -0.12383471279E+02  0.91095395538E+01  0.37595765288E+02  0.40617430244E+02  0.51100000000E-03 0.  1.
         22    1    1    0    0    0  0.13993690419E+02 -0.22196586666E+02  0.14955517282E+02  0.30202306672E+02  0.00000000000E+00 0. -1.
</event>
<event>
 5    1  0.1111613E-009  0.9118800E+02  0.7818608E-02  0.1130116E+00
         25   -1    0    0    0    0  0.00000000000E+00  0.00000000000E+00  0.99999998245E-14  0.12500000000E+03  0.12500000000E+03 0.  0.
        -11    1    3    3    0    0  0.48355253425E+02 -0.15509228326E+02  0.29280967311E+02  0.58618612607E+02  0.51100000000E-03 0.  1.
         23    2    1    0    0    0  0.18363053447E+02 -0.33722389920E+01 -0.49135559223E+01  0.10569412630E+03  0.10391598325E+03 0.  0.
         11    1    3    3    0    0 -0.29992199978E+02  0.12136989334E+02 -0.34194523233E+02  0.47075513688E+02  0.51100000000E-03 0. -1.
         22    1    1    0    0    0 -0.18363053447E+02  0.33722389920E+01  0.49135559223E+01  0.19305873705E+02  0.00000000000E+00 0.  1.
</event>
<event>
 5    1  0.1111613E-009  0.9118800E+02  0.7818608E-02  0.1130116E+00
         25   -1    0    0    0    0  0.00000000000E+00  0.00000000000E+00  0.99999998245E-14  0.12500000000E+03  0.12500000000E+03 0.  0.
        -11    1    3    3    0    0 -0.16107399467E+02  0.34308122323E+02  0.46208990075E+01  0.38181779461E+02  0.51100000000E-03 0.  1.
         23    2    1    0    0    0  0.20444249370E+02 -0.71060764330E+00 -0.21651481158E+02  0.95213108053E+02  0.90433826709E+02 0.  0.
         11    1    3    3    0    0  0.36551648837E+02 -0.35018729966E+02 -0.26272380165E+02  0.57031328592E+02  0.51100000000E-03 0. -1.
         22    1    1    0    0    0 -0.20444249370E+02  0.71060764330E+00  0.21651481158E+02  0.29786891947E+02  0.00000000000E+00 0. -1.
</event>
<event>
 5    1  0.1111613E-009  0.9118800E+02  0.7818608E-02  0.1130116E+00
         25   -1    0    0    0    0  0.00000000000E+00  0.00000000000E+00  0.99999998245E-14  0.12500000000E+03  0.12500000000E+03 0.  0.
        -11    1    3    3    0    0 -0.35965426890E+02  0.91612055663E+00  0.47531416662E+00  0.35980232519E+02  0.51100000000E-03 0.  1.
         23    2    1    0    0    0  0.25594945935E+02  0.71925250626E+01 -0.44021728727E+01  0.98051664241E+02  0.94275744813E+02 0.  0.
         11    1    3    3    0    0  0.61560372825E+02  0.62764045060E+01 -0.48774870393E+01  0.62071431722E+02  0.51100000000E-03 0. -1.
         22    1    1    0    0    0 -0.25594945935E+02 -0.71925250626E+01  0.44021728727E+01  0.26948335759E+02  0.00000000000E+00 0. -1.
</event>
<event>
 5    1  0.1111613E-009  0.9118800E+02  0.7818608E-02  0.1130116E+00
         25   -1    0    0    0    0  0.00000000000E+00  0.00000000000E+00  0.99999998245E-14  0.12500000000E+03  0.12500000000E+03 0.  0.
        -11    1    3    3    0    0 -0.25614527245E+02 -0.51891002200E+01 -0.22119540248E+02  0.34238937310E+02  0.51100000000E-03 0. -1.
         23    2    1    0    0    0  0.17164024681E+02 -0.11403741129E+02  0.21198564258E+02  0.95436032377E+02  0.90741435377E+02 0.  0.
         11    1    3    3    0    0  0.42778551926E+02 -0.62146409088E+01  0.43318104505E+02  0.61197095068E+02  0.51100000000E-03 0.  1.
         22    1    1    0    0    0 -0.17164024681E+02  0.11403741129E+02 -0.21198564258E+02  0.29563967623E+02  0.00000000000E+00 0.  1.
</event>
<event>
 5    1  0.1111613E-009  0.9118800E+02  0.7818608E-02  0.1130116E+00
         25   -1    0    0    0    0  0.00000000000E+00  0.00000000000E+00  0.99999998245E-14  0.12500000000E+03  0.12500000000E+03 0.  0.
        -11    1    3    3    0    0  0.11230387749E+02 -0.21121645685E+02 -0.32582170732E+02  0.40420828484E+02  0.51100000000E-03 0. -1.
         23    2    1    0    0    0  0.18758716728E+02  0.21559711346E+02  0.26836054618E+01  0.96296126657E+02  0.91918614352E+02 0.  0.
         11    1    3    3    0    0  0.75283289793E+01  0.42681357031E+02  0.35265776194E+02  0.55875298174E+02  0.51100000000E-03 0.  1.
         22    1    1    0    0    0 -0.18758716728E+02 -0.21559711346E+02 -0.26836054618E+01  0.28703873343E+02  0.00000000000E+00 0.  1.
</event>
<event>
 5    1  0.1111613E-009  0.9118800E+02  0.7818608E-02  0.1130116E+00
         25   -1    0    0    0    0  0.00000000000E+00  0.00000000000E+00  0.99999998245E-14  0.12500000000E+03  0.12500000000E+03 0.  0.
        -11    1    3    3    0    0 -0.16212342459E+02 -0.81313154199E+01  0.57693565373E+02  0.60477316608E+02  0.51100000000E-03 0. -1.
         23    2    1    0    0    0  0.33854329261E+01 -0.49910941357E+01  0.29083018371E+02  0.95298246949E+02  0.90551431447E+02 0.  0.
         11    1    3    3    0    0  0.19597775385E+02  0.31402212842E+01 -0.28610547002E+02  0.34820930340E+02  0.51100000000E-03 0.  1.
         22    1    1    0    0    0 -0.33854329261E+01  0.49910941357E+01 -0.29083018371E+02  0.29701753051E+02  0.00000000000E+00 0. -1.
</event>
<event>
 5    1  0.1111613E-009  0.9118800E+02  0.7818608E-02  0.1130116E+00
         25   -1    0    0    0    0  0.00000000000E+00  0.00000000000E+00  0.99999998245E-14  0.12500000000E+03  0.12500000000E+03 0.  0.
        -11    1    3    3    0    0  0.19846339455E+02  0.38677487438E+02  0.42552480147E+01  0.43679885075E+02  0.51100000000E-03 0. -1.
         23    2    1    0    0    0  0.28187941278E+01  0.72313079675E+00 -0.28329454902E+02  0.96521472413E+02  0.92224552605E+02 0.  0.
         11    1    3    3    0    0 -0.17027545327E+02 -0.37954356641E+02 -0.32584702917E+02  0.52841587338E+02  0.51100000000E-03 0.  1.
         22    1    1    0    0    0 -0.28187941278E+01 -0.72313079675E+00  0.28329454902E+02  0.28478527587E+02  0.00000000000E+00 0.  1.
</event>
<event>
 5    1  0.1111613E-009  0.9118800E+02  0.7818608E-02  0.1130116E+00
         25   -1    0    0    0    0  0.00000000000E+00  0.00000000000E+00  0.99999998245E-14  0.12500000000E+03  0.12500000000E+03 0.  0.
        -11    1    3    3    0    0  0.13906466709E+01 -0.46862659397E+02  0.34487496272E+02  0.58201633510E+02  0.51100000000E-03 0.  1.
         23    2    1    0    0    0 -0.14200884680E+02 -0.21786876421E+02  0.82109736994E+01  0.97728161063E+02  0.93845832437E+02 0.  0.
         11    1    3    3    0    0 -0.15591531351E+02  0.25075782975E+02 -0.26276522572E+02  0.39526527553E+02  0.51100000000E-03 0. -1.
         22    1    1    0    0    0  0.14200884680E+02  0.21786876421E+02 -0.82109736994E+01  0.27271838937E+02  0.00000000000E+00 0. -1.
</event>
<event>
 5    1  0.1111613E-009  0.9118800E+02  0.7818608E-02  0.1130116E+00
         25   -1    0    0    0    0  0.00000000000E+00  0.00000000000E+00  0.99999998245E-14  0.12500000000E+03  0.12500000000E+03 0.  0.
        -11    1    3    3    0    0 -0.24850953428E+02 -0.54799539849E+02 -0.69853161413E+01  0.60575193733E+02  0.51100000000E-03 0. -1.
         23    2    1    0    0    0 -0.11184920302E+02 -0.23573274058E+02  0.78544651137E+01  0.97751251145E+02  0.93876582736E+02 0.  0.
         11    1    3    3    0    0  0.13666033126E+02  0.31226265792E+02  0.14839781255E+02  0.37176057411E+02  0.51100000000E-03 0.  1.
         22    1    1    0    0    0  0.11184920302E+02  0.23573274058E+02 -0.78544651137E+01  0.27248748855E+02  0.00000000000E+00 0. -1.
</event>
<event>
 5    1  0.1111613E-009  0.9118800E+02  0.7818608E-02  0.1130116E+00
         25   -1    0    0    0    0  0.00000000000E+00  0.00000000000E+00  0.99999998245E-14  0.12500000000E+03  0.12500000000E+03 0.  0.
        -11    1    3    3    0    0  0.11032680321E+02 -0.41238876433E+02  0.35778838832E+02  0.55700002450E+02  0.51100000000E-03 0.  1.
         23    2    1    0    0    0 -0.15049050114E+02 -0.16012891727E+02  0.20069624283E+02  0.95239683643E+02  0.90470552727E+02 0.  0.
         11    1    3    3    0    0 -0.26081730435E+02  0.25225984705E+02 -0.15709214549E+02  0.39539681193E+02  0.51100000000E-03 0. -1.
         22    1    1    0    0    0  0.15049050114E+02  0.16012891727E+02 -0.20069624283E+02  0.29760316357E+02  0.00000000000E+00 0.  1.
</event>
<event>
 5    1  0.1111613E-009  0.9118800E+02  0.7818608E-02  0.1130116E+00
         25   -1    0    0    0    0  0.00000000000E+00  0.00000000000E+00  0.99999998245E-14  0.12500000000E+03  0.12500000000E+03 0.  0.
        -11    1    3    3    0    0  0.31671864007E+01  0.38252099709E+02  0.47510976030E+02  0.61078204340E+02  0.51100000000E-03 0.  1.
         23    2    1    0    0    0  0.63637183665E+01  0.83506695905E+01  0.22422201306E+02  0.10024145187E+03  0.97135796531E+02 0.  0.
         11    1    3    3    0    0  0.31965319658E+01 -0.29901430118E+02 -0.25088774724E+02  0.39163247530E+02  0.51100000000E-03 0. -1.
         22    1    1    0    0    0 -0.63637183665E+01 -0.83506695905E+01 -0.22422201306E+02  0.24758548129E+02  0.00000000000E+00 0.  1.
</event>
<event>
 5    1  0.1111613E-009  0.9118800E+02  0.7818608E-02  0.1130116E+00
         25   -1    0    0    0    0  0.00000000000E+00  0.00000000000E+00  0.99999998245E-14  0.12500000000E+03  0.12500000000E+03 0.  0.
        -11    1    3    3    0    0 -0.13788750293E+02  0.25894963179E+02  0.42521752645E+01  0.29643882124E+02  0.51100000000E-03 0.  1.
         23    2    1    0    0    0  0.14408676328E+02 -0.27405358041E+02  0.14504599916E+02  0.90808670374E+02  0.84125903225E+02 0.  0.
         11    1    3    3    0    0  0.28197426620E+02 -0.53300321220E+02  0.10252424651E+02  0.61164788250E+02  0.51100000000E-03 0. -1.
         22    1    1    0    0    0 -0.14408676328E+02  0.27405358041E+02 -0.14504599916E+02  0.34191329626E+02  0.00000000000E+00 0. -1.
</event>
<event>
 5    1  0.1111613E-009  0.9118800E+02  0.7818608E-02  0.1130116E+00
         25   -1    0    0    0    0  0.00000000000E+00  0.00000000000E+00  0.99999998245E-14  0.12500000000E+03  0.12500000000E+03 0.  0.
        -11    1    3    3    0    0  0.19256885314E+02 -0.41777479883E+02  0.24767516427E+02  0.52245720663E+02  0.51100000000E-03 0.  1.
         23    2    1    0    0    0  0.26558462557E+02 -0.78082103958E+01 -0.35790157131E+01  0.97087109851E+02  0.92988050107E+02 0.  0.
         11    1    3    3    0    0  0.73015772433E+01  0.33969269487E+02 -0.28346532140E+02  0.44841389188E+02  0.51100000000E-03 0. -1.
         22    1    1    0    0    0 -0.26558462557E+02  0.78082103958E+01  0.35790157131E+01  0.27912890149E+02  0.00000000000E+00 0.  1.
</event>
<event>
 5    1  0.1111613E-009  0.9118800E+02  0.7818608E-02  0.1130116E+00
         25   -1    0    0    0    0  0.00000000000E+00  0.00000000000E+00  0.99999998245E-14  0.12500000000E+03  0.12500000000E+03 0.  0.
        -11    1    3    3    0    0 -0.48124304318E+01 -0.34500597849E+02  0.20844845492E+02  0.40595052931E+02  0.51100000000E-03 0. -1.
         23    2    1    0    0    0 -0.15208487114E+02  0.19698406186E+02  0.14632659965E+02  0.96130638659E+02  0.91693291275E+02 0.  0.
         11    1    3    3    0    0 -0.10396056682E+02  0.54199004035E+02 -0.62121855276E+01  0.55535585729E+02  0.51100000000E-03 0.  1.
         22    1    1    0    0    0  0.15208487114E+02 -0.19698406186E+02 -0.14632659965E+02  0.28869361341E+02  0.00000000000E+00 0.  1.
</event>
<event>
 5    1  0.1111613E-009  0.9118800E+02  0.7818608E-02  0.1130116E+00
         25   -1    0    0    0    0  0.00000000000E+00  0.00000000000E+00  0.99999998245E-14  0.12500000000E+03  0.12500000000E+03 0.  0.
        -11    1    3    3    0    0 -0.43698556991E+02 -0.11344637549E+02 -0.43547345921E+00  0.45149244972E+02  0.51100000000E-03 0. -1.
         23    2    1    0    0    0 -0.98948949031E+01 -0.95669146619E+01  0.30834948411E+02  0.91232725238E+02  0.84753650715E+02 0.  0.
         11    1    3    3    0    0  0.33803662088E+02  0.17777228869E+01  0.31270421871E+02  0.46083480266E+02  0.51100000000E-03 0.  1.
         22    1    1    0    0    0  0.98948949031E+01  0.95669146619E+01 -0.30834948411E+02  0.33767274762E+02  0.00000000000E+00 0. -1.
</event>
<event>
 5    1  0.1111613E-009  0.9118800E+02  0.7818608E-02  0.1130116E+00
         25   -1    0    0    0    0  0.00000000000E+00  0.00000000000E+00  0.99999998245E-14  0.12500000000E+03  0.12500000000E+03 0.  0.
        -11    1    3    3    0    0  0.28955896230E+02 -0.71091110542E+01 -0.13956904509E+02  0.32920792369E+02  0.51100000000E-03 0. -1.
         23    2    1    0    0    0 -0.20340440971E+02  0.20969671398E+02 -0.19427191968E+02  0.89916151220E+02  0.82789116465E+02 0.  0.
         11    1    3    3    0    0 -0.49296337201E+02  0.28078782452E+02 -0.54702874590E+01  0.56995358851E+02  0.51100000000E-03 0.  1.
         22    1    1    0    0    0  0.20340440971E+02 -0.20969671398E+02  0.19427191968E+02  0.35083848780E+02  0.00000000000E+00 0.  1.
</event>
<event>
 5    1  0.1111613E-009  0.9118800E+02  0.7818608E-02  0.1130116E+00
         25   -1    0    0    0    0  0.00000000000E+00  0.00000000000E+00  0.99999998245E-14  0.12500000000E+03  0.12500000000E+03 0.  0.
        -11    1    3    3    0    0  0.42459030165E+02 -0.30506642752E+02 -0.24921314306E+02  0.57918014482E+02  0.51100000000E-03 0. -1.
         23    2    1    0    0    0  0.33281766565E+02 -0.36214151941E+01 -0.97125228405E+01  0.90141375047E+02  0.83128477441E+02 0.  0.
         11    1    3    3    0    0 -0.91772635995E+01  0.26885227558E+02  0.15208791465E+02  0.32223360565E+02  0.51100000000E-03 0.  1.
         22    1    1    0    0    0 -0.33281766565E+02  0.36214151941E+01  0.97125228405E+01  0.34858624953E+02  0.00000000000E+00 0. -1.
</event>
<event>
 5    1  0.1111613E-009  0.9118800E+02  0.7818608E-02  0.1130116E+00
         25   -1    0    0    0    0  0.00000000000E+00  0.00000000000E+00  0.99999998245E-14  0.12500000000E+03  0.12500000000E+03 0.  0.
        -11    1    3    3    0    0 -0.42128045229E+02 -0.43036902356E+02  0.58692772184E+01  0.60509466818E+02  0.51100000000E-03 0. -1.
         23    2    1    0    0    0 -0.25405954978E+02 -0.29520398875E+02 -0.67957347877E+01  0.85463959361E+02  0.75769319915E+02 0.  0.
         11    1    3    3    0    0  0.16722090251E+02  0.13516503482E+02 -0.12665012006E+02  0.24954492543E+02  0.51100000000E-03 0.  1.
         22    1    1    0    0    0  0.25405954978E+02  0.29520398875E+02  0.67957347877E+01  0.39536040639E+02  0.00000000000E+00 0. -1.
</event>
<event>
 5    1  0.1111613E-009  0.9118800E+02  0.7818608E-02  0.1130116E+00
         25   -1    0    0    0    0  0.00000000000E+00  0.00000000000E+00  0.99999998245E-14  0.12500000000E+03  0.12500000000E+03 0.  0.
        -11    1    3    3    0    0 -0.12291513519E+02  0.16364981099E+02  0.40745314255E+02  0.45596869903E+02  0.51100000000E-03 0. -1.
         23    2    1    0    0    0 -0.35197924470E+02 -0.20530077629E+01  0.95204268365E+01  0.88479495417E+02  0.80590780206E+02 0.  0.
         11    1    3    3    0    0 -0.22906410951E+02 -0.18417988862E+02 -0.31224887419E+02  0.42882625514E+02  0.51100000000E-03 0.  1.
         22    1    1    0    0    0  0.35197924470E+02  0.20530077629E+01 -0.95204268365E+01  0.36520504583E+02  0.00000000000E+00 0. -1.
</event>
<event>
 5    1  0.1111613E-009  0.9118800E+02  0.7818608E-02  0.1130116E+00
         25   -1    0    0    0    0  0.00000000000E+00  0.00000000000E+00  0.99999998245E-14  0.12500000000E+03  0.12500000000E+03 0.  0.
        -11    1    3    3    0    0 -0.30817564283E+02  0.12241603007E+02  0.99013563229E+01  0.34606588532E+02  0.51100000000E-03 0.  1.
         23    2    1    0    0    0  0.25562648083E+02  0.17837332870E+02 -0.55636933770E+01  0.93336549384E+02  0.87801693297E+02 0.  0.
         11    1    3    3    0    0  0.56380212366E+02  0.55957298630E+01 -0.15465049700E+02  0.58729960852E+02  0.51100000000E-03 0. -1.
         22    1    1    0    0    0 -0.25562648083E+02 -0.17837332870E+02  0.55636933770E+01  0.31663450616E+02  0.00000000000E+00 0. -1.
</event>
<event>
 5    1  0.1111613E-009  0.9118800E+02  0.7818608E-02  0.1130116E+00
         25   -1    0    0    0    0  0.00000000000E+00  0.00000000000E+00  0.99999998245E-14  0.12500000000E+03  0.12500000000E+03 0.  0.
        -11    1    3    3    0    0 -0.24356210743E+02 -0.28370396855E+02  0.26921731172E+02  0.46074765643E+02  0.51100000000E-03 0.  1.
         23    2    1    0    0    0  0.78051851520E+01 -0.29161540828E+02 -0.82143967927E+01  0.93714337255E+02  0.88337898513E+02 0.  0.
         11    1    3    3    0    0  0.32161395895E+02 -0.79114397287E+00 -0.35136127965E+02  0.47639571612E+02  0.51100000000E-03 0. -1.
         22    1    1    0    0    0 -0.78051851520E+01  0.29161540828E+02  0.82143967927E+01  0.31285662745E+02  0.00000000000E+00 0. -1.
</event>
<event>
 5    1  0.1111613E-009  0.9118800E+02  0.7818608E-02  0.1130116E+00
         25   -1    0    0    0    0  0.00000000000E+00  0.00000000000E+00  0.99999998245E-14  0.12500000000E+03  0.12500000000E+03 0.  0.
        -11    1    3    3    0    0 -0.30197645116E+02  0.38861900072E+02  0.34980373420E+02  0.60380225013E+02  0.51100000000E-03 0. -1.
         23    2    1    0    0    0 -0.77618000277E+01  0.15175519250E+02  0.25450327868E+02  0.94368951817E+02  0.89259385805E+02 0.  0.
         11    1    3    3    0    0  0.22435845088E+02 -0.23686380822E+02 -0.95300455512E+01  0.33988726804E+02  0.51100000000E-03 0.  1.
         22    1    1    0    0    0  0.77618000277E+01 -0.15175519250E+02 -0.25450327868E+02  0.30631048183E+02  0.00000000000E+00 0. -1.
</event>
<event>
 5    1  0.1111613E-009  0.9118800E+02  0.7818608E-02  0.1130116E+00
         25   -1    0    0    0    0  0.00000000000E+00  0.00000000000E+00  0.99999998245E-14  0.12500000000E+03  0.12500000000E+03 0.  0.
        -11    1    3    3    0    0 -0.84733783987E+01  0.28128289138E+02 -0.23725662141E+02  0.37761168356E+02  0.51100000000E-03 0. -1.
         23    2    1    0    0    0 -0.22635708192E+02 -0.72610532443E+01  0.18669922893E+02  0.94773121226E+02  0.89823606622E+02 0.  0.
         11    1    3    3    0    0 -0.14162329793E+02 -0.35389342382E+02  0.42395585035E+02  0.57011952870E+02  0.51100000000E-03 0.  1.
         22    1    1    0    0    0  0.22635708192E+02  0.72610532443E+01 -0.18669922893E+02  0.30226878774E+02  0.00000000000E+00 0.  1.
</event>
<event>
 5    1  0.1111613E-009  0.9118800E+02  0.7818608E-02  0.1130116E+00
         25   -1    0    0    0    0  0.00000000000E+00  0.00000000000E+00  0.99999998245E-14  0.12500000000E+03  0.12500000000E+03 0.  0.
        -11    1    3    3    0    0  0.26480309822E+01  0.38062715776E+01 -0.52812340668E+02  0.53015498663E+02  0.51100000000E-03 0. -1.
         23    2    1    0    0    0  0.97173560549E+01  0.23506435429E+02 -0.17294398190E+02  0.94241656026E+02  0.89080940760E+02 0.  0.
         11    1    3    3    0    0  0.70693250727E+01  0.19700163851E+02  0.35517942479E+02  0.41226157363E+02  0.51100000000E-03 0.  1.
         22    1    1    0    0    0 -0.97173560549E+01 -0.23506435429E+02  0.17294398190E+02  0.30758343974E+02  0.00000000000E+00 0. -1.
</event>
<event>
 5    1  0.1111613E-009  0.9118800E+02  0.7818608E-02  0.1130116E+00
         25   -1    0    0    0    0  0.00000000000E+00  0.00000000000E+00  0.99999998245E-14  0.12500000000E+03  0.12500000000E+03 0.  0.
        -11    1    3    3    0    0 -0.49793425192E+02 -0.10729393759E+02 -0.19907267647E+02  0.54688247259E+02  0.51100000000E-03 0.  1.
         23    2    1    0    0    0 -0.27986629868E+02  0.13659592678E+02  0.15598873350E+01  0.93818768914E+02  0.88485548134E+02 0.  0.
         11    1    3    3    0    0  0.21806795324E+02  0.24388986438E+02  0.21467154982E+02  0.39130521656E+02  0.51100000000E-03 0. -1.
         22    1    1    0    0    0  0.27986629868E+02 -0.13659592678E+02 -0.15598873350E+01  0.31181231086E+02  0.00000000000E+00 0.  1.
</event>
<event>
 5    1  0.1111613E-009  0.9118800E+02  0.7818608E-02  0.1130116E+00
         25   -1    0    0    0    0  0.00000000000E+00  0.00000000000E+00  0.99999998245E-14  0.12500000000E+03  0.12500000000E+03 0.  0.
        -11    1    3    3    0    0  0.75290680480E+01 -0.42147133733E+02  0.55501680595E+01  0.43172585206E+02  0.51100000000E-03 0.  1.
         23    2    1    0    0    0  0.16082493734E+02  0.10873586978E+02  0.18244852308E+02  0.98358751264E+02  0.94682035339E+02 0.  0.
         11    1    3    3    0    0  0.85534256856E+01  0.53020720712E+02  0.12694684249E+02  0.55186166058E+02  0.51100000000E-03 0. -1.
         22    1    1    0    0    0 -0.16082493734E+02 -0.10873586978E+02 -0.18244852308E+02  0.26641248736E+02  0.00000000000E+00 0. -1.
</event>
<event>
 5    1  0.1111613E-009  0.9118800E+02  0.7818608E-02  0.1130116E+00
         25   -1    0    0    0    0  0.00000000000E+00  0.00000000000E+00  0.99999998245E-14  0.12500000000E+03  0.12500000000E+03 0.  0.
        -11    1    3    3    0    0  0.23062242430E+02  0.24032417041E+02 -0.14894948929E+02  0.36486759223E+02  0.51100000000E-03 0.  1.
         23    2    1    0    0    0 -0.12821857410E+02 -0.22891070998E+02 -0.13309498859E+02  0.95579872217E+02  0.90939364712E+02 0.  0.
         11    1    3    3    0    0 -0.35884099840E+02 -0.46923488040E+02  0.15854500694E+01  0.59093112994E+02  0.51100000000E-03 0. -1.
         22    1    1    0    0    0  0.12821857410E+02  0.22891070998E+02  0.13309498859E+02  0.29420127783E+02  0.00000000000E+00 0. -1.
</event>
<event>
 5    1  0.1111613E-009  0.9118800E+02  0.7818608E-02  0.1130116E+00
         25   -1    0    0    0    0  0.00000000000E+00  0.00000000000E+00  0.99999998245E-14  0.12500000000E+03  0.12500000000E+03 0.  0.
        -11    1    3    3    0    0 -0.50203249055E+02  0.43931807039E+01  0.20966628664E+02  0.54582650816E+02  0.51100000000E-03 0.  1.
         23    2    1    0    0    0 -0.18791011953E+02  0.21323989760E+02 -0.11315820823E+01  0.96555402138E+02  0.92270529068E+02 0.  0.
         11    1    3    3    0    0  0.31412237102E+02  0.16930809057E+02 -0.22098210747E+02  0.41972751322E+02  0.51100000000E-03 0. -1.
         22    1    1    0    0    0  0.18791011953E+02 -0.21323989760E+02  0.11315820823E+01  0.28444597862E+02  0.00000000000E+00 0.  1.
</event>
<event>
 5    1  0.1111613E-009  0.9118800E+02  0.7818608E-02  0.1130116E+00
         25   -1    0    0    0    0  0.00000000000E+00  0.00000000000E+00  0.99999998245E-14  0.12500000000E+03  0.12500000000E+03 0.  0.
        -11    1    3    3    0    0  0.23853013970E+02 -0.25161045164E+02  0.21369512616E+02  0.40727147444E+02  0.51100000000E-03 0.  1.
         23    2    1    0    0    0  0.65591211073E+01 -0.10629813013E+02 -0.27627413438E+02  0.94680221510E+02  0.89694232688E+02 0.  0.
         11    1    3    3    0    0 -0.17293892863E+02  0.14531232151E+02 -0.48996926054E+02  0.53953074066E+02  0.51100000000E-03 0. -1.
         22    1    1    0    0    0 -0.65591211073E+01  0.10629813013E+02  0.27627413438E+02  0.30319778490E+02  0.00000000000E+00 0. -1.
</event>
<event>
 5    1  0.1111613E-009  0.9118800E+02  0.7818608E-02  0.1130116E+00
         25   -1    0    0    0    0  0.00000000000E+00  0.00000000000E+00  0.99999998245E-14  0.12500000000E+03  0.12500000000E+03 0.  0.
        -11    1    3    3    0    0 -0.17107248908E+02 -0.24614133832E+02 -0.45381961972E+02  0.54387829725E+02  0.51100000000E-03 0.  1.
         23    2    1    0    0    0  0.14068491091E+02 -0.16775475184E+02 -0.16793960769E+02  0.97406955088E+02  0.93417015431E+02 0.  0.
         11    1    3    3    0    0  0.31175739999E+02  0.78386586487E+01  0.28588001204E+02  0.43019125363E+02  0.51100000000E-03 0. -1.
         22    1    1    0    0    0 -0.14068491091E+02  0.16775475184E+02  0.16793960769E+02  0.27593044912E+02  0.00000000000E+00 0.  1.
</event>
<event>
 5    1  0.1111613E-009  0.9118800E+02  0.7818608E-02  0.1130116E+00
         25   -1    0    0    0    0  0.00000000000E+00  0.00000000000E+00  0.99999998245E-14  0.12500000000E+03  0.12500000000E+03 0.  0.
        -11    1    3    3    0    0 -0.23780587277E+02 -0.70147762121E+01 -0.25553977457E+02  0.35605184745E+02  0.51100000000E-03 0. -1.
         23    2    1    0    0    0  0.84035881252E+01  0.21846378665E+02  0.16849176585E+02  0.96159415648E+02  0.91732512840E+02 0.  0.
         11    1    3    3    0    0  0.32184175403E+02  0.28861154877E+02  0.42403154043E+02  0.60554230903E+02  0.51100000000E-03 0.  1.
         22    1    1    0    0    0 -0.84035881252E+01 -0.21846378665E+02 -0.16849176585E+02  0.28840584352E+02  0.00000000000E+00 0.  1.
</event>
<event>
 5    1  0.1111613E-009  0.9118800E+02  0.7818608E-02  0.1130116E+00
         25   -1    0    0    0    0  0.00000000000E+00  0.00000000000E+00  0.99999998245E-14  0.12500000000E+03  0.12500000000E+03 0.  0.
        -11    1    3    3    0    0  0.82201068052E+01 -0.49822945923E+01  0.37767262265E+02  0.38971265242E+02  0.51100000000E-03 0. -1.
         23    2    1    0    0    0 -0.31102986492E+02 -0.42305595804E+01  0.34378212972E+02  0.78447288691E+02  0.63141287386E+02 0.  0.
         11    1    3    3    0    0 -0.39323093297E+02  0.75173501188E+00 -0.33890492933E+01  0.39476023449E+02  0.51100000000E-03 0.  1.
         22    1    1    0    0    0  0.31102986492E+02  0.42305595804E+01 -0.34378212972E+02  0.46552711309E+02  0.00000000000E+00 0.  1.
</event>
<event>
 5    1  0.1111613E-009  0.9118800E+02  0.7818608E-02  0.1130116E+00
         25   -1    0    0    0    0  0.00000000000E+00  0.00000000000E+00  0.99999998245E-14  0.12500000000E+03  0.12500000000E+03 0.  0.
        -11    1    3    3    0    0  0.14484757276E+02 -0.46097023589E+02 -0.36536385385E+02  0.60577646326E+02  0.51100000000E-03 0. -1.
         23    2    1    0    0    0  0.11401842021E+02 -0.99178911907E+01 -0.18474612722E+02  0.10113207419E+03  0.98275218382E+02 0.  0.
         11    1    3    3    0    0 -0.30829152547E+01  0.36179132398E+02  0.18061772663E+02  0.40554427866E+02  0.51100000000E-03 0.  1.
         22    1    1    0    0    0 -0.11401842021E+02  0.99178911907E+01  0.18474612722E+02  0.23867925808E+02  0.00000000000E+00 0. -1.
</event>
<event>
 4    1  0.1111613E-009  0.9118800E+02  0.7818608E-02  0.1130116E+00
         25   -1    0    0    0    0  0.00000000000E+00  0.00000000000E+00  0.99999998245E-14  0.12500000000E+03  0.12500000000E+03 0.  0.
        -11    1    1    0    0    0 -0.34157968873E+02  0.13534881681E+02 -0.54901804716E+01  0.37149723304E+02  0.51100000000E-03 0.  1.
         11    1    1    0    0    0 -0.40818346264E+01 -0.90582497405E+01 -0.32365446533E+02  0.33856098296E+02  0.51100000000E-03 0. -1.
         22    1    1    0    0    0  0.38239803500E+02 -0.44766319400E+01  0.37855627005E+02  0.53994178400E+02  0.00000000000E+00 0. -1.
</event>
<event>
 5    1  0.1111613E-009  0.9118800E+02  0.7818608E-02  0.1130116E+00
         25   -1    0    0    0    0  0.00000000000E+00  0.00000000000E+00  0.99999998245E-14  0.12500000000E+03  0.12500000000E+03 0.  0.
        -11    1    3    3    0    0 -0.13861429068E+02  0.17498732229E+02 -0.25361857684E+02  0.33787108058E+02  0.51100000000E-03 0. -1.
         23    2    1    0    0    0  0.26450457925E+02  0.17943681869E+02  0.13977374266E+02  0.90114910996E+02  0.83088674012E+02 0.  0.
         11    1    3    3    0    0  0.40311886993E+02  0.44494963978E+00  0.39339231951E+02  0.56327802938E+02  0.51100000000E-03 0.  1.
         22    1    1    0    0    0 -0.26450457925E+02 -0.17943681869E+02 -0.13977374266E+02  0.34885089004E+02  0.00000000000E+00 0.  1.
</event>
<event>
 5    1  0.1111613E-009  0.9118800E+02  0.7818608E-02  0.1130116E+00
         25   -1    0    0    0    0  0.00000000000E+00  0.00000000000E+00  0.99999998245E-14  0.12500000000E+03  0.12500000000E+03 0.  0.
        -11    1    3    3    0    0 -0.39396579701E+02 -0.46596347778E+02 -0.61827563995E+01  0.61331367141E+02  0.51100000000E-03 0.  1.
         23    2    1    0    0    0 -0.19281063667E+02 -0.23363289187E+02 -0.11649786581E+02  0.92545104759E+02  0.86667619038E+02 0.  0.
         11    1    3    3    0    0  0.20115516034E+02  0.23233058591E+02 -0.54670301816E+01  0.31213737618E+02  0.51100000000E-03 0. -1.
         22    1    1    0    0    0  0.19281063667E+02  0.23363289187E+02  0.11649786581E+02  0.32454895241E+02  0.00000000000E+00 0.  1.
</event>
<event>
 5    1  0.1111613E-009  0.9118800E+02  0.7818608E-02  0.1130116E+00
         25   -1    0    0    0    0  0.00000000000E+00  0.00000000000E+00  0.99999998245E-14  0.12500000000E+03  0.12500000000E+03 0.  0.
        -11    1    3    3    0    0  0.22743356234E+02  0.29414880626E+02  0.28611968173E+02  0.46916310362E+02  0.51100000000E-03 0. -1.
         23    2    1    0    0    0 -0.17108664517E+02  0.23691472050E+02  0.95539032885E+00  0.95761241132E+02  0.91188323173E+02 0.  0.
         11    1    3    3    0    0 -0.39852020750E+02 -0.57234085757E+01 -0.27656577845E+02  0.48844930770E+02  0.51100000000E-03 0.  1.
         22    1    1    0    0    0  0.17108664517E+02 -0.23691472050E+02 -0.95539032885E+00  0.29238758868E+02  0.00000000000E+00 0. -1.
</event>
<event>
 5    1  0.1111613E-009  0.9118800E+02  0.7818608E-02  0.1130116E+00
         25   -1    0    0    0    0  0.00000000000E+00  0.00000000000E+00  0.99999998245E-14  0.12500000000E+03  0.12500000000E+03 0.  0.
        -11    1    3    3    0    0 -0.30025377035E+01  0.25057475226E+02  0.26475742130E+02  0.36576730567E+02  0.51100000000E-03 0.  1.
         23    2    1    0    0    0  0.12111869438E+02  0.63612277770E+01 -0.26735754782E+02  0.94967298092E+02  0.90093421086E+02 0.  0.
         11    1    3    3    0    0  0.15114407142E+02 -0.18696247449E+02 -0.53211496912E+02  0.58390567525E+02  0.51100000000E-03 0. -1.
         22    1    1    0    0    0 -0.12111869438E+02 -0.63612277770E+01  0.26735754782E+02  0.30032701908E+02  0.00000000000E+00 0. -1.
</event>
<event>
 5    1  0.1111613E-009  0.9118800E+02  0.7818608E-02  0.1130116E+00
         25   -1    0    0    0    0  0.00000000000E+00  0.00000000000E+00  0.99999998245E-14  0.12500000000E+03  0.12500000000E+03 0.  0.
        -11    1    3    3    0    0 -0.87832331055E+01 -0.43517331374E+02 -0.65763532189E+01  0.44879301862E+02  0.51100000000E-03 0. -1.
         23    2    1    0    0    0 -0.27295110267E+02  0.33297782405E+01 -0.10865569871E+02  0.95433615773E+02  0.90738106346E+02 0.  0.
         11    1    3    3    0    0 -0.18511877162E+02  0.46847109615E+02 -0.42892166518E+01  0.50554313911E+02  0.51100000000E-03 0.  1.
         22    1    1    0    0    0  0.27295110267E+02 -0.33297782405E+01  0.10865569871E+02  0.29566384227E+02  0.00000000000E+00 0.  1.
</event>
<event>
 5    1  0.1111613E-009  0.9118800E+02  0.7818608E-02  0.1130116E+00
         25   -1    0    0    0    0  0.00000000000E+00  0.00000000000E+00  0.99999998245E-14  0.12500000000E+03  0.12500000000E+03 0.  0.
        -11    1    3    3    0    0  0.12155852491E+01  0.24598130535E+02  0.28700559862E+02  0.37818881659E+02  0.51100000000E-03 0. -1.
         23    2    1    0    0    0  0.20527851322E+02  0.31173611475E+01 -0.21104347660E+02  0.95394187892E+02  0.90683774585E+02 0.  0.
         11    1    3    3    0    0  0.19312266073E+02 -0.21480769387E+02 -0.49804907522E+02  0.57575306233E+02  0.51100000000E-03 0.  1.
         22    1    1    0    0    0 -0.20527851322E+02 -0.31173611475E+01  0.21104347660E+02  0.29605812108E+02  0.00000000000E+00 0.  1.
</event>
<event>
 5    1  0.1111613E-009  0.9118800E+02  0.7818608E-02  0.1130116E+00
         25   -1    0    0    0    0  0.00000000000E+00  0.00000000000E+00  0.99999998245E-14  0.12500000000E+03  0.12500000000E+03 0.  0.
        -11    1    3    3    0    0  0.36894584461E+02  0.14337896668E+02 -0.95869657702E+01  0.40727086273E+02  0.51100000000E-03 0.  1.
         23    2    1    0    0    0  0.70443095952E+00 -0.26010665986E+02 -0.14607413842E+02  0.95159968043E+02  0.90360345345E+02 0.  0.
         11    1    3    3    0    0 -0.36190153501E+02 -0.40348562654E+02 -0.50204480714E+01  0.54432881770E+02  0.51100000000E-03 0. -1.
         22    1    1    0    0    0 -0.70443095952E+00  0.26010665986E+02  0.14607413842E+02  0.29840031957E+02  0.00000000000E+00 0. -1.
</event>
<event>
 5    1  0.1111613E-009  0.9118800E+02  0.7818608E-02  0.1130116E+00
         25   -1    0    0    0    0  0.00000000000E+00  0.00000000000E+00  0.99999998245E-14  0.12500000000E+03  0.12500000000E+03 0.  0.
        -11    1    3    3    0    0 -0.79508022526E+01 -0.18196409109E+02 -0.52527178522E+02  0.56155400851E+02  0.51100000000E-03 0.  1.
         23    2    1    0    0    0  0.16299465924E+02 -0.68472551065E+01 -0.19326915897E+02  0.98806734263E+02  0.95271630435E+02 0.  0.
         11    1    3    3    0    0  0.24250268176E+02  0.11349154003E+02  0.33200262625E+02  0.42651333412E+02  0.51100000000E-03 0. -1.
         22    1    1    0    0    0 -0.16299465924E+02  0.68472551065E+01  0.19326915897E+02  0.26193265737E+02  0.00000000000E+00 0. -1.
</event>
<event>
 5    1  0.1111613E-009  0.9118800E+02  0.7818608E-02  0.1130116E+00
         25   -1    0    0    0    0  0.00000000000E+00  0.00000000000E+00  0.99999998245E-14  0.12500000000E+03  0.12500000000E+03 0.  0.
        -11    1    3    3    0    0  0.39515691949E+02  0.88999927071E+00  0.45234476723E+02  0.60070291273E+02  0.51100000000E-03 0. -1.
         23    2    1    0    0    0  0.21351822945E+02 -0.10430200312E+02  0.15799610123E+02  0.96463758102E+02  0.92146294149E+02 0.  0.
         11    1    3    3    0    0 -0.18163869004E+02 -0.11320199583E+02 -0.29434866600E+02  0.36393466829E+02  0.51100000000E-03 0.  1.
         22    1    1    0    0    0 -0.21351822945E+02  0.10430200312E+02 -0.15799610123E+02  0.28536241898E+02  0.00000000000E+00 0.  1.
</event>
<event>
 5    1  0.1111613E-009  0.9118800E+02  0.7818608E-02  0.1130116E+00
         25   -1    0    0    0    0  0.00000000000E+00  0.00000000000E+00  0.99999998245E-14  0.12500000000E+03  0.12500000000E+03 0.  0.
        -11    1    3    3    0    0  0.35362956347E+02  0.40801394364E-01 -0.20059627269E+02  0.40656229446E+02  0.51100000000E-03 0.  1.
         23    2    1    0    0    0 -0.56382866382E+01 -0.30145247239E+02 -0.11285970153E+02  0.92321270992E+02  0.86344181900E+02 0.  0.
         11    1    3    3    0    0 -0.41001242985E+02 -0.30186048633E+02  0.87736571158E+01  0.51665041545E+02  0.51100000000E-03 0. -1.
         22    1    1    0    0    0  0.56382866382E+01  0.30145247239E+02  0.11285970153E+02  0.32678729008E+02  0.00000000000E+00 0. -1.
</event>
<event>
 5    1  0.1111613E-009  0.9118800E+02  0.7818608E-02  0.1130116E+00
         25   -1    0    0    0    0  0.00000000000E+00  0.00000000000E+00  0.99999998245E-14  0.12500000000E+03  0.12500000000E+03 0.  0.
        -11    1    3    3    0    0  0.19756563451E+02 -0.29424957391E+02  0.41792028912E+02  0.54797113042E+02  0.51100000000E-03 0.  1.
         23    2    1    0    0    0  0.30614369900E+01  0.54761569201E+01  0.28671587082E+02  0.95650032421E+02  0.91035751797E+02 0.  0.
         11    1    3    3    0    0 -0.16695126461E+02  0.34901114311E+02 -0.13120441830E+02  0.40852919379E+02  0.51100000000E-03 0. -1.
         22    1    1    0    0    0 -0.30614369900E+01 -0.54761569201E+01 -0.28671587082E+02  0.29349967579E+02  0.00000000000E+00 0.  1.
</event>
<event>
 5    1  0.1111613E-009  0.9118800E+02  0.7818608E-02  0.1130116E+00
         25   -1    0    0    0    0  0.00000000000E+00  0.00000000000E+00  0.99999998245E-14  0.12500000000E+03  0.12500000000E+03 0.  0.
        -11    1    3    3    0    0 -0.23367222438E+02  0.60033557658E+01 -0.63872109773E+00  0.24134525681E+02  0.51100000000E-03 0.  1.
         23    2    1    0    0    0  0.38530906531E+02 -0.10060372085E+01 -0.13500385129E+01  0.86432326063E+02  0.77350381484E+02 0.  0.
         11    1    3    3    0    0  0.61898128969E+02 -0.70093929743E+01 -0.71131741521E+00  0.62297800382E+02  0.51100000000E-03 0. -1.
         22    1    1    0    0    0 -0.38530906531E+02  0.10060372085E+01  0.13500385129E+01  0.38567673937E+02  0.00000000000E+00 0. -1.
</event>
<event>
 5    1  0.1111613E-009  0.9118800E+02  0.7818608E-02  0.1130116E+00
         25   -1    0    0    0    0  0.00000000000E+00  0.00000000000E+00  0.99999998245E-14  0.12500000000E+03  0.12500000000E+03 0.  0.
        -11    1    3    3    0    0  0.35733692526E+02 -0.12334532290E+02  0.38147847536E+02  0.53705639743E+02  0.51100000000E-03 0. -1.
         23    2    1    0    0    0  0.11760212600E+02 -0.25827781530E+02  0.60431755481E+01  0.95984540847E+02  0.91493908058E+02 0.  0.
         11    1    3    3    0    0 -0.23973479926E+02 -0.13493249240E+02 -0.32104671988E+02  0.42278901104E+02  0.51100000000E-03 0.  1.
         22    1    1    0    0    0 -0.11760212600E+02  0.25827781530E+02 -0.60431755481E+01  0.29015459153E+02  0.00000000000E+00 0.  1.
</event>
<event>
 5    1  0.1111613E-009  0.9118800E+02  0.7818608E-02  0.1130116E+00
         25   -1    0    0    0    0  0.00000000000E+00  0.00000000000E+00  0.99999998245E-14  0.12500000000E+03  0.12500000000E+03 0.  0.
        -11    1    3    3    0    0  0.58492136511E+01  0.30718556333E+02 -0.46578959488E+02  0.56102071894E+02  0.51100000000E-03 0. -1.
         23    2    1    0    0    0 -0.38216368787E+01 -0.24829991429E+01 -0.30363392231E+02  0.94296485853E+02  0.89157845775E+02 0.  0.
         11    1    3    3    0    0 -0.96708505299E+01 -0.33201555476E+02  0.16215567257E+02  0.38194413959E+02  0.51100000000E-03 0.  1.
         22    1    1    0    0    0  0.38216368787E+01  0.24829991429E+01  0.30363392231E+02  0.30703514147E+02  0.00000000000E+00 0. -1.
</event>
<event>
 5    1  0.1111613E-009  0.9118800E+02  0.7818608E-02  0.1130116E+00
         25   -1    0    0    0    0  0.00000000000E+00  0.00000000000E+00  0.99999998245E-14  0.12500000000E+03  0.12500000000E+03 0.  0.
        -11    1    3    3    0    0  0.79262001115E+01 -0.13549892869E+02 -0.57106579936E+02  0.59224874143E+02  0.51100000000E-03 0.  1.
         23    2    1    0    0    0  0.55702424843E+01  0.79019380543E+01 -0.27411243061E+02  0.95933791570E+02  0.91424547538E+02 0.  0.
         11    1    3    3    0    0 -0.23559576272E+01  0.21451830923E+02  0.29695336875E+02  0.36708917428E+02  0.51100000000E-03 0. -1.
         22    1    1    0    0    0 -0.55702424843E+01 -0.79019380543E+01  0.27411243061E+02  0.29066208430E+02  0.00000000000E+00 0.  1.
</event>
<event>
 5    1  0.1111613E-009  0.9118800E+02  0.7818608E-02  0.1130116E+00
         25   -1    0    0    0    0  0.00000000000E+00  0.00000000000E+00  0.99999998245E-14  0.12500000000E+03  0.12500000000E+03 0.  0.
        -11    1    3    3    0    0 -0.52150941826E+02 -0.26814503582E+02 -0.20415539730E+02  0.62092935173E+02  0.51100000000E-03 0. -1.
         23    2    1    0    0    0 -0.25986775988E+02 -0.13513821746E+02 -0.48669026638E+01  0.95307868955E+02  0.90564712989E+02 0.  0.
         11    1    3    3    0    0  0.26164165838E+02  0.13300681836E+02  0.15548637066E+02  0.33214933782E+02  0.51100000000E-03 0.  1.
         22    1    1    0    0    0  0.25986775988E+02  0.13513821746E+02  0.48669026638E+01  0.29692131045E+02  0.00000000000E+00 0. -1.
</event>
<event>
 5    1  0.1111613E-009  0.9118800E+02  0.7818608E-02  0.1130116E+00
         25   -1    0    0    0    0  0.00000000000E+00  0.00000000000E+00  0.99999998245E-14  0.12500000000E+03  0.12500000000E+03 0.  0.
        -11    1    3    3    0    0 -0.43430273524E+01 -0.26749077984E+02 -0.27485230434E+02  0.38598095184E+02  0.51100000000E-03 0. -1.
         23    2    1    0    0    0  0.24495369218E+02 -0.33248700566E+02  0.60038387039E+01  0.83268174236E+02  0.72055836398E+02 0.  0.
         11    1    3    3    0    0  0.28838396570E+02 -0.64996225816E+01  0.33489069138E+02  0.44670079051E+02  0.51100000000E-03 0.  1.
         22    1    1    0    0    0 -0.24495369218E+02  0.33248700566E+02 -0.60038387039E+01  0.41731825764E+02  0.00000000000E+00 0.  1.
</event>
<event>
 5    1  0.1111613E-009  0.9118800E+02  0.7818608E-02  0.1130116E+00
         25   -1    0    0    0    0  0.00000000000E+00  0.00000000000E+00  0.99999998245E-14  0.12500000000E+03  0.12500000000E+03 0.  0.
        -11    1    3    3    0    0  0.17103400298E+02 -0.57276194802E+02  0.14132332506E+01  0.59792023057E+02  0.51100000000E-03 0. -1.
         23    2    1    0    0    0 -0.27080530834E+01 -0.28455878673E+02  0.78609838604E+01  0.95354331686E+02  0.90628819486E+02 0.  0.
         11    1    3    3    0    0 -0.19811453382E+02  0.28820316129E+02  0.64477506097E+01  0.35562308629E+02  0.51100000000E-03 0.  1.
         22    1    1    0    0    0  0.27080530834E+01  0.28455878673E+02 -0.78609838604E+01  0.29645668314E+02  0.00000000000E+00 0. -1.
</event>
<event>
 5    1  0.1111613E-009  0.9118800E+02  0.7818608E-02  0.1130116E+00
         25   -1    0    0    0    0  0.00000000000E+00  0.00000000000E+00  0.99999998245E-14  0.12500000000E+03  0.12500000000E+03 0.  0.
        -11    1    3    3    0    0 -0.64062899872E+01 -0.57241780428E+02 -0.21948612169E+02  0.61639302027E+02  0.51100000000E-03 0. -1.
         23    2    1    0    0    0 -0.24122929384E+01 -0.28948319749E+02 -0.32903231046E+01  0.95765592197E+02  0.91194287371E+02 0.  0.
         11    1    3    3    0    0  0.39939970488E+01  0.28293460680E+02  0.18658289064E+02  0.34126290169E+02  0.51100000000E-03 0.  1.
         22    1    1    0    0    0  0.24122929384E+01  0.28948319749E+02  0.32903231046E+01  0.29234407803E+02  0.00000000000E+00 0. -1.
</event>
<event>
 5    1  0.1111613E-009  0.9118800E+02  0.7818608E-02  0.1130116E+00
         25   -1    0    0    0    0  0.00000000000E+00  0.00000000000E+00  0.99999998245E-14  0.12500000000E+03  0.12500000000E+03 0.  0.
        -11    1    3    3    0    0  0.11130421746E+02  0.10163864666E+02 -0.45587409347E+02  0.48014605324E+02  0.51100000000E-03 0.  1.
         23    2    1    0    0    0 -0.19638816286E+02 -0.12937063798E+02 -0.18701826062E+02  0.94953219426E+02  0.90073885541E+02 0.  0.
         11    1    3    3    0    0 -0.30769238032E+02 -0.23100928464E+02  0.26885583285E+02  0.46938614102E+02  0.51100000000E-03 0. -1.
         22    1    1    0    0    0  0.19638816286E+02  0.12937063798E+02  0.18701826062E+02  0.30046780574E+02  0.00000000000E+00 0. -1.
</event>
<event>
 5    1  0.1111613E-009  0.9118800E+02  0.7818608E-02  0.1130116E+00
         25   -1    0    0    0    0  0.00000000000E+00  0.00000000000E+00  0.99999998245E-14  0.12500000000E+03  0.12500000000E+03 0.  0.
        -11    1    3    3    0    0  0.22082184353E+02 -0.63333004666E+01  0.46058912336E+02  0.51469961788E+02  0.51100000000E-03 0.  1.
         23    2    1    0    0    0 -0.12864275664E+02  0.10199580490E+02  0.23821777054E+02  0.96069080683E+02  0.91609334517E+02 0.  0.
         11    1    3    3    0    0 -0.34946460017E+02  0.16532880956E+02 -0.22237135282E+02  0.44599118895E+02  0.51100000000E-03 0. -1.
         22    1    1    0    0    0  0.12864275664E+02 -0.10199580490E+02 -0.23821777054E+02  0.28930919317E+02  0.00000000000E+00 0. -1.
</event>
<event>
 5    1  0.1111613E-009  0.9118800E+02  0.7818608E-02  0.1130116E+00
         25   -1    0    0    0    0  0.00000000000E+00  0.00000000000E+00  0.99999998245E-14  0.12500000000E+03  0.12500000000E+03 0.  0.
        -11    1    3    3    0    0 -0.46007769101E+01  0.30180639286E+02 -0.19392480305E+02  0.36167753988E+02  0.51100000000E-03 0. -1.
         23    2    1    0    0    0  0.23043588505E+02 -0.19245863512E+02 -0.79071501393E+01  0.93952725453E+02  0.88674581269E+02 0.  0.
         11    1    3    3    0    0  0.27644365415E+02 -0.49426502798E+02  0.11485330165E+02  0.57784971465E+02  0.51100000000E-03 0.  1.
         22    1    1    0    0    0 -0.23043588505E+02  0.19245863512E+02  0.79071501393E+01  0.31047274547E+02  0.00000000000E+00 0.  1.
</event>
<event>
 5    1  0.1111613E-009  0.9118800E+02  0.7818608E-02  0.1130116E+00
         25   -1    0    0    0    0  0.00000000000E+00  0.00000000000E+00  0.99999998245E-14  0.12500000000E+03  0.12500000000E+03 0.  0.
        -11    1    3    3    0    0  0.69510490154E+01  0.20786415201E+02  0.34948747808E+02  0.41252964899E+02  0.51100000000E-03 0. -1.
         23    2    1    0    0    0 -0.72344471606E+01 -0.26064520179E+02  0.10347753501E+02  0.96038431666E+02  0.91567504697E+02 0.  0.
         11    1    3    3    0    0 -0.14185496176E+02 -0.46850935380E+02 -0.24600994307E+02  0.54785466767E+02  0.51100000000E-03 0.  1.
         22    1    1    0    0    0  0.72344471606E+01  0.26064520179E+02 -0.10347753501E+02  0.28961568334E+02  0.00000000000E+00 0.  1.
</event>
<event>
 5    1  0.1111613E-009  0.9118800E+02  0.7818608E-02  0.1130116E+00
         25   -1    0    0    0    0  0.00000000000E+00  0.00000000000E+00  0.99999998245E-14  0.12500000000E+03  0.12500000000E+03 0.  0.
        -11    1    3    3    0    0  0.46311014799E+02 -0.29736566785E+02 -0.15496776103E+02  0.57176250015E+02  0.51100000000E-03 0.  1.
         23    2    1    0    0    0  0.25301720750E+02  0.28630378040E+01 -0.13894926506E+02  0.95992362368E+02  0.91504593284E+02 0.  0.
         11    1    3    3    0    0 -0.21009294050E+02  0.32599604589E+02  0.16018495971E+01  0.38816112353E+02  0.51100000000E-03 0. -1.
         22    1    1    0    0    0 -0.25301720750E+02 -0.28630378040E+01  0.13894926506E+02  0.29007637632E+02  0.00000000000E+00 0.  1.
</event>
<event>
 5    1  0.1111613E-009  0.9118800E+02  0.7818608E-02  0.1130116E+00
         25   -1    0    0    0    0  0.00000000000E+00  0.00000000000E+00  0.99999998245E-14  0.12500000000E+03  0.12500000000E+03 0.  0.
        -11    1    3    3    0    0 -0.36466080812E+02  0.21025236827E+02 -0.18518918325E+02  0.45986802124E+02  0.51100000000E-03 0. -1.
         23    2    1    0    0    0 -0.17927749396E+02  0.15196843658E+01  0.23205745150E+02  0.95636412907E+02  0.91017049099E+02 0.  0.
         11    1    3    3    0    0  0.18538331416E+02 -0.19505552461E+02  0.41724663475E+02  0.49649610783E+02  0.51100000000E-03 0.  1.
         22    1    1    0    0    0  0.17927749396E+02 -0.15196843658E+01 -0.23205745150E+02  0.29363587093E+02  0.00000000000E+00 0.  1.
</event>
<event>
 5    1  0.1111613E-009  0.9118800E+02  0.7818608E-02  0.1130116E+00
         25   -1    0    0    0    0  0.00000000000E+00  0.00000000000E+00  0.99999998245E-14  0.12500000000E+03  0.12500000000E+03 0.  0.
        -11    1    3    3    0    0  0.56644287757E+01  0.76003191310E+01 -0.40612800577E+02  0.41704318424E+02  0.51100000000E-03 0. -1.
         23    2    1    0    0    0 -0.30373787954E+02  0.66872385818E+01 -0.30783758914E+01  0.93746799322E+02  0.88383821089E+02 0.  0.
         11    1    3    3    0    0 -0.36038216730E+02 -0.91308054921E+00  0.37534424686E+02  0.52042480897E+02  0.51100000000E-03 0.  1.
         22    1    1    0    0    0  0.30373787954E+02 -0.66872385818E+01  0.30783758914E+01  0.31253200678E+02  0.00000000000E+00 0.  1.
</event>
<event>
 5    1  0.1111613E-009  0.9118800E+02  0.7818608E-02  0.1130116E+00
         25   -1    0    0    0    0  0.00000000000E+00  0.00000000000E+00  0.99999998245E-14  0.12500000000E+03  0.12500000000E+03 0.  0.
        -11    1    3    3    0    0  0.56273714841E+01  0.18154423123E+02  0.19303859552E+02  0.27090392811E+02  0.51100000000E-03 0. -1.
         23    2    1    0    0    0  0.12394311537E+02 -0.23659140766E+02 -0.25022370617E+02  0.88400916247E+02  0.80468808005E+02 0.  0.
         11    1    3    3    0    0  0.67669400533E+01 -0.41813563889E+02 -0.44326230169E+02  0.61310523437E+02  0.51100000000E-03 0.  1.
         22    1    1    0    0    0 -0.12394311537E+02  0.23659140766E+02  0.25022370617E+02  0.36599083753E+02  0.00000000000E+00 0.  1.
</event>
<event>
 5    1  0.1111613E-009  0.9118800E+02  0.7818608E-02  0.1130116E+00
         25   -1    0    0    0    0  0.00000000000E+00  0.00000000000E+00  0.99999998245E-14  0.12500000000E+03  0.12500000000E+03 0.  0.
        -11    1    3    3    0    0  0.24576519170E+02 -0.36086019471E+02  0.12201440764E+01  0.43677166204E+02  0.51100000000E-03 0. -1.
         23    2    1    0    0    0  0.51190785612E+01  0.41531814736E+01  0.28303534141E+02  0.95938962053E+02  0.91431616596E+02 0.  0.
         11    1    3    3    0    0 -0.19457440609E+02  0.40239200945E+02  0.27083390064E+02  0.52261795849E+02  0.51100000000E-03 0.  1.
         22    1    1    0    0    0 -0.51190785612E+01 -0.41531814736E+01 -0.28303534141E+02  0.29061037947E+02  0.00000000000E+00 0.  1.
</event>
<event>
 5    1  0.1111613E-009  0.9118800E+02  0.7818608E-02  0.1130116E+00
         25   -1    0    0    0    0  0.00000000000E+00  0.00000000000E+00  0.99999998245E-14  0.12500000000E+03  0.12500000000E+03 0.  0.
        -11    1    3    3    0    0  0.70653486440E+01 -0.27490730930E+02  0.25824745360E+02  0.38374169850E+02  0.51100000000E-03 0.  1.
         23    2    1    0    0    0  0.18912882403E+02  0.22196143944E+02 -0.49209369880E+00  0.95834813853E+02  0.91289120180E+02 0.  0.
         11    1    3    3    0    0  0.11847533759E+02  0.49686874874E+02 -0.26316839058E+02  0.57460644003E+02  0.51100000000E-03 0. -1.
         22    1    1    0    0    0 -0.18912882403E+02 -0.22196143944E+02  0.49209369880E+00  0.29165186147E+02  0.00000000000E+00 0. -1.
</event>
<event>
 5    1  0.1111613E-009  0.9118800E+02  0.7818608E-02  0.1130116E+00
         25   -1    0    0    0    0  0.00000000000E+00  0.00000000000E+00  0.99999998245E-14  0.12500000000E+03  0.12500000000E+03 0.  0.
        -11    1    3    3    0    0  0.53562009239E+02 -0.22582336671E+00  0.21231013500E+02  0.57616801061E+02  0.51100000000E-03 0.  1.
         23    2    1    0    0    0  0.23023440404E+02  0.16411138867E+02  0.39449047087E+01  0.96452380833E+02  0.92130859152E+02 0.  0.
         11    1    3    3    0    0 -0.30538568835E+02  0.16636962233E+02 -0.17286108791E+02  0.38835579772E+02  0.51100000000E-03 0. -1.
         22    1    1    0    0    0 -0.23023440404E+02 -0.16411138867E+02 -0.39449047087E+01  0.28547619167E+02  0.00000000000E+00 0.  1.
</event>
<event>
 5    1  0.1111613E-009  0.9118800E+02  0.7818608E-02  0.1130116E+00
         25   -1    0    0    0    0  0.00000000000E+00  0.00000000000E+00  0.99999998245E-14  0.12500000000E+03  0.12500000000E+03 0.  0.
        -11    1    3    3    0    0  0.29435916442E+01 -0.12392422757E+02  0.52291346070E+02  0.53820272645E+02  0.51100000000E-03 0.  1.
         23    2    1    0    0    0  0.22943806864E+02 -0.10851030807E+02  0.16878826108E+02  0.94519548662E+02  0.89470035014E+02 0.  0.
         11    1    3    3    0    0  0.20000215220E+02  0.15413919503E+01 -0.35412519961E+02  0.40699276016E+02  0.51100000000E-03 0. -1.
         22    1    1    0    0    0 -0.22943806864E+02  0.10851030807E+02 -0.16878826108E+02  0.30480451338E+02  0.00000000000E+00 0.  1.
</event>
<event>
 5    1  0.1111613E-009  0.9118800E+02  0.7818608E-02  0.1130116E+00
         25   -1    0    0    0    0  0.00000000000E+00  0.00000000000E+00  0.99999998245E-14  0.12500000000E+03  0.12500000000E+03 0.  0.
        -11    1    3    3    0    0 -0.13009768042E+02 -0.21137688452E+02 -0.22204824483E+02  0.33303305664E+02  0.51100000000E-03 0. -1.
         23    2    1    0    0    0  0.16742399531E+02  0.21542613559E+02  0.11605018031E+02  0.95350909213E+02  0.90624098910E+02 0.  0.
         11    1    3    3    0    0  0.29752167573E+02  0.42680302011E+02  0.33809842514E+02  0.62047603548E+02  0.51100000000E-03 0.  1.
         22    1    1    0    0    0 -0.16742399531E+02 -0.21542613559E+02 -0.11605018031E+02  0.29649090787E+02  0.00000000000E+00 0.  1.
</event>
<event>
 5    1  0.1111613E-009  0.9118800E+02  0.7818608E-02  0.1130116E+00
         25   -1    0    0    0    0  0.00000000000E+00  0.00000000000E+00  0.99999998245E-14  0.12500000000E+03  0.12500000000E+03 0.  0.
        -11    1    3    3    0    0  0.49130069528E+02  0.55005863882E+01  0.65485888268E+01  0.49868870032E+02  0.51100000000E-03 0. -1.
         23    2    1    0    0    0  0.11340549892E+01  0.24680287842E+01  0.23863320843E+02  0.10098260363E+03  0.98084916819E+02 0.  0.
         11    1    3    3    0    0 -0.47996014538E+02 -0.30325576040E+01  0.17314732016E+02  0.51113733597E+02  0.51100000000E-03 0.  1.
         22    1    1    0    0    0 -0.11340549892E+01 -0.24680287842E+01 -0.23863320843E+02  0.24017396371E+02  0.00000000000E+00 0.  1.
</event>
<event>
 5    1  0.1111613E-009  0.9118800E+02  0.7818608E-02  0.1130116E+00
         25   -1    0    0    0    0  0.00000000000E+00  0.00000000000E+00  0.99999998245E-14  0.12500000000E+03  0.12500000000E+03 0.  0.
        -11    1    3    3    0    0 -0.28148841053E+02  0.36821340645E+02 -0.35267648144E+02  0.58240667796E+02  0.51100000000E-03 0.  1.
         23    2    1    0    0    0  0.17825757496E+01  0.15169752565E+02 -0.23427107324E+02  0.97033442708E+02  0.92915879573E+02 0.  0.
         11    1    3    3    0    0  0.29931416802E+02 -0.21651588079E+02  0.11840540820E+02  0.38792774911E+02  0.51100000000E-03 0. -1.
         22    1    1    0    0    0 -0.17825757496E+01 -0.15169752565E+02  0.23427107324E+02  0.27966557292E+02  0.00000000000E+00 0.  1.
</event>
<event>
 5    1  0.1111613E-009  0.9118800E+02  0.7818608E-02  0.1130116E+00
         25   -1    0    0    0    0  0.00000000000E+00  0.00000000000E+00  0.99999998245E-14  0.12500000000E+03  0.12500000000E+03 0.  0.
        -11    1    3    3    0    0  0.15710610909E+02 -0.41204855552E+02 -0.84598944125E+01  0.44902485788E+02  0.51100000000E-03 0.  1.
         23    2    1    0    0    0  0.59876487562E+01 -0.66145246034E+01  0.27712009924E+02  0.95887127119E+02  0.91360723398E+02 0.  0.
         11    1    3    3    0    0 -0.97229621529E+01  0.34590330948E+02  0.36171904336E+02  0.50984641332E+02  0.51100000000E-03 0. -1.
         22    1    1    0    0    0 -0.59876487562E+01  0.66145246034E+01 -0.27712009924E+02  0.29112872881E+02  0.00000000000E+00 0. -1.
</event>
<event>
 5    1  0.1111613E-009  0.9118800E+02  0.7818608E-02  0.1130116E+00
         25   -1    0    0    0    0  0.00000000000E+00  0.00000000000E+00  0.99999998245E-14  0.12500000000E+03  0.12500000000E+03 0.  0.
        -11    1    3    3    0    0  0.46831274999E+02  0.25697919119E+02  0.17319033023E+02  0.56156035030E+02  0.51100000000E-03 0.  1.
         23    2    1    0    0    0  0.20057853453E+02 -0.22336379595E+01  0.22018831311E+02  0.95131361665E+02  0.90320764037E+02 0.  0.
         11    1    3    3    0    0 -0.26773421546E+02 -0.27931557079E+02  0.46997982878E+01  0.38975326636E+02  0.51100000000E-03 0. -1.
         22    1    1    0    0    0 -0.20057853453E+02  0.22336379595E+01 -0.22018831311E+02  0.29868638335E+02  0.00000000000E+00 0. -1.
</event>
<event>
 5    1  0.1111613E-009  0.9118800E+02  0.7818608E-02  0.1130116E+00
         25   -1    0    0    0    0  0.00000000000E+00  0.00000000000E+00  0.99999998245E-14  0.12500000000E+03  0.12500000000E+03 0.  0.
        -11    1    3    3    0    0  0.19350786075E+02 -0.38560738992E+02  0.23010359308E+02  0.48896422661E+02  0.51100000000E-03 0. -1.
         23    2    1    0    0    0  0.22240442823E+02 -0.10132139356E+02 -0.14904968595E+02  0.96373864500E+02  0.92024269217E+02 0.  0.
         11    1    3    3    0    0  0.28896567473E+01  0.28428599635E+02 -0.37915327902E+02  0.47477441839E+02  0.51100000000E-03 0.  1.
         22    1    1    0    0    0 -0.22240442823E+02  0.10132139356E+02  0.14904968595E+02  0.28626135500E+02  0.00000000000E+00 0.  1.
</event>
<event>
 5    1  0.1111613E-009  0.9118800E+02  0.7818608E-02  0.1130116E+00
         25   -1    0    0    0    0  0.00000000000E+00  0.00000000000E+00  0.99999998245E-14  0.12500000000E+03  0.12500000000E+03 0.  0.
        -11    1    3    3    0    0  0.45388262357E+02 -0.30381999135E+02  0.21740977336E+02  0.58786310711E+02  0.51100000000E-03 0.  1.
         23    2    1    0    0    0  0.28031405571E+02 -0.70588360180E+00  0.77053284861E+01  0.95920281002E+02  0.91406073379E+02 0.  0.
         11    1    3    3    0    0 -0.17356856786E+02  0.29676115534E+02 -0.14035648850E+02  0.37133970291E+02  0.51100000000E-03 0. -1.
         22    1    1    0    0    0 -0.28031405571E+02  0.70588360180E+00 -0.77053284861E+01  0.29079718998E+02  0.00000000000E+00 0.  1.
</event>
<event>
 5    1  0.1111613E-009  0.9118800E+02  0.7818608E-02  0.1130116E+00
         25   -1    0    0    0    0  0.00000000000E+00  0.00000000000E+00  0.99999998245E-14  0.12500000000E+03  0.12500000000E+03 0.  0.
        -11    1    3    3    0    0 -0.57952687917E+02 -0.16026339830E+01 -0.23782970019E+01  0.58023605277E+02  0.51100000000E-03 0. -1.
         23    2    1    0    0    0 -0.23047523973E+02 -0.11107138359E+02  0.11731898308E+02  0.96854053192E+02  0.92674232114E+02 0.  0.
         11    1    3    3    0    0  0.34905163943E+02 -0.95045043758E+01  0.14110195310E+02  0.38830447915E+02  0.51100000000E-03 0.  1.
         22    1    1    0    0    0  0.23047523973E+02  0.11107138359E+02 -0.11731898308E+02  0.28145946808E+02  0.00000000000E+00 0. -1.
</event>
<event>
 5    1  0.1111613E-009  0.9118800E+02  0.7818608E-02  0.1130116E+00
         25   -1    0    0    0    0  0.00000000000E+00  0.00000000000E+00  0.99999998245E-14  0.12500000000E+03  0.12500000000E+03 0.  0.
        -11    1    3    3    0    0  0.22461099206E+02  0.36980806178E+02 -0.38682007731E+01  0.43440119482E+02  0.51100000000E-03 0.  1.
         23    2    1    0    0    0 -0.16769159683E+02  0.66453726578E+01 -0.22275557958E+02  0.96337024289E+02  0.91974214170E+02 0.  0.
         11    1    3    3    0    0 -0.39230258889E+02 -0.30335433520E+02 -0.18407357185E+02  0.52896904807E+02  0.51100000000E-03 0. -1.
         22    1    1    0    0    0  0.16769159683E+02 -0.66453726578E+01  0.22275557958E+02  0.28662975711E+02  0.00000000000E+00 0. -1.
</event>
<event>
 5    1  0.1111613E-009  0.9118800E+02  0.7818608E-02  0.1130116E+00
         25   -1    0    0    0    0  0.00000000000E+00  0.00000000000E+00  0.99999998245E-14  0.12500000000E+03  0.12500000000E+03 0.  0.
        -11    1    3    3    0    0 -0.41094401790E+02  0.31068429685E+01 -0.26509122949E+02  0.49001387036E+02  0.51100000000E-03 0.  1.
         23    2    1    0    0    0 -0.26216243670E+02  0.40661821035E+01  0.15979280337E+02  0.94029648546E+02  0.88782949582E+02 0.  0.
         11    1    3    3    0    0  0.14878158119E+02  0.95933913504E+00  0.42488403286E+02  0.45028261510E+02  0.51100000000E-03 0. -1.
         22    1    1    0    0    0  0.26216243670E+02 -0.40661821035E+01 -0.15979280337E+02  0.30970351454E+02  0.00000000000E+00 0.  1.
</event>
<event>
 5    1  0.1111613E-009  0.9118800E+02  0.7818608E-02  0.1130116E+00
         25   -1    0    0    0    0  0.00000000000E+00  0.00000000000E+00  0.99999998245E-14  0.12500000000E+03  0.12500000000E+03 0.  0.
        -11    1    3    3    0    0 -0.37481215126E+02  0.27571651385E+01 -0.69957021409E+01  0.38228043315E+02  0.51100000000E-03 0.  1.
         23    2    1    0    0    0  0.62128236387E+01  0.24582207819E+02  0.18773848567E+02  0.93450966594E+02  0.87964433998E+02 0.  0.
         11    1    3    3    0    0  0.43694038765E+02  0.21825042680E+02  0.25769550708E+02  0.55222923280E+02  0.51100000000E-03 0. -1.
         22    1    1    0    0    0 -0.62128236387E+01 -0.24582207819E+02 -0.18773848567E+02  0.31549033406E+02  0.00000000000E+00 0. -1.
</event>
<event>
 5    1  0.1111613E-009  0.9118800E+02  0.7818608E-02  0.1130116E+00
         25   -1    0    0    0    0  0.00000000000E+00  0.00000000000E+00  0.99999998245E-14  0.12500000000E+03  0.12500000000E+03 0.  0.
        -11    1    3    3    0    0  0.56960747580E+02  0.64710934622E+01 -0.67573089982E+01  0.57724024813E+02  0.51100000000E-03 0.  1.
         23    2    1    0    0    0  0.23212326752E+02 -0.18618473523E+01 -0.19376880317E+02  0.94705741804E+02  0.89729791324E+02 0.  0.
         11    1    3    3    0    0 -0.33748420829E+02 -0.83329408145E+01 -0.12619571319E+02  0.36981716991E+02  0.51100000000E-03 0. -1.
         22    1    1    0    0    0 -0.23212326752E+02  0.18618473523E+01  0.19376880317E+02  0.30294258196E+02  0.00000000000E+00 0.  1.
</event>
<event>
 5    1  0.1111613E-009  0.9118800E+02  0.7818608E-02  0.1130116E+00
         25   -1    0    0    0    0  0.00000000000E+00  0.00000000000E+00  0.99999998245E-14  0.12500000000E+03  0.12500000000E+03 0.  0.
        -11    1    3    3    0    0  0.49780736488E+01 -0.38184125215E+02 -0.12350296053E+02  0.40439318102E+02  0.51100000000E-03 0. -1.
         23    2    1    0    0    0 -0.56579804274E+01  0.14006148416E+02 -0.25554545862E+02  0.95314654286E+02  0.90574077812E+02 0.  0.
         11    1    3    3    0    0 -0.10636054076E+02  0.52190273631E+02 -0.13204249809E+02  0.54875336184E+02  0.51100000000E-03 0.  1.
         22    1    1    0    0    0  0.56579804274E+01 -0.14006148416E+02  0.25554545862E+02  0.29685345714E+02  0.00000000000E+00 0.  1.
</event>
<event>
 5    1  0.1111613E-009  0.9118800E+02  0.7818608E-02  0.1130116E+00
         25   -1    0    0    0    0  0.00000000000E+00  0.00000000000E+00  0.99999998245E-14  0.12500000000E+03  0.12500000000E+03 0.  0.
        -11    1    3    3    0    0  0.55223479630E+02 -0.53566006055E+01 -0.90655582701E+00  0.55490068627E+02  0.51100000000E-03 0. -1.
         23    2    1    0    0    0  0.18998505320E+02  0.17545641458E+02  0.47086226495E+01  0.98713808457E+02  0.95149630132E+02 0.  0.
         11    1    3    3    0    0 -0.36224974310E+02  0.22902242063E+02  0.56151784765E+01  0.43223739830E+02  0.51100000000E-03 0.  1.
         22    1    1    0    0    0 -0.18998505320E+02 -0.17545641458E+02 -0.47086226495E+01  0.26286191543E+02  0.00000000000E+00 0. -1.
</event>
<event>
 5    1  0.1111613E-009  0.9118800E+02  0.7818608E-02  0.1130116E+00
         25   -1    0    0    0    0  0.00000000000E+00  0.00000000000E+00  0.99999998245E-14  0.12500000000E+03  0.12500000000E+03 0.  0.
        -11    1    3    3    0    0 -0.58638626871E+00 -0.24934780590E+02  0.23451656722E+02  0.34235468964E+02  0.51100000000E-03 0.  1.
         23    2    1    0    0    0 -0.25382091601E+01  0.14021100278E+02 -0.24871389440E+02  0.96336089391E+02  0.91972943564E+02 0.  0.
         11    1    3    3    0    0 -0.19518228914E+01  0.38955880868E+02 -0.48323046161E+02  0.62100620427E+02  0.51100000000E-03 0. -1.
         22    1    1    0    0    0  0.25382091601E+01 -0.14021100278E+02  0.24871389440E+02  0.28663910609E+02  0.00000000000E+00 0. -1.
</event>
<event>
 5    1  0.1111613E-009  0.9118800E+02  0.7818608E-02  0.1130116E+00
         25   -1    0    0    0    0  0.00000000000E+00  0.00000000000E+00  0.99999998245E-14  0.12500000000E+03  0.12500000000E+03 0.  0.
        -11    1    3    3    0    0  0.32056353798E+02  0.22880647933E+01 -0.22865366108E+02  0.39441983049E+02  0.51100000000E-03 0.  1.
         23    2    1    0    0    0  0.86025746617E+01 -0.20174295268E+02  0.21409969281E+02  0.94350476921E+02  0.89233509570E+02 0.  0.
         11    1    3    3    0    0 -0.23453779136E+02 -0.22462360061E+02  0.44275335389E+02  0.54908493872E+02  0.51100000000E-03 0. -1.
         22    1    1    0    0    0 -0.86025746617E+01  0.20174295268E+02 -0.21409969281E+02  0.30649523079E+02  0.00000000000E+00 0. -1.
</event>
<event>
 5    1  0.1111613E-009  0.9118800E+02  0.7818608E-02  0.1130116E+00
         25   -1    0    0    0    0  0.00000000000E+00  0.00000000000E+00  0.99999998245E-14  0.12500000000E+03  0.12500000000E+03 0.  0.
        -11    1    3    3    0    0  0.88036184650E+01 -0.22917215684E+02  0.48805770449E+02  0.54632460151E+02  0.51100000000E-03 0.  1.
         23    2    1    0    0    0  0.16916073976E+02  0.74257614187E+01  0.24325900762E+02  0.94454215687E+02  0.89378710674E+02 0.  0.
         11    1    3    3    0    0  0.81124555111E+01  0.30342977103E+02 -0.24479869687E+02  0.39821755537E+02  0.51100000000E-03 0. -1.
         22    1    1    0    0    0 -0.16916073976E+02 -0.74257614187E+01 -0.24325900762E+02  0.30545784313E+02  0.00000000000E+00 0.  1.
</event>
<event>
 5    1  0.1111613E-009  0.9118800E+02  0.7818608E-02  0.1130116E+00
         25   -1    0    0    0    0  0.00000000000E+00  0.00000000000E+00  0.99999998245E-14  0.12500000000E+03  0.12500000000E+03 0.  0.
        -11    1    3    3    0    0  0.35106824607E+02 -0.77922965136E+01 -0.14285901300E+02  0.38694909163E+02  0.51100000000E-03 0.  1.
         23    2    1    0    0    0 -0.44459333166E+01 -0.12066148554E+02  0.26422396836E+02  0.95614607055E+02  0.90987096688E+02 0.  0.
         11    1    3    3    0    0 -0.39552757924E+02 -0.42738520403E+01  0.40708298136E+02  0.56919697891E+02  0.51100000000E-03 0. -1.
         22    1    1    0    0    0  0.44459333166E+01  0.12066148554E+02 -0.26422396836E+02  0.29385392945E+02  0.00000000000E+00 0. -1.
</event>
<event>
 5    1  0.1111613E-009  0.9118800E+02  0.7818608E-02  0.1130116E+00
         25   -1    0    0    0    0  0.00000000000E+00  0.00000000000E+00  0.99999998245E-14  0.12500000000E+03  0.12500000000E+03 0.  0.
        -11    1    3    3    0    0 -0.30900393606E+02 -0.68730386035E+01  0.52614835377E+02  0.61403533177E+02  0.51100000000E-03 0. -1.
         23    2    1    0    0    0 -0.20279999075E+02  0.11671210260E+01  0.20647178046E+02  0.96035426893E+02  0.91563402751E+02 0.  0.
         11    1    3    3    0    0  0.10620394530E+02  0.80401596296E+01 -0.31967657331E+02  0.34631893716E+02  0.51100000000E-03 0.  1.
         22    1    1    0    0    0  0.20279999075E+02 -0.11671210260E+01 -0.20647178046E+02  0.28964573107E+02  0.00000000000E+00 0. -1.
</event>
<event>
 5    1  0.1111613E-009  0.9118800E+02  0.7818608E-02  0.1130116E+00
         25   -1    0    0    0    0  0.00000000000E+00  0.00000000000E+00  0.99999998245E-14  0.12500000000E+03  0.12500000000E+03 0.  0.
        -11    1    3    3    0    0 -0.32735863929E+02  0.31599968387E+02 -0.15551991604E+02  0.48083877052E+02  0.51100000000E-03 0.  1.
         23    2    1    0    0    0 -0.17850470524E+02  0.33766303264E+01  0.21415027518E+02  0.96917187928E+02  0.92759349836E+02 0.  0.
         11    1    3    3    0    0  0.14885393406E+02 -0.28223338061E+02  0.36967019121E+02  0.48833310876E+02  0.51100000000E-03 0. -1.
         22    1    1    0    0    0  0.17850470524E+02 -0.33766303264E+01 -0.21415027518E+02  0.28082812072E+02  0.00000000000E+00 0.  1.
</event>
<event>
 5    1  0.1111613E-009  0.9118800E+02  0.7818608E-02  0.1130116E+00
         25   -1    0    0    0    0  0.00000000000E+00  0.00000000000E+00  0.99999998245E-14  0.12500000000E+03  0.12500000000E+03 0.  0.
        -11    1    3    3    0    0  0.15099588143E+02  0.38355221289E+02 -0.48492935954E+01  0.41504652882E+02  0.51100000000E-03 0.  1.
         23    2    1    0    0    0 -0.17545557608E+02  0.20951797612E+02 -0.28580780418E+02  0.85456537528E+02  0.75757074798E+02 0.  0.
         11    1    3    3    0    0 -0.32645145751E+02 -0.17403423677E+02 -0.23731486823E+02  0.43951884646E+02  0.51100000000E-03 0. -1.
         22    1    1    0    0    0  0.17545557608E+02 -0.20951797612E+02  0.28580780418E+02  0.39543462472E+02  0.00000000000E+00 0. -1.
</event>
<event>
 5    1  0.1111613E-009  0.9118800E+02  0.7818608E-02  0.1130116E+00
         25   -1    0    0    0    0  0.00000000000E+00  0.00000000000E+00  0.99999998245E-14  0.12500000000E+03  0.12500000000E+03 0.  0.
        -11    1    3    3    0    0 -0.97397143273E+01  0.32074520867E+02 -0.72547205409E+01  0.34296762156E+02  0.51100000000E-03 0. -1.
         23    2    1    0    0    0 -0.27126885811E+01 -0.26569823123E+02  0.10997412230E+02  0.96116488165E+02  0.91673998720E+02 0.  0.
         11    1    3    3    0    0  0.70270257462E+01 -0.58644343990E+02  0.18252132771E+02  0.61819726009E+02  0.51100000000E-03 0.  1.
         22    1    1    0    0    0  0.27126885811E+01  0.26569823123E+02 -0.10997412230E+02  0.28883511835E+02  0.00000000000E+00 0.  1.
</event>
<event>
 5    1  0.1111613E-009  0.9118800E+02  0.7818608E-02  0.1130116E+00
         25   -1    0    0    0    0  0.00000000000E+00  0.00000000000E+00  0.99999998245E-14  0.12500000000E+03  0.12500000000E+03 0.  0.
        -11    1    3    3    0    0  0.13381001485E+02 -0.27120097497E+02 -0.14430435020E+02  0.33508034024E+02  0.51100000000E-03 0.  1.
         23    2    1    0    0    0  0.39374337304E+01  0.23552141932E+02  0.18603377719E+02  0.94729677297E+02  0.89763128980E+02 0.  0.
         11    1    3    3    0    0 -0.94435677541E+01  0.50672239430E+02  0.33033812739E+02  0.61221643273E+02  0.51100000000E-03 0. -1.
         22    1    1    0    0    0 -0.39374337304E+01 -0.23552141932E+02 -0.18603377719E+02  0.30270322703E+02  0.00000000000E+00 0. -1.
</event>
<event>
 5    1  0.1111613E-009  0.9118800E+02  0.7818608E-02  0.1130116E+00
         25   -1    0    0    0    0  0.00000000000E+00  0.00000000000E+00  0.99999998245E-14  0.12500000000E+03  0.12500000000E+03 0.  0.
        -11    1    3    3    0    0  0.55252288444E+01  0.19206285381E+02  0.44131554193E+02  0.48445883496E+02  0.51100000000E-03 0. -1.
         23    2    1    0    0    0  0.19381153209E+02  0.22123668022E+02 -0.82140125074E+00  0.95576191843E+02  0.90934305741E+02 0.  0.
         11    1    3    3    0    0  0.13855924365E+02  0.29173826415E+01 -0.44952955444E+02  0.47130308347E+02  0.51100000000E-03 0.  1.
         22    1    1    0    0    0 -0.19381153209E+02 -0.22123668022E+02  0.82140125074E+00  0.29423808157E+02  0.00000000000E+00 0.  1.
</event>
<event>
 5    1  0.1111613E-009  0.9118800E+02  0.7818608E-02  0.1130116E+00
         25   -1    0    0    0    0  0.00000000000E+00  0.00000000000E+00  0.99999998245E-14  0.12500000000E+03  0.12500000000E+03 0.  0.
        -11    1    3    3    0    0  0.56218909878E+02  0.56862174063E+01  0.22827214195E+02  0.60942436811E+02  0.51100000000E-03 0.  1.
         23    2    1    0    0    0  0.22990092078E+02 -0.50871939998E+01  0.15992002712E+02  0.96536549273E+02  0.92244985328E+02 0.  0.
         11    1    3    3    0    0 -0.33228817800E+02 -0.10773411406E+02 -0.68352114828E+01  0.35594112462E+02  0.51100000000E-03 0. -1.
         22    1    1    0    0    0 -0.22990092078E+02  0.50871939998E+01 -0.15992002712E+02  0.28463450727E+02  0.00000000000E+00 0.  1.
</event>
<event>
 5    1  0.1111613E-009  0.9118800E+02  0.7818608E-02  0.1130116E+00
         25   -1    0    0    0    0  0.00000000000E+00  0.00000000000E+00  0.99999998245E-14  0.12500000000E+03  0.12500000000E+03 0.  0.
        -11    1    3    3    0    0 -0.18706020102E+02 -0.45159788080E+02 -0.12249374820E+02  0.50392150492E+02  0.51100000000E-03 0. -1.
         23    2    1    0    0    0 -0.24683365832E+02 -0.13148090212E+01 -0.17152288158E+02  0.94913487064E+02  0.90018730085E+02 0.  0.
         11    1    3    3    0    0 -0.59773457307E+01  0.43844979059E+02 -0.49029133380E+01  0.44521336572E+02  0.51100000000E-03 0.  1.
         22    1    1    0    0    0  0.24683365832E+02  0.13148090212E+01  0.17152288158E+02  0.30086512936E+02  0.00000000000E+00 0.  1.
</event>
<event>
 5    1  0.1111613E-009  0.9118800E+02  0.7818608E-02  0.1130116E+00
         25   -1    0    0    0    0  0.00000000000E+00  0.00000000000E+00  0.99999998245E-14  0.12500000000E+03  0.12500000000E+03 0.  0.
        -11    1    3    3    0    0  0.44685943778E+02 -0.26388047714E+02 -0.17839603871E+01  0.51926343491E+02  0.51100000000E-03 0.  1.
         23    2    1    0    0    0  0.66337714491E+01 -0.33444159997E+02  0.22098507847E+01  0.90832732008E+02  0.84161648047E+02 0.  0.
         11    1    3    3    0    0 -0.38052172328E+02 -0.70561122833E+01  0.39938111718E+01  0.38906388517E+02  0.51100000000E-03 0. -1.
         22    1    1    0    0    0 -0.66337714491E+01  0.33444159997E+02 -0.22098507847E+01  0.34167267992E+02  0.00000000000E+00 0.  1.
</event>
<event>
 5    1  0.1111613E-009  0.9118800E+02  0.7818608E-02  0.1130116E+00
         25   -1    0    0    0    0  0.00000000000E+00  0.00000000000E+00  0.99999998245E-14  0.12500000000E+03  0.12500000000E+03 0.  0.
        -11    1    3    3    0    0 -0.83392512783E+01  0.12789033980E+02 -0.55509444115E+02  0.57570833660E+02  0.51100000000E-03 0.  1.
         23    2    1    0    0    0  0.63158342899E+01 -0.83982219539E+01 -0.27165675901E+02  0.95872798934E+02  0.91341117431E+02 0.  0.
         11    1    3    3    0    0  0.14655085568E+02 -0.21187255934E+02  0.28343768215E+02  0.38301965275E+02  0.51100000000E-03 0. -1.
         22    1    1    0    0    0 -0.63158342899E+01  0.83982219539E+01  0.27165675901E+02  0.29127201066E+02  0.00000000000E+00 0.  1.
</event>
<event>
 5    1  0.1111613E-009  0.9118800E+02  0.7818608E-02  0.1130116E+00
         25   -1    0    0    0    0  0.00000000000E+00  0.00000000000E+00  0.99999998245E-14  0.12500000000E+03  0.12500000000E+03 0.  0.
        -11    1    3    3    0    0  0.15428479147E+02  0.13758585464E+02  0.52099391481E+02  0.56050720207E+02  0.51100000000E-03 0.  1.
         23    2    1    0    0    0  0.40222657311E+01  0.24338022053E+02  0.15379341402E+02  0.95930392486E+02  0.91419900030E+02 0.  0.
         11    1    3    3    0    0 -0.11406213416E+02  0.10579436589E+02 -0.36720050079E+02  0.39879672279E+02  0.51100000000E-03 0. -1.
         22    1    1    0    0    0 -0.40222657311E+01 -0.24338022053E+02 -0.15379341402E+02  0.29069607514E+02  0.00000000000E+00 0.  1.
</event>
<event>
 5    1  0.1111613E-009  0.9118800E+02  0.7818608E-02  0.1130116E+00
         25   -1    0    0    0    0  0.00000000000E+00  0.00000000000E+00  0.99999998245E-14  0.12500000000E+03  0.12500000000E+03 0.  0.
        -11    1    3    3    0    0 -0.10808840636E+01  0.24892469172E+02 -0.25632912555E+02  0.35747021388E+02  0.51100000000E-03 0. -1.
         23    2    1    0    0    0 -0.97957610297E+01 -0.27048861723E+02  0.36397834929E+01  0.96002657388E+02  0.91518655733E+02 0.  0.
         11    1    3    3    0    0 -0.87148769661E+01 -0.51941330894E+02  0.29272696048E+02  0.60255636000E+02  0.51100000000E-03 0.  1.
         22    1    1    0    0    0  0.97957610297E+01  0.27048861723E+02 -0.36397834929E+01  0.28997342612E+02  0.00000000000E+00 0.  1.
</event>
<event>
 5    1  0.1111613E-009  0.9118800E+02  0.7818608E-02  0.1130116E+00
         25   -1    0    0    0    0  0.00000000000E+00  0.00000000000E+00  0.99999998245E-14  0.12500000000E+03  0.12500000000E+03 0.  0.
        -11    1    3    3    0    0  0.24643038168E+00 -0.16632955290E+02  0.29810769995E+02  0.34137925209E+02  0.51100000000E-03 0. -1.
         23    2    1    0    0    0  0.74053510657E+01  0.10642708412E+02 -0.25595681081E+02  0.96307747444E+02  0.91934416086E+02 0.  0.
         11    1    3    3    0    0  0.71589206840E+01  0.27275663702E+02 -0.55406451076E+02  0.62169822235E+02  0.51100000000E-03 0.  1.
         22    1    1    0    0    0 -0.74053510657E+01 -0.10642708412E+02  0.25595681081E+02  0.28692252556E+02  0.00000000000E+00 0.  1.
</event>
<event>
 5    1  0.1111613E-009  0.9118800E+02  0.7818608E-02  0.1130116E+00
         25   -1    0    0    0    0  0.00000000000E+00  0.00000000000E+00  0.99999998245E-14  0.12500000000E+03  0.12500000000E+03 0.  0.
        -11    1    3    3    0    0 -0.46027961346E+01 -0.87363091142E+01 -0.39038651373E+02  0.40268165224E+02  0.51100000000E-03 0.  1.
         23    2    1    0    0    0 -0.24071888023E+02  0.15259620854E+02  0.69404136671E+01  0.95666040781E+02  0.91057730014E+02 0.  0.
         11    1    3    3    0    0 -0.19469091888E+02  0.23995929968E+02  0.45979065041E+02  0.55397875557E+02  0.51100000000E-03 0. -1.
         22    1    1    0    0    0  0.24071888023E+02 -0.15259620854E+02 -0.69404136671E+01  0.29333959219E+02  0.00000000000E+00 0.  1.
</event>
<event>
 5    1  0.1111613E-009  0.9118800E+02  0.7818608E-02  0.1130116E+00
         25   -1    0    0    0    0  0.00000000000E+00  0.00000000000E+00  0.99999998245E-14  0.12500000000E+03  0.12500000000E+03 0.  0.
        -11    1    3    3    0    0 -0.21430941016E+02  0.20089926115E+02  0.15418092176E+02  0.33175411538E+02  0.51100000000E-03 0.  1.
         23    2    1    0    0    0  0.21115984871E+02 -0.17649789422E+02 -0.10328651798E+02  0.95604746443E+02  0.90973548962E+02 0.  0.
         11    1    3    3    0    0  0.42546925887E+02 -0.37739715537E+02 -0.25746743974E+02  0.62429334905E+02  0.51100000000E-03 0. -1.
         22    1    1    0    0    0 -0.21115984871E+02  0.17649789422E+02  0.10328651798E+02  0.29395253557E+02  0.00000000000E+00 0. -1.
</event>
<event>
 5    1  0.1111613E-009  0.9118800E+02  0.7818608E-02  0.1130116E+00
         25   -1    0    0    0    0  0.00000000000E+00  0.00000000000E+00  0.99999998245E-14  0.12500000000E+03  0.12500000000E+03 0.  0.
        -11    1    3    3    0    0  0.28588682750E+02 -0.20423188096E+02  0.20521468844E+01  0.35194185607E+02  0.51100000000E-03 0. -1.
         23    2    1    0    0    0 -0.14719674082E+02  0.15193892618E+02 -0.20415250246E+02  0.95600924835E+02  0.90968297822E+02 0.  0.
         11    1    3    3    0    0 -0.43308356832E+02  0.35617080714E+02 -0.22467397130E+02  0.60406739228E+02  0.51100000000E-03 0.  1.
         22    1    1    0    0    0  0.14719674082E+02 -0.15193892618E+02  0.20415250246E+02  0.29399075165E+02  0.00000000000E+00 0.  1.
</event>
<event>
 5    1  0.1111613E-009  0.9118800E+02  0.7818608E-02  0.1130116E+00
         25   -1    0    0    0    0  0.00000000000E+00  0.00000000000E+00  0.99999998245E-14  0.12500000000E+03  0.12500000000E+03 0.  0.
        -11    1    3    3    0    0  0.14226222768E+02  0.30634120819E+02 -0.90112689203E+01  0.34957656392E+02  0.51100000000E-03 0. -1.
         23    2    1    0    0    0  0.53928288446E+01 -0.28881149413E+02 -0.16523271824E+01  0.95573250613E+02  0.90930262582E+02 0.  0.
         11    1    3    3    0    0 -0.88333939229E+01 -0.59515270232E+02  0.73589417379E+01  0.60615594221E+02  0.51100000000E-03 0.  1.
         22    1    1    0    0    0 -0.53928288446E+01  0.28881149413E+02  0.16523271824E+01  0.29426749387E+02  0.00000000000E+00 0.  1.
</event>
<event>
 5    1  0.1111613E-009  0.9118800E+02  0.7818608E-02  0.1130116E+00
         25   -1    0    0    0    0  0.00000000000E+00  0.00000000000E+00  0.99999998245E-14  0.12500000000E+03  0.12500000000E+03 0.  0.
        -11    1    3    3    0    0 -0.20366075725E+01  0.38850530750E+02 -0.58281919550E+00  0.38908240623E+02  0.51100000000E-03 0.  1.
         23    2    1    0    0    0 -0.37459211708E+02  0.32139214264E+02  0.49984147907E+01  0.75390466786E+02  0.56768095762E+02 0.  0.
         11    1    3    3    0    0 -0.35422604136E+02 -0.67113164853E+01  0.55812339862E+01  0.36482226163E+02  0.51100000000E-03 0. -1.
         22    1    1    0    0    0  0.37459211708E+02 -0.32139214264E+02 -0.49984147907E+01  0.49609533214E+02  0.00000000000E+00 0. -1.
</event>
<event>
 5    1  0.1111613E-009  0.9118800E+02  0.7818608E-02  0.1130116E+00
         25   -1    0    0    0    0  0.00000000000E+00  0.00000000000E+00  0.99999998245E-14  0.12500000000E+03  0.12500000000E+03 0.  0.
        -11    1    3    3    0    0 -0.33487276806E+02  0.48036042042E+02 -0.11027596970E+02  0.59585794768E+02  0.51100000000E-03 0. -1.
         23    2    1    0    0    0 -0.21043817449E+02  0.24966232647E+02  0.72650838223E+01  0.91549492256E+02  0.85219557989E+02 0.  0.
         11    1    3    3    0    0  0.12443459357E+02 -0.23069809395E+02  0.18292680792E+02  0.31963697488E+02  0.51100000000E-03 0.  1.
         22    1    1    0    0    0  0.21043817449E+02 -0.24966232647E+02 -0.72650838223E+01  0.33450507744E+02  0.00000000000E+00 0. -1.
</event>
<event>
 5    1  0.1111613E-009  0.9118800E+02  0.7818608E-02  0.1130116E+00
         25   -1    0    0    0    0  0.00000000000E+00  0.00000000000E+00  0.99999998245E-14  0.12500000000E+03  0.12500000000E+03 0.  0.
        -11    1    3    3    0    0  0.85681809112E+01  0.36282448323E+02  0.11467819069E+02  0.39004367126E+02  0.51100000000E-03 0.  1.
         23    2    1    0    0    0  0.13660813502E+02 -0.18667801925E+02  0.19466497448E+02  0.94766753777E+02  0.89814745139E+02 0.  0.
         11    1    3    3    0    0  0.50926325912E+01 -0.54950250248E+02  0.79986783788E+01  0.55762386652E+02  0.51100000000E-03 0. -1.
         22    1    1    0    0    0 -0.13660813502E+02  0.18667801925E+02 -0.19466497448E+02  0.30233246223E+02  0.00000000000E+00 0. -1.
</event>
<event>
 5    1  0.1111613E-009  0.9118800E+02  0.7818608E-02  0.1130116E+00
         25   -1    0    0    0    0  0.00000000000E+00  0.00000000000E+00  0.99999998245E-14  0.12500000000E+03  0.12500000000E+03 0.  0.
        -11    1    3    3    0    0 -0.47673328845E+01 -0.49269785591E+02 -0.23253427401E+02  0.54689680207E+02  0.51100000000E-03 0. -1.
         23    2    1    0    0    0  0.17293780519E+02 -0.21023163498E+02 -0.21032436083E+02  0.90599249780E+02  0.83814154205E+02 0.  0.
         11    1    3    3    0    0  0.22061113403E+02  0.28246622093E+02  0.22209913177E+01  0.35909569573E+02  0.51100000000E-03 0.  1.
         22    1    1    0    0    0 -0.17293780519E+02  0.21023163498E+02  0.21032436083E+02  0.34400750220E+02  0.00000000000E+00 0. -1.
</event>
<event>
 5    1  0.1111613E-009  0.9118800E+02  0.7818608E-02  0.1130116E+00
         25   -1    0    0    0    0  0.00000000000E+00  0.00000000000E+00  0.99999998245E-14  0.12500000000E+03  0.12500000000E+03 0.  0.
        -11    1    3    3    0    0  0.15921413830E+02 -0.18243532137E+02 -0.48431649390E+02  0.54147414953E+02  0.51100000000E-03 0.  1.
         23    2    1    0    0    0  0.26620500468E+02 -0.10271503914E+02 -0.10105001994E+02  0.94730115575E+02  0.89763739303E+02 0.  0.
         11    1    3    3    0    0  0.10699086638E+02  0.79720282233E+01  0.38326647396E+02  0.40582700622E+02  0.51100000000E-03 0. -1.
         22    1    1    0    0    0 -0.26620500468E+02  0.10271503914E+02  0.10105001994E+02  0.30269884425E+02  0.00000000000E+00 0.  1.
</event>
<event>
 5    1  0.1111613E-009  0.9118800E+02  0.7818608E-02  0.1130116E+00
         25   -1    0    0    0    0  0.00000000000E+00  0.00000000000E+00  0.99999998245E-14  0.12500000000E+03  0.12500000000E+03 0.  0.
        -11    1    3    3    0    0  0.15373285902E+02  0.30451722420E+02 -0.14467613118E+02  0.37053436377E+02  0.51100000000E-03 0. -1.
         23    2    1    0    0    0 -0.71797728585E+01 -0.23993831204E+02 -0.14648768920E+02  0.95985529386E+02  0.91495258601E+02 0.  0.
         11    1    3    3    0    0 -0.22553058760E+02 -0.54445553623E+02 -0.18115580280E+00  0.58932093009E+02  0.51100000000E-03 0.  1.
         22    1    1    0    0    0  0.71797728585E+01  0.23993831204E+02  0.14648768920E+02  0.29014470614E+02  0.00000000000E+00 0.  1.
</event>
<event>
 5    1  0.1111613E-009  0.9118800E+02  0.7818608E-02  0.1130116E+00
         25   -1    0    0    0    0  0.00000000000E+00  0.00000000000E+00  0.99999998245E-14  0.12500000000E+03  0.12500000000E+03 0.  0.
        -11    1    3    3    0    0 -0.31841683486E+02 -0.18426023253E+02  0.28151328711E+02  0.46323951134E+02  0.51100000000E-03 0.  1.
         23    2    1    0    0    0 -0.14468889883E+02 -0.27953833655E+02 -0.12171746773E+02  0.91252155476E+02  0.84782302806E+02 0.  0.
         11    1    3    3    0    0  0.17372793604E+02 -0.95278104028E+01 -0.40323075485E+02  0.44928204343E+02  0.51100000000E-03 0. -1.
         22    1    1    0    0    0  0.14468889883E+02  0.27953833655E+02  0.12171746773E+02  0.33747844524E+02  0.00000000000E+00 0. -1.
</event>
<event>
 5    1  0.1111613E-009  0.9118800E+02  0.7818608E-02  0.1130116E+00
         25   -1    0    0    0    0  0.00000000000E+00  0.00000000000E+00  0.99999998245E-14  0.12500000000E+03  0.12500000000E+03 0.  0.
        -11    1    3    3    0    0 -0.24963575876E+02  0.13449460475E+02 -0.27446843415E+02  0.39463873622E+02  0.51100000000E-03 0.  1.
         23    2    1    0    0    0 -0.87132827278E+01 -0.26342270527E+02  0.90131383212E+01  0.95826841535E+02  0.91278203224E+02 0.  0.
         11    1    3    3    0    0  0.16250293148E+02 -0.39791731002E+02  0.36459981736E+02  0.56362967913E+02  0.51100000000E-03 0. -1.
         22    1    1    0    0    0  0.87132827278E+01  0.26342270527E+02 -0.90131383212E+01  0.29173158465E+02  0.00000000000E+00 0. -1.
</event>
<event>
 5    1  0.1111613E-009  0.9118800E+02  0.7818608E-02  0.1130116E+00
         25   -1    0    0    0    0  0.00000000000E+00  0.00000000000E+00  0.99999998245E-14  0.12500000000E+03  0.12500000000E+03 0.  0.
        -11    1    3    3    0    0  0.28533703513E+02 -0.30069957856E+01 -0.16709991270E+02  0.33202982823E+02  0.51100000000E-03 0.  1.
         23    2    1    0    0    0 -0.20544329248E+02 -0.24564285499E+01  0.21317825603E+02  0.95292203146E+02  0.90543088011E+02 0.  0.
         11    1    3    3    0    0 -0.49078032762E+02  0.55056723572E+00  0.38027816872E+02  0.62089220323E+02  0.51100000000E-03 0. -1.
         22    1    1    0    0    0  0.20544329248E+02  0.24564285499E+01 -0.21317825603E+02  0.29707796854E+02  0.00000000000E+00 0. -1.
</event>
<event>
 5    1  0.1111613E-009  0.9118800E+02  0.7818608E-02  0.1130116E+00
         25   -1    0    0    0    0  0.00000000000E+00  0.00000000000E+00  0.99999998245E-14  0.12500000000E+03  0.12500000000E+03 0.  0.
        -11    1    3    3    0    0 -0.20825793884E+02  0.10066106527E+02 -0.29772289824E+02  0.37701849201E+02  0.51100000000E-03 0.  1.
         23    2    1    0    0    0  0.29298429741E+02  0.38863915783E+01 -0.19055784202E+01  0.95383564463E+02  0.90669129894E+02 0.  0.
         11    1    3    3    0    0  0.50124223625E+02 -0.61797149491E+01  0.27866711404E+02  0.57681715262E+02  0.51100000000E-03 0. -1.
         22    1    1    0    0    0 -0.29298429741E+02 -0.38863915783E+01  0.19055784202E+01  0.29616435537E+02  0.00000000000E+00 0. -1.
</event>
<event>
 5    1  0.1111613E-009  0.9118800E+02  0.7818608E-02  0.1130116E+00
         25   -1    0    0    0    0  0.00000000000E+00  0.00000000000E+00  0.99999998245E-14  0.12500000000E+03  0.12500000000E+03 0.  0.
        -11    1    3    3    0    0 -0.21416367916E+02  0.21670461613E+02  0.33086256603E+02  0.44977439873E+02  0.51100000000E-03 0. -1.
         23    2    1    0    0    0  0.58066967081E+01  0.12335259073E+01 -0.17820475861E+02  0.10621679812E+03  0.10454281195E+03 0.  0.
         11    1    3    3    0    0  0.27223064625E+02 -0.20436935706E+02 -0.50906732464E+02  0.61239358251E+02  0.51100000000E-03 0.  1.
         22    1    1    0    0    0 -0.58066967081E+01 -0.12335259073E+01  0.17820475861E+02  0.18783201876E+02  0.00000000000E+00 0.  1.
</event>
<event>
 5    1  0.1111613E-009  0.9118800E+02  0.7818608E-02  0.1130116E+00
         25   -1    0    0    0    0  0.00000000000E+00  0.00000000000E+00  0.99999998245E-14  0.12500000000E+03  0.12500000000E+03 0.  0.
        -11    1    3    3    0    0 -0.11500001037E+02 -0.14260258324E+02  0.32222195892E+02  0.37065818481E+02  0.51100000000E-03 0.  1.
         23    2    1    0    0    0  0.21839532306E+02  0.18623323981E+02 -0.36670261834E+01  0.96064892458E+02  0.91603619549E+02 0.  0.
         11    1    3    3    0    0  0.33339533343E+02  0.32883582305E+02 -0.35889222075E+02  0.58999073977E+02  0.51100000000E-03 0. -1.
         22    1    1    0    0    0 -0.21839532306E+02 -0.18623323981E+02  0.36670261834E+01  0.28935107542E+02  0.00000000000E+00 0. -1.
</event>
<event>
 5    1  0.1111613E-009  0.9118800E+02  0.7818608E-02  0.1130116E+00
         25   -1    0    0    0    0  0.00000000000E+00  0.00000000000E+00  0.99999998245E-14  0.12500000000E+03  0.12500000000E+03 0.  0.
        -11    1    3    3    0    0 -0.32199292375E+02  0.12905563214E+02  0.20063580981E+02  0.40073623162E+02  0.51100000000E-03 0.  1.
         23    2    1    0    0    0  0.12677332095E+02 -0.15300509589E+02  0.24721928420E+02  0.93282590151E+02  0.87724839912E+02 0.  0.
         11    1    3    3    0    0  0.44876624470E+02 -0.28206072804E+02  0.46583474391E+01  0.53208966988E+02  0.51100000000E-03 0. -1.
         22    1    1    0    0    0 -0.12677332095E+02  0.15300509589E+02 -0.24721928420E+02  0.31717409849E+02  0.00000000000E+00 0. -1.
</event>
<event>
 5    1  0.1111613E-009  0.9118800E+02  0.7818608E-02  0.1130116E+00
         25   -1    0    0    0    0  0.00000000000E+00  0.00000000000E+00  0.99999998245E-14  0.12500000000E+03  0.12500000000E+03 0.  0.
        -11    1    3    3    0    0 -0.43140493892E+02 -0.13263374290E+02  0.37884974501E+02  0.58926145335E+02  0.51100000000E-03 0.  1.
         23    2    1    0    0    0 -0.10928183626E+02 -0.14253370871E+02  0.26258218443E+02  0.93186829545E+02  0.87588283385E+02 0.  0.
         11    1    3    3    0    0  0.32212310266E+02 -0.98999658191E+00 -0.11626756058E+02  0.34260684211E+02  0.51100000000E-03 0. -1.
         22    1    1    0    0    0  0.10928183626E+02  0.14253370871E+02 -0.26258218443E+02  0.31813170455E+02  0.00000000000E+00 0.  1.
</event>
<event>
 5    1  0.1111613E-009  0.9118800E+02  0.7818608E-02  0.1130116E+00
         25   -1    0    0    0    0  0.00000000000E+00  0.00000000000E+00  0.99999998245E-14  0.12500000000E+03  0.12500000000E+03 0.  0.
        -11    1    3    3    0    0 -0.18798192990E+02  0.38721286394E+02 -0.21490415341E+02  0.48109749859E+02  0.51100000000E-03 0.  1.
         23    2    1    0    0    0 -0.26005091126E+02 -0.67459112533E+01 -0.13849865901E+02  0.94774334274E+02  0.89825294702E+02 0.  0.
         11    1    3    3    0    0 -0.72068981363E+01 -0.45467197647E+02  0.76405494399E+01  0.46664584415E+02  0.51100000000E-03 0. -1.
         22    1    1    0    0    0  0.26005091126E+02  0.67459112533E+01  0.13849865901E+02  0.30225665726E+02  0.00000000000E+00 0. -1.
</event>
<event>
 5    1  0.1111613E-009  0.9118800E+02  0.7818608E-02  0.1130116E+00
         25   -1    0    0    0    0  0.00000000000E+00  0.00000000000E+00  0.99999998245E-14  0.12500000000E+03  0.12500000000E+03 0.  0.
        -11    1    3    3    0    0 -0.35088598982E+02  0.11770644290E+02 -0.45154573982E+02  0.58384016625E+02  0.51100000000E-03 0. -1.
         23    2    1    0    0    0 -0.16636476971E+02 -0.10409981631E+02 -0.23027832159E+02  0.94744072688E+02  0.89783173100E+02 0.  0.
         11    1    3    3    0    0  0.18452122011E+02 -0.22180625921E+02  0.22126741823E+02  0.36360056063E+02  0.51100000000E-03 0.  1.
         22    1    1    0    0    0  0.16636476971E+02  0.10409981631E+02  0.23027832159E+02  0.30255927312E+02  0.00000000000E+00 0. -1.
</event>
<event>
 5    1  0.1111613E-009  0.9118800E+02  0.7818608E-02  0.1130116E+00
         25   -1    0    0    0    0  0.00000000000E+00  0.00000000000E+00  0.99999998245E-14  0.12500000000E+03  0.12500000000E+03 0.  0.
        -11    1    3    3    0    0 -0.46697367554E+02  0.37005104999E+01  0.23064803111E+02  0.52214203597E+02  0.51100000000E-03 0. -1.
         23    2    1    0    0    0 -0.20229903764E+02  0.10821200915E+02 -0.13857251790E+02  0.98197559389E+02  0.94468988813E+02 0.  0.
         11    1    3    3    0    0  0.26467463791E+02  0.71206904146E+01 -0.36922054901E+02  0.45983355792E+02  0.51100000000E-03 0.  1.
         22    1    1    0    0    0  0.20229903764E+02 -0.10821200915E+02  0.13857251790E+02  0.26802440611E+02  0.00000000000E+00 0. -1.
</event>
<event>
 5    1  0.1111613E-009  0.9118800E+02  0.7818608E-02  0.1130116E+00
         25   -1    0    0    0    0  0.00000000000E+00  0.00000000000E+00  0.99999998245E-14  0.12500000000E+03  0.12500000000E+03 0.  0.
        -11    1    3    3    0    0 -0.40808651678E+02 -0.49655763700E+01  0.40051437986E+01  0.41304287641E+02  0.51100000000E-03 0.  1.
         23    2    1    0    0    0  0.67447185090E+01  0.15720885741E+02  0.22828803723E+02  0.96472964478E+02  0.92158782108E+02 0.  0.
         11    1    3    3    0    0  0.47553370187E+02  0.20686462111E+02  0.18823659924E+02  0.55168676837E+02  0.51100000000E-03 0. -1.
         22    1    1    0    0    0 -0.67447185090E+01 -0.15720885741E+02 -0.22828803723E+02  0.28527035522E+02  0.00000000000E+00 0. -1.
</event>
<event>
 5    1  0.1111613E-009  0.9118800E+02  0.7818608E-02  0.1130116E+00
         25   -1    0    0    0    0  0.00000000000E+00  0.00000000000E+00  0.99999998245E-14  0.12500000000E+03  0.12500000000E+03 0.  0.
        -11    1    3    3    0    0 -0.28114510094E+01 -0.27927255373E+02 -0.11506182706E+02  0.30335261499E+02  0.51100000000E-03 0. -1.
         23    2    1    0    0    0 -0.19655617874E+02  0.27578416197E+02  0.52898151804E+01  0.90723265929E+02  0.83998907625E+02 0.  0.
         11    1    3    3    0    0 -0.16844166864E+02  0.55505671570E+02  0.16795997886E+02  0.60388004430E+02  0.51100000000E-03 0.  1.
         22    1    1    0    0    0  0.19655617874E+02 -0.27578416197E+02 -0.52898151804E+01  0.34276734071E+02  0.00000000000E+00 0.  1.
</event>
<event>
 5    1  0.1111613E-009  0.9118800E+02  0.7818608E-02  0.1130116E+00
         25   -1    0    0    0    0  0.00000000000E+00  0.00000000000E+00  0.99999998245E-14  0.12500000000E+03  0.12500000000E+03 0.  0.
        -11    1    3    3    0    0  0.19541953985E+02 -0.13270043371E+02 -0.25723481745E+02  0.34923910577E+02  0.51100000000E-03 0.  1.
         23    2    1    0    0    0 -0.26511954286E+02  0.37423758761E+00  0.11899941112E+02  0.95937440369E+02  0.91429536214E+02 0.  0.
         11    1    3    3    0    0 -0.46053908271E+02  0.13644280959E+02  0.37623422857E+02  0.61013529792E+02  0.51100000000E-03 0. -1.
         22    1    1    0    0    0  0.26511954286E+02 -0.37423758761E+00 -0.11899941112E+02  0.29062559631E+02  0.00000000000E+00 0. -1.
</event>
<event>
 5    1  0.1111613E-009  0.9118800E+02  0.7818608E-02  0.1130116E+00
         25   -1    0    0    0    0  0.00000000000E+00  0.00000000000E+00  0.99999998245E-14  0.12500000000E+03  0.12500000000E+03 0.  0.
        -11    1    3    3    0    0  0.37251899490E+01 -0.62381884101E+01  0.53577163385E+02  0.54067591693E+02  0.51100000000E-03 0.  1.
         23    2    1    0    0    0 -0.20483963402E+02 -0.82076581340E+01  0.22872741038E+02  0.93217604066E+02  0.87632191668E+02 0.  0.
         11    1    3    3    0    0 -0.24209153351E+02 -0.19694697239E+01 -0.30704422347E+02  0.39150012374E+02  0.51100000000E-03 0. -1.
         22    1    1    0    0    0  0.20483963402E+02  0.82076581340E+01 -0.22872741038E+02  0.31782395934E+02  0.00000000000E+00 0.  1.
</event>
<event>
 5    1  0.1111613E-009  0.9118800E+02  0.7818608E-02  0.1130116E+00
         25   -1    0    0    0    0  0.00000000000E+00  0.00000000000E+00  0.99999998245E-14  0.12500000000E+03  0.12500000000E+03 0.  0.
        -11    1    3    3    0    0 -0.22846213797E+02  0.13387733789E+02  0.22649345095E+02  0.34844995829E+02  0.51100000000E-03 0. -1.
         23    2    1    0    0    0 -0.48553159448E+02 -0.10850217347E+02  0.32712928793E+01  0.75141822477E+02  0.56217929696E+02 0.  0.
         11    1    3    3    0    0 -0.25706945651E+02 -0.24237951136E+02 -0.19378052216E+02  0.40296826648E+02  0.51100000000E-03 0.  1.
         22    1    1    0    0    0  0.48553159448E+02  0.10850217347E+02 -0.32712928793E+01  0.49858177523E+02  0.00000000000E+00 0. -1.
</event>
<event>
 5    1  0.1111613E-009  0.9118800E+02  0.7818608E-02  0.1130116E+00
         25   -1    0    0    0    0  0.00000000000E+00  0.00000000000E+00  0.99999998245E-14  0.12500000000E+03  0.12500000000E+03 0.  0.
        -11    1    3    3    0    0 -0.32149911105E+02  0.37825890905E+02 -0.20240816203E+02  0.53610684081E+02  0.51100000000E-03 0. -1.
         23    2    1    0    0    0 -0.28696143865E+02 -0.17017126204E+01 -0.73780355753E+01  0.95321726676E+02  0.90583837791E+02 0.  0.
         11    1    3    3    0    0  0.34537672405E+01 -0.39527603525E+02  0.12862780627E+02  0.41711042595E+02  0.51100000000E-03 0.  1.
         22    1    1    0    0    0  0.28696143865E+02  0.17017126204E+01  0.73780355753E+01  0.29678273324E+02  0.00000000000E+00 0. -1.
</event>
<event>
 5    1  0.1111613E-009  0.9118800E+02  0.7818608E-02  0.1130116E+00
         25   -1    0    0    0    0  0.00000000000E+00  0.00000000000E+00  0.99999998245E-14  0.12500000000E+03  0.12500000000E+03 0.  0.
        -11    1    3    3    0    0 -0.62795750229E+01 -0.12163121079E+02 -0.44419892620E+02  0.46481194449E+02  0.51100000000E-03 0.  1.
         23    2    1    0    0    0 -0.26250777380E+02 -0.26439374922E+01  0.26425174709E+01  0.98484408038E+02  0.94847783366E+02 0.  0.
         11    1    3    3    0    0 -0.19971202357E+02  0.95191835865E+01  0.47062410090E+02  0.52003213588E+02  0.51100000000E-03 0. -1.
         22    1    1    0    0    0  0.26250777380E+02  0.26439374922E+01 -0.26425174709E+01  0.26515591962E+02  0.00000000000E+00 0. -1.
</event>
<event>
 5    1  0.1111613E-009  0.9118800E+02  0.7818608E-02  0.1130116E+00
         25   -1    0    0    0    0  0.00000000000E+00  0.00000000000E+00  0.99999998245E-14  0.12500000000E+03  0.12500000000E+03 0.  0.
        -11    1    3    3    0    0 -0.13840152329E+02 -0.59683984438E+01 -0.38978444181E+02  0.41791036210E+02  0.51100000000E-03 0.  1.
         23    2    1    0    0    0 -0.34716504203E+01  0.28804876473E+02  0.12410219018E+01  0.95960141174E+02  0.91460566877E+02 0.  0.
         11    1    3    3    0    0  0.10368501909E+02  0.34773274917E+02  0.40219466083E+02  0.54169104964E+02  0.51100000000E-03 0. -1.
         22    1    1    0    0    0  0.34716504203E+01 -0.28804876473E+02 -0.12410219018E+01  0.29039858826E+02  0.00000000000E+00 0. -1.
</event>
<event>
 5    1  0.1111613E-009  0.9118800E+02  0.7818608E-02  0.1130116E+00
         25   -1    0    0    0    0  0.00000000000E+00  0.00000000000E+00  0.99999998245E-14  0.12500000000E+03  0.12500000000E+03 0.  0.
        -11    1    3    3    0    0 -0.23784729389E+02  0.35769030942E+02 -0.15620210672E+02  0.45706978771E+02  0.51100000000E-03 0. -1.
         23    2    1    0    0    0 -0.24236779880E+00 -0.71314173738E+01 -0.27934809033E+02  0.96168256876E+02  0.91744559615E+02 0.  0.
         11    1    3    3    0    0  0.23542361590E+02 -0.42900448316E+02 -0.12314598360E+02  0.50461278105E+02  0.51100000000E-03 0.  1.
         22    1    1    0    0    0  0.24236779880E+00  0.71314173738E+01  0.27934809033E+02  0.28831743124E+02  0.00000000000E+00 0.  1.
</event>
<event>
 5    1  0.1111613E-009  0.9118800E+02  0.7818608E-02  0.1130116E+00
         25   -1    0    0    0    0  0.00000000000E+00  0.00000000000E+00  0.99999998245E-14  0.12500000000E+03  0.12500000000E+03 0.  0.
        -11    1    3    3    0    0 -0.24192092104E+02 -0.50185700680E+01  0.14457924675E+02  0.28626472924E+02  0.51100000000E-03 0.  1.
         23    2    1    0    0    0  0.27879928956E+02 -0.26457756327E+02  0.87468958702E+00  0.86554344975E+02  0.77547316161E+02 0.  0.
         11    1    3    3    0    0  0.52072021059E+02 -0.21439186259E+02 -0.13583235088E+02  0.57927872051E+02  0.51100000000E-03 0. -1.
         22    1    1    0    0    0 -0.27879928956E+02  0.26457756327E+02 -0.87468958702E+00  0.38445655025E+02  0.00000000000E+00 0. -1.
</event>
<event>
 5    1  0.1111613E-009  0.9118800E+02  0.7818608E-02  0.1130116E+00
         25   -1    0    0    0    0  0.00000000000E+00  0.00000000000E+00  0.99999998245E-14  0.12500000000E+03  0.12500000000E+03 0.  0.
        -11    1    3    3    0    0  0.52899229897E+02 -0.46838722895E+01  0.10552848822E+02  0.54144526979E+02  0.51100000000E-03 0.  1.
         23    2    1    0    0    0  0.18770052394E+02 -0.20054634898E+02 -0.86345867848E+01  0.96206609496E+02  0.91796799367E+02 0.  0.
         11    1    3    3    0    0 -0.34129177503E+02 -0.15370762609E+02 -0.19187435607E+02  0.42062082517E+02  0.51100000000E-03 0. -1.
         22    1    1    0    0    0 -0.18770052394E+02  0.20054634898E+02  0.86345867848E+01  0.28793390504E+02  0.00000000000E+00 0.  1.
</event>
<event>
 5    1  0.1111613E-009  0.9118800E+02  0.7818608E-02  0.1130116E+00
         25   -1    0    0    0    0  0.00000000000E+00  0.00000000000E+00  0.99999998245E-14  0.12500000000E+03  0.12500000000E+03 0.  0.
        -11    1    3    3    0    0  0.23162842254E+02  0.29873649100E+02 -0.37618558546E+02  0.53330180191E+02  0.51100000000E-03 0.  1.
         23    2    1    0    0    0  0.27469600645E+02  0.15467750342E+01 -0.45026109860E+01  0.97120886343E+02  0.93033443372E+02 0.  0.
         11    1    3    3    0    0  0.43067583912E+01 -0.28326874066E+02  0.33115947560E+02  0.43790706152E+02  0.51100000000E-03 0. -1.
         22    1    1    0    0    0 -0.27469600645E+02 -0.15467750342E+01  0.45026109860E+01  0.27879113657E+02  0.00000000000E+00 0.  1.
</event>
<event>
 5    1  0.1111613E-009  0.9118800E+02  0.7818608E-02  0.1130116E+00
         25   -1    0    0    0    0  0.00000000000E+00  0.00000000000E+00  0.99999998245E-14  0.12500000000E+03  0.12500000000E+03 0.  0.
        -11    1    3    3    0    0 -0.22813026208E+02 -0.42822680815E+02 -0.21356837790E+02  0.53012552076E+02  0.51100000000E-03 0.  1.
         23    2    1    0    0    0  0.13594496893E+02 -0.24381284781E+02 -0.95203822358E+01  0.95506016355E+02  0.90837789982E+02 0.  0.
         11    1    3    3    0    0  0.36407523101E+02  0.18441396034E+02  0.11836455555E+02  0.42493464279E+02  0.51100000000E-03 0. -1.
         22    1    1    0    0    0 -0.13594496893E+02  0.24381284781E+02  0.95203822358E+01  0.29493983645E+02  0.00000000000E+00 0.  1.
</event>
<event>
 5    1  0.1111613E-009  0.9118800E+02  0.7818608E-02  0.1130116E+00
         25   -1    0    0    0    0  0.00000000000E+00  0.00000000000E+00  0.99999998245E-14  0.12500000000E+03  0.12500000000E+03 0.  0.
        -11    1    3    3    0    0 -0.37515366880E+02  0.14528419214E+02  0.25950747286E+02  0.47873990871E+02  0.51100000000E-03 0. -1.
         23    2    1    0    0    0 -0.15182997790E+01  0.27047041325E+02 -0.55842992055E+01  0.97340786774E+02  0.93328434539E+02 0.  0.
         11    1    3    3    0    0  0.35997067101E+02  0.12518622111E+02 -0.31535046491E+02  0.49466795903E+02  0.51100000000E-03 0.  1.
         22    1    1    0    0    0  0.15182997790E+01 -0.27047041325E+02  0.55842992055E+01  0.27659213226E+02  0.00000000000E+00 0. -1.
</event>
<event>
 5    1  0.1111613E-009  0.9118800E+02  0.7818608E-02  0.1130116E+00
         25   -1    0    0    0    0  0.00000000000E+00  0.00000000000E+00  0.99999998245E-14  0.12500000000E+03  0.12500000000E+03 0.  0.
        -11    1    3    3    0    0 -0.11266540072E+02  0.36215049792E+02  0.47904867950E+02  0.61101073069E+02  0.51100000000E-03 0.  1.
         23    2    1    0    0    0 -0.82530801504E+01  0.19323102560E+02  0.39615538658E+02  0.80157090552E+02  0.66439992761E+02 0.  0.
         11    1    3    3    0    0  0.30134599213E+01 -0.16891947231E+02 -0.82893292916E+01  0.19056017484E+02  0.51100000000E-03 0. -1.
         22    1    1    0    0    0  0.82530801504E+01 -0.19323102560E+02 -0.39615538658E+02  0.44842909448E+02  0.00000000000E+00 0.  1.
</event>
<event>
 5    1  0.1111613E-009  0.9118800E+02  0.7818608E-02  0.1130116E+00
         25   -1    0    0    0    0  0.00000000000E+00  0.00000000000E+00  0.99999998245E-14  0.12500000000E+03  0.12500000000E+03 0.  0.
        -11    1    3    3    0    0 -0.16362801417E+02  0.38806173483E+02 -0.19156557102E+02  0.46266986619E+02  0.51100000000E-03 0.  1.
         23    2    1    0    0    0 -0.13799380669E+02  0.12888527114E+02  0.22643460577E+02  0.95516727710E+02  0.90852528459E+02 0.  0.
         11    1    3    3    0    0  0.25634207481E+01 -0.25917646368E+02  0.41800017680E+02  0.49249741090E+02  0.51100000000E-03 0. -1.
         22    1    1    0    0    0  0.13799380669E+02 -0.12888527114E+02 -0.22643460577E+02  0.29483272290E+02  0.00000000000E+00 0. -1.
</event>
<event>
 5    1  0.1111613E-009  0.9118800E+02  0.7818608E-02  0.1130116E+00
         25   -1    0    0    0    0  0.00000000000E+00  0.00000000000E+00  0.99999998245E-14  0.12500000000E+03  0.12500000000E+03 0.  0.
        -11    1    3    3    0    0 -0.27940347591E+02  0.32987406339E+02  0.38180253081E+02  0.57676370604E+02  0.51100000000E-03 0.  1.
         23    2    1    0    0    0  0.22208041706E+01  0.23711477745E+02  0.18216490633E+02  0.95016559921E+02  0.90161743441E+02 0.  0.
         11    1    3    3    0    0  0.30161151761E+02 -0.92759285943E+01 -0.19963762449E+02  0.37340189317E+02  0.51100000000E-03 0. -1.
         22    1    1    0    0    0 -0.22208041706E+01 -0.23711477745E+02 -0.18216490633E+02  0.29983440079E+02  0.00000000000E+00 0.  1.
</event>
<event>
 5    1  0.1111613E-009  0.9118800E+02  0.7818608E-02  0.1130116E+00
         25   -1    0    0    0    0  0.00000000000E+00  0.00000000000E+00  0.99999998245E-14  0.12500000000E+03  0.12500000000E+03 0.  0.
        -11    1    3    3    0    0  0.43664544257E+02 -0.27228814675E+02 -0.31372812275E+02  0.60268185007E+02  0.51100000000E-03 0. -1.
         23    2    1    0    0    0  0.13870533928E+02 -0.10299313048E+02 -0.24179123434E+02  0.95283042370E+02  0.90530440144E+02 0.  0.
         11    1    3    3    0    0 -0.29794010329E+02  0.16929501626E+02  0.71936888410E+01  0.35014857363E+02  0.51100000000E-03 0.  1.
         22    1    1    0    0    0 -0.13870533928E+02  0.10299313048E+02  0.24179123434E+02  0.29716957630E+02  0.00000000000E+00 0. -1.
</event>
<event>
 5    1  0.1111613E-009  0.9118800E+02  0.7818608E-02  0.1130116E+00
         25   -1    0    0    0    0  0.00000000000E+00  0.00000000000E+00  0.99999998245E-14  0.12500000000E+03  0.12500000000E+03 0.  0.
        -11    1    3    3    0    0  0.85819115209E+01  0.32657539834E+02 -0.34841179813E+02  0.48518779090E+02  0.51100000000E-03 0.  1.
         23    2    1    0    0    0 -0.16086878143E+02 -0.59761089852E+01 -0.23783611428E+02  0.95671486578E+02  0.91065205454E+02 0.  0.
         11    1    3    3    0    0 -0.24668789664E+02 -0.38633648820E+02  0.11057568385E+02  0.47152707488E+02  0.51100000000E-03 0. -1.
         22    1    1    0    0    0  0.16086878143E+02  0.59761089852E+01  0.23783611428E+02  0.29328513422E+02  0.00000000000E+00 0. -1.
</event>
<event>
 5    1  0.1111613E-009  0.9118800E+02  0.7818608E-02  0.1130116E+00
         25   -1    0    0    0    0  0.00000000000E+00  0.00000000000E+00  0.99999998245E-14  0.12500000000E+03  0.12500000000E+03 0.  0.
        -11    1    3    3    0    0  0.18439169465E+02  0.18239131293E+02  0.50739742031E+02  0.56984123250E+02  0.51100000000E-03 0.  1.
         23    2    1    0    0    0  0.14570770190E+02  0.22926778279E+02  0.13594834920E+02  0.94622968501E+02  0.89614408023E+02 0.  0.
         11    1    3    3    0    0 -0.38683992754E+01  0.46876469864E+01 -0.37144907112E+02  0.37638845251E+02  0.51100000000E-03 0. -1.
         22    1    1    0    0    0 -0.14570770190E+02 -0.22926778279E+02 -0.13594834920E+02  0.30377031499E+02  0.00000000000E+00 0. -1.
</event>
<event>
 5    1  0.1111613E-009  0.9118800E+02  0.7818608E-02  0.1130116E+00
         25   -1    0    0    0    0  0.00000000000E+00  0.00000000000E+00  0.99999998245E-14  0.12500000000E+03  0.12500000000E+03 0.  0.
        -11    1    3    3    0    0  0.22841856737E+01  0.57527856824E+02  0.23698689590E+02  0.62259936584E+02  0.51100000000E-03 0.  1.
         23    2    1    0    0    0 -0.62701212594E+00  0.24416160295E+02  0.13823309215E+02  0.96935326380E+02  0.92783789506E+02 0.  0.
         11    1    3    3    0    0 -0.29111977996E+01 -0.33111696529E+02 -0.98753803756E+01  0.34675389796E+02  0.51100000000E-03 0. -1.
         22    1    1    0    0    0  0.62701212594E+00 -0.24416160295E+02 -0.13823309215E+02  0.28064673620E+02  0.00000000000E+00 0.  1.
</event>
<event>
 5    1  0.1111613E-009  0.9118800E+02  0.7818608E-02  0.1130116E+00
         25   -1    0    0    0    0  0.00000000000E+00  0.00000000000E+00  0.99999998245E-14  0.12500000000E+03  0.12500000000E+03 0.  0.
        -11    1    3    3    0    0  0.81253701402E+01 -0.19789944110E+02 -0.57681698246E+02  0.61521068266E+02  0.51100000000E-03 0.  1.
         23    2    1    0    0    0 -0.14435593778E+01 -0.57423605987E+01 -0.32899301942E+02  0.91572127840E+02  0.85252753386E+02 0.  0.
         11    1    3    3    0    0 -0.95689295180E+01  0.14047583511E+02  0.24782396305E+02  0.30051059573E+02  0.51100000000E-03 0. -1.
         22    1    1    0    0    0  0.14435593778E+01  0.57423605987E+01  0.32899301942E+02  0.33427872160E+02  0.00000000000E+00 0.  1.
</event>
<event>
 5    1  0.1111613E-009  0.9118800E+02  0.7818608E-02  0.1130116E+00
         25   -1    0    0    0    0  0.00000000000E+00  0.00000000000E+00  0.99999998245E-14  0.12500000000E+03  0.12500000000E+03 0.  0.
        -11    1    3    3    0    0 -0.26158584968E+02  0.14434140433E+02 -0.21767470127E+02  0.36965372087E+02  0.51100000000E-03 0.  1.
         23    2    1    0    0    0  0.27834915821E+02  0.12570711685E+02 -0.23754618708E+01  0.94365898902E+02  0.89255110360E+02 0.  0.
         11    1    3    3    0    0  0.53993500788E+02 -0.18634287482E+01  0.19392008256E+02  0.57400526814E+02  0.51100000000E-03 0. -1.
         22    1    1    0    0    0 -0.27834915821E+02 -0.12570711685E+02  0.23754618708E+01  0.30634101098E+02  0.00000000000E+00 0. -1.
</event>
<event>
 5    1  0.1111613E-009  0.9118800E+02  0.7818608E-02  0.1130116E+00
         25   -1    0    0    0    0  0.00000000000E+00  0.00000000000E+00  0.99999998245E-14  0.12500000000E+03  0.12500000000E+03 0.  0.
        -11    1    3    3    0    0 -0.49456332574E+02 -0.16404393578E+02  0.79163617413E+01  0.52703906343E+02  0.51100000000E-03 0.  1.
         23    2    1    0    0    0 -0.46098012534E+01 -0.25386714219E+02  0.61505591239E+01  0.98475202094E+02  0.94835650066E+02 0.  0.
         11    1    3    3    0    0  0.44846531321E+02 -0.89823206407E+01 -0.17658026175E+01  0.45771295751E+02  0.51100000000E-03 0. -1.
         22    1    1    0    0    0  0.46098012534E+01  0.25386714219E+02 -0.61505591239E+01  0.26524797906E+02  0.00000000000E+00 0. -1.
</event>
<event>
 5    1  0.1111613E-009  0.9118800E+02  0.7818608E-02  0.1130116E+00
         25   -1    0    0    0    0  0.00000000000E+00  0.00000000000E+00  0.99999998245E-14  0.12500000000E+03  0.12500000000E+03 0.  0.
        -11    1    3    3    0    0 -0.57417946592E+01 -0.35991543644E+02 -0.12546251123E+02  0.38545659124E+02  0.51100000000E-03 0.  1.
         23    2    1    0    0    0  0.20000063302E+02  0.14677403691E+02 -0.15994295142E+02  0.95483120282E+02  0.90806277704E+02 0.  0.
         11    1    3    3    0    0  0.25741857961E+02  0.50668947335E+02 -0.34480440188E+01  0.56937461158E+02  0.51100000000E-03 0. -1.
         22    1    1    0    0    0 -0.20000063302E+02 -0.14677403691E+02  0.15994295142E+02  0.29516879718E+02  0.00000000000E+00 0. -1.
</event>
<event>
 5    1  0.1111613E-009  0.9118800E+02  0.7818608E-02  0.1130116E+00
         25   -1    0    0    0    0  0.00000000000E+00  0.00000000000E+00  0.99999998245E-14  0.12500000000E+03  0.12500000000E+03 0.  0.
        -11    1    3    3    0    0 -0.27822216026E+02  0.15201073919E+02 -0.16198610455E+02  0.35602574820E+02  0.51100000000E-03 0. -1.
         23    2    1    0    0    0  0.27951691106E+02 -0.26595490680E+00  0.36929787023E+01  0.96804151735E+02  0.92606900033E+02 0.  0.
         11    1    3    3    0    0  0.55773907132E+02 -0.15467028826E+02  0.19891589157E+02  0.61201576915E+02  0.51100000000E-03 0.  1.
         22    1    1    0    0    0 -0.27951691106E+02  0.26595490680E+00 -0.36929787023E+01  0.28195848265E+02  0.00000000000E+00 0.  1.
</event>
<event>
 5    1  0.1111613E-009  0.9118800E+02  0.7818608E-02  0.1130116E+00
         25   -1    0    0    0    0  0.00000000000E+00  0.00000000000E+00  0.99999998245E-14  0.12500000000E+03  0.12500000000E+03 0.  0.
        -11    1    3    3    0    0 -0.33090715121E+02 -0.21114065205E+02  0.24809810240E+02  0.46436255890E+02  0.51100000000E-03 0.  1.
         23    2    1    0    0    0 -0.23239309440E+02  0.90363250058E+01 -0.13877236617E+02  0.96464086330E+02  0.92146739402E+02 0.  0.
         11    1    3    3    0    0  0.98514056805E+01  0.30150390211E+02 -0.38687046857E+02  0.50027830440E+02  0.51100000000E-03 0. -1.
         22    1    1    0    0    0  0.23239309440E+02 -0.90363250058E+01  0.13877236617E+02  0.28535913670E+02  0.00000000000E+00 0.  1.
</event>
<event>
 5    1  0.1111613E-009  0.9118800E+02  0.7818608E-02  0.1130116E+00
         25   -1    0    0    0    0  0.00000000000E+00  0.00000000000E+00  0.99999998245E-14  0.12500000000E+03  0.12500000000E+03 0.  0.
        -11    1    3    3    0    0  0.34341326599E+02  0.26986923837E+02 -0.85329769179E+01  0.44502050134E+02  0.51100000000E-03 0.  1.
         23    2    1    0    0    0  0.57634055678E+01 -0.41340435678E+01 -0.31581709256E+02  0.92631627791E+02  0.86792320787E+02 0.  0.
         11    1    3    3    0    0 -0.28577921032E+02 -0.31120967405E+02 -0.23048732338E+02  0.48129577656E+02  0.51100000000E-03 0. -1.
         22    1    1    0    0    0 -0.57634055678E+01  0.41340435678E+01  0.31581709256E+02  0.32368372209E+02  0.00000000000E+00 0.  1.
</event>
<event>
 5    1  0.1111613E-009  0.9118800E+02  0.7818608E-02  0.1130116E+00
         25   -1    0    0    0    0  0.00000000000E+00  0.00000000000E+00  0.99999998245E-14  0.12500000000E+03  0.12500000000E+03 0.  0.
        -11    1    3    3    0    0 -0.32869090651E+02 -0.11385576703E+02 -0.43324871204E+02  0.55561253966E+02  0.51100000000E-03 0.  1.
         23    2    1    0    0    0 -0.23989231467E+02 -0.26119162490E+02 -0.20860707842E+02  0.83855583523E+02  0.73067748567E+02 0.  0.
         11    1    3    3    0    0  0.88798591839E+01 -0.14733585787E+02  0.22464163362E+02  0.28294329557E+02  0.51100000000E-03 0. -1.
         22    1    1    0    0    0  0.23989231467E+02  0.26119162490E+02  0.20860707842E+02  0.41144416477E+02  0.00000000000E+00 0.  1.
</event>
<event>
 5    1  0.1111613E-009  0.9118800E+02  0.7818608E-02  0.1130116E+00
         25   -1    0    0    0    0  0.00000000000E+00  0.00000000000E+00  0.99999998245E-14  0.12500000000E+03  0.12500000000E+03 0.  0.
        -11    1    3    3    0    0 -0.11107098540E+02  0.73002087762E+01  0.46309161229E+02  0.48178824188E+02  0.51100000000E-03 0.  1.
         23    2    1    0    0    0  0.13134104780E+02  0.24903256402E+02  0.10300371684E+02  0.95020431214E+02  0.90167110431E+02 0.  0.
         11    1    3    3    0    0  0.24241203319E+02  0.17603047626E+02 -0.36008789545E+02  0.46841607026E+02  0.51100000000E-03 0. -1.
         22    1    1    0    0    0 -0.13134104780E+02 -0.24903256402E+02 -0.10300371684E+02  0.29979568786E+02  0.00000000000E+00 0. -1.
</event>
<event>
 5    1  0.1111613E-009  0.9118800E+02  0.7818608E-02  0.1130116E+00
         25   -1    0    0    0    0  0.00000000000E+00  0.00000000000E+00  0.99999998245E-14  0.12500000000E+03  0.12500000000E+03 0.  0.
        -11    1    3    3    0    0 -0.33681231027E+02 -0.27177266257E+02 -0.39489898402E+02  0.58587380900E+02  0.51100000000E-03 0. -1.
         23    2    1    0    0    0 -0.22241748456E+02  0.17204149913E+01 -0.17095054553E+02  0.96894909851E+02  0.92729323640E+02 0.  0.
         11    1    3    3    0    0  0.11439482571E+02  0.28897681249E+02  0.22394843848E+02  0.38307528950E+02  0.51100000000E-03 0.  1.
         22    1    1    0    0    0  0.22241748456E+02 -0.17204149913E+01  0.17095054553E+02  0.28105090149E+02  0.00000000000E+00 0. -1.
</event>
<event>
 5    1  0.1111613E-009  0.9118800E+02  0.7818608E-02  0.1130116E+00
         25   -1    0    0    0    0  0.00000000000E+00  0.00000000000E+00  0.99999998245E-14  0.12500000000E+03  0.12500000000E+03 0.  0.
        -11    1    3    3    0    0 -0.24372826422E+02 -0.41491626304E+02 -0.15299048318E+02  0.50494065006E+02  0.51100000000E-03 0.  1.
         23    2    1    0    0    0  0.75124953632E+01 -0.12818414727E+02 -0.26326043061E+02  0.94770711455E+02  0.89820253082E+02 0.  0.
         11    1    3    3    0    0  0.31885321785E+02  0.28673211577E+02 -0.11026994742E+02  0.44276646449E+02  0.51100000000E-03 0. -1.
         22    1    1    0    0    0 -0.75124953632E+01  0.12818414727E+02  0.26326043061E+02  0.30229288545E+02  0.00000000000E+00 0.  1.
</event>
<event>
 5    1  0.1111613E-009  0.9118800E+02  0.7818608E-02  0.1130116E+00
         25   -1    0    0    0    0  0.00000000000E+00  0.00000000000E+00  0.99999998245E-14  0.12500000000E+03  0.12500000000E+03 0.  0.
        -11    1    3    3    0    0 -0.14758543534E+02  0.29173202688E+02  0.13700796305E+02  0.35448585049E+02  0.51100000000E-03 0. -1.
         23    2    1    0    0    0 -0.30802252813E+02 -0.12635697197E+02 -0.14837080380E+02  0.88550328174E+02  0.80700570280E+02 0.  0.
         11    1    3    3    0    0 -0.16043709279E+02 -0.41808899885E+02 -0.28537876685E+02  0.53101743125E+02  0.51100000000E-03 0.  1.
         22    1    1    0    0    0  0.30802252813E+02  0.12635697197E+02  0.14837080380E+02  0.36449671826E+02  0.00000000000E+00 0. -1.
</event>
<event>
 5    1  0.1111613E-009  0.9118800E+02  0.7818608E-02  0.1130116E+00
         25   -1    0    0    0    0  0.00000000000E+00  0.00000000000E+00  0.99999998245E-14  0.12500000000E+03  0.12500000000E+03 0.  0.
        -11    1    3    3    0    0  0.39528781305E+02 -0.14520221034E+02 -0.29863503310E+02  0.51625480149E+02  0.51100000000E-03 0.  1.
         23    2    1    0    0    0  0.40332868417E+01 -0.28384679316E+02 -0.97316351959E+01  0.94723571112E+02  0.89754625385E+02 0.  0.
         11    1    3    3    0    0 -0.35495494464E+02 -0.13864458282E+02  0.20131868114E+02  0.43098090964E+02  0.51100000000E-03 0. -1.
         22    1    1    0    0    0 -0.40332868417E+01  0.28384679316E+02  0.97316351959E+01  0.30276428888E+02  0.00000000000E+00 0.  1.
</event>
<event>
 5    1  0.1111613E-009  0.9118800E+02  0.7818608E-02  0.1130116E+00
         25   -1    0    0    0    0  0.00000000000E+00  0.00000000000E+00  0.99999998245E-14  0.12500000000E+03  0.12500000000E+03 0.  0.
        -11    1    3    3    0    0 -0.10318805806E+02 -0.21717696636E+02 -0.28298641351E+02  0.37134205296E+02  0.51100000000E-03 0.  1.
         23    2    1    0    0    0  0.16985892332E+02  0.22859401434E+02 -0.11962394405E+00  0.96520409376E+02  0.92223111767E+02 0.  0.
         11    1    3    3    0    0  0.27304698137E+02  0.44577098070E+02  0.28179017407E+02  0.59386204080E+02  0.51100000000E-03 0. -1.
         22    1    1    0    0    0 -0.16985892332E+02 -0.22859401434E+02  0.11962394405E+00  0.28479590624E+02  0.00000000000E+00 0. -1.
</event>
<event>
 5    1  0.1111613E-009  0.9118800E+02  0.7818608E-02  0.1130116E+00
         25   -1    0    0    0    0  0.00000000000E+00  0.00000000000E+00  0.99999998245E-14  0.12500000000E+03  0.12500000000E+03 0.  0.
        -11    1    3    3    0    0  0.11758171440E+02  0.30119599552E+02 -0.43016435982E+02  0.53813182749E+02  0.51100000000E-03 0.  1.
         23    2    1    0    0    0  0.18917713595E+02  0.21503005955E+02 -0.20469141000E+01  0.96286779872E+02  0.91905902792E+02 0.  0.
         11    1    3    3    0    0  0.71595421558E+01 -0.86165935971E+01  0.40969521882E+02  0.42473597123E+02  0.51100000000E-03 0. -1.
         22    1    1    0    0    0 -0.18917713595E+02 -0.21503005955E+02  0.20469141000E+01  0.28713220128E+02  0.00000000000E+00 0.  1.
</event>
<event>
 5    1  0.1111613E-009  0.9118800E+02  0.7818608E-02  0.1130116E+00
         25   -1    0    0    0    0  0.00000000000E+00  0.00000000000E+00  0.99999998245E-14  0.12500000000E+03  0.12500000000E+03 0.  0.
        -11    1    3    3    0    0  0.34608053658E+02 -0.34536573539E+02 -0.19828029397E+02  0.52760241090E+02  0.51100000000E-03 0.  1.
         23    2    1    0    0    0 -0.63004692491E+01 -0.18714907440E+02 -0.20376132869E+02  0.96625179050E+02  0.92365008323E+02 0.  0.
         11    1    3    3    0    0 -0.40908522907E+02  0.15821666099E+02 -0.54810347115E+00  0.43864937960E+02  0.51100000000E-03 0. -1.
         22    1    1    0    0    0  0.63004692491E+01  0.18714907440E+02  0.20376132869E+02  0.28374820950E+02  0.00000000000E+00 0.  1.
</event>
<event>
 5    1  0.1111613E-009  0.9118800E+02  0.7818608E-02  0.1130116E+00
         25   -1    0    0    0    0  0.00000000000E+00  0.00000000000E+00  0.99999998245E-14  0.12500000000E+03  0.12500000000E+03 0.  0.
        -11    1    3    3    0    0 -0.32923597657E+02  0.23569146816E+02  0.11532964660E+02  0.42100798548E+02  0.51100000000E-03 0.  1.
         23    2    1    0    0    0  0.69456976848E+01 -0.98814408273E+01  0.26181849614E+02  0.96166428623E+02  0.91742068626E+02 0.  0.
         11    1    3    3    0    0  0.39869295341E+02 -0.33450587644E+02  0.14648884954E+02  0.54065630075E+02  0.51100000000E-03 0. -1.
         22    1    1    0    0    0 -0.69456976848E+01  0.98814408273E+01 -0.26181849614E+02  0.28833571377E+02  0.00000000000E+00 0. -1.
</event>
<event>
 5    1  0.1111613E-009  0.9118800E+02  0.7818608E-02  0.1130116E+00
         25   -1    0    0    0    0  0.00000000000E+00  0.00000000000E+00  0.99999998245E-14  0.12500000000E+03  0.12500000000E+03 0.  0.
        -11    1    3    3    0    0  0.52863480495E+01 -0.39389813713E+02 -0.47450881940E+02  0.61895792241E+02  0.51100000000E-03 0. -1.
         23    2    1    0    0    0  0.81172373951E+01 -0.15993932565E+02 -0.22661218076E+02  0.96099719266E+02  0.91651131017E+02 0.  0.
         11    1    3    3    0    0  0.28308893456E+01  0.23395881148E+02  0.24789663865E+02  0.34203927025E+02  0.51100000000E-03 0.  1.
         22    1    1    0    0    0 -0.81172373951E+01  0.15993932565E+02  0.22661218076E+02  0.28900280734E+02  0.00000000000E+00 0. -1.
</event>
<event>
 5    1  0.1111613E-009  0.9118800E+02  0.7818608E-02  0.1130116E+00
         25   -1    0    0    0    0  0.00000000000E+00  0.00000000000E+00  0.99999998245E-14  0.12500000000E+03  0.12500000000E+03 0.  0.
        -11    1    3    3    0    0  0.20795543641E+02 -0.10225453896E+02  0.30042481249E+02  0.37941602794E+02  0.51100000000E-03 0. -1.
         23    2    1    0    0    0 -0.82589976559E+00  0.28684195936E+02 -0.65510058558E+01  0.95565651279E+02  0.90919815330E+02 0.  0.
         11    1    3    3    0    0 -0.21621443406E+02  0.38909649832E+02 -0.36593487105E+02  0.57624048485E+02  0.51100000000E-03 0.  1.
         22    1    1    0    0    0  0.82589976559E+00 -0.28684195936E+02  0.65510058558E+01  0.29434348721E+02  0.00000000000E+00 0.  1.
</event>
<event>
 5    1  0.1111613E-009  0.9118800E+02  0.7818608E-02  0.1130116E+00
         25   -1    0    0    0    0  0.00000000000E+00  0.00000000000E+00  0.99999998245E-14  0.12500000000E+03  0.12500000000E+03 0.  0.
        -11    1    3    3    0    0  0.42939863897E+02 -0.83785912747E+01  0.88669509731E+01  0.44639170278E+02  0.51100000000E-03 0. -1.
         23    2    1    0    0    0 -0.49533579271E+01 -0.21835069742E+02  0.19265967799E+02  0.95462167638E+02  0.90777430617E+02 0.  0.
         11    1    3    3    0    0 -0.47893221824E+02 -0.13456478468E+02  0.10399016826E+02  0.50822997360E+02  0.51100000000E-03 0.  1.
         22    1    1    0    0    0  0.49533579271E+01  0.21835069742E+02 -0.19265967799E+02  0.29537832362E+02  0.00000000000E+00 0.  1.
</event>
<event>
 5    1  0.1111613E-009  0.9118800E+02  0.7818608E-02  0.1130116E+00
         25   -1    0    0    0    0  0.00000000000E+00  0.00000000000E+00  0.99999998245E-14  0.12500000000E+03  0.12500000000E+03 0.  0.
        -11    1    3    3    0    0  0.79260848268E+01 -0.35218678320E+02 -0.50117672385E+02  0.61765356057E+02  0.51100000000E-03 0.  1.
         23    2    1    0    0    0 -0.16543357682E+01 -0.20024588105E+02 -0.21335665637E+02  0.95692465409E+02  0.91093997345E+02 0.  0.
         11    1    3    3    0    0 -0.95804205951E+01  0.15194090215E+02  0.28782006749E+02  0.33927109352E+02  0.51100000000E-03 0. -1.
         22    1    1    0    0    0  0.16543357682E+01  0.20024588105E+02  0.21335665637E+02  0.29307534591E+02  0.00000000000E+00 0.  1.
</event>
<event>
 5    1  0.1111613E-009  0.9118800E+02  0.7818608E-02  0.1130116E+00
         25   -1    0    0    0    0  0.00000000000E+00  0.00000000000E+00  0.99999998245E-14  0.12500000000E+03  0.12500000000E+03 0.  0.
        -11    1    3    3    0    0 -0.80726838758E+01  0.34820777737E+02 -0.12806160344E+02  0.37969099676E+02  0.51100000000E-03 0.  1.
         23    2    1    0    0    0  0.26415214910E+02 -0.10516414527E+02 -0.94784181077E+01  0.95030032315E+02  0.90180419597E+02 0.  0.
         11    1    3    3    0    0  0.34487898786E+02 -0.45337192264E+02  0.33277422359E+01  0.57060932639E+02  0.51100000000E-03 0. -1.
         22    1    1    0    0    0 -0.26415214910E+02  0.10516414527E+02  0.94784181077E+01  0.29969967685E+02  0.00000000000E+00 0. -1.
</event>
<event>
 5    1  0.1111613E-009  0.9118800E+02  0.7818608E-02  0.1130116E+00
         25   -1    0    0    0    0  0.00000000000E+00  0.00000000000E+00  0.99999998245E-14  0.12500000000E+03  0.12500000000E+03 0.  0.
        -11    1    3    3    0    0 -0.47173393924E+02 -0.23269303059E+02  0.92668306486E+01  0.53410333361E+02  0.51100000000E-03 0.  1.
         23    2    1    0    0    0 -0.24463154866E+02  0.44119628963E+01 -0.14344965986E+02  0.96300010249E+02  0.91923895491E+02 0.  0.
         11    1    3    3    0    0  0.22710239058E+02  0.27681265956E+02 -0.23611796635E+02  0.42889676888E+02  0.51100000000E-03 0. -1.
         22    1    1    0    0    0  0.24463154866E+02 -0.44119628963E+01  0.14344965986E+02  0.28699989751E+02  0.00000000000E+00 0.  1.
</event>
<event>
 5    1  0.1111613E-009  0.9118800E+02  0.7818608E-02  0.1130116E+00
         25   -1    0    0    0    0  0.00000000000E+00  0.00000000000E+00  0.99999998245E-14  0.12500000000E+03  0.12500000000E+03 0.  0.
        -11    1    3    3    0    0 -0.46702759210E+02 -0.31212785822E+02 -0.21224879138E+02  0.60048990094E+02  0.51100000000E-03 0.  1.
         23    2    1    0    0    0 -0.13998622827E+02 -0.20484701373E+02 -0.17434781849E+02  0.94675817414E+02  0.89688094826E+02 0.  0.
         11    1    3    3    0    0  0.32704136383E+02  0.10728084449E+02  0.37900972896E+01  0.34626827320E+02  0.51100000000E-03 0. -1.
         22    1    1    0    0    0  0.13998622827E+02  0.20484701373E+02  0.17434781849E+02  0.30324182586E+02  0.00000000000E+00 0.  1.
</event>
<event>
 5    1  0.1111613E-009  0.9118800E+02  0.7818608E-02  0.1130116E+00
         25   -1    0    0    0    0  0.00000000000E+00  0.00000000000E+00  0.99999998245E-14  0.12500000000E+03  0.12500000000E+03 0.  0.
        -11    1    3    3    0    0  0.27793939987E+02 -0.51724543303E+02 -0.19035347597E+02  0.61727432624E+02  0.51100000000E-03 0.  1.
         23    2    1    0    0    0  0.19021319086E+02 -0.20975444204E+02 -0.76611188000E+01  0.95666187077E+02  0.91057930842E+02 0.  0.
         11    1    3    3    0    0 -0.87726209010E+01  0.30749099099E+02  0.11374228797E+02  0.33938754453E+02  0.51100000000E-03 0. -1.
         22    1    1    0    0    0 -0.19021319086E+02  0.20975444204E+02  0.76611188000E+01  0.29333812923E+02  0.00000000000E+00 0.  1.
</event>
<event>
 5    1  0.1111613E-009  0.9118800E+02  0.7818608E-02  0.1130116E+00
         25   -1    0    0    0    0  0.00000000000E+00  0.00000000000E+00  0.99999998245E-14  0.12500000000E+03  0.12500000000E+03 0.  0.
        -11    1    3    3    0    0  0.35584308767E+02 -0.68267585609E+01 -0.19389783446E+02  0.41095150142E+02  0.51100000000E-03 0. -1.
         23    2    1    0    0    0 -0.16349463235E+02 -0.44730391440E+01  0.14113845114E+02  0.10294294555E+03  0.10055215754E+03 0.  0.
         11    1    3    3    0    0 -0.51933772002E+02  0.23537194168E+01  0.33503628560E+02  0.61847795404E+02  0.51100000000E-03 0.  1.
         22    1    1    0    0    0  0.16349463235E+02  0.44730391440E+01 -0.14113845114E+02  0.22057054453E+02  0.00000000000E+00 0.  1.
</event>
<event>
 5    1  0.1111613E-009  0.9118800E+02  0.7818608E-02  0.1130116E+00
         25   -1    0    0    0    0  0.00000000000E+00  0.00000000000E+00  0.99999998245E-14  0.12500000000E+03  0.12500000000E+03 0.  0.
        -11    1    3    3    0    0  0.12897190077E+02 -0.12977483027E+02 -0.26119951201E+02  0.31890506873E+02  0.51100000000E-03 0. -1.
         23    2    1    0    0    0 -0.27778854637E+02  0.65252773877E+01  0.14853302031E+02  0.92830688675E+02  0.87078540231E+02 0.  0.
         11    1    3    3    0    0 -0.40676044714E+02  0.19502760415E+02  0.40973253232E+02  0.60940181802E+02  0.51100000000E-03 0.  1.
         22    1    1    0    0    0  0.27778854637E+02 -0.65252773877E+01 -0.14853302031E+02  0.32169311325E+02  0.00000000000E+00 0.  1.
</event>
<event>
 5    1  0.1111613E-009  0.9118800E+02  0.7818608E-02  0.1130116E+00
         25   -1    0    0    0    0  0.00000000000E+00  0.00000000000E+00  0.99999998245E-14  0.12500000000E+03  0.12500000000E+03 0.  0.
        -11    1    3    3    0    0  0.51519130290E+02  0.34125717747E+02  0.56142649708E+01  0.62050828914E+02  0.51100000000E-03 0.  1.
         23    2    1    0    0    0  0.25110592132E+02  0.19147085788E+02  0.77455494559E+01  0.92486214189E+02  0.86582639988E+02 0.  0.
         11    1    3    3    0    0 -0.26408538158E+02 -0.14978631959E+02  0.21312844852E+01  0.30435385275E+02  0.51100000000E-03 0. -1.
         22    1    1    0    0    0 -0.25110592132E+02 -0.19147085788E+02 -0.77455494559E+01  0.32513785811E+02  0.00000000000E+00 0.  1.
</event>
<event>
 5    1  0.1111613E-009  0.9118800E+02  0.7818608E-02  0.1130116E+00
         25   -1    0    0    0    0  0.00000000000E+00  0.00000000000E+00  0.99999998245E-14  0.12500000000E+03  0.12500000000E+03 0.  0.
        -11    1    3    3    0    0  0.10041811784E+02  0.31092851985E+02 -0.87680048377E+01  0.33830183824E+02  0.51100000000E-03 0. -1.
         23    2    1    0    0    0 -0.17396706392E+02 -0.23739381161E+02 -0.30938717223E+01  0.95406493053E+02  0.90700734635E+02 0.  0.
         11    1    3    3    0    0 -0.27438518176E+02 -0.54832233146E+02  0.56741331154E+01  0.61576309229E+02  0.51100000000E-03 0.  1.
         22    1    1    0    0    0  0.17396706392E+02  0.23739381161E+02  0.30938717223E+01  0.29593506947E+02  0.00000000000E+00 0.  1.
</event>
<event>
 5    1  0.1111613E-009  0.9118800E+02  0.7818608E-02  0.1130116E+00
         25   -1    0    0    0    0  0.00000000000E+00  0.00000000000E+00  0.99999998245E-14  0.12500000000E+03  0.12500000000E+03 0.  0.
        -11    1    3    3    0    0  0.11248315144E+02 -0.66783789564E+01 -0.35337303676E+02  0.37680901932E+02  0.51100000000E-03 0.  1.
         23    2    1    0    0    0 -0.27638007344E+02 -0.66536238174E+01  0.75641313823E+01  0.95583231935E+02  0.90943982669E+02 0.  0.
         11    1    3    3    0    0 -0.38886322488E+02  0.24755138926E-01  0.42901435058E+02  0.57902330003E+02  0.51100000000E-03 0. -1.
         22    1    1    0    0    0  0.27638007344E+02  0.66536238174E+01 -0.75641313823E+01  0.29416768065E+02  0.00000000000E+00 0. -1.
</event>
<event>
 5    1  0.1111613E-009  0.9118800E+02  0.7818608E-02  0.1130116E+00
         25   -1    0    0    0    0  0.00000000000E+00  0.00000000000E+00  0.99999998245E-14  0.12500000000E+03  0.12500000000E+03 0.  0.
        -11    1    3    3    0    0  0.19341347839E+02 -0.29112658282E+02  0.14383495315E+01  0.34981473070E+02  0.51100000000E-03 0. -1.
         23    2    1    0    0    0 -0.28115748967E+02  0.85872990106E+01  0.50287748941E+00  0.95597790389E+02  0.90963990662E+02 0.  0.
         11    1    3    3    0    0 -0.47457096806E+02  0.37699957293E+02 -0.93547204208E+00  0.60616317319E+02  0.51100000000E-03 0.  1.
         22    1    1    0    0    0  0.28115748967E+02 -0.85872990106E+01 -0.50287748941E+00  0.29402209611E+02  0.00000000000E+00 0.  1.
</event>
<event>
 5    1  0.1111613E-009  0.9118800E+02  0.7818608E-02  0.1130116E+00
         25   -1    0    0    0    0  0.00000000000E+00  0.00000000000E+00  0.99999998245E-14  0.12500000000E+03  0.12500000000E+03 0.  0.
        -11    1    3    3    0    0  0.19975828519E+02 -0.29575456070E+02  0.40595995132E+02  0.54053456391E+02  0.51100000000E-03 0.  1.
         23    2    1    0    0    0  0.68818804800E+01  0.70633026225E+01  0.28567049502E+02  0.94778702210E+02  0.89831372874E+02 0.  0.
         11    1    3    3    0    0 -0.13093948039E+02  0.36638758693E+02 -0.12028945630E+02  0.40725245819E+02  0.51100000000E-03 0. -1.
         22    1    1    0    0    0 -0.68818804800E+01 -0.70633026225E+01 -0.28567049502E+02  0.30221297790E+02  0.00000000000E+00 0.  1.
</event>
<event>
 5    1  0.1111613E-009  0.9118800E+02  0.7818608E-02  0.1130116E+00
         25   -1    0    0    0    0  0.00000000000E+00  0.00000000000E+00  0.99999998245E-14  0.12500000000E+03  0.12500000000E+03 0.  0.
        -11    1    3    3    0    0  0.25696789982E+02 -0.38087666362E+02 -0.11604311893E+02  0.47388346659E+02  0.51100000000E-03 0.  1.
         23    2    1    0    0    0 -0.16934889798E+02 -0.26429980028E+02 -0.11454149031E+02  0.91585454264E+02  0.85272290728E+02 0.  0.
         11    1    3    3    0    0 -0.42631679780E+02  0.11657686334E+02  0.15016286203E+00  0.44197107605E+02  0.51100000000E-03 0. -1.
         22    1    1    0    0    0  0.16934889798E+02  0.26429980028E+02  0.11454149031E+02  0.33414545736E+02  0.00000000000E+00 0. -1.
</event>
<event>
 5    1  0.1111613E-009  0.9118800E+02  0.7818608E-02  0.1130116E+00
         25   -1    0    0    0    0  0.00000000000E+00  0.00000000000E+00  0.99999998245E-14  0.12500000000E+03  0.12500000000E+03 0.  0.
        -11    1    3    3    0    0 -0.16946912397E+02  0.24328214757E+02  0.66171733454E+00  0.29656327203E+02  0.51100000000E-03 0.  1.
         23    2    1    0    0    0  0.14709412128E+02 -0.29297112125E+02 -0.32859279285E+01  0.92053302041E+02  0.85955369293E+02 0.  0.
         11    1    3    3    0    0  0.31656324525E+02 -0.53625326882E+02 -0.39476452630E+01  0.62396974839E+02  0.51100000000E-03 0. -1.
         22    1    1    0    0    0 -0.14709412128E+02  0.29297112125E+02  0.32859279285E+01  0.32946697959E+02  0.00000000000E+00 0. -1.
</event>
<event>
 5    1  0.1111613E-009  0.9118800E+02  0.7818608E-02  0.1130116E+00
         25   -1    0    0    0    0  0.00000000000E+00  0.00000000000E+00  0.99999998245E-14  0.12500000000E+03  0.12500000000E+03 0.  0.
        -11    1    3    3    0    0  0.95166668723E+01 -0.15782207950E+02 -0.38826116787E+02  0.42978045339E+02  0.51100000000E-03 0.  1.
         23    2    1    0    0    0 -0.72123346278E+01 -0.29460749564E+02  0.72016394433E+01  0.93826018119E+02  0.88495788203E+02 0.  0.
         11    1    3    3    0    0 -0.16729001500E+02 -0.13678541614E+02  0.46027756231E+02  0.50847972779E+02  0.51100000000E-03 0. -1.
         22    1    1    0    0    0  0.72123346278E+01  0.29460749564E+02 -0.72016394433E+01  0.31173981881E+02  0.00000000000E+00 0. -1.
</event>
<event>
 5    1  0.1111613E-009  0.9118800E+02  0.7818608E-02  0.1130116E+00
         25   -1    0    0    0    0  0.00000000000E+00  0.00000000000E+00  0.99999998245E-14  0.12500000000E+03  0.12500000000E+03 0.  0.
        -11    1    3    3    0    0  0.28505273266E+02 -0.14280769835E+02  0.39971208097E+02  0.51129135217E+02  0.51100000000E-03 0.  1.
         23    2    1    0    0    0  0.30899437827E+02 -0.24623974431E+01 -0.11493721944E+01  0.93981300549E+02  0.88714852969E+02 0.  0.
         11    1    3    3    0    0  0.23941645608E+01  0.11818372392E+02 -0.41120580291E+02  0.42852165333E+02  0.51100000000E-03 0. -1.
         22    1    1    0    0    0 -0.30899437827E+02  0.24623974431E+01  0.11493721944E+01  0.31018699451E+02  0.00000000000E+00 0.  1.
</event>
<event>
 5    1  0.1111613E-009  0.9118800E+02  0.7818608E-02  0.1130116E+00
         25   -1    0    0    0    0  0.00000000000E+00  0.00000000000E+00  0.99999998245E-14  0.12500000000E+03  0.12500000000E+03 0.  0.
        -11    1    3    3    0    0  0.25074598444E+02  0.24334251534E+02  0.51115858331E+02  0.61917059507E+02  0.51100000000E-03 0.  1.
         23    2    1    0    0    0  0.16421365625E+02  0.77213224014E+01  0.22950410685E+02  0.95742498070E+02  0.91162626758E+02 0.  0.
         11    1    3    3    0    0 -0.86532328188E+01 -0.16612929133E+02 -0.28165447646E+02  0.33825438563E+02  0.51100000000E-03 0. -1.
         22    1    1    0    0    0 -0.16421365625E+02 -0.77213224014E+01 -0.22950410685E+02  0.29257501930E+02  0.00000000000E+00 0.  1.
</event>
<event>
 5    1  0.1111613E-009  0.9118800E+02  0.7818608E-02  0.1130116E+00
         25   -1    0    0    0    0  0.00000000000E+00  0.00000000000E+00  0.99999998245E-14  0.12500000000E+03  0.12500000000E+03 0.  0.
        -11    1    3    3    0    0 -0.47075532066E+02 -0.21164971474E+02  0.23101118283E+02  0.56548416450E+02  0.51100000000E-03 0.  1.
         23    2    1    0    0    0 -0.80304166899E+01 -0.14582782319E+02  0.23565655350E+02  0.96147179610E+02  0.91715837795E+02 0.  0.
         11    1    3    3    0    0  0.39045115376E+02  0.65821891547E+01  0.46453706666E+00  0.39598763160E+02  0.51100000000E-03 0. -1.
         22    1    1    0    0    0  0.80304166899E+01  0.14582782319E+02 -0.23565655350E+02  0.28852820390E+02  0.00000000000E+00 0.  1.
</event>
<event>
 5    1  0.1111613E-009  0.9118800E+02  0.7818608E-02  0.1130116E+00
         25   -1    0    0    0    0  0.00000000000E+00  0.00000000000E+00  0.99999998245E-14  0.12500000000E+03  0.12500000000E+03 0.  0.
        -11    1    3    3    0    0  0.45285676823E+01  0.13669678948E+02 -0.20802680119E+02  0.25300583949E+02  0.51100000000E-03 0.  1.
         23    2    1    0    0    0  0.20406220751E+02 -0.34132098911E+02 -0.28253071634E+02  0.76218342810E+02  0.58562664750E+02 0.  0.
         11    1    3    3    0    0  0.15877653069E+02 -0.47801777859E+02 -0.74503915146E+01  0.50917758861E+02  0.51100000000E-03 0. -1.
         22    1    1    0    0    0 -0.20406220751E+02  0.34132098911E+02  0.28253071634E+02  0.48781657190E+02  0.00000000000E+00 0. -1.
</event>
<event>
 5    1  0.1111613E-009  0.9118800E+02  0.7818608E-02  0.1130116E+00
         25   -1    0    0    0    0  0.00000000000E+00  0.00000000000E+00  0.99999998245E-14  0.12500000000E+03  0.12500000000E+03 0.  0.
        -11    1    3    3    0    0 -0.34864234048E+02  0.20349761648E+02  0.29446665412E+02  0.49967326515E+02  0.51100000000E-03 0. -1.
         23    2    1    0    0    0 -0.25873340201E+02  0.15201716224E+01 -0.12052308295E+02  0.96416809307E+02  0.92082584275E+02 0.  0.
         11    1    3    3    0    0  0.89908938462E+01 -0.18829590026E+02 -0.41498973707E+02  0.46449482793E+02  0.51100000000E-03 0.  1.
         22    1    1    0    0    0  0.25873340201E+02 -0.15201716224E+01  0.12052308295E+02  0.28583190693E+02  0.00000000000E+00 0. -1.
</event>
<event>
 5    1  0.1111613E-009  0.9118800E+02  0.7818608E-02  0.1130116E+00
         25   -1    0    0    0    0  0.00000000000E+00  0.00000000000E+00  0.99999998245E-14  0.12500000000E+03  0.12500000000E+03 0.  0.
        -11    1    3    3    0    0  0.64695110224E+01 -0.30245057511E+02  0.27750538339E+02  0.41553705672E+02  0.51100000000E-03 0.  1.
         23    2    1    0    0    0  0.44894319652E+01 -0.13759340185E+02 -0.24591094838E+02  0.96465873292E+02  0.92149163441E+02 0.  0.
         11    1    3    3    0    0 -0.19800790572E+01  0.16485717327E+02 -0.52341633176E+02  0.54912167620E+02  0.51100000000E-03 0. -1.
         22    1    1    0    0    0 -0.44894319652E+01  0.13759340185E+02  0.24591094838E+02  0.28534126708E+02  0.00000000000E+00 0.  1.
</event>
<event>
 5    1  0.1111613E-009  0.9118800E+02  0.7818608E-02  0.1130116E+00
         25   -1    0    0    0    0  0.00000000000E+00  0.00000000000E+00  0.99999998245E-14  0.12500000000E+03  0.12500000000E+03 0.  0.
        -11    1    3    3    0    0 -0.20929643229E+02  0.48037852518E+02 -0.25213013303E+02  0.58149645573E+02  0.51100000000E-03 0. -1.
         23    2    1    0    0    0 -0.23297179735E+02  0.12824793993E+02 -0.98586866962E+01  0.96637566607E+02  0.92381771209E+02 0.  0.
         11    1    3    3    0    0 -0.23675365062E+01 -0.35213058524E+02  0.15354326606E+02  0.38487921034E+02  0.51100000000E-03 0.  1.
         22    1    1    0    0    0  0.23297179735E+02 -0.12824793993E+02  0.98586866962E+01  0.28362433393E+02  0.00000000000E+00 0. -1.
</event>
<event>
 5    1  0.1111613E-009  0.9118800E+02  0.7818608E-02  0.1130116E+00
         25   -1    0    0    0    0  0.00000000000E+00  0.00000000000E+00  0.99999998245E-14  0.12500000000E+03  0.12500000000E+03 0.  0.
        -11    1    3    3    0    0 -0.18163143527E+02 -0.20584842682E+02 -0.51163430009E+02  0.58063173368E+02  0.51100000000E-03 0. -1.
         23    2    1    0    0    0 -0.18835685456E+02 -0.19895023165E+02 -0.15932837679E+02  0.93306935935E+02  0.87759523606E+02 0.  0.
         11    1    3    3    0    0 -0.67254192948E+00  0.68981951655E+00  0.35230592330E+02  0.35243762566E+02  0.51100000000E-03 0.  1.
         22    1    1    0    0    0  0.18835685456E+02  0.19895023165E+02  0.15932837679E+02  0.31693064065E+02  0.00000000000E+00 0. -1.
</event>
<event>
 5    1  0.1111613E-009  0.9118800E+02  0.7818608E-02  0.1130116E+00
         25   -1    0    0    0    0  0.00000000000E+00  0.00000000000E+00  0.99999998245E-14  0.12500000000E+03  0.12500000000E+03 0.  0.
        -11    1    3    3    0    0 -0.24116833755E+01 -0.23314287596E+02 -0.13834345239E+02  0.27216930967E+02  0.51100000000E-03 0.  1.
         23    2    1    0    0    0 -0.31176611349E+02 -0.93335194849E+01  0.29500104799E+02  0.81075611964E+02  0.68146188382E+02 0.  0.
         11    1    3    3    0    0 -0.28764927973E+02  0.13980768111E+02  0.43334450039E+02  0.53858680997E+02  0.51100000000E-03 0. -1.
         22    1    1    0    0    0  0.31176611349E+02  0.93335194849E+01 -0.29500104799E+02  0.43924388036E+02  0.00000000000E+00 0. -1.
</event>
<event>
 5    1  0.1111613E-009  0.9118800E+02  0.7818608E-02  0.1130116E+00
         25   -1    0    0    0    0  0.00000000000E+00  0.00000000000E+00  0.99999998245E-14  0.12500000000E+03  0.12500000000E+03 0.  0.
        -11    1    3    3    0    0  0.38845501197E+02  0.37656146006E+01 -0.12993314870E+01  0.39049213553E+02  0.51100000000E-03 0. -1.
         23    2    1    0    0    0 -0.11643389769E+02 -0.24898308235E+02 -0.42735938814E+01  0.97183496213E+02  0.93117528174E+02 0.  0.
         11    1    3    3    0    0 -0.50488890966E+02 -0.28663922836E+02 -0.29742623944E+01  0.58134282660E+02  0.51100000000E-03 0.  1.
         22    1    1    0    0    0  0.11643389769E+02  0.24898308235E+02  0.42735938814E+01  0.27816503787E+02  0.00000000000E+00 0.  1.
</event>
<event>
 5    1  0.1111613E-009  0.9118800E+02  0.7818608E-02  0.1130116E+00
         25   -1    0    0    0    0  0.00000000000E+00  0.00000000000E+00  0.99999998245E-14  0.12500000000E+03  0.12500000000E+03 0.  0.
        -11    1    3    3    0    0  0.14561544575E+02 -0.15280347887E+02 -0.31999846858E+02  0.38334290278E+02  0.51100000000E-03 0. -1.
         23    2    1    0    0    0 -0.19391595789E+02 -0.14520213618E+02  0.15139149217E+02  0.96433158562E+02  0.92104775340E+02 0.  0.
         11    1    3    3    0    0 -0.33953140364E+02  0.76013426870E+00  0.47138996074E+02  0.58098868284E+02  0.51100000000E-03 0.  1.
         22    1    1    0    0    0  0.19391595789E+02  0.14520213618E+02 -0.15139149217E+02  0.28566841438E+02  0.00000000000E+00 0.  1.
</event>
<event>
 5    1  0.1111613E-009  0.9118800E+02  0.7818608E-02  0.1130116E+00
         25   -1    0    0    0    0  0.00000000000E+00  0.00000000000E+00  0.99999998245E-14  0.12500000000E+03  0.12500000000E+03 0.  0.
        -11    1    3    3    0    0 -0.20264911795E+02  0.29336122908E+02  0.32151663906E+02  0.48010459793E+02  0.51100000000E-03 0.  1.
         23    2    1    0    0    0 -0.27823858831E+02 -0.82549436990E+01  0.37307330888E+01  0.95738599058E+02  0.91157280371E+02 0.  0.
         11    1    3    3    0    0 -0.75589470356E+01 -0.37591066607E+02 -0.28420930817E+02  0.47728139265E+02  0.51100000000E-03 0. -1.
         22    1    1    0    0    0  0.27823858831E+02  0.82549436990E+01 -0.37307330888E+01  0.29261400942E+02  0.00000000000E+00 0.  1.
</event>
<event>
 5    1  0.1111613E-009  0.9118800E+02  0.7818608E-02  0.1130116E+00
         25   -1    0    0    0    0  0.00000000000E+00  0.00000000000E+00  0.99999998245E-14  0.12500000000E+03  0.12500000000E+03 0.  0.
        -11    1    3    3    0    0  0.94044435653E+01  0.46409868207E+02  0.39079478077E+02  0.61396457819E+02  0.51100000000E-03 0.  1.
         23    2    1    0    0    0  0.12178163972E+01  0.16257269761E+02  0.23735209903E+02  0.96205172582E+02  0.91794842696E+02 0.  0.
         11    1    3    3    0    0 -0.81866271680E+01 -0.30152598446E+02 -0.15344268173E+02  0.34808714763E+02  0.51100000000E-03 0. -1.
         22    1    1    0    0    0 -0.12178163972E+01 -0.16257269761E+02 -0.23735209903E+02  0.28794827418E+02  0.00000000000E+00 0.  1.
</event>
<event>
 5    1  0.1111613E-009  0.9118800E+02  0.7818608E-02  0.1130116E+00
         25   -1    0    0    0    0  0.00000000000E+00  0.00000000000E+00  0.99999998245E-14  0.12500000000E+03  0.12500000000E+03 0.  0.
        -11    1    3    3    0    0 -0.57914633913E+01 -0.37400778020E+02  0.44083220492E+02  0.58100684798E+02  0.51100000000E-03 0. -1.
         23    2    1    0    0    0 -0.16027748994E+02 -0.20907221285E+02  0.11013984977E+02  0.96446392439E+02  0.92122733947E+02 0.  0.
         11    1    3    3    0    0 -0.10236285602E+02  0.16493556735E+02 -0.33069235515E+02  0.38345707642E+02  0.51100000000E-03 0.  1.
         22    1    1    0    0    0  0.16027748994E+02  0.20907221285E+02 -0.11013984977E+02  0.28553607561E+02  0.00000000000E+00 0. -1.
</event>
<event>
 5    1  0.1111613E-009  0.9118800E+02  0.7818608E-02  0.1130116E+00
         25   -1    0    0    0    0  0.00000000000E+00  0.00000000000E+00  0.99999998245E-14  0.12500000000E+03  0.12500000000E+03 0.  0.
        -11    1    3    3    0    0 -0.14557530252E+02  0.28028466990E+02 -0.15325246748E+02  0.35105267938E+02  0.51100000000E-03 0. -1.
         23    2    1    0    0    0  0.10796888130E+01 -0.26671800179E+02  0.87894441499E+01  0.96896530798E+02  0.92731508666E+02 0.  0.
         11    1    3    3    0    0  0.15637219065E+02 -0.54700267169E+02  0.24114690898E+02  0.61791262860E+02  0.51100000000E-03 0.  1.
         22    1    1    0    0    0 -0.10796888130E+01  0.26671800179E+02 -0.87894441499E+01  0.28103469202E+02  0.00000000000E+00 0.  1.
</event>
<event>
 5    1  0.1111613E-009  0.9118800E+02  0.7818608E-02  0.1130116E+00
         25   -1    0    0    0    0  0.00000000000E+00  0.00000000000E+00  0.99999998245E-14  0.12500000000E+03  0.12500000000E+03 0.  0.
        -11    1    3    3    0    0  0.24528177780E+02  0.13306613395E+02 -0.11116112116E+02  0.30037733171E+02  0.51100000000E-03 0.  1.
         23    2    1    0    0    0 -0.30019514529E+02 -0.13999974089E+02 -0.67582285773E+01  0.91194021526E+02  0.84696548818E+02 0.  0.
         11    1    3    3    0    0 -0.54547692308E+02 -0.27306587484E+02  0.43578835382E+01  0.61156288355E+02  0.51100000000E-03 0. -1.
         22    1    1    0    0    0  0.30019514529E+02  0.13999974089E+02  0.67582285773E+01  0.33805978474E+02  0.00000000000E+00 0. -1.
</event>
<event>
 5    1  0.1111613E-009  0.9118800E+02  0.7818608E-02  0.1130116E+00
         25   -1    0    0    0    0  0.00000000000E+00  0.00000000000E+00  0.99999998245E-14  0.12500000000E+03  0.12500000000E+03 0.  0.
        -11    1    3    3    0    0 -0.41535415288E+02  0.15767813817E+02  0.37181154305E+02  0.57933176259E+02  0.51100000000E-03 0. -1.
         23    2    1    0    0    0 -0.73730118094E+01  0.18531742389E+02  0.21654657894E+02  0.95560044368E+02  0.90912106410E+02 0.  0.
         11    1    3    3    0    0  0.34162403479E+02  0.27639285727E+01 -0.15526496411E+02  0.37626868109E+02  0.51100000000E-03 0.  1.
         22    1    1    0    0    0  0.73730118094E+01 -0.18531742389E+02 -0.21654657894E+02  0.29439955632E+02  0.00000000000E+00 0. -1.
</event>
<event>
 5    1  0.1111613E-009  0.9118800E+02  0.7818608E-02  0.1130116E+00
         25   -1    0    0    0    0  0.00000000000E+00  0.00000000000E+00  0.99999998245E-14  0.12500000000E+03  0.12500000000E+03 0.  0.
        -11    1    3    3    0    0 -0.49682386966E+01  0.46030236945E+02  0.30311054543E+02  0.55337384621E+02  0.51100000000E-03 0.  1.
         23    2    1    0    0    0  0.18724995251E+02  0.19908170680E+02  0.11058055166E+02  0.95517101720E+02  0.90853043042E+02 0.  0.
         11    1    3    3    0    0  0.23693233947E+02 -0.26122066265E+02 -0.19252999377E+02  0.40179717099E+02  0.51100000000E-03 0. -1.
         22    1    1    0    0    0 -0.18724995251E+02 -0.19908170680E+02 -0.11058055166E+02  0.29482898280E+02  0.00000000000E+00 0.  1.
</event>
<event>
 5    1  0.1111613E-009  0.9118800E+02  0.7818608E-02  0.1130116E+00
         25   -1    0    0    0    0  0.00000000000E+00  0.00000000000E+00  0.99999998245E-14  0.12500000000E+03  0.12500000000E+03 0.  0.
        -11    1    3    3    0    0  0.14022406949E+02  0.81402627275E+01  0.30483989992E+02  0.34527748551E+02  0.51100000000E-03 0.  1.
         23    2    1    0    0    0  0.12960058352E+02 -0.13026461189E+02 -0.25029739011E+02  0.93949401961E+02  0.88669896190E+02 0.  0.
         11    1    3    3    0    0 -0.10623485970E+01 -0.21166723917E+02 -0.55513729003E+02  0.59421653410E+02  0.51100000000E-03 0. -1.
         22    1    1    0    0    0 -0.12960058352E+02  0.13026461189E+02  0.25029739011E+02  0.31050598039E+02  0.00000000000E+00 0. -1.
</event>
<event>
 5    1  0.1111613E-009  0.9118800E+02  0.7818608E-02  0.1130116E+00
         25   -1    0    0    0    0  0.00000000000E+00  0.00000000000E+00  0.99999998245E-14  0.12500000000E+03  0.12500000000E+03 0.  0.
        -11    1    3    3    0    0  0.25670795300E+02 -0.35341875115E+02  0.28341040759E+02  0.52069688491E+02  0.51100000000E-03 0. -1.
         23    2    1    0    0    0  0.19405772879E+02  0.67952552603E+01  0.21562044384E+02  0.95206019516E+02  0.90424028217E+02 0.  0.
         11    1    3    3    0    0 -0.62650224210E+01  0.42137130375E+02 -0.67789963750E+01  0.43136331025E+02  0.51100000000E-03 0.  1.
         22    1    1    0    0    0 -0.19405772879E+02 -0.67952552603E+01 -0.21562044384E+02  0.29793980484E+02  0.00000000000E+00 0. -1.
</event>
<event>
 5    1  0.1111613E-009  0.9118800E+02  0.7818608E-02  0.1130116E+00
         25   -1    0    0    0    0  0.00000000000E+00  0.00000000000E+00  0.99999998245E-14  0.12500000000E+03  0.12500000000E+03 0.  0.
        -11    1    3    3    0    0  0.77238095762E+01 -0.25441237868E+02 -0.45547326914E+02  0.52739670153E+02  0.51100000000E-03 0.  1.
         23    2    1    0    0    0 -0.59355959508E+01  0.73477853179E+01 -0.33416121235E+02  0.90274527983E+02  0.83328458499E+02 0.  0.
         11    1    3    3    0    0 -0.13659405527E+02  0.32789023186E+02  0.12131205679E+02  0.37534857830E+02  0.51100000000E-03 0. -1.
         22    1    1    0    0    0  0.59355959508E+01 -0.73477853179E+01  0.33416121235E+02  0.34725472017E+02  0.00000000000E+00 0.  1.
</event>
<event>
 5    1  0.1111613E-009  0.9118800E+02  0.7818608E-02  0.1130116E+00
         25   -1    0    0    0    0  0.00000000000E+00  0.00000000000E+00  0.99999998245E-14  0.12500000000E+03  0.12500000000E+03 0.  0.
        -11    1    3    3    0    0  0.26635740510E+02  0.42459651582E+01  0.51245572881E+02  0.57910272256E+02  0.51100000000E-03 0.  1.
         23    2    1    0    0    0  0.22601533680E+02  0.11778572730E+02  0.14414439027E+02  0.95719628542E+02  0.91131263218E+02 0.  0.
         11    1    3    3    0    0 -0.40342068308E+01  0.75326075719E+01 -0.36831133854E+02  0.37809356286E+02  0.51100000000E-03 0. -1.
         22    1    1    0    0    0 -0.22601533680E+02 -0.11778572730E+02 -0.14414439027E+02  0.29280371458E+02  0.00000000000E+00 0.  1.
</event>
<event>
 5    1  0.1111613E-009  0.9118800E+02  0.7818608E-02  0.1130116E+00
         25   -1    0    0    0    0  0.00000000000E+00  0.00000000000E+00  0.99999998245E-14  0.12500000000E+03  0.12500000000E+03 0.  0.
        -11    1    3    3    0    0  0.30252938139E+02 -0.74203606046E+01 -0.34130514955E+02  0.46208160198E+02  0.51100000000E-03 0.  1.
         23    2    1    0    0    0  0.25179576442E+02  0.78674058886E+01  0.12693231404E+02  0.95725006085E+02  0.91138639014E+02 0.  0.
         11    1    3    3    0    0 -0.50733616973E+01  0.15287766493E+02  0.46823746359E+02  0.49516845887E+02  0.51100000000E-03 0. -1.
         22    1    1    0    0    0 -0.25179576442E+02 -0.78674058886E+01 -0.12693231404E+02  0.29274993915E+02  0.00000000000E+00 0. -1.
</event>
<event>
 5    1  0.1111613E-009  0.9118800E+02  0.7818608E-02  0.1130116E+00
         25   -1    0    0    0    0  0.00000000000E+00  0.00000000000E+00  0.99999998245E-14  0.12500000000E+03  0.12500000000E+03 0.  0.
        -11    1    3    3    0    0  0.17868675904E+02 -0.55113306336E+02  0.11051037678E+02  0.58982129055E+02  0.51100000000E-03 0. -1.
         23    2    1    0    0    0  0.21164747991E+02 -0.20153142365E+02  0.67474564111E-01  0.95775006287E+02  0.91207190352E+02 0.  0.
         11    1    3    3    0    0  0.32960720865E+01  0.34960163971E+02 -0.10983563114E+02  0.36792877232E+02  0.51100000000E-03 0.  1.
         22    1    1    0    0    0 -0.21164747991E+02  0.20153142365E+02 -0.67474564111E-01  0.29224993713E+02  0.00000000000E+00 0. -1.
</event>
<event>
 5    1  0.1111613E-009  0.9118800E+02  0.7818608E-02  0.1130116E+00
         25   -1    0    0    0    0  0.00000000000E+00  0.00000000000E+00  0.99999998245E-14  0.12500000000E+03  0.12500000000E+03 0.  0.
        -11    1    3    3    0    0  0.43809857521E+02  0.29716225598E+02  0.94766114788E+01  0.53778841984E+02  0.51100000000E-03 0.  1.
         23    2    1    0    0    0 -0.71463228680E+01  0.85236522481E+01  0.11496635930E+02  0.10900327484E+03  0.10782308987E+03 0.  0.
         11    1    3    3    0    0 -0.50956180389E+02 -0.21192573350E+02  0.20200244513E+01  0.55224432854E+02  0.51100000000E-03 0. -1.
         22    1    1    0    0    0  0.71463228680E+01 -0.85236522481E+01 -0.11496635930E+02  0.15996725161E+02  0.00000000000E+00 0.  1.
</event>
<event>
 5    1  0.1111613E-009  0.9118800E+02  0.7818608E-02  0.1130116E+00
         25   -1    0    0    0    0  0.00000000000E+00  0.00000000000E+00  0.99999998245E-14  0.12500000000E+03  0.12500000000E+03 0.  0.
        -11    1    3    3    0    0 -0.40985311397E+02 -0.27330591811E+02  0.33767284981E+01  0.49377720630E+02  0.51100000000E-03 0.  1.
         23    2    1    0    0    0 -0.24838312988E+02  0.12246118719E+02 -0.12020912898E+02  0.94810406384E+02  0.89875478280E+02 0.  0.
         11    1    3    3    0    0  0.16146998408E+02  0.39576710530E+02 -0.15397641396E+02  0.45432685754E+02  0.51100000000E-03 0. -1.
         22    1    1    0    0    0  0.24838312988E+02 -0.12246118719E+02  0.12020912898E+02  0.30189593616E+02  0.00000000000E+00 0. -1.
</event>
<event>
 5    1  0.1111613E-009  0.9118800E+02  0.7818608E-02  0.1130116E+00
         25   -1    0    0    0    0  0.00000000000E+00  0.00000000000E+00  0.99999998245E-14  0.12500000000E+03  0.12500000000E+03 0.  0.
        -11    1    3    3    0    0  0.34170860487E+02  0.54184108322E+01 -0.23940942402E+01  0.34680521476E+02  0.51100000000E-03 0. -1.
         23    2    1    0    0    0 -0.26972902371E+02  0.95238174936E+01  0.31995402616E+01  0.96216712838E+02  0.91810556090E+02 0.  0.
         11    1    3    3    0    0 -0.61143762857E+02  0.41054066614E+01  0.55936345018E+01  0.61536191362E+02  0.51100000000E-03 0.  1.
         22    1    1    0    0    0  0.26972902371E+02 -0.95238174936E+01 -0.31995402616E+01  0.28783287162E+02  0.00000000000E+00 0.  1.
</event>
<event>
 5    1  0.1111613E-009  0.9118800E+02  0.7818608E-02  0.1130116E+00
         25   -1    0    0    0    0  0.00000000000E+00  0.00000000000E+00  0.99999998245E-14  0.12500000000E+03  0.12500000000E+03 0.  0.
        -11    1    3    3    0    0  0.10465222899E+01  0.36613789070E+02 -0.35167900366E+02  0.50778400677E+02  0.51100000000E-03 0.  1.
         23    2    1    0    0    0 -0.33130192991E+01 -0.84270285814E+01 -0.26688433174E+02  0.96817321404E+02  0.92624674633E+02 0.  0.
         11    1    3    3    0    0 -0.43595415890E+01 -0.45040817651E+02  0.84794671918E+01  0.46038920726E+02  0.51100000000E-03 0. -1.
         22    1    1    0    0    0  0.33130192991E+01  0.84270285814E+01  0.26688433174E+02  0.28182678596E+02  0.00000000000E+00 0.  1.
</event>
<event>
 5    1  0.1111613E-009  0.9118800E+02  0.7818608E-02  0.1130116E+00
         25   -1    0    0    0    0  0.00000000000E+00  0.00000000000E+00  0.99999998245E-14  0.12500000000E+03  0.12500000000E+03 0.  0.
        -11    1    3    3    0    0  0.22197267049E+02  0.39396788297E+02 -0.23644493407E+02  0.51028302552E+02  0.51100000000E-03 0. -1.
         23    2    1    0    0    0 -0.15844887178E+02  0.17070629689E+02 -0.18136479788E+02  0.95480536137E+02  0.90802720412E+02 0.  0.
         11    1    3    3    0    0 -0.38042154227E+02 -0.22326158609E+02  0.55080136194E+01  0.44452233585E+02  0.51100000000E-03 0.  1.
         22    1    1    0    0    0  0.15844887178E+02 -0.17070629689E+02  0.18136479788E+02  0.29519463863E+02  0.00000000000E+00 0. -1.
</event>
<event>
 5    1  0.1111613E-009  0.9118800E+02  0.7818608E-02  0.1130116E+00
         25   -1    0    0    0    0  0.00000000000E+00  0.00000000000E+00  0.99999998245E-14  0.12500000000E+03  0.12500000000E+03 0.  0.
        -11    1    3    3    0    0 -0.14046754967E+02  0.28988927822E+02  0.18203189664E+02  0.37000342911E+02  0.51100000000E-03 0. -1.
         23    2    1    0    0    0  0.34835134262E+01 -0.14458790934E+02 -0.21802648482E+02  0.98607823472E+02  0.95010293484E+02 0.  0.
         11    1    3    3    0    0  0.17530268393E+02 -0.43447718756E+02 -0.40005838146E+02  0.61607480561E+02  0.51100000000E-03 0.  1.
         22    1    1    0    0    0 -0.34835134262E+01  0.14458790934E+02  0.21802648482E+02  0.26392176528E+02  0.00000000000E+00 0.  1.
</event>
<event>
 5    1  0.1111613E-009  0.9118800E+02  0.7818608E-02  0.1130116E+00
         25   -1    0    0    0    0  0.00000000000E+00  0.00000000000E+00  0.99999998245E-14  0.12500000000E+03  0.12500000000E+03 0.  0.
        -11    1    3    3    0    0 -0.42044161458E+02  0.83392211048E+01 -0.27492740368E+02  0.50922538179E+02  0.51100000000E-03 0.  1.
         23    2    1    0    0    0 -0.23873878123E+02 -0.12551454617E+02  0.88523828473E+01  0.96612225312E+02  0.92347476024E+02 0.  0.
         11    1    3    3    0    0  0.18170283335E+02 -0.20890675721E+02  0.36345123215E+02  0.45689687134E+02  0.51100000000E-03 0. -1.
         22    1    1    0    0    0  0.23873878123E+02  0.12551454617E+02 -0.88523828473E+01  0.28387774688E+02  0.00000000000E+00 0.  1.
</event>
<event>
 5    1  0.1111613E-009  0.9118800E+02  0.7818608E-02  0.1130116E+00
         25   -1    0    0    0    0  0.00000000000E+00  0.00000000000E+00  0.99999998245E-14  0.12500000000E+03  0.12500000000E+03 0.  0.
        -11    1    3    3    0    0  0.10720160989E+02  0.27001561473E+02  0.35109629190E+02  0.45570738811E+02  0.51100000000E-03 0.  1.
         23    2    1    0    0    0 -0.22614808640E+02 -0.68605125369E+01  0.13648276422E+02  0.97709495215E+02  0.93820966760E+02 0.  0.
         11    1    3    3    0    0 -0.33334969630E+02 -0.33862074010E+02 -0.21461352768E+02  0.52138756404E+02  0.51100000000E-03 0. -1.
         22    1    1    0    0    0  0.22614808640E+02  0.68605125369E+01 -0.13648276422E+02  0.27290504785E+02  0.00000000000E+00 0. -1.
</event>
<event>
 5    1  0.1111613E-009  0.9118800E+02  0.7818608E-02  0.1130116E+00
         25   -1    0    0    0    0  0.00000000000E+00  0.00000000000E+00  0.99999998245E-14  0.12500000000E+03  0.12500000000E+03 0.  0.
        -11    1    3    3    0    0  0.33481791396E+02 -0.22238959258E+02 -0.29864664028E+02  0.50074942054E+02  0.51100000000E-03 0. -1.
         23    2    1    0    0    0  0.74059557826E+00  0.11759691745E+02 -0.24795839510E+02  0.97546903840E+02  0.93604091578E+02 0.  0.
         11    1    3    3    0    0 -0.32741195818E+02  0.33998651003E+02  0.50688245183E+01  0.47471961786E+02  0.51100000000E-03 0.  1.
         22    1    1    0    0    0 -0.74059557826E+00 -0.11759691745E+02  0.24795839510E+02  0.27453096160E+02  0.00000000000E+00 0.  1.
</event>
<event>
 5    1  0.1111613E-009  0.9118800E+02  0.7818608E-02  0.1130116E+00
         25   -1    0    0    0    0  0.00000000000E+00  0.00000000000E+00  0.99999998245E-14  0.12500000000E+03  0.12500000000E+03 0.  0.
        -11    1    3    3    0    0 -0.64310108966E+00  0.30414948570E+02 -0.20585142637E+02  0.36731876799E+02  0.51100000000E-03 0. -1.
         23    2    1    0    0    0  0.72817831233E-01 -0.12990851270E+02  0.23212929041E+02  0.98399105394E+02  0.94735296213E+02 0.  0.
         11    1    3    3    0    0  0.71591892089E+00 -0.43405799840E+02  0.43798071679E+02  0.61667228595E+02  0.51100000000E-03 0.  1.
         22    1    1    0    0    0 -0.72817831233E-01  0.12990851270E+02 -0.23212929041E+02  0.26600894606E+02  0.00000000000E+00 0.  1.
</event>
<event>
 5    1  0.1111613E-009  0.9118800E+02  0.7818608E-02  0.1130116E+00
         25   -1    0    0    0    0  0.00000000000E+00  0.00000000000E+00  0.99999998245E-14  0.12500000000E+03  0.12500000000E+03 0.  0.
        -11    1    3    3    0    0 -0.30333960792E+01  0.29571505481E+02 -0.32775369928E+02  0.44248167221E+02  0.51100000000E-03 0. -1.
         23    2    1    0    0    0 -0.22770460529E+02 -0.28778715264E+01  0.86712121436E+01  0.10046500586E+03  0.97423054078E+02 0.  0.
         11    1    3    3    0    0 -0.19737064450E+02 -0.32449377008E+02  0.41446582072E+02  0.56216838643E+02  0.51100000000E-03 0.  1.
         22    1    1    0    0    0  0.22770460529E+02  0.28778715264E+01 -0.86712121436E+01  0.24534994136E+02  0.00000000000E+00 0.  1.
</event>
<event>
 5    1  0.1111613E-009  0.9118800E+02  0.7818608E-02  0.1130116E+00
         25   -1    0    0    0    0  0.00000000000E+00  0.00000000000E+00  0.99999998245E-14  0.12500000000E+03  0.12500000000E+03 0.  0.
        -11    1    3    3    0    0  0.36822290005E+02 -0.20870091604E+02 -0.36497441752E+02  0.55888326326E+02  0.51100000000E-03 0. -1.
         23    2    1    0    0    0  0.98607350974E+01  0.11799681301E+02 -0.15502445946E+02  0.10316442339E+03  0.10082710870E+03 0.  0.
         11    1    3    3    0    0 -0.26961554908E+02  0.32669772905E+02  0.20994995806E+02  0.47276097067E+02  0.51100000000E-03 0.  1.
         22    1    1    0    0    0 -0.98607350974E+01 -0.11799681301E+02  0.15502445946E+02  0.21835576607E+02  0.00000000000E+00 0.  1.
</event>
<event>
 5    1  0.1111613E-009  0.9118800E+02  0.7818608E-02  0.1130116E+00
         25   -1    0    0    0    0  0.00000000000E+00  0.00000000000E+00  0.99999998245E-14  0.12500000000E+03  0.12500000000E+03 0.  0.
        -11    1    3    3    0    0 -0.31951712464E+02 -0.18747948568E+02  0.33361815863E+02  0.49853869086E+02  0.51100000000E-03 0. -1.
         23    2    1    0    0    0  0.76796132429E+01  0.46878166902E+01  0.27253890129E+02  0.96299362167E+02  0.91923014211E+02 0.  0.
         11    1    3    3    0    0  0.39631325707E+02  0.23435765258E+02 -0.61079257340E+01  0.46445493081E+02  0.51100000000E-03 0.  1.
         22    1    1    0    0    0 -0.76796132429E+01 -0.46878166902E+01 -0.27253890129E+02  0.28700637833E+02  0.00000000000E+00 0. -1.
</event>
<event>
 5    1  0.1111613E-009  0.9118800E+02  0.7818608E-02  0.1130116E+00
         25   -1    0    0    0    0  0.00000000000E+00  0.00000000000E+00  0.99999998245E-14  0.12500000000E+03  0.12500000000E+03 0.  0.
        -11    1    3    3    0    0  0.12111458379E+02  0.14628576547E+02 -0.34780051114E+02  0.39627447958E+02  0.51100000000E-03 0. -1.
         23    2    1    0    0    0 -0.95334712530E+01  0.28568876007E+02  0.11641859955E+02  0.92710672759E+02  0.86906088336E+02 0.  0.
         11    1    3    3    0    0 -0.21644929632E+02  0.13940299460E+02  0.46421911069E+02  0.53083224802E+02  0.51100000000E-03 0.  1.
         22    1    1    0    0    0  0.95334712530E+01 -0.28568876007E+02 -0.11641859955E+02  0.32289327241E+02  0.00000000000E+00 0.  1.
</event>
<event>
 5    1  0.1111613E-009  0.9118800E+02  0.7818608E-02  0.1130116E+00
         25   -1    0    0    0    0  0.00000000000E+00  0.00000000000E+00  0.99999998245E-14  0.12500000000E+03  0.12500000000E+03 0.  0.
        -11    1    3    3    0    0  0.64292557131E+01 -0.46844503007E+02 -0.25927048020E+01  0.47354671464E+02  0.51100000000E-03 0.  1.
         23    2    1    0    0    0  0.54001520253E+01 -0.96514457425E+01  0.27597159301E+02  0.95269287793E+02  0.90511446504E+02 0.  0.
         11    1    3    3    0    0 -0.10291036878E+01  0.37193057265E+02  0.30189864103E+02  0.47914616329E+02  0.51100000000E-03 0. -1.
         22    1    1    0    0    0 -0.54001520253E+01  0.96514457425E+01 -0.27597159301E+02  0.29730712207E+02  0.00000000000E+00 0. -1.
</event>
<event>
 5    1  0.1111613E-009  0.9118800E+02  0.7818608E-02  0.1130116E+00
         25   -1    0    0    0    0  0.00000000000E+00  0.00000000000E+00  0.99999998245E-14  0.12500000000E+03  0.12500000000E+03 0.  0.
        -11    1    3    3    0    0  0.27844184068E+02 -0.82750860892E+00  0.19370731010E+02  0.33929464732E+02  0.51100000000E-03 0.  1.
         23    2    1    0    0    0 -0.22931215344E+02 -0.10339340351E+02 -0.14750573322E+02  0.95839718633E+02  0.91295835931E+02 0.  0.
         11    1    3    3    0    0 -0.50775399412E+02 -0.95118317417E+01 -0.34121304332E+02  0.61910253901E+02  0.51100000000E-03 0. -1.
         22    1    1    0    0    0  0.22931215344E+02  0.10339340351E+02  0.14750573322E+02  0.29160281367E+02  0.00000000000E+00 0. -1.
</event>
<event>
 5    1  0.1111613E-009  0.9118800E+02  0.7818608E-02  0.1130116E+00
         25   -1    0    0    0    0  0.00000000000E+00  0.00000000000E+00  0.99999998245E-14  0.12500000000E+03  0.12500000000E+03 0.  0.
        -11    1    3    3    0    0 -0.23505208811E+02 -0.13443310315E+02  0.54994447714E+02  0.61299320657E+02  0.51100000000E-03 0. -1.
         23    2    1    0    0    0 -0.18312812080E+02 -0.27484996718E+01  0.22747020468E+02  0.95668442303E+02  0.91061026657E+02 0.  0.
         11    1    3    3    0    0  0.51923967308E+01  0.10694810644E+02 -0.32247427245E+02  0.34369121646E+02  0.51100000000E-03 0.  1.
         22    1    1    0    0    0  0.18312812080E+02  0.27484996718E+01 -0.22747020468E+02  0.29331557697E+02  0.00000000000E+00 0. -1.
</event>
<event>
 5    1  0.1111613E-009  0.9118800E+02  0.7818608E-02  0.1130116E+00
         25   -1    0    0    0    0  0.00000000000E+00  0.00000000000E+00  0.99999998245E-14  0.12500000000E+03  0.12500000000E+03 0.  0.
        -11    1    3    3    0    0 -0.40632573675E+01  0.20693722796E+01  0.61546548772E+02  0.61715233355E+02  0.51100000000E-03 0.  1.
         23    2    1    0    0    0 -0.58438783136E+01  0.68469561101E+01  0.29750963445E+02  0.93917021577E+02  0.88624237059E+02 0.  0.
         11    1    3    3    0    0 -0.17806209461E+01  0.47775838306E+01 -0.31795585327E+02  0.32201788223E+02  0.51100000000E-03 0. -1.
         22    1    1    0    0    0  0.58438783136E+01 -0.68469561101E+01 -0.29750963445E+02  0.31082978423E+02  0.00000000000E+00 0.  1.
</event>
<event>
 5    1  0.1111613E-009  0.9118800E+02  0.7818608E-02  0.1130116E+00
         25   -1    0    0    0    0  0.00000000000E+00  0.00000000000E+00  0.99999998245E-14  0.12500000000E+03  0.12500000000E+03 0.  0.
        -11    1    3    3    0    0 -0.11539814116E+02 -0.18252816874E+02  0.33613460887E+02  0.39952439059E+02  0.51100000000E-03 0.  1.
         23    2    1    0    0    0 -0.16596726617E+01  0.28790692379E+02  0.54937644581E+01  0.95642889636E+02  0.91025943604E+02 0.  0.
         11    1    3    3    0    0  0.98801414546E+01  0.47043509253E+02 -0.28119696429E+02  0.55690450577E+02  0.51100000000E-03 0. -1.
         22    1    1    0    0    0  0.16596726617E+01 -0.28790692379E+02 -0.54937644581E+01  0.29357110364E+02  0.00000000000E+00 0. -1.
</event>
<event>
 5    1  0.1111613E-009  0.9118800E+02  0.7818608E-02  0.1130116E+00
         25   -1    0    0    0    0  0.00000000000E+00  0.00000000000E+00  0.99999998245E-14  0.12500000000E+03  0.12500000000E+03 0.  0.
        -11    1    3    3    0    0 -0.45804702551E+02  0.14187967609E+02 -0.39939162784E+02  0.62405976676E+02  0.51100000000E-03 0. -1.
         23    2    1    0    0    0 -0.20775274359E+02  0.89272161036E+01 -0.19303487000E+02  0.95269009057E+02  0.90511061558E+02 0.  0.
         11    1    3    3    0    0  0.25029428192E+02 -0.52607515054E+01  0.20635675784E+02  0.32863032382E+02  0.51100000000E-03 0.  1.
         22    1    1    0    0    0  0.20775274359E+02 -0.89272161036E+01  0.19303487000E+02  0.29730990943E+02  0.00000000000E+00 0. -1.
</event>
<event>
 5    1  0.1111613E-009  0.9118800E+02  0.7818608E-02  0.1130116E+00
         25   -1    0    0    0    0  0.00000000000E+00  0.00000000000E+00  0.99999998245E-14  0.12500000000E+03  0.12500000000E+03 0.  0.
        -11    1    3    3    0    0 -0.72673311221E+01  0.29794953849E+02  0.28531662231E+02  0.41888054698E+02  0.51100000000E-03 0. -1.
         23    2    1    0    0    0 -0.24339987029E+02 -0.15588702482E+02  0.54643283199E+01  0.95583992493E+02  0.90945028030E+02 0.  0.
         11    1    3    3    0    0 -0.17072655907E+02 -0.45383656331E+02 -0.23067333911E+02  0.53695937795E+02  0.51100000000E-03 0.  1.
         22    1    1    0    0    0  0.24339987029E+02  0.15588702482E+02 -0.54643283199E+01  0.29416007507E+02  0.00000000000E+00 0.  1.
</event>
<event>
 5    1  0.1111613E-009  0.9118800E+02  0.7818608E-02  0.1130116E+00
         25   -1    0    0    0    0  0.00000000000E+00  0.00000000000E+00  0.99999998245E-14  0.12500000000E+03  0.12500000000E+03 0.  0.
        -11    1    3    3    0    0 -0.92991334749E+01 -0.52348059764E+02 -0.15360739834E+02  0.55342077779E+02  0.51100000000E-03 0. -1.
         23    2    1    0    0    0 -0.23100613917E+02 -0.14833726314E+02 -0.10492611150E+02  0.95609989989E+02  0.90980753444E+02 0.  0.
         11    1    3    3    0    0 -0.13801480442E+02  0.37514333450E+02  0.48681286844E+01  0.40267912210E+02  0.51100000000E-03 0.  1.
         22    1    1    0    0    0  0.23100613917E+02  0.14833726314E+02  0.10492611150E+02  0.29390010011E+02  0.00000000000E+00 0. -1.
</event>
<event>
 5    1  0.1111613E-009  0.9118800E+02  0.7818608E-02  0.1130116E+00
         25   -1    0    0    0    0  0.00000000000E+00  0.00000000000E+00  0.99999998245E-14  0.12500000000E+03  0.12500000000E+03 0.  0.
        -11    1    3    3    0    0 -0.27151513264E+02  0.57396190358E+01 -0.33616343578E+02  0.43591357573E+02  0.51100000000E-03 0.  1.
         23    2    1    0    0    0 -0.22073689626E+02 -0.12006163085E+02  0.15098037713E+02  0.95685388140E+02  0.91084285335E+02 0.  0.
         11    1    3    3    0    0  0.50778236375E+01 -0.17745782120E+02  0.48714381291E+02  0.52094030568E+02  0.51100000000E-03 0. -1.
         22    1    1    0    0    0  0.22073689626E+02  0.12006163085E+02 -0.15098037713E+02  0.29314611860E+02  0.00000000000E+00 0. -1.
</event>
<event>
 5    1  0.1111613E-009  0.9118800E+02  0.7818608E-02  0.1130116E+00
         25   -1    0    0    0    0  0.00000000000E+00  0.00000000000E+00  0.99999998245E-14  0.12500000000E+03  0.12500000000E+03 0.  0.
        -11    1    3    3    0    0 -0.29095110446E+01 -0.28004002720E+02  0.51204849197E+02  0.58434801313E+02  0.51100000000E-03 0. -1.
         23    2    1    0    0    0  0.80682644407E+01 -0.22574645243E+02  0.14842817846E+02  0.96803887847E+02  0.92606543838E+02 0.  0.
         11    1    3    3    0    0  0.10977775485E+02  0.54293574770E+01 -0.36362031351E+02  0.38369086534E+02  0.51100000000E-03 0.  1.
         22    1    1    0    0    0 -0.80682644407E+01  0.22574645243E+02 -0.14842817846E+02  0.28196112153E+02  0.00000000000E+00 0. -1.
</event>
<event>
 5    1  0.1111613E-009  0.9118800E+02  0.7818608E-02  0.1130116E+00
         25   -1    0    0    0    0  0.00000000000E+00  0.00000000000E+00  0.99999998245E-14  0.12500000000E+03  0.12500000000E+03 0.  0.
        -11    1    3    3    0    0 -0.46414090722E+01 -0.98140484658E+01 -0.45955795044E+02  0.47220687456E+02  0.51100000000E-03 0. -1.
         23    2    1    0    0    0 -0.28760008602E+02 -0.12861348807E+02 -0.76660497270E+01  0.92575923971E+02  0.86712057943E+02 0.  0.
         11    1    3    3    0    0 -0.24118599530E+02 -0.30473003415E+01  0.38289745317E+02  0.45355236515E+02  0.51100000000E-03 0.  1.
         22    1    1    0    0    0  0.28760008602E+02  0.12861348807E+02  0.76660497270E+01  0.32424076029E+02  0.00000000000E+00 0.  1.
</event>
<event>
 5    1  0.1111613E-009  0.9118800E+02  0.7818608E-02  0.1130116E+00
         25   -1    0    0    0    0  0.00000000000E+00  0.00000000000E+00  0.99999998245E-14  0.12500000000E+03  0.12500000000E+03 0.  0.
        -11    1    3    3    0    0 -0.35177440310E+02  0.72903634632E+01 -0.20137382326E+02  0.41183927367E+02  0.51100000000E-03 0. -1.
         23    2    1    0    0    0  0.17016305943E+02 -0.10906355829E+02 -0.20151890414E+02  0.96458767499E+02  0.92139523956E+02 0.  0.
         11    1    3    3    0    0  0.52193746252E+02 -0.18196719293E+02 -0.14508087576E-01  0.55274840132E+02  0.51100000000E-03 0.  1.
         22    1    1    0    0    0 -0.17016305943E+02  0.10906355829E+02  0.20151890414E+02  0.28541232501E+02  0.00000000000E+00 0.  1.
</event>
<event>
 5    1  0.1111613E-009  0.9118800E+02  0.7818608E-02  0.1130116E+00
         25   -1    0    0    0    0  0.00000000000E+00  0.00000000000E+00  0.99999998245E-14  0.12500000000E+03  0.12500000000E+03 0.  0.
        -11    1    3    3    0    0  0.40241415664E+02  0.47220953808E+02  0.30551647033E+01  0.62117018963E+02  0.51100000000E-03 0.  1.
         23    2    1    0    0    0  0.14770819534E+02  0.23973044826E+02  0.36435205658E+01  0.96607056686E+02  0.92340479593E+02 0.  0.
         11    1    3    3    0    0 -0.25470596130E+02 -0.23247908982E+02  0.58835586252E+00  0.34490037723E+02  0.51100000000E-03 0. -1.
         22    1    1    0    0    0 -0.14770819534E+02 -0.23973044826E+02 -0.36435205658E+01  0.28392943314E+02  0.00000000000E+00 0.  1.
</event>
<event>
 5    1  0.1111613E-009  0.9118800E+02  0.7818608E-02  0.1130116E+00
         25   -1    0    0    0    0  0.00000000000E+00  0.00000000000E+00  0.99999998245E-14  0.12500000000E+03  0.12500000000E+03 0.  0.
        -11    1    3    3    0    0 -0.46307907295E+02 -0.52251445024E+00  0.11795781577E+02  0.47789494271E+02  0.51100000000E-03 0.  1.
         23    2    1    0    0    0 -0.44712623703E+01 -0.23578873244E+02  0.16629197415E+02  0.95802642974E+02  0.91245058735E+02 0.  0.
         11    1    3    3    0    0  0.41836644925E+02 -0.23056358794E+02  0.48334158375E+01  0.48013148703E+02  0.51100000000E-03 0. -1.
         22    1    1    0    0    0  0.44712623703E+01  0.23578873244E+02 -0.16629197415E+02  0.29197357026E+02  0.00000000000E+00 0.  1.
</event>
<event>
 5    1  0.1111613E-009  0.9118800E+02  0.7818608E-02  0.1130116E+00
         25   -1    0    0    0    0  0.00000000000E+00  0.00000000000E+00  0.99999998245E-14  0.12500000000E+03  0.12500000000E+03 0.  0.
        -11    1    3    3    0    0 -0.14960513157E+02 -0.57516221730E+01 -0.45163835108E+02  0.47923586192E+02  0.51100000000E-03 0.  1.
         23    2    1    0    0    0  0.14269521363E+02 -0.18849227728E+02 -0.25663969808E+01  0.10121977672E+03  0.98386707332E+02 0.  0.
         11    1    3    3    0    0  0.29230034520E+02 -0.13097605555E+02  0.42597438128E+02  0.53296190526E+02  0.51100000000E-03 0. -1.
         22    1    1    0    0    0 -0.14269521363E+02  0.18849227728E+02  0.25663969808E+01  0.23780223282E+02  0.00000000000E+00 0. -1.
</event>
<event>
 5    1  0.1111613E-009  0.9118800E+02  0.7818608E-02  0.1130116E+00
         25   -1    0    0    0    0  0.00000000000E+00  0.00000000000E+00  0.99999998245E-14  0.12500000000E+03  0.12500000000E+03 0.  0.
        -11    1    3    3    0    0  0.13652411639E+02  0.33824076867E+02  0.37532728760E+02  0.52337006486E+02  0.51100000000E-03 0.  1.
         23    2    1    0    0    0 -0.15367141553E+01  0.29093493549E+02 -0.28368658699E+01  0.95728159176E+02  0.91142963491E+02 0.  0.
         11    1    3    3    0    0 -0.15189125794E+02 -0.47305833181E+01 -0.40369594630E+02  0.43391152690E+02  0.51100000000E-03 0. -1.
         22    1    1    0    0    0  0.15367141553E+01 -0.29093493549E+02  0.28368658699E+01  0.29271840824E+02  0.00000000000E+00 0.  1.
</event>
<event>
 5    1  0.1111613E-009  0.9118800E+02  0.7818608E-02  0.1130116E+00
         25   -1    0    0    0    0  0.00000000000E+00  0.00000000000E+00  0.99999998245E-14  0.12500000000E+03  0.12500000000E+03 0.  0.
        -11    1    3    3    0    0 -0.74008886223E+01  0.44793070923E+02 -0.88740410540E+01  0.46259495890E+02  0.51100000000E-03 0. -1.
         23    2    1    0    0    0  0.95695695837E+01  0.31980095213E+01  0.22018304086E+02  0.10077997437E+03  0.97826344056E+02 0.  0.
         11    1    3    3    0    0  0.16970458206E+02 -0.41595061401E+02  0.30892345140E+02  0.54520478476E+02  0.51100000000E-03 0.  1.
         22    1    1    0    0    0 -0.95695695837E+01 -0.31980095213E+01 -0.22018304086E+02  0.24220025635E+02  0.00000000000E+00 0.  1.
</event>
<event>
 5    1  0.1111613E-009  0.9118800E+02  0.7818608E-02  0.1130116E+00
         25   -1    0    0    0    0  0.00000000000E+00  0.00000000000E+00  0.99999998245E-14  0.12500000000E+03  0.12500000000E+03 0.  0.
        -11    1    3    3    0    0 -0.37178757824E+02  0.38981365573E+02 -0.12285589208E+02  0.55251629819E+02  0.51100000000E-03 0.  1.
         23    2    1    0    0    0 -0.26749258263E+01  0.22784009172E+02  0.10619397338E+02  0.99720801003E+02  0.96463465886E+02 0.  0.
         11    1    3    3    0    0  0.34503831997E+02 -0.16197356401E+02  0.22904986545E+02  0.44469171184E+02  0.51100000000E-03 0. -1.
         22    1    1    0    0    0  0.26749258263E+01 -0.22784009172E+02 -0.10619397338E+02  0.25279198997E+02  0.00000000000E+00 0. -1.
</event>
<event>
 5    1  0.1111613E-009  0.9118800E+02  0.7818608E-02  0.1130116E+00
         25   -1    0    0    0    0  0.00000000000E+00  0.00000000000E+00  0.99999998245E-14  0.12500000000E+03  0.12500000000E+03 0.  0.
        -11    1    3    3    0    0 -0.48889169147E-01 -0.79131350029E+01  0.61534243783E+02  0.62040980440E+02  0.51100000000E-03 0. -1.
         23    2    1    0    0    0 -0.37294326078E+00  0.15085031898E+01  0.30136746941E+02  0.94823217787E+02  0.89893294782E+02 0.  0.
         11    1    3    3    0    0 -0.32405409163E+00  0.94216381927E+01 -0.31397496842E+02  0.32782237347E+02  0.51100000000E-03 0.  1.
         22    1    1    0    0    0  0.37294326078E+00 -0.15085031898E+01 -0.30136746941E+02  0.30176782213E+02  0.00000000000E+00 0. -1.
</event>
<event>
 5    1  0.1111613E-009  0.9118800E+02  0.7818608E-02  0.1130116E+00
         25   -1    0    0    0    0  0.00000000000E+00  0.00000000000E+00  0.99999998245E-14  0.12500000000E+03  0.12500000000E+03 0.  0.
        -11    1    3    3    0    0 -0.14815029434E+02  0.29733919987E+01 -0.27446594553E+02  0.31331161963E+02  0.51100000000E-03 0.  1.
         23    2    1    0    0    0 -0.44019575820E+01  0.18474966305E+02  0.28746634919E+02  0.90546108642E+02  0.83734862276E+02 0.  0.
         11    1    3    3    0    0  0.10413071852E+02  0.15501574307E+02  0.56193229473E+02  0.59214946679E+02  0.51100000000E-03 0. -1.
         22    1    1    0    0    0  0.44019575820E+01 -0.18474966305E+02 -0.28746634919E+02  0.34453891358E+02  0.00000000000E+00 0. -1.
</event>
<event>
 5    1  0.1111613E-009  0.9118800E+02  0.7818608E-02  0.1130116E+00
         25   -1    0    0    0    0  0.00000000000E+00  0.00000000000E+00  0.99999998245E-14  0.12500000000E+03  0.12500000000E+03 0.  0.
        -11    1    3    3    0    0 -0.17242508803E+02  0.44041238798E+01  0.50908514118E+01  0.18509921267E+02  0.51100000000E-03 0. -1.
         23    2    1    0    0    0  0.42228565324E+02  0.30359815345E+01 -0.13042316885E+02  0.80699086433E+02  0.67451994842E+02 0.  0.
         11    1    3    3    0    0  0.59471074126E+02 -0.13681423453E+01 -0.18133168297E+02  0.62189165165E+02  0.51100000000E-03 0.  1.
         22    1    1    0    0    0 -0.42228565324E+02 -0.30359815345E+01  0.13042316885E+02  0.44300913567E+02  0.00000000000E+00 0.  1.
</event>
<event>
 5    1  0.1111613E-009  0.9118800E+02  0.7818608E-02  0.1130116E+00
         25   -1    0    0    0    0  0.00000000000E+00  0.00000000000E+00  0.99999998245E-14  0.12500000000E+03  0.12500000000E+03 0.  0.
        -11    1    3    3    0    0  0.91961053838E+01 -0.39719355459E+02 -0.41632184604E+02  0.58270355649E+02  0.51100000000E-03 0. -1.
         23    2    1    0    0    0 -0.91049439521E+01 -0.18087614387E+02 -0.29787360528E+02  0.88981273678E+02  0.81365339178E+02 0.  0.
         11    1    3    3    0    0 -0.18301049336E+02  0.21631741071E+02  0.11844824076E+02  0.30710918030E+02  0.51100000000E-03 0.  1.
         22    1    1    0    0    0  0.91049439521E+01  0.18087614387E+02  0.29787360528E+02  0.36018726322E+02  0.00000000000E+00 0. -1.
</event>
<event>
 5    1  0.1111613E-009  0.9118800E+02  0.7818608E-02  0.1130116E+00
         25   -1    0    0    0    0  0.00000000000E+00  0.00000000000E+00  0.99999998245E-14  0.12500000000E+03  0.12500000000E+03 0.  0.
        -11    1    3    3    0    0  0.39505795308E+02  0.10141167935E+02 -0.37473771130E+01  0.40958442176E+02  0.51100000000E-03 0.  1.
         23    2    1    0    0    0 -0.16254021559E+02  0.21279878702E+02  0.22124547204E+01  0.98131404757E+02  0.94381413368E+02 0.  0.
         11    1    3    3    0    0 -0.55759816867E+02  0.11138710767E+02  0.59598318334E+01  0.57172962581E+02  0.51100000000E-03 0. -1.
         22    1    1    0    0    0  0.16254021559E+02 -0.21279878702E+02 -0.22124547204E+01  0.26868595243E+02  0.00000000000E+00 0. -1.
</event>
<event>
 5    1  0.1111613E-009  0.9118800E+02  0.7818608E-02  0.1130116E+00
         25   -1    0    0    0    0  0.00000000000E+00  0.00000000000E+00  0.99999998245E-14  0.12500000000E+03  0.12500000000E+03 0.  0.
        -11    1    3    3    0    0 -0.53848940759E+02  0.13329527906E+02 -0.23221608542E+02  0.60138405688E+02  0.51100000000E-03 0.  1.
         23    2    1    0    0    0 -0.20512506060E+02  0.17427522267E+02 -0.89146598488E+01  0.96645942134E+02  0.92393103279E+02 0.  0.
         11    1    3    3    0    0  0.33336434699E+02  0.40979943610E+01  0.14306948694E+02  0.36507536447E+02  0.51100000000E-03 0. -1.
         22    1    1    0    0    0  0.20512506060E+02 -0.17427522267E+02  0.89146598488E+01  0.28354057866E+02  0.00000000000E+00 0.  1.
</event>
<event>
 5    1  0.1111613E-009  0.9118800E+02  0.7818608E-02  0.1130116E+00
         25   -1    0    0    0    0  0.00000000000E+00  0.00000000000E+00  0.99999998245E-14  0.12500000000E+03  0.12500000000E+03 0.  0.
        -11    1    3    3    0    0  0.24713394254E+02  0.26341965180E+02 -0.18308065236E+02  0.40494891505E+02  0.51100000000E-03 0.  1.
         23    2    1    0    0    0 -0.26688914772E+02  0.10562903476E+02 -0.53785721308E+01  0.95797223767E+02  0.91237634460E+02 0.  0.
         11    1    3    3    0    0 -0.51402309025E+02 -0.15779061704E+02  0.12929493105E+02  0.55302332262E+02  0.51100000000E-03 0. -1.
         22    1    1    0    0    0  0.26688914772E+02 -0.10562903476E+02  0.53785721308E+01  0.29202776233E+02  0.00000000000E+00 0. -1.
</event>
<event>
 5    1  0.1111613E-009  0.9118800E+02  0.7818608E-02  0.1130116E+00
         25   -1    0    0    0    0  0.00000000000E+00  0.00000000000E+00  0.99999998245E-14  0.12500000000E+03  0.12500000000E+03 0.  0.
        -11    1    3    3    0    0 -0.10513970007E+02  0.41886043301E+02  0.40912454376E+02  0.59487924086E+02  0.51100000000E-03 0. -1.
         23    2    1    0    0    0  0.81702338114E+01  0.23702620797E+02  0.19065311426E+02  0.93503126299E+02  0.88038523242E+02 0.  0.
         11    1    3    3    0    0  0.18684203818E+02 -0.18183422504E+02 -0.21847142950E+02  0.34015202213E+02  0.51100000000E-03 0.  1.
         22    1    1    0    0    0 -0.81702338114E+01 -0.23702620797E+02 -0.19065311426E+02  0.31496873701E+02  0.00000000000E+00 0. -1.
</event>
<event>
 5    1  0.1111613E-009  0.9118800E+02  0.7818608E-02  0.1130116E+00
         25   -1    0    0    0    0  0.00000000000E+00  0.00000000000E+00  0.99999998245E-14  0.12500000000E+03  0.12500000000E+03 0.  0.
        -11    1    3    3    0    0 -0.19604860032E+02  0.19920499474E+01  0.49937463134E+02  0.53684904995E+02  0.51100000000E-03 0.  1.
         23    2    1    0    0    0 -0.23076021755E+02  0.14609236334E+02  0.96674707627E+01  0.96027727786E+02  0.91552891524E+02 0.  0.
         11    1    3    3    0    0 -0.34711617234E+01  0.12617186387E+02 -0.40269992371E+02  0.42342822790E+02  0.51100000000E-03 0. -1.
         22    1    1    0    0    0  0.23076021755E+02 -0.14609236334E+02 -0.96674707627E+01  0.28972272214E+02  0.00000000000E+00 0. -1.
</event>
<event>
 5    1  0.1111613E-009  0.9118800E+02  0.7818608E-02  0.1130116E+00
         25   -1    0    0    0    0  0.00000000000E+00  0.00000000000E+00  0.99999998245E-14  0.12500000000E+03  0.12500000000E+03 0.  0.
        -11    1    3    3    0    0  0.41468069959E+02  0.40408335035E+02  0.88213795069E+01  0.58568345573E+02  0.51100000000E-03 0.  1.
         23    2    1    0    0    0  0.66596943455E+01  0.27370213792E+02  0.78777029110E+01  0.95750413081E+02  0.91173478985E+02 0.  0.
         11    1    3    3    0    0 -0.34808375614E+02 -0.13038121243E+02 -0.94367659589E+00  0.37182067508E+02  0.51100000000E-03 0. -1.
         22    1    1    0    0    0 -0.66596943455E+01 -0.27370213792E+02 -0.78777029110E+01  0.29249586919E+02  0.00000000000E+00 0.  1.
</event>
<event>
 5    1  0.1111613E-009  0.9118800E+02  0.7818608E-02  0.1130116E+00
         25   -1    0    0    0    0  0.00000000000E+00  0.00000000000E+00  0.99999998245E-14  0.12500000000E+03  0.12500000000E+03 0.  0.
        -11    1    3    3    0    0  0.49491228503E+02  0.33421663614E+02 -0.17145668665E+01  0.59743861921E+02  0.51100000000E-03 0.  1.
         23    2    1    0    0    0  0.24556510503E+02  0.10524652032E+02  0.11272604832E+02  0.96002377198E+02  0.91518273037E+02 0.  0.
         11    1    3    3    0    0 -0.24934718000E+02 -0.22897011582E+02  0.12987171698E+02  0.36258515277E+02  0.51100000000E-03 0. -1.
         22    1    1    0    0    0 -0.24556510503E+02 -0.10524652032E+02 -0.11272604832E+02  0.28997622802E+02  0.00000000000E+00 0.  1.
</event>
<event>
 5    1  0.1111613E-009  0.9118800E+02  0.7818608E-02  0.1130116E+00
         25   -1    0    0    0    0  0.00000000000E+00  0.00000000000E+00  0.99999998245E-14  0.12500000000E+03  0.12500000000E+03 0.  0.
        -11    1    3    3    0    0  0.44546990501E+02 -0.12720798337E+02 -0.29101635329E+02  0.54709763773E+02  0.51100000000E-03 0. -1.
         23    2    1    0    0    0  0.93279168480E+01  0.82112605082E+01 -0.26462705276E+02  0.95764583082E+02  0.91192904168E+02 0.  0.
         11    1    3    3    0    0 -0.35219073652E+02  0.20932058846E+02  0.26389300531E+01  0.41054819310E+02  0.51100000000E-03 0.  1.
         22    1    1    0    0    0 -0.93279168480E+01 -0.82112605082E+01  0.26462705276E+02  0.29235416918E+02  0.00000000000E+00 0. -1.
</event>
<event>
 5    1  0.1111613E-009  0.9118800E+02  0.7818608E-02  0.1130116E+00
         25   -1    0    0    0    0  0.00000000000E+00  0.00000000000E+00  0.99999998245E-14  0.12500000000E+03  0.12500000000E+03 0.  0.
        -11    1    3    3    0    0 -0.20105875977E+02  0.15593023619E+01 -0.25313383116E+02  0.32364255556E+02  0.51100000000E-03 0.  1.
         23    2    1    0    0    0  0.72536478412E+01  0.44233090712E+01  0.29827460500E+02  0.93986156800E+02  0.88721695205E+02 0.  0.
         11    1    3    3    0    0  0.27359523818E+02  0.28640067093E+01  0.55140843616E+02  0.61621901244E+02  0.51100000000E-03 0. -1.
         22    1    1    0    0    0 -0.72536478412E+01 -0.44233090712E+01 -0.29827460500E+02  0.31013843200E+02  0.00000000000E+00 0. -1.
</event>
<event>
 5    1  0.1111613E-009  0.9118800E+02  0.7818608E-02  0.1130116E+00
         25   -1    0    0    0    0  0.00000000000E+00  0.00000000000E+00  0.99999998245E-14  0.12500000000E+03  0.12500000000E+03 0.  0.
        -11    1    3    3    0    0  0.62167215621E+02 -0.13762064197E+01  0.51311527986E+01  0.62393792732E+02  0.51100000000E-03 0. -1.
         23    2    1    0    0    0  0.26709521983E+02 -0.15750759810E+01  0.45707396337E+01  0.97856472416E+02  0.94016584196E+02 0.  0.
         11    1    3    3    0    0 -0.35457693637E+02 -0.19886956129E+00 -0.56041316487E+00  0.35462679684E+02  0.51100000000E-03 0.  1.
         22    1    1    0    0    0 -0.26709521983E+02  0.15750759810E+01 -0.45707396337E+01  0.27143527584E+02  0.00000000000E+00 0. -1.
</event>
<event>
 5    1  0.1111613E-009  0.9118800E+02  0.7818608E-02  0.1130116E+00
         25   -1    0    0    0    0  0.00000000000E+00  0.00000000000E+00  0.99999998245E-14  0.12500000000E+03  0.12500000000E+03 0.  0.
        -11    1    3    3    0    0  0.46698735120E+02  0.21707226694E+02 -0.22393529655E+01  0.51546001344E+02  0.51100000000E-03 0. -1.
         23    2    1    0    0    0  0.73584482568E+01  0.17895245406E+02 -0.21972202610E+02  0.95722632351E+02  0.91135383292E+02 0.  0.
         11    1    3    3    0    0 -0.39340286863E+02 -0.38119812881E+01 -0.19732849645E+02  0.44176631008E+02  0.51100000000E-03 0.  1.
         22    1    1    0    0    0 -0.73584482568E+01 -0.17895245406E+02  0.21972202610E+02  0.29277367649E+02  0.00000000000E+00 0. -1.
</event>
<event>
 5    1  0.1111613E-009  0.9118800E+02  0.7818608E-02  0.1130116E+00
         25   -1    0    0    0    0  0.00000000000E+00  0.00000000000E+00  0.99999998245E-14  0.12500000000E+03  0.12500000000E+03 0.  0.
        -11    1    3    3    0    0  0.19447709731E+02 -0.24956276950E+02  0.41460160517E+02  0.52153370777E+02  0.51100000000E-03 0.  1.
         23    2    1    0    0    0  0.29507409424E+02  0.30893232538E+01  0.16312824512E+02  0.91142366110E+02  0.84620278465E+02 0.  0.
         11    1    3    3    0    0  0.10059699693E+02  0.28045600203E+02 -0.25147336006E+02  0.38988995334E+02  0.51100000000E-03 0. -1.
         22    1    1    0    0    0 -0.29507409424E+02 -0.30893232538E+01 -0.16312824512E+02  0.33857633890E+02  0.00000000000E+00 0.  1.
</event>
<event>
 5    1  0.1111613E-009  0.9118800E+02  0.7818608E-02  0.1130116E+00
         25   -1    0    0    0    0  0.00000000000E+00  0.00000000000E+00  0.99999998245E-14  0.12500000000E+03  0.12500000000E+03 0.  0.
        -11    1    3    3    0    0  0.25771067261E+02 -0.23940264139E+02 -0.32267388566E+02  0.47733306192E+02  0.51100000000E-03 0.  1.
         23    2    1    0    0    0  0.27351638275E+02  0.11285382478E+02 -0.17646367759E+00  0.95411098138E+02  0.90707080950E+02 0.  0.
         11    1    3    3    0    0  0.15805710137E+01  0.35225646618E+02  0.32090924889E+02  0.47677791946E+02  0.51100000000E-03 0. -1.
         22    1    1    0    0    0 -0.27351638275E+02 -0.11285382478E+02  0.17646367759E+00  0.29588901862E+02  0.00000000000E+00 0. -1.
</event>
<event>
 5    1  0.1111613E-009  0.9118800E+02  0.7818608E-02  0.1130116E+00
         25   -1    0    0    0    0  0.00000000000E+00  0.00000000000E+00  0.99999998245E-14  0.12500000000E+03  0.12500000000E+03 0.  0.
        -11    1    3    3    0    0 -0.10589420022E+02  0.32609136033E+02 -0.18454010627E+02  0.38936385010E+02  0.51100000000E-03 0.  1.
         23    2    1    0    0    0 -0.24271296142E+02 -0.13755720277E+02  0.10390746635E+02  0.95229489887E+02  0.90456467274E+02 0.  0.
         11    1    3    3    0    0 -0.13681876121E+02 -0.46364856310E+02  0.28844757263E+02  0.56293104876E+02  0.51100000000E-03 0. -1.
         22    1    1    0    0    0  0.24271296142E+02  0.13755720277E+02 -0.10390746635E+02  0.29770510113E+02  0.00000000000E+00 0. -1.
</event>
<event>
 5    1  0.1111613E-009  0.9118800E+02  0.7818608E-02  0.1130116E+00
         25   -1    0    0    0    0  0.00000000000E+00  0.00000000000E+00  0.99999998245E-14  0.12500000000E+03  0.12500000000E+03 0.  0.
        -11    1    3    3    0    0  0.30877584446E+02 -0.12791810892E+02 -0.22446356133E+02  0.40260334710E+02  0.51100000000E-03 0.  1.
         23    2    1    0    0    0  0.82802193569E+01  0.11532221841E+02  0.23858002767E+02  0.97237462847E+02  0.93189944263E+02 0.  0.
         11    1    3    3    0    0 -0.22597365089E+02  0.24324032733E+02  0.46304358899E+02  0.56977128136E+02  0.51100000000E-03 0. -1.
         22    1    1    0    0    0 -0.82802193569E+01 -0.11532221841E+02 -0.23858002767E+02  0.27762537153E+02  0.00000000000E+00 0. -1.
</event>
<event>
 5    1  0.1111613E-009  0.9118800E+02  0.7818608E-02  0.1130116E+00
         25   -1    0    0    0    0  0.00000000000E+00  0.00000000000E+00  0.99999998245E-14  0.12500000000E+03  0.12500000000E+03 0.  0.
        -11    1    3    3    0    0 -0.47121992127E+02  0.30802357059E+02  0.16627331215E+02  0.58700387443E+02  0.51100000000E-03 0. -1.
         23    2    1    0    0    0 -0.20478341691E+02  0.13869787033E+02  0.23359810674E+02  0.90979208923E+02  0.84378920536E+02 0.  0.
         11    1    3    3    0    0  0.26643650436E+02 -0.16932570026E+02  0.67324794588E+01  0.32278821480E+02  0.51100000000E-03 0.  1.
         22    1    1    0    0    0  0.20478341691E+02 -0.13869787033E+02 -0.23359810674E+02  0.34020791077E+02  0.00000000000E+00 0. -1.
</event>
<event>
 5    1  0.1111613E-009  0.9118800E+02  0.7818608E-02  0.1130116E+00
         25   -1    0    0    0    0  0.00000000000E+00  0.00000000000E+00  0.99999998245E-14  0.12500000000E+03  0.12500000000E+03 0.  0.
        -11    1    3    3    0    0  0.23350769090E+02 -0.98011498504E+01 -0.29227225847E+02  0.38672363342E+02  0.51100000000E-03 0.  1.
         23    2    1    0    0    0  0.59322329772E+01  0.28396584527E+02  0.81342169942E+01  0.94871560163E+02  0.89960491555E+02 0.  0.
         11    1    3    3    0    0 -0.17418536113E+02  0.38197734377E+02  0.37361442842E+02  0.56199196821E+02  0.51100000000E-03 0. -1.
         22    1    1    0    0    0 -0.59322329772E+01 -0.28396584527E+02 -0.81342169942E+01  0.30128439837E+02  0.00000000000E+00 0. -1.
</event>
<event>
 5    1  0.1111613E-009  0.9118800E+02  0.7818608E-02  0.1130116E+00
         25   -1    0    0    0    0  0.00000000000E+00  0.00000000000E+00  0.99999998245E-14  0.12500000000E+03  0.12500000000E+03 0.  0.
        -11    1    3    3    0    0  0.13326365338E+02  0.28207057468E+02 -0.16364458537E+02  0.35228193363E+02  0.51100000000E-03 0.  1.
         23    2    1    0    0    0  0.22432964473E+02 -0.20828726401E+02  0.11429634121E+02  0.92324163749E+02  0.86348369627E+02 0.  0.
         11    1    3    3    0    0  0.91065991355E+01 -0.49035783868E+02  0.27794092659E+02  0.57095970387E+02  0.51100000000E-03 0. -1.
         22    1    1    0    0    0 -0.22432964473E+02  0.20828726401E+02 -0.11429634121E+02  0.32675836251E+02  0.00000000000E+00 0. -1.
</event>
<event>
 5    1  0.1111613E-009  0.9118800E+02  0.7818608E-02  0.1130116E+00
         25   -1    0    0    0    0  0.00000000000E+00  0.00000000000E+00  0.99999998245E-14  0.12500000000E+03  0.12500000000E+03 0.  0.
        -11    1    3    3    0    0  0.33993144661E+02  0.19757328026E+02 -0.17258006599E+01  0.39355613104E+02  0.51100000000E-03 0.  1.
         23    2    1    0    0    0 -0.10460348511E+00 -0.25795784847E+02  0.97870337399E+01  0.97409793636E+02  0.93420813575E+02 0.  0.
         11    1    3    3    0    0 -0.34097748146E+02 -0.45553112873E+02  0.11512834400E+02  0.58054180532E+02  0.51100000000E-03 0. -1.
         22    1    1    0    0    0  0.10460348511E+00  0.25795784847E+02 -0.97870337399E+01  0.27590206364E+02  0.00000000000E+00 0. -1.
</event>
<event>
 5    1  0.1111613E-009  0.9118800E+02  0.7818608E-02  0.1130116E+00
         25   -1    0    0    0    0  0.00000000000E+00  0.00000000000E+00  0.99999998245E-14  0.12500000000E+03  0.12500000000E+03 0.  0.
        -11    1    3    3    0    0  0.45955892040E+01  0.30866005009E+02 -0.14062752678E+02  0.34228507395E+02  0.51100000000E-03 0. -1.
         23    2    1    0    0    0 -0.42483039118E+01 -0.28771125574E+02 -0.10971859270E+01  0.95896227566E+02  0.91373173807E+02 0.  0.
         11    1    3    3    0    0 -0.88438931158E+01 -0.59637130583E+02  0.12965566751E+02  0.61667720171E+02  0.51100000000E-03 0.  1.
         22    1    1    0    0    0  0.42483039118E+01  0.28771125574E+02  0.10971859270E+01  0.29103772434E+02  0.00000000000E+00 0.  1.
</event>
<event>
 5    1  0.1111613E-009  0.9118800E+02  0.7818608E-02  0.1130116E+00
         25   -1    0    0    0    0  0.00000000000E+00  0.00000000000E+00  0.99999998245E-14  0.12500000000E+03  0.12500000000E+03 0.  0.
        -11    1    3    3    0    0  0.42469831919E+02  0.32659178921E+02 -0.18829290770E+02  0.56787769653E+02  0.51100000000E-03 0.  1.
         23    2    1    0    0    0  0.10536655434E+02  0.28733031590E+02  0.63199610315E+00  0.94389419621E+02  0.89288044581E+02 0.  0.
         11    1    3    3    0    0 -0.31933176485E+02 -0.39261473305E+01  0.19461286873E+02  0.37601649968E+02  0.51100000000E-03 0. -1.
         22    1    1    0    0    0 -0.10536655434E+02 -0.28733031590E+02 -0.63199610315E+00  0.30610580379E+02  0.00000000000E+00 0.  1.
</event>
<event>
 5    1  0.1111613E-009  0.9118800E+02  0.7818608E-02  0.1130116E+00
         25   -1    0    0    0    0  0.00000000000E+00  0.00000000000E+00  0.99999998245E-14  0.12500000000E+03  0.12500000000E+03 0.  0.
        -11    1    3    3    0    0  0.52183285744E+01 -0.47414053182E+02  0.28331710523E+02  0.55479809063E+02  0.51100000000E-03 0.  1.
         23    2    1    0    0    0 -0.17314066782E+02 -0.14432374829E+02  0.16256825021E+02  0.97208729581E+02  0.93151395026E+02 0.  0.
         11    1    3    3    0    0 -0.22532395356E+02  0.32981678353E+02 -0.12074885502E+02  0.41728920518E+02  0.51100000000E-03 0. -1.
         22    1    1    0    0    0  0.17314066782E+02  0.14432374829E+02 -0.16256825021E+02  0.27791270419E+02  0.00000000000E+00 0. -1.
</event>
<event>
 5    1  0.1111613E-009  0.9118800E+02  0.7818608E-02  0.1130116E+00
         25   -1    0    0    0    0  0.00000000000E+00  0.00000000000E+00  0.99999998245E-14  0.12500000000E+03  0.12500000000E+03 0.  0.
        -11    1    3    3    0    0  0.68922996957E+01 -0.16090247741E+02  0.36532286109E+02  0.40509354427E+02  0.51100000000E-03 0.  1.
         23    2    1    0    0    0  0.18855989396E+02 -0.15110157742E+02 -0.17054609940E+02  0.95424251095E+02  0.90725204733E+02 0.  0.
         11    1    3    3    0    0  0.11963689700E+02  0.98008999877E+00 -0.53586896049E+02  0.54914896668E+02  0.51100000000E-03 0. -1.
         22    1    1    0    0    0 -0.18855989396E+02  0.15110157742E+02  0.17054609940E+02  0.29575748905E+02  0.00000000000E+00 0. -1.
</event>
<event>
 5    1  0.1111613E-009  0.9118800E+02  0.7818608E-02  0.1130116E+00
         25   -1    0    0    0    0  0.00000000000E+00  0.00000000000E+00  0.99999998245E-14  0.12500000000E+03  0.12500000000E+03 0.  0.
        -11    1    3    3    0    0  0.21947042165E+02 -0.20987579480E+02  0.35446117420E+02  0.46675243895E+02  0.51100000000E-03 0. -1.
         23    2    1    0    0    0  0.20213735548E+02  0.19687761662E+02  0.83749776016E+01  0.95566289498E+02  0.90920692774E+02 0.  0.
         11    1    3    3    0    0 -0.17333066164E+01  0.40675341142E+02 -0.27071139819E+02  0.48891045603E+02  0.51100000000E-03 0.  1.
         22    1    1    0    0    0 -0.20213735548E+02 -0.19687761662E+02 -0.83749776016E+01  0.29433710502E+02  0.00000000000E+00 0. -1.
</event>
<event>
 5    1  0.1111613E-009  0.9118800E+02  0.7818608E-02  0.1130116E+00
         25   -1    0    0    0    0  0.00000000000E+00  0.00000000000E+00  0.99999998245E-14  0.12500000000E+03  0.12500000000E+03 0.  0.
        -11    1    3    3    0    0  0.20886561784E+02  0.24877766543E+02 -0.29750976214E+02  0.44048522305E+02  0.51100000000E-03 0. -1.
         23    2    1    0    0    0  0.27635862718E+02 -0.85679992468E+01  0.80466095004E+01  0.94968359290E+02  0.90094893432E+02 0.  0.
         11    1    3    3    0    0  0.67493009348E+01 -0.33445765790E+02  0.37797585715E+02  0.50919836984E+02  0.51100000000E-03 0.  1.
         22    1    1    0    0    0 -0.27635862718E+02  0.85679992468E+01 -0.80466095004E+01  0.30031640710E+02  0.00000000000E+00 0.  1.
</event>
<event>
 5    1  0.1111613E-009  0.9118800E+02  0.7818608E-02  0.1130116E+00
         25   -1    0    0    0    0  0.00000000000E+00  0.00000000000E+00  0.99999998245E-14  0.12500000000E+03  0.12500000000E+03 0.  0.
        -11    1    3    3    0    0  0.32988715718E+02  0.10892731809E+02 -0.51554784531E+01  0.35121018342E+02  0.51100000000E-03 0.  1.
         23    2    1    0    0    0 -0.11538079465E+02 -0.26730790007E+02 -0.11367557552E+02  0.93744859994E+02  0.88381078283E+02 0.  0.
         11    1    3    3    0    0 -0.44526795183E+02 -0.37623521815E+02 -0.62120790986E+01  0.58623841652E+02  0.51100000000E-03 0. -1.
         22    1    1    0    0    0  0.11538079465E+02  0.26730790007E+02  0.11367557552E+02  0.31255140006E+02  0.00000000000E+00 0. -1.
</event>
<event>
 5    1  0.1111613E-009  0.9118800E+02  0.7818608E-02  0.1130116E+00
         25   -1    0    0    0    0  0.00000000000E+00  0.00000000000E+00  0.99999998245E-14  0.12500000000E+03  0.12500000000E+03 0.  0.
        -11    1    3    3    0    0 -0.17024756621E+02  0.26492024724E+02  0.28244551554E+02  0.42301588679E+02  0.51100000000E-03 0.  1.
         23    2    1    0    0    0  0.25021545740E+02  0.10343074935E+02  0.26099648903E+02  0.87393502912E+02  0.78888375113E+02 0.  0.
         11    1    3    3    0    0  0.42046302361E+02 -0.16148949789E+02 -0.21449026507E+01  0.45091914233E+02  0.51100000000E-03 0. -1.
         22    1    1    0    0    0 -0.25021545740E+02 -0.10343074935E+02 -0.26099648903E+02  0.37606497088E+02  0.00000000000E+00 0. -1.
</event>
<event>
 5    1  0.1111613E-009  0.9118800E+02  0.7818608E-02  0.1130116E+00
         25   -1    0    0    0    0  0.00000000000E+00  0.00000000000E+00  0.99999998245E-14  0.12500000000E+03  0.12500000000E+03 0.  0.
        -11    1    3    3    0    0  0.19564138509E+02  0.40933792788E+02  0.38101411375E+02  0.59245661923E+02  0.51100000000E-03 0. -1.
         23    2    1    0    0    0  0.18470140166E+02  0.93630237979E+01  0.22303852880E+02  0.94565247731E+02  0.89533859142E+02 0.  0.
         11    1    3    3    0    0 -0.10939983427E+01 -0.31570768990E+02 -0.15797558496E+02  0.35319585809E+02  0.51100000000E-03 0.  1.
         22    1    1    0    0    0 -0.18470140166E+02 -0.93630237979E+01 -0.22303852880E+02  0.30434752269E+02  0.00000000000E+00 0. -1.
</event>
<event>
 5    1  0.1111613E-009  0.9118800E+02  0.7818608E-02  0.1130116E+00
         25   -1    0    0    0    0  0.00000000000E+00  0.00000000000E+00  0.99999998245E-14  0.12500000000E+03  0.12500000000E+03 0.  0.
        -11    1    3    3    0    0  0.33311051737E+02 -0.28660494707E+02 -0.13736633252E+01  0.43965180267E+02  0.51100000000E-03 0. -1.
         23    2    1    0    0    0 -0.10583511176E+02 -0.16777705798E+02  0.22234593502E+02  0.95202696954E+02  0.90419435071E+02 0.  0.
         11    1    3    3    0    0 -0.43894562913E+02  0.11882788910E+02  0.23608256827E+02  0.51237516687E+02  0.51100000000E-03 0.  1.
         22    1    1    0    0    0  0.10583511176E+02  0.16777705798E+02 -0.22234593502E+02  0.29797303046E+02  0.00000000000E+00 0. -1.
</event>
<event>
 5    1  0.1111613E-009  0.9118800E+02  0.7818608E-02  0.1130116E+00
         25   -1    0    0    0    0  0.00000000000E+00  0.00000000000E+00  0.99999998245E-14  0.12500000000E+03  0.12500000000E+03 0.  0.
        -11    1    3    3    0    0  0.37626134718E+02  0.13754496116E+02 -0.29776415246E+02  0.49915399251E+02  0.51100000000E-03 0.  1.
         23    2    1    0    0    0  0.22956802348E+02 -0.18530053377E+02 -0.11730509460E+01  0.95474524547E+02  0.90794444415E+02 0.  0.
         11    1    3    3    0    0 -0.14669332370E+02 -0.32284549493E+02  0.28603364300E+02  0.45559125296E+02  0.51100000000E-03 0. -1.
         22    1    1    0    0    0 -0.22956802348E+02  0.18530053377E+02  0.11730509460E+01  0.29525475453E+02  0.00000000000E+00 0.  1.
</event>
<event>
 5    1  0.1111613E-009  0.9118800E+02  0.7818608E-02  0.1130116E+00
         25   -1    0    0    0    0  0.00000000000E+00  0.00000000000E+00  0.99999998245E-14  0.12500000000E+03  0.12500000000E+03 0.  0.
        -11    1    3    3    0    0 -0.58705495095E+01  0.37389590669E+01 -0.20114598873E+02  0.21284742294E+02  0.51100000000E-03 0.  1.
         23    2    1    0    0    0 -0.11894098170E+02 -0.43527003587E+02  0.11459393739E+02  0.78444792800E+02  0.63136346109E+02 0.  0.
         11    1    3    3    0    0 -0.60235486603E+01 -0.47265962654E+02  0.31573992612E+02  0.57160050506E+02  0.51100000000E-03 0. -1.
         22    1    1    0    0    0  0.11894098170E+02  0.43527003587E+02 -0.11459393739E+02  0.46555207200E+02  0.00000000000E+00 0. -1.
</event>
<event>
 5    1  0.1111613E-009  0.9118800E+02  0.7818608E-02  0.1130116E+00
         25   -1    0    0    0    0  0.00000000000E+00  0.00000000000E+00  0.99999998245E-14  0.12500000000E+03  0.12500000000E+03 0.  0.
        -11    1    3    3    0    0  0.71705119768E+01 -0.33218027799E+02  0.33031782092E+02  0.47391478573E+02  0.51100000000E-03 0. -1.
         23    2    1    0    0    0 -0.10637462683E+02 -0.20844543398E+02 -0.12967245388E+02  0.98245560092E+02  0.94532481312E+02 0.  0.
         11    1    3    3    0    0 -0.17807974660E+02  0.12373484401E+02 -0.45999027481E+02  0.50854081519E+02  0.51100000000E-03 0.  1.
         22    1    1    0    0    0  0.10637462683E+02  0.20844543398E+02  0.12967245388E+02  0.26754439908E+02  0.00000000000E+00 0.  1.
</event>
<event>
 5    1  0.1111613E-009  0.9118800E+02  0.7818608E-02  0.1130116E+00
         25   -1    0    0    0    0  0.00000000000E+00  0.00000000000E+00  0.99999998245E-14  0.12500000000E+03  0.12500000000E+03 0.  0.
        -11    1    3    3    0    0 -0.28295194456E+02 -0.56347141391E+01 -0.13438884646E+02  0.31827215610E+02  0.51100000000E-03 0. -1.
         23    2    1    0    0    0  0.25870692810E+02  0.14752190233E+02  0.89819330869E+01  0.93893811144E+02  0.88591493870E+02 0.  0.
         11    1    3    3    0    0  0.54165887266E+02  0.20386904372E+02  0.22420817733E+02  0.62066595534E+02  0.51100000000E-03 0.  1.
         22    1    1    0    0    0 -0.25870692810E+02 -0.14752190233E+02 -0.89819330869E+01  0.31106188856E+02  0.00000000000E+00 0.  1.
</event>
<event>
 5    1  0.1111613E-009  0.9118800E+02  0.7818608E-02  0.1130116E+00
         25   -1    0    0    0    0  0.00000000000E+00  0.00000000000E+00  0.99999998245E-14  0.12500000000E+03  0.12500000000E+03 0.  0.
        -11    1    3    3    0    0 -0.27962265421E+02  0.52555920127E+01  0.22631402819E+02  0.36355053689E+02  0.51100000000E-03 0. -1.
         23    2    1    0    0    0  0.18816457111E+02  0.27963444843E+02  0.92938496281E+01  0.90037320660E+02  0.82971863696E+02 0.  0.
         11    1    3    3    0    0  0.46778722531E+02  0.22707852830E+02 -0.13337553191E+02  0.53682266972E+02  0.51100000000E-03 0.  1.
         22    1    1    0    0    0 -0.18816457111E+02 -0.27963444843E+02 -0.92938496281E+01  0.34962679340E+02  0.00000000000E+00 0.  1.
</event>
<event>
 5    1  0.1111613E-009  0.9118800E+02  0.7818608E-02  0.1130116E+00
         25   -1    0    0    0    0  0.00000000000E+00  0.00000000000E+00  0.99999998245E-14  0.12500000000E+03  0.12500000000E+03 0.  0.
        -11    1    3    3    0    0  0.37616083991E+02 -0.17915096822E+02  0.49571714777E+00  0.41667327785E+02  0.51100000000E-03 0.  1.
         23    2    1    0    0    0  0.29330711664E+01  0.19006116177E+02 -0.20847957703E+02  0.96636772064E+02  0.92380696121E+02 0.  0.
         11    1    3    3    0    0 -0.34683012825E+02  0.36921212999E+02 -0.21343674851E+02  0.54969444279E+02  0.51100000000E-03 0. -1.
         22    1    1    0    0    0 -0.29330711664E+01 -0.19006116177E+02  0.20847957703E+02  0.28363227936E+02  0.00000000000E+00 0. -1.
</event>
<event>
 5    1  0.1111613E-009  0.9118800E+02  0.7818608E-02  0.1130116E+00
         25   -1    0    0    0    0  0.00000000000E+00  0.00000000000E+00  0.99999998245E-14  0.12500000000E+03  0.12500000000E+03 0.  0.
        -11    1    3    3    0    0  0.45388457737E+02  0.14267940849E+01 -0.11527604318E+02  0.46851184602E+02  0.51100000000E-03 0.  1.
         23    2    1    0    0    0  0.80685854721E+01  0.23221673628E+02  0.13663079635E+02  0.96874781019E+02  0.92702185814E+02 0.  0.
         11    1    3    3    0    0 -0.37319872264E+02  0.21794879543E+02  0.25190683953E+02  0.50023596416E+02  0.51100000000E-03 0. -1.
         22    1    1    0    0    0 -0.80685854721E+01 -0.23221673628E+02 -0.13663079635E+02  0.28125218981E+02  0.00000000000E+00 0. -1.
</event>
<event>
 5    1  0.1111613E-009  0.9118800E+02  0.7818608E-02  0.1130116E+00
         25   -1    0    0    0    0  0.00000000000E+00  0.00000000000E+00  0.99999998245E-14  0.12500000000E+03  0.12500000000E+03 0.  0.
        -11    1    3    3    0    0 -0.16224484036E+01  0.52687490342E+02  0.25589866254E+02  0.58595607621E+02  0.51100000000E-03 0.  1.
         23    2    1    0    0    0  0.13166037671E+02  0.23579489007E+02  0.19199929977E+02  0.91864306844E+02  0.85680083514E+02 0.  0.
         11    1    3    3    0    0  0.14788486075E+02 -0.29108001335E+02 -0.63899362765E+01  0.33268699223E+02  0.51100000000E-03 0. -1.
         22    1    1    0    0    0 -0.13166037671E+02 -0.23579489007E+02 -0.19199929977E+02  0.33135693156E+02  0.00000000000E+00 0.  1.
</event>
<event>
 5    1  0.1111613E-009  0.9118800E+02  0.7818608E-02  0.1130116E+00
         25   -1    0    0    0    0  0.00000000000E+00  0.00000000000E+00  0.99999998245E-14  0.12500000000E+03  0.12500000000E+03 0.  0.
        -11    1    3    3    0    0  0.20040781202E+02 -0.32846259641E+02  0.30619368533E+02  0.49173726859E+02  0.51100000000E-03 0.  1.
         23    2    1    0    0    0  0.23176253109E+02 -0.12569892798E+02 -0.11662124746E+02  0.96170396002E+02  0.91747474082E+02 0.  0.
         11    1    3    3    0    0  0.31354719067E+01  0.20276366843E+02 -0.42281493278E+02  0.46996669143E+02  0.51100000000E-03 0. -1.
         22    1    1    0    0    0 -0.23176253109E+02  0.12569892798E+02  0.11662124746E+02  0.28829603998E+02  0.00000000000E+00 0. -1.
</event>
<event>
 5    1  0.1111613E-009  0.9118800E+02  0.7818608E-02  0.1130116E+00
         25   -1    0    0    0    0  0.00000000000E+00  0.00000000000E+00  0.99999998245E-14  0.12500000000E+03  0.12500000000E+03 0.  0.
        -11    1    3    3    0    0  0.19616285829E+02  0.36075858376E+02 -0.22851664822E+01  0.41127706153E+02  0.51100000000E-03 0. -1.
         23    2    1    0    0    0  0.17573101858E+02 -0.19144600403E+02 -0.10458847539E+02  0.96987197118E+02  0.92853644406E+02 0.  0.
         11    1    3    3    0    0 -0.20431839717E+01 -0.55220458779E+02 -0.81736810569E+01  0.55859490964E+02  0.51100000000E-03 0.  1.
         22    1    1    0    0    0 -0.17573101858E+02  0.19144600403E+02  0.10458847539E+02  0.28012802882E+02  0.00000000000E+00 0.  1.
</event>
<event>
 5    1  0.1111613E-009  0.9118800E+02  0.7818608E-02  0.1130116E+00
         25   -1    0    0    0    0  0.00000000000E+00  0.00000000000E+00  0.99999998245E-14  0.12500000000E+03  0.12500000000E+03 0.  0.
        -11    1    3    3    0    0 -0.40187882282E+01  0.31922727223E+02  0.52663771037E+02  0.61714535989E+02  0.51100000000E-03 0. -1.
         23    2    1    0    0    0 -0.14917645256E+01  0.22406386392E+02  0.23498877957E+02  0.92496634362E+02  0.86597682362E+02 0.  0.
         11    1    3    3    0    0  0.25270237027E+01 -0.95163408315E+01 -0.29164893080E+02  0.30782098373E+02  0.51100000000E-03 0.  1.
         22    1    1    0    0    0  0.14917645256E+01 -0.22406386392E+02 -0.23498877957E+02  0.32503365638E+02  0.00000000000E+00 0. -1.
</event>
<event>
 5    1  0.1111613E-009  0.9118800E+02  0.7818608E-02  0.1130116E+00
         25   -1    0    0    0    0  0.00000000000E+00  0.00000000000E+00  0.99999998245E-14  0.12500000000E+03  0.12500000000E+03 0.  0.
        -11    1    3    3    0    0  0.20571993007E+02 -0.43027927136E+02 -0.18471598587E+02  0.51144983767E+02  0.51100000000E-03 0. -1.
         23    2    1    0    0    0 -0.10785339356E+02 -0.12797579248E+02 -0.24720123775E+02  0.95147259773E+02  0.90342763646E+02 0.  0.
         11    1    3    3    0    0 -0.31357332363E+02  0.30230347888E+02 -0.62485251878E+01  0.44002276005E+02  0.51100000000E-03 0.  1.
         22    1    1    0    0    0  0.10785339356E+02  0.12797579248E+02  0.24720123775E+02  0.29852740227E+02  0.00000000000E+00 0. -1.
</event>
<event>
 5    1  0.1111613E-009  0.9118800E+02  0.7818608E-02  0.1130116E+00
         25   -1    0    0    0    0  0.00000000000E+00  0.00000000000E+00  0.99999998245E-14  0.12500000000E+03  0.12500000000E+03 0.  0.
        -11    1    3    3    0    0  0.96033158343E+01  0.14769051749E+00  0.48219486455E+02  0.49166699724E+02  0.51100000000E-03 0. -1.
         23    2    1    0    0    0 -0.30115186710E+01 -0.26518953705E+02  0.12398433968E+02  0.95571352135E+02  0.90927652745E+02 0.  0.
         11    1    3    3    0    0 -0.12614834505E+02 -0.26666644223E+02 -0.35821052488E+02  0.46404652410E+02  0.51100000000E-03 0.  1.
         22    1    1    0    0    0  0.30115186710E+01  0.26518953705E+02 -0.12398433968E+02  0.29428647865E+02  0.00000000000E+00 0.  1.
</event>
<event>
 5    1  0.1111613E-009  0.9118800E+02  0.7818608E-02  0.1130116E+00
         25   -1    0    0    0    0  0.00000000000E+00  0.00000000000E+00  0.99999998245E-14  0.12500000000E+03  0.12500000000E+03 0.  0.
        -11    1    3    3    0    0  0.11471976776E+02  0.77595455367E+01  0.40576532487E+02  0.42875071860E+02  0.51100000000E-03 0.  1.
         23    2    1    0    0    0  0.96307254180E+01 -0.26767639431E+02 -0.47620359801E+00  0.96548564840E+02  0.92261266033E+02 0.  0.
         11    1    3    3    0    0 -0.18412513578E+01 -0.34527184968E+02 -0.41052736085E+02  0.53673492980E+02  0.51100000000E-03 0. -1.
         22    1    1    0    0    0 -0.96307254180E+01  0.26767639431E+02  0.47620359801E+00  0.28451435160E+02  0.00000000000E+00 0. -1.
</event>
<event>
 5    1  0.1111613E-009  0.9118800E+02  0.7818608E-02  0.1130116E+00
         25   -1    0    0    0    0  0.00000000000E+00  0.00000000000E+00  0.99999998245E-14  0.12500000000E+03  0.12500000000E+03 0.  0.
        -11    1    3    3    0    0  0.49926149163E+02 -0.13278114688E+02  0.23666931163E+02  0.56824751041E+02  0.51100000000E-03 0.  1.
         23    2    1    0    0    0  0.23919616800E+02  0.12635541912E+02  0.12508380078E+02  0.95196232463E+02  0.90410497818E+02 0.  0.
         11    1    3    3    0    0 -0.26006532363E+02  0.25913656600E+02 -0.11158551085E+02  0.38371481422E+02  0.51100000000E-03 0. -1.
         22    1    1    0    0    0 -0.23919616800E+02 -0.12635541912E+02 -0.12508380078E+02  0.29803767537E+02  0.00000000000E+00 0.  1.
</event>
<event>
 5    1  0.1111613E-009  0.9118800E+02  0.7818608E-02  0.1130116E+00
         25   -1    0    0    0    0  0.00000000000E+00  0.00000000000E+00  0.99999998245E-14  0.12500000000E+03  0.12500000000E+03 0.  0.
        -11    1    3    3    0    0  0.25078252795E+02  0.12468369832E+02  0.26742755457E+02  0.38724074930E+02  0.51100000000E-03 0. -1.
         23    2    1    0    0    0  0.10997831269E+02  0.29207613260E+01 -0.27322480284E+02  0.95402684780E+02  0.90695486078E+02 0.  0.
         11    1    3    3    0    0 -0.14080421526E+02 -0.95476085061E+01 -0.54065235741E+02  0.56678609850E+02  0.51100000000E-03 0.  1.
         22    1    1    0    0    0 -0.10997831269E+02 -0.29207613260E+01  0.27322480284E+02  0.29597315220E+02  0.00000000000E+00 0.  1.
</event>
<event>
 5    1  0.1111613E-009  0.9118800E+02  0.7818608E-02  0.1130116E+00
         25   -1    0    0    0    0  0.00000000000E+00  0.00000000000E+00  0.99999998245E-14  0.12500000000E+03  0.12500000000E+03 0.  0.
        -11    1    3    3    0    0 -0.52949963107E+02  0.22584453527E+02  0.31630142453E+01  0.57652066690E+02  0.51100000000E-03 0. -1.
         23    2    1    0    0    0 -0.24121215625E+02 -0.18024711075E+01  0.14148304481E+02  0.96977572107E+02  0.92840686268E+02 0.  0.
         11    1    3    3    0    0  0.28828747482E+02 -0.24386924635E+02  0.10985290235E+02  0.39325505418E+02  0.51100000000E-03 0.  1.
         22    1    1    0    0    0  0.24121215625E+02  0.18024711075E+01 -0.14148304481E+02  0.28022427893E+02  0.00000000000E+00 0. -1.
</event>
<event>
 5    1  0.1111613E-009  0.9118800E+02  0.7818608E-02  0.1130116E+00
         25   -1    0    0    0    0  0.00000000000E+00  0.00000000000E+00  0.99999998245E-14  0.12500000000E+03  0.12500000000E+03 0.  0.
        -11    1    3    3    0    0 -0.90967753750E+01  0.91011136779E+01 -0.59161463949E+02  0.60544697614E+02  0.51100000000E-03 0. -1.
         23    2    1    0    0    0 -0.14342669588E+02  0.73807990503E+01 -0.24345296147E+02  0.95795859711E+02  0.91235765617E+02 0.  0.
         11    1    3    3    0    0 -0.52458942132E+01 -0.17203146276E+01  0.34816167802E+02  0.35251162097E+02  0.51100000000E-03 0.  1.
         22    1    1    0    0    0  0.14342669588E+02 -0.73807990503E+01  0.24345296147E+02  0.29204140289E+02  0.00000000000E+00 0. -1.
</event>
<event>
 5    1  0.1111613E-009  0.9118800E+02  0.7818608E-02  0.1130116E+00
         25   -1    0    0    0    0  0.00000000000E+00  0.00000000000E+00  0.99999998245E-14  0.12500000000E+03  0.12500000000E+03 0.  0.
        -11    1    3    3    0    0  0.27672676391E+02 -0.78022019373E+01 -0.21143905598E+02  0.35689159669E+02  0.51100000000E-03 0.  1.
         23    2    1    0    0    0 -0.23618540597E+02  0.16723423503E+02 -0.87636201795E+00  0.96046997324E+02  0.91579197042E+02 0.  0.
         11    1    3    3    0    0 -0.51291216988E+02  0.24525625440E+02  0.20267543580E+02  0.60357837655E+02  0.51100000000E-03 0. -1.
         22    1    1    0    0    0  0.23618540597E+02 -0.16723423503E+02  0.87636201795E+00  0.28953002676E+02  0.00000000000E+00 0. -1.
</event>
<event>
 5    1  0.1111613E-009  0.9118800E+02  0.7818608E-02  0.1130116E+00
         25   -1    0    0    0    0  0.00000000000E+00  0.00000000000E+00  0.99999998245E-14  0.12500000000E+03  0.12500000000E+03 0.  0.
        -11    1    3    3    0    0 -0.24767377163E+02 -0.21652659814E+02 -0.49850666635E+02  0.59727293700E+02  0.51100000000E-03 0.  1.
         23    2    1    0    0    0 -0.83696484659E+01  0.17147136257E+01 -0.28139190612E+02  0.95592427734E+02  0.90956621164E+02 0.  0.
         11    1    3    3    0    0  0.16397728697E+02  0.23367373440E+02  0.21711476023E+02  0.35865134034E+02  0.51100000000E-03 0. -1.
         22    1    1    0    0    0  0.83696484659E+01 -0.17147136257E+01  0.28139190612E+02  0.29407572266E+02  0.00000000000E+00 0.  1.
</event>
<event>
 5    1  0.1111613E-009  0.9118800E+02  0.7818608E-02  0.1130116E+00
         25   -1    0    0    0    0  0.00000000000E+00  0.00000000000E+00  0.99999998245E-14  0.12500000000E+03  0.12500000000E+03 0.  0.
        -11    1    3    3    0    0 -0.19111143589E+02 -0.31998820182E+01 -0.24017450969E+02  0.30859569108E+02  0.51100000000E-03 0. -1.
         23    2    1    0    0    0  0.18583191017E+02  0.24237835205E+02  0.14364410173E+02  0.91248793749E+02  0.84777346250E+02 0.  0.
         11    1    3    3    0    0  0.37694334606E+02  0.27437717223E+02  0.38381861142E+02  0.60389224641E+02  0.51100000000E-03 0.  1.
         22    1    1    0    0    0 -0.18583191017E+02 -0.24237835205E+02 -0.14364410173E+02  0.33751206251E+02  0.00000000000E+00 0.  1.
</event>
<event>
 5    1  0.1111613E-009  0.9118800E+02  0.7818608E-02  0.1130116E+00
         25   -1    0    0    0    0  0.00000000000E+00  0.00000000000E+00  0.99999998245E-14  0.12500000000E+03  0.12500000000E+03 0.  0.
        -11    1    3    3    0    0  0.34050651824E+02  0.29267525553E+02 -0.72837665469E+01  0.45487231142E+02  0.51100000000E-03 0.  1.
         23    2    1    0    0    0 -0.81860597864E+00 -0.14443802795E+02 -0.17464236864E+02  0.10232196825E+03  0.99777212136E+02 0.  0.
         11    1    3    3    0    0 -0.34869257802E+02 -0.43711328348E+02 -0.10180470317E+02  0.56834737105E+02  0.51100000000E-03 0. -1.
         22    1    1    0    0    0  0.81860597864E+00  0.14443802795E+02  0.17464236864E+02  0.22678031753E+02  0.00000000000E+00 0. -1.
</event>
<event>
 5    1  0.1111613E-009  0.9118800E+02  0.7818608E-02  0.1130116E+00
         25   -1    0    0    0    0  0.00000000000E+00  0.00000000000E+00  0.99999998245E-14  0.12500000000E+03  0.12500000000E+03 0.  0.
        -11    1    3    3    0    0  0.34188927653E+02  0.21377415500E+02  0.42500135222E+01  0.40545521118E+02  0.51100000000E-03 0. -1.
         23    2    1    0    0    0 -0.20533206614E+02  0.20804482646E+02 -0.23882859176E+01  0.95671805687E+02  0.91065643477E+02 0.  0.
         11    1    3    3    0    0 -0.54722134267E+02 -0.57293285424E+00 -0.66382994399E+01  0.55126284570E+02  0.51100000000E-03 0.  1.
         22    1    1    0    0    0  0.20533206614E+02 -0.20804482646E+02  0.23882859176E+01  0.29328194313E+02  0.00000000000E+00 0.  1.
</event>
<event>
 5    1  0.1111613E-009  0.9118800E+02  0.7818608E-02  0.1130116E+00
         25   -1    0    0    0    0  0.00000000000E+00  0.00000000000E+00  0.99999998245E-14  0.12500000000E+03  0.12500000000E+03 0.  0.
        -11    1    3    3    0    0  0.16729025899E+02  0.65232406642E+01 -0.22170476536E+02  0.28529686405E+02  0.51100000000E-03 0.  1.
         23    2    1    0    0    0 -0.38450027665E+02  0.38517539086E+01 -0.94372397358E+01  0.85221838536E+02  0.75368824020E+02 0.  0.
         11    1    3    3    0    0 -0.55179053563E+02 -0.26714867557E+01  0.12733236800E+02  0.56692152131E+02  0.51100000000E-03 0. -1.
         22    1    1    0    0    0  0.38450027665E+02 -0.38517539086E+01  0.94372397358E+01  0.39778161464E+02  0.00000000000E+00 0. -1.
</event>
<event>
 5    1  0.1111613E-009  0.9118800E+02  0.7818608E-02  0.1130116E+00
         25   -1    0    0    0    0  0.00000000000E+00  0.00000000000E+00  0.99999998245E-14  0.12500000000E+03  0.12500000000E+03 0.  0.
        -11    1    3    3    0    0  0.32356177231E+02  0.19033375399E+02  0.29603143342E+02  0.47807297352E+02  0.51100000000E-03 0. -1.
         23    2    1    0    0    0  0.16622887570E+02  0.17213948604E+02 -0.16087507882E+02  0.96165154283E+02  0.91740332301E+02 0.  0.
         11    1    3    3    0    0 -0.15733289661E+02 -0.18194267953E+01 -0.45690651224E+02  0.48357856931E+02  0.51100000000E-03 0.  1.
         22    1    1    0    0    0 -0.16622887570E+02 -0.17213948604E+02  0.16087507882E+02  0.28834845717E+02  0.00000000000E+00 0. -1.
</event>
<event>
 5    1  0.1111613E-009  0.9118800E+02  0.7818608E-02  0.1130116E+00
         25   -1    0    0    0    0  0.00000000000E+00  0.00000000000E+00  0.99999998245E-14  0.12500000000E+03  0.12500000000E+03 0.  0.
        -11    1    3    3    0    0 -0.52040546463E+02 -0.23927080793E+02  0.24591570106E+02  0.62333530238E+02  0.51100000000E-03 0.  1.
         23    2    1    0    0    0 -0.21927232134E+02 -0.13607153699E+02  0.11195339336E+02  0.96870055747E+02  0.92695814019E+02 0.  0.
         11    1    3    3    0    0  0.30113314329E+02  0.10319927095E+02 -0.13396230770E+02  0.34536525508E+02  0.51100000000E-03 0. -1.
         22    1    1    0    0    0  0.21927232134E+02  0.13607153699E+02 -0.11195339336E+02  0.28129944253E+02  0.00000000000E+00 0.  1.
</event>
<event>
 5    1  0.1111613E-009  0.9118800E+02  0.7818608E-02  0.1130116E+00
         25   -1    0    0    0    0  0.00000000000E+00  0.00000000000E+00  0.99999998245E-14  0.12500000000E+03  0.12500000000E+03 0.  0.
        -11    1    3    3    0    0  0.19199804395E+02 -0.29526961206E+02  0.51082573115E+02  0.62047588214E+02  0.51100000000E-03 0.  1.
         23    2    1    0    0    0  0.68914388905E+01 -0.92957938604E+01  0.25990456010E+02  0.96549911826E+02  0.92263090977E+02 0.  0.
         11    1    3    3    0    0 -0.12308365504E+02  0.20231167346E+02 -0.25092117105E+02  0.34502323612E+02  0.51100000000E-03 0. -1.
         22    1    1    0    0    0 -0.68914388905E+01  0.92957938604E+01 -0.25990456010E+02  0.28450088174E+02  0.00000000000E+00 0.  1.
</event>
<event>
 5    1  0.1111613E-009  0.9118800E+02  0.7818608E-02  0.1130116E+00
         25   -1    0    0    0    0  0.00000000000E+00  0.00000000000E+00  0.99999998245E-14  0.12500000000E+03  0.12500000000E+03 0.  0.
        -11    1    3    3    0    0 -0.45738622231E+02 -0.60547686386E+01  0.37924020618E+02  0.59723639599E+02  0.51100000000E-03 0.  1.
         23    2    1    0    0    0 -0.20376003779E+02  0.10191976751E+02  0.19338466473E+02  0.95116322086E+02  0.90299947517E+02 0.  0.
         11    1    3    3    0    0  0.25362618452E+02  0.16246745390E+02 -0.18585554145E+02  0.35392682487E+02  0.51100000000E-03 0. -1.
         22    1    1    0    0    0  0.20376003779E+02 -0.10191976751E+02 -0.19338466473E+02  0.29883677914E+02  0.00000000000E+00 0.  1.
</event>
<event>
 5    1  0.1111613E-009  0.9118800E+02  0.7818608E-02  0.1130116E+00
         25   -1    0    0    0    0  0.00000000000E+00  0.00000000000E+00  0.99999998245E-14  0.12500000000E+03  0.12500000000E+03 0.  0.
        -11    1    3    3    0    0 -0.46032301825E+02  0.29638138787E+02  0.26150551332E+02  0.60673251251E+02  0.51100000000E-03 0. -1.
         23    2    1    0    0    0 -0.31327936972E+02  0.75487344715E+01  0.14955086400E+02  0.89474267970E+02  0.82119224257E+02 0.  0.
         11    1    3    3    0    0  0.14704364853E+02 -0.22089404316E+02 -0.11195464932E+02  0.28801016719E+02  0.51100000000E-03 0.  1.
         22    1    1    0    0    0  0.31327936972E+02 -0.75487344715E+01 -0.14955086400E+02  0.35525732030E+02  0.00000000000E+00 0. -1.
</event>
<event>
 5    1  0.1111613E-009  0.9118800E+02  0.7818608E-02  0.1130116E+00
         25   -1    0    0    0    0  0.00000000000E+00  0.00000000000E+00  0.99999998245E-14  0.12500000000E+03  0.12500000000E+03 0.  0.
        -11    1    3    3    0    0 -0.65571690812E+01 -0.23593871168E+02 -0.21766152245E+02  0.32763281382E+02  0.51100000000E-03 0.  1.
         23    2    1    0    0    0 -0.29125980918E+02  0.23451085438E+02 -0.10751196331E+02  0.86091589660E+02  0.76797769597E+02 0.  0.
         11    1    3    3    0    0 -0.22568811837E+02  0.47044956606E+02  0.11014955915E+02  0.53328308279E+02  0.51100000000E-03 0. -1.
         22    1    1    0    0    0  0.29125980918E+02 -0.23451085438E+02  0.10751196331E+02  0.38908410340E+02  0.00000000000E+00 0. -1.
</event>
<event>
 5    1  0.1111613E-009  0.9118800E+02  0.7818608E-02  0.1130116E+00
         25   -1    0    0    0    0  0.00000000000E+00  0.00000000000E+00  0.99999998245E-14  0.12500000000E+03  0.12500000000E+03 0.  0.
        -11    1    3    3    0    0  0.48487087704E+02 -0.14909689992E+02  0.28260545491E+02  0.58068536759E+02  0.51100000000E-03 0. -1.
         23    2    1    0    0    0  0.27929835280E+02 -0.75874995153E+01 -0.26838651396E+01  0.95933714035E+02  0.91424441529E+02 0.  0.
         11    1    3    3    0    0 -0.20557252423E+02  0.73221904767E+01 -0.30944410631E+02  0.37865177276E+02  0.51100000000E-03 0.  1.
         22    1    1    0    0    0 -0.27929835280E+02  0.75874995153E+01  0.26838651396E+01  0.29066285965E+02  0.00000000000E+00 0. -1.
</event>
<event>
 5    1  0.1111613E-009  0.9118800E+02  0.7818608E-02  0.1130116E+00
         25   -1    0    0    0    0  0.00000000000E+00  0.00000000000E+00  0.99999998245E-14  0.12500000000E+03  0.12500000000E+03 0.  0.
        -11    1    3    3    0    0 -0.36259007341E+02  0.19547186480E+02 -0.11299006611E+02  0.42713881389E+02  0.51100000000E-03 0.  1.
         23    2    1    0    0    0  0.15207065435E+02  0.74309489532E+01 -0.22583644872E+02  0.96777759530E+02  0.92571269206E+02 0.  0.
         11    1    3    3    0    0  0.51466072775E+02 -0.12116237527E+02 -0.11284638261E+02  0.54063878141E+02  0.51100000000E-03 0. -1.
         22    1    1    0    0    0 -0.15207065435E+02 -0.74309489532E+01  0.22583644872E+02  0.28222240470E+02  0.00000000000E+00 0. -1.
</event>
<event>
 5    1  0.1111613E-009  0.9118800E+02  0.7818608E-02  0.1130116E+00
         25   -1    0    0    0    0  0.00000000000E+00  0.00000000000E+00  0.99999998245E-14  0.12500000000E+03  0.12500000000E+03 0.  0.
        -11    1    3    3    0    0  0.65731544196E+01  0.40511176969E+02 -0.23949651329E+02  0.47517866297E+02  0.51100000000E-03 0. -1.
         23    2    1    0    0    0 -0.21346160541E+02  0.14547342909E+01 -0.20037961622E+02  0.95686270663E+02  0.91085496462E+02 0.  0.
         11    1    3    3    0    0 -0.27919314960E+02 -0.39056442678E+02  0.39116897062E+01  0.48168404365E+02  0.51100000000E-03 0.  1.
         22    1    1    0    0    0  0.21346160541E+02 -0.14547342909E+01  0.20037961622E+02  0.29313729337E+02  0.00000000000E+00 0. -1.
</event>
<event>
 5    1  0.1111613E-009  0.9118800E+02  0.7818608E-02  0.1130116E+00
         25   -1    0    0    0    0  0.00000000000E+00  0.00000000000E+00  0.99999998245E-14  0.12500000000E+03  0.12500000000E+03 0.  0.
        -11    1    3    3    0    0  0.25835268701E+02 -0.79635325413E+01 -0.34795043509E+01  0.27257767887E+02  0.51100000000E-03 0. -1.
         23    2    1    0    0    0 -0.28761176238E+02 -0.68477893898E+01  0.22612324835E+02  0.87778840526E+02  0.79496604528E+02 0.  0.
         11    1    3    3    0    0 -0.54596444940E+02  0.11157431515E+01  0.26091829186E+02  0.60521072639E+02  0.51100000000E-03 0.  1.
         22    1    1    0    0    0  0.28761176238E+02  0.68477893898E+01 -0.22612324835E+02  0.37221159474E+02  0.00000000000E+00 0.  1.
</event>
<event>
 5    1  0.1111613E-009  0.9118800E+02  0.7818608E-02  0.1130116E+00
         25   -1    0    0    0    0  0.00000000000E+00  0.00000000000E+00  0.99999998245E-14  0.12500000000E+03  0.12500000000E+03 0.  0.
        -11    1    3    3    0    0 -0.93635199576E+00  0.49996972580E+02 -0.15437673789E+02  0.52334460870E+02  0.51100000000E-03 0. -1.
         23    2    1    0    0    0 -0.37226275996E+00  0.22628655843E+02  0.18381481708E+02  0.95843979788E+02  0.91301670012E+02 0.  0.
         11    1    3    3    0    0  0.56408923580E+00 -0.27368316737E+02  0.33819155497E+02  0.43509518918E+02  0.51100000000E-03 0.  1.
         22    1    1    0    0    0  0.37226275996E+00 -0.22628655843E+02 -0.18381481708E+02  0.29156020212E+02  0.00000000000E+00 0. -1.
</event>
<event>
 5    1  0.1111613E-009  0.9118800E+02  0.7818608E-02  0.1130116E+00
         25   -1    0    0    0    0  0.00000000000E+00  0.00000000000E+00  0.99999998245E-14  0.12500000000E+03  0.12500000000E+03 0.  0.
        -11    1    3    3    0    0  0.14233745288E+02 -0.37963548073E+02  0.59572516346E+01  0.40979498954E+02  0.51100000000E-03 0. -1.
         23    2    1    0    0    0 -0.25470129905E+02 -0.27267411185E+02  0.17641848322E+02  0.83726836294E+02  0.72847162426E+02 0.  0.
         11    1    3    3    0    0 -0.39703875193E+02  0.10696136888E+02  0.11684596688E+02  0.42747337340E+02  0.51100000000E-03 0.  1.
         22    1    1    0    0    0  0.25470129905E+02  0.27267411185E+02 -0.17641848322E+02  0.41273163706E+02  0.00000000000E+00 0.  1.
</event>
<event>
 5    1  0.1111613E-009  0.9118800E+02  0.7818608E-02  0.1130116E+00
         25   -1    0    0    0    0  0.00000000000E+00  0.00000000000E+00  0.99999998245E-14  0.12500000000E+03  0.12500000000E+03 0.  0.
        -11    1    3    3    0    0  0.33636557167E+02 -0.60677590264E+00  0.15310258459E+02  0.36962009813E+02  0.51100000000E-03 0. -1.
         23    2    1    0    0    0 -0.16895172221E+02  0.24525079860E+02  0.91839662675E+00  0.95204533250E+02  0.90421973615E+02 0.  0.
         11    1    3    3    0    0 -0.50531729388E+02  0.25131855762E+02 -0.14391861832E+02  0.58242523437E+02  0.51100000000E-03 0.  1.
         22    1    1    0    0    0  0.16895172221E+02 -0.24525079860E+02 -0.91839662675E+00  0.29795466750E+02  0.00000000000E+00 0.  1.
</event>
<event>
 5    1  0.1111613E-009  0.9118800E+02  0.7818608E-02  0.1130116E+00
         25   -1    0    0    0    0  0.00000000000E+00  0.00000000000E+00  0.99999998245E-14  0.12500000000E+03  0.12500000000E+03 0.  0.
        -11    1    3    3    0    0  0.28636614033E+02  0.20304420200E+02  0.10621076067E+01  0.35120552611E+02  0.51100000000E-03 0. -1.
         23    2    1    0    0    0 -0.26391086678E+02  0.72851343173E+01  0.15577120724E+02  0.93500645592E+02  0.88035000983E+02 0.  0.
         11    1    3    3    0    0 -0.55027700710E+02 -0.13019285882E+02  0.14515013118E+02  0.58380092981E+02  0.51100000000E-03 0.  1.
         22    1    1    0    0    0  0.26391086678E+02 -0.72851343173E+01 -0.15577120724E+02  0.31499354408E+02  0.00000000000E+00 0.  1.
</event>
<event>
 5    1  0.1111613E-009  0.9118800E+02  0.7818608E-02  0.1130116E+00
         25   -1    0    0    0    0  0.00000000000E+00  0.00000000000E+00  0.99999998245E-14  0.12500000000E+03  0.12500000000E+03 0.  0.
        -11    1    3    3    0    0 -0.42211488895E+02 -0.11513299812E+02 -0.46267519128E+01  0.43997416979E+02  0.51100000000E-03 0.  1.
         23    2    1    0    0    0 -0.21017651682E+01  0.12846933640E+02 -0.26274444748E+02  0.95677524532E+02  0.91073493032E+02 0.  0.
         11    1    3    3    0    0  0.40109723727E+02  0.24360233452E+02 -0.21647692835E+02  0.51680107553E+02  0.51100000000E-03 0. -1.
         22    1    1    0    0    0  0.21017651682E+01 -0.12846933640E+02  0.26274444748E+02  0.29322475468E+02  0.00000000000E+00 0. -1.
</event>
<event>
 5    1  0.1111613E-009  0.9118800E+02  0.7818608E-02  0.1130116E+00
         25   -1    0    0    0    0  0.00000000000E+00  0.00000000000E+00  0.99999998245E-14  0.12500000000E+03  0.12500000000E+03 0.  0.
        -11    1    3    3    0    0 -0.34205269776E+02  0.25946096677E+02 -0.46596430036E+01  0.43184634841E+02  0.51100000000E-03 0. -1.
         23    2    1    0    0    0  0.16093276077E+02  0.19385383684E+02  0.12684005471E+02  0.96792365745E+02  0.92590990038E+02 0.  0.
         11    1    3    3    0    0  0.50298545854E+02 -0.65607129927E+01  0.17343648475E+02  0.53607730904E+02  0.51100000000E-03 0.  1.
         22    1    1    0    0    0 -0.16093276077E+02 -0.19385383684E+02 -0.12684005471E+02  0.28207634255E+02  0.00000000000E+00 0.  1.
</event>
<event>
 5    1  0.1111613E-009  0.9118800E+02  0.7818608E-02  0.1130116E+00
         25   -1    0    0    0    0  0.00000000000E+00  0.00000000000E+00  0.99999998245E-14  0.12500000000E+03  0.12500000000E+03 0.  0.
        -11    1    3    3    0    0 -0.11837099857E+02  0.35847955056E+02  0.24307975958E+02  0.44900673827E+02  0.51100000000E-03 0. -1.
         23    2    1    0    0    0  0.21378997404E+02  0.14059591116E+01  0.24103831371E+02  0.92750458332E+02  0.86963294459E+02 0.  0.
         11    1    3    3    0    0  0.33216097261E+02 -0.34441995945E+02 -0.20414458735E+00  0.47849784505E+02  0.51100000000E-03 0.  1.
         22    1    1    0    0    0 -0.21378997404E+02 -0.14059591116E+01 -0.24103831371E+02  0.32249541668E+02  0.00000000000E+00 0.  1.
</event>
<event>
 5    1  0.1111613E-009  0.9118800E+02  0.7818608E-02  0.1130116E+00
         25   -1    0    0    0    0  0.00000000000E+00  0.00000000000E+00  0.99999998245E-14  0.12500000000E+03  0.12500000000E+03 0.  0.
        -11    1    3    3    0    0  0.25335605455E+02  0.16204680563E+02 -0.18386640488E+02  0.35249867015E+02  0.51100000000E-03 0. -1.
         23    2    1    0    0    0 -0.27873873386E+02  0.12910513120E+02 -0.19575124197E+02  0.88574464261E+02  0.80737946873E+02 0.  0.
         11    1    3    3    0    0 -0.53209478840E+02 -0.32941674429E+01 -0.11884837091E+01  0.53324597246E+02  0.51100000000E-03 0.  1.
         22    1    1    0    0    0  0.27873873386E+02 -0.12910513120E+02  0.19575124197E+02  0.36425535739E+02  0.00000000000E+00 0.  1.
</event>
<event>
 5    1  0.1111613E-009  0.9118800E+02  0.7818608E-02  0.1130116E+00
         25   -1    0    0    0    0  0.00000000000E+00  0.00000000000E+00  0.99999998245E-14  0.12500000000E+03  0.12500000000E+03 0.  0.
        -11    1    3    3    0    0 -0.44322954447E+02  0.33593237798E+01  0.15713750949E+02  0.47145851528E+02  0.51100000000E-03 0.  1.
         23    2    1    0    0    0  0.87882009055E+01  0.78900457854E+01  0.21200739575E+02  0.10073157079E+03  0.97764475646E+02 0.  0.
         11    1    3    3    0    0  0.53111155352E+02  0.45307220055E+01  0.54869886258E+01  0.53585719265E+02  0.51100000000E-03 0. -1.
         22    1    1    0    0    0 -0.87882009055E+01 -0.78900457854E+01 -0.21200739575E+02  0.24268429207E+02  0.00000000000E+00 0. -1.
</event>
<event>
 5    1  0.1111613E-009  0.9118800E+02  0.7818608E-02  0.1130116E+00
         25   -1    0    0    0    0  0.00000000000E+00  0.00000000000E+00  0.99999998245E-14  0.12500000000E+03  0.12500000000E+03 0.  0.
        -11    1    3    3    0    0  0.34481996672E+02 -0.86284244120E+00 -0.18825655066E+02  0.39295774334E+02  0.51100000000E-03 0.  1.
         23    2    1    0    0    0 -0.17599220270E+02  0.19528821421E+02 -0.13410170723E+02  0.95488305725E+02  0.90813415480E+02 0.  0.
         11    1    3    3    0    0 -0.52081216942E+02  0.20391663862E+02  0.54154843427E+01  0.56192531391E+02  0.51100000000E-03 0. -1.
         22    1    1    0    0    0  0.17599220270E+02 -0.19528821421E+02  0.13410170723E+02  0.29511694275E+02  0.00000000000E+00 0. -1.
</event>
<event>
 5    1  0.1111613E-009  0.9118800E+02  0.7818608E-02  0.1130116E+00
         25   -1    0    0    0    0  0.00000000000E+00  0.00000000000E+00  0.99999998245E-14  0.12500000000E+03  0.12500000000E+03 0.  0.
        -11    1    3    3    0    0  0.12523864483E+02 -0.34806052476E+02 -0.67235709213E+01  0.37596740240E+02  0.51100000000E-03 0. -1.
         23    2    1    0    0    0 -0.27545549049E+02  0.67961496134E+01  0.40105166955E+01  0.96346393488E+02  0.91986946748E+02 0.  0.
         11    1    3    3    0    0 -0.40069413532E+02  0.41602202089E+02  0.10734087617E+02  0.58749653247E+02  0.51100000000E-03 0.  1.
         22    1    1    0    0    0  0.27545549049E+02 -0.67961496134E+01 -0.40105166955E+01  0.28653606512E+02  0.00000000000E+00 0.  1.
</event>
<event>
 5    1  0.1111613E-009  0.9118800E+02  0.7818608E-02  0.1130116E+00
         25   -1    0    0    0    0  0.00000000000E+00  0.00000000000E+00  0.99999998245E-14  0.12500000000E+03  0.12500000000E+03 0.  0.
        -11    1    3    3    0    0 -0.49594566005E+02 -0.65768136789E+01  0.21482175247E+02  0.54445930141E+02  0.51100000000E-03 0.  1.
         23    2    1    0    0    0 -0.16169320017E+02 -0.23787166170E+02  0.38158626482E+01  0.95985572692E+02  0.91495317766E+02 0.  0.
         11    1    3    3    0    0  0.33425245987E+02 -0.17210352492E+02 -0.17666312599E+02  0.41539642551E+02  0.51100000000E-03 0. -1.
         22    1    1    0    0    0  0.16169320017E+02  0.23787166170E+02 -0.38158626482E+01  0.29014427308E+02  0.00000000000E+00 0.  1.
</event>
<event>
 5    1  0.1111613E-009  0.9118800E+02  0.7818608E-02  0.1130116E+00
         25   -1    0    0    0    0  0.00000000000E+00  0.00000000000E+00  0.99999998245E-14  0.12500000000E+03  0.12500000000E+03 0.  0.
        -11    1    3    3    0    0  0.32800172870E+02  0.45155001479E+02 -0.13806544243E+02  0.57493009689E+02  0.51100000000E-03 0.  1.
         23    2    1    0    0    0  0.61178754367E+01  0.28033334836E+02  0.70650839843E+01  0.95449844779E+02  0.90760460525E+02 0.  0.
         11    1    3    3    0    0 -0.26682297433E+02 -0.17121666643E+02  0.20871628227E+02  0.37956835090E+02  0.51100000000E-03 0. -1.
         22    1    1    0    0    0 -0.61178754367E+01 -0.28033334836E+02 -0.70650839843E+01  0.29550155221E+02  0.00000000000E+00 0.  1.
</event>
<event>
 5    1  0.1111613E-009  0.9118800E+02  0.7818608E-02  0.1130116E+00
         25   -1    0    0    0    0  0.00000000000E+00  0.00000000000E+00  0.99999998245E-14  0.12500000000E+03  0.12500000000E+03 0.  0.
        -11    1    3    3    0    0 -0.35602033957E+02  0.12966380243E+02  0.42452271283E+02  0.56901908368E+02  0.51100000000E-03 0.  1.
         23    2    1    0    0    0 -0.14477914694E+00  0.75005285075E+01  0.28720083457E+02  0.95316299377E+02  0.90576348151E+02 0.  0.
         11    1    3    3    0    0  0.35457254810E+02 -0.54658517353E+01 -0.13732187827E+02  0.38414391010E+02  0.51100000000E-03 0. -1.
         22    1    1    0    0    0  0.14477914694E+00 -0.75005285075E+01 -0.28720083457E+02  0.29683700623E+02  0.00000000000E+00 0.  1.
</event>
<event>
 5    1  0.1111613E-009  0.9118800E+02  0.7818608E-02  0.1130116E+00
         25   -1    0    0    0    0  0.00000000000E+00  0.00000000000E+00  0.99999998245E-14  0.12500000000E+03  0.12500000000E+03 0.  0.
        -11    1    3    3    0    0 -0.13909038262E+02  0.15105589913E+02  0.54074748676E+02  0.57842187343E+02  0.51100000000E-03 0. -1.
         23    2    1    0    0    0 -0.32045955552E+01 -0.95493857465E+01  0.27807499211E+02  0.95424381440E+02  0.90725384321E+02 0.  0.
         11    1    3    3    0    0  0.10704442707E+02 -0.24654975659E+02 -0.26267249465E+02  0.37582194097E+02  0.51100000000E-03 0.  1.
         22    1    1    0    0    0  0.32045955552E+01  0.95493857465E+01 -0.27807499211E+02  0.29575618560E+02  0.00000000000E+00 0. -1.
</event>
<event>
 5    1  0.1111613E-009  0.9118800E+02  0.7818608E-02  0.1130116E+00
         25   -1    0    0    0    0  0.00000000000E+00  0.00000000000E+00  0.99999998245E-14  0.12500000000E+03  0.12500000000E+03 0.  0.
        -11    1    3    3    0    0 -0.18573537165E+02  0.47160186820E+02  0.23625860430E+02  0.55921738037E+02  0.51100000000E-03 0.  1.
         23    2    1    0    0    0 -0.54482719719E+01  0.28079157901E+02 -0.81656505557E+01  0.95254401588E+02  0.90490885712E+02 0.  0.
         11    1    3    3    0    0  0.13125265193E+02 -0.19081028919E+02 -0.31791510986E+02  0.39332663551E+02  0.51100000000E-03 0. -1.
         22    1    1    0    0    0  0.54482719719E+01 -0.28079157901E+02  0.81656505557E+01  0.29745598412E+02  0.00000000000E+00 0.  1.
</event>
<event>
 5    1  0.1111613E-009  0.9118800E+02  0.7818608E-02  0.1130116E+00
         25   -1    0    0    0    0  0.00000000000E+00  0.00000000000E+00  0.99999998245E-14  0.12500000000E+03  0.12500000000E+03 0.  0.
        -11    1    3    3    0    0 -0.21342790640E+02  0.35543634326E+02 -0.25919504445E+02  0.48894635333E+02  0.51100000000E-03 0. -1.
         23    2    1    0    0    0 -0.13908847810E+02 -0.12032615005E+02 -0.20668538233E+02  0.97333624308E+02  0.93318840953E+02 0.  0.
         11    1    3    3    0    0  0.74339428299E+01 -0.47576249332E+02  0.52509662114E+01  0.48438988975E+02  0.51100000000E-03 0.  1.
         22    1    1    0    0    0  0.13908847810E+02  0.12032615005E+02  0.20668538233E+02  0.27666375692E+02  0.00000000000E+00 0. -1.
</event>
<event>
 5    1  0.1111613E-009  0.9118800E+02  0.7818608E-02  0.1130116E+00
         25   -1    0    0    0    0  0.00000000000E+00  0.00000000000E+00  0.99999998245E-14  0.12500000000E+03  0.12500000000E+03 0.  0.
        -11    1    3    3    0    0  0.17248897584E+02  0.11816773333E+02  0.52151283051E+02  0.56186447868E+02  0.51100000000E-03 0. -1.
         23    2    1    0    0    0  0.15044270939E+02  0.21352415938E+02  0.14425185106E+02  0.95161405533E+02  0.90362333874E+02 0.  0.
         11    1    3    3    0    0 -0.22046266446E+01  0.95356426046E+01 -0.37726097946E+02  0.38974957665E+02  0.51100000000E-03 0.  1.
         22    1    1    0    0    0 -0.15044270939E+02 -0.21352415938E+02 -0.14425185106E+02  0.29838594467E+02  0.00000000000E+00 0. -1.
</event>
<event>
 5    1  0.1111613E-009  0.9118800E+02  0.7818608E-02  0.1130116E+00
         25   -1    0    0    0    0  0.00000000000E+00  0.00000000000E+00  0.99999998245E-14  0.12500000000E+03  0.12500000000E+03 0.  0.
        -11    1    3    3    0    0 -0.40673984213E+02  0.34031971228E+02  0.24950024269E+02  0.58609314693E+02  0.51100000000E-03 0.  1.
         23    2    1    0    0    0 -0.53900086732E+01  0.22960875489E+02  0.15499425423E+02  0.96777913168E+02  0.92571476665E+02 0.  0.
         11    1    3    3    0    0  0.35283975540E+02 -0.11071095740E+02 -0.94505988454E+01  0.38168598476E+02  0.51100000000E-03 0. -1.
         22    1    1    0    0    0  0.53900086732E+01 -0.22960875489E+02 -0.15499425423E+02  0.28222086832E+02  0.00000000000E+00 0.  1.
</event>
<event>
 5    1  0.1111613E-009  0.9118800E+02  0.7818608E-02  0.1130116E+00
         25   -1    0    0    0    0  0.00000000000E+00  0.00000000000E+00  0.99999998245E-14  0.12500000000E+03  0.12500000000E+03 0.  0.
        -11    1    3    3    0    0  0.10554432007E+02  0.52023844447E+02 -0.19790849413E+02  0.56652927080E+02  0.51100000000E-03 0.  1.
         23    2    1    0    0    0  0.33031861879E+01  0.27772027149E+02  0.95898182625E+01  0.95433783717E+02  0.90738337704E+02 0.  0.
         11    1    3    3    0    0 -0.72512458188E+01 -0.24251817297E+02  0.29380667676E+02  0.38780856637E+02  0.51100000000E-03 0. -1.
         22    1    1    0    0    0 -0.33031861879E+01 -0.27772027149E+02 -0.95898182625E+01  0.29566216283E+02  0.00000000000E+00 0.  1.
</event>
<event>
 5    1  0.1111613E-009  0.9118800E+02  0.7818608E-02  0.1130116E+00
         25   -1    0    0    0    0  0.00000000000E+00  0.00000000000E+00  0.99999998245E-14  0.12500000000E+03  0.12500000000E+03 0.  0.
        -11    1    3    3    0    0 -0.13262470297E+02 -0.56852774702E+01 -0.36132607971E+02  0.38907336806E+02  0.51100000000E-03 0. -1.
         23    2    1    0    0    0 -0.99905453810E+01 -0.11150928194E+01  0.23831902808E+02  0.99134694657E+02  0.95700959579E+02 0.  0.
         11    1    3    3    0    0  0.32719249158E+01  0.45701846508E+01  0.59964510780E+02  0.60227357851E+02  0.51100000000E-03 0.  1.
         22    1    1    0    0    0  0.99905453810E+01  0.11150928194E+01 -0.23831902808E+02  0.25865305343E+02  0.00000000000E+00 0.  1.
</event>
<event>
 5    1  0.1111613E-009  0.9118800E+02  0.7818608E-02  0.1130116E+00
         25   -1    0    0    0    0  0.00000000000E+00  0.00000000000E+00  0.99999998245E-14  0.12500000000E+03  0.12500000000E+03 0.  0.
        -11    1    3    3    0    0  0.27084890239E+01 -0.34043885459E+02  0.26288951641E+02  0.43097923715E+02  0.51100000000E-03 0. -1.
         23    2    1    0    0    0  0.13257226955E+02  0.17405822124E+02  0.18807289786E+02  0.96148122081E+02  0.91717122285E+02 0.  0.
         11    1    3    3    0    0  0.10548737931E+02  0.51449707583E+02 -0.74816618547E+01  0.53050198366E+02  0.51100000000E-03 0.  1.
         22    1    1    0    0    0 -0.13257226955E+02 -0.17405822124E+02 -0.18807289786E+02  0.28851877919E+02  0.00000000000E+00 0.  1.
</event>
<event>
 5    1  0.1111613E-009  0.9118800E+02  0.7818608E-02  0.1130116E+00
         25   -1    0    0    0    0  0.00000000000E+00  0.00000000000E+00  0.99999998245E-14  0.12500000000E+03  0.12500000000E+03 0.  0.
        -11    1    3    3    0    0 -0.66910739237E+01 -0.41173062942E+02 -0.18353464556E+01  0.41753563670E+02  0.51100000000E-03 0.  1.
         23    2    1    0    0    0  0.27194338913E+02  0.80407848577E-01 -0.10520507751E+02  0.95841474357E+02  0.91298239792E+02 0.  0.
         11    1    3    3    0    0  0.33885412837E+02  0.41253470791E+02 -0.86851612957E+01  0.54087910686E+02  0.51100000000E-03 0. -1.
         22    1    1    0    0    0 -0.27194338913E+02 -0.80407848577E-01  0.10520507751E+02  0.29158525643E+02  0.00000000000E+00 0. -1.
</event>
<event>
 5    1  0.1111613E-009  0.9118800E+02  0.7818608E-02  0.1130116E+00
         25   -1    0    0    0    0  0.00000000000E+00  0.00000000000E+00  0.99999998245E-14  0.12500000000E+03  0.12500000000E+03 0.  0.
        -11    1    3    3    0    0  0.97552356409E+01 -0.63574413934E+00  0.33176095867E+02  0.34586444313E+02  0.51100000000E-03 0. -1.
         23    2    1    0    0    0 -0.40604026640E+01 -0.97033131618E+01 -0.26489620461E+02  0.96498400952E+02  0.92193276534E+02 0.  0.
         11    1    3    3    0    0 -0.13815638305E+02 -0.90675690224E+01 -0.59665716328E+02  0.61911956639E+02  0.51100000000E-03 0.  1.
         22    1    1    0    0    0  0.40604026640E+01  0.97033131618E+01  0.26489620461E+02  0.28501599048E+02  0.00000000000E+00 0.  1.
</event>
<event>
 5    1  0.1111613E-009  0.9118800E+02  0.7818608E-02  0.1130116E+00
         25   -1    0    0    0    0  0.00000000000E+00  0.00000000000E+00  0.99999998245E-14  0.12500000000E+03  0.12500000000E+03 0.  0.
        -11    1    3    3    0    0  0.17819567184E+02  0.22192705192E+01  0.29029095600E+02  0.34134301339E+02  0.51100000000E-03 0. -1.
         23    2    1    0    0    0 -0.10938287631E+02  0.17741696674E+02 -0.21976983223E+02  0.94711359741E+02  0.89737617169E+02 0.  0.
         11    1    3    3    0    0 -0.28757854815E+02  0.15522426155E+02 -0.51006078824E+02  0.60577058401E+02  0.51100000000E-03 0.  1.
         22    1    1    0    0    0  0.10938287631E+02 -0.17741696674E+02  0.21976983223E+02  0.30288640259E+02  0.00000000000E+00 0.  1.
</event>
<event>
 5    1  0.1111613E-009  0.9118800E+02  0.7818608E-02  0.1130116E+00
         25   -1    0    0    0    0  0.00000000000E+00  0.00000000000E+00  0.99999998245E-14  0.12500000000E+03  0.12500000000E+03 0.  0.
        -11    1    3    3    0    0 -0.50841257321E+02 -0.15355253898E+02 -0.31794445480E+02  0.61899144032E+02  0.51100000000E-03 0. -1.
         23    2    1    0    0    0 -0.28783788126E+02 -0.94697258708E+01 -0.11047081994E+02  0.92747555325E+02  0.86959121610E+02 0.  0.
         11    1    3    3    0    0  0.22057469195E+02  0.58855280270E+01  0.20747363486E+02  0.30848411293E+02  0.51100000000E-03 0.  1.
         22    1    1    0    0    0  0.28783788126E+02  0.94697258708E+01  0.11047081994E+02  0.32252444675E+02  0.00000000000E+00 0. -1.
</event>
<event>
 5    1  0.1111613E-009  0.9118800E+02  0.7818608E-02  0.1130116E+00
         25   -1    0    0    0    0  0.00000000000E+00  0.00000000000E+00  0.99999998245E-14  0.12500000000E+03  0.12500000000E+03 0.  0.
        -11    1    3    3    0    0  0.36955504294E+02  0.21425923628E+02  0.43645269897E+02  0.61071180483E+02  0.51100000000E-03 0.  1.
         23    2    1    0    0    0  0.12446676157E+02  0.17968836367E+02  0.18370471004E+02  0.96447013595E+02  0.92123576780E+02 0.  0.
         11    1    3    3    0    0 -0.24508828137E+02 -0.34570872609E+01 -0.25274798893E+02  0.35375833111E+02  0.51100000000E-03 0. -1.
         22    1    1    0    0    0 -0.12446676157E+02 -0.17968836367E+02 -0.18370471004E+02  0.28552986405E+02  0.00000000000E+00 0.  1.
</event>
<event>
 5    1  0.1111613E-009  0.9118800E+02  0.7818608E-02  0.1130116E+00
         25   -1    0    0    0    0  0.00000000000E+00  0.00000000000E+00  0.99999998245E-14  0.12500000000E+03  0.12500000000E+03 0.  0.
        -11    1    3    3    0    0  0.21816553003E+02  0.34980190815E+02 -0.37370061638E+02  0.55642584784E+02  0.51100000000E-03 0. -1.
         23    2    1    0    0    0  0.26920902692E+02  0.11715528388E+02 -0.59942987724E+01  0.95034682967E+02  0.90186865683E+02 0.  0.
         11    1    3    3    0    0  0.51043496893E+01 -0.23264662427E+02  0.31375762865E+02  0.39392098183E+02  0.51100000000E-03 0.  1.
         22    1    1    0    0    0 -0.26920902692E+02 -0.11715528388E+02  0.59942987724E+01  0.29965317033E+02  0.00000000000E+00 0. -1.
</event>
<event>
 5    1  0.1111613E-009  0.9118800E+02  0.7818608E-02  0.1130116E+00
         25   -1    0    0    0    0  0.00000000000E+00  0.00000000000E+00  0.99999998245E-14  0.12500000000E+03  0.12500000000E+03 0.  0.
        -11    1    3    3    0    0  0.36723504279E+02 -0.21687273113E+02  0.35781674809E+02  0.55671193933E+02  0.51100000000E-03 0.  1.
         23    2    1    0    0    0  0.21359895801E+02  0.10317857271E+02  0.16830963390E+02  0.95914184626E+02  0.91397736058E+02 0.  0.
         11    1    3    3    0    0 -0.15363608478E+02  0.32005130384E+02 -0.18950711419E+02  0.40242990693E+02  0.51100000000E-03 0. -1.
         22    1    1    0    0    0 -0.21359895801E+02 -0.10317857271E+02 -0.16830963390E+02  0.29085815374E+02  0.00000000000E+00 0.  1.
</event>
<event>
 5    1  0.1111613E-009  0.9118800E+02  0.7818608E-02  0.1130116E+00
         25   -1    0    0    0    0  0.00000000000E+00  0.00000000000E+00  0.99999998245E-14  0.12500000000E+03  0.12500000000E+03 0.  0.
        -11    1    3    3    0    0 -0.74702357202E+01 -0.43225450911E+02  0.95841046339E+01  0.44900992083E+02  0.51100000000E-03 0.  1.
         23    2    1    0    0    0  0.22638565485E+02 -0.34146892688E+01  0.18449892943E+02  0.95596542727E+02  0.90962276146E+02 0.  0.
         11    1    3    3    0    0  0.30108801205E+02  0.39810761642E+02  0.88657883087E+01  0.50695550644E+02  0.51100000000E-03 0. -1.
         22    1    1    0    0    0 -0.22638565485E+02  0.34146892688E+01 -0.18449892943E+02  0.29403457273E+02  0.00000000000E+00 0. -1.
</event>
<event>
 5    1  0.1111613E-009  0.9118800E+02  0.7818608E-02  0.1130116E+00
         25   -1    0    0    0    0  0.00000000000E+00  0.00000000000E+00  0.99999998245E-14  0.12500000000E+03  0.12500000000E+03 0.  0.
        -11    1    3    3    0    0 -0.35193048226E+02 -0.17096611430E+02  0.17961506746E+02  0.43051834928E+02  0.51100000000E-03 0.  1.
         23    2    1    0    0    0 -0.15678742077E+02  0.12447817779E+02 -0.21196494499E+02  0.95844168686E+02  0.91301928629E+02 0.  0.
         11    1    3    3    0    0  0.19514306149E+02  0.29544429209E+02 -0.39158001245E+02  0.52792333757E+02  0.51100000000E-03 0. -1.
         22    1    1    0    0    0  0.15678742077E+02 -0.12447817779E+02  0.21196494499E+02  0.29155831314E+02  0.00000000000E+00 0. -1.
</event>
<event>
 5    1  0.1111613E-009  0.9118800E+02  0.7818608E-02  0.1130116E+00
         25   -1    0    0    0    0  0.00000000000E+00  0.00000000000E+00  0.99999998245E-14  0.12500000000E+03  0.12500000000E+03 0.  0.
        -11    1    3    3    0    0 -0.28822055442E+02 -0.13687099556E+02 -0.17222982994E+02  0.36258498557E+02  0.51100000000E-03 0.  1.
         23    2    1    0    0    0  0.28314875064E+02 -0.61606458040E-01 -0.56607367574E+01  0.96124753059E+02  0.91685267436E+02 0.  0.
         11    1    3    3    0    0  0.57136930506E+02  0.13625493098E+02  0.11562246237E+02  0.59866254502E+02  0.51100000000E-03 0. -1.
         22    1    1    0    0    0 -0.28314875064E+02  0.61606458040E-01  0.56607367574E+01  0.28875246941E+02  0.00000000000E+00 0. -1.
</event>
<event>
 5    1  0.1111613E-009  0.9118800E+02  0.7818608E-02  0.1130116E+00
         25   -1    0    0    0    0  0.00000000000E+00  0.00000000000E+00  0.99999998245E-14  0.12500000000E+03  0.12500000000E+03 0.  0.
        -11    1    3    3    0    0  0.33828713724E+02 -0.11148996241E+02 -0.71910259389E+01  0.36337210180E+02  0.51100000000E-03 0. -1.
         23    2    1    0    0    0 -0.24684181741E+02 -0.16183696219E+02 -0.18279078992E+00  0.95482983484E+02  0.90806089394E+02 0.  0.
         11    1    3    3    0    0 -0.58512895464E+02 -0.50346999785E+01  0.70082351490E+01  0.59145773304E+02  0.51100000000E-03 0.  1.
         22    1    1    0    0    0  0.24684181741E+02  0.16183696219E+02  0.18279078992E+00  0.29517016516E+02  0.00000000000E+00 0.  1.
</event>
<event>
 5    1  0.1111613E-009  0.9118800E+02  0.7818608E-02  0.1130116E+00
         25   -1    0    0    0    0  0.00000000000E+00  0.00000000000E+00  0.99999998245E-14  0.12500000000E+03  0.12500000000E+03 0.  0.
        -11    1    3    3    0    0 -0.24723855869E+02 -0.18173267673E+01 -0.28610635083E+02  0.37856837767E+02  0.51100000000E-03 0. -1.
         23    2    1    0    0    0 -0.80902314300E+01  0.43827811968E+01  0.27128056515E+02  0.96354021820E+02  0.91997312216E+02 0.  0.
         11    1    3    3    0    0  0.16633624439E+02  0.62001079641E+01  0.55738691598E+02  0.58497184053E+02  0.51100000000E-03 0.  1.
         22    1    1    0    0    0  0.80902314300E+01 -0.43827811968E+01 -0.27128056515E+02  0.28645978180E+02  0.00000000000E+00 0.  1.
</event>
<event>
 5    1  0.1111613E-009  0.9118800E+02  0.7818608E-02  0.1130116E+00
         25   -1    0    0    0    0  0.00000000000E+00  0.00000000000E+00  0.99999998245E-14  0.12500000000E+03  0.12500000000E+03 0.  0.
        -11    1    3    3    0    0  0.10413221787E+02 -0.41638721174E+02 -0.34688603713E+02  0.55186207668E+02  0.51100000000E-03 0. -1.
         23    2    1    0    0    0  0.41022851711E+00 -0.32992629839E+01 -0.29691467904E+02  0.95122973876E+02  0.90309154957E+02 0.  0.
         11    1    3    3    0    0 -0.10002993270E+02  0.38339458190E+02  0.49971358082E+01  0.39936766209E+02  0.51100000000E-03 0.  1.
         22    1    1    0    0    0 -0.41022851711E+00  0.32992629839E+01  0.29691467904E+02  0.29877026124E+02  0.00000000000E+00 0. -1.
</event>
<event>
 5    1  0.1111613E-009  0.9118800E+02  0.7818608E-02  0.1130116E+00
         25   -1    0    0    0    0  0.00000000000E+00  0.00000000000E+00  0.99999998245E-14  0.12500000000E+03  0.12500000000E+03 0.  0.
        -11    1    3    3    0    0 -0.29230671154E+02 -0.45585997433E+01  0.82746743330E+01  0.30719427132E+02  0.51100000000E-03 0. -1.
         23    2    1    0    0    0  0.25428907813E+02 -0.19711504983E+01 -0.20254518396E+02  0.92430684651E+02  0.86502434432E+02 0.  0.
         11    1    3    3    0    0  0.54659578968E+02  0.25874492449E+01 -0.28529192729E+02  0.61711257519E+02  0.51100000000E-03 0.  1.
         22    1    1    0    0    0 -0.25428907813E+02  0.19711504983E+01  0.20254518396E+02  0.32569315349E+02  0.00000000000E+00 0.  1.
</event>
<event>
 5    1  0.1111613E-009  0.9118800E+02  0.7818608E-02  0.1130116E+00
         25   -1    0    0    0    0  0.00000000000E+00  0.00000000000E+00  0.99999998245E-14  0.12500000000E+03  0.12500000000E+03 0.  0.
        -11    1    3    3    0    0  0.24715907174E+02  0.12607979422E+02  0.23858276280E+02  0.36593094429E+02  0.51100000000E-03 0. -1.
         23    2    1    0    0    0 -0.13627975669E+02 -0.64614759638E+01 -0.21347361227E+02  0.98862245241E+02  0.95344435130E+02 0.  0.
         11    1    3    3    0    0 -0.38343882844E+02 -0.19069455386E+02 -0.45205637507E+02  0.62269150813E+02  0.51100000000E-03 0.  1.
         22    1    1    0    0    0  0.13627975669E+02  0.64614759638E+01  0.21347361227E+02  0.26137754759E+02  0.00000000000E+00 0.  1.
</event>
<event>
 5    1  0.1111613E-009  0.9118800E+02  0.7818608E-02  0.1130116E+00
         25   -1    0    0    0    0  0.00000000000E+00  0.00000000000E+00  0.99999998245E-14  0.12500000000E+03  0.12500000000E+03 0.  0.
        -11    1    3    3    0    0  0.35752810857E+01  0.35941906866E+02 -0.38116597186E+02  0.52511696652E+02  0.51100000000E-03 0.  1.
         23    2    1    0    0    0 -0.54979159832E+01  0.26035850763E+02  0.52202503477E+01  0.97882780032E+02  0.94051555053E+02 0.  0.
         11    1    3    3    0    0 -0.90731970689E+01 -0.99060561027E+01  0.43336847534E+02  0.45371083379E+02  0.51100000000E-03 0. -1.
         22    1    1    0    0    0  0.54979159832E+01 -0.26035850763E+02 -0.52202503477E+01  0.27117219968E+02  0.00000000000E+00 0.  1.
</event>
<event>
 5    1  0.1111613E-009  0.9118800E+02  0.7818608E-02  0.1130116E+00
         25   -1    0    0    0    0  0.00000000000E+00  0.00000000000E+00  0.99999998245E-14  0.12500000000E+03  0.12500000000E+03 0.  0.
        -11    1    3    3    0    0  0.96348854026E+01  0.16274262243E+02  0.36203862840E+02  0.40846080755E+02  0.51100000000E-03 0.  1.
         23    2    1    0    0    0 -0.28359591812E+02 -0.37059981344E+01  0.96826735000E+00  0.96382900014E+02  0.92036541675E+02 0.  0.
         11    1    3    3    0    0 -0.37994477215E+02 -0.19980260378E+02 -0.35235595490E+02  0.55536819259E+02  0.51100000000E-03 0. -1.
         22    1    1    0    0    0  0.28359591812E+02  0.37059981344E+01 -0.96826735000E+00  0.28617099986E+02  0.00000000000E+00 0. -1.
</event>
<event>
 5    1  0.1111613E-009  0.9118800E+02  0.7818608E-02  0.1130116E+00
         25   -1    0    0    0    0  0.00000000000E+00  0.00000000000E+00  0.99999998245E-14  0.12500000000E+03  0.12500000000E+03 0.  0.
        -11    1    3    3    0    0 -0.44675644915E+02 -0.33473548340E+02 -0.20587823280E+02  0.59500001300E+02  0.51100000000E-03 0. -1.
         23    2    1    0    0    0 -0.20632596568E+02 -0.74678919388E+01 -0.20579470766E+02  0.94916980402E+02  0.90023580802E+02 0.  0.
         11    1    3    3    0    0  0.24043048347E+02  0.26005656401E+02  0.83525137518E-02  0.35416979102E+02  0.51100000000E-03 0.  1.
         22    1    1    0    0    0  0.20632596568E+02  0.74678919388E+01  0.20579470766E+02  0.30083019598E+02  0.00000000000E+00 0. -1.
</event>
<event>
 5    1  0.1111613E-009  0.9118800E+02  0.7818608E-02  0.1130116E+00
         25   -1    0    0    0    0  0.00000000000E+00  0.00000000000E+00  0.99999998245E-14  0.12500000000E+03  0.12500000000E+03 0.  0.
        -11    1    3    3    0    0  0.51466089944E+02 -0.79285397962E+01 -0.25641299622E+02  0.58043917890E+02  0.51100000000E-03 0.  1.
         23    2    1    0    0    0  0.13061593223E+02 -0.46791435669E+01 -0.24785825927E+02  0.96595127725E+02  0.92324330116E+02 0.  0.
         11    1    3    3    0    0 -0.38404496721E+02  0.32493962293E+01  0.85547369538E+00  0.38551209835E+02  0.51100000000E-03 0. -1.
         22    1    1    0    0    0 -0.13061593223E+02  0.46791435669E+01  0.24785825927E+02  0.28404872275E+02  0.00000000000E+00 0.  1.
</event>
<event>
 5    1  0.1111613E-009  0.9118800E+02  0.7818608E-02  0.1130116E+00
         25   -1    0    0    0    0  0.00000000000E+00  0.00000000000E+00  0.99999998245E-14  0.12500000000E+03  0.12500000000E+03 0.  0.
        -11    1    3    3    0    0 -0.27772688239E+02  0.42681897644E+02 -0.32764478135E+02  0.60552271850E+02  0.51100000000E-03 0.  1.
         23    2    1    0    0    0 -0.32073651366E+01  0.20449569633E+02 -0.20459912047E+02  0.95895359643E+02  0.91371986466E+02 0.  0.
         11    1    3    3    0    0  0.24565323103E+02 -0.22232328010E+02  0.12304566087E+02  0.35343087793E+02  0.51100000000E-03 0. -1.
         22    1    1    0    0    0  0.32073651366E+01 -0.20449569633E+02  0.20459912047E+02  0.29104640357E+02  0.00000000000E+00 0.  1.
</event>
<event>
 5    1  0.1111613E-009  0.9118800E+02  0.7818608E-02  0.1130116E+00
         25   -1    0    0    0    0  0.00000000000E+00  0.00000000000E+00  0.99999998245E-14  0.12500000000E+03  0.12500000000E+03 0.  0.
        -11    1    3    3    0    0  0.27962991116E+02 -0.16367451520E+02 -0.65949676820E+01  0.33065328373E+02  0.51100000000E-03 0.  1.
         23    2    1    0    0    0 -0.25950384981E+02  0.52218398484E+01  0.14457326326E+02  0.94838694051E+02  0.89914812532E+02 0.  0.
         11    1    3    3    0    0 -0.53913376097E+02  0.21589291369E+02  0.21052294008E+02  0.61773365678E+02  0.51100000000E-03 0. -1.
         22    1    1    0    0    0  0.25950384981E+02 -0.52218398484E+01 -0.14457326326E+02  0.30161305949E+02  0.00000000000E+00 0. -1.
</event>
<event>
 5    1  0.1111613E-009  0.9118800E+02  0.7818608E-02  0.1130116E+00
         25   -1    0    0    0    0  0.00000000000E+00  0.00000000000E+00  0.99999998245E-14  0.12500000000E+03  0.12500000000E+03 0.  0.
        -11    1    3    3    0    0 -0.32296524608E+02 -0.46026825574E+02  0.19850720064E+02  0.59628728492E+02  0.51100000000E-03 0. -1.
         23    2    1    0    0    0 -0.24581448592E+02 -0.13690589754E+02  0.35940858390E+01  0.96634575348E+02  0.92377723705E+02 0.  0.
         11    1    3    3    0    0  0.77150760167E+01  0.32336235820E+02 -0.16256634225E+02  0.37005846856E+02  0.51100000000E-03 0.  1.
         22    1    1    0    0    0  0.24581448592E+02  0.13690589754E+02 -0.35940858390E+01  0.28365424652E+02  0.00000000000E+00 0. -1.
</event>
<event>
 5    1  0.1111613E-009  0.9118800E+02  0.7818608E-02  0.1130116E+00
         25   -1    0    0    0    0  0.00000000000E+00  0.00000000000E+00  0.99999998245E-14  0.12500000000E+03  0.12500000000E+03 0.  0.
        -11    1    3    3    0    0  0.11482176544E+02 -0.33950552718E+02 -0.29038142019E+01  0.35957093114E+02  0.51100000000E-03 0.  1.
         23    2    1    0    0    0  0.14933128426E+02  0.23414997011E+02 -0.13049955040E+02  0.94315122028E+02  0.89183970011E+02 0.  0.
         11    1    3    3    0    0  0.34509518824E+01  0.57365549729E+02 -0.10146140838E+02  0.58358028914E+02  0.51100000000E-03 0. -1.
         22    1    1    0    0    0 -0.14933128426E+02 -0.23414997011E+02  0.13049955040E+02  0.30684877972E+02  0.00000000000E+00 0. -1.
</event>
<event>
 5    1  0.1111613E-009  0.9118800E+02  0.7818608E-02  0.1130116E+00
         25   -1    0    0    0    0  0.00000000000E+00  0.00000000000E+00  0.99999998245E-14  0.12500000000E+03  0.12500000000E+03 0.  0.
        -11    1    3    3    0    0  0.63509246774E+01  0.33474651287E+02  0.19713836184E+02  0.39363966523E+02  0.51100000000E-03 0.  1.
         23    2    1    0    0    0  0.96592964315E+01  0.73771386816E+01 -0.28349194801E+02  0.94155210674E+02  0.88959556364E+02 0.  0.
         11    1    3    3    0    0  0.33083717541E+01 -0.26097512606E+02 -0.48063030985E+02  0.54791244151E+02  0.51100000000E-03 0. -1.
         22    1    1    0    0    0 -0.96592964315E+01 -0.73771386816E+01  0.28349194801E+02  0.30844789326E+02  0.00000000000E+00 0. -1.
</event>
<event>
 5    1  0.1111613E-009  0.9118800E+02  0.7818608E-02  0.1130116E+00
         25   -1    0    0    0    0  0.00000000000E+00  0.00000000000E+00  0.99999998245E-14  0.12500000000E+03  0.12500000000E+03 0.  0.
        -11    1    3    3    0    0 -0.22984479922E+02 -0.45461709900E+02 -0.32489032825E+02  0.60420117829E+02  0.51100000000E-03 0.  1.
         23    2    1    0    0    0 -0.85156558164E+00 -0.26228974954E+02 -0.12317162984E+02  0.96010401951E+02  0.91529232968E+02 0.  0.
         11    1    3    3    0    0  0.22132914340E+02  0.19232734946E+02  0.20171869842E+02  0.35590284121E+02  0.51100000000E-03 0. -1.
         22    1    1    0    0    0  0.85156558164E+00  0.26228974954E+02  0.12317162984E+02  0.28989598049E+02  0.00000000000E+00 0.  1.
</event>
<event>
 5    1  0.1111613E-009  0.9118800E+02  0.7818608E-02  0.1130116E+00
         25   -1    0    0    0    0  0.00000000000E+00  0.00000000000E+00  0.99999998245E-14  0.12500000000E+03  0.12500000000E+03 0.  0.
        -11    1    3    3    0    0 -0.11017494562E+02  0.35692753784E+02  0.40320337428E+02  0.54964420034E+02  0.51100000000E-03 0.  1.
         23    2    1    0    0    0  0.13556820651E+02  0.61349572193E+01  0.24079669804E+02  0.96693541653E+02  0.92457478948E+02 0.  0.
         11    1    3    3    0    0  0.24574315213E+02 -0.29557796565E+02 -0.16240667624E+02  0.41729121619E+02  0.51100000000E-03 0. -1.
         22    1    1    0    0    0 -0.13556820651E+02 -0.61349572193E+01 -0.24079669804E+02  0.28306458347E+02  0.00000000000E+00 0.  1.
</event>
<event>
 5    1  0.1111613E-009  0.9118800E+02  0.7818608E-02  0.1130116E+00
         25   -1    0    0    0    0  0.00000000000E+00  0.00000000000E+00  0.99999998245E-14  0.12500000000E+03  0.12500000000E+03 0.  0.
        -11    1    3    3    0    0 -0.17040924870E+02  0.54232481024E+02 -0.64623399329E+01  0.57212908999E+02  0.51100000000E-03 0.  1.
         23    2    1    0    0    0  0.95251176972E+01  0.30143981503E+02 -0.34084483638E+01  0.93203695054E+02  0.87612349377E+02 0.  0.
         11    1    3    3    0    0  0.26566042567E+02 -0.24088499522E+02  0.30538915691E+01  0.35990786055E+02  0.51100000000E-03 0. -1.
         22    1    1    0    0    0 -0.95251176972E+01 -0.30143981503E+02  0.34084483638E+01  0.31796304946E+02  0.00000000000E+00 0.  1.
</event>
<event>
 5    1  0.1111613E-009  0.9118800E+02  0.7818608E-02  0.1130116E+00
         25   -1    0    0    0    0  0.00000000000E+00  0.00000000000E+00  0.99999998245E-14  0.12500000000E+03  0.12500000000E+03 0.  0.
        -11    1    3    3    0    0 -0.38538515006E+02 -0.25268773405E+02  0.30984824915E+02  0.55531859536E+02  0.51100000000E-03 0. -1.
         23    2    1    0    0    0 -0.37816153893E+01 -0.10281234908E+02  0.29633420200E+02  0.93406582982E+02  0.87901340976E+02 0.  0.
         11    1    3    3    0    0  0.34756899616E+02  0.14987538497E+02 -0.13514047156E+01  0.37874723446E+02  0.51100000000E-03 0.  1.
         22    1    1    0    0    0  0.37816153893E+01  0.10281234908E+02 -0.29633420200E+02  0.31593417018E+02  0.00000000000E+00 0. -1.
</event>
<event>
 5    1  0.1111613E-009  0.9118800E+02  0.7818608E-02  0.1130116E+00
         25   -1    0    0    0    0  0.00000000000E+00  0.00000000000E+00  0.99999998245E-14  0.12500000000E+03  0.12500000000E+03 0.  0.
        -11    1    3    3    0    0 -0.82322441660E+01 -0.55951288781E+02  0.19146055274E+01  0.56586060782E+02  0.51100000000E-03 0.  1.
         23    2    1    0    0    0 -0.21852160498E+02 -0.19053675386E+02 -0.64563165843E+00  0.96000408548E+02  0.91515584121E+02 0.  0.
         11    1    3    3    0    0 -0.13619916332E+02  0.36897613395E+02 -0.25602371858E+01  0.39414347766E+02  0.51100000000E-03 0. -1.
         22    1    1    0    0    0  0.21852160498E+02  0.19053675386E+02  0.64563165843E+00  0.28999591452E+02  0.00000000000E+00 0.  1.
</event>
<event>
 5    1  0.1111613E-009  0.9118800E+02  0.7818608E-02  0.1130116E+00
         25   -1    0    0    0    0  0.00000000000E+00  0.00000000000E+00  0.99999998245E-14  0.12500000000E+03  0.12500000000E+03 0.  0.
        -11    1    3    3    0    0 -0.11983482327E+02 -0.18112625838E+02  0.28836630305E+02  0.36100170513E+02  0.51100000000E-03 0.  1.
         23    2    1    0    0    0  0.11326491591E+02 -0.30042547826E+01 -0.25394882726E+02  0.97031892677E+02  0.92913794289E+02 0.  0.
         11    1    3    3    0    0  0.23309973919E+02  0.15108371055E+02 -0.54231513031E+02  0.60931722164E+02  0.51100000000E-03 0. -1.
         22    1    1    0    0    0 -0.11326491591E+02  0.30042547826E+01  0.25394882726E+02  0.27968107323E+02  0.00000000000E+00 0. -1.
</event>
<event>
 5    1  0.1111613E-009  0.9118800E+02  0.7818608E-02  0.1130116E+00
         25   -1    0    0    0    0  0.00000000000E+00  0.00000000000E+00  0.99999998245E-14  0.12500000000E+03  0.12500000000E+03 0.  0.
        -11    1    3    3    0    0  0.21576371728E+02  0.33555431353E+02  0.44933852481E+02  0.60087917998E+02  0.51100000000E-03 0.  1.
         23    2    1    0    0    0  0.22928841975E+01  0.77168604472E+01  0.26667525077E+02  0.97143866980E+02  0.93064315099E+02 0.  0.
         11    1    3    3    0    0 -0.19283487531E+02 -0.25838570906E+02 -0.18266327404E+02  0.37055948982E+02  0.51100000000E-03 0. -1.
         22    1    1    0    0    0 -0.22928841975E+01 -0.77168604472E+01 -0.26667525077E+02  0.27856133020E+02  0.00000000000E+00 0.  1.
</event>
<event>
 5    1  0.1111613E-009  0.9118800E+02  0.7818608E-02  0.1130116E+00
         25   -1    0    0    0    0  0.00000000000E+00  0.00000000000E+00  0.99999998245E-14  0.12500000000E+03  0.12500000000E+03 0.  0.
        -11    1    3    3    0    0 -0.22424490733E+02 -0.41660146745E+02  0.31058683921E+02  0.56595648760E+02  0.51100000000E-03 0. -1.
         23    2    1    0    0    0  0.60073989354E+01 -0.27220702790E+02  0.21217408268E+02  0.89968101451E+02  0.82867516933E+02 0.  0.
         11    1    3    3    0    0  0.28431889668E+02  0.14439443955E+02 -0.98412756537E+01  0.33372452690E+02  0.51100000000E-03 0.  1.
         22    1    1    0    0    0 -0.60073989354E+01  0.27220702790E+02 -0.21217408268E+02  0.35031898549E+02  0.00000000000E+00 0. -1.
</event>
<event>
 5    1  0.1111613E-009  0.9118800E+02  0.7818608E-02  0.1130116E+00
         25   -1    0    0    0    0  0.00000000000E+00  0.00000000000E+00  0.99999998245E-14  0.12500000000E+03  0.12500000000E+03 0.  0.
        -11    1    3    3    0    0 -0.33422579584E+02 -0.24702848336E+02  0.39966814569E+02  0.57659741666E+02  0.51100000000E-03 0.  1.
         23    2    1    0    0    0 -0.47946867846E+01 -0.25112529309E+02  0.18994688484E+02  0.93149939713E+02  0.87535620911E+02 0.  0.
         11    1    3    3    0    0  0.28627892799E+02 -0.40968097365E+00 -0.20972126085E+02  0.35490198047E+02  0.51100000000E-03 0. -1.
         22    1    1    0    0    0  0.47946867846E+01  0.25112529309E+02 -0.18994688484E+02  0.31850060287E+02  0.00000000000E+00 0.  1.
</event>
<event>
 5    1  0.1111613E-009  0.9118800E+02  0.7818608E-02  0.1130116E+00
         25   -1    0    0    0    0  0.00000000000E+00  0.00000000000E+00  0.99999998245E-14  0.12500000000E+03  0.12500000000E+03 0.  0.
        -11    1    3    3    0    0 -0.43920971124E+02  0.61591636788E+01  0.66078693122E+01  0.44840282546E+02  0.51100000000E-03 0. -1.
         23    2    1    0    0    0  0.12654744949E+01  0.26549901457E+02 -0.91984517260E+01  0.96873318588E+02  0.92700213846E+02 0.  0.
         11    1    3    3    0    0  0.45186445618E+02  0.20390737778E+02 -0.15806321038E+02  0.52033036043E+02  0.51100000000E-03 0.  1.
         22    1    1    0    0    0 -0.12654744949E+01 -0.26549901457E+02  0.91984517260E+01  0.28126681412E+02  0.00000000000E+00 0. -1.
</event>
<event>
 5    1  0.1111613E-009  0.9118800E+02  0.7818608E-02  0.1130116E+00
         25   -1    0    0    0    0  0.00000000000E+00  0.00000000000E+00  0.99999998245E-14  0.12500000000E+03  0.12500000000E+03 0.  0.
        -11    1    3    3    0    0  0.29102817898E+02 -0.14732940991E+02  0.18572019652E+02  0.37536029014E+02  0.51100000000E-03 0.  1.
         23    2    1    0    0    0 -0.20128603700E+02 -0.20132542157E+02 -0.10134852100E+02  0.94780880759E+02  0.89834404266E+02 0.  0.
         11    1    3    3    0    0 -0.49231421598E+02 -0.53996011661E+01 -0.28706871752E+02  0.57244851746E+02  0.51100000000E-03 0. -1.
         22    1    1    0    0    0  0.20128603700E+02  0.20132542157E+02  0.10134852100E+02  0.30219119241E+02  0.00000000000E+00 0. -1.
</event>
<event>
 5    1  0.1111613E-009  0.9118800E+02  0.7818608E-02  0.1130116E+00
         25   -1    0    0    0    0  0.00000000000E+00  0.00000000000E+00  0.99999998245E-14  0.12500000000E+03  0.12500000000E+03 0.  0.
        -11    1    3    3    0    0 -0.12592085117E+02 -0.37513156287E+02 -0.35686418260E+02  0.53285250780E+02  0.51100000000E-03 0. -1.
         23    2    1    0    0    0 -0.26770664866E+02 -0.81317279353E+01 -0.84795864091E+01  0.95764800629E+02  0.91193202363E+02 0.  0.
         11    1    3    3    0    0 -0.14178579750E+02  0.29381428352E+02  0.27206831851E+02  0.42479549849E+02  0.51100000000E-03 0.  1.
         22    1    1    0    0    0  0.26770664866E+02  0.81317279353E+01  0.84795864091E+01  0.29235199371E+02  0.00000000000E+00 0. -1.
</event>
<event>
 5    1  0.1111613E-009  0.9118800E+02  0.7818608E-02  0.1130116E+00
         25   -1    0    0    0    0  0.00000000000E+00  0.00000000000E+00  0.99999998245E-14  0.12500000000E+03  0.12500000000E+03 0.  0.
        -11    1    3    3    0    0 -0.27091486696E+02  0.38920962111E+02  0.37472067056E+02  0.60439604174E+02  0.51100000000E-03 0. -1.
         23    2    1    0    0    0 -0.15334816585E+02  0.22446897461E+02  0.71588365736E+01  0.96888280978E+02  0.92720387426E+02 0.  0.
         11    1    3    3    0    0  0.11756670111E+02 -0.16474064650E+02 -0.30313230482E+02  0.36448676803E+02  0.51100000000E-03 0.  1.
         22    1    1    0    0    0  0.15334816585E+02 -0.22446897461E+02 -0.71588365736E+01  0.28111719022E+02  0.00000000000E+00 0. -1.
</event>
<event>
 5    1  0.1111613E-009  0.9118800E+02  0.7818608E-02  0.1130116E+00
         25   -1    0    0    0    0  0.00000000000E+00  0.00000000000E+00  0.99999998245E-14  0.12500000000E+03  0.12500000000E+03 0.  0.
        -11    1    3    3    0    0  0.38880474964E+02 -0.24383669080E+02 -0.38991487730E+02  0.60221182045E+02  0.51100000000E-03 0.  1.
         23    2    1    0    0    0  0.19356868094E+02 -0.14500374907E+00 -0.22056168019E+02  0.95654064742E+02  0.91041288355E+02 0.  0.
         11    1    3    3    0    0 -0.19523606870E+02  0.24238665331E+02  0.16935319710E+02  0.35432882697E+02  0.51100000000E-03 0. -1.
         22    1    1    0    0    0 -0.19356868094E+02  0.14500374907E+00  0.22056168019E+02  0.29345935258E+02  0.00000000000E+00 0.  1.
</event>
<event>
 5    1  0.1111613E-009  0.9118800E+02  0.7818608E-02  0.1130116E+00
         25   -1    0    0    0    0  0.00000000000E+00  0.00000000000E+00  0.99999998245E-14  0.12500000000E+03  0.12500000000E+03 0.  0.
        -11    1    3    3    0    0 -0.28113888738E+02 -0.15575000254E+01  0.41503146360E+02  0.50153042823E+02  0.51100000000E-03 0.  1.
         23    2    1    0    0    0  0.93000252717E+01 -0.17958842424E+02  0.20942473775E+02  0.95886468798E+02  0.91359822676E+02 0.  0.
         11    1    3    3    0    0  0.37413914010E+02 -0.16401342398E+02 -0.20560672585E+02  0.45733425975E+02  0.51100000000E-03 0. -1.
         22    1    1    0    0    0 -0.93000252717E+01  0.17958842424E+02 -0.20942473775E+02  0.29113531202E+02  0.00000000000E+00 0. -1.
</event>
<event>
 5    1  0.1111613E-009  0.9118800E+02  0.7818608E-02  0.1130116E+00
         25   -1    0    0    0    0  0.00000000000E+00  0.00000000000E+00  0.99999998245E-14  0.12500000000E+03  0.12500000000E+03 0.  0.
        -11    1    3    3    0    0 -0.33005061422E+02  0.85124198174E+01 -0.88710067546E+01  0.35220592438E+02  0.51100000000E-03 0. -1.
         23    2    1    0    0    0  0.26080998357E+02 -0.90810113967E+01 -0.44316099422E+01  0.97029973007E+02  0.92911211658E+02 0.  0.
         11    1    3    3    0    0  0.59086059779E+02 -0.17593431214E+02  0.44393968124E+01  0.61809380569E+02  0.51100000000E-03 0.  1.
         22    1    1    0    0    0 -0.26080998357E+02  0.90810113967E+01  0.44316099422E+01  0.27970026993E+02  0.00000000000E+00 0.  1.
</event>
<event>
 5    1  0.1111613E-009  0.9118800E+02  0.7818608E-02  0.1130116E+00
         25   -1    0    0    0    0  0.00000000000E+00  0.00000000000E+00  0.99999998245E-14  0.12500000000E+03  0.12500000000E+03 0.  0.
        -11    1    3    3    0    0 -0.40422255159E+02 -0.39273246132E+02 -0.23393763003E+02  0.61021428380E+02  0.51100000000E-03 0. -1.
         23    2    1    0    0    0 -0.22249610582E+02 -0.19691439155E+02 -0.20468590769E+01  0.95217663303E+02  0.90440122876E+02 0.  0.
         11    1    3    3    0    0  0.18172644578E+02  0.19581806976E+02  0.21346903926E+02  0.34196234923E+02  0.51100000000E-03 0.  1.
         22    1    1    0    0    0  0.22249610582E+02  0.19691439155E+02  0.20468590769E+01  0.29782336697E+02  0.00000000000E+00 0. -1.
</event>
<event>
 5    1  0.1111613E-009  0.9118800E+02  0.7818608E-02  0.1130116E+00
         25   -1    0    0    0    0  0.00000000000E+00  0.00000000000E+00  0.99999998245E-14  0.12500000000E+03  0.12500000000E+03 0.  0.
        -11    1    3    3    0    0 -0.72115200461E+01 -0.29372046976E+01 -0.51702763737E+02  0.52285839107E+02  0.51100000000E-03 0. -1.
         23    2    1    0    0    0  0.21664048015E+02  0.11610528587E+01 -0.18410499537E+02  0.96546080879E+02  0.92257900582E+02 0.  0.
         11    1    3    3    0    0  0.28875568061E+02  0.40982575563E+01  0.33292264200E+02  0.44260241772E+02  0.51100000000E-03 0.  1.
         22    1    1    0    0    0 -0.21664048015E+02 -0.11610528587E+01  0.18410499537E+02  0.28453919121E+02  0.00000000000E+00 0. -1.
</event>
<event>
 5    1  0.1111613E-009  0.9118800E+02  0.7818608E-02  0.1130116E+00
         25   -1    0    0    0    0  0.00000000000E+00  0.00000000000E+00  0.99999998245E-14  0.12500000000E+03  0.12500000000E+03 0.  0.
        -11    1    3    3    0    0  0.30730651779E+02 -0.32129744901E+02 -0.42407253069E+02  0.61441586725E+02  0.51100000000E-03 0.  1.
         23    2    1    0    0    0  0.13832715342E+02 -0.20079926809E+02 -0.13196422386E+02  0.97274685968E+02  0.93239859996E+02 0.  0.
         11    1    3    3    0    0 -0.16897936438E+02  0.12049818092E+02  0.29210830683E+02  0.35833099243E+02  0.51100000000E-03 0. -1.
         22    1    1    0    0    0 -0.13832715342E+02  0.20079926809E+02  0.13196422386E+02  0.27725314032E+02  0.00000000000E+00 0.  1.
</event>
<event>
 5    1  0.1111613E-009  0.9118800E+02  0.7818608E-02  0.1130116E+00
         25   -1    0    0    0    0  0.00000000000E+00  0.00000000000E+00  0.99999998245E-14  0.12500000000E+03  0.12500000000E+03 0.  0.
        -11    1    3    3    0    0 -0.23318453464E+02  0.77148509088E+01  0.25115927207E+02  0.35129460517E+02  0.51100000000E-03 0. -1.
         23    2    1    0    0    0  0.76437562822E+01  0.45644596733E+01 -0.27408465792E+02  0.96181858157E+02  0.91763089198E+02 0.  0.
         11    1    3    3    0    0  0.30962209747E+02 -0.31503912354E+01 -0.52524392999E+02  0.61052397639E+02  0.51100000000E-03 0.  1.
         22    1    1    0    0    0 -0.76437562822E+01 -0.45644596733E+01  0.27408465792E+02  0.28818141843E+02  0.00000000000E+00 0.  1.
</event>
<event>
 5    1  0.1111613E-009  0.9118800E+02  0.7818608E-02  0.1130116E+00
         25   -1    0    0    0    0  0.00000000000E+00  0.00000000000E+00  0.99999998245E-14  0.12500000000E+03  0.12500000000E+03 0.  0.
        -11    1    3    3    0    0 -0.31622366940E+02 -0.19666949611E+02  0.76301776710E+01  0.38012926873E+02  0.51100000000E-03 0.  1.
         23    2    1    0    0    0  0.25116955393E+02 -0.15392303391E+02 -0.78156844773E+00  0.95531452341E+02  0.90872785174E+02 0.  0.
         11    1    3    3    0    0  0.56739322332E+02  0.42746462202E+01 -0.84117461187E+01  0.57518525468E+02  0.51100000000E-03 0. -1.
         22    1    1    0    0    0 -0.25116955393E+02  0.15392303391E+02  0.78156844773E+00  0.29468547659E+02  0.00000000000E+00 0. -1.
</event>
<event>
 5    1  0.1111613E-009  0.9118800E+02  0.7818608E-02  0.1130116E+00
         25   -1    0    0    0    0  0.00000000000E+00  0.00000000000E+00  0.99999998245E-14  0.12500000000E+03  0.12500000000E+03 0.  0.
        -11    1    3    3    0    0 -0.20321400729E+02 -0.43616545229E+01 -0.23025325591E+02  0.31018526345E+02  0.51100000000E-03 0. -1.
         23    2    1    0    0    0  0.32413495472E+01 -0.12509383728E+02  0.31488478618E+02  0.90963030191E+02  0.84354949752E+02 0.  0.
         11    1    3    3    0    0  0.23562750276E+02 -0.81477292047E+01  0.54513804209E+02  0.59944503846E+02  0.51100000000E-03 0.  1.
         22    1    1    0    0    0 -0.32413495472E+01  0.12509383728E+02 -0.31488478618E+02  0.34036969809E+02  0.00000000000E+00 0.  1.
</event>
<event>
 5    1  0.1111613E-009  0.9118800E+02  0.7818608E-02  0.1130116E+00
         25   -1    0    0    0    0  0.00000000000E+00  0.00000000000E+00  0.99999998245E-14  0.12500000000E+03  0.12500000000E+03 0.  0.
        -11    1    3    3    0    0  0.29590472639E+02  0.43483401570E+02 -0.31919634540E+02  0.61524510177E+02  0.51100000000E-03 0. -1.
         23    2    1    0    0    0  0.66716747148E+01  0.17985965557E+02 -0.18524387223E+02  0.98332433135E+02  0.94647283552E+02 0.  0.
         11    1    3    3    0    0 -0.22918797924E+02 -0.25497436013E+02  0.13395247317E+02  0.36807922958E+02  0.51100000000E-03 0.  1.
         22    1    1    0    0    0 -0.66716747148E+01 -0.17985965557E+02  0.18524387223E+02  0.26667566865E+02  0.00000000000E+00 0. -1.
</event>
<event>
 5    1  0.1111613E-009  0.9118800E+02  0.7818608E-02  0.1130116E+00
         25   -1    0    0    0    0  0.00000000000E+00  0.00000000000E+00  0.99999998245E-14  0.12500000000E+03  0.12500000000E+03 0.  0.
        -11    1    3    3    0    0 -0.26756224632E+02 -0.66500579519E+01 -0.27768957502E+02  0.39130982972E+02  0.51100000000E-03 0. -1.
         23    2    1    0    0    0 -0.13179897936E+02 -0.34074876367E+01  0.26522404966E+02  0.95187944607E+02  0.90399038444E+02 0.  0.
         11    1    3    3    0    0  0.13576326696E+02  0.32425703151E+01  0.54291362468E+02  0.56056961635E+02  0.51100000000E-03 0.  1.
         22    1    1    0    0    0  0.13179897936E+02  0.34074876367E+01 -0.26522404966E+02  0.29812055393E+02  0.00000000000E+00 0.  1.
</event>
<event>
 5    1  0.1111613E-009  0.9118800E+02  0.7818608E-02  0.1130116E+00
         25   -1    0    0    0    0  0.00000000000E+00  0.00000000000E+00  0.99999998245E-14  0.12500000000E+03  0.12500000000E+03 0.  0.
        -11    1    3    3    0    0 -0.34397343644E+02  0.32206319391E+02 -0.32209048353E+02  0.57077552983E+02  0.51100000000E-03 0.  1.
         23    2    1    0    0    0 -0.21265660636E+00  0.23919022074E+02 -0.18216219083E+02  0.94933482451E+02  0.90046491396E+02 0.  0.
         11    1    3    3    0    0  0.34184687038E+02 -0.82872973164E+01  0.13992829270E+02  0.37855929468E+02  0.51100000000E-03 0. -1.
         22    1    1    0    0    0  0.21265660636E+00 -0.23919022074E+02  0.18216219083E+02  0.30066517549E+02  0.00000000000E+00 0.  1.
</event>
<event>
 5    1  0.1111613E-009  0.9118800E+02  0.7818608E-02  0.1130116E+00
         25   -1    0    0    0    0  0.00000000000E+00  0.00000000000E+00  0.99999998245E-14  0.12500000000E+03  0.12500000000E+03 0.  0.
        -11    1    3    3    0    0  0.73223992179E+01 -0.22320958680E+02 -0.23109536412E+02  0.32952896688E+02  0.51100000000E-03 0. -1.
         23    2    1    0    0    0 -0.12822996765E+02  0.19364972773E+02  0.18581403527E+02  0.95256093506E+02  0.90493222820E+02 0.  0.
         11    1    3    3    0    0 -0.20145395983E+02  0.41685931452E+02  0.41690939939E+02  0.62303196817E+02  0.51100000000E-03 0.  1.
         22    1    1    0    0    0  0.12822996765E+02 -0.19364972773E+02 -0.18581403527E+02  0.29743906494E+02  0.00000000000E+00 0.  1.
</event>
<event>
 5    1  0.1111613E-009  0.9118800E+02  0.7818608E-02  0.1130116E+00
         25   -1    0    0    0    0  0.00000000000E+00  0.00000000000E+00  0.99999998245E-14  0.12500000000E+03  0.12500000000E+03 0.  0.
        -11    1    3    3    0    0 -0.34838733600E+02  0.13769330444E+02 -0.46256696368E+02  0.59523220501E+02  0.51100000000E-03 0.  1.
         23    2    1    0    0    0 -0.25632626719E+02  0.86570735915E+01 -0.11925248164E+02  0.95433329246E+02  0.90737711628E+02 0.  0.
         11    1    3    3    0    0  0.92061068806E+01 -0.51122568521E+01  0.34331448204E+02  0.35910108745E+02  0.51100000000E-03 0. -1.
         22    1    1    0    0    0  0.25632626719E+02 -0.86570735915E+01  0.11925248164E+02  0.29566670754E+02  0.00000000000E+00 0.  1.
</event>
<event>
 5    1  0.1111613E-009  0.9118800E+02  0.7818608E-02  0.1130116E+00
         25   -1    0    0    0    0  0.00000000000E+00  0.00000000000E+00  0.99999998245E-14  0.12500000000E+03  0.12500000000E+03 0.  0.
        -11    1    3    3    0    0  0.13836814214E+02  0.28163897421E+01  0.43546207998E+02  0.45778397854E+02  0.51100000000E-03 0. -1.
         23    2    1    0    0    0  0.30583496993E+02 -0.20759451418E+01 -0.17275769237E+01  0.94297486120E+02  0.89159248146E+02 0.  0.
         11    1    3    3    0    0  0.16746682779E+02 -0.48923348839E+01 -0.45273784922E+02  0.48519088266E+02  0.51100000000E-03 0.  1.
         22    1    1    0    0    0 -0.30583496993E+02  0.20759451418E+01  0.17275769237E+01  0.30702513880E+02  0.00000000000E+00 0. -1.
</event>
<event>
 5    1  0.1111613E-009  0.9118800E+02  0.7818608E-02  0.1130116E+00
         25   -1    0    0    0    0  0.00000000000E+00  0.00000000000E+00  0.99999998245E-14  0.12500000000E+03  0.12500000000E+03 0.  0.
        -11    1    3    3    0    0 -0.39214924500E+02  0.41364699227E+02  0.10518758213E+02  0.57961132842E+02  0.51100000000E-03 0. -1.
         23    2    1    0    0    0 -0.14009156422E+02  0.22952821189E+02 -0.11076798793E+02  0.95917635315E+02  0.91402455266E+02 0.  0.
         11    1    3    3    0    0  0.25205768078E+02 -0.18411878038E+02 -0.21595557007E+02  0.37956502473E+02  0.51100000000E-03 0.  1.
         22    1    1    0    0    0  0.14009156422E+02 -0.22952821189E+02  0.11076798793E+02  0.29082364685E+02  0.00000000000E+00 0. -1.
</event>
<event>
 5    1  0.1111613E-009  0.9118800E+02  0.7818608E-02  0.1130116E+00
         25   -1    0    0    0    0  0.00000000000E+00  0.00000000000E+00  0.99999998245E-14  0.12500000000E+03  0.12500000000E+03 0.  0.
        -11    1    3    3    0    0 -0.23775972364E+01 -0.25017131865E+02 -0.19282734241E+02  0.31675443097E+02  0.51100000000E-03 0. -1.
         23    2    1    0    0    0  0.13088804495E+02 -0.22069192918E-01  0.31800332807E+02  0.90611361515E+02  0.83832215639E+02 0.  0.
         11    1    3    3    0    0  0.15466401731E+02  0.24995062672E+02  0.51083067048E+02  0.58935918418E+02  0.51100000000E-03 0.  1.
         22    1    1    0    0    0 -0.13088804495E+02  0.22069192918E-01 -0.31800332807E+02  0.34388638485E+02  0.00000000000E+00 0.  1.
</event>
<event>
 5    1  0.1111613E-009  0.9118800E+02  0.7818608E-02  0.1130116E+00
         25   -1    0    0    0    0  0.00000000000E+00  0.00000000000E+00  0.99999998245E-14  0.12500000000E+03  0.12500000000E+03 0.  0.
        -11    1    3    3    0    0 -0.21061944206E+02  0.48922684425E+02  0.20900288045E+02  0.57217624782E+02  0.51100000000E-03 0.  1.
         23    2    1    0    0    0 -0.23300661259E+02  0.10487224019E+02  0.12180533337E+02  0.96693321016E+02  0.92457180651E+02 0.  0.
         11    1    3    3    0    0 -0.22387170531E+01 -0.38435460406E+02 -0.87197547072E+01  0.39475696233E+02  0.51100000000E-03 0. -1.
         22    1    1    0    0    0  0.23300661259E+02 -0.10487224019E+02 -0.12180533337E+02  0.28306678984E+02  0.00000000000E+00 0.  1.
</event>
<event>
 5    1  0.1111613E-009  0.9118800E+02  0.7818608E-02  0.1130116E+00
         25   -1    0    0    0    0  0.00000000000E+00  0.00000000000E+00  0.99999998245E-14  0.12500000000E+03  0.12500000000E+03 0.  0.
        -11    1    3    3    0    0  0.40999616093E+02 -0.24957280486E+02  0.73424463847E+01  0.48556625585E+02  0.51100000000E-03 0. -1.
         23    2    1    0    0    0 -0.68460329141E+00 -0.20322967520E+02 -0.18239491384E+02  0.97683874058E+02  0.93786824846E+02 0.  0.
         11    1    3    3    0    0 -0.41684219384E+02  0.46343129659E+01 -0.25581937769E+02  0.49127248474E+02  0.51100000000E-03 0.  1.
         22    1    1    0    0    0  0.68460329141E+00  0.20322967520E+02  0.18239491384E+02  0.27316125942E+02  0.00000000000E+00 0.  1.
</event>
<event>
 5    1  0.1111613E-009  0.9118800E+02  0.7818608E-02  0.1130116E+00
         25   -1    0    0    0    0  0.00000000000E+00  0.00000000000E+00  0.99999998245E-14  0.12500000000E+03  0.12500000000E+03 0.  0.
        -11    1    3    3    0    0 -0.21639822323E+01 -0.64032722773E+00  0.28269777401E+02  0.28359710024E+02  0.51100000000E-03 0. -1.
         23    2    1    0    0    0  0.17772384179E+02  0.75328654177E+01 -0.29347154229E+02  0.89873697005E+02  0.82724991697E+02 0.  0.
         11    1    3    3    0    0  0.19936366411E+02  0.81731926454E+01 -0.57616931629E+02  0.61513986981E+02  0.51100000000E-03 0.  1.
         22    1    1    0    0    0 -0.17772384179E+02 -0.75328654177E+01  0.29347154229E+02  0.35126302995E+02  0.00000000000E+00 0.  1.
</event>
<event>
 5    1  0.1111613E-009  0.9118800E+02  0.7818608E-02  0.1130116E+00
         25   -1    0    0    0    0  0.00000000000E+00  0.00000000000E+00  0.99999998245E-14  0.12500000000E+03  0.12500000000E+03 0.  0.
        -11    1    3    3    0    0 -0.12507899207E+02  0.11102956281E+02  0.30689052110E+02  0.34950552219E+02  0.51100000000E-03 0.  1.
         23    2    1    0    0    0 -0.10686388671E+02 -0.20321321067E+01 -0.27917226707E+02  0.95038357676E+02  0.90191958727E+02 0.  0.
         11    1    3    3    0    0  0.18215105358E+01 -0.13135088387E+02 -0.58606278817E+02  0.60087805457E+02  0.51100000000E-03 0. -1.
         22    1    1    0    0    0  0.10686388671E+02  0.20321321067E+01  0.27917226707E+02  0.29961642324E+02  0.00000000000E+00 0. -1.
</event>
<event>
 5    1  0.1111613E-009  0.9118800E+02  0.7818608E-02  0.1130116E+00
         25   -1    0    0    0    0  0.00000000000E+00  0.00000000000E+00  0.99999998245E-14  0.12500000000E+03  0.12500000000E+03 0.  0.
        -11    1    3    3    0    0  0.21083042121E+02  0.24935179470E+01 -0.30492310901E+02  0.37154990528E+02  0.51100000000E-03 0. -1.
         23    2    1    0    0    0 -0.16222861566E+02 -0.67651702788E+01  0.18536523392E+02  0.99454913080E+02  0.96118303512E+02 0.  0.
         11    1    3    3    0    0 -0.37305903687E+02 -0.92586882258E+01  0.49028834293E+02  0.62299922552E+02  0.51100000000E-03 0.  1.
         22    1    1    0    0    0  0.16222861566E+02  0.67651702788E+01 -0.18536523392E+02  0.25545086920E+02  0.00000000000E+00 0.  1.
</event>
<event>
 5    1  0.1111613E-009  0.9118800E+02  0.7818608E-02  0.1130116E+00
         25   -1    0    0    0    0  0.00000000000E+00  0.00000000000E+00  0.99999998245E-14  0.12500000000E+03  0.12500000000E+03 0.  0.
        -11    1    3    3    0    0  0.17527717092E+02 -0.34054625443E+02  0.73575853326E+01  0.39000928742E+02  0.51100000000E-03 0.  1.
         23    2    1    0    0    0  0.10511081163E+01 -0.19988544953E+01 -0.32317995300E+02  0.92603193556E+02  0.86751359580E+02 0.  0.
         11    1    3    3    0    0 -0.16476608976E+02  0.32055770948E+02 -0.39675580633E+02  0.53602264814E+02  0.51100000000E-03 0. -1.
         22    1    1    0    0    0 -0.10511081163E+01  0.19988544953E+01  0.32317995300E+02  0.32396806444E+02  0.00000000000E+00 0. -1.
</event>
<event>
 5    1  0.1111613E-009  0.9118800E+02  0.7818608E-02  0.1130116E+00
         25   -1    0    0    0    0  0.00000000000E+00  0.00000000000E+00  0.99999998245E-14  0.12500000000E+03  0.12500000000E+03 0.  0.
        -11    1    3    3    0    0  0.11651780226E+02 -0.32684881393E+02  0.10014361046E+02  0.36115825915E+02  0.51100000000E-03 0.  1.
         23    2    1    0    0    0 -0.40753764515E+01  0.10168141773E+02 -0.27626228567E+02  0.95281179277E+02  0.90527867638E+02 0.  0.
         11    1    3    3    0    0 -0.15727156677E+02  0.42853023167E+02 -0.37640589613E+02  0.59165353361E+02  0.51100000000E-03 0. -1.
         22    1    1    0    0    0  0.40753764515E+01 -0.10168141773E+02  0.27626228567E+02  0.29718820723E+02  0.00000000000E+00 0. -1.
</event>
<event>
 5    1  0.1111613E-009  0.9118800E+02  0.7818608E-02  0.1130116E+00
         25   -1    0    0    0    0  0.00000000000E+00  0.00000000000E+00  0.99999998245E-14  0.12500000000E+03  0.12500000000E+03 0.  0.
        -11    1    3    3    0    0 -0.10261975298E+02 -0.42768183740E+02  0.33105755344E+01  0.44106525459E+02  0.51100000000E-03 0.  1.
         23    2    1    0    0    0 -0.98646311066E+01  0.16602287360E+01 -0.25870606828E+02  0.97262739790E+02  0.93223843234E+02 0.  0.
         11    1    3    3    0    0  0.39734419168E+00  0.44428412476E+02 -0.29181182363E+02  0.53156214330E+02  0.51100000000E-03 0. -1.
         22    1    1    0    0    0  0.98646311066E+01 -0.16602287360E+01  0.25870606828E+02  0.27737260210E+02  0.00000000000E+00 0. -1.
</event>
<event>
 5    1  0.1111613E-009  0.9118800E+02  0.7818608E-02  0.1130116E+00
         25   -1    0    0    0    0  0.00000000000E+00  0.00000000000E+00  0.99999998245E-14  0.12500000000E+03  0.12500000000E+03 0.  0.
        -11    1    3    3    0    0  0.33008429929E+02 -0.41380900480E+02  0.25748520750E+02  0.58863585449E+02  0.51100000000E-03 0.  1.
         23    2    1    0    0    0  0.25759228895E+02 -0.20246939807E+02  0.97855441093E+00  0.92221439727E+02  0.86199535566E+02 0.  0.
         11    1    3    3    0    0 -0.72492010338E+01  0.21133960673E+02 -0.24769966339E+02  0.33357854278E+02  0.51100000000E-03 0. -1.
         22    1    1    0    0    0 -0.25759228895E+02  0.20246939807E+02 -0.97855441093E+00  0.32778560273E+02  0.00000000000E+00 0.  1.
</event>
<event>
 5    1  0.1111613E-009  0.9118800E+02  0.7818608E-02  0.1130116E+00
         25   -1    0    0    0    0  0.00000000000E+00  0.00000000000E+00  0.99999998245E-14  0.12500000000E+03  0.12500000000E+03 0.  0.
        -11    1    3    3    0    0 -0.35531804156E+02 -0.43320521176E+02 -0.12204338132E+02  0.57342153178E+02  0.51100000000E-03 0. -1.
         23    2    1    0    0    0 -0.14190585214E+02 -0.13225219580E+02 -0.22153472396E+02  0.95554194172E+02  0.90904062302E+02 0.  0.
         11    1    3    3    0    0  0.21341218942E+02  0.30095301596E+02 -0.99491342638E+01  0.38212040994E+02  0.51100000000E-03 0.  1.
         22    1    1    0    0    0  0.14190585214E+02  0.13225219580E+02  0.22153472396E+02  0.29445805828E+02  0.00000000000E+00 0. -1.
</event>
<event>
 5    1  0.1111613E-009  0.9118800E+02  0.7818608E-02  0.1130116E+00
         25   -1    0    0    0    0  0.00000000000E+00  0.00000000000E+00  0.99999998245E-14  0.12500000000E+03  0.12500000000E+03 0.  0.
        -11    1    3    3    0    0 -0.51962406988E+01 -0.47177713839E+02  0.11082949711E+02  0.48739813039E+02  0.51100000000E-03 0. -1.
         23    2    1    0    0    0 -0.27179587241E+02 -0.53005717427E+01  0.81805184614E+01  0.96125324145E+02  0.91686046029E+02 0.  0.
         11    1    3    3    0    0 -0.21983346543E+02  0.41877142097E+02 -0.29024312494E+01  0.47385511106E+02  0.51100000000E-03 0.  1.
         22    1    1    0    0    0  0.27179587241E+02  0.53005717427E+01 -0.81805184614E+01  0.28874675855E+02  0.00000000000E+00 0.  1.
</event>
<event>
 5    1  0.1111613E-009  0.9118800E+02  0.7818608E-02  0.1130116E+00
         25   -1    0    0    0    0  0.00000000000E+00  0.00000000000E+00  0.99999998245E-14  0.12500000000E+03  0.12500000000E+03 0.  0.
        -11    1    3    3    0    0  0.17763569401E+02 -0.54620402598E+02  0.23765719609E+01  0.57485484014E+02  0.51100000000E-03 0.  1.
         23    2    1    0    0    0  0.20487798473E+02 -0.17252386486E+02 -0.91667530899E+01  0.96690565390E+02  0.92453455033E+02 0.  0.
         11    1    3    3    0    0  0.27242290721E+01  0.37368016112E+02 -0.11543325051E+02  0.39205081376E+02  0.51100000000E-03 0. -1.
         22    1    1    0    0    0 -0.20487798473E+02  0.17252386486E+02  0.91667530899E+01  0.28309434610E+02  0.00000000000E+00 0.  1.
</event>
<event>
 5    1  0.1111613E-009  0.9118800E+02  0.7818608E-02  0.1130116E+00
         25   -1    0    0    0    0  0.00000000000E+00  0.00000000000E+00  0.99999998245E-14  0.12500000000E+03  0.12500000000E+03 0.  0.
        -11    1    3    3    0    0 -0.35949721196E+02 -0.39820402188E+02 -0.18953638983E+02  0.56897164389E+02  0.51100000000E-03 0. -1.
         23    2    1    0    0    0 -0.60931030438E+01 -0.16009839980E+02 -0.24101484310E+02  0.95431056380E+02  0.90734580480E+02 0.  0.
         11    1    3    3    0    0  0.29856618153E+02  0.23810562209E+02 -0.51478453267E+01  0.38533891991E+02  0.51100000000E-03 0.  1.
         22    1    1    0    0    0  0.60931030438E+01  0.16009839980E+02  0.24101484310E+02  0.29568943620E+02  0.00000000000E+00 0. -1.
</event>
<event>
 5    1  0.1111613E-009  0.9118800E+02  0.7818608E-02  0.1130116E+00
         25   -1    0    0    0    0  0.00000000000E+00  0.00000000000E+00  0.99999998245E-14  0.12500000000E+03  0.12500000000E+03 0.  0.
        -11    1    3    3    0    0  0.54254290489E+02  0.10477647572E+02 -0.24712022960E+01  0.55311987635E+02  0.51100000000E-03 0.  1.
         23    2    1    0    0    0  0.18325137893E+02  0.19783219118E+02  0.12430545107E+02  0.95306484056E+02  0.90562801492E+02 0.  0.
         11    1    3    3    0    0 -0.35929152596E+02  0.93055715457E+01  0.14901747403E+02  0.39994496421E+02  0.51100000000E-03 0. -1.
         22    1    1    0    0    0 -0.18325137893E+02 -0.19783219118E+02 -0.12430545107E+02  0.29693515944E+02  0.00000000000E+00 0.  1.
</event>
<event>
 5    1  0.1111613E-009  0.9118800E+02  0.7818608E-02  0.1130116E+00
         25   -1    0    0    0    0  0.00000000000E+00  0.00000000000E+00  0.99999998245E-14  0.12500000000E+03  0.12500000000E+03 0.  0.
        -11    1    3    3    0    0 -0.38353937699E+02  0.27054814220E+02  0.28068337194E+02  0.54688381422E+02  0.51100000000E-03 0.  1.
         23    2    1    0    0    0 -0.26096962726E+02 -0.78423400538E+01  0.89935225838E+01  0.96304404353E+02  0.91929870490E+02 0.  0.
         11    1    3    3    0    0  0.12256974973E+02 -0.34897154274E+02 -0.19074814610E+02  0.41616022931E+02  0.51100000000E-03 0. -1.
         22    1    1    0    0    0  0.26096962726E+02  0.78423400538E+01 -0.89935225838E+01  0.28695595647E+02  0.00000000000E+00 0.  1.
</event>
<event>
 5    1  0.1111613E-009  0.9118800E+02  0.7818608E-02  0.1130116E+00
         25   -1    0    0    0    0  0.00000000000E+00  0.00000000000E+00  0.99999998245E-14  0.12500000000E+03  0.12500000000E+03 0.  0.
        -11    1    3    3    0    0 -0.12967024694E+02  0.34819684806E+02  0.16485277809E+02  0.40648721556E+02  0.51100000000E-03 0. -1.
         23    2    1    0    0    0  0.17572088359E+02  0.92759315169E+01 -0.21533832350E+02  0.95699366381E+02  0.91103466429E+02 0.  0.
         11    1    3    3    0    0  0.30539113053E+02 -0.25543753289E+02 -0.38019110159E+02  0.55050644825E+02  0.51100000000E-03 0.  1.
         22    1    1    0    0    0 -0.17572088359E+02 -0.92759315169E+01  0.21533832350E+02  0.29300633619E+02  0.00000000000E+00 0. -1.
</event>
<event>
 5    1  0.1111613E-009  0.9118800E+02  0.7818608E-02  0.1130116E+00
         25   -1    0    0    0    0  0.00000000000E+00  0.00000000000E+00  0.99999998245E-14  0.12500000000E+03  0.12500000000E+03 0.  0.
        -11    1    3    3    0    0  0.22093006282E+02  0.21773970969E+02 -0.15443992667E+02  0.34651459538E+02  0.51100000000E-03 0.  1.
         23    2    1    0    0    0 -0.10697979298E+02 -0.27195422779E+02  0.73722663361E+00  0.95766777730E+02  0.91195912367E+02 0.  0.
         11    1    3    3    0    0 -0.32790985581E+02 -0.48969393747E+02  0.16181219301E+02  0.61115318192E+02  0.51100000000E-03 0. -1.
         22    1    1    0    0    0  0.10697979298E+02  0.27195422779E+02 -0.73722663361E+00  0.29233222270E+02  0.00000000000E+00 0. -1.
</event>
<event>
 5    1  0.1111613E-009  0.9118800E+02  0.7818608E-02  0.1130116E+00
         25   -1    0    0    0    0  0.00000000000E+00  0.00000000000E+00  0.99999998245E-14  0.12500000000E+03  0.12500000000E+03 0.  0.
        -11    1    3    3    0    0  0.13597640398E+01 -0.34175355018E+02 -0.14771329361E+02  0.37255818608E+02  0.51100000000E-03 0. -1.
         23    2    1    0    0    0 -0.21439605454E+01  0.45360432786E+01  0.28869954670E+02  0.95697328823E+02  0.91100670721E+02 0.  0.
         11    1    3    3    0    0 -0.35037245852E+01  0.38711398296E+02  0.43641284031E+02  0.58441510215E+02  0.51100000000E-03 0.  1.
         22    1    1    0    0    0  0.21439605454E+01 -0.45360432786E+01 -0.28869954670E+02  0.29302671177E+02  0.00000000000E+00 0. -1.
</event>
<event>
 5    1  0.1111613E-009  0.9118800E+02  0.7818608E-02  0.1130116E+00
         25   -1    0    0    0    0  0.00000000000E+00  0.00000000000E+00  0.99999998245E-14  0.12500000000E+03  0.12500000000E+03 0.  0.
        -11    1    3    3    0    0  0.20470757095E+02 -0.16221418487E+02  0.25427157456E+02  0.36451702983E+02  0.51100000000E-03 0.  1.
         23    2    1    0    0    0 -0.27087580278E+01  0.27156061020E+02 -0.87473930682E+01  0.96341564842E+02  0.91980384923E+02 0.  0.
         11    1    3    3    0    0 -0.23179515123E+02  0.43377479507E+02 -0.34174550524E+02  0.59889861860E+02  0.51100000000E-03 0. -1.
         22    1    1    0    0    0  0.27087580278E+01 -0.27156061020E+02  0.87473930682E+01  0.28658435158E+02  0.00000000000E+00 0. -1.
</event>
<event>
 5    1  0.1111613E-009  0.9118800E+02  0.7818608E-02  0.1130116E+00
         25   -1    0    0    0    0  0.00000000000E+00  0.00000000000E+00  0.99999998245E-14  0.12500000000E+03  0.12500000000E+03 0.  0.
        -11    1    3    3    0    0  0.33386779867E+02  0.43404780909E+02  0.19172822082E+02  0.58019386264E+02  0.51100000000E-03 0.  1.
         23    2    1    0    0    0  0.11643326481E+00  0.25439745074E+02  0.13330754858E+02  0.96278871693E+02  0.91895146352E+02 0.  0.
         11    1    3    3    0    0 -0.33270346602E+02 -0.17965035834E+02 -0.58420672241E+01  0.38259485428E+02  0.51100000000E-03 0. -1.
         22    1    1    0    0    0 -0.11643326481E+00 -0.25439745074E+02 -0.13330754858E+02  0.28721128307E+02  0.00000000000E+00 0.  1.
</event>
<event>
 5    1  0.1111613E-009  0.9118800E+02  0.7818608E-02  0.1130116E+00
         25   -1    0    0    0    0  0.00000000000E+00  0.00000000000E+00  0.99999998245E-14  0.12500000000E+03  0.12500000000E+03 0.  0.
        -11    1    3    3    0    0  0.51636863319E+02  0.31880609671E+02  0.64664678501E+01  0.61029125285E+02  0.51100000000E-03 0. -1.
         23    2    1    0    0    0  0.28358449665E+02  0.74116370234E+01 -0.12118934495E+01  0.95663968971E+02  0.91054885881E+02 0.  0.
         11    1    3    3    0    0 -0.23278413653E+02 -0.24468972648E+02 -0.76783612996E+01  0.34634843686E+02  0.51100000000E-03 0.  1.
         22    1    1    0    0    0 -0.28358449665E+02 -0.74116370234E+01  0.12118934495E+01  0.29336031029E+02  0.00000000000E+00 0. -1.
</event>
<event>
 5    1  0.1111613E-009  0.9118800E+02  0.7818608E-02  0.1130116E+00
         25   -1    0    0    0    0  0.00000000000E+00  0.00000000000E+00  0.99999998245E-14  0.12500000000E+03  0.12500000000E+03 0.  0.
        -11    1    3    3    0    0 -0.33428099530E+01 -0.12833387093E+01 -0.21056059283E+02  0.21358346599E+02  0.51100000000E-03 0.  1.
         23    2    1    0    0    0 -0.89613954586E+01 -0.49037426257E+02  0.28744508940E+01  0.75067663279E+02  0.56052794932E+02 0.  0.
         11    1    3    3    0    0 -0.56185855056E+01 -0.47754087548E+02  0.23930510177E+02  0.53709316680E+02  0.51100000000E-03 0. -1.
         22    1    1    0    0    0  0.89613954586E+01  0.49037426257E+02 -0.28744508940E+01  0.49932336721E+02  0.00000000000E+00 0. -1.
</event>
<event>
 5    1  0.1111613E-009  0.9118800E+02  0.7818608E-02  0.1130116E+00
         25   -1    0    0    0    0  0.00000000000E+00  0.00000000000E+00  0.99999998245E-14  0.12500000000E+03  0.12500000000E+03 0.  0.
        -11    1    3    3    0    0  0.34321724852E+01  0.33250559171E+02  0.37287259438E+02  0.50077132604E+02  0.51100000000E-03 0. -1.
         23    2    1    0    0    0 -0.25040915180E+02  0.64125751438E+01  0.15426875226E+02  0.94897557702E+02  0.89996607856E+02 0.  0.
         11    1    3    3    0    0 -0.28473087665E+02 -0.26837984028E+02 -0.21860384212E+02  0.44820425098E+02  0.51100000000E-03 0.  1.
         22    1    1    0    0    0  0.25040915180E+02 -0.64125751438E+01 -0.15426875226E+02  0.30102442298E+02  0.00000000000E+00 0.  1.
</event>
<event>
 5    1  0.1111613E-009  0.9118800E+02  0.7818608E-02  0.1130116E+00
         25   -1    0    0    0    0  0.00000000000E+00  0.00000000000E+00  0.99999998245E-14  0.12500000000E+03  0.12500000000E+03 0.  0.
        -11    1    3    3    0    0 -0.32996413339E+02 -0.10395418344E+02  0.17433780515E+02  0.38739704686E+02  0.51100000000E-03 0.  1.
         23    2    1    0    0    0  0.24638510073E+02 -0.73083552251E+01  0.11766617674E+02  0.96734800085E+02  0.92513242411E+02 0.  0.
         11    1    3    3    0    0  0.57634923413E+02  0.30870631187E+01 -0.56671628413E+01  0.57995095400E+02  0.51100000000E-03 0. -1.
         22    1    1    0    0    0 -0.24638510073E+02  0.73083552251E+01 -0.11766617674E+02  0.28265199915E+02  0.00000000000E+00 0. -1.
</event>
<event>
 5    1  0.1111613E-009  0.9118800E+02  0.7818608E-02  0.1130116E+00
         25   -1    0    0    0    0  0.00000000000E+00  0.00000000000E+00  0.99999998245E-14  0.12500000000E+03  0.12500000000E+03 0.  0.
        -11    1    3    3    0    0  0.23317574627E+02 -0.18855748104E+02  0.23552743382E+02  0.38131092878E+02  0.51100000000E-03 0.  1.
         23    2    1    0    0    0  0.91627793266E+01  0.22471506218E+02 -0.15064123209E+02  0.96436860734E+02  0.92109799606E+02 0.  0.
         11    1    3    3    0    0 -0.14154795300E+02  0.41327254321E+02 -0.38616866590E+02  0.58305767856E+02  0.51100000000E-03 0. -1.
         22    1    1    0    0    0 -0.91627793266E+01 -0.22471506218E+02  0.15064123209E+02  0.28563139266E+02  0.00000000000E+00 0. -1.
</event>
<event>
 5    1  0.1111613E-009  0.9118800E+02  0.7818608E-02  0.1130116E+00
         25   -1    0    0    0    0  0.00000000000E+00  0.00000000000E+00  0.99999998245E-14  0.12500000000E+03  0.12500000000E+03 0.  0.
        -11    1    3    3    0    0 -0.38413374112E+01  0.13038668819E+02  0.31114134663E+02  0.33953676292E+02  0.51100000000E-03 0.  1.
         23    2    1    0    0    0 -0.53938244360E+01  0.21011856814E+01 -0.29179943401E+02  0.95251429947E+02  0.90486780729E+02 0.  0.
         11    1    3    3    0    0 -0.15524870248E+01 -0.10937483137E+02 -0.60294078064E+02  0.61297753655E+02  0.51100000000E-03 0. -1.
         22    1    1    0    0    0  0.53938244360E+01 -0.21011856814E+01  0.29179943401E+02  0.29748570053E+02  0.00000000000E+00 0. -1.
</event>
<event>
 5    1  0.1111613E-009  0.9118800E+02  0.7818608E-02  0.1130116E+00
         25   -1    0    0    0    0  0.00000000000E+00  0.00000000000E+00  0.99999998245E-14  0.12500000000E+03  0.12500000000E+03 0.  0.
        -11    1    3    3    0    0 -0.35600148051E+02 -0.25151460462E+01 -0.22132383549E+02  0.41994510388E+02  0.51100000000E-03 0. -1.
         23    2    1    0    0    0 -0.48305371354E+01 -0.19221673692E+02  0.20045369412E+02  0.96810930072E+02  0.92616048922E+02 0.  0.
         11    1    3    3    0    0  0.30769610916E+02 -0.16706527646E+02  0.42177752961E+02  0.54816419684E+02  0.51100000000E-03 0.  1.
         22    1    1    0    0    0  0.48305371354E+01  0.19221673692E+02 -0.20045369412E+02  0.28189069928E+02  0.00000000000E+00 0.  1.
</event>
<event>
 5    1  0.1111613E-009  0.9118800E+02  0.7818608E-02  0.1130116E+00
         25   -1    0    0    0    0  0.00000000000E+00  0.00000000000E+00  0.99999998245E-14  0.12500000000E+03  0.12500000000E+03 0.  0.
        -11    1    3    3    0    0 -0.12531606982E+02 -0.37924535032E+02 -0.38090487651E+01  0.40122567013E+02  0.51100000000E-03 0.  1.
         23    2    1    0    0    0 -0.64296997786E+01  0.16613779265E+02 -0.20840369644E+02  0.97583222151E+02  0.93652578917E+02 0.  0.
         11    1    3    3    0    0  0.61019072035E+01  0.54538314296E+02 -0.17031320879E+02  0.57460655139E+02  0.51100000000E-03 0. -1.
         22    1    1    0    0    0  0.64296997786E+01 -0.16613779265E+02  0.20840369644E+02  0.27416777849E+02  0.00000000000E+00 0. -1.
</event>
<event>
 5    1  0.1111613E-009  0.9118800E+02  0.7818608E-02  0.1130116E+00
         25   -1    0    0    0    0  0.00000000000E+00  0.00000000000E+00  0.99999998245E-14  0.12500000000E+03  0.12500000000E+03 0.  0.
        -11    1    3    3    0    0 -0.54286167623E+02 -0.27087059675E+01 -0.22022338038E+01  0.54398298844E+02  0.51100000000E-03 0. -1.
         23    2    1    0    0    0 -0.19970379523E+02  0.79069074399E+01  0.19182590213E+02  0.96202308932E+02  0.91790943089E+02 0.  0.
         11    1    3    3    0    0  0.34315788100E+02  0.10615613407E+02  0.21384824017E+02  0.41804010088E+02  0.51100000000E-03 0.  1.
         22    1    1    0    0    0  0.19970379523E+02 -0.79069074399E+01 -0.19182590213E+02  0.28797691068E+02  0.00000000000E+00 0. -1.
</event>
<event>
 5    1  0.1111613E-009  0.9118800E+02  0.7818608E-02  0.1130116E+00
         25   -1    0    0    0    0  0.00000000000E+00  0.00000000000E+00  0.99999998245E-14  0.12500000000E+03  0.12500000000E+03 0.  0.
        -11    1    3    3    0    0  0.75357585619E+01 -0.27575598255E+02  0.22055542411E+02  0.36106069124E+02  0.51100000000E-03 0.  1.
         23    2    1    0    0    0 -0.21711109159E+02  0.59934485407E+01 -0.18133302609E+02  0.96084427209E+02  0.91630272303E+02 0.  0.
         11    1    3    3    0    0 -0.29246867720E+02  0.33569046796E+02 -0.40188845021E+02  0.59978358085E+02  0.51100000000E-03 0. -1.
         22    1    1    0    0    0  0.21711109159E+02 -0.59934485407E+01  0.18133302609E+02  0.28915572791E+02  0.00000000000E+00 0. -1.
</event>
<event>
 5    1  0.1111613E-009  0.9118800E+02  0.7818608E-02  0.1130116E+00
         25   -1    0    0    0    0  0.00000000000E+00  0.00000000000E+00  0.99999998245E-14  0.12500000000E+03  0.12500000000E+03 0.  0.
        -11    1    3    3    0    0 -0.32061908986E+02 -0.23817438113E+02 -0.45073905634E+01  0.40193941534E+02  0.51100000000E-03 0. -1.
         23    2    1    0    0    0  0.78298405148E+01  0.13405038908E+02 -0.22517001589E+02  0.97650103635E+02  0.93741804488E+02 0.  0.
         11    1    3    3    0    0  0.39891749501E+02  0.37222477021E+02 -0.18009611026E+02  0.57456162101E+02  0.51100000000E-03 0.  1.
         22    1    1    0    0    0 -0.78298405148E+01 -0.13405038908E+02  0.22517001589E+02  0.27349896365E+02  0.00000000000E+00 0.  1.
</event>
<event>
 5    1  0.1111613E-009  0.9118800E+02  0.7818608E-02  0.1130116E+00
         25   -1    0    0    0    0  0.00000000000E+00  0.00000000000E+00  0.99999998245E-14  0.12500000000E+03  0.12500000000E+03 0.  0.
        -11    1    3    3    0    0 -0.36354679575E+02 -0.18606240125E+02  0.12108280303E+01  0.40857324966E+02  0.51100000000E-03 0. -1.
         23    2    1    0    0    0 -0.80775352924E+01  0.23984486008E+02  0.17174260698E+02  0.94414752314E+02  0.89323502386E+02 0.  0.
         11    1    3    3    0    0  0.28277144283E+02  0.42590726133E+02  0.15963432668E+02  0.53557427348E+02  0.51100000000E-03 0.  1.
         22    1    1    0    0    0  0.80775352924E+01 -0.23984486008E+02 -0.17174260698E+02  0.30585247686E+02  0.00000000000E+00 0.  1.
</event>
<event>
 5    1  0.1111613E-009  0.9118800E+02  0.7818608E-02  0.1130116E+00
         25   -1    0    0    0    0  0.00000000000E+00  0.00000000000E+00  0.99999998245E-14  0.12500000000E+03  0.12500000000E+03 0.  0.
        -11    1    3    3    0    0  0.23861600258E+02 -0.13828721030E+02  0.41518855042E+02  0.49844004820E+02  0.51100000000E-03 0. -1.
         23    2    1    0    0    0 -0.69991919417E+01 -0.27311421485E+02  0.13094107297E+02  0.93913699524E+02  0.88619551348E+02 0.  0.
         11    1    3    3    0    0 -0.30860792199E+02 -0.13482700455E+02 -0.28424747745E+02  0.44069694705E+02  0.51100000000E-03 0.  1.
         22    1    1    0    0    0  0.69991919417E+01  0.27311421485E+02 -0.13094107297E+02  0.31086300476E+02  0.00000000000E+00 0. -1.
</event>
<event>
 5    1  0.1111613E-009  0.9118800E+02  0.7818608E-02  0.1130116E+00
         25   -1    0    0    0    0  0.00000000000E+00  0.00000000000E+00  0.99999998245E-14  0.12500000000E+03  0.12500000000E+03 0.  0.
        -11    1    3    3    0    0 -0.47143612435E+02  0.34893570346E+02 -0.75398500607E+01  0.59134852533E+02  0.51100000000E-03 0. -1.
         23    2    1    0    0    0 -0.21887228833E+02  0.32295636257E+02  0.11473423759E+01  0.85969559293E+02  0.76598889178E+02 0.  0.
         11    1    3    3    0    0  0.25256383602E+02 -0.25979340887E+01  0.86871924366E+01  0.26834706760E+02  0.51100000000E-03 0.  1.
         22    1    1    0    0    0  0.21887228833E+02 -0.32295636257E+02 -0.11473423759E+01  0.39030440707E+02  0.00000000000E+00 0. -1.
</event>
<event>
 5    1  0.1111613E-009  0.9118800E+02  0.7818608E-02  0.1130116E+00
         25   -1    0    0    0    0  0.00000000000E+00  0.00000000000E+00  0.99999998245E-14  0.12500000000E+03  0.12500000000E+03 0.  0.
        -11    1    3    3    0    0  0.29795893473E+02  0.30651216712E+02  0.87445094677E+01  0.43632084524E+02  0.51100000000E-03 0.  1.
         23    2    1    0    0    0 -0.54065459831E+01 -0.11330004848E+02  0.21700079981E+02  0.99930232939E+02  0.96734472835E+02 0.  0.
         11    1    3    3    0    0 -0.35202439456E+02 -0.41981221561E+02  0.12955570513E+02  0.56298148415E+02  0.51100000000E-03 0. -1.
         22    1    1    0    0    0  0.54065459831E+01  0.11330004848E+02 -0.21700079981E+02  0.25069767061E+02  0.00000000000E+00 0. -1.
</event>
<event>
 5    1  0.1111613E-009  0.9118800E+02  0.7818608E-02  0.1130116E+00
         25   -1    0    0    0    0  0.00000000000E+00  0.00000000000E+00  0.99999998245E-14  0.12500000000E+03  0.12500000000E+03 0.  0.
        -11    1    3    3    0    0  0.60143368230E+01  0.21675351504E+02 -0.52942798996E+02  0.57523326364E+02  0.51100000000E-03 0.  1.
         23    2    1    0    0    0  0.17972273500E+02  0.13049722689E+01 -0.26163863373E+02  0.93231252559E+02  0.87651657941E+02 0.  0.
         11    1    3    3    0    0  0.11957936677E+02 -0.20370379235E+02  0.26778935623E+02  0.35707926195E+02  0.51100000000E-03 0. -1.
         22    1    1    0    0    0 -0.17972273500E+02 -0.13049722689E+01  0.26163863373E+02  0.31768747441E+02  0.00000000000E+00 0.  1.
</event>
<event>
 5    1  0.1111613E-009  0.9118800E+02  0.7818608E-02  0.1130116E+00
         25   -1    0    0    0    0  0.00000000000E+00  0.00000000000E+00  0.99999998245E-14  0.12500000000E+03  0.12500000000E+03 0.  0.
        -11    1    3    3    0    0  0.26191985020E+02 -0.12151984317E+02  0.39269482560E+02  0.48742005118E+02  0.51100000000E-03 0.  1.
         23    2    1    0    0    0  0.27972058097E+02 -0.35459370609E+01 -0.70893689305E+01  0.95926492202E+02  0.91414566949E+02 0.  0.
         11    1    3    3    0    0  0.17800730771E+01  0.86060472561E+01 -0.46358851491E+02  0.47184487084E+02  0.51100000000E-03 0. -1.
         22    1    1    0    0    0 -0.27972058097E+02  0.35459370609E+01  0.70893689305E+01  0.29073507798E+02  0.00000000000E+00 0. -1.
</event>
<event>
 5    1  0.1111613E-009  0.9118800E+02  0.7818608E-02  0.1130116E+00
         25   -1    0    0    0    0  0.00000000000E+00  0.00000000000E+00  0.99999998245E-14  0.12500000000E+03  0.12500000000E+03 0.  0.
        -11    1    3    3    0    0 -0.18665904067E+02  0.11955220364E+02 -0.27898520336E+02  0.35632438954E+02  0.51100000000E-03 0. -1.
         23    2    1    0    0    0 -0.18202022923E+01 -0.18401409912E+02  0.21899570408E+02  0.96337895974E+02  0.91975398849E+02 0.  0.
         11    1    3    3    0    0  0.16845701774E+02 -0.30356630276E+02  0.49798090745E+02  0.60705457020E+02  0.51100000000E-03 0.  1.
         22    1    1    0    0    0  0.18202022923E+01  0.18401409912E+02 -0.21899570408E+02  0.28662104026E+02  0.00000000000E+00 0.  1.
</event>
<event>
 5    1  0.1111613E-009  0.9118800E+02  0.7818608E-02  0.1130116E+00
         25   -1    0    0    0    0  0.00000000000E+00  0.00000000000E+00  0.99999998245E-14  0.12500000000E+03  0.12500000000E+03 0.  0.
        -11    1    3    3    0    0 -0.33812061695E+02 -0.10077530460E+01  0.17228604088E+02  0.37961768680E+02  0.51100000000E-03 0. -1.
         23    2    1    0    0    0  0.16606165669E+02  0.20053507186E+02 -0.74523765971E+01  0.97917795407E+02  0.94098081020E+02 0.  0.
         11    1    3    3    0    0  0.50418227363E+02  0.21061260232E+02 -0.24680980685E+02  0.59956026727E+02  0.51100000000E-03 0.  1.
         22    1    1    0    0    0 -0.16606165669E+02 -0.20053507186E+02  0.74523765971E+01  0.27082204593E+02  0.00000000000E+00 0.  1.
</event>
<event>
 5    1  0.1111613E-009  0.9118800E+02  0.7818608E-02  0.1130116E+00
         25   -1    0    0    0    0  0.00000000000E+00  0.00000000000E+00  0.99999998245E-14  0.12500000000E+03  0.12500000000E+03 0.  0.
        -11    1    3    3    0    0 -0.24968680761E+02  0.37228297495E+02 -0.26591306647E+02  0.52119849796E+02  0.51100000000E-03 0. -1.
         23    2    1    0    0    0  0.12040505943E+02  0.26615056867E+02 -0.91367596823E+01  0.94392559517E+02  0.89292440214E+02 0.  0.
         11    1    3    3    0    0  0.37009186705E+02 -0.10613240628E+02  0.17454546965E+02  0.42272709721E+02  0.51100000000E-03 0.  1.
         22    1    1    0    0    0 -0.12040505943E+02 -0.26615056867E+02  0.91367596823E+01  0.30607440483E+02  0.00000000000E+00 0. -1.
</event>
<event>
 5    1  0.1111613E-009  0.9118800E+02  0.7818608E-02  0.1130116E+00
         25   -1    0    0    0    0  0.00000000000E+00  0.00000000000E+00  0.99999998245E-14  0.12500000000E+03  0.12500000000E+03 0.  0.
        -11    1    3    3    0    0  0.13273975061E+02  0.55119835624E+02  0.15831401105E+02  0.58864488058E+02  0.51100000000E-03 0.  1.
         23    2    1    0    0    0  0.74402849498E+00  0.22010090483E+02  0.20914304870E+02  0.94628865519E+02  0.89622633189E+02 0.  0.
         11    1    3    3    0    0 -0.12529946566E+02 -0.33109745141E+02  0.50829037653E+01  0.35764377461E+02  0.51100000000E-03 0. -1.
         22    1    1    0    0    0 -0.74402849498E+00 -0.22010090483E+02 -0.20914304870E+02  0.30371134481E+02  0.00000000000E+00 0.  1.
</event>
<event>
 5    1  0.1111613E-009  0.9118800E+02  0.7818608E-02  0.1130116E+00
         25   -1    0    0    0    0  0.00000000000E+00  0.00000000000E+00  0.99999998245E-14  0.12500000000E+03  0.12500000000E+03 0.  0.
        -11    1    3    3    0    0 -0.25473836344E+02 -0.50787910228E+02 -0.19142865922E+02  0.59956463199E+02  0.51100000000E-03 0.  1.
         23    2    1    0    0    0  0.11669001026E-01 -0.27124200684E+02 -0.11352235745E+02  0.95595992530E+02  0.90961520064E+02 0.  0.
         11    1    3    3    0    0  0.25485505345E+02  0.23663709544E+02  0.77906301771E+01  0.35639529330E+02  0.51100000000E-03 0. -1.
         22    1    1    0    0    0 -0.11669001026E-01  0.27124200684E+02  0.11352235745E+02  0.29404007470E+02  0.00000000000E+00 0.  1.
</event>
<event>
 5    1  0.1111613E-009  0.9118800E+02  0.7818608E-02  0.1130116E+00
         25   -1    0    0    0    0  0.00000000000E+00  0.00000000000E+00  0.99999998245E-14  0.12500000000E+03  0.12500000000E+03 0.  0.
        -11    1    3    3    0    0 -0.15790769932E+02  0.96199794859E+00 -0.48262488798E+02  0.50789188617E+02  0.51100000000E-03 0. -1.
         23    2    1    0    0    0  0.15083563613E+02  0.16033699126E+02 -0.19245321949E+02  0.95760030509E+02  0.91186663648E+02 0.  0.
         11    1    3    3    0    0  0.30874333545E+02  0.15071701178E+02  0.29017166850E+02  0.44970841892E+02  0.51100000000E-03 0.  1.
         22    1    1    0    0    0 -0.15083563613E+02 -0.16033699126E+02  0.19245321949E+02  0.29239969491E+02  0.00000000000E+00 0.  1.
</event>
<event>
 5    1  0.1111613E-009  0.9118800E+02  0.7818608E-02  0.1130116E+00
         25   -1    0    0    0    0  0.00000000000E+00  0.00000000000E+00  0.99999998245E-14  0.12500000000E+03  0.12500000000E+03 0.  0.
        -11    1    3    3    0    0 -0.21449558413E+02  0.42223769200E+02  0.28351983274E+01  0.47444373653E+02  0.51100000000E-03 0.  1.
         23    2    1    0    0    0 -0.11506559391E+02  0.48919877568E+01 -0.26331179239E+02  0.95851012825E+02  0.91311298349E+02 0.  0.
         11    1    3    3    0    0  0.99429990220E+01 -0.37331781443E+02 -0.29166377567E+02  0.48406639171E+02  0.51100000000E-03 0. -1.
         22    1    1    0    0    0  0.11506559391E+02 -0.48919877568E+01  0.26331179239E+02  0.29148987175E+02  0.00000000000E+00 0.  1.
</event>
<event>
 5    1  0.1111613E-009  0.9118800E+02  0.7818608E-02  0.1130116E+00
         25   -1    0    0    0    0  0.00000000000E+00  0.00000000000E+00  0.99999998245E-14  0.12500000000E+03  0.12500000000E+03 0.  0.
        -11    1    3    3    0    0  0.85103800379E+01 -0.21289653200E+02  0.51045087212E+02  0.55957812954E+02  0.51100000000E-03 0.  1.
         23    2    1    0    0    0 -0.91901659281E+01  0.56970162033E+01  0.26102552584E+02  0.96746533048E+02  0.92529094137E+02 0.  0.
         11    1    3    3    0    0 -0.17700545966E+02  0.26986669403E+02 -0.24942534628E+02  0.40788720094E+02  0.51100000000E-03 0. -1.
         22    1    1    0    0    0  0.91901659281E+01 -0.56970162033E+01 -0.26102552584E+02  0.28253466952E+02  0.00000000000E+00 0.  1.
</event>
<event>
 5    1  0.1111613E-009  0.9118800E+02  0.7818608E-02  0.1130116E+00
         25   -1    0    0    0    0  0.00000000000E+00  0.00000000000E+00  0.99999998245E-14  0.12500000000E+03  0.12500000000E+03 0.  0.
        -11    1    3    3    0    0 -0.20561469276E+01 -0.29644927261E+02 -0.30626704855E+02  0.42673698023E+02  0.51100000000E-03 0. -1.
         23    2    1    0    0    0 -0.26491463029E+02 -0.48032611703E+01  0.10074567717E+02  0.96253420273E+02  0.91860519639E+02 0.  0.
         11    1    3    3    0    0 -0.24435316102E+02  0.24841666090E+02  0.40701272572E+02  0.53579722250E+02  0.51100000000E-03 0.  1.
         22    1    1    0    0    0  0.26491463029E+02  0.48032611703E+01 -0.10074567717E+02  0.28746579727E+02  0.00000000000E+00 0.  1.
</event>
<event>
 5    1  0.1111613E-009  0.9118800E+02  0.7818608E-02  0.1130116E+00
         25   -1    0    0    0    0  0.00000000000E+00  0.00000000000E+00  0.99999998245E-14  0.12500000000E+03  0.12500000000E+03 0.  0.
        -11    1    3    3    0    0 -0.35268231292E+02  0.94565956921E+01 -0.22763149848E+02  0.43028320114E+02  0.51100000000E-03 0. -1.
         23    2    1    0    0    0  0.13108416882E+02 -0.10277196870E+02 -0.24581315038E+02  0.95306694060E+02  0.90563091350E+02 0.  0.
         11    1    3    3    0    0  0.48376648174E+02 -0.19733792562E+02 -0.18181651909E+01  0.52278373946E+02  0.51100000000E-03 0.  1.
         22    1    1    0    0    0 -0.13108416882E+02  0.10277196870E+02  0.24581315038E+02  0.29693305940E+02  0.00000000000E+00 0.  1.
</event>
<event>
 5    1  0.1111613E-009  0.9118800E+02  0.7818608E-02  0.1130116E+00
         25   -1    0    0    0    0  0.00000000000E+00  0.00000000000E+00  0.99999998245E-14  0.12500000000E+03  0.12500000000E+03 0.  0.
        -11    1    3    3    0    0  0.14451300323E+02 -0.37190009885E+01 -0.30768155955E+02  0.34195766850E+02  0.51100000000E-03 0.  1.
         23    2    1    0    0    0 -0.57529184660E+01  0.14119659388E+02  0.24761610639E+02  0.95920828527E+02  0.91406822130E+02 0.  0.
         11    1    3    3    0    0 -0.20204218789E+02  0.17838660376E+02  0.55529766593E+02  0.61725061677E+02  0.51100000000E-03 0. -1.
         22    1    1    0    0    0  0.57529184660E+01 -0.14119659388E+02 -0.24761610639E+02  0.29079171473E+02  0.00000000000E+00 0. -1.
</event>
<event>
 5    1  0.1111613E-009  0.9118800E+02  0.7818608E-02  0.1130116E+00
         25   -1    0    0    0    0  0.00000000000E+00  0.00000000000E+00  0.99999998245E-14  0.12500000000E+03  0.12500000000E+03 0.  0.
        -11    1    3    3    0    0 -0.21081148152E+02 -0.33913050258E+02 -0.43999613081E+02  0.59417806563E+02  0.51100000000E-03 0. -1.
         23    2    1    0    0    0 -0.59457160396E+01 -0.62083270635E+01 -0.29711177893E+02  0.94070257745E+02  0.88840106012E+02 0.  0.
         11    1    3    3    0    0  0.15135432113E+02  0.27704723195E+02  0.14288435187E+02  0.34652451182E+02  0.51100000000E-03 0.  1.
         22    1    1    0    0    0  0.59457160396E+01  0.62083270635E+01  0.29711177893E+02  0.30929742255E+02  0.00000000000E+00 0. -1.
</event>
<event>
 5    1  0.1111613E-009  0.9118800E+02  0.7818608E-02  0.1130116E+00
         25   -1    0    0    0    0  0.00000000000E+00  0.00000000000E+00  0.99999998245E-14  0.12500000000E+03  0.12500000000E+03 0.  0.
        -11    1    3    3    0    0  0.19800630814E+02 -0.19797922733E+02  0.13012241482E+02  0.30876223115E+02  0.51100000000E-03 0. -1.
         23    2    1    0    0    0 -0.24307703509E+00  0.30074627787E+02 -0.14894099056E+02  0.91438466816E+02  0.85056550036E+02 0.  0.
         11    1    3    3    0    0 -0.20043707849E+02  0.49872550520E+02 -0.27906340538E+02  0.60562243702E+02  0.51100000000E-03 0.  1.
         22    1    1    0    0    0  0.24307703509E+00 -0.30074627787E+02  0.14894099056E+02  0.33561533184E+02  0.00000000000E+00 0.  1.
</event>
<event>
 5    1  0.1111613E-009  0.9118800E+02  0.7818608E-02  0.1130116E+00
         25   -1    0    0    0    0  0.00000000000E+00  0.00000000000E+00  0.99999998245E-14  0.12500000000E+03  0.12500000000E+03 0.  0.
        -11    1    3    3    0    0 -0.16477282103E+02  0.29959940218E+02 -0.30489989071E+01  0.34327761913E+02  0.51100000000E-03 0.  1.
         23    2    1    0    0    0  0.72186326521E+01 -0.23470223488E+02  0.15870479607E+02  0.95762486924E+02  0.91190030875E+02 0.  0.
         11    1    3    3    0    0  0.23695914756E+02 -0.53430163705E+02  0.18919478514E+02  0.61434725011E+02  0.51100000000E-03 0. -1.
         22    1    1    0    0    0 -0.72186326521E+01  0.23470223488E+02 -0.15870479607E+02  0.29237513076E+02  0.00000000000E+00 0. -1.
</event>
<event>
 5    1  0.1111613E-009  0.9118800E+02  0.7818608E-02  0.1130116E+00
         25   -1    0    0    0    0  0.00000000000E+00  0.00000000000E+00  0.99999998245E-14  0.12500000000E+03  0.12500000000E+03 0.  0.
        -11    1    3    3    0    0  0.50959831712E+02 -0.20047590055E+01  0.76313271031E+00  0.51004959353E+02  0.51100000000E-03 0.  1.
         23    2    1    0    0    0  0.14575627739E+02  0.24600687329E+02  0.36619417538E+01  0.96172017787E+02  0.91749683633E+02 0.  0.
         11    1    3    3    0    0 -0.36384203973E+02  0.26605446335E+02  0.28988090435E+01  0.45167058434E+02  0.51100000000E-03 0. -1.
         22    1    1    0    0    0 -0.14575627739E+02 -0.24600687329E+02 -0.36619417538E+01  0.28827982213E+02  0.00000000000E+00 0.  1.
</event>
<event>
 5    1  0.1111613E-009  0.9118800E+02  0.7818608E-02  0.1130116E+00
         25   -1    0    0    0    0  0.00000000000E+00  0.00000000000E+00  0.99999998245E-14  0.12500000000E+03  0.12500000000E+03 0.  0.
        -11    1    3    3    0    0 -0.38930750310E+02  0.23157097022E+01 -0.23238896691E+02  0.45398371676E+02  0.51100000000E-03 0.  1.
         23    2    1    0    0    0 -0.12614516905E+02 -0.16299340654E+02  0.17927505403E+02  0.97683521594E+02  0.93786355077E+02 0.  0.
         11    1    3    3    0    0  0.26316233404E+02 -0.18615050356E+02  0.41166402095E+02  0.52285149919E+02  0.51100000000E-03 0. -1.
         22    1    1    0    0    0  0.12614516905E+02  0.16299340654E+02 -0.17927505403E+02  0.27316478406E+02  0.00000000000E+00 0.  1.
</event>
<event>
 5    1  0.1111613E-009  0.9118800E+02  0.7818608E-02  0.1130116E+00
         25   -1    0    0    0    0  0.00000000000E+00  0.00000000000E+00  0.99999998245E-14  0.12500000000E+03  0.12500000000E+03 0.  0.
        -11    1    3    3    0    0  0.45605739928E+02  0.23647425947E+02 -0.25157029451E+02  0.57201052433E+02  0.51100000000E-03 0. -1.
         23    2    1    0    0    0  0.20889480306E+02  0.19429385161E+02  0.45889025824E+01  0.96104854697E+02  0.91658134796E+02 0.  0.
         11    1    3    3    0    0 -0.24716259623E+02 -0.42180407861E+01  0.29745932034E+02  0.38903802264E+02  0.51100000000E-03 0.  1.
         22    1    1    0    0    0 -0.20889480306E+02 -0.19429385161E+02 -0.45889025824E+01  0.28895145303E+02  0.00000000000E+00 0. -1.
</event>
<event>
 5    1  0.1111613E-009  0.9118800E+02  0.7818608E-02  0.1130116E+00
         25   -1    0    0    0    0  0.00000000000E+00  0.00000000000E+00  0.99999998245E-14  0.12500000000E+03  0.12500000000E+03 0.  0.
        -11    1    3    3    0    0 -0.23089901816E+02 -0.55063078019E+02 -0.92148815047E+01  0.60415231261E+02  0.51100000000E-03 0.  1.
         23    2    1    0    0    0 -0.19583570128E+01 -0.28470084362E+02  0.25194998643E+01  0.96351636254E+02  0.91994070806E+02 0.  0.
         11    1    3    3    0    0  0.21131544804E+02  0.26592993658E+02  0.11734381369E+02  0.35936404993E+02  0.51100000000E-03 0. -1.
         22    1    1    0    0    0  0.19583570128E+01  0.28470084362E+02 -0.25194998643E+01  0.28648363746E+02  0.00000000000E+00 0.  1.
</event>
<event>
 5    1  0.1111613E-009  0.9118800E+02  0.7818608E-02  0.1130116E+00
         25   -1    0    0    0    0  0.00000000000E+00  0.00000000000E+00  0.99999998245E-14  0.12500000000E+03  0.12500000000E+03 0.  0.
        -11    1    3    3    0    0  0.33781039423E+02 -0.45722710356E+02  0.21102879492E+00  0.56848653460E+02  0.51100000000E-03 0.  1.
         23    2    1    0    0    0  0.36514986154E+01 -0.16059552040E+02  0.16054042790E+02  0.10200054471E+03  0.99373719749E+02 0.  0.
         11    1    3    3    0    0 -0.30129540807E+02  0.29663158316E+02  0.15843013995E+02  0.45151891248E+02  0.51100000000E-03 0. -1.
         22    1    1    0    0    0 -0.36514986154E+01  0.16059552040E+02 -0.16054042790E+02  0.22999455293E+02  0.00000000000E+00 0.  1.
</event>
<event>
 5    1  0.1111613E-009  0.9118800E+02  0.7818608E-02  0.1130116E+00
         25   -1    0    0    0    0  0.00000000000E+00  0.00000000000E+00  0.99999998245E-14  0.12500000000E+03  0.12500000000E+03 0.  0.
        -11    1    3    3    0    0  0.60407861364E+01 -0.26497995413E+02 -0.29782075542E+02  0.40318815482E+02  0.51100000000E-03 0. -1.
         23    2    1    0    0    0  0.32618882228E+01 -0.18936631688E+02  0.23747974835E+02  0.94451640908E+02  0.89375109661E+02 0.  0.
         11    1    3    3    0    0 -0.27788979137E+01  0.75613637248E+01  0.53530050377E+02  0.54132825426E+02  0.51100000000E-03 0.  1.
         22    1    1    0    0    0 -0.32618882228E+01  0.18936631688E+02 -0.23747974835E+02  0.30548359092E+02  0.00000000000E+00 0. -1.
</event>
<event>
 5    1  0.1111613E-009  0.9118800E+02  0.7818608E-02  0.1130116E+00
         25   -1    0    0    0    0  0.00000000000E+00  0.00000000000E+00  0.99999998245E-14  0.12500000000E+03  0.12500000000E+03 0.  0.
        -11    1    3    3    0    0  0.36721428582E+02 -0.24094250584E+02 -0.22566581984E+02  0.49378607220E+02  0.51100000000E-03 0.  1.
         23    2    1    0    0    0  0.25164845343E+02  0.16418299993E+02 -0.93608421982E+01  0.93528498885E+02  0.88074540709E+02 0.  0.
         11    1    3    3    0    0 -0.11556583239E+02  0.40512550577E+02  0.13205739786E+02  0.44149891664E+02  0.51100000000E-03 0. -1.
         22    1    1    0    0    0 -0.25164845343E+02 -0.16418299993E+02  0.93608421982E+01  0.31471501115E+02  0.00000000000E+00 0.  1.
</event>
<event>
 5    1  0.1111613E-009  0.9118800E+02  0.7818608E-02  0.1130116E+00
         25   -1    0    0    0    0  0.00000000000E+00  0.00000000000E+00  0.99999998245E-14  0.12500000000E+03  0.12500000000E+03 0.  0.
        -11    1    3    3    0    0  0.17628938149E+02 -0.33381885476E+02  0.45368692082E+02  0.59020741775E+02  0.51100000000E-03 0.  1.
         23    2    1    0    0    0  0.96034359737E+01 -0.25334018816E+02  0.10083468208E+02  0.96091267358E+02  0.91639603008E+02 0.  0.
         11    1    3    3    0    0 -0.80255021748E+01  0.80478666601E+01 -0.35285223873E+02  0.37070525583E+02  0.51100000000E-03 0. -1.
         22    1    1    0    0    0 -0.96034359737E+01  0.25334018816E+02 -0.10083468208E+02  0.28908732642E+02  0.00000000000E+00 0.  1.
</event>
<event>
 5    1  0.1111613E-009  0.9118800E+02  0.7818608E-02  0.1130116E+00
         25   -1    0    0    0    0  0.00000000000E+00  0.00000000000E+00  0.99999998245E-14  0.12500000000E+03  0.12500000000E+03 0.  0.
        -11    1    3    3    0    0 -0.29740911647E+02  0.15987926390E+02  0.25916761995E+02  0.42565410469E+02  0.51100000000E-03 0. -1.
         23    2    1    0    0    0 -0.11329159212E+02  0.98797569299E+01 -0.24315531120E+02  0.96413211109E+02  0.92077699674E+02 0.  0.
         11    1    3    3    0    0  0.18411752434E+02 -0.61081694598E+01 -0.50232293115E+02  0.53847800640E+02  0.51100000000E-03 0.  1.
         22    1    1    0    0    0  0.11329159212E+02 -0.98797569299E+01  0.24315531120E+02  0.28586788891E+02  0.00000000000E+00 0. -1.
</event>
<event>
 5    1  0.1111613E-009  0.9118800E+02  0.7818608E-02  0.1130116E+00
         25   -1    0    0    0    0  0.00000000000E+00  0.00000000000E+00  0.99999998245E-14  0.12500000000E+03  0.12500000000E+03 0.  0.
        -11    1    3    3    0    0  0.55458087254E+01 -0.81435871430E+00  0.58668027944E+02  0.58935190486E+02  0.51100000000E-03 0.  1.
         23    2    1    0    0    0 -0.10128284256E+02  0.73869415827E+01  0.27598094942E+02  0.94688221888E+02  0.89705381510E+02 0.  0.
         11    1    3    3    0    0 -0.15674092981E+02  0.82013002970E+01 -0.31069933002E+02  0.35753031401E+02  0.51100000000E-03 0. -1.
         22    1    1    0    0    0  0.10128284256E+02 -0.73869415827E+01 -0.27598094942E+02  0.30311778112E+02  0.00000000000E+00 0.  1.
</event>
<event>
 5    1  0.1111613E-009  0.9118800E+02  0.7818608E-02  0.1130116E+00
         25   -1    0    0    0    0  0.00000000000E+00  0.00000000000E+00  0.99999998245E-14  0.12500000000E+03  0.12500000000E+03 0.  0.
        -11    1    3    3    0    0  0.39011712235E+02  0.56029937035E+01  0.20350582753E+02  0.44355985488E+02  0.51100000000E-03 0.  1.
         23    2    1    0    0    0 -0.11140284982E+02  0.11787646495E+02  0.25105597667E+02  0.95111112540E+02  0.90292735783E+02 0.  0.
         11    1    3    3    0    0 -0.50151997217E+02  0.61846527918E+01  0.47550149136E+01  0.50755127052E+02  0.51100000000E-03 0. -1.
         22    1    1    0    0    0  0.11140284982E+02 -0.11787646495E+02 -0.25105597667E+02  0.29888887460E+02  0.00000000000E+00 0. -1.
</event>
<event>
 5    1  0.1111613E-009  0.9118800E+02  0.7818608E-02  0.1130116E+00
         25   -1    0    0    0    0  0.00000000000E+00  0.00000000000E+00  0.99999998245E-14  0.12500000000E+03  0.12500000000E+03 0.  0.
        -11    1    3    3    0    0 -0.32505125279E+02 -0.66474139927E+01 -0.23201497802E+01  0.33258899222E+02  0.51100000000E-03 0. -1.
         23    2    1    0    0    0  0.23455579609E+02  0.38479585895E+01  0.19522465155E+02  0.94241299673E+02  0.89080440716E+02 0.  0.
         11    1    3    3    0    0  0.55960704888E+02  0.10495372582E+02  0.21842614935E+02  0.60982400450E+02  0.51100000000E-03 0.  1.
         22    1    1    0    0    0 -0.23455579609E+02 -0.38479585895E+01 -0.19522465155E+02  0.30758700327E+02  0.00000000000E+00 0.  1.
</event>
<event>
 5    1  0.1111613E-009  0.9118800E+02  0.7818608E-02  0.1130116E+00
         25   -1    0    0    0    0  0.00000000000E+00  0.00000000000E+00  0.99999998245E-14  0.12500000000E+03  0.12500000000E+03 0.  0.
        -11    1    3    3    0    0  0.70703617022E+01  0.10552110620E+02 -0.61159358103E+02  0.62464422970E+02  0.51100000000E-03 0. -1.
         23    2    1    0    0    0  0.24149370405E+01  0.40877728104E+01 -0.30033786772E+02  0.94593254773E+02  0.89572951794E+02 0.  0.
         11    1    3    3    0    0 -0.46554246617E+01 -0.64643378096E+01  0.31125571331E+02  0.32128831803E+02  0.51100000000E-03 0.  1.
         22    1    1    0    0    0 -0.24149370405E+01 -0.40877728104E+01  0.30033786772E+02  0.30406745227E+02  0.00000000000E+00 0. -1.
</event>
<event>
 5    1  0.1111613E-009  0.9118800E+02  0.7818608E-02  0.1130116E+00
         25   -1    0    0    0    0  0.00000000000E+00  0.00000000000E+00  0.99999998245E-14  0.12500000000E+03  0.12500000000E+03 0.  0.
        -11    1    3    3    0    0  0.79984572688E+01  0.44135134422E+02 -0.79517531171E+01  0.45553438805E+02  0.51100000000E-03 0. -1.
         23    2    1    0    0    0  0.27850900170E+02  0.60223975006E+01  0.13369016533E+02  0.93525049405E+02  0.88069644891E+02 0.  0.
         11    1    3    3    0    0  0.19852442901E+02 -0.38112736921E+02  0.21320769651E+02  0.47971610599E+02  0.51100000000E-03 0.  1.
         22    1    1    0    0    0 -0.27850900170E+02 -0.60223975006E+01 -0.13369016533E+02  0.31474950595E+02  0.00000000000E+00 0. -1.
</event>
<event>
 5    1  0.1111613E-009  0.9118800E+02  0.7818608E-02  0.1130116E+00
         25   -1    0    0    0    0  0.00000000000E+00  0.00000000000E+00  0.99999998245E-14  0.12500000000E+03  0.12500000000E+03 0.  0.
        -11    1    3    3    0    0 -0.35362721171E+02  0.27627345618E+02 -0.26179557399E+02  0.51953455134E+02  0.51100000000E-03 0. -1.
         23    2    1    0    0    0  0.32585354061E+01  0.29297473472E+02 -0.98296935532E+01  0.93926170494E+02  0.88637140204E+02 0.  0.
         11    1    3    3    0    0  0.38621256577E+02  0.16701278538E+01  0.16349863846E+02  0.41972715360E+02  0.51100000000E-03 0.  1.
         22    1    1    0    0    0 -0.32585354061E+01 -0.29297473472E+02  0.98296935532E+01  0.31073829506E+02  0.00000000000E+00 0. -1.
</event>
<event>
 5    1  0.1111613E-009  0.9118800E+02  0.7818608E-02  0.1130116E+00
         25   -1    0    0    0    0  0.00000000000E+00  0.00000000000E+00  0.99999998245E-14  0.12500000000E+03  0.12500000000E+03 0.  0.
        -11    1    3    3    0    0  0.21863666030E+02  0.53506352218E+02  0.74102441910E+01  0.58274019418E+02  0.51100000000E-03 0.  1.
         23    2    1    0    0    0  0.17947885237E+02  0.17090745840E+02  0.15481677815E+02  0.95778389405E+02  0.91211826816E+02 0.  0.
         11    1    3    3    0    0 -0.39157807930E+01 -0.36415606378E+02  0.80714336237E+01  0.37504369987E+02  0.51100000000E-03 0. -1.
         22    1    1    0    0    0 -0.17947885237E+02 -0.17090745840E+02 -0.15481677815E+02  0.29221610595E+02  0.00000000000E+00 0.  1.
</event>
<event>
 5    1  0.1111613E-009  0.9118800E+02  0.7818608E-02  0.1130116E+00
         25   -1    0    0    0    0  0.00000000000E+00  0.00000000000E+00  0.99999998245E-14  0.12500000000E+03  0.12500000000E+03 0.  0.
        -11    1    3    3    0    0  0.28971966554E+02  0.32947050616E+02 -0.42914965870E+01  0.44082875740E+02  0.51100000000E-03 0. -1.
         23    2    1    0    0    0  0.74682877735E+01 -0.16648240460E+02 -0.17487236177E+02  0.99726641264E+02  0.96471033559E+02 0.  0.
         11    1    3    3    0    0 -0.21503678781E+02 -0.49595291076E+02 -0.13195739590E+02  0.55643765524E+02  0.51100000000E-03 0.  1.
         22    1    1    0    0    0 -0.74682877735E+01  0.16648240460E+02  0.17487236177E+02  0.25273358736E+02  0.00000000000E+00 0.  1.
</event>
<event>
 5    1  0.1111613E-009  0.9118800E+02  0.7818608E-02  0.1130116E+00
         25   -1    0    0    0    0  0.00000000000E+00  0.00000000000E+00  0.99999998245E-14  0.12500000000E+03  0.12500000000E+03 0.  0.
        -11    1    3    3    0    0 -0.41688247075E+02  0.10105406406E+00  0.40464688380E+02  0.58097428188E+02  0.51100000000E-03 0.  1.
         23    2    1    0    0    0 -0.19404190703E+02  0.16413481997E+02  0.16188511290E+02  0.94867079367E+02  0.89954265278E+02 0.  0.
         11    1    3    3    0    0  0.22284056372E+02  0.16312427933E+02 -0.24276177090E+02  0.36769651179E+02  0.51100000000E-03 0. -1.
         22    1    1    0    0    0  0.19404190703E+02 -0.16413481997E+02 -0.16188511290E+02  0.30132920633E+02  0.00000000000E+00 0.  1.
</event>
<event>
 5    1  0.1111613E-009  0.9118800E+02  0.7818608E-02  0.1130116E+00
         25   -1    0    0    0    0  0.00000000000E+00  0.00000000000E+00  0.99999998245E-14  0.12500000000E+03  0.12500000000E+03 0.  0.
        -11    1    3    3    0    0 -0.22078282112E+02  0.41065628335E+02  0.22700149697E+02  0.51856852663E+02  0.51100000000E-03 0. -1.
         23    2    1    0    0    0  0.95233712543E+01  0.99975584472E+01  0.25223728031E+02  0.96244440003E+02  0.91848298845E+02 0.  0.
         11    1    3    3    0    0  0.31601653366E+02 -0.31068069887E+02  0.25235783341E+01  0.44387587340E+02  0.51100000000E-03 0.  1.
         22    1    1    0    0    0 -0.95233712543E+01 -0.99975584472E+01 -0.25223728031E+02  0.28755559997E+02  0.00000000000E+00 0. -1.
</event>
<event>
 5    1  0.1111613E-009  0.9118800E+02  0.7818608E-02  0.1130116E+00
         25   -1    0    0    0    0  0.00000000000E+00  0.00000000000E+00  0.99999998245E-14  0.12500000000E+03  0.12500000000E+03 0.  0.
        -11    1    3    3    0    0  0.46081191077E+02 -0.55904583472E+01  0.21821228586E+02  0.51292254902E+02  0.51100000000E-03 0.  1.
         23    2    1    0    0    0  0.22289778203E+02 -0.66729302068E-01 -0.16868760562E+02  0.97046578956E+02  0.92933550126E+02 0.  0.
         11    1    3    3    0    0 -0.23791412874E+02  0.55237290451E+01 -0.38689989148E+02  0.45754324054E+02  0.51100000000E-03 0. -1.
         22    1    1    0    0    0 -0.22289778203E+02  0.66729302068E-01  0.16868760562E+02  0.27953421044E+02  0.00000000000E+00 0.  1.
</event>
<event>
 5    1  0.1111613E-009  0.9118800E+02  0.7818608E-02  0.1130116E+00
         25   -1    0    0    0    0  0.00000000000E+00  0.00000000000E+00  0.99999998245E-14  0.12500000000E+03  0.12500000000E+03 0.  0.
        -11    1    3    3    0    0 -0.32636963966E+02 -0.20533780708E+02  0.68740994418E+01  0.39167088359E+02  0.51100000000E-03 0.  1.
         23    2    1    0    0    0  0.12442335974E+02 -0.88796213292E+00  0.29256274181E+02  0.93195444034E+02  0.87600576530E+02 0.  0.
         11    1    3    3    0    0  0.45079299940E+02  0.19645818575E+02  0.22382174739E+02  0.54028355675E+02  0.51100000000E-03 0. -1.
         22    1    1    0    0    0 -0.12442335974E+02  0.88796213292E+00 -0.29256274181E+02  0.31804555966E+02  0.00000000000E+00 0. -1.
</event>
<event>
 5    1  0.1111613E-009  0.9118800E+02  0.7818608E-02  0.1130116E+00
         25   -1    0    0    0    0  0.00000000000E+00  0.00000000000E+00  0.99999998245E-14  0.12500000000E+03  0.12500000000E+03 0.  0.
        -11    1    3    3    0    0 -0.57191082842E+02 -0.98890050629E+01  0.22844287103E+02  0.62373662962E+02  0.51100000000E-03 0. -1.
         23    2    1    0    0    0 -0.28554704997E+02 -0.70002890822E+01  0.13626536638E+02  0.92595405797E+02  0.86740137475E+02 0.  0.
         11    1    3    3    0    0  0.28636377845E+02  0.28887159806E+01 -0.92177504649E+01  0.30221742835E+02  0.51100000000E-03 0.  1.
         22    1    1    0    0    0  0.28554704997E+02  0.70002890822E+01 -0.13626536638E+02  0.32404594203E+02  0.00000000000E+00 0. -1.
</event>
<event>
 5    1  0.1111613E-009  0.9118800E+02  0.7818608E-02  0.1130116E+00
         25   -1    0    0    0    0  0.00000000000E+00  0.00000000000E+00  0.99999998245E-14  0.12500000000E+03  0.12500000000E+03 0.  0.
        -11    1    3    3    0    0 -0.18678059847E+02 -0.44302494359E+02 -0.10939367841E+01  0.48091346665E+02  0.51100000000E-03 0.  1.
         23    2    1    0    0    0 -0.17620257017E+02 -0.26930946306E+01  0.22780054414E+02  0.96074974587E+02  0.91617376336E+02 0.  0.
         11    1    3    3    0    0  0.10578028302E+01  0.41609399729E+02  0.23873991198E+02  0.47983627922E+02  0.51100000000E-03 0. -1.
         22    1    1    0    0    0  0.17620257017E+02  0.26930946306E+01 -0.22780054414E+02  0.28925025413E+02  0.00000000000E+00 0.  1.
</event>
<event>
 5    1  0.1111613E-009  0.9118800E+02  0.7818608E-02  0.1130116E+00
         25   -1    0    0    0    0  0.00000000000E+00  0.00000000000E+00  0.99999998245E-14  0.12500000000E+03  0.12500000000E+03 0.  0.
        -11    1    3    3    0    0  0.49224624358E+02 -0.87143635827E+01  0.23399252859E+02  0.55195369465E+02  0.51100000000E-03 0.  1.
         23    2    1    0    0    0  0.15138614759E+02 -0.23886497457E+02  0.75694414403E+01  0.95724773932E+02  0.91138320607E+02 0.  0.
         11    1    3    3    0    0 -0.34086009598E+02 -0.15172133874E+02 -0.15829811419E+02  0.40529404467E+02  0.51100000000E-03 0. -1.
         22    1    1    0    0    0 -0.15138614759E+02  0.23886497457E+02 -0.75694414403E+01  0.29275226068E+02  0.00000000000E+00 0.  1.
</event>
<event>
 5    1  0.1111613E-009  0.9118800E+02  0.7818608E-02  0.1130116E+00
         25   -1    0    0    0    0  0.00000000000E+00  0.00000000000E+00  0.99999998245E-14  0.12500000000E+03  0.12500000000E+03 0.  0.
        -11    1    3    3    0    0  0.40405126516E+02 -0.16100926706E+02  0.37112857784E+02  0.57176728682E+02  0.51100000000E-03 0. -1.
         23    2    1    0    0    0  0.24003501510E+02 -0.17288453084E+02  0.27261414962E+01  0.95293257630E+02  0.90544543776E+02 0.  0.
         11    1    3    3    0    0 -0.16401625007E+02 -0.11875263786E+01 -0.34386716288E+02  0.38116528948E+02  0.51100000000E-03 0.  1.
         22    1    1    0    0    0 -0.24003501510E+02  0.17288453084E+02 -0.27261414962E+01  0.29706742370E+02  0.00000000000E+00 0. -1.
</event>
<event>
 5    1  0.1111613E-009  0.9118800E+02  0.7818608E-02  0.1130116E+00
         25   -1    0    0    0    0  0.00000000000E+00  0.00000000000E+00  0.99999998245E-14  0.12500000000E+03  0.12500000000E+03 0.  0.
        -11    1    3    3    0    0 -0.74243222204E+01 -0.52280657285E+02  0.19544217997E+02  0.56305986751E+02  0.51100000000E-03 0. -1.
         23    2    1    0    0    0  0.14828845227E+02 -0.27646206741E+02  0.27553079621E+01  0.93507157640E+02  0.88044246887E+02 0.  0.
         11    1    3    3    0    0  0.22253167448E+02  0.24634450544E+02 -0.16788910035E+02  0.37201170889E+02  0.51100000000E-03 0.  1.
         22    1    1    0    0    0 -0.14828845227E+02  0.27646206741E+02 -0.27553079621E+01  0.31492842360E+02  0.00000000000E+00 0. -1.
</event>
<event>
 5    1  0.1111613E-009  0.9118800E+02  0.7818608E-02  0.1130116E+00
         25   -1    0    0    0    0  0.00000000000E+00  0.00000000000E+00  0.99999998245E-14  0.12500000000E+03  0.12500000000E+03 0.  0.
        -11    1    3    3    0    0 -0.31565149213E+02  0.28483296643E+02  0.11432026581E+01  0.42531914430E+02  0.51100000000E-03 0.  1.
         23    2    1    0    0    0  0.74605182484E+00  0.33101826573E+01 -0.30513042354E+02  0.94298865554E+02  0.89161182073E+02 0.  0.
         11    1    3    3    0    0  0.32311201037E+02 -0.25173113986E+02 -0.31656245012E+02  0.51766951125E+02  0.51100000000E-03 0. -1.
         22    1    1    0    0    0 -0.74605182484E+00 -0.33101826573E+01  0.30513042354E+02  0.30701134446E+02  0.00000000000E+00 0. -1.
</event>
<event>
 5    1  0.1111613E-009  0.9118800E+02  0.7818608E-02  0.1130116E+00
         25   -1    0    0    0    0  0.00000000000E+00  0.00000000000E+00  0.99999998245E-14  0.12500000000E+03  0.12500000000E+03 0.  0.
        -11    1    3    3    0    0  0.14462302570E+02  0.47495887659E+02  0.22099852157E+02  0.54345386242E+02  0.51100000000E-03 0.  1.
         23    2    1    0    0    0  0.25602075419E+02  0.91847212321E+01  0.96098195114E+01  0.96152573756E+02  0.91723189210E+02 0.  0.
         11    1    3    3    0    0  0.11139772849E+02 -0.38311166427E+02 -0.12490032646E+02  0.41807187514E+02  0.51100000000E-03 0. -1.
         22    1    1    0    0    0 -0.25602075419E+02 -0.91847212321E+01 -0.96098195114E+01  0.28847426244E+02  0.00000000000E+00 0.  1.
</event>
<event>
 5    1  0.1111613E-009  0.9118800E+02  0.7818608E-02  0.1130116E+00
         25   -1    0    0    0    0  0.00000000000E+00  0.00000000000E+00  0.99999998245E-14  0.12500000000E+03  0.12500000000E+03 0.  0.
        -11    1    3    3    0    0  0.22193503565E+02 -0.23659063305E+02  0.48464571151E+02  0.58319100937E+02  0.51100000000E-03 0.  1.
         23    2    1    0    0    0  0.21772371373E+02 -0.19922841588E+02  0.15184716275E+02  0.91810673697E+02  0.85601801524E+02 0.  0.
         11    1    3    3    0    0 -0.42113219199E+00  0.37362217173E+01 -0.33279854876E+02  0.33491572759E+02  0.51100000000E-03 0. -1.
         22    1    1    0    0    0 -0.21772371373E+02  0.19922841588E+02 -0.15184716275E+02  0.33189326303E+02  0.00000000000E+00 0.  1.
</event>
<event>
 5    1  0.1111613E-009  0.9118800E+02  0.7818608E-02  0.1130116E+00
         25   -1    0    0    0    0  0.00000000000E+00  0.00000000000E+00  0.99999998245E-14  0.12500000000E+03  0.12500000000E+03 0.  0.
        -11    1    3    3    0    0 -0.21204822416E+02 -0.32354063649E+02  0.43298093854E+02  0.58061647065E+02  0.51100000000E-03 0. -1.
         23    2    1    0    0    0 -0.13739510139E+02 -0.33258137277E+00  0.26873928237E+02  0.94815686722E+02  0.89882821943E+02 0.  0.
         11    1    3    3    0    0  0.74653122768E+01  0.32021482277E+02 -0.16424165617E+02  0.36754039656E+02  0.51100000000E-03 0.  1.
         22    1    1    0    0    0  0.13739510139E+02  0.33258137277E+00 -0.26873928237E+02  0.30184313278E+02  0.00000000000E+00 0. -1.
</event>
<event>
 5    1  0.1111613E-009  0.9118800E+02  0.7818608E-02  0.1130116E+00
         25   -1    0    0    0    0  0.00000000000E+00  0.00000000000E+00  0.99999998245E-14  0.12500000000E+03  0.12500000000E+03 0.  0.
        -11    1    3    3    0    0  0.15221807630E+02 -0.33596325628E+02  0.51785697161E+01  0.37245591790E+02  0.51100000000E-03 0.  1.
         23    2    1    0    0    0  0.42459772685E+01  0.16826784576E+02 -0.23113821744E+02  0.96096405799E+02  0.91646611775E+02 0.  0.
         11    1    3    3    0    0 -0.10975830362E+02  0.50423110204E+02 -0.28292391460E+02  0.58850814009E+02  0.51100000000E-03 0. -1.
         22    1    1    0    0    0 -0.42459772685E+01 -0.16826784576E+02  0.23113821744E+02  0.28903594201E+02  0.00000000000E+00 0. -1.
</event>
<event>
 5    1  0.1111613E-009  0.9118800E+02  0.7818608E-02  0.1130116E+00
         25   -1    0    0    0    0  0.00000000000E+00  0.00000000000E+00  0.99999998245E-14  0.12500000000E+03  0.12500000000E+03 0.  0.
        -11    1    3    3    0    0 -0.35687748224E+02  0.76899681549E+01 -0.19972986965E+02  0.41613353530E+02  0.51100000000E-03 0. -1.
         23    2    1    0    0    0  0.91535162420E+01 -0.21017481228E+02  0.66346393831E+01  0.10113496666E+03  0.98278897348E+02 0.  0.
         11    1    3    3    0    0  0.44841264466E+02 -0.28707449383E+02  0.26607626348E+02  0.59521613126E+02  0.51100000000E-03 0.  1.
         22    1    1    0    0    0 -0.91535162420E+01  0.21017481228E+02 -0.66346393831E+01  0.23865033344E+02  0.00000000000E+00 0.  1.
</event>
<event>
 5    1  0.1111613E-009  0.9118800E+02  0.7818608E-02  0.1130116E+00
         25   -1    0    0    0    0  0.00000000000E+00  0.00000000000E+00  0.99999998245E-14  0.12500000000E+03  0.12500000000E+03 0.  0.
        -11    1    3    3    0    0  0.19022889187E+02  0.40673679098E+02  0.20090411519E+02  0.49191900956E+02  0.51100000000E-03 0. -1.
         23    2    1    0    0    0  0.24350691202E+02  0.77237665439E+01 -0.13123883547E+02  0.96279814572E+02  0.91896428891E+02 0.  0.
         11    1    3    3    0    0  0.53278020154E+01 -0.32949912554E+02 -0.33214295067E+02  0.47087913616E+02  0.51100000000E-03 0.  1.
         22    1    1    0    0    0 -0.24350691202E+02 -0.77237665439E+01  0.13123883547E+02  0.28720185428E+02  0.00000000000E+00 0. -1.
</event>
<event>
 5    1  0.1111613E-009  0.9118800E+02  0.7818608E-02  0.1130116E+00
         25   -1    0    0    0    0  0.00000000000E+00  0.00000000000E+00  0.99999998245E-14  0.12500000000E+03  0.12500000000E+03 0.  0.
        -11    1    3    3    0    0 -0.12188960111E+02 -0.50409607188E+02  0.28235519049E+02  0.59050349547E+02  0.51100000000E-03 0.  1.
         23    2    1    0    0    0 -0.54195795907E+01 -0.20154917904E+02  0.28029361887E+02  0.90053788668E+02  0.82996669614E+02 0.  0.
         11    1    3    3    0    0  0.67693805205E+01  0.30254689284E+02 -0.20615716213E+00  0.31003439121E+02  0.51100000000E-03 0. -1.
         22    1    1    0    0    0  0.54195795907E+01  0.20154917904E+02 -0.28029361887E+02  0.34946211332E+02  0.00000000000E+00 0.  1.
</event>
<event>
 5    1  0.1111613E-009  0.9118800E+02  0.7818608E-02  0.1130116E+00
         25   -1    0    0    0    0  0.00000000000E+00  0.00000000000E+00  0.99999998245E-14  0.12500000000E+03  0.12500000000E+03 0.  0.
        -11    1    3    3    0    0  0.36788292428E+02  0.20262314186E+01 -0.27542662197E+02  0.46000894716E+02  0.51100000000E-03 0. -1.
         23    2    1    0    0    0  0.48239796639E+02 -0.61177918848E+00  0.87066621069E+00  0.76748468281E+02  0.59683474014E+02 0.  0.
         11    1    3    3    0    0  0.11451504211E+02 -0.26380106071E+01  0.28413328408E+02  0.30747573565E+02  0.51100000000E-03 0.  1.
         22    1    1    0    0    0 -0.48239796639E+02  0.61177918848E+00 -0.87066621069E+00  0.48251531719E+02  0.00000000000E+00 0. -1.
</event>
<event>
 5    1  0.1111613E-009  0.9118800E+02  0.7818608E-02  0.1130116E+00
         25   -1    0    0    0    0  0.00000000000E+00  0.00000000000E+00  0.99999998245E-14  0.12500000000E+03  0.12500000000E+03 0.  0.
        -11    1    3    3    0    0  0.98720219201E+01 -0.45005087439E+02 -0.74619357562E+01  0.46675423915E+02  0.51100000000E-03 0.  1.
         23    2    1    0    0    0  0.13770978447E+02 -0.31152186824E+00  0.21058345363E+02  0.99836717172E+02  0.96613556466E+02 0.  0.
         11    1    3    3    0    0  0.38989565270E+01  0.44693565570E+02  0.28520281119E+02  0.53161293257E+02  0.51100000000E-03 0. -1.
         22    1    1    0    0    0 -0.13770978447E+02  0.31152186824E+00 -0.21058345363E+02  0.25163282828E+02  0.00000000000E+00 0.  1.
</event>
<event>
 5    1  0.1111613E-009  0.9118800E+02  0.7818608E-02  0.1130116E+00
         25   -1    0    0    0    0  0.00000000000E+00  0.00000000000E+00  0.99999998245E-14  0.12500000000E+03  0.12500000000E+03 0.  0.
        -11    1    3    3    0    0 -0.11535934121E+02 -0.77725382299E+01  0.33741719293E+02  0.36496489525E+02  0.51100000000E-03 0. -1.
         23    2    1    0    0    0 -0.18724853656E+02 -0.16775757072E+02 -0.20879603429E+02  0.92319669385E+02  0.86341863231E+02 0.  0.
         11    1    3    3    0    0 -0.71889195347E+01 -0.90032188420E+01 -0.54621322721E+02  0.55823179860E+02  0.51100000000E-03 0.  1.
         22    1    1    0    0    0  0.18724853656E+02  0.16775757072E+02  0.20879603429E+02  0.32680330615E+02  0.00000000000E+00 0.  1.
</event>
<event>
 5    1  0.1111613E-009  0.9118800E+02  0.7818608E-02  0.1130116E+00
         25   -1    0    0    0    0  0.00000000000E+00  0.00000000000E+00  0.99999998245E-14  0.12500000000E+03  0.12500000000E+03 0.  0.
        -11    1    3    3    0    0  0.10517479431E+02  0.32040826211E+02 -0.18629802651E+02  0.38526633190E+02  0.51100000000E-03 0. -1.
         23    2    1    0    0    0  0.21854481698E+01 -0.25354086893E+02 -0.11882749249E+02  0.96914316181E+02  0.92755479866E+02 0.  0.
         11    1    3    3    0    0 -0.83320312616E+01 -0.57394913104E+02  0.67470534017E+01  0.58387682991E+02  0.51100000000E-03 0.  1.
         22    1    1    0    0    0 -0.21854481698E+01  0.25354086893E+02  0.11882749249E+02  0.28085683819E+02  0.00000000000E+00 0.  1.
</event>
<event>
 5    1  0.1111613E-009  0.9118800E+02  0.7818608E-02  0.1130116E+00
         25   -1    0    0    0    0  0.00000000000E+00  0.00000000000E+00  0.99999998245E-14  0.12500000000E+03  0.12500000000E+03 0.  0.
        -11    1    3    3    0    0 -0.47170675551E+02 -0.37368215780E+02  0.99649624102E+01  0.60998005366E+02  0.51100000000E-03 0.  1.
         23    2    1    0    0    0 -0.22206609559E+02 -0.16249720066E+02 -0.51237395349E+01  0.97010008625E+02  0.92884348285E+02 0.  0.
         11    1    3    3    0    0  0.24964065992E+02  0.21118495714E+02 -0.15088701945E+02  0.36012003259E+02  0.51100000000E-03 0. -1.
         22    1    1    0    0    0  0.22206609559E+02  0.16249720066E+02  0.51237395349E+01  0.27989991375E+02  0.00000000000E+00 0.  1.
</event>
<event>
 5    1  0.1111613E-009  0.9118800E+02  0.7818608E-02  0.1130116E+00
         25   -1    0    0    0    0  0.00000000000E+00  0.00000000000E+00  0.99999998245E-14  0.12500000000E+03  0.12500000000E+03 0.  0.
        -11    1    3    3    0    0  0.43667500088E+02  0.14226996694E+02  0.38786365256E+02  0.60113560275E+02  0.51100000000E-03 0. -1.
         23    2    1    0    0    0  0.10912319698E+02  0.11461575341E+02  0.24220017418E+02  0.96068085542E+02  0.91607976648E+02 0.  0.
         11    1    3    3    0    0 -0.32755180389E+02 -0.27654213535E+01 -0.14566347838E+02  0.35954525268E+02  0.51100000000E-03 0.  1.
         22    1    1    0    0    0 -0.10912319698E+02 -0.11461575341E+02 -0.24220017418E+02  0.28931914458E+02  0.00000000000E+00 0. -1.
</event>
<event>
 5    1  0.1111613E-009  0.9118800E+02  0.7818608E-02  0.1130116E+00
         25   -1    0    0    0    0  0.00000000000E+00  0.00000000000E+00  0.99999998245E-14  0.12500000000E+03  0.12500000000E+03 0.  0.
        -11    1    3    3    0    0  0.55406379757E+02 -0.22999217512E+02 -0.14856489794E+02  0.61802477404E+02  0.51100000000E-03 0. -1.
         23    2    1    0    0    0  0.27239890734E+02 -0.76048692349E+01 -0.11789977813E+01  0.96693892549E+02  0.92457953347E+02 0.  0.
         11    1    3    3    0    0 -0.28166489023E+02  0.15394348277E+02  0.13677492013E+02  0.34891415145E+02  0.51100000000E-03 0.  1.
         22    1    1    0    0    0 -0.27239890734E+02  0.76048692349E+01  0.11789977813E+01  0.28306107451E+02  0.00000000000E+00 0. -1.
</event>
<event>
 5    1  0.1111613E-009  0.9118800E+02  0.7818608E-02  0.1130116E+00
         25   -1    0    0    0    0  0.00000000000E+00  0.00000000000E+00  0.99999998245E-14  0.12500000000E+03  0.12500000000E+03 0.  0.
        -11    1    3    3    0    0  0.31957672140E+02  0.24528963369E+02  0.21350326487E+02  0.45593851493E+02  0.51100000000E-03 0.  1.
         23    2    1    0    0    0  0.14228463992E+02 -0.22161095534E+02  0.10142615171E+02  0.96778802553E+02  0.92572677602E+02 0.  0.
         11    1    3    3    0    0 -0.17729208148E+02 -0.46690058903E+02 -0.11207711316E+02  0.51184951061E+02  0.51100000000E-03 0. -1.
         22    1    1    0    0    0 -0.14228463992E+02  0.22161095534E+02 -0.10142615171E+02  0.28221197447E+02  0.00000000000E+00 0.  1.
</event>
<event>
 5    1  0.1111613E-009  0.9118800E+02  0.7818608E-02  0.1130116E+00
         25   -1    0    0    0    0  0.00000000000E+00  0.00000000000E+00  0.99999998245E-14  0.12500000000E+03  0.12500000000E+03 0.  0.
        -11    1    3    3    0    0  0.24485017691E+02 -0.87954545896E+01 -0.45698218970E+02  0.52585200676E+02  0.51100000000E-03 0. -1.
         23    2    1    0    0    0 -0.12134108841E+02 -0.13447916935E+02 -0.22220723733E+02  0.96332184763E+02  0.91967636649E+02 0.  0.
         11    1    3    3    0    0 -0.36619126532E+02 -0.46524623452E+01  0.23477495238E+02  0.43746984087E+02  0.51100000000E-03 0.  1.
         22    1    1    0    0    0  0.12134108841E+02  0.13447916935E+02  0.22220723733E+02  0.28667815237E+02  0.00000000000E+00 0. -1.
</event>
<event>
 5    1  0.1111613E-009  0.9118800E+02  0.7818608E-02  0.1130116E+00
         25   -1    0    0    0    0  0.00000000000E+00  0.00000000000E+00  0.99999998245E-14  0.12500000000E+03  0.12500000000E+03 0.  0.
        -11    1    3    3    0    0 -0.12440082910E+02 -0.27580538919E+02  0.13823114021E+02  0.33264399459E+02  0.51100000000E-03 0. -1.
         23    2    1    0    0    0  0.11189336159E+02  0.16894891409E+02 -0.22016191360E+02  0.95077578951E+02  0.90246300410E+02 0.  0.
         11    1    3    3    0    0  0.23629419069E+02  0.44475430329E+02 -0.35839305381E+02  0.61813179492E+02  0.51100000000E-03 0.  1.
         22    1    1    0    0    0 -0.11189336159E+02 -0.16894891409E+02  0.22016191360E+02  0.29922421049E+02  0.00000000000E+00 0.  1.
</event>
<event>
 5    1  0.1111613E-009  0.9118800E+02  0.7818608E-02  0.1130116E+00
         25   -1    0    0    0    0  0.00000000000E+00  0.00000000000E+00  0.99999998245E-14  0.12500000000E+03  0.12500000000E+03 0.  0.
        -11    1    3    3    0    0  0.33979277341E+02  0.47061777485E+01 -0.27527101844E+02  0.43982732223E+02  0.51100000000E-03 0. -1.
         23    2    1    0    0    0 -0.35456171484E+01  0.30024262166E+02 -0.57123244443E+01  0.94232186133E+02  0.89067651442E+02 0.  0.
         11    1    3    3    0    0 -0.37524894490E+02  0.25318084417E+02  0.21814777400E+02  0.50249453910E+02  0.51100000000E-03 0.  1.
         22    1    1    0    0    0  0.35456171484E+01 -0.30024262166E+02  0.57123244443E+01  0.30767813867E+02  0.00000000000E+00 0.  1.
</event>
<event>
 5    1  0.1111613E-009  0.9118800E+02  0.7818608E-02  0.1130116E+00
         25   -1    0    0    0    0  0.00000000000E+00  0.00000000000E+00  0.99999998245E-14  0.12500000000E+03  0.12500000000E+03 0.  0.
        -11    1    3    3    0    0  0.69672498758E+01 -0.55718041127E+02 -0.18618963804E+02  0.59158334081E+02  0.51100000000E-03 0. -1.
         23    2    1    0    0    0 -0.31032953431E+01 -0.29562806117E+02  0.37788257391E+01  0.95035529848E+02  0.90188039462E+02 0.  0.
         11    1    3    3    0    0 -0.10070545219E+02  0.26155235010E+02  0.22397789543E+02  0.35877195767E+02  0.51100000000E-03 0.  1.
         22    1    1    0    0    0  0.31032953431E+01  0.29562806117E+02 -0.37788257391E+01  0.29964470152E+02  0.00000000000E+00 0. -1.
</event>
<event>
 5    1  0.1111613E-009  0.9118800E+02  0.7818608E-02  0.1130116E+00
         25   -1    0    0    0    0  0.00000000000E+00  0.00000000000E+00  0.99999998245E-14  0.12500000000E+03  0.12500000000E+03 0.  0.
        -11    1    3    3    0    0 -0.27016904013E+02 -0.13453801619E+02 -0.64689090352E+01  0.30866886218E+02  0.51100000000E-03 0. -1.
         23    2    1    0    0    0  0.11218289053E+02  0.16341279491E+02  0.28248917885E+02  0.90490743469E+02  0.83652171921E+02 0.  0.
         11    1    3    3    0    0  0.38235193065E+02  0.29795081110E+02  0.34717826921E+02  0.59623857250E+02  0.51100000000E-03 0.  1.
         22    1    1    0    0    0 -0.11218289053E+02 -0.16341279491E+02 -0.28248917885E+02  0.34509256531E+02  0.00000000000E+00 0.  1.
</event>
<event>
 5    1  0.1111613E-009  0.9118800E+02  0.7818608E-02  0.1130116E+00
         25   -1    0    0    0    0  0.00000000000E+00  0.00000000000E+00  0.99999998245E-14  0.12500000000E+03  0.12500000000E+03 0.  0.
        -11    1    3    3    0    0 -0.42936446501E+02  0.38953249192E+02 -0.13259590139E+02  0.59470251317E+02  0.51100000000E-03 0.  1.
         23    2    1    0    0    0 -0.93097273303E+01  0.22951338309E+02  0.28960760647E+01  0.10006363680E+03  0.96906703585E+02 0.  0.
         11    1    3    3    0    0  0.33626719171E+02 -0.16001910883E+02  0.16155666204E+02  0.40593385482E+02  0.51100000000E-03 0. -1.
         22    1    1    0    0    0  0.93097273303E+01 -0.22951338309E+02 -0.28960760647E+01  0.24936363201E+02  0.00000000000E+00 0.  1.
</event>
<event>
 5    1  0.1111613E-009  0.9118800E+02  0.7818608E-02  0.1130116E+00
         25   -1    0    0    0    0  0.00000000000E+00  0.00000000000E+00  0.99999998245E-14  0.12500000000E+03  0.12500000000E+03 0.  0.
        -11    1    3    3    0    0 -0.23699839016E+01 -0.30591075961E+02  0.18273768763E+02  0.35712202077E+02  0.51100000000E-03 0.  1.
         23    2    1    0    0    0 -0.19592737009E+02  0.13506402040E+02 -0.17842314104E+02  0.95256993895E+02  0.90494466536E+02 0.  0.
         11    1    3    3    0    0 -0.17222753108E+02  0.44097478001E+02 -0.36116082867E+02  0.59544791817E+02  0.51100000000E-03 0. -1.
         22    1    1    0    0    0  0.19592737009E+02 -0.13506402040E+02  0.17842314104E+02  0.29743006105E+02  0.00000000000E+00 0. -1.
</event>
<event>
 5    1  0.1111613E-009  0.9118800E+02  0.7818608E-02  0.1130116E+00
         25   -1    0    0    0    0  0.00000000000E+00  0.00000000000E+00  0.99999998245E-14  0.12500000000E+03  0.12500000000E+03 0.  0.
        -11    1    3    3    0    0 -0.23933575986E+02 -0.98311593381E+01 -0.32531599415E+02  0.41566485468E+02  0.51100000000E-03 0. -1.
         23    2    1    0    0    0 -0.36973548775E+00 -0.30475842099E+02  0.86577620434E+01  0.93316084529E+02  0.87772553411E+02 0.  0.
         11    1    3    3    0    0  0.23563840498E+02 -0.20644682761E+02  0.41189361459E+02  0.51749599061E+02  0.51100000000E-03 0.  1.
         22    1    1    0    0    0  0.36973548775E+00  0.30475842099E+02 -0.86577620434E+01  0.31683915471E+02  0.00000000000E+00 0.  1.
</event>
<event>
 5    1  0.1111613E-009  0.9118800E+02  0.7818608E-02  0.1130116E+00
         25   -1    0    0    0    0  0.00000000000E+00  0.00000000000E+00  0.99999998245E-14  0.12500000000E+03  0.12500000000E+03 0.  0.
        -11    1    3    3    0    0  0.37510125361E+02  0.29583146026E+02  0.14570636016E+01  0.47794299534E+02  0.51100000000E-03 0. -1.
         23    2    1    0    0    0  0.27365685034E+02 -0.13874024451E+02  0.89388655437E+01  0.93042644211E+02  0.87382269670E+02 0.  0.
         11    1    3    3    0    0 -0.10144440327E+02 -0.43457170477E+02  0.74818019421E+01  0.45248344676E+02  0.51100000000E-03 0.  1.
         22    1    1    0    0    0 -0.27365685034E+02  0.13874024451E+02 -0.89388655437E+01  0.31957355789E+02  0.00000000000E+00 0.  1.
</event>
<event>
 5    1  0.1111613E-009  0.9118800E+02  0.7818608E-02  0.1130116E+00
         25   -1    0    0    0    0  0.00000000000E+00  0.00000000000E+00  0.99999998245E-14  0.12500000000E+03  0.12500000000E+03 0.  0.
        -11    1    3    3    0    0  0.15839246781E+02  0.80740025467E+01  0.58639099837E+02  0.61274915632E+02  0.51100000000E-03 0.  1.
         23    2    1    0    0    0  0.99276685274E+01  0.12062023566E+02  0.26136593741E+02  0.94550491838E+02  0.89513255776E+02 0.  0.
         11    1    3    3    0    0 -0.59115782539E+01  0.39880210191E+01 -0.32502506096E+02  0.33275576207E+02  0.51100000000E-03 0. -1.
         22    1    1    0    0    0 -0.99276685274E+01 -0.12062023566E+02 -0.26136593741E+02  0.30449508162E+02  0.00000000000E+00 0.  1.
</event>
<event>
 5    1  0.1111613E-009  0.9118800E+02  0.7818608E-02  0.1130116E+00
         25   -1    0    0    0    0  0.00000000000E+00  0.00000000000E+00  0.99999998245E-14  0.12500000000E+03  0.12500000000E+03 0.  0.
        -11    1    3    3    0    0 -0.18441955282E+01  0.34832722165E+02  0.16244902398E+02  0.38478779148E+02  0.51100000000E-03 0. -1.
         23    2    1    0    0    0 -0.19828542552E+02 -0.19141151134E+02  0.98692340967E+01  0.95726179817E+02  0.91140248816E+02 0.  0.
         11    1    3    3    0    0 -0.17984347024E+02 -0.53973873299E+02 -0.63756683016E+01  0.57247400668E+02  0.51100000000E-03 0.  1.
         22    1    1    0    0    0  0.19828542552E+02  0.19141151134E+02 -0.98692340967E+01  0.29273820183E+02  0.00000000000E+00 0.  1.
</event>
<event>
 5    1  0.1111613E-009  0.9118800E+02  0.7818608E-02  0.1130116E+00
         25   -1    0    0    0    0  0.00000000000E+00  0.00000000000E+00  0.99999998245E-14  0.12500000000E+03  0.12500000000E+03 0.  0.
        -11    1    3    3    0    0  0.25884739759E+02 -0.97820934342E+01 -0.23135697032E+02  0.36068955928E+02  0.51100000000E-03 0.  1.
         23    2    1    0    0    0 -0.22047880548E+02 -0.31637262334E+00  0.15239396083E+02  0.98196113691E+02  0.94467075867E+02 0.  0.
         11    1    3    3    0    0 -0.47932620307E+02  0.94657208108E+01  0.38375093114E+02  0.62127157763E+02  0.51100000000E-03 0. -1.
         22    1    1    0    0    0  0.22047880548E+02  0.31637262334E+00 -0.15239396083E+02  0.26803886309E+02  0.00000000000E+00 0. -1.
</event>
<event>
 5    1  0.1111613E-009  0.9118800E+02  0.7818608E-02  0.1130116E+00
         25   -1    0    0    0    0  0.00000000000E+00  0.00000000000E+00  0.99999998245E-14  0.12500000000E+03  0.12500000000E+03 0.  0.
        -11    1    3    3    0    0 -0.18566611496E+02 -0.76557858989E+01 -0.55873248770E+02  0.59372974058E+02  0.51100000000E-03 0. -1.
         23    2    1    0    0    0 -0.98606333746E+00  0.80998665240E+01 -0.27666802102E+02  0.96155033417E+02  0.91726541166E+02 0.  0.
         11    1    3    3    0    0  0.17580548158E+02  0.15755652423E+02  0.28206446668E+02  0.36782059359E+02  0.51100000000E-03 0.  1.
         22    1    1    0    0    0  0.98606333746E+00 -0.80998665240E+01  0.27666802102E+02  0.28844966583E+02  0.00000000000E+00 0. -1.
</event>
<event>
 5    1  0.1111613E-009  0.9118800E+02  0.7818608E-02  0.1130116E+00
         25   -1    0    0    0    0  0.00000000000E+00  0.00000000000E+00  0.99999998245E-14  0.12500000000E+03  0.12500000000E+03 0.  0.
        -11    1    3    3    0    0 -0.23265007769E+01 -0.25577133003E+02 -0.26226897270E+02  0.36707662405E+02  0.51100000000E-03 0. -1.
         23    2    1    0    0    0  0.24637498725E+02  0.19706936766E+02 -0.83002670626E+01  0.92376938625E+02  0.86424734054E+02 0.  0.
         11    1    3    3    0    0  0.26963999502E+02  0.45284069770E+02  0.17926630208E+02  0.55669276221E+02  0.51100000000E-03 0.  1.
         22    1    1    0    0    0 -0.24637498725E+02 -0.19706936766E+02  0.83002670626E+01  0.32623061375E+02  0.00000000000E+00 0.  1.
</event>
<event>
 5    1  0.1111613E-009  0.9118800E+02  0.7818608E-02  0.1130116E+00
         25   -1    0    0    0    0  0.00000000000E+00  0.00000000000E+00  0.99999998245E-14  0.12500000000E+03  0.12500000000E+03 0.  0.
        -11    1    3    3    0    0  0.47669722884E+01 -0.32383777083E+02  0.16081668922E+02  0.36469893317E+02  0.51100000000E-03 0. -1.
         23    2    1    0    0    0  0.10229837474E+02  0.88252016253E+01 -0.26048742562E+02  0.95655992988E+02  0.91043935806E+02 0.  0.
         11    1    3    3    0    0  0.54628651858E+01  0.41208978709E+02 -0.42130411483E+02  0.59186099671E+02  0.51100000000E-03 0.  1.
         22    1    1    0    0    0 -0.10229837474E+02 -0.88252016253E+01  0.26048742562E+02  0.29344007012E+02  0.00000000000E+00 0.  1.
</event>
<event>
 5    1  0.1111613E-009  0.9118800E+02  0.7818608E-02  0.1130116E+00
         25   -1    0    0    0    0  0.00000000000E+00  0.00000000000E+00  0.99999998245E-14  0.12500000000E+03  0.12500000000E+03 0.  0.
        -11    1    3    3    0    0  0.26099546825E+02 -0.28022171551E+02 -0.16534273724E+02  0.41711037517E+02  0.51100000000E-03 0. -1.
         23    2    1    0    0    0 -0.93557120256E+01 -0.17437361977E+02  0.22187928051E+02  0.95269626787E+02  0.90511914667E+02 0.  0.
         11    1    3    3    0    0 -0.35455258850E+02  0.10584809575E+02  0.38722201776E+02  0.53558589269E+02  0.51100000000E-03 0.  1.
         22    1    1    0    0    0  0.93557120256E+01  0.17437361977E+02 -0.22187928051E+02  0.29730373213E+02  0.00000000000E+00 0.  1.
</event>
<event>
 5    1  0.1111613E-009  0.9118800E+02  0.7818608E-02  0.1130116E+00
         25   -1    0    0    0    0  0.00000000000E+00  0.00000000000E+00  0.99999998245E-14  0.12500000000E+03  0.12500000000E+03 0.  0.
        -11    1    3    3    0    0  0.12498812937E+01 -0.18202180443E+01  0.48306146380E+02  0.48356583578E+02  0.51100000000E-03 0.  1.
         23    2    1    0    0    0  0.22803883248E+02  0.15367674356E+02  0.96062929521E+01  0.95871605424E+02  0.91339484102E+02 0.  0.
         11    1    3    3    0    0  0.21554001954E+02  0.17187892400E+02 -0.38699853428E+02  0.47515021846E+02  0.51100000000E-03 0. -1.
         22    1    1    0    0    0 -0.22803883248E+02 -0.15367674356E+02 -0.96062929521E+01  0.29128394576E+02  0.00000000000E+00 0. -1.
</event>
<event>
 5    1  0.1111613E-009  0.9118800E+02  0.7818608E-02  0.1130116E+00
         25   -1    0    0    0    0  0.00000000000E+00  0.00000000000E+00  0.99999998245E-14  0.12500000000E+03  0.12500000000E+03 0.  0.
        -11    1    3    3    0    0 -0.50123868517E+02 -0.97305242426E+01 -0.14518009144E+02  0.53083499196E+02  0.51100000000E-03 0. -1.
         23    2    1    0    0    0 -0.21580440131E+02  0.17475084401E+02  0.45120455619E+01  0.96867233939E+02  0.92692008743E+02 0.  0.
         11    1    3    3    0    0  0.28543428386E+02  0.27205608644E+02  0.19030054705E+02  0.43783734743E+02  0.51100000000E-03 0.  1.
         22    1    1    0    0    0  0.21580440131E+02 -0.17475084401E+02 -0.45120455619E+01  0.28132766061E+02  0.00000000000E+00 0. -1.
</event>
<event>
 5    1  0.1111613E-009  0.9118800E+02  0.7818608E-02  0.1130116E+00
         25   -1    0    0    0    0  0.00000000000E+00  0.00000000000E+00  0.99999998245E-14  0.12500000000E+03  0.12500000000E+03 0.  0.
        -11    1    3    3    0    0 -0.18457732905E+02 -0.11586886409E+02  0.30636611642E+02  0.37597151671E+02  0.51100000000E-03 0.  1.
         23    2    1    0    0    0 -0.15352222820E+02  0.17925001353E+02 -0.18509028850E+02  0.95006991348E+02  0.90148476621E+02 0.  0.
         11    1    3    3    0    0  0.31055100850E+01  0.29511887762E+02 -0.49145640492E+02  0.57409839677E+02  0.51100000000E-03 0. -1.
         22    1    1    0    0    0  0.15352222820E+02 -0.17925001353E+02  0.18509028850E+02  0.29993008652E+02  0.00000000000E+00 0. -1.
</event>
<event>
 5    1  0.1111613E-009  0.9118800E+02  0.7818608E-02  0.1130116E+00
         25   -1    0    0    0    0  0.00000000000E+00  0.00000000000E+00  0.99999998245E-14  0.12500000000E+03  0.12500000000E+03 0.  0.
        -11    1    3    3    0    0 -0.81733213910E+01  0.38825022720E+02  0.83140577535E+01  0.40537749424E+02  0.51100000000E-03 0.  1.
         23    2    1    0    0    0  0.28712280356E+01 -0.11896740896E+02  0.26716820800E+02  0.95613525083E+02  0.90985610240E+02 0.  0.
         11    1    3    3    0    0  0.11044549427E+02 -0.50721763616E+02  0.18402763047E+02  0.55075775659E+02  0.51100000000E-03 0. -1.
         22    1    1    0    0    0 -0.28712280356E+01  0.11896740896E+02 -0.26716820800E+02  0.29386474917E+02  0.00000000000E+00 0. -1.
</event>
<event>
 5    1  0.1111613E-009  0.9118800E+02  0.7818608E-02  0.1130116E+00
         25   -1    0    0    0    0  0.00000000000E+00  0.00000000000E+00  0.99999998245E-14  0.12500000000E+03  0.12500000000E+03 0.  0.
        -11    1    3    3    0    0  0.28215255887E+02  0.44184204946E+02  0.26438033527E+02  0.58713833536E+02  0.51100000000E-03 0. -1.
         23    2    1    0    0    0 -0.11077132996E+01  0.26360517524E+02  0.13251887404E+02  0.95475155671E+02  0.90795313303E+02 0.  0.
         11    1    3    3    0    0 -0.29322969187E+02 -0.17823687422E+02 -0.13186146123E+02  0.36761322135E+02  0.51100000000E-03 0.  1.
         22    1    1    0    0    0  0.11077132996E+01 -0.26360517524E+02 -0.13251887404E+02  0.29524844329E+02  0.00000000000E+00 0. -1.
</event>
<event>
 5    1  0.1111613E-009  0.9118800E+02  0.7818608E-02  0.1130116E+00
         25   -1    0    0    0    0  0.00000000000E+00  0.00000000000E+00  0.99999998245E-14  0.12500000000E+03  0.12500000000E+03 0.  0.
        -11    1    3    3    0    0 -0.30410390167E+02 -0.29991930465E+02  0.40444376901E+02  0.58822235135E+02  0.51100000000E-03 0.  1.
         23    2    1    0    0    0 -0.24990600787E+02 -0.13105134014E+02  0.82131108384E+01  0.95610718708E+02  0.90981754638E+02 0.  0.
         11    1    3    3    0    0  0.54197893798E+01  0.16886796451E+02 -0.32231266063E+02  0.36788483573E+02  0.51100000000E-03 0. -1.
         22    1    1    0    0    0  0.24990600787E+02  0.13105134014E+02 -0.82131108384E+01  0.29389281292E+02  0.00000000000E+00 0.  1.
</event>
<event>
 5    1  0.1111613E-009  0.9118800E+02  0.7818608E-02  0.1130116E+00
         25   -1    0    0    0    0  0.00000000000E+00  0.00000000000E+00  0.99999998245E-14  0.12500000000E+03  0.12500000000E+03 0.  0.
        -11    1    3    3    0    0 -0.32776140806E+01  0.58547588866E+02 -0.47941088168E+01  0.58834907969E+02  0.51100000000E-03 0.  1.
         23    2    1    0    0    0  0.51120362390E+01  0.26707829440E+02  0.11383182968E+02  0.95520890068E+02  0.90858255084E+02 0.  0.
         11    1    3    3    0    0  0.83896503197E+01 -0.31839759426E+02  0.16177291785E+02  0.36685982099E+02  0.51100000000E-03 0. -1.
         22    1    1    0    0    0 -0.51120362390E+01 -0.26707829440E+02 -0.11383182968E+02  0.29479109932E+02  0.00000000000E+00 0.  1.
</event>
<event>
 5    1  0.1111613E-009  0.9118800E+02  0.7818608E-02  0.1130116E+00
         25   -1    0    0    0    0  0.00000000000E+00  0.00000000000E+00  0.99999998245E-14  0.12500000000E+03  0.12500000000E+03 0.  0.
        -11    1    3    3    0    0 -0.47466527095E+02 -0.11462434775E+02  0.23760201713E+02  0.54304749250E+02  0.51100000000E-03 0.  1.
         23    2    1    0    0    0 -0.24848532679E+02  0.17086209143E+02  0.10364504185E+02  0.93112524932E+02  0.87482176660E+02 0.  0.
         11    1    3    3    0    0  0.22617994415E+02  0.28548643918E+02 -0.13395697528E+02  0.38807775683E+02  0.51100000000E-03 0. -1.
         22    1    1    0    0    0  0.24848532679E+02 -0.17086209143E+02 -0.10364504185E+02  0.31887475068E+02  0.00000000000E+00 0. -1.
</event>
<event>
 5    1  0.1111613E-009  0.9118800E+02  0.7818608E-02  0.1130116E+00
         25   -1    0    0    0    0  0.00000000000E+00  0.00000000000E+00  0.99999998245E-14  0.12500000000E+03  0.12500000000E+03 0.  0.
        -11    1    3    3    0    0 -0.85779648406E+00  0.14201430088E+02  0.30332099005E+02  0.33503024665E+02  0.51100000000E-03 0.  1.
         23    2    1    0    0    0  0.21913874164E+02 -0.17228505484E+02  0.42496480583E+02  0.74176873925E+02  0.54029792534E+02 0.  0.
         11    1    3    3    0    0  0.22771670648E+02 -0.31429935572E+02  0.12164381578E+02  0.40673849260E+02  0.51100000000E-03 0. -1.
         22    1    1    0    0    0 -0.21913874164E+02  0.17228505484E+02 -0.42496480583E+02  0.50823126075E+02  0.00000000000E+00 0. -1.
</event>
<event>
 5    1  0.1111613E-009  0.9118800E+02  0.7818608E-02  0.1130116E+00
         25   -1    0    0    0    0  0.00000000000E+00  0.00000000000E+00  0.99999998245E-14  0.12500000000E+03  0.12500000000E+03 0.  0.
        -11    1    3    3    0    0  0.52155168256E+02  0.18444208757E+02 -0.89970385908E+01  0.56047275724E+02  0.51100000000E-03 0. -1.
         23    2    1    0    0    0  0.13602409346E+02  0.20067336590E+02 -0.16916313217E+02  0.95438450807E+02  0.90744766800E+02 0.  0.
         11    1    3    3    0    0 -0.38552758910E+02  0.16231278335E+01 -0.79192746264E+01  0.39391175082E+02  0.51100000000E-03 0.  1.
         22    1    1    0    0    0 -0.13602409346E+02 -0.20067336590E+02  0.16916313217E+02  0.29561549193E+02  0.00000000000E+00 0. -1.
</event>
<event>
 5    1  0.1111613E-009  0.9118800E+02  0.7818608E-02  0.1130116E+00
         25   -1    0    0    0    0  0.00000000000E+00  0.00000000000E+00  0.99999998245E-14  0.12500000000E+03  0.12500000000E+03 0.  0.
        -11    1    3    3    0    0  0.41070144547E+02 -0.32377961634E+02  0.27998625501E+02  0.59321262654E+02  0.51100000000E-03 0. -1.
         23    2    1    0    0    0  0.86672176063E+01 -0.23192390838E+02  0.17784091933E+02  0.94515879877E+02  0.89464909150E+02 0.  0.
         11    1    3    3    0    0 -0.32402926940E+02  0.91855707964E+01 -0.10214533568E+02  0.35194617223E+02  0.51100000000E-03 0.  1.
         22    1    1    0    0    0 -0.86672176063E+01  0.23192390838E+02 -0.17784091933E+02  0.30484120123E+02  0.00000000000E+00 0. -1.
</event>
<event>
 5    1  0.1111613E-009  0.9118800E+02  0.7818608E-02  0.1130116E+00
         25   -1    0    0    0    0  0.00000000000E+00  0.00000000000E+00  0.99999998245E-14  0.12500000000E+03  0.12500000000E+03 0.  0.
        -11    1    3    3    0    0  0.19759891247E+02  0.11084971300E+02 -0.35075542805E+02  0.41756719150E+02  0.51100000000E-03 0.  1.
         23    2    1    0    0    0  0.26276952447E+02  0.82968644924E+01  0.15875386144E+02  0.93198363634E+02  0.87604742501E+02 0.  0.
         11    1    3    3    0    0  0.65170612003E+01 -0.27881068075E+01  0.50950928949E+02  0.51441644485E+02  0.51100000000E-03 0. -1.
         22    1    1    0    0    0 -0.26276952447E+02 -0.82968644924E+01 -0.15875386144E+02  0.31801636366E+02  0.00000000000E+00 0. -1.
</event>
<event>
 5    1  0.1111613E-009  0.9118800E+02  0.7818608E-02  0.1130116E+00
         25   -1    0    0    0    0  0.00000000000E+00  0.00000000000E+00  0.99999998245E-14  0.12500000000E+03  0.12500000000E+03 0.  0.
        -11    1    3    3    0    0  0.10967270069E+02  0.38074199671E+02 -0.17723287432E+02  0.43405536640E+02  0.51100000000E-03 0.  1.
         23    2    1    0    0    0  0.11340491108E+02  0.10142122544E+02  0.25756527478E+02  0.95085654011E+02  0.90257484469E+02 0.  0.
         11    1    3    3    0    0  0.37322103849E+00 -0.27932077127E+02  0.43479814910E+02  0.51680117370E+02  0.51100000000E-03 0. -1.
         22    1    1    0    0    0 -0.11340491108E+02 -0.10142122544E+02 -0.25756527478E+02  0.29914345989E+02  0.00000000000E+00 0. -1.
</event>
<event>
 5    1  0.1111613E-009  0.9118800E+02  0.7818608E-02  0.1130116E+00
         25   -1    0    0    0    0  0.00000000000E+00  0.00000000000E+00  0.99999998245E-14  0.12500000000E+03  0.12500000000E+03 0.  0.
        -11    1    3    3    0    0 -0.15399476917E+02 -0.59487702749E+02  0.96716771770E+01  0.62205080238E+02  0.51100000000E-03 0.  1.
         23    2    1    0    0    0 -0.29558165671E+01 -0.28241480219E+02  0.36953283095E+01  0.96364820451E+02  0.92011983527E+02 0.  0.
         11    1    3    3    0    0  0.12443660350E+02  0.31246222531E+02 -0.59763488676E+01  0.34159740213E+02  0.51100000000E-03 0. -1.
         22    1    1    0    0    0  0.29558165671E+01  0.28241480219E+02 -0.36953283095E+01  0.28635179549E+02  0.00000000000E+00 0.  1.
</event>
<event>
 5    1  0.1111613E-009  0.9118800E+02  0.7818608E-02  0.1130116E+00
         25   -1    0    0    0    0  0.00000000000E+00  0.00000000000E+00  0.99999998245E-14  0.12500000000E+03  0.12500000000E+03 0.  0.
        -11    1    3    3    0    0  0.39411034964E+02 -0.32863464583E+02 -0.15607721244E+02  0.53636162652E+02  0.51100000000E-03 0. -1.
         23    2    1    0    0    0  0.87246350563E+01 -0.27491321127E+02  0.10523480608E+02  0.94297628133E+02  0.89159447246E+02 0.  0.
         11    1    3    3    0    0 -0.30686399907E+02  0.53721434565E+01  0.26131201852E+02  0.40661465481E+02  0.51100000000E-03 0.  1.
         22    1    1    0    0    0 -0.87246350563E+01  0.27491321127E+02 -0.10523480608E+02  0.30702371867E+02  0.00000000000E+00 0.  1.
</event>
<event>
 5    1  0.1111613E-009  0.9118800E+02  0.7818608E-02  0.1130116E+00
         25   -1    0    0    0    0  0.00000000000E+00  0.00000000000E+00  0.99999998245E-14  0.12500000000E+03  0.12500000000E+03 0.  0.
        -11    1    3    3    0    0 -0.34145749750E+02  0.27670400346E+02 -0.31560221265E+02  0.54107585863E+02  0.51100000000E-03 0. -1.
         23    2    1    0    0    0  0.42181110995E+01  0.14124772925E+02 -0.25919624454E+02  0.95181740439E+02  0.90390459174E+02 0.  0.
         11    1    3    3    0    0  0.38363860850E+02 -0.13545627421E+02  0.56405968114E+01  0.41074154576E+02  0.51100000000E-03 0.  1.
         22    1    1    0    0    0 -0.42181110995E+01 -0.14124772925E+02  0.25919624454E+02  0.29818259561E+02  0.00000000000E+00 0. -1.
</event>
<event>
 5    1  0.1111613E-009  0.9118800E+02  0.7818608E-02  0.1130116E+00
         25   -1    0    0    0    0  0.00000000000E+00  0.00000000000E+00  0.99999998245E-14  0.12500000000E+03  0.12500000000E+03 0.  0.
        -11    1    3    3    0    0  0.38276389554E+02  0.17881839322E+02 -0.45124533990E+02  0.61814769618E+02  0.51100000000E-03 0. -1.
         23    2    1    0    0    0  0.20205259062E+02  0.11573163711E+02 -0.15701730688E+02  0.96915574447E+02  0.92757175527E+02 0.  0.
         11    1    3    3    0    0 -0.18071130492E+02 -0.63086756110E+01  0.29422803302E+02  0.35100804829E+02  0.51100000000E-03 0.  1.
         22    1    1    0    0    0 -0.20205259062E+02 -0.11573163711E+02  0.15701730688E+02  0.28084425553E+02  0.00000000000E+00 0. -1.
</event>
<event>
 5    1  0.1111613E-009  0.9118800E+02  0.7818608E-02  0.1130116E+00
         25   -1    0    0    0    0  0.00000000000E+00  0.00000000000E+00  0.99999998245E-14  0.12500000000E+03  0.12500000000E+03 0.  0.
        -11    1    3    3    0    0 -0.36392357389E+02  0.18283934058E+02  0.37623909823E+02  0.55446050460E+02  0.51100000000E-03 0. -1.
         23    2    1    0    0    0 -0.88848702148E+01  0.20002558684E+02 -0.12251793649E+01  0.10307867848E+03  0.10072075069E+03 0.  0.
         11    1    3    3    0    0  0.27507487174E+02  0.17186246268E+01 -0.38849089188E+02  0.47632628021E+02  0.51100000000E-03 0.  1.
         22    1    1    0    0    0  0.88848702148E+01 -0.20002558684E+02  0.12251793649E+01  0.21921321519E+02  0.00000000000E+00 0. -1.
</event>
<event>
 5    1  0.1111613E-009  0.9118800E+02  0.7818608E-02  0.1130116E+00
         25   -1    0    0    0    0  0.00000000000E+00  0.00000000000E+00  0.99999998245E-14  0.12500000000E+03  0.12500000000E+03 0.  0.
        -11    1    3    3    0    0  0.25096168956E+02  0.39719972464E+02  0.33198935657E+02  0.57529672673E+02  0.51100000000E-03 0. -1.
         23    2    1    0    0    0  0.27301642233E+02  0.12089088735E+02  0.10524828731E+02  0.93340913549E+02  0.87807906178E+02 0.  0.
         11    1    3    3    0    0  0.22054732772E+01 -0.27630883728E+02 -0.22674106926E+02  0.35811240877E+02  0.51100000000E-03 0.  1.
         22    1    1    0    0    0 -0.27301642233E+02 -0.12089088735E+02 -0.10524828731E+02  0.31659086451E+02  0.00000000000E+00 0. -1.
</event>
<event>
 5    1  0.1111613E-009  0.9118800E+02  0.7818608E-02  0.1130116E+00
         25   -1    0    0    0    0  0.00000000000E+00  0.00000000000E+00  0.99999998245E-14  0.12500000000E+03  0.12500000000E+03 0.  0.
        -11    1    3    3    0    0 -0.37730349727E+02  0.22356813839E+01  0.11218580507E+02  0.39426312415E+02  0.51100000000E-03 0. -1.
         23    2    1    0    0    0  0.11462831736E+02 -0.25780364456E+02  0.43411005150E+01  0.96454092122E+02  0.92133180942E+02 0.  0.
         11    1    3    3    0    0  0.49193181463E+02 -0.28016045840E+02 -0.68774799920E+01  0.57027779707E+02  0.51100000000E-03 0.  1.
         22    1    1    0    0    0 -0.11462831736E+02  0.25780364456E+02 -0.43411005150E+01  0.28545907878E+02  0.00000000000E+00 0.  1.
</event>
<event>
 5    1  0.1111613E-009  0.9118800E+02  0.7818608E-02  0.1130116E+00
         25   -1    0    0    0    0  0.00000000000E+00  0.00000000000E+00  0.99999998245E-14  0.12500000000E+03  0.12500000000E+03 0.  0.
        -11    1    3    3    0    0  0.31538128416E+02 -0.14074368353E+02 -0.37359945001E+02  0.50877370994E+02  0.51100000000E-03 0.  1.
         23    2    1    0    0    0  0.11922970135E+01 -0.27891058573E+02 -0.64406701904E+01  0.96350131711E+02  0.91992026435E+02 0.  0.
         11    1    3    3    0    0 -0.30345831403E+02 -0.13816690220E+02  0.30919274810E+02  0.45472760717E+02  0.51100000000E-03 0. -1.
         22    1    1    0    0    0 -0.11922970135E+01  0.27891058573E+02  0.64406701904E+01  0.28649868289E+02  0.00000000000E+00 0.  1.
</event>
<event>
 5    1  0.1111613E-009  0.9118800E+02  0.7818608E-02  0.1130116E+00
         25   -1    0    0    0    0  0.00000000000E+00  0.00000000000E+00  0.99999998245E-14  0.12500000000E+03  0.12500000000E+03 0.  0.
        -11    1    3    3    0    0 -0.27002206660E+02 -0.18659777777E+02  0.29401040577E+02  0.44065038959E+02  0.51100000000E-03 0. -1.
         23    2    1    0    0    0  0.17285164081E+02 -0.22090509722E+02  0.71698712412E+00  0.96941461413E+02  0.92792054365E+02 0.  0.
         11    1    3    3    0    0  0.44287370741E+02 -0.34307319456E+01 -0.28684053452E+02  0.52876422454E+02  0.51100000000E-03 0.  1.
         22    1    1    0    0    0 -0.17285164081E+02  0.22090509722E+02 -0.71698712412E+00  0.28058538587E+02  0.00000000000E+00 0. -1.
</event>
<event>
 5    1  0.1111613E-009  0.9118800E+02  0.7818608E-02  0.1130116E+00
         25   -1    0    0    0    0  0.00000000000E+00  0.00000000000E+00  0.99999998245E-14  0.12500000000E+03  0.12500000000E+03 0.  0.
        -11    1    3    3    0    0 -0.36464274160E+01  0.35814573177E+02  0.17089291227E+02  0.39850018314E+02  0.51100000000E-03 0. -1.
         23    2    1    0    0    0  0.26765982981E+02 -0.91368986252E+01  0.10885532018E+00  0.96717273630E+02  0.92489558370E+02 0.  0.
         11    1    3    3    0    0  0.30412410397E+02 -0.44951471802E+02 -0.16980435906E+02  0.56867255316E+02  0.51100000000E-03 0.  1.
         22    1    1    0    0    0 -0.26765982981E+02  0.91368986252E+01 -0.10885532018E+00  0.28282726370E+02  0.00000000000E+00 0.  1.
</event>
<event>
 5    1  0.1111613E-009  0.9118800E+02  0.7818608E-02  0.1130116E+00
         25   -1    0    0    0    0  0.00000000000E+00  0.00000000000E+00  0.99999998245E-14  0.12500000000E+03  0.12500000000E+03 0.  0.
        -11    1    3    3    0    0  0.41040052268E+02  0.19456349869E+02 -0.15890249532E+02  0.48117932944E+02  0.51100000000E-03 0. -1.
         23    2    1    0    0    0  0.22611328874E+02 -0.20205345364E+02  0.78533134476E-01  0.94676175337E+02  0.89688593669E+02 0.  0.
         11    1    3    3    0    0 -0.18428723394E+02 -0.39661695233E+02  0.15968782667E+02  0.46558242393E+02  0.51100000000E-03 0.  1.
         22    1    1    0    0    0 -0.22611328874E+02  0.20205345364E+02 -0.78533134476E-01  0.30323824663E+02  0.00000000000E+00 0. -1.
</event>
<event>
 5    1  0.1111613E-009  0.9118800E+02  0.7818608E-02  0.1130116E+00
         25   -1    0    0    0    0  0.00000000000E+00  0.00000000000E+00  0.99999998245E-14  0.12500000000E+03  0.12500000000E+03 0.  0.
        -11    1    3    3    0    0 -0.94344252943E+01 -0.28013502699E+02 -0.21133575902E+02  0.36337208819E+02  0.51100000000E-03 0.  1.
         23    2    1    0    0    0 -0.18065311642E+02  0.24584362348E+02  0.19658097125E+01  0.94428595639E+02  0.89342872742E+02 0.  0.
         11    1    3    3    0    0 -0.86308863478E+01  0.52597865047E+02  0.23099385614E+02  0.58091386820E+02  0.51100000000E-03 0. -1.
         22    1    1    0    0    0  0.18065311642E+02 -0.24584362348E+02 -0.19658097125E+01  0.30571404361E+02  0.00000000000E+00 0. -1.
</event>
<event>
 5    1  0.1111613E-009  0.9118800E+02  0.7818608E-02  0.1130116E+00
         25   -1    0    0    0    0  0.00000000000E+00  0.00000000000E+00  0.99999998245E-14  0.12500000000E+03  0.12500000000E+03 0.  0.
        -11    1    3    3    0    0 -0.43388860717E+02 -0.36872288285E+02 -0.20027002951E+02  0.60359255505E+02  0.51100000000E-03 0.  1.
         23    2    1    0    0    0 -0.16785231632E+02 -0.14372442186E+02 -0.19990654621E+02  0.95201722071E+02  0.90418087338E+02 0.  0.
         11    1    3    3    0    0  0.26603629085E+02  0.22499846099E+02  0.36348330066E-01  0.34842466566E+02  0.51100000000E-03 0. -1.
         22    1    1    0    0    0  0.16785231632E+02  0.14372442186E+02  0.19990654621E+02  0.29798277929E+02  0.00000000000E+00 0.  1.
</event>
<event>
 5    1  0.1111613E-009  0.9118800E+02  0.7818608E-02  0.1130116E+00
         25   -1    0    0    0    0  0.00000000000E+00  0.00000000000E+00  0.99999998245E-14  0.12500000000E+03  0.12500000000E+03 0.  0.
        -11    1    3    3    0    0  0.15521595323E+02 -0.34039837485E+02 -0.46205653737E+02  0.59452442296E+02  0.51100000000E-03 0.  1.
         23    2    1    0    0    0  0.12948626865E+02 -0.35128853774E+01 -0.24729043304E+02  0.96865805786E+02  0.92690082783E+02 0.  0.
         11    1    3    3    0    0 -0.25729684581E+01  0.30526952108E+02  0.21476610433E+02  0.37413363490E+02  0.51100000000E-03 0. -1.
         22    1    1    0    0    0 -0.12948626865E+02  0.35128853774E+01  0.24729043304E+02  0.28134194214E+02  0.00000000000E+00 0.  1.
</event>
<event>
 5    1  0.1111613E-009  0.9118800E+02  0.7818608E-02  0.1130116E+00
         25   -1    0    0    0    0  0.00000000000E+00  0.00000000000E+00  0.99999998245E-14  0.12500000000E+03  0.12500000000E+03 0.  0.
        -11    1    3    3    0    0 -0.53624659375E+02 -0.48226266704E+01  0.57039269944E+01  0.54142373466E+02  0.51100000000E-03 0. -1.
         23    2    1    0    0    0 -0.19720452180E+02  0.89120990088E+01  0.21956831950E+02  0.94171049122E+02  0.88981808705E+02 0.  0.
         11    1    3    3    0    0  0.33904207195E+02  0.13734725679E+02  0.16252904956E+02  0.40028675656E+02  0.51100000000E-03 0.  1.
         22    1    1    0    0    0  0.19720452180E+02 -0.89120990088E+01 -0.21956831950E+02  0.30828950878E+02  0.00000000000E+00 0.  1.
</event>
<event>
 5    1  0.1111613E-009  0.9118800E+02  0.7818608E-02  0.1130116E+00
         25   -1    0    0    0    0  0.00000000000E+00  0.00000000000E+00  0.99999998245E-14  0.12500000000E+03  0.12500000000E+03 0.  0.
        -11    1    3    3    0    0 -0.58303732345E+02 -0.18759071563E+02 -0.59873326462E+01  0.61539224270E+02  0.51100000000E-03 0.  1.
         23    2    1    0    0    0 -0.47371596699E+02 -0.11272564287E+02  0.52456188298E+00  0.76302833300E+02  0.58742729975E+02 0.  0.
         11    1    3    3    0    0  0.10932135646E+02  0.74865072761E+01  0.65118945291E+01  0.14763609030E+02  0.51100000000E-03 0. -1.
         22    1    1    0    0    0  0.47371596699E+02  0.11272564287E+02 -0.52456188298E+00  0.48697166700E+02  0.00000000000E+00 0.  1.
</event>
<event>
 5    1  0.1111613E-009  0.9118800E+02  0.7818608E-02  0.1130116E+00
         25   -1    0    0    0    0  0.00000000000E+00  0.00000000000E+00  0.99999998245E-14  0.12500000000E+03  0.12500000000E+03 0.  0.
        -11    1    3    3    0    0  0.17188071634E+01 -0.29127464929E+02  0.15325797041E+02  0.32958209394E+02  0.51100000000E-03 0.  1.
         23    2    1    0    0    0  0.61940291519E+01  0.20342966559E+02 -0.21475117669E+02  0.94777773668E+02  0.89830080803E+02 0.  0.
         11    1    3    3    0    0  0.44752219885E+01  0.49470431487E+02 -0.36800914710E+02  0.61819564275E+02  0.51100000000E-03 0. -1.
         22    1    1    0    0    0 -0.61940291519E+01 -0.20342966559E+02  0.21475117669E+02  0.30222226332E+02  0.00000000000E+00 0. -1.
</event>
<event>
 5    1  0.1111613E-009  0.9118800E+02  0.7818608E-02  0.1130116E+00
         25   -1    0    0    0    0  0.00000000000E+00  0.00000000000E+00  0.99999998245E-14  0.12500000000E+03  0.12500000000E+03 0.  0.
        -11    1    3    3    0    0 -0.38884903299E+02 -0.21047151241E+02  0.41783219463E+02  0.60834658780E+02  0.51100000000E-03 0.  1.
         23    2    1    0    0    0 -0.13255033767E+02 -0.35404323534E+01  0.25876025683E+02  0.95711789290E+02  0.91120509890E+02 0.  0.
         11    1    3    3    0    0  0.25629869532E+02  0.17506718887E+02 -0.15907193780E+02  0.34877130510E+02  0.51100000000E-03 0. -1.
         22    1    1    0    0    0  0.13255033767E+02  0.35404323534E+01 -0.25876025683E+02  0.29288210710E+02  0.00000000000E+00 0.  1.
</event>
<event>
 5    1  0.1111613E-009  0.9118800E+02  0.7818608E-02  0.1130116E+00
         25   -1    0    0    0    0  0.00000000000E+00  0.00000000000E+00  0.99999998245E-14  0.12500000000E+03  0.12500000000E+03 0.  0.
        -11    1    3    3    0    0  0.20968723887E+01 -0.35518355682E+02 -0.95652371559E+01  0.36843509961E+02  0.51100000000E-03 0.  1.
         23    2    1    0    0    0  0.31992334701E+01  0.22547244660E+02 -0.18572309098E+02  0.95613880798E+02  0.90986098935E+02 0.  0.
         11    1    3    3    0    0  0.11023610813E+01  0.58065600342E+02 -0.90070719425E+01  0.58770370836E+02  0.51100000000E-03 0. -1.
         22    1    1    0    0    0 -0.31992334701E+01 -0.22547244660E+02  0.18572309098E+02  0.29386119202E+02  0.00000000000E+00 0. -1.
</event>
<event>
 5    1  0.1111613E-009  0.9118800E+02  0.7818608E-02  0.1130116E+00
         25   -1    0    0    0    0  0.00000000000E+00  0.00000000000E+00  0.99999998245E-14  0.12500000000E+03  0.12500000000E+03 0.  0.
        -11    1    3    3    0    0 -0.53926569989E+02  0.24569858804E+01 -0.29078250832E+02  0.61316037071E+02  0.51100000000E-03 0.  1.
         23    2    1    0    0    0 -0.29021581272E+02  0.15715969763E+01 -0.59132084673E+01  0.95340463069E+02  0.90609689146E+02 0.  0.
         11    1    3    3    0    0  0.24904988716E+02 -0.88538890411E+00  0.23165042365E+02  0.34024425998E+02  0.51100000000E-03 0. -1.
         22    1    1    0    0    0  0.29021581272E+02 -0.15715969763E+01  0.59132084673E+01  0.29659536931E+02  0.00000000000E+00 0.  1.
</event>
<event>
 5    1  0.1111613E-009  0.9118800E+02  0.7818608E-02  0.1130116E+00
         25   -1    0    0    0    0  0.00000000000E+00  0.00000000000E+00  0.99999998245E-14  0.12500000000E+03  0.12500000000E+03 0.  0.
        -11    1    3    3    0    0  0.62568328851E+01 -0.40308035428E+02  0.17636816992E+01  0.40828865417E+02  0.51100000000E-03 0.  1.
         23    2    1    0    0    0 -0.14942876349E+02  0.58210049275E+01 -0.22719004133E+02  0.97191245969E+02  0.93127930785E+02 0.  0.
         11    1    3    3    0    0 -0.21199709234E+02  0.46129040355E+02 -0.24482685832E+02  0.56362380553E+02  0.51100000000E-03 0. -1.
         22    1    1    0    0    0  0.14942876349E+02 -0.58210049275E+01  0.22719004133E+02  0.27808754031E+02  0.00000000000E+00 0. -1.
</event>
<event>
 5    1  0.1111613E-009  0.9118800E+02  0.7818608E-02  0.1130116E+00
         25   -1    0    0    0    0  0.00000000000E+00  0.00000000000E+00  0.99999998245E-14  0.12500000000E+03  0.12500000000E+03 0.  0.
        -11    1    3    3    0    0 -0.20251094361E+02 -0.26703579153E+02  0.14098126145E+02  0.36358563275E+02  0.51100000000E-03 0. -1.
         23    2    1    0    0    0  0.19653682347E+02 -0.11393135412E+02 -0.22793448456E+02  0.92819073089E+02  0.87061864627E+02 0.  0.
         11    1    3    3    0    0  0.39904776707E+02  0.15310443741E+02 -0.36891574601E+02  0.56460509814E+02  0.51100000000E-03 0.  1.
         22    1    1    0    0    0 -0.19653682347E+02  0.11393135412E+02  0.22793448456E+02  0.32180926911E+02  0.00000000000E+00 0.  1.
</event>
<event>
 5    1  0.1111613E-009  0.9118800E+02  0.7818608E-02  0.1130116E+00
         25   -1    0    0    0    0  0.00000000000E+00  0.00000000000E+00  0.99999998245E-14  0.12500000000E+03  0.12500000000E+03 0.  0.
        -11    1    3    3    0    0 -0.36645637901E+02  0.40778625393E+01 -0.14555295576E+02  0.39640741285E+02  0.51100000000E-03 0. -1.
         23    2    1    0    0    0  0.98415812300E+01 -0.26562827588E+02 -0.28991653944E+01  0.96524647666E+02  0.92228856202E+02 0.  0.
         11    1    3    3    0    0  0.46487219131E+02 -0.30640690127E+02  0.11656130181E+02  0.56883906380E+02  0.51100000000E-03 0.  1.
         22    1    1    0    0    0 -0.98415812300E+01  0.26562827588E+02  0.28991653944E+01  0.28475352334E+02  0.00000000000E+00 0.  1.
</event>
<event>
 5    1  0.1111613E-009  0.9118800E+02  0.7818608E-02  0.1130116E+00
         25   -1    0    0    0    0  0.00000000000E+00  0.00000000000E+00  0.99999998245E-14  0.12500000000E+03  0.12500000000E+03 0.  0.
        -11    1    3    3    0    0  0.18470583662E+02 -0.28330716908E+02  0.13311331699E+02  0.36345337159E+02  0.51100000000E-03 0.  1.
         23    2    1    0    0    0 -0.29849046768E+02 -0.11456444888E+02 -0.84024110419E+01  0.91942228845E+02  0.85793689810E+02 0.  0.
         11    1    3    3    0    0 -0.48319630429E+02  0.16874272020E+02 -0.21713742741E+02  0.55596891686E+02  0.51100000000E-03 0. -1.
         22    1    1    0    0    0  0.29849046768E+02  0.11456444888E+02  0.84024110419E+01  0.33057771155E+02  0.00000000000E+00 0. -1.
</event>
<event>
 5    1  0.1111613E-009  0.9118800E+02  0.7818608E-02  0.1130116E+00
         25   -1    0    0    0    0  0.00000000000E+00  0.00000000000E+00  0.99999998245E-14  0.12500000000E+03  0.12500000000E+03 0.  0.
        -11    1    3    3    0    0 -0.65029285097E+01 -0.49604031715E+02 -0.30624613864E+02  0.58657608340E+02  0.51100000000E-03 0.  1.
         23    2    1    0    0    0  0.54739494480E+01 -0.14919844623E+02 -0.24407693579E+02  0.95874385981E+02  0.91343289274E+02 0.  0.
         11    1    3    3    0    0  0.11976877958E+02  0.34684187093E+02  0.62169202850E+01  0.37216777641E+02  0.51100000000E-03 0. -1.
         22    1    1    0    0    0 -0.54739494480E+01  0.14919844623E+02  0.24407693579E+02  0.29125614019E+02  0.00000000000E+00 0.  1.
</event>
<event>
 5    1  0.1111613E-009  0.9118800E+02  0.7818608E-02  0.1130116E+00
         25   -1    0    0    0    0  0.00000000000E+00  0.00000000000E+00  0.99999998245E-14  0.12500000000E+03  0.12500000000E+03 0.  0.
        -11    1    3    3    0    0  0.47343264573E+01 -0.37228052507E+02  0.11588847011E+02  0.39276495716E+02  0.51100000000E-03 0.  1.
         23    2    1    0    0    0  0.25884355045E+02  0.14059310395E+02  0.36631767901E+01  0.95316959235E+02  0.90577258783E+02 0.  0.
         11    1    3    3    0    0  0.21150028588E+02  0.51287362902E+02 -0.79256702209E+01  0.56040463518E+02  0.51100000000E-03 0. -1.
         22    1    1    0    0    0 -0.25884355045E+02 -0.14059310395E+02 -0.36631767901E+01  0.29683040765E+02  0.00000000000E+00 0. -1.
</event>
<event>
 5    1  0.1111613E-009  0.9118800E+02  0.7818608E-02  0.1130116E+00
         25   -1    0    0    0    0  0.00000000000E+00  0.00000000000E+00  0.99999998245E-14  0.12500000000E+03  0.12500000000E+03 0.  0.
        -11    1    3    3    0    0  0.18048977537E+02  0.49669425193E+02 -0.25554960503E+01  0.52908864565E+02  0.51100000000E-03 0.  1.
         23    2    1    0    0    0 -0.97457977022E+01  0.20770736435E+02  0.15937734685E+02  0.97064083122E+02  0.92957091072E+02 0.  0.
         11    1    3    3    0    0 -0.27794775240E+02 -0.28898688759E+02  0.18493230736E+02  0.44155218558E+02  0.51100000000E-03 0. -1.
         22    1    1    0    0    0  0.97457977022E+01 -0.20770736435E+02 -0.15937734685E+02  0.27935916878E+02  0.00000000000E+00 0.  1.
</event>
<event>
 5    1  0.1111613E-009  0.9118800E+02  0.7818608E-02  0.1130116E+00
         25   -1    0    0    0    0  0.00000000000E+00  0.00000000000E+00  0.99999998245E-14  0.12500000000E+03  0.12500000000E+03 0.  0.
        -11    1    3    3    0    0 -0.48739666436E+02  0.21525507667E+02  0.11297363044E+02  0.54465888192E+02  0.51100000000E-03 0.  1.
         23    2    1    0    0    0 -0.12356961469E+02  0.18325741624E+02 -0.13947512295E+02  0.98864575725E+02  0.95347490429E+02 0.  0.
         11    1    3    3    0    0  0.36382704966E+02 -0.31997660431E+01 -0.25244875340E+02  0.44398687532E+02  0.51100000000E-03 0. -1.
         22    1    1    0    0    0  0.12356961469E+02 -0.18325741624E+02  0.13947512295E+02  0.26135424275E+02  0.00000000000E+00 0.  1.
</event>
<event>
 5    1  0.1111613E-009  0.9118800E+02  0.7818608E-02  0.1130116E+00
         25   -1    0    0    0    0  0.00000000000E+00  0.00000000000E+00  0.99999998245E-14  0.12500000000E+03  0.12500000000E+03 0.  0.
        -11    1    3    3    0    0 -0.28985638206E+01 -0.17266548729E+02  0.28321144489E+02  0.33295984783E+02  0.51100000000E-03 0. -1.
         23    2    1    0    0    0  0.60878024501E+01  0.15128474738E+02 -0.24297569316E+02  0.95737328194E+02  0.91155537673E+02 0.  0.
         11    1    3    3    0    0  0.89863662707E+01  0.32395023467E+02 -0.52618713805E+02  0.62441343411E+02  0.51100000000E-03 0.  1.
         22    1    1    0    0    0 -0.60878024501E+01 -0.15128474738E+02  0.24297569316E+02  0.29262671806E+02  0.00000000000E+00 0.  1.
</event>
<event>
 5    1  0.1111613E-009  0.9118800E+02  0.7818608E-02  0.1130116E+00
         25   -1    0    0    0    0  0.00000000000E+00  0.00000000000E+00  0.99999998245E-14  0.12500000000E+03  0.12500000000E+03 0.  0.
        -11    1    3    3    0    0  0.15285744352E+01  0.15841941883E+02 -0.36482764877E+02  0.39803213385E+02  0.51100000000E-03 0.  1.
         23    2    1    0    0    0  0.14872275587E+02  0.17699619969E+02  0.17856972197E+02  0.95788143088E+02  0.91225192639E+02 0.  0.
         11    1    3    3    0    0  0.13343701151E+02  0.18576780862E+01  0.54339737074E+02  0.55984929703E+02  0.51100000000E-03 0. -1.
         22    1    1    0    0    0 -0.14872275587E+02 -0.17699619969E+02 -0.17856972197E+02  0.29211856912E+02  0.00000000000E+00 0. -1.
</event>
<event>
 5    1  0.1111613E-009  0.9118800E+02  0.7818608E-02  0.1130116E+00
         25   -1    0    0    0    0  0.00000000000E+00  0.00000000000E+00  0.99999998245E-14  0.12500000000E+03  0.12500000000E+03 0.  0.
        -11    1    3    3    0    0 -0.30397719004E+02  0.18140866587E+02 -0.31653016605E+02  0.47487112163E+02  0.51100000000E-03 0.  1.
         23    2    1    0    0    0  0.41429850236E+01 -0.14236774949E+02 -0.25869957251E+02  0.95182140017E+02  0.90391011744E+02 0.  0.
         11    1    3    3    0    0  0.34540704028E+02 -0.32377641536E+02  0.57830593540E+01  0.47695027853E+02  0.51100000000E-03 0. -1.
         22    1    1    0    0    0 -0.41429850236E+01  0.14236774949E+02  0.25869957251E+02  0.29817859983E+02  0.00000000000E+00 0. -1.
</event>
<event>
 5    1  0.1111613E-009  0.9118800E+02  0.7818608E-02  0.1130116E+00
         25   -1    0    0    0    0  0.00000000000E+00  0.00000000000E+00  0.99999998245E-14  0.12500000000E+03  0.12500000000E+03 0.  0.
        -11    1    3    3    0    0 -0.59051790477E+00 -0.34307384312E+02 -0.16368346982E+01  0.34351485526E+02  0.51100000000E-03 0.  1.
         23    2    1    0    0    0 -0.15378716285E+02  0.22647895938E+02 -0.13651307369E+02  0.94409310275E+02  0.89315886429E+02 0.  0.
         11    1    3    3    0    0 -0.14788198380E+02  0.56955280250E+02 -0.12014472671E+02  0.60057824749E+02  0.51100000000E-03 0. -1.
         22    1    1    0    0    0  0.15378716285E+02 -0.22647895938E+02  0.13651307369E+02  0.30590689725E+02  0.00000000000E+00 0. -1.
</event>
<event>
 5    1  0.1111613E-009  0.9118800E+02  0.7818608E-02  0.1130116E+00
         25   -1    0    0    0    0  0.00000000000E+00  0.00000000000E+00  0.99999998245E-14  0.12500000000E+03  0.12500000000E+03 0.  0.
        -11    1    3    3    0    0 -0.55496594682E+02 -0.13990529831E+02 -0.62055067126E+01  0.57568352938E+02  0.51100000000E-03 0.  1.
         23    2    1    0    0    0 -0.24764872266E+02  0.81634434156E+01 -0.12684340107E+02  0.96002876165E+02  0.91518954546E+02 0.  0.
         11    1    3    3    0    0  0.30731722415E+02  0.22153973247E+02 -0.64788333940E+01  0.38434523226E+02  0.51100000000E-03 0. -1.
         22    1    1    0    0    0  0.24764872266E+02 -0.81634434156E+01  0.12684340107E+02  0.28997123835E+02  0.00000000000E+00 0.  1.
</event>
<event>
 5    1  0.1111613E-009  0.9118800E+02  0.7818608E-02  0.1130116E+00
         25   -1    0    0    0    0  0.00000000000E+00  0.00000000000E+00  0.99999998245E-14  0.12500000000E+03  0.12500000000E+03 0.  0.
        -11    1    3    3    0    0 -0.47897351279E+02 -0.20883484252E+02  0.32245929665E+02  0.61400945874E+02  0.51100000000E-03 0. -1.
         23    2    1    0    0    0 -0.27070256298E+02 -0.27704615805E+01  0.15580296119E+02  0.93643663152E+02  0.88237836487E+02 0.  0.
         11    1    3    3    0    0  0.20827094981E+02  0.18113022671E+02 -0.16665633546E+02  0.32242717277E+02  0.51100000000E-03 0.  1.
         22    1    1    0    0    0  0.27070256298E+02  0.27704615805E+01 -0.15580296119E+02  0.31356336848E+02  0.00000000000E+00 0. -1.
</event>
<event>
 5    1  0.1111613E-009  0.9118800E+02  0.7818608E-02  0.1130116E+00
         25   -1    0    0    0    0  0.00000000000E+00  0.00000000000E+00  0.99999998245E-14  0.12500000000E+03  0.12500000000E+03 0.  0.
        -11    1    3    3    0    0 -0.34565950606E+02 -0.85401631418E+01 -0.12180746546E+02  0.37631235888E+02  0.51100000000E-03 0.  1.
         23    2    1    0    0    0  0.17018747756E+02 -0.97882092312E+01  0.18800305124E+02  0.97817316396E+02  0.93964509784E+02 0.  0.
         11    1    3    3    0    0  0.51584698362E+02 -0.12480460894E+01  0.30981051670E+02  0.60186080508E+02  0.51100000000E-03 0. -1.
         22    1    1    0    0    0 -0.17018747756E+02  0.97882092312E+01 -0.18800305124E+02  0.27182683604E+02  0.00000000000E+00 0. -1.
</event>
<event>
 5    1  0.1111613E-009  0.9118800E+02  0.7818608E-02  0.1130116E+00
         25   -1    0    0    0    0  0.00000000000E+00  0.00000000000E+00  0.99999998245E-14  0.12500000000E+03  0.12500000000E+03 0.  0.
        -11    1    3    3    0    0  0.23116182428E+02 -0.86467459704E+01  0.33793221731E+02  0.41846217764E+02  0.51100000000E-03 0.  1.
         23    2    1    0    0    0  0.10333789051E+02  0.27433104142E+02 -0.37310846871E+01  0.95448631301E+02  0.90758789245E+02 0.  0.
         11    1    3    3    0    0 -0.12782393378E+02  0.36079850113E+02 -0.37524306418E+02  0.53602413537E+02  0.51100000000E-03 0. -1.
         22    1    1    0    0    0 -0.10333789051E+02 -0.27433104142E+02  0.37310846871E+01  0.29551368699E+02  0.00000000000E+00 0. -1.
</event>
<event>
 5    1  0.1111613E-009  0.9118800E+02  0.7818608E-02  0.1130116E+00
         25   -1    0    0    0    0  0.00000000000E+00  0.00000000000E+00  0.99999998245E-14  0.12500000000E+03  0.12500000000E+03 0.  0.
        -11    1    3    3    0    0  0.17853752909E+01  0.55355626665E+02  0.23619777136E+02  0.60210687096E+02  0.51100000000E-03 0.  1.
         23    2    1    0    0    0  0.54604605205E+01  0.18848978535E+02  0.19837216116E+02  0.97096312715E+02  0.93000420315E+02 0.  0.
         11    1    3    3    0    0  0.36750852296E+01 -0.36506648130E+02 -0.37825610203E+01  0.36885625619E+02  0.51100000000E-03 0. -1.
         22    1    1    0    0    0 -0.54604605205E+01 -0.18848978535E+02 -0.19837216116E+02  0.27903687285E+02  0.00000000000E+00 0.  1.
</event>
<event>
 5    1  0.1111613E-009  0.9118800E+02  0.7818608E-02  0.1130116E+00
         25   -1    0    0    0    0  0.00000000000E+00  0.00000000000E+00  0.99999998245E-14  0.12500000000E+03  0.12500000000E+03 0.  0.
        -11    1    3    3    0    0 -0.69250829494E+01 -0.36034817228E+02 -0.12982810490E+01  0.36717167109E+02  0.51100000000E-03 0.  1.
         23    2    1    0    0    0 -0.14853770259E+02  0.23723327923E+02 -0.16319915303E+00  0.97009690738E+02  0.92883920484E+02 0.  0.
         11    1    3    3    0    0 -0.79286873092E+01  0.59758145151E+02  0.11350818960E+01  0.60292523629E+02  0.51100000000E-03 0. -1.
         22    1    1    0    0    0  0.14853770259E+02 -0.23723327923E+02  0.16319915303E+00  0.27990309262E+02  0.00000000000E+00 0. -1.
</event>
<event>
 5    1  0.1111613E-009  0.9118800E+02  0.7818608E-02  0.1130116E+00
         25   -1    0    0    0    0  0.00000000000E+00  0.00000000000E+00  0.99999998245E-14  0.12500000000E+03  0.12500000000E+03 0.  0.
        -11    1    3    3    0    0 -0.12414389430E+02 -0.34554395813E+02 -0.23389213594E+01  0.36791220261E+02  0.51100000000E-03 0.  1.
         23    2    1    0    0    0  0.11337050157E+02  0.42701475727E+01  0.30014895295E+02  0.92632472969E+02  0.86793538021E+02 0.  0.
         11    1    3    3    0    0  0.23751439587E+02  0.38824543386E+02  0.32353816654E+02  0.55841252707E+02  0.51100000000E-03 0. -1.
         22    1    1    0    0    0 -0.11337050157E+02 -0.42701475727E+01 -0.30014895295E+02  0.32367527031E+02  0.00000000000E+00 0. -1.
</event>
<event>
 5    1  0.1111613E-009  0.9118800E+02  0.7818608E-02  0.1130116E+00
         25   -1    0    0    0    0  0.00000000000E+00  0.00000000000E+00  0.99999998245E-14  0.12500000000E+03  0.12500000000E+03 0.  0.
        -11    1    3    3    0    0  0.36086537821E+02  0.28983244637E+02  0.41164060906E+02  0.61941477155E+02  0.51100000000E-03 0. -1.
         23    2    1    0    0    0  0.21922106818E+02  0.11519783925E+02  0.16923473914E+02  0.95005197811E+02  0.90145989666E+02 0.  0.
         11    1    3    3    0    0 -0.14164431002E+02 -0.17463460712E+02 -0.24240586992E+02  0.33063720657E+02  0.51100000000E-03 0.  1.
         22    1    1    0    0    0 -0.21922106818E+02 -0.11519783925E+02 -0.16923473914E+02  0.29994802189E+02  0.00000000000E+00 0. -1.
</event>
<event>
 5    1  0.1111613E-009  0.9118800E+02  0.7818608E-02  0.1130116E+00
         25   -1    0    0    0    0  0.00000000000E+00  0.00000000000E+00  0.99999998245E-14  0.12500000000E+03  0.12500000000E+03 0.  0.
        -11    1    3    3    0    0 -0.98673452149E+01  0.81308724799E+01 -0.37884275768E+02  0.39983670912E+02  0.51100000000E-03 0.  1.
         23    2    1    0    0    0  0.24298988513E+02 -0.11328550109E+02  0.45194533398E+01  0.97811724056E+02  0.93957070059E+02 0.  0.
         11    1    3    3    0    0  0.34166333728E+02 -0.19459422589E+02  0.42403729108E+02  0.57828053144E+02  0.51100000000E-03 0. -1.
         22    1    1    0    0    0 -0.24298988513E+02  0.11328550109E+02 -0.45194533398E+01  0.27188275944E+02  0.00000000000E+00 0. -1.
</event>
<event>
 5    1  0.1111613E-009  0.9118800E+02  0.7818608E-02  0.1130116E+00
         25   -1    0    0    0    0  0.00000000000E+00  0.00000000000E+00  0.99999998245E-14  0.12500000000E+03  0.12500000000E+03 0.  0.
        -11    1    3    3    0    0 -0.22192976686E+02  0.25011354254E+02 -0.11235139053E+02  0.35274982715E+02  0.51100000000E-03 0. -1.
         23    2    1    0    0    0  0.17374146872E+02 -0.20871699913E+02  0.34734226114E+01  0.97622025250E+02  0.93704355888E+02 0.  0.
         11    1    3    3    0    0  0.39567123558E+02 -0.45883054166E+02  0.14708561664E+02  0.62347042534E+02  0.51100000000E-03 0.  1.
         22    1    1    0    0    0 -0.17374146872E+02  0.20871699913E+02 -0.34734226114E+01  0.27377974750E+02  0.00000000000E+00 0.  1.
</event>
<event>
 5    1  0.1111613E-009  0.9118800E+02  0.7818608E-02  0.1130116E+00
         25   -1    0    0    0    0  0.00000000000E+00  0.00000000000E+00  0.99999998245E-14  0.12500000000E+03  0.12500000000E+03 0.  0.
        -11    1    3    3    0    0  0.18295433427E+02 -0.31689005055E+02  0.17548801980E+02  0.40581724666E+02  0.51100000000E-03 0. -1.
         23    2    1    0    0    0  0.13797036996E+02 -0.36739659406E+01 -0.27611241009E+02  0.93915648862E+02  0.88622300892E+02 0.  0.
         11    1    3    3    0    0 -0.44983964310E+01  0.28015039114E+02 -0.45160042990E+02  0.53333924196E+02  0.51100000000E-03 0.  1.
         22    1    1    0    0    0 -0.13797036996E+02  0.36739659406E+01  0.27611241009E+02  0.31084351138E+02  0.00000000000E+00 0.  1.
</event>
<event>
 5    1  0.1111613E-009  0.9118800E+02  0.7818608E-02  0.1130116E+00
         25   -1    0    0    0    0  0.00000000000E+00  0.00000000000E+00  0.99999998245E-14  0.12500000000E+03  0.12500000000E+03 0.  0.
        -11    1    3    3    0    0  0.25634829545E+02 -0.38846613317E+02  0.24930717319E+02  0.52799095809E+02  0.51100000000E-03 0. -1.
         23    2    1    0    0    0 -0.67286449845E+01 -0.28396509221E+02 -0.13605559097E+01  0.95785491418E+02  0.91221559155E+02 0.  0.
         11    1    3    3    0    0 -0.32363474529E+02  0.10450104096E+02 -0.26291273228E+02  0.42986395609E+02  0.51100000000E-03 0.  1.
         22    1    1    0    0    0  0.67286449845E+01  0.28396509221E+02  0.13605559097E+01  0.29214508582E+02  0.00000000000E+00 0. -1.
</event>
<event>
 5    1  0.1111613E-009  0.9118800E+02  0.7818608E-02  0.1130116E+00
         25   -1    0    0    0    0  0.00000000000E+00  0.00000000000E+00  0.99999998245E-14  0.12500000000E+03  0.12500000000E+03 0.  0.
        -11    1    3    3    0    0 -0.14038157513E+02 -0.32089641860E+02 -0.20486637062E+02  0.40577300051E+02  0.51100000000E-03 0.  1.
         23    2    1    0    0    0  0.16174059649E+02  0.14424476984E+02 -0.19183573697E+02  0.96057380188E+02  0.91593367921E+02 0.  0.
         11    1    3    3    0    0  0.30212217161E+02  0.46514118844E+02  0.13030633645E+01  0.55480080137E+02  0.51100000000E-03 0. -1.
         22    1    1    0    0    0 -0.16174059649E+02 -0.14424476984E+02  0.19183573697E+02  0.28942619812E+02  0.00000000000E+00 0.  1.
</event>
<event>
 5    1  0.1111613E-009  0.9118800E+02  0.7818608E-02  0.1130116E+00
         25   -1    0    0    0    0  0.00000000000E+00  0.00000000000E+00  0.99999998245E-14  0.12500000000E+03  0.12500000000E+03 0.  0.
        -11    1    3    3    0    0 -0.81639076518E+01  0.34191190532E+02 -0.14341765562E+01  0.35181582693E+02  0.51100000000E-03 0.  1.
         23    2    1    0    0    0 -0.16324145272E+02 -0.24402063311E+02 -0.76357033313E+01  0.94664503003E+02  0.89672324330E+02 0.  0.
         11    1    3    3    0    0 -0.81602376204E+01 -0.58593253843E+02 -0.62015267751E+01  0.59482920310E+02  0.51100000000E-03 0. -1.
         22    1    1    0    0    0  0.16324145272E+02  0.24402063311E+02  0.76357033313E+01  0.30335496997E+02  0.00000000000E+00 0. -1.
</event>
<event>
 5    1  0.1111613E-009  0.9118800E+02  0.7818608E-02  0.1130116E+00
         25   -1    0    0    0    0  0.00000000000E+00  0.00000000000E+00  0.99999998245E-14  0.12500000000E+03  0.12500000000E+03 0.  0.
        -11    1    3    3    0    0 -0.18213541120E+02  0.57958297317E+02 -0.53051929890E+01  0.60983951831E+02  0.51100000000E-03 0.  1.
         23    2    1    0    0    0 -0.27177452183E-01  0.26283812736E+02 -0.77714963200E+01  0.97591320616E+02  0.93663387478E+02 0.  0.
         11    1    3    3    0    0  0.18186363667E+02 -0.31674484582E+02 -0.24663033310E+01  0.36607368785E+02  0.51100000000E-03 0. -1.
         22    1    1    0    0    0  0.27177452183E-01 -0.26283812736E+02  0.77714963200E+01  0.27408679384E+02  0.00000000000E+00 0.  1.
</event>
<event>
 5    1  0.1111613E-009  0.9118800E+02  0.7818608E-02  0.1130116E+00
         25   -1    0    0    0    0  0.00000000000E+00  0.00000000000E+00  0.99999998245E-14  0.12500000000E+03  0.12500000000E+03 0.  0.
        -11    1    3    3    0    0 -0.18476811915E+02  0.41752667879E+02  0.42304016337E+02  0.62243936669E+02  0.51100000000E-03 0.  1.
         23    2    1    0    0    0 -0.76603211987E+01  0.21210634171E+02  0.15876680296E+02  0.97420288253E+02  0.93434854649E+02 0.  0.
         11    1    3    3    0    0  0.10816490717E+02 -0.20542033708E+02 -0.26427336041E+02  0.35176351584E+02  0.51100000000E-03 0. -1.
         22    1    1    0    0    0  0.76603211987E+01 -0.21210634171E+02 -0.15876680296E+02  0.27579711747E+02  0.00000000000E+00 0.  1.
</event>
<event>
 5    1  0.1111613E-009  0.9118800E+02  0.7818608E-02  0.1130116E+00
         25   -1    0    0    0    0  0.00000000000E+00  0.00000000000E+00  0.99999998245E-14  0.12500000000E+03  0.12500000000E+03 0.  0.
        -11    1    3    3    0    0 -0.37415200617E+02 -0.25712947162E+02  0.22546062199E+02  0.50689030469E+02  0.51100000000E-03 0.  1.
         23    2    1    0    0    0 -0.11751727051E+02 -0.34716909486E+02 -0.32888945482E+01  0.88200764678E+02  0.80157290183E+02 0.  0.
         11    1    3    3    0    0  0.25663473566E+02 -0.90039623239E+01 -0.25834956747E+02  0.37511734209E+02  0.51100000000E-03 0. -1.
         22    1    1    0    0    0  0.11751727051E+02  0.34716909486E+02  0.32888945482E+01  0.36799235322E+02  0.00000000000E+00 0.  1.
</event>
<event>
 5    1  0.1111613E-009  0.9118800E+02  0.7818608E-02  0.1130116E+00
         25   -1    0    0    0    0  0.00000000000E+00  0.00000000000E+00  0.99999998245E-14  0.12500000000E+03  0.12500000000E+03 0.  0.
        -11    1    3    3    0    0 -0.34631940426E+01  0.57429456995E+02 -0.24365483210E+02  0.62480501087E+02  0.51100000000E-03 0.  1.
         23    2    1    0    0    0 -0.66730895878E+00  0.27727579360E+02 -0.12237962980E+02  0.94684464440E+02  0.89700145541E+02 0.  0.
         11    1    3    3    0    0  0.27958850838E+01 -0.29701877635E+02  0.12127520231E+02  0.32203963353E+02  0.51100000000E-03 0. -1.
         22    1    1    0    0    0  0.66730895878E+00 -0.27727579360E+02  0.12237962980E+02  0.30315535560E+02  0.00000000000E+00 0.  1.
</event>
<event>
 5    1  0.1111613E-009  0.9118800E+02  0.7818608E-02  0.1130116E+00
         25   -1    0    0    0    0  0.00000000000E+00  0.00000000000E+00  0.99999998245E-14  0.12500000000E+03  0.12500000000E+03 0.  0.
        -11    1    3    3    0    0 -0.30472387649E+02 -0.23852663004E+02 -0.78261061719E+01  0.39481183867E+02  0.51100000000E-03 0. -1.
         23    2    1    0    0    0  0.23931365683E+02  0.28894672195E+01 -0.61375905292E+01  0.10012573013E+03  0.96986764723E+02 0.  0.
         11    1    3    3    0    0  0.54403753333E+02  0.26742130224E+02  0.16885156427E+01  0.60644546259E+02  0.51100000000E-03 0.  1.
         22    1    1    0    0    0 -0.23931365683E+02 -0.28894672195E+01  0.61375905292E+01  0.24874269875E+02  0.00000000000E+00 0.  1.
</event>
<event>
 5    1  0.1111613E-009  0.9118800E+02  0.7818608E-02  0.1130116E+00
         25   -1    0    0    0    0  0.00000000000E+00  0.00000000000E+00  0.99999998245E-14  0.12500000000E+03  0.12500000000E+03 0.  0.
        -11    1    3    3    0    0 -0.47008868723E+02 -0.12033984765E+01  0.58515154244E+01  0.47386940602E+02  0.51100000000E-03 0.  1.
         23    2    1    0    0    0 -0.28863132809E+02 -0.27591815927E+02 -0.11010323667E+02  0.83580005203E+02  0.72594774611E+02 0.  0.
         11    1    3    3    0    0  0.18145735915E+02 -0.26388417451E+02 -0.16861839092E+02  0.36193064602E+02  0.51100000000E-03 0. -1.
         22    1    1    0    0    0  0.28863132809E+02  0.27591815927E+02  0.11010323667E+02  0.41419994797E+02  0.00000000000E+00 0.  1.
</event>
<event>
 5    1  0.1111613E-009  0.9118800E+02  0.7818608E-02  0.1130116E+00
         25   -1    0    0    0    0  0.00000000000E+00  0.00000000000E+00  0.99999998245E-14  0.12500000000E+03  0.12500000000E+03 0.  0.
        -11    1    3    3    0    0  0.16048535261E+02 -0.14969042549E+02  0.56880356111E+02  0.60967225871E+02  0.51100000000E-03 0. -1.
         23    2    1    0    0    0  0.63532231236E+01  0.30190513719E+01  0.26512963144E+02  0.97569809882E+02  0.93634675577E+02 0.  0.
         11    1    3    3    0    0 -0.96953121377E+01  0.17988093921E+02 -0.30367392967E+02  0.36602584011E+02  0.51100000000E-03 0.  1.
         22    1    1    0    0    0 -0.63532231236E+01 -0.30190513719E+01 -0.26512963144E+02  0.27430190118E+02  0.00000000000E+00 0. -1.
</event>
<event>
 5    1  0.1111613E-009  0.9118800E+02  0.7818608E-02  0.1130116E+00
         25   -1    0    0    0    0  0.00000000000E+00  0.00000000000E+00  0.99999998245E-14  0.12500000000E+03  0.12500000000E+03 0.  0.
        -11    1    3    3    0    0 -0.82995354680E+01  0.29495872089E+02  0.16776344570E+02  0.34933286371E+02  0.51100000000E-03 0.  1.
         23    2    1    0    0    0 -0.13648327963E+02 -0.25336707432E+02 -0.76853219757E+01  0.95212590352E+02  0.90433111126E+02 0.  0.
         11    1    3    3    0    0 -0.53487924948E+01 -0.54832579521E+02 -0.24461666546E+02  0.60279303981E+02  0.51100000000E-03 0. -1.
         22    1    1    0    0    0  0.13648327963E+02  0.25336707432E+02  0.76853219757E+01  0.29787409648E+02  0.00000000000E+00 0. -1.
</event>
<event>
 5    1  0.1111613E-009  0.9118800E+02  0.7818608E-02  0.1130116E+00
         25   -1    0    0    0    0  0.00000000000E+00  0.00000000000E+00  0.99999998245E-14  0.12500000000E+03  0.12500000000E+03 0.  0.
        -11    1    3    3    0    0  0.20934537694E+02 -0.26788108759E+02  0.11943730940E+02  0.36034849082E+02  0.51100000000E-03 0. -1.
         23    2    1    0    0    0 -0.17891105743E+02  0.18613427295E+02  0.13645837203E+02  0.95797941625E+02  0.91238617954E+02 0.  0.
         11    1    3    3    0    0 -0.38825643437E+02  0.45401536054E+02  0.17021062634E+01  0.59763092543E+02  0.51100000000E-03 0.  1.
         22    1    1    0    0    0  0.17891105743E+02 -0.18613427295E+02 -0.13645837203E+02  0.29202058375E+02  0.00000000000E+00 0.  1.
</event>
<event>
 5    1  0.1111613E-009  0.9118800E+02  0.7818608E-02  0.1130116E+00
         25   -1    0    0    0    0  0.00000000000E+00  0.00000000000E+00  0.99999998245E-14  0.12500000000E+03  0.12500000000E+03 0.  0.
        -11    1    3    3    0    0 -0.26387158649E+02  0.10741841289E+02 -0.41616305015E+02  0.50433978023E+02  0.51100000000E-03 0. -1.
         23    2    1    0    0    0  0.22929556323E+01  0.27006922750E+02 -0.10012432859E+02  0.96105704132E+02  0.91659293216E+02 0.  0.
         11    1    3    3    0    0  0.28680114282E+02  0.16265081462E+02  0.31603872157E+02  0.45671726108E+02  0.51100000000E-03 0.  1.
         22    1    1    0    0    0 -0.22929556323E+01 -0.27006922750E+02  0.10012432859E+02  0.28894295868E+02  0.00000000000E+00 0. -1.
</event>
<event>
 5    1  0.1111613E-009  0.9118800E+02  0.7818608E-02  0.1130116E+00
         25   -1    0    0    0    0  0.00000000000E+00  0.00000000000E+00  0.99999998245E-14  0.12500000000E+03  0.12500000000E+03 0.  0.
        -11    1    3    3    0    0 -0.40568574606E+02 -0.54258042678E+01 -0.42225554177E+02  0.58806853540E+02  0.51100000000E-03 0. -1.
         23    2    1    0    0    0 -0.12682461066E+02  0.10223631367E+02 -0.25089057098E+02  0.95086320135E+02  0.90258406998E+02 0.  0.
         11    1    3    3    0    0  0.27886113540E+02  0.15649435634E+02  0.17136497079E+02  0.36279466595E+02  0.51100000000E-03 0.  1.
         22    1    1    0    0    0  0.12682461066E+02 -0.10223631367E+02  0.25089057098E+02  0.29913679865E+02  0.00000000000E+00 0. -1.
</event>
<event>
 5    1  0.1111613E-009  0.9118800E+02  0.7818608E-02  0.1130116E+00
         25   -1    0    0    0    0  0.00000000000E+00  0.00000000000E+00  0.99999998245E-14  0.12500000000E+03  0.12500000000E+03 0.  0.
        -11    1    3    3    0    0 -0.21776780569E+02  0.18364888764E+02  0.22783712152E+02  0.36477319679E+02  0.51100000000E-03 0. -1.
         23    2    1    0    0    0  0.22512627747E+02 -0.17515128312E+02  0.84431029994E+01  0.95252998199E+02  0.90488947114E+02 0.  0.
         11    1    3    3    0    0  0.44289408316E+02 -0.35880017077E+02 -0.14340609153E+02  0.58775678520E+02  0.51100000000E-03 0.  1.
         22    1    1    0    0    0 -0.22512627747E+02  0.17515128312E+02 -0.84431029994E+01  0.29747001801E+02  0.00000000000E+00 0.  1.
</event>
<event>
 5    1  0.1111613E-009  0.9118800E+02  0.7818608E-02  0.1130116E+00
         25   -1    0    0    0    0  0.00000000000E+00  0.00000000000E+00  0.99999998245E-14  0.12500000000E+03  0.12500000000E+03 0.  0.
        -11    1    3    3    0    0  0.29049564667E+02 -0.12041751853E+02  0.43465932828E+02  0.53648562999E+02  0.51100000000E-03 0. -1.
         23    2    1    0    0    0 -0.91529506724E+01 -0.69606493051E+01  0.27180601417E+02  0.95487083537E+02  0.90811733186E+02 0.  0.
         11    1    3    3    0    0 -0.38202515339E+02  0.50811025480E+01 -0.16285331411E+02  0.41838520538E+02  0.51100000000E-03 0.  1.
         22    1    1    0    0    0  0.91529506724E+01  0.69606493051E+01 -0.27180601417E+02  0.29512916463E+02  0.00000000000E+00 0. -1.
</event>
<event>
 5    1  0.1111613E-009  0.9118800E+02  0.7818608E-02  0.1130116E+00
         25   -1    0    0    0    0  0.00000000000E+00  0.00000000000E+00  0.99999998245E-14  0.12500000000E+03  0.12500000000E+03 0.  0.
        -11    1    3    3    0    0  0.15814511529E+02  0.83236790976E+01 -0.30950527741E+02  0.35739579968E+02  0.51100000000E-03 0.  1.
         23    2    1    0    0    0  0.12990251915E+01  0.21406337119E+02  0.23258638964E+02  0.93363264679E+02  0.87839718634E+02 0.  0.
         11    1    3    3    0    0 -0.14515486337E+02  0.13082658022E+02  0.54209166705E+02  0.57623684711E+02  0.51100000000E-03 0. -1.
         22    1    1    0    0    0 -0.12990251915E+01 -0.21406337119E+02 -0.23258638964E+02  0.31636735321E+02  0.00000000000E+00 0.  1.
</event>
<event>
 5    1  0.1111613E-009  0.9118800E+02  0.7818608E-02  0.1130116E+00
         25   -1    0    0    0    0  0.00000000000E+00  0.00000000000E+00  0.99999998245E-14  0.12500000000E+03  0.12500000000E+03 0.  0.
        -11    1    3    3    0    0  0.41408616010E+02 -0.60762899671E+01 -0.98970003060E+01  0.43006341334E+02  0.51100000000E-03 0. -1.
         23    2    1    0    0    0  0.17315132085E+01 -0.10230227618E+02 -0.33888513528E+02  0.89558681680E+02  0.82247616501E+02 0.  0.
         11    1    3    3    0    0 -0.39677102802E+02 -0.41539376513E+01 -0.23991513222E+02  0.46552340346E+02  0.51100000000E-03 0.  1.
         22    1    1    0    0    0 -0.17315132085E+01  0.10230227618E+02  0.33888513528E+02  0.35441318320E+02  0.00000000000E+00 0.  1.
</event>
<event>
 5    1  0.1111613E-009  0.9118800E+02  0.7818608E-02  0.1130116E+00
         25   -1    0    0    0    0  0.00000000000E+00  0.00000000000E+00  0.99999998245E-14  0.12500000000E+03  0.12500000000E+03 0.  0.
        -11    1    3    3    0    0 -0.20386187279E+02 -0.26803012783E+01  0.14502894308E+02  0.25161768425E+02  0.51100000000E-03 0.  1.
         23    2    1    0    0    0  0.19072395503E+02  0.21550753002E+02  0.38196026326E+02  0.77176076570E+02  0.60572428896E+02 0.  0.
         11    1    3    3    0    0  0.39458582782E+02  0.24231054281E+02  0.23693132018E+02  0.52014308145E+02  0.51100000000E-03 0. -1.
         22    1    1    0    0    0 -0.19072395503E+02 -0.21550753002E+02 -0.38196026326E+02  0.47823923430E+02  0.00000000000E+00 0.  1.
</event>
<event>
 5    1  0.1111613E-009  0.9118800E+02  0.7818608E-02  0.1130116E+00
         25   -1    0    0    0    0  0.00000000000E+00  0.00000000000E+00  0.99999998245E-14  0.12500000000E+03  0.12500000000E+03 0.  0.
        -11    1    3    3    0    0 -0.30148135660E+02  0.14245842449E+02 -0.34126344538E+01  0.33518654284E+02  0.51100000000E-03 0. -1.
         23    2    1    0    0    0  0.11915110631E+02 -0.26439492341E+02  0.11326297670E+02  0.93866390580E+02  0.88552795805E+02 0.  0.
         11    1    3    3    0    0  0.42063246291E+02 -0.40685334791E+02  0.14738932123E+02  0.60347736295E+02  0.51100000000E-03 0.  1.
         22    1    1    0    0    0 -0.11915110631E+02  0.26439492341E+02 -0.11326297670E+02  0.31133609420E+02  0.00000000000E+00 0.  1.
</event>
<event>
 5    1  0.1111613E-009  0.9118800E+02  0.7818608E-02  0.1130116E+00
         25   -1    0    0    0    0  0.00000000000E+00  0.00000000000E+00  0.99999998245E-14  0.12500000000E+03  0.12500000000E+03 0.  0.
        -11    1    3    3    0    0 -0.53291112727E+01 -0.35046036291E+02  0.27983435382E+02  0.45163001923E+02  0.51100000000E-03 0. -1.
         23    2    1    0    0    0  0.15929601679E+02 -0.18093178117E+02 -0.15422613010E+02  0.96382307988E+02  0.92035737608E+02 0.  0.
         11    1    3    3    0    0  0.21258712951E+02  0.16952858173E+02 -0.43406048392E+02  0.51219306066E+02  0.51100000000E-03 0.  1.
         22    1    1    0    0    0 -0.15929601679E+02  0.18093178117E+02  0.15422613010E+02  0.28617692012E+02  0.00000000000E+00 0. -1.
</event>
<event>
 5    1  0.1111613E-009  0.9118800E+02  0.7818608E-02  0.1130116E+00
         25   -1    0    0    0    0  0.00000000000E+00  0.00000000000E+00  0.99999998245E-14  0.12500000000E+03  0.12500000000E+03 0.  0.
        -11    1    3    3    0    0 -0.35182498971E+02  0.32340964701E+02  0.16341868597E+02  0.50505473973E+02  0.51100000000E-03 0.  1.
         23    2    1    0    0    0 -0.12429993891E+02 -0.62566503555E+01  0.25233352555E+02  0.96183815260E+02  0.91765755132E+02 0.  0.
         11    1    3    3    0    0  0.22752505081E+02 -0.38597615057E+02  0.88914839584E+01  0.45678341288E+02  0.51100000000E-03 0. -1.
         22    1    1    0    0    0  0.12429993891E+02  0.62566503555E+01 -0.25233352555E+02  0.28816184740E+02  0.00000000000E+00 0.  1.
</event>
<event>
 5    1  0.1111613E-009  0.9118800E+02  0.7818608E-02  0.1130116E+00
         25   -1    0    0    0    0  0.00000000000E+00  0.00000000000E+00  0.99999998245E-14  0.12500000000E+03  0.12500000000E+03 0.  0.
        -11    1    3    3    0    0  0.37562662010E+02  0.22822700032E+02  0.21888030954E+02  0.49101070389E+02  0.51100000000E-03 0.  1.
         23    2    1    0    0    0 -0.25763001473E+01 -0.11240368027E+01  0.28549108660E+02  0.96312853289E+02  0.91941358061E+02 0.  0.
         11    1    3    3    0    0 -0.40138962157E+02 -0.23946736835E+02  0.66610777056E+01  0.47211782900E+02  0.51100000000E-03 0. -1.
         22    1    1    0    0    0  0.25763001473E+01  0.11240368027E+01 -0.28549108660E+02  0.28687146711E+02  0.00000000000E+00 0.  1.
</event>
<event>
 5    1  0.1111613E-009  0.9118800E+02  0.7818608E-02  0.1130116E+00
         25   -1    0    0    0    0  0.00000000000E+00  0.00000000000E+00  0.99999998245E-14  0.12500000000E+03  0.12500000000E+03 0.  0.
        -11    1    3    3    0    0  0.28302133703E+02 -0.46054023222E+02  0.81777313903E+01  0.54670459281E+02  0.51100000000E-03 0. -1.
         23    2    1    0    0    0 -0.80737571370E+01 -0.26925849951E+02  0.80152307691E+01  0.95769350432E+02  0.91199438638E+02 0.  0.
         11    1    3    3    0    0 -0.36375890840E+02  0.19128173271E+02 -0.16250062114E+00  0.41098891150E+02  0.51100000000E-03 0.  1.
         22    1    1    0    0    0  0.80737571370E+01  0.26925849951E+02 -0.80152307691E+01  0.29230649568E+02  0.00000000000E+00 0. -1.
</event>
<event>
 5    1  0.1111613E-009  0.9118800E+02  0.7818608E-02  0.1130116E+00
         25   -1    0    0    0    0  0.00000000000E+00  0.00000000000E+00  0.99999998245E-14  0.12500000000E+03  0.12500000000E+03 0.  0.
        -11    1    3    3    0    0 -0.39523709033E+01  0.67068764218E+00 -0.34504263812E+02  0.34736368249E+02  0.51100000000E-03 0.  1.
         23    2    1    0    0    0 -0.12314738574E+02 -0.90745712969E+01  0.25044143647E+02  0.95653624391E+02  0.91040683751E+02 0.  0.
         11    1    3    3    0    0 -0.83623676702E+01 -0.97452589391E+01  0.59548407458E+02  0.60917256143E+02  0.51100000000E-03 0. -1.
         22    1    1    0    0    0  0.12314738574E+02  0.90745712969E+01 -0.25044143647E+02  0.29346375609E+02  0.00000000000E+00 0. -1.
</event>
<event>
 5    1  0.1111613E-009  0.9118800E+02  0.7818608E-02  0.1130116E+00
         25   -1    0    0    0    0  0.00000000000E+00  0.00000000000E+00  0.99999998245E-14  0.12500000000E+03  0.12500000000E+03 0.  0.
        -11    1    3    3    0    0 -0.25884977806E+01  0.13242333060E+02 -0.52259375356E+02  0.53973160167E+02  0.51100000000E-03 0.  1.
         23    2    1    0    0    0 -0.11820883109E+02  0.23291577360E+02 -0.12433568027E+02  0.96072081525E+02  0.91613429045E+02 0.  0.
         11    1    3    3    0    0 -0.92323853284E+01  0.10049244300E+02  0.39825807329E+02  0.42098921358E+02  0.51100000000E-03 0. -1.
         22    1    1    0    0    0  0.11820883109E+02 -0.23291577360E+02  0.12433568027E+02  0.28927918475E+02  0.00000000000E+00 0.  1.
</event>
<event>
 5    1  0.1111613E-009  0.9118800E+02  0.7818608E-02  0.1130116E+00
         25   -1    0    0    0    0  0.00000000000E+00  0.00000000000E+00  0.99999998245E-14  0.12500000000E+03  0.12500000000E+03 0.  0.
        -11    1    3    3    0    0  0.28188818931E+02 -0.52389559645E+01 -0.19777512669E+02  0.34831109370E+02  0.51100000000E-03 0. -1.
         23    2    1    0    0    0 -0.25389418676E+02 -0.45963196704E+01  0.11364712711E+02  0.96805932713E+02  0.92609303950E+02 0.  0.
         11    1    3    3    0    0 -0.53578237607E+02  0.64263629408E+00  0.31142225380E+02  0.61974823342E+02  0.51100000000E-03 0.  1.
         22    1    1    0    0    0  0.25389418676E+02  0.45963196704E+01 -0.11364712711E+02  0.28194067287E+02  0.00000000000E+00 0.  1.
</event>
<event>
 5    1  0.1111613E-009  0.9118800E+02  0.7818608E-02  0.1130116E+00
         25   -1    0    0    0    0  0.00000000000E+00  0.00000000000E+00  0.99999998245E-14  0.12500000000E+03  0.12500000000E+03 0.  0.
        -11    1    3    3    0    0 -0.18633366115E+02 -0.14326405094E+01 -0.27478417355E+02  0.33231283637E+02  0.51100000000E-03 0.  1.
         23    2    1    0    0    0  0.84677683198E+01  0.49298843012E+01  0.28017856382E+02  0.95318235636E+02  0.90579020247E+02 0.  0.
         11    1    3    3    0    0  0.27101134434E+02  0.63625248105E+01  0.55496273736E+02  0.62086951999E+02  0.51100000000E-03 0. -1.
         22    1    1    0    0    0 -0.84677683198E+01 -0.49298843012E+01 -0.28017856382E+02  0.29681764364E+02  0.00000000000E+00 0. -1.
</event>
<event>
 5    1  0.1111613E-009  0.9118800E+02  0.7818608E-02  0.1130116E+00
         25   -1    0    0    0    0  0.00000000000E+00  0.00000000000E+00  0.99999998245E-14  0.12500000000E+03  0.12500000000E+03 0.  0.
        -11    1    3    3    0    0 -0.34338768875E+02  0.13184105342E+02  0.80177984994E+01  0.37646470945E+02  0.51100000000E-03 0.  1.
         23    2    1    0    0    0  0.29185465410E+01 -0.21320463028E+02 -0.19981222671E+02  0.95634555731E+02  0.91014498476E+02 0.  0.
         11    1    3    3    0    0  0.37257315416E+02 -0.34504568370E+02 -0.27999021171E+02  0.57988084787E+02  0.51100000000E-03 0. -1.
         22    1    1    0    0    0 -0.29185465410E+01  0.21320463028E+02  0.19981222671E+02  0.29365444269E+02  0.00000000000E+00 0. -1.
</event>
<event>
 5    1  0.1111613E-009  0.9118800E+02  0.7818608E-02  0.1130116E+00
         25   -1    0    0    0    0  0.00000000000E+00  0.00000000000E+00  0.99999998245E-14  0.12500000000E+03  0.12500000000E+03 0.  0.
        -11    1    3    3    0    0 -0.55717658726E+02 -0.24718092714E+02  0.96692372131E+01  0.61716575973E+02  0.51100000000E-03 0.  1.
         23    2    1    0    0    0 -0.25073848239E+02 -0.13323589001E+02 -0.22543277672E+01  0.96516708704E+02  0.92218095708E+02 0.  0.
         11    1    3    3    0    0  0.30643810487E+02  0.11394503713E+02 -0.11923564980E+02  0.34800132731E+02  0.51100000000E-03 0. -1.
         22    1    1    0    0    0  0.25073848239E+02  0.13323589001E+02  0.22543277672E+01  0.28483291296E+02  0.00000000000E+00 0.  1.
</event>
<event>
 5    1  0.1111613E-009  0.9118800E+02  0.7818608E-02  0.1130116E+00
         25   -1    0    0    0    0  0.00000000000E+00  0.00000000000E+00  0.99999998245E-14  0.12500000000E+03  0.12500000000E+03 0.  0.
        -11    1    3    3    0    0 -0.88735486752E+01  0.62107049743E+01  0.34395603791E+02  0.36060647287E+02  0.51100000000E-03 0. -1.
         23    2    1    0    0    0  0.31437237597E+02  0.17200425850E+02  0.16826707916E+01  0.89125413757E+02  0.81586478286E+02 0.  0.
         11    1    3    3    0    0  0.40310786272E+02  0.10989720876E+02 -0.32712932999E+02  0.53064766470E+02  0.51100000000E-03 0.  1.
         22    1    1    0    0    0 -0.31437237597E+02 -0.17200425850E+02 -0.16826707916E+01  0.35874586243E+02  0.00000000000E+00 0.  1.
</event>
<event>
 5    1  0.1111613E-009  0.9118800E+02  0.7818608E-02  0.1130116E+00
         25   -1    0    0    0    0  0.00000000000E+00  0.00000000000E+00  0.99999998245E-14  0.12500000000E+03  0.12500000000E+03 0.  0.
        -11    1    3    3    0    0  0.18586468179E+02  0.16708807976E+02  0.47522422034E+02  0.53693776730E+02  0.51100000000E-03 0. -1.
         23    2    1    0    0    0  0.23146169198E+02  0.16332746372E+02  0.52794974925E+01  0.96183739896E+02  0.91765652474E+02 0.  0.
         11    1    3    3    0    0  0.45597010197E+01 -0.37606160340E+00 -0.42242924541E+02  0.42489963165E+02  0.51100000000E-03 0.  1.
         22    1    1    0    0    0 -0.23146169198E+02 -0.16332746372E+02 -0.52794974925E+01  0.28816260104E+02  0.00000000000E+00 0. -1.
</event>
<event>
 5    1  0.1111613E-009  0.9118800E+02  0.7818608E-02  0.1130116E+00
         25   -1    0    0    0    0  0.00000000000E+00  0.00000000000E+00  0.99999998245E-14  0.12500000000E+03  0.12500000000E+03 0.  0.
        -11    1    3    3    0    0  0.10485313194E+02  0.32940547761E+02  0.47023341846E+02  0.58362797724E+02  0.51100000000E-03 0.  1.
         23    2    1    0    0    0 -0.10288315318E+02  0.19964831628E+02  0.18997920163E+02  0.95582914751E+02  0.90943546707E+02 0.  0.
         11    1    3    3    0    0 -0.20773628512E+02 -0.12975716132E+02 -0.28025421683E+02  0.37220117027E+02  0.51100000000E-03 0. -1.
         22    1    1    0    0    0  0.10288315318E+02 -0.19964831628E+02 -0.18997920163E+02  0.29417085249E+02  0.00000000000E+00 0.  1.
</event>
<event>
 5    1  0.1111613E-009  0.9118800E+02  0.7818608E-02  0.1130116E+00
         25   -1    0    0    0    0  0.00000000000E+00  0.00000000000E+00  0.99999998245E-14  0.12500000000E+03  0.12500000000E+03 0.  0.
        -11    1    3    3    0    0  0.15843091217E+02  0.42899649137E+02  0.22155984368E+02  0.50816051391E+02  0.51100000000E-03 0. -1.
         23    2    1    0    0    0 -0.13606214630E+02  0.11046176592E+02  0.25201439129E+02  0.94303752215E+02  0.89168032690E+02 0.  0.
         11    1    3    3    0    0 -0.29449305847E+02 -0.31853472545E+02  0.30454547614E+01  0.43487700825E+02  0.51100000000E-03 0.  1.
         22    1    1    0    0    0  0.13606214630E+02 -0.11046176592E+02 -0.25201439129E+02  0.30696247785E+02  0.00000000000E+00 0. -1.
</event>
<event>
 5    1  0.1111613E-009  0.9118800E+02  0.7818608E-02  0.1130116E+00
         25   -1    0    0    0    0  0.00000000000E+00  0.00000000000E+00  0.99999998245E-14  0.12500000000E+03  0.12500000000E+03 0.  0.
        -11    1    3    3    0    0 -0.19440636148E+02  0.33829064438E+02  0.86919105834E+01  0.39973656881E+02  0.51100000000E-03 0.  1.
         23    2    1    0    0    0  0.19594934211E+01 -0.79737026965E+00 -0.29281761575E+02  0.95641918068E+02  0.91024609403E+02 0.  0.
         11    1    3    3    0    0  0.21400129570E+02 -0.34626434707E+02 -0.37973672158E+02  0.55668261187E+02  0.51100000000E-03 0. -1.
         22    1    1    0    0    0 -0.19594934211E+01  0.79737026965E+00  0.29281761575E+02  0.29358081932E+02  0.00000000000E+00 0. -1.
</event>
<event>
 5    1  0.1111613E-009  0.9118800E+02  0.7818608E-02  0.1130116E+00
         25   -1    0    0    0    0  0.00000000000E+00  0.00000000000E+00  0.99999998245E-14  0.12500000000E+03  0.12500000000E+03 0.  0.
        -11    1    3    3    0    0  0.10981065021E+02 -0.23098553758E+02  0.55373458821E+02  0.60994646623E+02  0.51100000000E-03 0. -1.
         23    2    1    0    0    0  0.46699961839E+01 -0.16482757016E+01  0.29042482985E+02  0.95538304613E+02  0.90882210323E+02 0.  0.
         11    1    3    3    0    0 -0.63110688367E+01  0.21450278057E+02 -0.26330975835E+02  0.34543657989E+02  0.51100000000E-03 0.  1.
         22    1    1    0    0    0 -0.46699961839E+01  0.16482757016E+01 -0.29042482985E+02  0.29461695387E+02  0.00000000000E+00 0. -1.
</event>
<event>
 5    1  0.1111613E-009  0.9118800E+02  0.7818608E-02  0.1130116E+00
         25   -1    0    0    0    0  0.00000000000E+00  0.00000000000E+00  0.99999998245E-14  0.12500000000E+03  0.12500000000E+03 0.  0.
        -11    1    3    3    0    0 -0.27369767669E+02 -0.32407179424E+02 -0.94832988124E+01  0.43465646401E+02  0.51100000000E-03 0. -1.
         23    2    1    0    0    0  0.22919322604E+02 -0.14534772551E+02 -0.73679176375E+01  0.96878101557E+02  0.92706663132E+02 0.  0.
         11    1    3    3    0    0  0.50289090273E+02  0.17872406873E+02  0.21153811749E+01  0.53412455155E+02  0.51100000000E-03 0.  1.
         22    1    1    0    0    0 -0.22919322604E+02  0.14534772551E+02  0.73679176375E+01  0.28121898443E+02  0.00000000000E+00 0.  1.
</event>
<event>
 5    1  0.1111613E-009  0.9118800E+02  0.7818608E-02  0.1130116E+00
         25   -1    0    0    0    0  0.00000000000E+00  0.00000000000E+00  0.99999998245E-14  0.12500000000E+03  0.12500000000E+03 0.  0.
        -11    1    3    3    0    0 -0.22202801567E+01  0.34332302350E+02  0.48925032762E+02  0.59810496233E+02  0.51100000000E-03 0.  1.
         23    2    1    0    0    0 -0.11281860145E+02  0.21937926036E+02  0.17598631297E+02  0.94697115804E+02  0.89717773886E+02 0.  0.
         11    1    3    3    0    0 -0.90615799881E+01 -0.12394376314E+02 -0.31326401465E+02  0.34886619571E+02  0.51100000000E-03 0. -1.
         22    1    1    0    0    0  0.11281860145E+02 -0.21937926036E+02 -0.17598631297E+02  0.30302884196E+02  0.00000000000E+00 0.  1.
</event>
<event>
 5    1  0.1111613E-009  0.9118800E+02  0.7818608E-02  0.1130116E+00
         25   -1    0    0    0    0  0.00000000000E+00  0.00000000000E+00  0.99999998245E-14  0.12500000000E+03  0.12500000000E+03 0.  0.
        -11    1    3    3    0    0  0.17508671375E+01 -0.28279524530E+02  0.49136932861E+02  0.56720677135E+02  0.51100000000E-03 0.  1.
         23    2    1    0    0    0 -0.17618768213E+02 -0.16164891189E+02  0.19470570778E+02  0.94164503783E+02  0.88972613459E+02 0.  0.
         11    1    3    3    0    0 -0.19369635351E+02  0.12114633341E+02 -0.29666362083E+02  0.37443826649E+02  0.51100000000E-03 0. -1.
         22    1    1    0    0    0  0.17618768213E+02  0.16164891189E+02 -0.19470570778E+02  0.30835496217E+02  0.00000000000E+00 0.  1.
</event>
<event>
 5    1  0.1111613E-009  0.9118800E+02  0.7818608E-02  0.1130116E+00
         25   -1    0    0    0    0  0.00000000000E+00  0.00000000000E+00  0.99999998245E-14  0.12500000000E+03  0.12500000000E+03 0.  0.
        -11    1    3    3    0    0  0.51505062257E+02 -0.22832051859E+02  0.11596494628E+02  0.57520020151E+02  0.51100000000E-03 0.  1.
         23    2    1    0    0    0  0.14621950546E+02 -0.25081453718E+02  0.10443129735E+01  0.95948815033E+02  0.91445086026E+02 0.  0.
         11    1    3    3    0    0 -0.36883111711E+02 -0.22494018587E+01 -0.10552181654E+02  0.38428794883E+02  0.51100000000E-03 0. -1.
         22    1    1    0    0    0 -0.14621950546E+02  0.25081453718E+02 -0.10443129735E+01  0.29051184967E+02  0.00000000000E+00 0.  1.
</event>
<event>
 5    1  0.1111613E-009  0.9118800E+02  0.7818608E-02  0.1130116E+00
         25   -1    0    0    0    0  0.00000000000E+00  0.00000000000E+00  0.99999998245E-14  0.12500000000E+03  0.12500000000E+03 0.  0.
        -11    1    3    3    0    0 -0.61409746573E+01  0.33559676714E+02 -0.70210956632E+01  0.34831871260E+02  0.51100000000E-03 0.  1.
         23    2    1    0    0    0  0.12943879519E+02 -0.14619225400E+02  0.23085722419E+02  0.94763989220E+02  0.89810897473E+02 0.  0.
         11    1    3    3    0    0  0.19084854177E+02 -0.48178902114E+02  0.30106818082E+02  0.59932117960E+02  0.51100000000E-03 0. -1.
         22    1    1    0    0    0 -0.12943879519E+02  0.14619225400E+02 -0.23085722419E+02  0.30236010780E+02  0.00000000000E+00 0. -1.
</event>
<event>
 5    1  0.1111613E-009  0.9118800E+02  0.7818608E-02  0.1130116E+00
         25   -1    0    0    0    0  0.00000000000E+00  0.00000000000E+00  0.99999998245E-14  0.12500000000E+03  0.12500000000E+03 0.  0.
        -11    1    3    3    0    0  0.41363617152E+01  0.54935150584E+02  0.15022613387E+02  0.57102181843E+02  0.51100000000E-03 0.  1.
         23    2    1    0    0    0  0.12057746113E+02  0.13301923497E+02  0.17987424232E+02  0.99585873209E+02  0.96288464015E+02 0.  0.
         11    1    3    3    0    0  0.79213843982E+01 -0.41633227088E+02  0.29648108444E+01  0.42483691366E+02  0.51100000000E-03 0. -1.
         22    1    1    0    0    0 -0.12057746113E+02 -0.13301923497E+02 -0.17987424232E+02  0.25414126791E+02  0.00000000000E+00 0.  1.
</event>
<event>
 5    1  0.1111613E-009  0.9118800E+02  0.7818608E-02  0.1130116E+00
         25   -1    0    0    0    0  0.00000000000E+00  0.00000000000E+00  0.99999998245E-14  0.12500000000E+03  0.12500000000E+03 0.  0.
        -11    1    3    3    0    0 -0.49265386926E+02  0.12726464527E+02 -0.33266763086E+02  0.60792423663E+02  0.51100000000E-03 0.  1.
         23    2    1    0    0    0 -0.26029334762E+02 -0.38137107293E+01 -0.17784334713E+02  0.93245422080E+02  0.87671862761E+02 0.  0.
         11    1    3    3    0    0  0.23236052164E+02 -0.16540175256E+02  0.15482428373E+02  0.32452998417E+02  0.51100000000E-03 0. -1.
         22    1    1    0    0    0  0.26029334762E+02  0.38137107293E+01  0.17784334713E+02  0.31754577920E+02  0.00000000000E+00 0.  1.
</event>
<event>
 5    1  0.1111613E-009  0.9118800E+02  0.7818608E-02  0.1130116E+00
         25   -1    0    0    0    0  0.00000000000E+00  0.00000000000E+00  0.99999998245E-14  0.12500000000E+03  0.12500000000E+03 0.  0.
        -11    1    3    3    0    0  0.38314703683E+02 -0.55425560457E+01 -0.73774851431E+01  0.39410198339E+02  0.51100000000E-03 0. -1.
         23    2    1    0    0    0 -0.34910922505E+01  0.17198593261E+02  0.23149594297E+02  0.95950334746E+02  0.91447163359E+02 0.  0.
         11    1    3    3    0    0 -0.41805795934E+02  0.22741149307E+02  0.30527079440E+02  0.56540136406E+02  0.51100000000E-03 0.  1.
         22    1    1    0    0    0  0.34910922505E+01 -0.17198593261E+02 -0.23149594297E+02  0.29049665254E+02  0.00000000000E+00 0.  1.
</event>
<event>
 5    1  0.1111613E-009  0.9118800E+02  0.7818608E-02  0.1130116E+00
         25   -1    0    0    0    0  0.00000000000E+00  0.00000000000E+00  0.99999998245E-14  0.12500000000E+03  0.12500000000E+03 0.  0.
        -11    1    3    3    0    0  0.24496836139E+02  0.16797343521E+01 -0.51437805770E+02  0.56997932866E+02  0.51100000000E-03 0.  1.
         23    2    1    0    0    0  0.26196513785E+02  0.98070584952E+00 -0.12538076139E+02  0.95941051779E+02  0.91434473503E+02 0.  0.
         11    1    3    3    0    0  0.16996776460E+01 -0.69902850257E+00  0.38899729632E+02  0.38943118912E+02  0.51100000000E-03 0. -1.
         22    1    1    0    0    0 -0.26196513785E+02 -0.98070584952E+00  0.12538076139E+02  0.29058948221E+02  0.00000000000E+00 0.  1.
</event>
<event>
 5    1  0.1111613E-009  0.9118800E+02  0.7818608E-02  0.1130116E+00
         25   -1    0    0    0    0  0.00000000000E+00  0.00000000000E+00  0.99999998245E-14  0.12500000000E+03  0.12500000000E+03 0.  0.
        -11    1    3    3    0    0 -0.62286786285E+01 -0.13744867182E+02 -0.34490533292E+02  0.37647240249E+02  0.51100000000E-03 0. -1.
         23    2    1    0    0    0  0.26510120533E+02 -0.13749363346E+02  0.10548710646E+02  0.93328138998E+02  0.87789718928E+02 0.  0.
         11    1    3    3    0    0  0.32738799161E+02 -0.44961642680E-02  0.45039243938E+02  0.55680898749E+02  0.51100000000E-03 0.  1.
         22    1    1    0    0    0 -0.26510120533E+02  0.13749363346E+02 -0.10548710646E+02  0.31671861002E+02  0.00000000000E+00 0.  1.
</event>
<event>
 5    1  0.1111613E-009  0.9118800E+02  0.7818608E-02  0.1130116E+00
         25   -1    0    0    0    0  0.00000000000E+00  0.00000000000E+00  0.99999998245E-14  0.12500000000E+03  0.12500000000E+03 0.  0.
        -11    1    3    3    0    0  0.89401185756E+01 -0.30528293236E+02 -0.16730368007E+02  0.35941725361E+02  0.51100000000E-03 0.  1.
         23    2    1    0    0    0 -0.19070988537E+02  0.71199908572E+01  0.20700274622E+02  0.95967290120E+02  0.91470336886E+02 0.  0.
         11    1    3    3    0    0 -0.28011107112E+02  0.37648284093E+02  0.37430642628E+02  0.60025564759E+02  0.51100000000E-03 0. -1.
         22    1    1    0    0    0  0.19070988537E+02 -0.71199908572E+01 -0.20700274622E+02  0.29032709880E+02  0.00000000000E+00 0. -1.
</event>
<event>
 5    1  0.1111613E-009  0.9118800E+02  0.7818608E-02  0.1130116E+00
         25   -1    0    0    0    0  0.00000000000E+00  0.00000000000E+00  0.99999998245E-14  0.12500000000E+03  0.12500000000E+03 0.  0.
        -11    1    3    3    0    0 -0.58136969238E+02  0.22702805864E+02  0.18660670238E+01  0.62440425949E+02  0.51100000000E-03 0.  1.
         23    2    1    0    0    0 -0.27372199895E+02  0.11577104723E+02 -0.85317906246E+00  0.95267953394E+02  0.90509603626E+02 0.  0.
         11    1    3    3    0    0  0.30764769343E+02 -0.11125701141E+02 -0.27192460863E+01  0.32827527445E+02  0.51100000000E-03 0. -1.
         22    1    1    0    0    0  0.27372199895E+02 -0.11577104723E+02  0.85317906246E+00  0.29732046606E+02  0.00000000000E+00 0.  1.
</event>
<event>
 5    1  0.1111613E-009  0.9118800E+02  0.7818608E-02  0.1130116E+00
         25   -1    0    0    0    0  0.00000000000E+00  0.00000000000E+00  0.99999998245E-14  0.12500000000E+03  0.12500000000E+03 0.  0.
        -11    1    3    3    0    0 -0.47463585370E+02  0.52414037694E+01  0.16283316491E+02  0.50452062851E+02  0.51100000000E-03 0. -1.
         23    2    1    0    0    0 -0.17986924259E+02 -0.22209619648E+02 -0.49647951530E+01  0.95992314120E+02  0.91504527374E+02 0.  0.
         11    1    3    3    0    0  0.29476661111E+02 -0.27451023417E+02 -0.21248111644E+02  0.45540251269E+02  0.51100000000E-03 0.  1.
         22    1    1    0    0    0  0.17986924259E+02  0.22209619648E+02  0.49647951530E+01  0.29007685880E+02  0.00000000000E+00 0. -1.
</event>
<event>
 5    1  0.1111613E-009  0.9118800E+02  0.7818608E-02  0.1130116E+00
         25   -1    0    0    0    0  0.00000000000E+00  0.00000000000E+00  0.99999998245E-14  0.12500000000E+03  0.12500000000E+03 0.  0.
        -11    1    3    3    0    0  0.25037967527E+01  0.25258158481E+01 -0.32894675921E+02  0.33086378588E+02  0.51100000000E-03 0.  1.
         23    2    1    0    0    0  0.11764082347E+02 -0.84900340490E+01  0.26818336393E+02  0.94509059075E+02  0.89455378646E+02 0.  0.
         11    1    3    3    0    0  0.92602855942E+01 -0.11015849897E+02  0.59713012314E+02  0.61422680486E+02  0.51100000000E-03 0. -1.
         22    1    1    0    0    0 -0.11764082347E+02  0.84900340490E+01 -0.26818336393E+02  0.30490940925E+02  0.00000000000E+00 0. -1.
</event>
<event>
 5    1  0.1111613E-009  0.9118800E+02  0.7818608E-02  0.1130116E+00
         25   -1    0    0    0    0  0.00000000000E+00  0.00000000000E+00  0.99999998245E-14  0.12500000000E+03  0.12500000000E+03 0.  0.
        -11    1    3    3    0    0  0.37387559667E+02 -0.33588139247E+02 -0.18556214057E+02  0.53575421569E+02  0.51100000000E-03 0. -1.
         23    2    1    0    0    0  0.11459611777E+02 -0.18669983672E+02 -0.31877569328E+02  0.86320930483E+02  0.77170153692E+02 0.  0.
         11    1    3    3    0    0 -0.25927947890E+02  0.14918155575E+02 -0.13321355271E+02  0.32745508914E+02  0.51100000000E-03 0.  1.
         22    1    1    0    0    0 -0.11459611777E+02  0.18669983672E+02  0.31877569328E+02  0.38679069517E+02  0.00000000000E+00 0. -1.
</event>
<event>
 5    1  0.1111613E-009  0.9118800E+02  0.7818608E-02  0.1130116E+00
         25   -1    0    0    0    0  0.00000000000E+00  0.00000000000E+00  0.99999998245E-14  0.12500000000E+03  0.12500000000E+03 0.  0.
        -11    1    3    3    0    0 -0.28483024197E+02  0.11099355244E+02  0.11956793688E+02  0.32824430990E+02  0.51100000000E-03 0.  1.
         23    2    1    0    0    0  0.28682603587E+02 -0.77095381874E+01 -0.38623771806E+01  0.95049262362E+02  0.90207070623E+02 0.  0.
         11    1    3    3    0    0  0.57165627784E+02 -0.18808893432E+02 -0.15819170868E+02  0.62224831372E+02  0.51100000000E-03 0. -1.
         22    1    1    0    0    0 -0.28682603587E+02  0.77095381874E+01  0.38623771806E+01  0.29950737638E+02  0.00000000000E+00 0. -1.
</event>
<event>
 5    1  0.1111613E-009  0.9118800E+02  0.7818608E-02  0.1130116E+00
         25   -1    0    0    0    0  0.00000000000E+00  0.00000000000E+00  0.99999998245E-14  0.12500000000E+03  0.12500000000E+03 0.  0.
        -11    1    3    3    0    0  0.32038053425E+02 -0.37886319709E+02 -0.22928550204E+02  0.54658288512E+02  0.51100000000E-03 0. -1.
         23    2    1    0    0    0  0.10105339543E+02 -0.25634232849E+02  0.96556679076E+01  0.95803018927E+02  0.91245573765E+02 0.  0.
         11    1    3    3    0    0 -0.21932713882E+02  0.12252086860E+02  0.32584218112E+02  0.41144730415E+02  0.51100000000E-03 0.  1.
         22    1    1    0    0    0 -0.10105339543E+02  0.25634232849E+02 -0.96556679076E+01  0.29196981073E+02  0.00000000000E+00 0.  1.
</event>
<event>
 5    1  0.1111613E-009  0.9118800E+02  0.7818608E-02  0.1130116E+00
         25   -1    0    0    0    0  0.00000000000E+00  0.00000000000E+00  0.99999998245E-14  0.12500000000E+03  0.12500000000E+03 0.  0.
        -11    1    3    3    0    0 -0.71440372411E+01  0.54424571711E+02  0.10875980665E+02  0.55958540275E+02  0.51100000000E-03 0.  1.
         23    2    1    0    0    0 -0.16237912167E+02  0.26259105913E+02 -0.10413284488E+02  0.92417076117E+02  0.86482767239E+02 0.  0.
         11    1    3    3    0    0 -0.90938749257E+01 -0.28165465798E+02 -0.21289265153E+02  0.36458535842E+02  0.51100000000E-03 0. -1.
         22    1    1    0    0    0  0.16237912167E+02 -0.26259105913E+02  0.10413284488E+02  0.32582923883E+02  0.00000000000E+00 0.  1.
</event>
<event>
 5    1  0.1111613E-009  0.9118800E+02  0.7818608E-02  0.1130116E+00
         25   -1    0    0    0    0  0.00000000000E+00  0.00000000000E+00  0.99999998245E-14  0.12500000000E+03  0.12500000000E+03 0.  0.
        -11    1    3    3    0    0  0.25973597410E+02 -0.23039722872E+02 -0.12562617606E+02  0.36922566999E+02  0.51100000000E-03 0. -1.
         23    2    1    0    0    0 -0.28656386130E+02 -0.95070617331E+01  0.91086969597E+00  0.94794001052E+02  0.89852658631E+02 0.  0.
         11    1    3    3    0    0 -0.54629983540E+02  0.13532661138E+02  0.13473487302E+02  0.57871434053E+02  0.51100000000E-03 0.  1.
         22    1    1    0    0    0  0.28656386130E+02  0.95070617331E+01 -0.91086969597E+00  0.30205998948E+02  0.00000000000E+00 0.  1.
</event>
<event>
 5    1  0.1111613E-009  0.9118800E+02  0.7818608E-02  0.1130116E+00
         25   -1    0    0    0    0  0.00000000000E+00  0.00000000000E+00  0.99999998245E-14  0.12500000000E+03  0.12500000000E+03 0.  0.
        -11    1    3    3    0    0 -0.35558091349E+01  0.14289993344E+02 -0.54434355301E+02  0.56391016356E+02  0.51100000000E-03 0. -1.
         23    2    1    0    0    0  0.10328172822E+02 -0.86885417949E+01 -0.27210928203E+02  0.94625725917E+02  0.89618254164E+02 0.  0.
         11    1    3    3    0    0  0.13883981957E+02 -0.22978535138E+02  0.27223427097E+02  0.38234709562E+02  0.51100000000E-03 0.  1.
         22    1    1    0    0    0 -0.10328172822E+02  0.86885417949E+01  0.27210928203E+02  0.30374274083E+02  0.00000000000E+00 0. -1.
</event>
<event>
 5    1  0.1111613E-009  0.9118800E+02  0.7818608E-02  0.1130116E+00
         25   -1    0    0    0    0  0.00000000000E+00  0.00000000000E+00  0.99999998245E-14  0.12500000000E+03  0.12500000000E+03 0.  0.
        -11    1    3    3    0    0 -0.20761980379E+02  0.38449796112E+02  0.23079155783E+02  0.49417548322E+02  0.51100000000E-03 0.  1.
         23    2    1    0    0    0  0.94180989930E+01  0.27911753041E+02 -0.84877776780E+01  0.94343696955E+02  0.89224011560E+02 0.  0.
         11    1    3    3    0    0  0.30180079372E+02 -0.10538043071E+02 -0.31566933461E+02  0.44926148633E+02  0.51100000000E-03 0. -1.
         22    1    1    0    0    0 -0.94180989930E+01 -0.27911753041E+02  0.84877776780E+01  0.30656303045E+02  0.00000000000E+00 0. -1.
</event>
<event>
 5    1  0.1111613E-009  0.9118800E+02  0.7818608E-02  0.1130116E+00
         25   -1    0    0    0    0  0.00000000000E+00  0.00000000000E+00  0.99999998245E-14  0.12500000000E+03  0.12500000000E+03 0.  0.
        -11    1    3    3    0    0 -0.17538265876E+02 -0.17484614346E+02  0.42392127904E+02  0.49095773924E+02  0.51100000000E-03 0.  1.
         23    2    1    0    0    0 -0.24394309562E+02  0.15624084621E+02  0.16686282997E+02  0.91569080187E+02  0.85248284715E+02 0.  0.
         11    1    3    3    0    0 -0.68560436864E+01  0.33108698967E+02 -0.25705844906E+02  0.42473306263E+02  0.51100000000E-03 0. -1.
         22    1    1    0    0    0  0.24394309562E+02 -0.15624084621E+02 -0.16686282997E+02  0.33430919813E+02  0.00000000000E+00 0.  1.
</event>
<event>
 5    1  0.1111613E-009  0.9118800E+02  0.7818608E-02  0.1130116E+00
         25   -1    0    0    0    0  0.00000000000E+00  0.00000000000E+00  0.99999998245E-14  0.12500000000E+03  0.12500000000E+03 0.  0.
        -11    1    3    3    0    0 -0.75069850474E+01  0.44951634405E+02 -0.34329016408E+02  0.57056863111E+02  0.51100000000E-03 0. -1.
         23    2    1    0    0    0  0.10627284111E+02  0.29631991863E+01 -0.14175058002E+02  0.10703748385E+03  0.10551952882E+03 0.  0.
         11    1    3    3    0    0  0.18134269158E+02 -0.41988435219E+02  0.20153958407E+02  0.49980620742E+02  0.51100000000E-03 0.  1.
         22    1    1    0    0    0 -0.10627284111E+02 -0.29631991863E+01  0.14175058002E+02  0.17962516147E+02  0.00000000000E+00 0. -1.
</event>
<event>
 5    1  0.1111613E-009  0.9118800E+02  0.7818608E-02  0.1130116E+00
         25   -1    0    0    0    0  0.00000000000E+00  0.00000000000E+00  0.99999998245E-14  0.12500000000E+03  0.12500000000E+03 0.  0.
        -11    1    3    3    0    0 -0.47044330658E+02  0.24180737033E+02  0.81984547295E+00  0.52901316027E+02  0.51100000000E-03 0. -1.
         23    2    1    0    0    0 -0.11298392842E+02  0.14618507071E+02  0.22577140432E+02  0.95826695424E+02  0.91278003134E+02 0.  0.
         11    1    3    3    0    0  0.35745937817E+02 -0.95622299621E+01  0.21757294959E+02  0.42925379398E+02  0.51100000000E-03 0.  1.
         22    1    1    0    0    0  0.11298392842E+02 -0.14618507071E+02 -0.22577140432E+02  0.29173304576E+02  0.00000000000E+00 0. -1.
</event>
<event>
 5    1  0.1111613E-009  0.9118800E+02  0.7818608E-02  0.1130116E+00
         25   -1    0    0    0    0  0.00000000000E+00  0.00000000000E+00  0.99999998245E-14  0.12500000000E+03  0.12500000000E+03 0.  0.
        -11    1    3    3    0    0 -0.10651963169E+02  0.35872389078E+02 -0.56195970126E+01  0.37840091019E+02  0.51100000000E-03 0. -1.
         23    2    1    0    0    0  0.22302286604E+02 -0.13089824423E+02  0.70337503383E+01  0.98200575845E+02  0.94472980060E+02 0.  0.
         11    1    3    3    0    0  0.32954249773E+02 -0.48962213501E+02  0.12653347351E+02  0.60360484826E+02  0.51100000000E-03 0.  1.
         22    1    1    0    0    0 -0.22302286604E+02  0.13089824423E+02 -0.70337503383E+01  0.26799424155E+02  0.00000000000E+00 0.  1.
</event>
<event>
 5    1  0.1111613E-009  0.9118800E+02  0.7818608E-02  0.1130116E+00
         25   -1    0    0    0    0  0.00000000000E+00  0.00000000000E+00  0.99999998245E-14  0.12500000000E+03  0.12500000000E+03 0.  0.
        -11    1    3    3    0    0  0.32927740212E+02  0.17810315736E+02  0.11695700516E+02  0.39220311484E+02  0.51100000000E-03 0.  1.
         23    2    1    0    0    0 -0.91307733456E+01  0.26240361077E+02 -0.18449625047E+02  0.91648594697E+02  0.85364797629E+02 0.  0.
         11    1    3    3    0    0 -0.42058513557E+02  0.84300453405E+01 -0.30145325563E+02  0.52428283213E+02  0.51100000000E-03 0. -1.
         22    1    1    0    0    0  0.91307733456E+01 -0.26240361077E+02  0.18449625047E+02  0.33351405303E+02  0.00000000000E+00 0. -1.
</event>
<event>
 5    1  0.1111613E-009  0.9118800E+02  0.7818608E-02  0.1130116E+00
         25   -1    0    0    0    0  0.00000000000E+00  0.00000000000E+00  0.99999998245E-14  0.12500000000E+03  0.12500000000E+03 0.  0.
        -11    1    3    3    0    0 -0.36542968822E+02 -0.43357923896E+02  0.20473881007E+02  0.60286631509E+02  0.51100000000E-03 0.  1.
         23    2    1    0    0    0 -0.14855433285E+02 -0.30529802293E+02  0.30720064790E+01  0.90909092855E+02  0.84274985694E+02 0.  0.
         11    1    3    3    0    0  0.21687535538E+02  0.12828121602E+02 -0.17401874528E+02  0.30622461346E+02  0.51100000000E-03 0. -1.
         22    1    1    0    0    0  0.14855433285E+02  0.30529802293E+02 -0.30720064790E+01  0.34090907145E+02  0.00000000000E+00 0.  1.
</event>
<event>
 5    1  0.1111613E-009  0.9118800E+02  0.7818608E-02  0.1130116E+00
         25   -1    0    0    0    0  0.00000000000E+00  0.00000000000E+00  0.99999998245E-14  0.12500000000E+03  0.12500000000E+03 0.  0.
        -11    1    3    3    0    0 -0.37192265367E+02  0.47575992638E+02  0.57374778885E+00  0.60390966754E+02  0.51100000000E-03 0.  1.
         23    2    1    0    0    0 -0.23265078520E+02  0.15647403208E+02  0.76525223972E+01  0.95936858312E+02  0.91428740438E+02 0.  0.
         11    1    3    3    0    0  0.13927186847E+02 -0.31928589430E+02  0.70787746083E+01  0.35545891558E+02  0.51100000000E-03 0. -1.
         22    1    1    0    0    0  0.23265078520E+02 -0.15647403208E+02 -0.76525223972E+01  0.29063141688E+02  0.00000000000E+00 0.  1.
</event>
<event>
 5    1  0.1111613E-009  0.9118800E+02  0.7818608E-02  0.1130116E+00
         25   -1    0    0    0    0  0.00000000000E+00  0.00000000000E+00  0.99999998245E-14  0.12500000000E+03  0.12500000000E+03 0.  0.
        -11    1    3    3    0    0 -0.39122533784E+02  0.13287450460E+02  0.23704404118E+02  0.47634312887E+02  0.51100000000E-03 0. -1.
         23    2    1    0    0    0  0.28603921935E+01  0.27975728229E+02  0.15588309869E+02  0.92846950098E+02  0.87101880143E+02 0.  0.
         11    1    3    3    0    0  0.41982925977E+02  0.14688277769E+02 -0.81160942495E+01  0.45212637211E+02  0.51100000000E-03 0.  1.
         22    1    1    0    0    0 -0.28603921935E+01 -0.27975728229E+02 -0.15588309869E+02  0.32153049902E+02  0.00000000000E+00 0. -1.
</event>
<event>
 5    1  0.1111613E-009  0.9118800E+02  0.7818608E-02  0.1130116E+00
         25   -1    0    0    0    0  0.00000000000E+00  0.00000000000E+00  0.99999998245E-14  0.12500000000E+03  0.12500000000E+03 0.  0.
        -11    1    3    3    0    0  0.27006777397E+02 -0.22302727959E+01  0.39530994311E+02  0.47927441551E+02  0.51100000000E-03 0.  1.
         23    2    1    0    0    0  0.99680053512E+01 -0.28218779971E+02  0.45330574632E+01  0.94731050833E+02  0.89765041682E+02 0.  0.
         11    1    3    3    0    0 -0.17038772046E+02 -0.25988507175E+02 -0.34997936848E+02  0.46803609282E+02  0.51100000000E-03 0. -1.
         22    1    1    0    0    0 -0.99680053512E+01  0.28218779971E+02 -0.45330574632E+01  0.30268949167E+02  0.00000000000E+00 0.  1.
</event>
<event>
 5    1  0.1111613E-009  0.9118800E+02  0.7818608E-02  0.1130116E+00
         25   -1    0    0    0    0  0.00000000000E+00  0.00000000000E+00  0.99999998245E-14  0.12500000000E+03  0.12500000000E+03 0.  0.
        -11    1    3    3    0    0 -0.44969197012E+02 -0.87147950580E+01 -0.12477510193E+02  0.47474883820E+02  0.51100000000E-03 0. -1.
         23    2    1    0    0    0 -0.12759252767E+02  0.15940265727E+01  0.24342831378E+02  0.97469782214E+02  0.93501045734E+02 0.  0.
         11    1    3    3    0    0  0.32209944246E+02  0.10308821631E+02  0.36820341571E+02  0.49994898394E+02  0.51100000000E-03 0.  1.
         22    1    1    0    0    0  0.12759252767E+02 -0.15940265727E+01 -0.24342831378E+02  0.27530217786E+02  0.00000000000E+00 0.  1.
</event>
<event>
 5    1  0.1111613E-009  0.9118800E+02  0.7818608E-02  0.1130116E+00
         25   -1    0    0    0    0  0.00000000000E+00  0.00000000000E+00  0.99999998245E-14  0.12500000000E+03  0.12500000000E+03 0.  0.
        -11    1    3    3    0    0 -0.20196305016E+02  0.53973778705E+01 -0.36936164440E+02  0.42441756184E+02  0.51100000000E-03 0.  1.
         23    2    1    0    0    0  0.88789601521E+01  0.26945988249E+02  0.31582924969E+01  0.96453598693E+02  0.92132511489E+02 0.  0.
         11    1    3    3    0    0  0.29075265168E+02  0.21548610378E+02  0.40094456937E+02  0.54011842509E+02  0.51100000000E-03 0. -1.
         22    1    1    0    0    0 -0.88789601521E+01 -0.26945988249E+02 -0.31582924969E+01  0.28546401307E+02  0.00000000000E+00 0. -1.
</event>
<event>
 5    1  0.1111613E-009  0.9118800E+02  0.7818608E-02  0.1130116E+00
         25   -1    0    0    0    0  0.00000000000E+00  0.00000000000E+00  0.99999998245E-14  0.12500000000E+03  0.12500000000E+03 0.  0.
        -11    1    3    3    0    0 -0.87645936288E+01  0.40572027028E+02 -0.91055626806E+01  0.42494926176E+02  0.51100000000E-03 0.  1.
         23    2    1    0    0    0  0.15237525145E+02  0.49668893454E+01  0.23600702175E+02  0.96472025914E+02  0.92157509072E+02 0.  0.
         11    1    3    3    0    0  0.24002118774E+02 -0.35605137683E+02  0.32706264856E+02  0.53977099738E+02  0.51100000000E-03 0. -1.
         22    1    1    0    0    0 -0.15237525145E+02 -0.49668893454E+01 -0.23600702175E+02  0.28527974086E+02  0.00000000000E+00 0. -1.
</event>
<event>
 5    1  0.1111613E-009  0.9118800E+02  0.7818608E-02  0.1130116E+00
         25   -1    0    0    0    0  0.00000000000E+00  0.00000000000E+00  0.99999998245E-14  0.12500000000E+03  0.12500000000E+03 0.  0.
        -11    1    3    3    0    0  0.47502113292E+01  0.16544559100E+02  0.46453688510E+02  0.49540207104E+02  0.51100000000E-03 0. -1.
         23    2    1    0    0    0 -0.20225382675E+02  0.21261555616E+02  0.99638973046E+01  0.94009693434E+02  0.88754849774E+02 0.  0.
         11    1    3    3    0    0 -0.24975594004E+02  0.47169965161E+01 -0.36489791205E+02  0.44469486330E+02  0.51100000000E-03 0.  1.
         22    1    1    0    0    0  0.20225382675E+02 -0.21261555616E+02 -0.99638973046E+01  0.30990306566E+02  0.00000000000E+00 0. -1.
</event>
<event>
 5    1  0.1111613E-009  0.9118800E+02  0.7818608E-02  0.1130116E+00
         25   -1    0    0    0    0  0.00000000000E+00  0.00000000000E+00  0.99999998245E-14  0.12500000000E+03  0.12500000000E+03 0.  0.
        -11    1    3    3    0    0 -0.12423581612E+02 -0.18775929100E+01  0.38720149812E+02  0.40707747873E+02  0.51100000000E-03 0.  1.
         23    2    1    0    0    0  0.28941406637E+02  0.68698243351E+01  0.48923312277E+01  0.94854778001E+02  0.89937169737E+02 0.  0.
         11    1    3    3    0    0  0.41364988249E+02  0.87474172451E+01 -0.33827818584E+02  0.54147030128E+02  0.51100000000E-03 0. -1.
         22    1    1    0    0    0 -0.28941406637E+02 -0.68698243351E+01 -0.48923312277E+01  0.30145221999E+02  0.00000000000E+00 0. -1.
</event>
<event>
 5    1  0.1111613E-009  0.9118800E+02  0.7818608E-02  0.1130116E+00
         25   -1    0    0    0    0  0.00000000000E+00  0.00000000000E+00  0.99999998245E-14  0.12500000000E+03  0.12500000000E+03 0.  0.
        -11    1    3    3    0    0  0.62183839193E+01  0.15832464518E+02 -0.37225544460E+02  0.40927697124E+02  0.51100000000E-03 0.  1.
         23    2    1    0    0    0  0.27088237679E+02 -0.32508287493E+01  0.99746654318E+01  0.95951171132E+02  0.91448306616E+02 0.  0.
         11    1    3    3    0    0  0.20869853760E+02 -0.19083293267E+02  0.47200209891E+02  0.55023474008E+02  0.51100000000E-03 0. -1.
         22    1    1    0    0    0 -0.27088237679E+02  0.32508287493E+01 -0.99746654318E+01  0.29048828868E+02  0.00000000000E+00 0. -1.
</event>
<event>
 5    1  0.1111613E-009  0.9118800E+02  0.7818608E-02  0.1130116E+00
         25   -1    0    0    0    0  0.00000000000E+00  0.00000000000E+00  0.99999998245E-14  0.12500000000E+03  0.12500000000E+03 0.  0.
        -11    1    3    3    0    0  0.84217213412E+01 -0.15911836418E+02  0.30835641804E+02  0.35706424272E+02  0.51100000000E-03 0.  1.
         23    2    1    0    0    0  0.13432703692E+02  0.28694254363E+02 -0.47179836424E+01  0.92967873446E+02  0.87275244838E+02 0.  0.
         11    1    3    3    0    0  0.50109823509E+01  0.44606090781E+02 -0.35553625446E+02  0.57261449174E+02  0.51100000000E-03 0. -1.
         22    1    1    0    0    0 -0.13432703692E+02 -0.28694254363E+02  0.47179836424E+01  0.32032126554E+02  0.00000000000E+00 0.  1.
</event>
<event>
 5    1  0.1111613E-009  0.9118800E+02  0.7818608E-02  0.1130116E+00
         25   -1    0    0    0    0  0.00000000000E+00  0.00000000000E+00  0.99999998245E-14  0.12500000000E+03  0.12500000000E+03 0.  0.
        -11    1    3    3    0    0  0.23362775470E+02  0.40015778383E+02 -0.41574636865E+02  0.62253772801E+02  0.51100000000E-03 0. -1.
         23    2    1    0    0    0  0.77474467768E+01  0.18878192005E+02 -0.21776218796E+02  0.95156863939E+02  0.90356051179E+02 0.  0.
         11    1    3    3    0    0 -0.15615328694E+02 -0.21137586378E+02  0.19798418069E+02  0.32903091137E+02  0.51100000000E-03 0.  1.
         22    1    1    0    0    0 -0.77474467768E+01 -0.18878192005E+02  0.21776218796E+02  0.29843136061E+02  0.00000000000E+00 0. -1.
</event>
<event>
 5    1  0.1111613E-009  0.9118800E+02  0.7818608E-02  0.1130116E+00
         25   -1    0    0    0    0  0.00000000000E+00  0.00000000000E+00  0.99999998245E-14  0.12500000000E+03  0.12500000000E+03 0.  0.
        -11    1    3    3    0    0 -0.37597643245E+02  0.18475989261E+02 -0.34649872053E+02  0.54365049346E+02  0.51100000000E-03 0.  1.
         23    2    1    0    0    0 -0.21357358652E+02 -0.13738634136E+02 -0.16105423452E+02  0.94928892586E+02  0.90040119650E+02 0.  0.
         11    1    3    3    0    0  0.16240284593E+02 -0.32214623397E+02  0.18544448601E+02  0.40563843241E+02  0.51100000000E-03 0. -1.
         22    1    1    0    0    0  0.21357358652E+02  0.13738634136E+02  0.16105423452E+02  0.30071107414E+02  0.00000000000E+00 0.  1.
</event>
<event>
 5    1  0.1111613E-009  0.9118800E+02  0.7818608E-02  0.1130116E+00
         25   -1    0    0    0    0  0.00000000000E+00  0.00000000000E+00  0.99999998245E-14  0.12500000000E+03  0.12500000000E+03 0.  0.
        -11    1    3    3    0    0 -0.53311715230E+02 -0.10059720339E+02 -0.11623584789E+00  0.54252653991E+02  0.51100000000E-03 0. -1.
         23    2    1    0    0    0 -0.15062612011E+02 -0.25273455442E+02  0.23104091827E+01  0.95487836047E+02  0.90812768991E+02 0.  0.
         11    1    3    3    0    0  0.38249103219E+02 -0.15213735103E+02  0.24266450306E+01  0.41235182056E+02  0.51100000000E-03 0.  1.
         22    1    1    0    0    0  0.15062612011E+02  0.25273455442E+02 -0.23104091827E+01  0.29512163953E+02  0.00000000000E+00 0.  1.
</event>
<event>
 5    1  0.1111613E-009  0.9118800E+02  0.7818608E-02  0.1130116E+00
         25   -1    0    0    0    0  0.00000000000E+00  0.00000000000E+00  0.99999998245E-14  0.12500000000E+03  0.12500000000E+03 0.  0.
        -11    1    3    3    0    0  0.11371407429E+02 -0.12317135418E+02 -0.36599757048E+02  0.40256216266E+02  0.51100000000E-03 0.  1.
         23    2    1    0    0    0 -0.25513028210E+02  0.12279275571E+02 -0.17779281646E+01  0.96630011534E+02  0.92371548020E+02 0.  0.
         11    1    3    3    0    0 -0.36884435639E+02  0.24596410989E+02  0.34821828883E+02  0.56373795268E+02  0.51100000000E-03 0. -1.
         22    1    1    0    0    0  0.25513028210E+02 -0.12279275571E+02  0.17779281646E+01  0.28369988466E+02  0.00000000000E+00 0. -1.
</event>
<event>
 5    1  0.1111613E-009  0.9118800E+02  0.7818608E-02  0.1130116E+00
         25   -1    0    0    0    0  0.00000000000E+00  0.00000000000E+00  0.99999998245E-14  0.12500000000E+03  0.12500000000E+03 0.  0.
        -11    1    3    3    0    0  0.85441860454E+00  0.39382336402E+02 -0.41065386488E+02  0.56903993000E+02  0.51100000000E-03 0.  1.
         23    2    1    0    0    0 -0.18010363804E+02  0.16384178245E+02 -0.15406469485E+02  0.96187263179E+02  0.91770451642E+02 0.  0.
         11    1    3    3    0    0 -0.18864782409E+02 -0.22998158157E+02  0.25658917003E+02  0.39283270179E+02  0.51100000000E-03 0. -1.
         22    1    1    0    0    0  0.18010363804E+02 -0.16384178245E+02  0.15406469485E+02  0.28812736821E+02  0.00000000000E+00 0.  1.
</event>
<event>
 5    1  0.1111613E-009  0.9118800E+02  0.7818608E-02  0.1130116E+00
         25   -1    0    0    0    0  0.00000000000E+00  0.00000000000E+00  0.99999998245E-14  0.12500000000E+03  0.12500000000E+03 0.  0.
        -11    1    3    3    0    0 -0.61790454148E+00 -0.22189014050E+02 -0.56758485842E+02  0.60944727958E+02  0.51100000000E-03 0. -1.
         23    2    1    0    0    0  0.62159908619E+01 -0.17108159228E+02 -0.23506447841E+02  0.95269868068E+02  0.90512247884E+02 0.  0.
         11    1    3    3    0    0  0.68338954034E+01  0.50808548223E+01  0.33252038001E+02  0.34325140110E+02  0.51100000000E-03 0.  1.
         22    1    1    0    0    0 -0.62159908619E+01  0.17108159228E+02  0.23506447841E+02  0.29730131932E+02  0.00000000000E+00 0. -1.
</event>
<event>
 5    1  0.1111613E-009  0.9118800E+02  0.7818608E-02  0.1130116E+00
         25   -1    0    0    0    0  0.00000000000E+00  0.00000000000E+00  0.99999998245E-14  0.12500000000E+03  0.12500000000E+03 0.  0.
        -11    1    3    3    0    0  0.26944145573E+02  0.41701425446E+02 -0.35312890153E+02  0.60926152645E+02  0.51100000000E-03 0. -1.
         23    2    1    0    0    0  0.17812103986E+02  0.10874467192E+02 -0.17989824236E+02  0.97447162376E+02  0.93470800756E+02 0.  0.
         11    1    3    3    0    0 -0.91320415870E+01 -0.30826958254E+02  0.17323065917E+02  0.36521009731E+02  0.51100000000E-03 0.  1.
         22    1    1    0    0    0 -0.17812103986E+02 -0.10874467192E+02  0.17989824236E+02  0.27552837624E+02  0.00000000000E+00 0. -1.
</event>
<event>
 5    1  0.1111613E-009  0.9118800E+02  0.7818608E-02  0.1130116E+00
         25   -1    0    0    0    0  0.00000000000E+00  0.00000000000E+00  0.99999998245E-14  0.12500000000E+03  0.12500000000E+03 0.  0.
        -11    1    3    3    0    0  0.56889075526E+02  0.24922708048E+02  0.32671812844E+01  0.62194716531E+02  0.51100000000E-03 0. -1.
         23    2    1    0    0    0  0.26597652667E+02  0.11717424784E+02  0.58957164293E+01  0.95343758782E+02  0.90614235612E+02 0.  0.
         11    1    3    3    0    0 -0.30291422859E+02 -0.13205283264E+02  0.26285351449E+01  0.33149042251E+02  0.51100000000E-03 0.  1.
         22    1    1    0    0    0 -0.26597652667E+02 -0.11717424784E+02 -0.58957164293E+01  0.29656241218E+02  0.00000000000E+00 0. -1.
</event>
<event>
 5    1  0.1111613E-009  0.9118800E+02  0.7818608E-02  0.1130116E+00
         25   -1    0    0    0    0  0.00000000000E+00  0.00000000000E+00  0.99999998245E-14  0.12500000000E+03  0.12500000000E+03 0.  0.
        -11    1    3    3    0    0 -0.38093010336E+01  0.28531626501E+02 -0.43254525670E+01  0.29107971852E+02  0.51100000000E-03 0.  1.
         23    2    1    0    0    0  0.87736898943E+01 -0.22630064274E+02 -0.28913745492E+02  0.87249475212E+02  0.78659829665E+02 0.  0.
         11    1    3    3    0    0  0.12582990928E+02 -0.51161690775E+02 -0.24588292925E+02  0.58141503360E+02  0.51100000000E-03 0. -1.
         22    1    1    0    0    0 -0.87736898943E+01  0.22630064274E+02  0.28913745492E+02  0.37750524788E+02  0.00000000000E+00 0. -1.
</event>
<event>
 5    1  0.1111613E-009  0.9118800E+02  0.7818608E-02  0.1130116E+00
         25   -1    0    0    0    0  0.00000000000E+00  0.00000000000E+00  0.99999998245E-14  0.12500000000E+03  0.12500000000E+03 0.  0.
        -11    1    3    3    0    0  0.11230714919E+02 -0.24831172543E+02 -0.21967625796E+02  0.35004180762E+02  0.51100000000E-03 0.  1.
         23    2    1    0    0    0 -0.42252609972E+01  0.29072410111E+02  0.10096006420E+01  0.95604810706E+02  0.90973637261E+02 0.  0.
         11    1    3    3    0    0 -0.15455975916E+02  0.53903582654E+02  0.22977226438E+02  0.60600629944E+02  0.51100000000E-03 0. -1.
         22    1    1    0    0    0  0.42252609972E+01 -0.29072410111E+02 -0.10096006420E+01  0.29395189294E+02  0.00000000000E+00 0. -1.
</event>
<event>
 5    1  0.1111613E-009  0.9118800E+02  0.7818608E-02  0.1130116E+00
         25   -1    0    0    0    0  0.00000000000E+00  0.00000000000E+00  0.99999998245E-14  0.12500000000E+03  0.12500000000E+03 0.  0.
        -11    1    3    3    0    0  0.57343822924E+02  0.69033545170E+01 -0.19452669448E+02  0.60945686312E+02  0.51100000000E-03 0.  1.
         23    2    1    0    0    0  0.28536260969E+02  0.22201027246E+01  0.62522194867E+00  0.96370680262E+02  0.92019943846E+02 0.  0.
         11    1    3    3    0    0 -0.28807561956E+02 -0.46832517923E+01  0.20077891396E+02  0.35424993950E+02  0.51100000000E-03 0. -1.
         22    1    1    0    0    0 -0.28536260969E+02 -0.22201027246E+01 -0.62522194867E+00  0.28629319738E+02  0.00000000000E+00 0.  1.
</event>
<event>
 5    1  0.1111613E-009  0.9118800E+02  0.7818608E-02  0.1130116E+00
         25   -1    0    0    0    0  0.00000000000E+00  0.00000000000E+00  0.99999998245E-14  0.12500000000E+03  0.12500000000E+03 0.  0.
        -11    1    3    3    0    0 -0.36879129786E+02 -0.22617559447E+02  0.18583858496E+01  0.43302168622E+02  0.51100000000E-03 0. -1.
         23    2    1    0    0    0  0.55109420240E+00  0.24660901836E+00  0.29726239652E+02  0.95267629683E+02  0.90509156557E+02 0.  0.
         11    1    3    3    0    0  0.37430223989E+02  0.22864168466E+02  0.27867853803E+02  0.51965461061E+02  0.51100000000E-03 0.  1.
         22    1    1    0    0    0 -0.55109420240E+00 -0.24660901836E+00 -0.29726239652E+02  0.29732370317E+02  0.00000000000E+00 0.  1.
</event>
<event>
 5    1  0.1111613E-009  0.9118800E+02  0.7818608E-02  0.1130116E+00
         25   -1    0    0    0    0  0.00000000000E+00  0.00000000000E+00  0.99999998245E-14  0.12500000000E+03  0.12500000000E+03 0.  0.
        -11    1    3    3    0    0 -0.10559925879E+02 -0.22476800350E+02  0.22134176833E+02  0.33266204666E+02  0.51100000000E-03 0.  1.
         23    2    1    0    0    0  0.38177371224E+01  0.30688508152E+02 -0.32404558745E+01  0.93905624245E+02  0.88608160240E+02 0.  0.
         11    1    3    3    0    0  0.14377663001E+02  0.53165308502E+02 -0.25374632708E+02  0.60639419579E+02  0.51100000000E-03 0. -1.
         22    1    1    0    0    0 -0.38177371224E+01 -0.30688508152E+02  0.32404558745E+01  0.31094375755E+02  0.00000000000E+00 0. -1.
</event>
<event>
 5    1  0.1111613E-009  0.9118800E+02  0.7818608E-02  0.1130116E+00
         25   -1    0    0    0    0  0.00000000000E+00  0.00000000000E+00  0.99999998245E-14  0.12500000000E+03  0.12500000000E+03 0.  0.
        -11    1    3    3    0    0 -0.32790581962E+01  0.43538241638E+02  0.21708472752E+02  0.48760521911E+02  0.51100000000E-03 0.  1.
         23    2    1    0    0    0 -0.65097476011E+01  0.20274673186E+02 -0.19457289047E+02  0.96155151522E+02  0.91726702113E+02 0.  0.
         11    1    3    3    0    0 -0.32306894049E+01 -0.23263568452E+02 -0.41165761799E+02  0.47394629611E+02  0.51100000000E-03 0. -1.
         22    1    1    0    0    0  0.65097476011E+01 -0.20274673186E+02  0.19457289047E+02  0.28844848478E+02  0.00000000000E+00 0.  1.
</event>
<event>
 5    1  0.1111613E-009  0.9118800E+02  0.7818608E-02  0.1130116E+00
         25   -1    0    0    0    0  0.00000000000E+00  0.00000000000E+00  0.99999998245E-14  0.12500000000E+03  0.12500000000E+03 0.  0.
        -11    1    3    3    0    0 -0.30662230661E+02 -0.14269219570E+02 -0.13200860889E+02  0.36304899734E+02  0.51100000000E-03 0.  1.
         23    2    1    0    0    0  0.19429681833E+02  0.22462939462E+01  0.18694951681E+02  0.97943400233E+02  0.94132088356E+02 0.  0.
         11    1    3    3    0    0  0.50091912494E+02  0.16515513516E+02  0.31895812570E+02  0.61638500499E+02  0.51100000000E-03 0. -1.
         22    1    1    0    0    0 -0.19429681833E+02 -0.22462939462E+01 -0.18694951681E+02  0.27056599767E+02  0.00000000000E+00 0. -1.
</event>
<event>
 5    1  0.1111613E-009  0.9118800E+02  0.7818608E-02  0.1130116E+00
         25   -1    0    0    0    0  0.00000000000E+00  0.00000000000E+00  0.99999998245E-14  0.12500000000E+03  0.12500000000E+03 0.  0.
        -11    1    3    3    0    0  0.24550853501E+02 -0.25537059068E+02 -0.36545335532E+02  0.50896437428E+02  0.51100000000E-03 0.  1.
         23    2    1    0    0    0 -0.13301411845E+02 -0.27744313646E+01 -0.24994130944E+02  0.96551245931E+02  0.92264898432E+02 0.  0.
         11    1    3    3    0    0 -0.37852265346E+02  0.22762627703E+02  0.11551204588E+02  0.45654808503E+02  0.51100000000E-03 0. -1.
         22    1    1    0    0    0  0.13301411845E+02  0.27744313646E+01  0.24994130944E+02  0.28448754069E+02  0.00000000000E+00 0. -1.
</event>
<event>
 5    1  0.1111613E-009  0.9118800E+02  0.7818608E-02  0.1130116E+00
         25   -1    0    0    0    0  0.00000000000E+00  0.00000000000E+00  0.99999998245E-14  0.12500000000E+03  0.12500000000E+03 0.  0.
        -11    1    3    3    0    0 -0.86233319848E+01 -0.16123062597E+01 -0.47574562886E+02  0.48376651600E+02  0.51100000000E-03 0.  1.
         23    2    1    0    0    0 -0.29611542175E+02 -0.30925289133E+01 -0.65006725929E+01  0.94525979766E+02  0.89479019560E+02 0.  0.
         11    1    3    3    0    0 -0.20988210190E+02 -0.14802226537E+01  0.41073890293E+02  0.46149328166E+02  0.51100000000E-03 0. -1.
         22    1    1    0    0    0  0.29611542175E+02  0.30925289133E+01  0.65006725929E+01  0.30474020234E+02  0.00000000000E+00 0.  1.
</event>
<event>
 5    1  0.1111613E-009  0.9118800E+02  0.7818608E-02  0.1130116E+00
         25   -1    0    0    0    0  0.00000000000E+00  0.00000000000E+00  0.99999998245E-14  0.12500000000E+03  0.12500000000E+03 0.  0.
        -11    1    3    3    0    0  0.17144900769E+02  0.34965044971E+01 -0.30264981661E+02  0.34959151609E+02  0.51100000000E-03 0.  1.
         23    2    1    0    0    0 -0.18240401600E+02  0.24815600046E+02  0.99721821079E+01  0.92627624861E+02  0.86786555498E+02 0.  0.
         11    1    3    3    0    0 -0.35385302368E+02  0.21319095549E+02  0.40237163769E+02  0.57668473251E+02  0.51100000000E-03 0. -1.
         22    1    1    0    0    0  0.18240401600E+02 -0.24815600046E+02 -0.99721821079E+01  0.32372375139E+02  0.00000000000E+00 0. -1.
</event>
<event>
 5    1  0.1111613E-009  0.9118800E+02  0.7818608E-02  0.1130116E+00
         25   -1    0    0    0    0  0.00000000000E+00  0.00000000000E+00  0.99999998245E-14  0.12500000000E+03  0.12500000000E+03 0.  0.
        -11    1    3    3    0    0  0.19901559123E+02  0.41966444118E+02  0.28939290083E+02  0.54724190247E+02  0.51100000000E-03 0.  1.
         23    2    1    0    0    0  0.25793291577E+02  0.57224928773E+01  0.17970703001E+02  0.93047113097E+02  0.87388662160E+02 0.  0.
         11    1    3    3    0    0  0.58917324540E+01 -0.36243951241E+02 -0.10968587082E+02  0.38322922849E+02  0.51100000000E-03 0. -1.
         22    1    1    0    0    0 -0.25793291577E+02 -0.57224928773E+01 -0.17970703001E+02  0.31952886903E+02  0.00000000000E+00 0.  1.
</event>
<event>
 5    1  0.1111613E-009  0.9118800E+02  0.7818608E-02  0.1130116E+00
         25   -1    0    0    0    0  0.00000000000E+00  0.00000000000E+00  0.99999998245E-14  0.12500000000E+03  0.12500000000E+03 0.  0.
        -11    1    3    3    0    0 -0.17961874910E+02  0.30980140106E+02 -0.90071262738E+01  0.36925957743E+02  0.51100000000E-03 0.  1.
         23    2    1    0    0    0  0.46460291455E+01 -0.16579700692E+02  0.21242464732E+02  0.97655633675E+02  0.93749178229E+02 0.  0.
         11    1    3    3    0    0  0.22607904056E+02 -0.47559840798E+02  0.30249591006E+02  0.60729675932E+02  0.51100000000E-03 0. -1.
         22    1    1    0    0    0 -0.46460291455E+01  0.16579700692E+02 -0.21242464732E+02  0.27344366325E+02  0.00000000000E+00 0. -1.
</event>
<event>
 5    1  0.1111613E-009  0.9118800E+02  0.7818608E-02  0.1130116E+00
         25   -1    0    0    0    0  0.00000000000E+00  0.00000000000E+00  0.99999998245E-14  0.12500000000E+03  0.12500000000E+03 0.  0.
        -11    1    3    3    0    0  0.82890993214E+01  0.16430015781E+02 -0.36378562882E+02  0.40768301703E+02  0.51100000000E-03 0.  1.
         23    2    1    0    0    0  0.15288843188E+02 -0.23147033886E+02  0.30768347858E+01  0.97089413907E+02  0.92991147303E+02 0.  0.
         11    1    3    3    0    0  0.69997438667E+01 -0.39577049667E+02  0.39455397667E+02  0.56321112204E+02  0.51100000000E-03 0. -1.
         22    1    1    0    0    0 -0.15288843188E+02  0.23147033886E+02 -0.30768347858E+01  0.27910586093E+02  0.00000000000E+00 0. -1.
</event>
<event>
 5    1  0.1111613E-009  0.9118800E+02  0.7818608E-02  0.1130116E+00
         25   -1    0    0    0    0  0.00000000000E+00  0.00000000000E+00  0.99999998245E-14  0.12500000000E+03  0.12500000000E+03 0.  0.
        -11    1    3    3    0    0  0.45349355629E+02 -0.23816073360E+02  0.11728344698E+02  0.52548296603E+02  0.51100000000E-03 0.  1.
         23    2    1    0    0    0  0.13750529799E+02 -0.37519828906E+01  0.28168888292E+02  0.93430383072E+02  0.87935179354E+02 0.  0.
         11    1    3    3    0    0 -0.31598825829E+02  0.20064090470E+02  0.16440543594E+02  0.40882086469E+02  0.51100000000E-03 0. -1.
         22    1    1    0    0    0 -0.13750529799E+02  0.37519828906E+01 -0.28168888292E+02  0.31569616928E+02  0.00000000000E+00 0.  1.
</event>
<event>
 5    1  0.1111613E-009  0.9118800E+02  0.7818608E-02  0.1130116E+00
         25   -1    0    0    0    0  0.00000000000E+00  0.00000000000E+00  0.99999998245E-14  0.12500000000E+03  0.12500000000E+03 0.  0.
        -11    1    3    3    0    0 -0.42039987885E+02 -0.15551058218E+02 -0.17359185134E+02  0.48068048658E+02  0.51100000000E-03 0.  1.
         23    2    1    0    0    0 -0.70187601288E+01  0.17139394162E+02 -0.22048669124E+02  0.96204763656E+02  0.91794285845E+02 0.  0.
         11    1    3    3    0    0  0.35021227756E+02  0.32690452380E+02 -0.46894839902E+01  0.48136714997E+02  0.51100000000E-03 0. -1.
         22    1    1    0    0    0  0.70187601288E+01 -0.17139394162E+02  0.22048669124E+02  0.28795236344E+02  0.00000000000E+00 0.  1.
</event>
<event>
 5    1  0.1111613E-009  0.9118800E+02  0.7818608E-02  0.1130116E+00
         25   -1    0    0    0    0  0.00000000000E+00  0.00000000000E+00  0.99999998245E-14  0.12500000000E+03  0.12500000000E+03 0.  0.
        -11    1    3    3    0    0  0.30270272817E+02 -0.43083210850E+02 -0.31474532605E+02  0.61344100585E+02  0.51100000000E-03 0.  1.
         23    2    1    0    0    0  0.21074583102E+02 -0.16880718565E+02 -0.11008292952E+02  0.95840452234E+02  0.91296840353E+02 0.  0.
         11    1    3    3    0    0 -0.91956897152E+01  0.26202492285E+02  0.20466239653E+02  0.34496351649E+02  0.51100000000E-03 0. -1.
         22    1    1    0    0    0 -0.21074583102E+02  0.16880718565E+02  0.11008292952E+02  0.29159547766E+02  0.00000000000E+00 0.  1.
</event>
<event>
 5    1  0.1111613E-009  0.9118800E+02  0.7818608E-02  0.1130116E+00
         25   -1    0    0    0    0  0.00000000000E+00  0.00000000000E+00  0.99999998245E-14  0.12500000000E+03  0.12500000000E+03 0.  0.
        -11    1    3    3    0    0  0.29675768855E+02  0.13358496888E+02  0.96653218145E+01  0.33948772324E+02  0.51100000000E-03 0.  1.
         23    2    1    0    0    0 -0.19916902742E+02 -0.28542914822E+01 -0.22163117476E+02  0.95066176807E+02  0.90230505938E+02 0.  0.
         11    1    3    3    0    0 -0.49592671597E+02 -0.16212788371E+02 -0.31828439290E+02  0.61117404483E+02  0.51100000000E-03 0. -1.
         22    1    1    0    0    0  0.19916902742E+02  0.28542914822E+01  0.22163117476E+02  0.29933823193E+02  0.00000000000E+00 0. -1.
</event>
<event>
 5    1  0.1111613E-009  0.9118800E+02  0.7818608E-02  0.1130116E+00
         25   -1    0    0    0    0  0.00000000000E+00  0.00000000000E+00  0.99999998245E-14  0.12500000000E+03  0.12500000000E+03 0.  0.
        -11    1    3    3    0    0 -0.22930971863E+02  0.31226482173E+02 -0.17337019127E+01  0.38780515495E+02  0.51100000000E-03 0. -1.
         23    2    1    0    0    0 -0.15944173760E+02 -0.22275903489E+02 -0.14179199818E+02  0.94153893915E+02  0.88957706123E+02 0.  0.
         11    1    3    3    0    0  0.69867981033E+01 -0.53502385662E+02 -0.12445497905E+02  0.55373378420E+02  0.51100000000E-03 0.  1.
         22    1    1    0    0    0  0.15944173760E+02  0.22275903489E+02  0.14179199818E+02  0.30846106085E+02  0.00000000000E+00 0. -1.
</event>
<event>
 5    1  0.1111613E-009  0.9118800E+02  0.7818608E-02  0.1130116E+00
         25   -1    0    0    0    0  0.00000000000E+00  0.00000000000E+00  0.99999998245E-14  0.12500000000E+03  0.12500000000E+03 0.  0.
        -11    1    3    3    0    0  0.36082307694E+02  0.17310305693E+02 -0.20677602033E+02  0.45046008012E+02  0.51100000000E-03 0. -1.
         23    2    1    0    0    0  0.20052418608E+02 -0.12955281264E+02  0.16794269748E+02  0.95811195622E+02  0.91256774573E+02 0.  0.
         11    1    3    3    0    0 -0.16029889086E+02 -0.30265586957E+02  0.37471871781E+02  0.50765187609E+02  0.51100000000E-03 0.  1.
         22    1    1    0    0    0 -0.20052418608E+02  0.12955281264E+02 -0.16794269748E+02  0.29188804378E+02  0.00000000000E+00 0.  1.
</event>
<event>
 5    1  0.1111613E-009  0.9118800E+02  0.7818608E-02  0.1130116E+00
         25   -1    0    0    0    0  0.00000000000E+00  0.00000000000E+00  0.99999998245E-14  0.12500000000E+03  0.12500000000E+03 0.  0.
        -11    1    3    3    0    0  0.47630847964E+02 -0.27955620128E+02  0.32957239141E+01  0.55326993149E+02  0.51100000000E-03 0.  1.
         23    2    1    0    0    0  0.92914662652E+01 -0.16021471923E+02  0.19022240150E+02  0.98450715109E+02  0.94803369018E+02 0.  0.
         11    1    3    3    0    0 -0.38339381699E+02  0.11934148206E+02  0.15726516236E+02  0.43123721959E+02  0.51100000000E-03 0. -1.
         22    1    1    0    0    0 -0.92914662652E+01  0.16021471923E+02 -0.19022240150E+02  0.26549284891E+02  0.00000000000E+00 0.  1.
</event>
<event>
 5    1  0.1111613E-009  0.9118800E+02  0.7818608E-02  0.1130116E+00
         25   -1    0    0    0    0  0.00000000000E+00  0.00000000000E+00  0.99999998245E-14  0.12500000000E+03  0.12500000000E+03 0.  0.
        -11    1    3    3    0    0 -0.28954302898E+00 -0.37636778876E+02  0.24588752272E+02  0.44957954778E+02  0.51100000000E-03 0. -1.
         23    2    1    0    0    0 -0.16157213454E+02  0.10562734124E+02  0.21948049605E+02  0.95770840240E+02  0.91201480580E+02 0.  0.
         11    1    3    3    0    0 -0.15867670425E+02  0.48199513000E+02 -0.26407026662E+01  0.50812885462E+02  0.51100000000E-03 0.  1.
         22    1    1    0    0    0  0.16157213454E+02 -0.10562734124E+02 -0.21948049605E+02  0.29229159760E+02  0.00000000000E+00 0.  1.
</event>
<event>
 5    1  0.1111613E-009  0.9118800E+02  0.7818608E-02  0.1130116E+00
         25   -1    0    0    0    0  0.00000000000E+00  0.00000000000E+00  0.99999998245E-14  0.12500000000E+03  0.12500000000E+03 0.  0.
        -11    1    3    3    0    0 -0.15266699840E+02 -0.36830927840E+02  0.25331623887E+02  0.47236432323E+02  0.51100000000E-03 0. -1.
         23    2    1    0    0    0  0.50864022577E+01  0.85665502607E+01  0.26173229366E+02  0.96994728947E+02  0.92863783235E+02 0.  0.
         11    1    3    3    0    0  0.20353102098E+02  0.45397478101E+02  0.84160547973E+00  0.49758296624E+02  0.51100000000E-03 0.  1.
         22    1    1    0    0    0 -0.50864022577E+01 -0.85665502607E+01 -0.26173229366E+02  0.28005271053E+02  0.00000000000E+00 0.  1.
</event>
<event>
 5    1  0.1111613E-009  0.9118800E+02  0.7818608E-02  0.1130116E+00
         25   -1    0    0    0    0  0.00000000000E+00  0.00000000000E+00  0.99999998245E-14  0.12500000000E+03  0.12500000000E+03 0.  0.
        -11    1    3    3    0    0  0.35087998683E+02 -0.17631850985E+01 -0.13843078734E+02  0.37761187777E+02  0.51100000000E-03 0. -1.
         23    2    1    0    0    0 -0.45334838370E+01  0.20682734420E+02  0.21059842640E+02  0.95136226782E+02  0.90327496896E+02 0.  0.
         11    1    3    3    0    0 -0.39621482520E+02  0.22445919519E+02  0.34902921374E+02  0.57375039005E+02  0.51100000000E-03 0.  1.
         22    1    1    0    0    0  0.45334838370E+01 -0.20682734420E+02 -0.21059842640E+02  0.29863773218E+02  0.00000000000E+00 0.  1.
</event>
<event>
 5    1  0.1111613E-009  0.9118800E+02  0.7818608E-02  0.1130116E+00
         25   -1    0    0    0    0  0.00000000000E+00  0.00000000000E+00  0.99999998245E-14  0.12500000000E+03  0.12500000000E+03 0.  0.
        -11    1    3    3    0    0  0.13868521145E+02  0.35681378530E+02 -0.85315982128E+01  0.39220974247E+02  0.51100000000E-03 0. -1.
         23    2    1    0    0    0 -0.29081822436E+02  0.79482078173E+00 -0.89686438215E+01  0.94556269804E+02  0.89521324001E+02 0.  0.
         11    1    3    3    0    0 -0.42950343580E+02 -0.34886557749E+02 -0.43704560870E+00  0.55335295557E+02  0.51100000000E-03 0.  1.
         22    1    1    0    0    0  0.29081822436E+02 -0.79482078173E+00  0.89686438215E+01  0.30443730196E+02  0.00000000000E+00 0. -1.
</event>
<event>
 5    1  0.1111613E-009  0.9118800E+02  0.7818608E-02  0.1130116E+00
         25   -1    0    0    0    0  0.00000000000E+00  0.00000000000E+00  0.99999998245E-14  0.12500000000E+03  0.12500000000E+03 0.  0.
        -11    1    3    3    0    0 -0.49475299161E+01  0.41855027153E+02  0.14325495368E+02  0.44514505142E+02  0.51100000000E-03 0.  1.
         23    2    1    0    0    0  0.30787043914E+01 -0.15060468387E+01  0.32579345828E+02  0.92240873448E+02  0.86227712263E+02 0.  0.
         11    1    3    3    0    0  0.80262343076E+01 -0.43361073991E+02  0.18253850461E+02  0.47726368307E+02  0.51100000000E-03 0. -1.
         22    1    1    0    0    0 -0.30787043914E+01  0.15060468387E+01 -0.32579345828E+02  0.32759126552E+02  0.00000000000E+00 0.  1.
</event>
<event>
 5    1  0.1111613E-009  0.9118800E+02  0.7818608E-02  0.1130116E+00
         25   -1    0    0    0    0  0.00000000000E+00  0.00000000000E+00  0.99999998245E-14  0.12500000000E+03  0.12500000000E+03 0.  0.
        -11    1    3    3    0    0  0.63070993712E+01  0.25340999099E+02  0.50707598223E+02  0.57036885045E+02  0.51100000000E-03 0. -1.
         23    2    1    0    0    0  0.12538063515E+01 -0.65178232834E+01  0.27332909922E+02  0.96872753147E+02  0.92699451383E+02 0.  0.
         11    1    3    3    0    0 -0.50532930196E+01 -0.31858822383E+02 -0.23374688301E+02  0.39835868101E+02  0.51100000000E-03 0.  1.
         22    1    1    0    0    0 -0.12538063515E+01  0.65178232834E+01 -0.27332909922E+02  0.28127246853E+02  0.00000000000E+00 0. -1.
</event>
<event>
 5    1  0.1111613E-009  0.9118800E+02  0.7818608E-02  0.1130116E+00
         25   -1    0    0    0    0  0.00000000000E+00  0.00000000000E+00  0.99999998245E-14  0.12500000000E+03  0.12500000000E+03 0.  0.
        -11    1    3    3    0    0  0.44611893099E+02 -0.32985254630E+02 -0.10265424636E+02  0.56423638416E+02  0.51100000000E-03 0. -1.
         23    2    1    0    0    0  0.68024967034E+01 -0.18666495975E+02 -0.18691313566E+02  0.97722220834E+02  0.93837919886E+02 0.  0.
         11    1    3    3    0    0 -0.37809396396E+02  0.14318758655E+02 -0.84258889304E+01  0.41298582418E+02  0.51100000000E-03 0.  1.
         22    1    1    0    0    0 -0.68024967034E+01  0.18666495975E+02  0.18691313566E+02  0.27277779166E+02  0.00000000000E+00 0. -1.
</event>
<event>
 5    1  0.1111613E-009  0.9118800E+02  0.7818608E-02  0.1130116E+00
         25   -1    0    0    0    0  0.00000000000E+00  0.00000000000E+00  0.99999998245E-14  0.12500000000E+03  0.12500000000E+03 0.  0.
        -11    1    3    3    0    0 -0.38559615015E+02  0.27740313264E+02 -0.37396479126E+02  0.60455483964E+02  0.51100000000E-03 0. -1.
         23    2    1    0    0    0 -0.20971873231E+02  0.28403302329E+01 -0.21481161093E+02  0.94844946948E+02  0.89923504920E+02 0.  0.
         11    1    3    3    0    0  0.17587741784E+02 -0.24899983031E+02  0.15915318032E+02  0.34389462984E+02  0.51100000000E-03 0.  1.
         22    1    1    0    0    0  0.20971873231E+02 -0.28403302329E+01  0.21481161093E+02  0.30155053052E+02  0.00000000000E+00 0. -1.
</event>
<event>
 5    1  0.1111613E-009  0.9118800E+02  0.7818608E-02  0.1130116E+00
         25   -1    0    0    0    0  0.00000000000E+00  0.00000000000E+00  0.99999998245E-14  0.12500000000E+03  0.12500000000E+03 0.  0.
        -11    1    3    3    0    0 -0.31724452602E+02 -0.10627349112E+02 -0.43443025792E+02  0.54833182766E+02  0.51100000000E-03 0. -1.
         23    2    1    0    0    0 -0.52038646184E+00 -0.21626059588E+02 -0.21275027128E+02  0.94658872225E+02  0.89664474884E+02 0.  0.
         11    1    3    3    0    0  0.31204066141E+02 -0.10998710476E+02  0.22167998664E+02  0.39825689459E+02  0.51100000000E-03 0.  1.
         22    1    1    0    0    0  0.52038646184E+00  0.21626059588E+02  0.21275027128E+02  0.30341127775E+02  0.00000000000E+00 0. -1.
</event>
<event>
 5    1  0.1111613E-009  0.9118800E+02  0.7818608E-02  0.1130116E+00
         25   -1    0    0    0    0  0.00000000000E+00  0.00000000000E+00  0.99999998245E-14  0.12500000000E+03  0.12500000000E+03 0.  0.
        -11    1    3    3    0    0 -0.34180690679E+02 -0.32729429289E+01  0.45485221833E+02  0.56990676221E+02  0.51100000000E-03 0.  1.
         23    2    1    0    0    0  0.11940914872E+01  0.10275743413E+00  0.28672017981E+02  0.96302943903E+02  0.91927884647E+02 0.  0.
         11    1    3    3    0    0  0.35374782166E+02  0.33757003631E+01 -0.16813203852E+02  0.39312267682E+02  0.51100000000E-03 0. -1.
         22    1    1    0    0    0 -0.11940914872E+01 -0.10275743413E+00 -0.28672017981E+02  0.28697056097E+02  0.00000000000E+00 0.  1.
</event>
<event>
 5    1  0.1111613E-009  0.9118800E+02  0.7818608E-02  0.1130116E+00
         25   -1    0    0    0    0  0.00000000000E+00  0.00000000000E+00  0.99999998245E-14  0.12500000000E+03  0.12500000000E+03 0.  0.
        -11    1    3    3    0    0  0.15169318910E+01  0.26960003718E+02  0.50430965013E+02  0.57205114415E+02  0.51100000000E-03 0. -1.
         23    2    1    0    0    0 -0.96041382704E+01 -0.16378980875E+01  0.28389259950E+02  0.94985465811E+02  0.90118624339E+02 0.  0.
         11    1    3    3    0    0 -0.11121070161E+02 -0.28597901806E+02 -0.22041705063E+02  0.37780351396E+02  0.51100000000E-03 0.  1.
         22    1    1    0    0    0  0.96041382704E+01  0.16378980875E+01 -0.28389259950E+02  0.30014534189E+02  0.00000000000E+00 0. -1.
</event>
<event>
 5    1  0.1111613E-009  0.9118800E+02  0.7818608E-02  0.1130116E+00
         25   -1    0    0    0    0  0.00000000000E+00  0.00000000000E+00  0.99999998245E-14  0.12500000000E+03  0.12500000000E+03 0.  0.
        -11    1    3    3    0    0  0.28991023940E+02 -0.24603047374E+02  0.12257574843E+02  0.39950438677E+02  0.51100000000E-03 0.  1.
         23    2    1    0    0    0 -0.96902045367E+01 -0.11710316645E+02 -0.25365044227E+02  0.95429456405E+02  0.90732376256E+02 0.  0.
         11    1    3    3    0    0 -0.38681228477E+02  0.12892730728E+02 -0.37622619070E+02  0.55479017728E+02  0.51100000000E-03 0. -1.
         22    1    1    0    0    0  0.96902045367E+01  0.11710316645E+02  0.25365044227E+02  0.29570543595E+02  0.00000000000E+00 0. -1.
</event>
<event>
 5    1  0.1111613E-009  0.9118800E+02  0.7818608E-02  0.1130116E+00
         25   -1    0    0    0    0  0.00000000000E+00  0.00000000000E+00  0.99999998245E-14  0.12500000000E+03  0.12500000000E+03 0.  0.
        -11    1    3    3    0    0 -0.29434302137E+02  0.37364080534E+02 -0.30030704449E+02  0.56252074330E+02  0.51100000000E-03 0.  1.
         23    2    1    0    0    0 -0.84069825482E+00  0.11538023925E+02 -0.27848671418E+02  0.94844050846E+02  0.89922259266E+02 0.  0.
         11    1    3    3    0    0  0.28593603883E+02 -0.25826056609E+02  0.21820330314E+01  0.38591976516E+02  0.51100000000E-03 0. -1.
         22    1    1    0    0    0  0.84069825482E+00 -0.11538023925E+02  0.27848671418E+02  0.30155949154E+02  0.00000000000E+00 0.  1.
</event>
<event>
 5    1  0.1111613E-009  0.9118800E+02  0.7818608E-02  0.1130116E+00
         25   -1    0    0    0    0  0.00000000000E+00  0.00000000000E+00  0.99999998245E-14  0.12500000000E+03  0.12500000000E+03 0.  0.
        -11    1    3    3    0    0  0.41048148043E+02  0.42324024545E+02 -0.63452568710E+01  0.59300386141E+02  0.51100000000E-03 0. -1.
         23    2    1    0    0    0  0.16325461530E+02  0.16127917325E+02 -0.16512863488E+02  0.96728016129E+02  0.92504075761E+02 0.  0.
         11    1    3    3    0    0 -0.24722686513E+02 -0.26196107220E+02 -0.10167606617E+02  0.37427629988E+02  0.51100000000E-03 0.  1.
         22    1    1    0    0    0 -0.16325461530E+02 -0.16127917325E+02  0.16512863488E+02  0.28271983871E+02  0.00000000000E+00 0. -1.
</event>
<event>
 5    1  0.1111613E-009  0.9118800E+02  0.7818608E-02  0.1130116E+00
         25   -1    0    0    0    0  0.00000000000E+00  0.00000000000E+00  0.99999998245E-14  0.12500000000E+03  0.12500000000E+03 0.  0.
        -11    1    3    3    0    0 -0.34383557575E+02  0.22862070712E+02  0.22222506539E+02  0.46890757148E+02  0.51100000000E-03 0.  1.
         23    2    1    0    0    0 -0.20863486242E+02 -0.20304373032E+02  0.41879808598E+01  0.95587556952E+02  0.90949927092E+02 0.  0.
         11    1    3    3    0    0  0.13520071334E+02 -0.43166443744E+02 -0.18034525679E+02  0.48696799804E+02  0.51100000000E-03 0. -1.
         22    1    1    0    0    0  0.20863486242E+02  0.20304373032E+02 -0.41879808598E+01  0.29412443048E+02  0.00000000000E+00 0.  1.
</event>
<event>
 5    1  0.1111613E-009  0.9118800E+02  0.7818608E-02  0.1130116E+00
         25   -1    0    0    0    0  0.00000000000E+00  0.00000000000E+00  0.99999998245E-14  0.12500000000E+03  0.12500000000E+03 0.  0.
        -11    1    3    3    0    0  0.84161342319E+01  0.45205799103E+02  0.22403263381E+02  0.51149797637E+02  0.51100000000E-03 0. -1.
         23    2    1    0    0    0  0.25939886910E+02  0.11806514176E+02 -0.25678219546E+01  0.96384178861E+02  0.92038278533E+02 0.  0.
         11    1    3    3    0    0  0.17523752678E+02 -0.33399284927E+02 -0.24971085336E+02  0.45234381224E+02  0.51100000000E-03 0.  1.
         22    1    1    0    0    0 -0.25939886910E+02 -0.11806514176E+02  0.25678219546E+01  0.28615821139E+02  0.00000000000E+00 0. -1.
</event>
<event>
 5    1  0.1111613E-009  0.9118800E+02  0.7818608E-02  0.1130116E+00
         25   -1    0    0    0    0  0.00000000000E+00  0.00000000000E+00  0.99999998245E-14  0.12500000000E+03  0.12500000000E+03 0.  0.
        -11    1    3    3    0    0 -0.19942290067E+02  0.28014323639E+02 -0.44225447936E+02  0.56021312975E+02  0.51100000000E-03 0.  1.
         23    2    1    0    0    0 -0.68228404310E+01 -0.51138616364E+01 -0.29005520105E+02  0.94767187876E+02  0.89815349295E+02 0.  0.
         11    1    3    3    0    0  0.13119449636E+02 -0.33128185276E+02  0.15219927831E+02  0.38745874901E+02  0.51100000000E-03 0. -1.
         22    1    1    0    0    0  0.68228404310E+01  0.51138616364E+01  0.29005520105E+02  0.30232812124E+02  0.00000000000E+00 0.  1.
</event>
<event>
 5    1  0.1111613E-009  0.9118800E+02  0.7818608E-02  0.1130116E+00
         25   -1    0    0    0    0  0.00000000000E+00  0.00000000000E+00  0.99999998245E-14  0.12500000000E+03  0.12500000000E+03 0.  0.
        -11    1    3    3    0    0 -0.34991055098E+02 -0.46379191219E+01  0.28868407361E+02  0.45599004095E+02  0.51100000000E-03 0. -1.
         23    2    1    0    0    0 -0.18806733577E+02  0.20128720213E+02 -0.11078062744E+02  0.95308552083E+02  0.90565655856E+02 0.  0.
         11    1    3    3    0    0  0.16184321521E+02  0.24766639335E+02 -0.39946470105E+02  0.49709547988E+02  0.51100000000E-03 0.  1.
         22    1    1    0    0    0  0.18806733577E+02 -0.20128720213E+02  0.11078062744E+02  0.29691447917E+02  0.00000000000E+00 0. -1.
</event>
<event>
 5    1  0.1111613E-009  0.9118800E+02  0.7818608E-02  0.1130116E+00
         25   -1    0    0    0    0  0.00000000000E+00  0.00000000000E+00  0.99999998245E-14  0.12500000000E+03  0.12500000000E+03 0.  0.
        -11    1    3    3    0    0  0.26544452155E+01  0.27387445742E+02  0.23149425777E+02  0.35958506333E+02  0.51100000000E-03 0.  1.
         23    2    1    0    0    0 -0.11709621563E+02 -0.65186965111E+01 -0.25035621474E+02  0.96602975791E+02  0.92334955178E+02 0.  0.
         11    1    3    3    0    0 -0.14364066778E+02 -0.33906142253E+02 -0.48185047251E+02  0.60644469457E+02  0.51100000000E-03 0. -1.
         22    1    1    0    0    0  0.11709621563E+02  0.65186965111E+01  0.25035621474E+02  0.28397024209E+02  0.00000000000E+00 0. -1.
</event>
<event>
 5    1  0.1111613E-009  0.9118800E+02  0.7818608E-02  0.1130116E+00
         25   -1    0    0    0    0  0.00000000000E+00  0.00000000000E+00  0.99999998245E-14  0.12500000000E+03  0.12500000000E+03 0.  0.
        -11    1    3    3    0    0 -0.31328568799E+02  0.36038704404E+02 -0.28688950399E-02  0.47752145990E+02  0.51100000000E-03 0.  1.
         23    2    1    0    0    0 -0.32134566589E+02 -0.80191656558E+01 -0.15397716088E+01  0.91844181743E+02  0.85650717660E+02 0.  0.
         11    1    3    3    0    0 -0.80599779025E+00 -0.44057870060E+02 -0.15369027137E+01  0.44092035753E+02  0.51100000000E-03 0. -1.
         22    1    1    0    0    0  0.32134566589E+02  0.80191656558E+01  0.15397716088E+01  0.33155818257E+02  0.00000000000E+00 0.  1.
</event>
<event>
 5    1  0.1111613E-009  0.9118800E+02  0.7818608E-02  0.1130116E+00
         25   -1    0    0    0    0  0.00000000000E+00  0.00000000000E+00  0.99999998245E-14  0.12500000000E+03  0.12500000000E+03 0.  0.
        -11    1    3    3    0    0 -0.36715835664E+02  0.72352743998E+01  0.15643350716E+02  0.40560032126E+02  0.51100000000E-03 0. -1.
         23    2    1    0    0    0  0.13421368680E+02  0.25624676173E+02  0.49976615010E+00  0.96068927907E+02  0.91609126056E+02 0.  0.
         11    1    3    3    0    0  0.50137204345E+02  0.18389401773E+02 -0.15143584566E+02  0.55508895781E+02  0.51100000000E-03 0.  1.
         22    1    1    0    0    0 -0.13421368680E+02 -0.25624676173E+02 -0.49976615010E+00  0.28931072093E+02  0.00000000000E+00 0.  1.
</event>
<event>
 5    1  0.1111613E-009  0.9118800E+02  0.7818608E-02  0.1130116E+00
         25   -1    0    0    0    0  0.00000000000E+00  0.00000000000E+00  0.99999998245E-14  0.12500000000E+03  0.12500000000E+03 0.  0.
        -11    1    3    3    0    0  0.38015402222E+02 -0.37463055704E+02  0.13647251121E+02  0.55089915704E+02  0.51100000000E-03 0.  1.
         23    2    1    0    0    0  0.11499087425E+01 -0.28825246977E+02 -0.20508463710E+01  0.96079019307E+02  0.91622894665E+02 0.  0.
         11    1    3    3    0    0 -0.36865493479E+02  0.86378087273E+01 -0.15698097492E+02  0.40989103604E+02  0.51100000000E-03 0. -1.
         22    1    1    0    0    0 -0.11499087425E+01  0.28825246977E+02  0.20508463710E+01  0.28920980693E+02  0.00000000000E+00 0.  1.
</event>
<event>
 5    1  0.1111613E-009  0.9118800E+02  0.7818608E-02  0.1130116E+00
         25   -1    0    0    0    0  0.00000000000E+00  0.00000000000E+00  0.99999998245E-14  0.12500000000E+03  0.12500000000E+03 0.  0.
        -11    1    3    3    0    0  0.12393035341E+02 -0.52114134434E+01  0.57210424399E+02  0.58768859230E+02  0.51100000000E-03 0. -1.
         23    2    1    0    0    0  0.15430984757E+02 -0.13452022086E+02  0.22466539449E+02  0.94605632370E+02  0.89590223197E+02 0.  0.
         11    1    3    3    0    0  0.30379494157E+01 -0.82406086431E+01 -0.34743884949E+02  0.35836773140E+02  0.51100000000E-03 0.  1.
         22    1    1    0    0    0 -0.15430984757E+02  0.13452022086E+02 -0.22466539449E+02  0.30394367630E+02  0.00000000000E+00 0. -1.
</event>
<event>
 5    1  0.1111613E-009  0.9118800E+02  0.7818608E-02  0.1130116E+00
         25   -1    0    0    0    0  0.00000000000E+00  0.00000000000E+00  0.99999998245E-14  0.12500000000E+03  0.12500000000E+03 0.  0.
        -11    1    3    3    0    0 -0.11051620906E+02  0.48505010701E+02  0.83025888412E+01  0.50436171242E+02  0.51100000000E-03 0. -1.
         23    2    1    0    0    0  0.16480862628E+02  0.21816376288E+02 -0.13458376139E+02  0.94525404094E+02  0.89478215357E+02 0.  0.
         11    1    3    3    0    0  0.27532483534E+02 -0.26688634413E+02 -0.21760964980E+02  0.44089232852E+02  0.51100000000E-03 0.  1.
         22    1    1    0    0    0 -0.16480862628E+02 -0.21816376288E+02  0.13458376139E+02  0.30474595906E+02  0.00000000000E+00 0.  1.
</event>
<event>
 5    1  0.1111613E-009  0.9118800E+02  0.7818608E-02  0.1130116E+00
         25   -1    0    0    0    0  0.00000000000E+00  0.00000000000E+00  0.99999998245E-14  0.12500000000E+03  0.12500000000E+03 0.  0.
        -11    1    3    3    0    0  0.36470259393E+02  0.11914112108E+02  0.32728208131E+02  0.50429767948E+02  0.51100000000E-03 0.  1.
         23    2    1    0    0    0 -0.11577401604E+02  0.10082693791E+02  0.19273419274E+02  0.10035935000E+03  0.97287396407E+02 0.  0.
         11    1    3    3    0    0 -0.48047660997E+02 -0.18314183174E+01 -0.13454788857E+02  0.49929582051E+02  0.51100000000E-03 0. -1.
         22    1    1    0    0    0  0.11577401604E+02 -0.10082693791E+02 -0.19273419274E+02  0.24640650001E+02  0.00000000000E+00 0. -1.
</event>
<event>
 5    1  0.1111613E-009  0.9118800E+02  0.7818608E-02  0.1130116E+00
         25   -1    0    0    0    0  0.00000000000E+00  0.00000000000E+00  0.99999998245E-14  0.12500000000E+03  0.12500000000E+03 0.  0.
        -11    1    3    3    0    0  0.31366732537E+02 -0.80569827580E+01 -0.90790840320E+01  0.33633564312E+02  0.51100000000E-03 0.  1.
         23    2    1    0    0    0 -0.24840476266E+02 -0.21718488049E+02 -0.50783670778E+01  0.91615395817E+02  0.85316170533E+02 0.  0.
         11    1    3    3    0    0 -0.56207208803E+02 -0.13661505291E+02  0.40007169542E+01  0.57981831505E+02  0.51100000000E-03 0. -1.
         22    1    1    0    0    0  0.24840476266E+02  0.21718488049E+02  0.50783670778E+01  0.33384604183E+02  0.00000000000E+00 0. -1.
</event>
<event>
 5    1  0.1111613E-009  0.9118800E+02  0.7818608E-02  0.1130116E+00
         25   -1    0    0    0    0  0.00000000000E+00  0.00000000000E+00  0.99999998245E-14  0.12500000000E+03  0.12500000000E+03 0.  0.
        -11    1    3    3    0    0  0.11443300649E+00 -0.47123512577E+02 -0.43888792155E+01  0.47327590193E+02  0.51100000000E-03 0. -1.
         23    2    1    0    0    0 -0.17495243720E+02 -0.91286905853E+01  0.20906073129E+02  0.96251427195E+02  0.91857807500E+02 0.  0.
         11    1    3    3    0    0 -0.17609676727E+02  0.37994821991E+02  0.25294952345E+02  0.48923837002E+02  0.51100000000E-03 0.  1.
         22    1    1    0    0    0  0.17495243720E+02  0.91286905853E+01 -0.20906073129E+02  0.28748572805E+02  0.00000000000E+00 0. -1.
</event>
<event>
 5    1  0.1111613E-009  0.9118800E+02  0.7818608E-02  0.1130116E+00
         25   -1    0    0    0    0  0.00000000000E+00  0.00000000000E+00  0.99999998245E-14  0.12500000000E+03  0.12500000000E+03 0.  0.
        -11    1    3    3    0    0 -0.32278815453E+02  0.48833051199E+01 -0.43156839428E+01  0.32930133982E+02  0.51100000000E-03 0.  1.
         23    2    1    0    0    0  0.29668823537E+02 -0.36228588421E+00  0.87749182743E+00  0.95315991965E+02  0.90575923905E+02 0.  0.
         11    1    3    3    0    0  0.61947638990E+02 -0.52455910042E+01  0.51931757702E+01  0.62385857983E+02  0.51100000000E-03 0. -1.
         22    1    1    0    0    0 -0.29668823537E+02  0.36228588421E+00 -0.87749182743E+00  0.29684008035E+02  0.00000000000E+00 0. -1.
</event>
<event>
 5    1  0.1111613E-009  0.9118800E+02  0.7818608E-02  0.1130116E+00
         25   -1    0    0    0    0  0.00000000000E+00  0.00000000000E+00  0.99999998245E-14  0.12500000000E+03  0.12500000000E+03 0.  0.
        -11    1    3    3    0    0 -0.40743696840E+02  0.79828366097E+01  0.36031654075E+02  0.54973217190E+02  0.51100000000E-03 0. -1.
         23    2    1    0    0    0 -0.22029501361E+02 -0.15454090198E+02  0.59728165158E+01  0.97435487104E+02  0.93455185924E+02 0.  0.
         11    1    3    3    0    0  0.18714195479E+02 -0.23436926808E+02 -0.30058837559E+02  0.42462269915E+02  0.51100000000E-03 0.  1.
         22    1    1    0    0    0  0.22029501361E+02  0.15454090198E+02 -0.59728165158E+01  0.27564512896E+02  0.00000000000E+00 0. -1.
</event>
<event>
 5    1  0.1111613E-009  0.9118800E+02  0.7818608E-02  0.1130116E+00
         25   -1    0    0    0    0  0.00000000000E+00  0.00000000000E+00  0.99999998245E-14  0.12500000000E+03  0.12500000000E+03 0.  0.
        -11    1    3    3    0    0  0.28740910827E+02 -0.21485753028E+02 -0.19258802836E+02  0.40725655616E+02  0.51100000000E-03 0.  1.
         23    2    1    0    0    0 -0.23865214639E+02 -0.12625799439E+02 -0.14677708646E+02  0.94268999165E+02  0.89119300890E+02 0.  0.
         11    1    3    3    0    0 -0.52606125466E+02  0.88599535889E+01  0.45810941904E+01  0.53543343549E+02  0.51100000000E-03 0. -1.
         22    1    1    0    0    0  0.23865214639E+02  0.12625799439E+02  0.14677708646E+02  0.30731000835E+02  0.00000000000E+00 0. -1.
</event>
<event>
 5    1  0.1111613E-009  0.9118800E+02  0.7818608E-02  0.1130116E+00
         25   -1    0    0    0    0  0.00000000000E+00  0.00000000000E+00  0.99999998245E-14  0.12500000000E+03  0.12500000000E+03 0.  0.
        -11    1    3    3    0    0  0.14277513505E+02 -0.42157983578E+02  0.37633873242E+02  0.58287660673E+02  0.51100000000E-03 0. -1.
         23    2    1    0    0    0 -0.30044938329E+01 -0.26999492178E+02  0.63635584420E+01  0.97098486831E+02  0.93003342455E+02 0.  0.
         11    1    3    3    0    0 -0.17282007338E+02  0.15158491400E+02 -0.31270314800E+02  0.38810826159E+02  0.51100000000E-03 0.  1.
         22    1    1    0    0    0  0.30044938329E+01  0.26999492178E+02 -0.63635584420E+01  0.27901513169E+02  0.00000000000E+00 0. -1.
</event>
<event>
 5    1  0.1111613E-009  0.9118800E+02  0.7818608E-02  0.1130116E+00
         25   -1    0    0    0    0  0.00000000000E+00  0.00000000000E+00  0.99999998245E-14  0.12500000000E+03  0.12500000000E+03 0.  0.
        -11    1    3    3    0    0  0.16589043432E+02  0.41996943049E+02 -0.32219250873E+01  0.45269420021E+02  0.51100000000E-03 0.  1.
         23    2    1    0    0    0  0.21817365387E+02 -0.44216824713E+01 -0.20169324578E+02  0.94960852838E+02  0.90084478183E+02 0.  0.
         11    1    3    3    0    0  0.52283219543E+01 -0.46418625521E+02 -0.16947399490E+02  0.49691432817E+02  0.51100000000E-03 0. -1.
         22    1    1    0    0    0 -0.21817365387E+02  0.44216824713E+01  0.20169324578E+02  0.30039147162E+02  0.00000000000E+00 0. -1.
</event>
<event>
 5    1  0.1111613E-009  0.9118800E+02  0.7818608E-02  0.1130116E+00
         25   -1    0    0    0    0  0.00000000000E+00  0.00000000000E+00  0.99999998245E-14  0.12500000000E+03  0.12500000000E+03 0.  0.
        -11    1    3    3    0    0  0.18079183145E+01 -0.22039516747E+02 -0.48943120185E+02  0.53706963057E+02  0.51100000000E-03 0. -1.
         23    2    1    0    0    0 -0.11217521853E+02  0.10237004734E+02 -0.24268181036E+02  0.96371802829E+02  0.92021468730E+02 0.  0.
         11    1    3    3    0    0 -0.13025440168E+02  0.32276521481E+02  0.24674939150E+02  0.42664839772E+02  0.51100000000E-03 0.  1.
         22    1    1    0    0    0  0.11217521853E+02 -0.10237004734E+02  0.24268181036E+02  0.28628197171E+02  0.00000000000E+00 0. -1.
</event>
<event>
 5    1  0.1111613E-009  0.9118800E+02  0.7818608E-02  0.1130116E+00
         25   -1    0    0    0    0  0.00000000000E+00  0.00000000000E+00  0.99999998245E-14  0.12500000000E+03  0.12500000000E+03 0.  0.
        -11    1    3    3    0    0 -0.47406804997E+02 -0.43260543206E+01 -0.36253739709E+02  0.59836891205E+02  0.51100000000E-03 0.  1.
         23    2    1    0    0    0 -0.21525975425E+02  0.10783462763E+02 -0.14166060598E+02  0.97065649103E+02  0.92959196833E+02 0.  0.
         11    1    3    3    0    0  0.25880829572E+02  0.15109517084E+02  0.22087679111E+02  0.37228757898E+02  0.51100000000E-03 0. -1.
         22    1    1    0    0    0  0.21525975425E+02 -0.10783462763E+02  0.14166060598E+02  0.27934350897E+02  0.00000000000E+00 0.  1.
</event>
<event>
 5    1  0.1111613E-009  0.9118800E+02  0.7818608E-02  0.1130116E+00
         25   -1    0    0    0    0  0.00000000000E+00  0.00000000000E+00  0.99999998245E-14  0.12500000000E+03  0.12500000000E+03 0.  0.
        -11    1    3    3    0    0 -0.23096140203E+02 -0.16097406184E+02  0.18255088058E+02  0.33553038885E+02  0.51100000000E-03 0. -1.
         23    2    1    0    0    0  0.19865258698E+02  0.13338178310E+02 -0.16295806145E+02  0.96050236587E+02  0.91583618331E+02 0.  0.
         11    1    3    3    0    0  0.42961398902E+02  0.29435584494E+02 -0.34550894203E+02  0.62497197702E+02  0.51100000000E-03 0.  1.
         22    1    1    0    0    0 -0.19865258698E+02 -0.13338178310E+02  0.16295806145E+02  0.28949763413E+02  0.00000000000E+00 0.  1.
</event>
<event>
 5    1  0.1111613E-009  0.9118800E+02  0.7818608E-02  0.1130116E+00
         25   -1    0    0    0    0  0.00000000000E+00  0.00000000000E+00  0.99999998245E-14  0.12500000000E+03  0.12500000000E+03 0.  0.
        -11    1    3    3    0    0  0.52078379101E+00 -0.36560535377E+02 -0.47209785556E+02  0.59713548005E+02  0.51100000000E-03 0. -1.
         23    2    1    0    0    0  0.80394542650E+01 -0.70142034214E+01 -0.26119897770E+02  0.96785093762E+02  0.92581172170E+02 0.  0.
         11    1    3    3    0    0  0.75186704740E+01  0.29546331956E+02  0.21089887786E+02  0.37071545757E+02  0.51100000000E-03 0.  1.
         22    1    1    0    0    0 -0.80394542650E+01  0.70142034214E+01  0.26119897770E+02  0.28214906238E+02  0.00000000000E+00 0. -1.
</event>
<event>
 5    1  0.1111613E-009  0.9118800E+02  0.7818608E-02  0.1130116E+00
         25   -1    0    0    0    0  0.00000000000E+00  0.00000000000E+00  0.99999998245E-14  0.12500000000E+03  0.12500000000E+03 0.  0.
        -11    1    3    3    0    0 -0.35253518495E+02 -0.74375689272E+01  0.76558151202E+01  0.36833944986E+02  0.51100000000E-03 0. -1.
         23    2    1    0    0    0  0.73573609408E+01  0.27851574388E+02  0.14789521571E+02  0.92618355444E+02  0.86773203588E+02 0.  0.
         11    1    3    3    0    0  0.42610879435E+02  0.35289143315E+02  0.71337064508E+01  0.55784410458E+02  0.51100000000E-03 0.  1.
         22    1    1    0    0    0 -0.73573609408E+01 -0.27851574388E+02 -0.14789521571E+02  0.32381644556E+02  0.00000000000E+00 0.  1.
</event>
<event>
 5    1  0.1111613E-009  0.9118800E+02  0.7818608E-02  0.1130116E+00
         25   -1    0    0    0    0  0.00000000000E+00  0.00000000000E+00  0.99999998245E-14  0.12500000000E+03  0.12500000000E+03 0.  0.
        -11    1    3    3    0    0  0.90123539959E-01 -0.10574367718E+02  0.32749990786E+02  0.34414928035E+02  0.51100000000E-03 0. -1.
         23    2    1    0    0    0  0.52630357941E+01 -0.13852555403E+02 -0.26851839863E+02  0.94330566667E+02  0.89205614547E+02 0.  0.
         11    1    3    3    0    0  0.51729122541E+01 -0.32781876850E+01 -0.59601830649E+02  0.59915638632E+02  0.51100000000E-03 0.  1.
         22    1    1    0    0    0 -0.52630357941E+01  0.13852555403E+02  0.26851839863E+02  0.30669433333E+02  0.00000000000E+00 0.  1.
</event>
<event>
 5    1  0.1111613E-009  0.9118800E+02  0.7818608E-02  0.1130116E+00
         25   -1    0    0    0    0  0.00000000000E+00  0.00000000000E+00  0.99999998245E-14  0.12500000000E+03  0.12500000000E+03 0.  0.
        -11    1    3    3    0    0 -0.40453364498E+02 -0.16699299600E+02  0.33525730378E+02  0.55129990966E+02  0.51100000000E-03 0.  1.
         23    2    1    0    0    0 -0.41275062513E+01 -0.23706426532E+02  0.16276057457E+02  0.95949337131E+02  0.91445799700E+02 0.  0.
         11    1    3    3    0    0  0.36325858246E+02 -0.70071269326E+01 -0.17249672922E+02  0.40819346165E+02  0.51100000000E-03 0. -1.
         22    1    1    0    0    0  0.41275062513E+01  0.23706426532E+02 -0.16276057457E+02  0.29050662869E+02  0.00000000000E+00 0. -1.
</event>
<event>
 5    1  0.1111613E-009  0.9118800E+02  0.7818608E-02  0.1130116E+00
         25   -1    0    0    0    0  0.00000000000E+00  0.00000000000E+00  0.99999998245E-14  0.12500000000E+03  0.12500000000E+03 0.  0.
        -11    1    3    3    0    0  0.38204611969E+02  0.43354973278E+01 -0.99654842945E+00  0.38462735495E+02  0.51100000000E-03 0. -1.
         23    2    1    0    0    0 -0.11050653155E+02 -0.13819616643E+02  0.22833320858E+02  0.96112991143E+02  0.91669230310E+02 0.  0.
         11    1    3    3    0    0 -0.49255265124E+02 -0.18155113971E+02  0.23829869287E+02  0.57650255647E+02  0.51100000000E-03 0.  1.
         22    1    1    0    0    0  0.11050653155E+02  0.13819616643E+02 -0.22833320858E+02  0.28887008857E+02  0.00000000000E+00 0.  1.
</event>
<event>
 5    1  0.1111613E-009  0.9118800E+02  0.7818608E-02  0.1130116E+00
         25   -1    0    0    0    0  0.00000000000E+00  0.00000000000E+00  0.99999998245E-14  0.12500000000E+03  0.12500000000E+03 0.  0.
        -11    1    3    3    0    0 -0.52424206533E+01 -0.14368385710E+02 -0.46521414487E+02  0.48971169972E+02  0.51100000000E-03 0.  1.
         23    2    1    0    0    0  0.23963849831E+02 -0.15222710693E+02 -0.12053621562E+02  0.94157062197E+02  0.88962157962E+02 0.  0.
         11    1    3    3    0    0  0.29206270485E+02 -0.85432498226E+00  0.34467792925E+02  0.45185892225E+02  0.51100000000E-03 0. -1.
         22    1    1    0    0    0 -0.23963849831E+02  0.15222710693E+02  0.12053621562E+02  0.30842937803E+02  0.00000000000E+00 0. -1.
</event>
<event>
 5    1  0.1111613E-009  0.9118800E+02  0.7818608E-02  0.1130116E+00
         25   -1    0    0    0    0  0.00000000000E+00  0.00000000000E+00  0.99999998245E-14  0.12500000000E+03  0.12500000000E+03 0.  0.
        -11    1    3    3    0    0  0.26504441699E+01 -0.44137951856E+02  0.31994430228E+02  0.54578633312E+02  0.51100000000E-03 0. -1.
         23    2    1    0    0    0  0.10571432206E+02 -0.36062850745E+01  0.26501623429E+02  0.96240714277E+02  0.91843228217E+02 0.  0.
         11    1    3    3    0    0  0.79209880365E+01  0.40531666781E+02 -0.54928067993E+01  0.41662080965E+02  0.51100000000E-03 0.  1.
         22    1    1    0    0    0 -0.10571432206E+02  0.36062850745E+01 -0.26501623429E+02  0.28759285723E+02  0.00000000000E+00 0.  1.
</event>
<event>
 5    1  0.1111613E-009  0.9118800E+02  0.7818608E-02  0.1130116E+00
         25   -1    0    0    0    0  0.00000000000E+00  0.00000000000E+00  0.99999998245E-14  0.12500000000E+03  0.12500000000E+03 0.  0.
        -11    1    3    3    0    0  0.58241048014E+02 -0.21568795748E+02  0.19130416742E+01  0.62136079314E+02  0.51100000000E-03 0. -1.
         23    2    1    0    0    0  0.25716893285E+02 -0.14239932853E+02  0.26567100920E+01  0.95484031502E+02  0.90807532042E+02 0.  0.
         11    1    3    3    0    0 -0.32524154729E+02  0.73288628951E+01  0.74366841782E+00  0.33347952188E+02  0.51100000000E-03 0.  1.
         22    1    1    0    0    0 -0.25716893285E+02  0.14239932853E+02 -0.26567100920E+01  0.29515968498E+02  0.00000000000E+00 0. -1.
</event>
<event>
 5    1  0.1111613E-009  0.9118800E+02  0.7818608E-02  0.1130116E+00
         25   -1    0    0    0    0  0.00000000000E+00  0.00000000000E+00  0.99999998245E-14  0.12500000000E+03  0.12500000000E+03 0.  0.
        -11    1    3    3    0    0 -0.42124234131E+01  0.24445869352E+02 -0.47389430901E+02  0.53489281176E+02  0.51100000000E-03 0.  1.
         23    2    1    0    0    0  0.14987420814E+02 -0.57631130046E+01 -0.23554360682E+02  0.96493085729E+02  0.92186069621E+02 0.  0.
         11    1    3    3    0    0  0.19199844227E+02 -0.30208982357E+02  0.23835070219E+02  0.43003804552E+02  0.51100000000E-03 0. -1.
         22    1    1    0    0    0 -0.14987420814E+02  0.57631130046E+01  0.23554360682E+02  0.28506914271E+02  0.00000000000E+00 0.  1.
</event>
<event>
 5    1  0.1111613E-009  0.9118800E+02  0.7818608E-02  0.1130116E+00
         25   -1    0    0    0    0  0.00000000000E+00  0.00000000000E+00  0.99999998245E-14  0.12500000000E+03  0.12500000000E+03 0.  0.
        -11    1    3    3    0    0  0.59122499751E+02 -0.54319305697E+01  0.17442671537E+02  0.61880712965E+02  0.51100000000E-03 0.  1.
         23    2    1    0    0    0  0.25724887891E+02 -0.67689190032E+01  0.12281244039E+02  0.95701244452E+02  0.91106043230E+02 0.  0.
         11    1    3    3    0    0 -0.33397611859E+02 -0.13369884336E+01 -0.51614274980E+01  0.33820531487E+02  0.51100000000E-03 0. -1.
         22    1    1    0    0    0 -0.25724887891E+02  0.67689190032E+01 -0.12281244039E+02  0.29298755548E+02  0.00000000000E+00 0.  1.
</event>
<event>
 5    1  0.1111613E-009  0.9118800E+02  0.7818608E-02  0.1130116E+00
         25   -1    0    0    0    0  0.00000000000E+00  0.00000000000E+00  0.99999998245E-14  0.12500000000E+03  0.12500000000E+03 0.  0.
        -11    1    3    3    0    0  0.45058529477E+02 -0.23289471295E+02  0.22847120971E+00  0.50722014463E+02  0.51100000000E-03 0.  1.
         23    2    1    0    0    0  0.10934268910E+02 -0.81729859124E+01  0.25694053043E+02  0.95904634440E+02  0.91384673824E+02 0.  0.
         11    1    3    3    0    0 -0.34124260567E+02  0.15116485383E+02  0.25465581833E+02  0.45182619976E+02  0.51100000000E-03 0. -1.
         22    1    1    0    0    0 -0.10934268910E+02  0.81729859124E+01 -0.25694053043E+02  0.29095365560E+02  0.00000000000E+00 0.  1.
</event>
<event>
 5    1  0.1111613E-009  0.9118800E+02  0.7818608E-02  0.1130116E+00
         25   -1    0    0    0    0  0.00000000000E+00  0.00000000000E+00  0.99999998245E-14  0.12500000000E+03  0.12500000000E+03 0.  0.
        -11    1    3    3    0    0  0.55281886231E+02  0.77223009951E+01  0.12789242829E+02  0.57265047021E+02  0.51100000000E-03 0. -1.
         23    2    1    0    0    0  0.21004953994E+02 -0.10402728216E+02  0.16676105042E+02  0.96233399124E+02  0.91833271644E+02 0.  0.
         11    1    3    3    0    0 -0.34276932237E+02 -0.18125029211E+02  0.38868622123E+01  0.38968352103E+02  0.51100000000E-03 0.  1.
         22    1    1    0    0    0 -0.21004953994E+02  0.10402728216E+02 -0.16676105042E+02  0.28766600876E+02  0.00000000000E+00 0. -1.
</event>
<event>
 5    1  0.1111613E-009  0.9118800E+02  0.7818608E-02  0.1130116E+00
         25   -1    0    0    0    0  0.00000000000E+00  0.00000000000E+00  0.99999998245E-14  0.12500000000E+03  0.12500000000E+03 0.  0.
        -11    1    3    3    0    0  0.39190415230E+02  0.27473816998E+02 -0.31928084743E+02  0.57533484702E+02  0.51100000000E-03 0. -1.
         23    2    1    0    0    0  0.38424015790E+01  0.17391836502E+02 -0.23960147417E+02  0.95144871612E+02  0.90339459280E+02 0.  0.
         11    1    3    3    0    0 -0.35348013651E+02 -0.10081980496E+02  0.79679373262E+01  0.37611386910E+02  0.51100000000E-03 0.  1.
         22    1    1    0    0    0 -0.38424015790E+01 -0.17391836502E+02  0.23960147417E+02  0.29855128388E+02  0.00000000000E+00 0. -1.
</event>
<event>
 5    1  0.1111613E-009  0.9118800E+02  0.7818608E-02  0.1130116E+00
         25   -1    0    0    0    0  0.00000000000E+00  0.00000000000E+00  0.99999998245E-14  0.12500000000E+03  0.12500000000E+03 0.  0.
        -11    1    3    3    0    0 -0.14917916472E+01 -0.28378561078E+02 -0.66072354341E+01  0.29175738749E+02  0.51100000000E-03 0.  1.
         23    2    1    0    0    0 -0.13613263106E+02  0.30749034515E+02  0.60145640346E+01  0.90838632397E+02  0.84170411067E+02 0.  0.
         11    1    3    3    0    0 -0.12121471459E+02  0.59127595593E+02  0.12621799469E+02  0.61662893648E+02  0.51100000000E-03 0. -1.
         22    1    1    0    0    0  0.13613263106E+02 -0.30749034515E+02 -0.60145640346E+01  0.34161367603E+02  0.00000000000E+00 0. -1.
</event>
<event>
 5    1  0.1111613E-009  0.9118800E+02  0.7818608E-02  0.1130116E+00
         25   -1    0    0    0    0  0.00000000000E+00  0.00000000000E+00  0.99999998245E-14  0.12500000000E+03  0.12500000000E+03 0.  0.
        -11    1    3    3    0    0  0.35132085536E+02 -0.16455010543E+02  0.41142942583E+02  0.56548850834E+02  0.51100000000E-03 0. -1.
         23    2    1    0    0    0  0.10325639440E+02  0.46320098657E+01  0.33005289599E+02  0.90108403780E+02  0.83078883870E+02 0.  0.
         11    1    3    3    0    0 -0.24806446096E+02  0.21087020409E+02 -0.81376529835E+01  0.33559552946E+02  0.51100000000E-03 0.  1.
         22    1    1    0    0    0 -0.10325639440E+02 -0.46320098657E+01 -0.33005289599E+02  0.34891596220E+02  0.00000000000E+00 0. -1.
</event>
<event>
 5    1  0.1111613E-009  0.9118800E+02  0.7818608E-02  0.1130116E+00
         25   -1    0    0    0    0  0.00000000000E+00  0.00000000000E+00  0.99999998245E-14  0.12500000000E+03  0.12500000000E+03 0.  0.
        -11    1    3    3    0    0 -0.41961013400E+01 -0.31797883313E+02  0.81796880750E+01  0.33100150255E+02  0.51100000000E-03 0.  1.
         23    2    1    0    0    0  0.11932191245E+02  0.17804512369E+02 -0.22753369897E+02  0.93741502111E+02  0.88376329001E+02 0.  0.
         11    1    3    3    0    0  0.16128292585E+02  0.49602395682E+02 -0.30933057972E+02  0.60641351856E+02  0.51100000000E-03 0. -1.
         22    1    1    0    0    0 -0.11932191245E+02 -0.17804512369E+02  0.22753369897E+02  0.31258497889E+02  0.00000000000E+00 0. -1.
</event>
<event>
 5    1  0.1111613E-009  0.9118800E+02  0.7818608E-02  0.1130116E+00
         25   -1    0    0    0    0  0.00000000000E+00  0.00000000000E+00  0.99999998245E-14  0.12500000000E+03  0.12500000000E+03 0.  0.
        -11    1    3    3    0    0 -0.36873902842E+02 -0.14115314036E+02  0.12912921432E+01  0.39504357187E+02  0.51100000000E-03 0. -1.
         23    2    1    0    0    0 -0.23405653138E+01  0.24688732192E+02 -0.17394731289E+02  0.94708278031E+02  0.89733324399E+02 0.  0.
         11    1    3    3    0    0  0.34533337528E+02  0.38804046228E+02 -0.18686023432E+02  0.55203920843E+02  0.51100000000E-03 0.  1.
         22    1    1    0    0    0  0.23405653138E+01 -0.24688732192E+02  0.17394731289E+02  0.30291721969E+02  0.00000000000E+00 0.  1.
</event>
<event>
 5    1  0.1111613E-009  0.9118800E+02  0.7818608E-02  0.1130116E+00
         25   -1    0    0    0    0  0.00000000000E+00  0.00000000000E+00  0.99999998245E-14  0.12500000000E+03  0.12500000000E+03 0.  0.
        -11    1    3    3    0    0  0.65730530809E+01  0.22183326205E+02 -0.57069674786E+02  0.61581269626E+02  0.51100000000E-03 0. -1.
         23    2    1    0    0    0 -0.38666996729E+01  0.78948909123E+01 -0.28381346689E+02  0.95288360719E+02  0.90537783161E+02 0.  0.
         11    1    3    3    0    0 -0.10439752754E+02 -0.14288435292E+02  0.28688328097E+02  0.33707091093E+02  0.51100000000E-03 0.  1.
         22    1    1    0    0    0  0.38666996729E+01 -0.78948909123E+01  0.28381346689E+02  0.29711639281E+02  0.00000000000E+00 0. -1.
</event>
<event>
 5    1  0.1111613E-009  0.9118800E+02  0.7818608E-02  0.1130116E+00
         25   -1    0    0    0    0  0.00000000000E+00  0.00000000000E+00  0.99999998245E-14  0.12500000000E+03  0.12500000000E+03 0.  0.
        -11    1    3    3    0    0 -0.88282288998E+01 -0.47414969211E+01  0.33980198112E+02  0.35427013458E+02  0.51100000000E-03 0. -1.
         23    2    1    0    0    0 -0.92411841179E+01  0.20272028105E+02 -0.20087773025E+02  0.95002112866E+02  0.90141711857E+02 0.  0.
         11    1    3    3    0    0 -0.41295521806E+00  0.25013525026E+02 -0.54067971138E+02  0.59575099408E+02  0.51100000000E-03 0.  1.
         22    1    1    0    0    0  0.92411841179E+01 -0.20272028105E+02  0.20087773025E+02  0.29997887134E+02  0.00000000000E+00 0.  1.
</event>
<event>
 5    1  0.1111613E-009  0.9118800E+02  0.7818608E-02  0.1130116E+00
         25   -1    0    0    0    0  0.00000000000E+00  0.00000000000E+00  0.99999998245E-14  0.12500000000E+03  0.12500000000E+03 0.  0.
        -11    1    3    3    0    0  0.33160089288E+02  0.10892941803E+02 -0.23414966368E+02  0.42029850737E+02  0.51100000000E-03 0.  1.
         23    2    1    0    0    0 -0.16428879259E+02  0.20891001059E+02  0.14217945179E+01  0.98384900928E+02  0.94716552049E+02 0.  0.
         11    1    3    3    0    0 -0.49588968547E+02  0.99980592552E+01  0.24836760886E+02  0.56355050191E+02  0.51100000000E-03 0. -1.
         22    1    1    0    0    0  0.16428879259E+02 -0.20891001059E+02 -0.14217945179E+01  0.26615099072E+02  0.00000000000E+00 0. -1.
</event>
<event>
 5    1  0.1111613E-009  0.9118800E+02  0.7818608E-02  0.1130116E+00
         25   -1    0    0    0    0  0.00000000000E+00  0.00000000000E+00  0.99999998245E-14  0.12500000000E+03  0.12500000000E+03 0.  0.
        -11    1    3    3    0    0  0.32213466899E+02 -0.46326902506E+02  0.26585919166E+02  0.62375479506E+02  0.51100000000E-03 0. -1.
         23    2    1    0    0    0  0.91963262876E+01 -0.17604862921E+02  0.10329215424E+02  0.10261258597E+03  0.10014063357E+03 0.  0.
         11    1    3    3    0    0 -0.23017140611E+02  0.28722039585E+02 -0.16256703741E+02  0.40237106465E+02  0.51100000000E-03 0.  1.
         22    1    1    0    0    0 -0.91963262876E+01  0.17604862921E+02 -0.10329215424E+02  0.22387414030E+02  0.00000000000E+00 0. -1.
</event>
<event>
 5    1  0.1111613E-009  0.9118800E+02  0.7818608E-02  0.1130116E+00
         25   -1    0    0    0    0  0.00000000000E+00  0.00000000000E+00  0.99999998245E-14  0.12500000000E+03  0.12500000000E+03 0.  0.
        -11    1    3    3    0    0 -0.10441621050E+02  0.29353540781E+01  0.33027929122E+02  0.34763311926E+02  0.51100000000E-03 0.  1.
         23    2    1    0    0    0 -0.38675478793E+01 -0.10628970430E+02 -0.26509044000E+02  0.96178786411E+02  0.91758904760E+02 0.  0.
         11    1    3    3    0    0  0.65740731711E+01 -0.13564324508E+02 -0.59536973122E+02  0.61415474484E+02  0.51100000000E-03 0. -1.
         22    1    1    0    0    0  0.38675478793E+01  0.10628970430E+02  0.26509044000E+02  0.28821213589E+02  0.00000000000E+00 0. -1.
</event>
<event>
 5    1  0.1111613E-009  0.9118800E+02  0.7818608E-02  0.1130116E+00
         25   -1    0    0    0    0  0.00000000000E+00  0.00000000000E+00  0.99999998245E-14  0.12500000000E+03  0.12500000000E+03 0.  0.
        -11    1    3    3    0    0 -0.47221693658E+02  0.18107307007E+01  0.33553111699E+02  0.57956694199E+02  0.51100000000E-03 0.  1.
         23    2    1    0    0    0 -0.94165755384E+01 -0.23590406017E+01  0.26682255607E+02  0.96606695654E+02  0.92339990868E+02 0.  0.
         11    1    3    3    0    0  0.37805118119E+02 -0.41697713024E+01 -0.68708560920E+01  0.38650001455E+02  0.51100000000E-03 0. -1.
         22    1    1    0    0    0  0.94165755384E+01  0.23590406017E+01 -0.26682255607E+02  0.28393304346E+02  0.00000000000E+00 0.  1.
</event>
<event>
 5    1  0.1111613E-009  0.9118800E+02  0.7818608E-02  0.1130116E+00
         25   -1    0    0    0    0  0.00000000000E+00  0.00000000000E+00  0.99999998245E-14  0.12500000000E+03  0.12500000000E+03 0.  0.
        -11    1    3    3    0    0 -0.18662159273E+02  0.27702337527E+02  0.20091086087E+02  0.38978807493E+02  0.51100000000E-03 0. -1.
         23    2    1    0    0    0  0.94548542245E+01 -0.18050032135E+02 -0.11817393523E+02  0.10144477302E+03  0.98672150350E+02 0.  0.
         11    1    3    3    0    0  0.28117013497E+02 -0.45752369662E+02 -0.31908479610E+02  0.62465965525E+02  0.51100000000E-03 0.  1.
         22    1    1    0    0    0 -0.94548542245E+01  0.18050032135E+02  0.11817393523E+02  0.23555226982E+02  0.00000000000E+00 0.  1.
</event>
<event>
 5    1  0.1111613E-009  0.9118800E+02  0.7818608E-02  0.1130116E+00
         25   -1    0    0    0    0  0.00000000000E+00  0.00000000000E+00  0.99999998245E-14  0.12500000000E+03  0.12500000000E+03 0.  0.
        -11    1    3    3    0    0 -0.23081955728E+02 -0.58900704905E+01  0.53010945411E+02  0.58117380742E+02  0.51100000000E-03 0.  1.
         23    2    1    0    0    0  0.85686662560E+00 -0.14557247462E+02  0.25673940748E+02  0.95473759000E+02  0.90793390453E+02 0.  0.
         11    1    3    3    0    0  0.23938822354E+02 -0.86671769711E+01 -0.27337004663E+02  0.37356378258E+02  0.51100000000E-03 0. -1.
         22    1    1    0    0    0 -0.85686662560E+00  0.14557247462E+02 -0.25673940748E+02  0.29526241000E+02  0.00000000000E+00 0.  1.
</event>
<event>
 5    1  0.1111613E-009  0.9118800E+02  0.7818608E-02  0.1130116E+00
         25   -1    0    0    0    0  0.00000000000E+00  0.00000000000E+00  0.99999998245E-14  0.12500000000E+03  0.12500000000E+03 0.  0.
        -11    1    3    3    0    0 -0.20695677939E+02 -0.35906288558E+02  0.26569860254E+02  0.49229362351E+02  0.51100000000E-03 0.  1.
         23    2    1    0    0    0 -0.26816143508E+02  0.65875757929E+01  0.64456568048E+01  0.96644256329E+02  0.92390822500E+02 0.  0.
         11    1    3    3    0    0 -0.61204655697E+01  0.42493864351E+02 -0.20124203449E+02  0.47414893978E+02  0.51100000000E-03 0. -1.
         22    1    1    0    0    0  0.26816143508E+02 -0.65875757929E+01 -0.64456568048E+01  0.28355743671E+02  0.00000000000E+00 0. -1.
</event>
<event>
 5    1  0.1111613E-009  0.9118800E+02  0.7818608E-02  0.1130116E+00
         25   -1    0    0    0    0  0.00000000000E+00  0.00000000000E+00  0.99999998245E-14  0.12500000000E+03  0.12500000000E+03 0.  0.
        -11    1    3    3    0    0  0.31134063647E+02 -0.40302227132E+00 -0.20449058353E+02  0.37251259495E+02  0.51100000000E-03 0. -1.
         23    2    1    0    0    0 -0.12613632434E+02 -0.11255369565E+01  0.22892931424E+02  0.98837873447E+02  0.95312477471E+02 0.  0.
         11    1    3    3    0    0 -0.43747696081E+02 -0.72251468514E+00  0.43341989777E+02  0.61586613952E+02  0.51100000000E-03 0.  1.
         22    1    1    0    0    0  0.12613632434E+02  0.11255369565E+01 -0.22892931424E+02  0.26162126553E+02  0.00000000000E+00 0.  1.
</event>
<event>
 5    1  0.1111613E-009  0.9118800E+02  0.7818608E-02  0.1130116E+00
         25   -1    0    0    0    0  0.00000000000E+00  0.00000000000E+00  0.99999998245E-14  0.12500000000E+03  0.12500000000E+03 0.  0.
        -11    1    3    3    0    0  0.45889321105E+02 -0.35764097142E+02 -0.14723704038E+02  0.60014064158E+02  0.51100000000E-03 0. -1.
         23    2    1    0    0    0  0.13188002079E+02 -0.23336488736E+02  0.55732073566E+00  0.98189074768E+02  0.94457761418E+02 0.  0.
         11    1    3    3    0    0 -0.32701319026E+02  0.12427608406E+02  0.15281024773E+02  0.38175010611E+02  0.51100000000E-03 0.  1.
         22    1    1    0    0    0 -0.13188002079E+02  0.23336488736E+02 -0.55732073566E+00  0.26810925232E+02  0.00000000000E+00 0. -1.
</event>
<event>
 5    1  0.1111613E-009  0.9118800E+02  0.7818608E-02  0.1130116E+00
         25   -1    0    0    0    0  0.00000000000E+00  0.00000000000E+00  0.99999998245E-14  0.12500000000E+03  0.12500000000E+03 0.  0.
        -11    1    3    3    0    0 -0.27983011723E+02  0.68419367863E+01 -0.52083998159E+02  0.59519777457E+02  0.51100000000E-03 0.  1.
         23    2    1    0    0    0 -0.16567605040E+01  0.95046889086E+01 -0.28307822347E+02  0.95093198555E+02  0.90267932506E+02 0.  0.
         11    1    3    3    0    0  0.26326251219E+02  0.26627521224E+01  0.23776175812E+02  0.35573421098E+02  0.51100000000E-03 0. -1.
         22    1    1    0    0    0  0.16567605040E+01 -0.95046889086E+01  0.28307822347E+02  0.29906801445E+02  0.00000000000E+00 0.  1.
</event>
<event>
 5    1  0.1111613E-009  0.9118800E+02  0.7818608E-02  0.1130116E+00
         25   -1    0    0    0    0  0.00000000000E+00  0.00000000000E+00  0.99999998245E-14  0.12500000000E+03  0.12500000000E+03 0.  0.
        -11    1    3    3    0    0 -0.23299237775E+02  0.23726639283E+02  0.19228999361E+02  0.38413048685E+02  0.51100000000E-03 0.  1.
         23    2    1    0    0    0  0.25384180188E+02  0.16231712132E+02  0.21914518086E+02  0.87743172633E+02  0.79440500742E+02 0.  0.
         11    1    3    3    0    0  0.48683417963E+02 -0.74949271514E+01  0.26855187247E+01  0.49330123948E+02  0.51100000000E-03 0. -1.
         22    1    1    0    0    0 -0.25384180188E+02 -0.16231712132E+02 -0.21914518086E+02  0.37256827367E+02  0.00000000000E+00 0. -1.
</event>
<event>
 5    1  0.1111613E-009  0.9118800E+02  0.7818608E-02  0.1130116E+00
         25   -1    0    0    0    0  0.00000000000E+00  0.00000000000E+00  0.99999998245E-14  0.12500000000E+03  0.12500000000E+03 0.  0.
        -11    1    3    3    0    0 -0.25796734473E+02 -0.19128356918E+02  0.92016812602E+00  0.32128060282E+02  0.51100000000E-03 0. -1.
         23    2    1    0    0    0  0.25502588950E+02  0.10968647198E+02  0.15277010330E+02  0.93312773723E+02  0.87767838248E+02 0.  0.
         11    1    3    3    0    0  0.51299323424E+02  0.30097004115E+02  0.14356842204E+02  0.61184713440E+02  0.51100000000E-03 0.  1.
         22    1    1    0    0    0 -0.25502588950E+02 -0.10968647198E+02 -0.15277010330E+02  0.31687226277E+02  0.00000000000E+00 0.  1.
</event>
<event>
 5    1  0.1111613E-009  0.9118800E+02  0.7818608E-02  0.1130116E+00
         25   -1    0    0    0    0  0.00000000000E+00  0.00000000000E+00  0.99999998245E-14  0.12500000000E+03  0.12500000000E+03 0.  0.
        -11    1    3    3    0    0  0.38519490057E+02  0.25278129407E+02 -0.69804280899E+00  0.46078435353E+02  0.51100000000E-03 0.  1.
         23    2    1    0    0    0  0.39780084727E+01 -0.46846246037E+01  0.25494628013E+02  0.98775082143E+02  0.95230092596E+02 0.  0.
         11    1    3    3    0    0 -0.34541481584E+02 -0.29962754011E+02  0.26192670822E+02  0.52696646790E+02  0.51100000000E-03 0. -1.
         22    1    1    0    0    0 -0.39780084727E+01  0.46846246037E+01 -0.25494628013E+02  0.26224917857E+02  0.00000000000E+00 0.  1.
</event>
<event>
 5    1  0.1111613E-009  0.9118800E+02  0.7818608E-02  0.1130116E+00
         25   -1    0    0    0    0  0.00000000000E+00  0.00000000000E+00  0.99999998245E-14  0.12500000000E+03  0.12500000000E+03 0.  0.
        -11    1    3    3    0    0  0.18308552606E+02 -0.45060064296E+02  0.78280432316E+01  0.49263482966E+02  0.51100000000E-03 0. -1.
         23    2    1    0    0    0 -0.53806570364E+01 -0.99409126334E+01  0.26975622594E+02  0.95751796150E+02  0.91175375170E+02 0.  0.
         11    1    3    3    0    0 -0.23689209642E+02  0.35119151662E+02  0.19147579362E+02  0.46488313184E+02  0.51100000000E-03 0.  1.
         22    1    1    0    0    0  0.53806570364E+01  0.99409126334E+01 -0.26975622594E+02  0.29248203850E+02  0.00000000000E+00 0.  1.
</event>
<event>
 5    1  0.1111613E-009  0.9118800E+02  0.7818608E-02  0.1130116E+00
         25   -1    0    0    0    0  0.00000000000E+00  0.00000000000E+00  0.99999998245E-14  0.12500000000E+03  0.12500000000E+03 0.  0.
        -11    1    3    3    0    0 -0.28984599705E+01 -0.12742413227E+02 -0.38700716523E+02  0.40847467788E+02  0.51100000000E-03 0.  1.
         23    2    1    0    0    0  0.28161112790E+02  0.60930973363E+01  0.28607862564E+01  0.96045583986E+02  0.91577267903E+02 0.  0.
         11    1    3    3    0    0  0.31059572760E+02  0.18835510563E+02  0.41561502780E+02  0.55198116198E+02  0.51100000000E-03 0. -1.
         22    1    1    0    0    0 -0.28161112790E+02 -0.60930973363E+01 -0.28607862564E+01  0.28954416014E+02  0.00000000000E+00 0. -1.
</event>
<event>
 5    1  0.1111613E-009  0.9118800E+02  0.7818608E-02  0.1130116E+00
         25   -1    0    0    0    0  0.00000000000E+00  0.00000000000E+00  0.99999998245E-14  0.12500000000E+03  0.12500000000E+03 0.  0.
        -11    1    3    3    0    0 -0.17753542586E+02 -0.56854698544E+02 -0.26757327387E+01  0.59622181835E+02  0.51100000000E-03 0. -1.
         23    2    1    0    0    0  0.45692286385E+01 -0.26551523037E+02  0.37306996341E+01  0.97801114992E+02  0.93942954754E+02 0.  0.
         11    1    3    3    0    0  0.22322771224E+02  0.30303175507E+02  0.64064323728E+01  0.38178933156E+02  0.51100000000E-03 0.  1.
         22    1    1    0    0    0 -0.45692286385E+01  0.26551523037E+02 -0.37306996341E+01  0.27198885008E+02  0.00000000000E+00 0. -1.
</event>
<event>
 5    1  0.1111613E-009  0.9118800E+02  0.7818608E-02  0.1130116E+00
         25   -1    0    0    0    0  0.00000000000E+00  0.00000000000E+00  0.99999998245E-14  0.12500000000E+03  0.12500000000E+03 0.  0.
        -11    1    3    3    0    0  0.33110637305E+02 -0.13315941849E+01 -0.84126531330E+00  0.33148079483E+02  0.51100000000E-03 0.  1.
         23    2    1    0    0    0 -0.26316159964E+02 -0.17787826315E+01  0.15006959503E+02  0.94653448690E+02  0.89656913690E+02 0.  0.
         11    1    3    3    0    0 -0.59426797269E+02 -0.44718844667E+00  0.15848224816E+02  0.61505369207E+02  0.51100000000E-03 0. -1.
         22    1    1    0    0    0  0.26316159964E+02  0.17787826315E+01 -0.15006959503E+02  0.30346551310E+02  0.00000000000E+00 0. -1.
</event>
<event>
 5    1  0.1111613E-009  0.9118800E+02  0.7818608E-02  0.1130116E+00
         25   -1    0    0    0    0  0.00000000000E+00  0.00000000000E+00  0.99999998245E-14  0.12500000000E+03  0.12500000000E+03 0.  0.
        -11    1    3    3    0    0  0.41442636330E+02 -0.78424230038E+01  0.18014699204E+02  0.45864202732E+02  0.51100000000E-03 0.  1.
         23    2    1    0    0    0  0.45799681727E+01  0.26333127953E+02  0.77702218657E+01  0.97165020494E+02  0.93092723258E+02 0.  0.
         11    1    3    3    0    0 -0.36862668158E+02  0.34175550956E+02 -0.10244477338E+02  0.51300817762E+02  0.51100000000E-03 0. -1.
         22    1    1    0    0    0 -0.45799681727E+01 -0.26333127953E+02 -0.77702218657E+01  0.27834979506E+02  0.00000000000E+00 0.  1.
</event>
<event>
 5    1  0.1111613E-009  0.9118800E+02  0.7818608E-02  0.1130116E+00
         25   -1    0    0    0    0  0.00000000000E+00  0.00000000000E+00  0.99999998245E-14  0.12500000000E+03  0.12500000000E+03 0.  0.
        -11    1    3    3    0    0  0.27264458240E+02 -0.17932667134E+02 -0.32672120608E+02  0.46177902713E+02  0.51100000000E-03 0. -1.
         23    2    1    0    0    0  0.19356965046E+02  0.21488495215E+02 -0.34678309715E+01  0.95871433711E+02  0.91339249109E+02 0.  0.
         11    1    3    3    0    0 -0.79074931941E+01  0.39421162349E+02  0.29204289637E+02  0.49693530998E+02  0.51100000000E-03 0.  1.
         22    1    1    0    0    0 -0.19356965046E+02 -0.21488495215E+02  0.34678309715E+01  0.29128566289E+02  0.00000000000E+00 0.  1.
</event>
<event>
 5    1  0.1111613E-009  0.9118800E+02  0.7818608E-02  0.1130116E+00
         25   -1    0    0    0    0  0.00000000000E+00  0.00000000000E+00  0.99999998245E-14  0.12500000000E+03  0.12500000000E+03 0.  0.
        -11    1    3    3    0    0 -0.40011115760E+02  0.14238055257E+02 -0.37134225959E+02  0.56414203351E+02  0.51100000000E-03 0. -1.
         23    2    1    0    0    0 -0.60030539756E+01 -0.15874212081E+01 -0.29705236545E+02  0.94652716080E+02  0.89655892277E+02 0.  0.
         11    1    3    3    0    0  0.34008061785E+02 -0.15825476465E+02  0.74289894146E+01  0.38238512729E+02  0.51100000000E-03 0.  1.
         22    1    1    0    0    0  0.60030539756E+01  0.15874212081E+01  0.29705236545E+02  0.30347283920E+02  0.00000000000E+00 0. -1.
</event>
<event>
 5    1  0.1111613E-009  0.9118800E+02  0.7818608E-02  0.1130116E+00
         25   -1    0    0    0    0  0.00000000000E+00  0.00000000000E+00  0.99999998245E-14  0.12500000000E+03  0.12500000000E+03 0.  0.
        -11    1    3    3    0    0 -0.54218967759E+01  0.39703935103E+02 -0.10435713869E+02  0.41408979117E+02  0.51100000000E-03 0.  1.
         23    2    1    0    0    0  0.19378649802E+02 -0.80491219278E+01 -0.19942386281E+02  0.96051438679E+02  0.91585259020E+02 0.  0.
         11    1    3    3    0    0  0.24800546578E+02 -0.47753057031E+02 -0.95066724123E+01  0.54642459562E+02  0.51100000000E-03 0. -1.
         22    1    1    0    0    0 -0.19378649802E+02  0.80491219278E+01  0.19942386281E+02  0.28948561321E+02  0.00000000000E+00 0. -1.
</event>
<event>
 5    1  0.1111613E-009  0.9118800E+02  0.7818608E-02  0.1130116E+00
         25   -1    0    0    0    0  0.00000000000E+00  0.00000000000E+00  0.99999998245E-14  0.12500000000E+03  0.12500000000E+03 0.  0.
        -11    1    3    3    0    0  0.17358979452E+02 -0.40405001820E+02  0.13439182497E+02  0.45983801128E+02  0.51100000000E-03 0.  1.
         23    2    1    0    0    0  0.19175968457E+02  0.69717293909E+01  0.22898458521E+02  0.94329783510E+02  0.89204517136E+02 0.  0.
         11    1    3    3    0    0  0.18169890041E+01  0.47376731211E+02  0.94592760234E+01  0.48345982382E+02  0.51100000000E-03 0. -1.
         22    1    1    0    0    0 -0.19175968457E+02 -0.69717293909E+01 -0.22898458521E+02  0.30670216490E+02  0.00000000000E+00 0. -1.
</event>
<event>
 5    1  0.1111613E-009  0.9118800E+02  0.7818608E-02  0.1130116E+00
         25   -1    0    0    0    0  0.00000000000E+00  0.00000000000E+00  0.99999998245E-14  0.12500000000E+03  0.12500000000E+03 0.  0.
        -11    1    3    3    0    0  0.30852865872E+02  0.12931921969E+02  0.45660315663E+01  0.33763628105E+02  0.51100000000E-03 0. -1.
         23    2    1    0    0    0 -0.28894242754E+02 -0.23827972394E+01 -0.27635022777E+01  0.95876265146E+02  0.91345860807E+02 0.  0.
         11    1    3    3    0    0 -0.59747108625E+02 -0.15314719208E+02 -0.73295338439E+01  0.62112637041E+02  0.51100000000E-03 0.  1.
         22    1    1    0    0    0  0.28894242754E+02  0.23827972394E+01  0.27635022777E+01  0.29123734854E+02  0.00000000000E+00 0.  1.
</event>
<event>
 5    1  0.1111613E-009  0.9118800E+02  0.7818608E-02  0.1130116E+00
         25   -1    0    0    0    0  0.00000000000E+00  0.00000000000E+00  0.99999998245E-14  0.12500000000E+03  0.12500000000E+03 0.  0.
        -11    1    3    3    0    0  0.37742101045E+02 -0.37901944727E+01  0.23818544980E+02  0.44790120012E+02  0.51100000000E-03 0.  1.
         23    2    1    0    0    0  0.39706925230E+01  0.28529310012E+02  0.27455987919E+01  0.96065137954E+02  0.91603954547E+02 0.  0.
         11    1    3    3    0    0 -0.33771408522E+02  0.32319504485E+02 -0.21072946188E+02  0.51275017943E+02  0.51100000000E-03 0. -1.
         22    1    1    0    0    0 -0.39706925230E+01 -0.28529310012E+02 -0.27455987919E+01  0.28934862046E+02  0.00000000000E+00 0. -1.
</event>
<event>
 5    1  0.1111613E-009  0.9118800E+02  0.7818608E-02  0.1130116E+00
         25   -1    0    0    0    0  0.00000000000E+00  0.00000000000E+00  0.99999998245E-14  0.12500000000E+03  0.12500000000E+03 0.  0.
        -11    1    3    3    0    0 -0.25735204349E+02 -0.34947918781E+02 -0.34289419616E+02  0.55312042702E+02  0.51100000000E-03 0.  1.
         23    2    1    0    0    0 -0.25634104186E+02 -0.15931446827E+02  0.33688933099E+00  0.94816696837E+02  0.89884226699E+02 0.  0.
         11    1    3    3    0    0  0.10110016286E+00  0.19016471954E+02  0.34626308947E+02  0.39504654135E+02  0.51100000000E-03 0. -1.
         22    1    1    0    0    0  0.25634104186E+02  0.15931446827E+02 -0.33688933099E+00  0.30183303163E+02  0.00000000000E+00 0.  1.
</event>
<event>
 5    1  0.1111613E-009  0.9118800E+02  0.7818608E-02  0.1130116E+00
         25   -1    0    0    0    0  0.00000000000E+00  0.00000000000E+00  0.99999998245E-14  0.12500000000E+03  0.12500000000E+03 0.  0.
        -11    1    3    3    0    0 -0.20153029449E+02 -0.97202899720E+01  0.28596573611E+02  0.36309677163E+02  0.51100000000E-03 0. -1.
         23    2    1    0    0    0 -0.15699802112E+02  0.16144833657E+02 -0.22131804862E+02  0.93425386358E+02  0.87928076230E+02 0.  0.
         11    1    3    3    0    0  0.44532273371E+01  0.25865123629E+02 -0.50728378474E+02  0.57115709195E+02  0.51100000000E-03 0.  1.
         22    1    1    0    0    0  0.15699802112E+02 -0.16144833657E+02  0.22131804862E+02  0.31574613642E+02  0.00000000000E+00 0.  1.
</event>
<event>
 5    1  0.1111613E-009  0.9118800E+02  0.7818608E-02  0.1130116E+00
         25   -1    0    0    0    0  0.00000000000E+00  0.00000000000E+00  0.99999998245E-14  0.12500000000E+03  0.12500000000E+03 0.  0.
        -11    1    3    3    0    0  0.21264317879E+02 -0.11423108154E+02  0.37941225697E+01  0.24434688070E+02  0.51100000000E-03 0. -1.
         23    2    1    0    0    0 -0.28019123687E+02 -0.26903644769E+02 -0.20000566134E+02  0.81309039383E+02  0.68573025642E+02 0.  0.
         11    1    3    3    0    0 -0.49283441566E+02 -0.15480536614E+02 -0.23794688704E+02  0.56874351312E+02  0.51100000000E-03 0.  1.
         22    1    1    0    0    0  0.28019123687E+02  0.26903644769E+02  0.20000566134E+02  0.43690960617E+02  0.00000000000E+00 0.  1.
</event>
<event>
 5    1  0.1111613E-009  0.9118800E+02  0.7818608E-02  0.1130116E+00
         25   -1    0    0    0    0  0.00000000000E+00  0.00000000000E+00  0.99999998245E-14  0.12500000000E+03  0.12500000000E+03 0.  0.
        -11    1    3    3    0    0 -0.29553282562E+02 -0.18445329147E+02 -0.89643008296E+00  0.34848676656E+02  0.51100000000E-03 0. -1.
         23    2    1    0    0    0  0.23203412023E+02  0.15021271368E+02 -0.13366917321E+01  0.97326480748E+02  0.93309271710E+02 0.  0.
         11    1    3    3    0    0  0.52756694585E+02  0.33466600515E+02 -0.44026164911E+00  0.62477804092E+02  0.51100000000E-03 0.  1.
         22    1    1    0    0    0 -0.23203412023E+02 -0.15021271368E+02  0.13366917321E+01  0.27673519252E+02  0.00000000000E+00 0.  1.
</event>
<event>
 5    1  0.1111613E-009  0.9118800E+02  0.7818608E-02  0.1130116E+00
         25   -1    0    0    0    0  0.00000000000E+00  0.00000000000E+00  0.99999998245E-14  0.12500000000E+03  0.12500000000E+03 0.  0.
        -11    1    3    3    0    0 -0.16878289135E+02  0.94662525504E+01 -0.28528150975E+02  0.34472336442E+02  0.51100000000E-03 0.  1.
         23    2    1    0    0    0 -0.14030071182E+02 -0.11528892004E+02  0.26179207442E+02  0.93139222380E+02  0.87520315328E+02 0.  0.
         11    1    3    3    0    0  0.28482179527E+01 -0.20995144555E+02  0.54707358418E+02  0.58666885938E+02  0.51100000000E-03 0. -1.
         22    1    1    0    0    0  0.14030071182E+02  0.11528892004E+02 -0.26179207442E+02  0.31860777620E+02  0.00000000000E+00 0. -1.
</event>
<event>
 5    1  0.1111613E-009  0.9118800E+02  0.7818608E-02  0.1130116E+00
         25   -1    0    0    0    0  0.00000000000E+00  0.00000000000E+00  0.99999998245E-14  0.12500000000E+03  0.12500000000E+03 0.  0.
        -11    1    3    3    0    0  0.62782113743E+01  0.51184495489E+02 -0.23940577939E+02  0.56854373524E+02  0.51100000000E-03 0.  1.
         23    2    1    0    0    0 -0.61970471543E+00  0.12465002676E+02 -0.25918488980E+02  0.96233206702E+02  0.91833009727E+02 0.  0.
         11    1    3    3    0    0 -0.68979160897E+01 -0.38719492813E+02 -0.19779110413E+01  0.39378833178E+02  0.51100000000E-03 0. -1.
         22    1    1    0    0    0  0.61970471543E+00 -0.12465002676E+02  0.25918488980E+02  0.28766793298E+02  0.00000000000E+00 0.  1.
</event>
<event>
 5    1  0.1111613E-009  0.9118800E+02  0.7818608E-02  0.1130116E+00
         25   -1    0    0    0    0  0.00000000000E+00  0.00000000000E+00  0.99999998245E-14  0.12500000000E+03  0.12500000000E+03 0.  0.
        -11    1    3    3    0    0  0.45485014092E+02  0.20712779344E+02 -0.23214074201E+02  0.55107159030E+02  0.51100000000E-03 0.  1.
         23    2    1    0    0    0  0.87697365566E+01  0.62560675098E+01 -0.28136347151E+02  0.94871928522E+02  0.89961003388E+02 0.  0.
         11    1    3    3    0    0 -0.36715277535E+02 -0.14456711834E+02 -0.49222729500E+01  0.39764769492E+02  0.51100000000E-03 0. -1.
         22    1    1    0    0    0 -0.87697365566E+01 -0.62560675098E+01  0.28136347151E+02  0.30128071478E+02  0.00000000000E+00 0.  1.
</event>
<event>
 5    1  0.1111613E-009  0.9118800E+02  0.7818608E-02  0.1130116E+00
         25   -1    0    0    0    0  0.00000000000E+00  0.00000000000E+00  0.99999998245E-14  0.12500000000E+03  0.12500000000E+03 0.  0.
        -11    1    3    3    0    0 -0.21966168708E+02 -0.33313129853E+02  0.60245624245E+00  0.39907895737E+02  0.51100000000E-03 0.  1.
         23    2    1    0    0    0 -0.15801604410E+02  0.18078010803E+02  0.18515569864E+02  0.94679520058E+02  0.89693255123E+02 0.  0.
         11    1    3    3    0    0  0.61645642984E+01  0.51391140656E+02  0.17913113621E+02  0.54771624321E+02  0.51100000000E-03 0. -1.
         22    1    1    0    0    0  0.15801604410E+02 -0.18078010803E+02 -0.18515569864E+02  0.30320479942E+02  0.00000000000E+00 0. -1.
</event>
<event>
 5    1  0.1111613E-009  0.9118800E+02  0.7818608E-02  0.1130116E+00
         25   -1    0    0    0    0  0.00000000000E+00  0.00000000000E+00  0.99999998245E-14  0.12500000000E+03  0.12500000000E+03 0.  0.
        -11    1    3    3    0    0 -0.18492979586E+02  0.51851350336E+02  0.19028766859E+02  0.58246431600E+02  0.51100000000E-03 0.  1.
         23    2    1    0    0    0 -0.18560900234E+01  0.18150546918E+02  0.22548403803E+02  0.95994518834E+02  0.91507539080E+02 0.  0.
         11    1    3    3    0    0  0.16636889563E+02 -0.33700803418E+02  0.35196369448E+01  0.37748087234E+02  0.51100000000E-03 0. -1.
         22    1    1    0    0    0  0.18560900234E+01 -0.18150546918E+02 -0.22548403803E+02  0.29005481166E+02  0.00000000000E+00 0.  1.
</event>
<event>
 5    1  0.1111613E-009  0.9118800E+02  0.7818608E-02  0.1130116E+00
         25   -1    0    0    0    0  0.00000000000E+00  0.00000000000E+00  0.99999998245E-14  0.12500000000E+03  0.12500000000E+03 0.  0.
        -11    1    3    3    0    0  0.36105290775E+02  0.20135000243E+02  0.23799244671E+02  0.47701302958E+02  0.51100000000E-03 0.  1.
         23    2    1    0    0    0  0.22543616979E+02 -0.20029452386E+02  0.36976636896E+01  0.94617993052E+02  0.89607467675E+02 0.  0.
         11    1    3    3    0    0 -0.13561673795E+02 -0.40164452630E+02 -0.20101580981E+02  0.46916690094E+02  0.51100000000E-03 0. -1.
         22    1    1    0    0    0 -0.22543616979E+02  0.20029452386E+02 -0.36976636896E+01  0.30382006948E+02  0.00000000000E+00 0. -1.
</event>
<event>
 5    1  0.1111613E-009  0.9118800E+02  0.7818608E-02  0.1130116E+00
         25   -1    0    0    0    0  0.00000000000E+00  0.00000000000E+00  0.99999998245E-14  0.12500000000E+03  0.12500000000E+03 0.  0.
        -11    1    3    3    0    0  0.33075049426E+02 -0.35996893887E+02 -0.33228922297E+02  0.59109191682E+02  0.51100000000E-03 0. -1.
         23    2    1    0    0    0  0.10081918620E+02 -0.26838064228E+02 -0.63722330015E+01  0.95631102711E+02  0.91009755948E+02 0.  0.
         11    1    3    3    0    0 -0.22993130806E+02  0.91588296590E+01  0.26856689295E+02  0.36521911028E+02  0.51100000000E-03 0.  1.
         22    1    1    0    0    0 -0.10081918620E+02  0.26838064228E+02  0.63722330015E+01  0.29368897289E+02  0.00000000000E+00 0. -1.
</event>
<event>
 5    1  0.1111613E-009  0.9118800E+02  0.7818608E-02  0.1130116E+00
         25   -1    0    0    0    0  0.00000000000E+00  0.00000000000E+00  0.99999998245E-14  0.12500000000E+03  0.12500000000E+03 0.  0.
        -11    1    3    3    0    0 -0.46765824244E+02  0.97532924672E+01  0.16740479776E+02  0.50620279480E+02  0.51100000000E-03 0. -1.
         23    2    1    0    0    0 -0.28267499438E+02  0.26384670042E+02 -0.77887056073E+01  0.85555529250E+02  0.75920236515E+02 0.  0.
         11    1    3    3    0    0  0.18498324806E+02  0.16631377575E+02 -0.24529185384E+02  0.34935249770E+02  0.51100000000E-03 0.  1.
         22    1    1    0    0    0  0.28267499438E+02 -0.26384670042E+02  0.77887056073E+01  0.39444470750E+02  0.00000000000E+00 0. -1.
</event>
<event>
 5    1  0.1111613E-009  0.9118800E+02  0.7818608E-02  0.1130116E+00
         25   -1    0    0    0    0  0.00000000000E+00  0.00000000000E+00  0.99999998245E-14  0.12500000000E+03  0.12500000000E+03 0.  0.
        -11    1    3    3    0    0  0.19195813283E+02 -0.37140549963E+01  0.30946575122E+02  0.36605518220E+02  0.51100000000E-03 0.  1.
         23    2    1    0    0    0 -0.10698914379E+02  0.19554084187E+01 -0.23571697616E+02  0.99040120966E+02  0.95577352137E+02 0.  0.
         11    1    3    3    0    0 -0.29894727663E+02  0.56694634149E+01 -0.54518272738E+02  0.62434602746E+02  0.51100000000E-03 0. -1.
         22    1    1    0    0    0  0.10698914379E+02 -0.19554084187E+01  0.23571697616E+02  0.25959879034E+02  0.00000000000E+00 0. -1.
</event>
<event>
 5    1  0.1111613E-009  0.9118800E+02  0.7818608E-02  0.1130116E+00
         25   -1    0    0    0    0  0.00000000000E+00  0.00000000000E+00  0.99999998245E-14  0.12500000000E+03  0.12500000000E+03 0.  0.
        -11    1    3    3    0    0  0.15305960610E+02 -0.14380483847E+02 -0.42872258016E+02  0.47739933530E+02  0.51100000000E-03 0. -1.
         23    2    1    0    0    0 -0.17501242539E+02  0.12097762060E+02 -0.20444472679E+02  0.95493631190E+02  0.90820745413E+02 0.  0.
         11    1    3    3    0    0 -0.32807203149E+02  0.26478245907E+02  0.22427785337E+02  0.47753697659E+02  0.51100000000E-03 0.  1.
         22    1    1    0    0    0  0.17501242539E+02 -0.12097762060E+02  0.20444472679E+02  0.29506368810E+02  0.00000000000E+00 0. -1.
</event>
<event>
 5    1  0.1111613E-009  0.9118800E+02  0.7818608E-02  0.1130116E+00
         25   -1    0    0    0    0  0.00000000000E+00  0.00000000000E+00  0.99999998245E-14  0.12500000000E+03  0.12500000000E+03 0.  0.
        -11    1    3    3    0    0  0.21632620999E+02  0.57575903957E+01 -0.34406471907E+02  0.41047843400E+02  0.51100000000E-03 0. -1.
         23    2    1    0    0    0  0.45489790692E+01  0.24363955690E+02  0.14638167021E+02  0.96215082401E+02  0.91808336224E+02 0.  0.
         11    1    3    3    0    0 -0.17083641929E+02  0.18606365294E+02  0.49044638929E+02  0.55167239001E+02  0.51100000000E-03 0.  1.
         22    1    1    0    0    0 -0.45489790692E+01 -0.24363955690E+02 -0.14638167021E+02  0.28784917599E+02  0.00000000000E+00 0.  1.
</event>
<event>
 5    1  0.1111613E-009  0.9118800E+02  0.7818608E-02  0.1130116E+00
         25   -1    0    0    0    0  0.00000000000E+00  0.00000000000E+00  0.99999998245E-14  0.12500000000E+03  0.12500000000E+03 0.  0.
        -11    1    3    3    0    0 -0.19490852679E+02  0.39066120122E+00 -0.30493941273E+02  0.36192905506E+02  0.51100000000E-03 0.  1.
         23    2    1    0    0    0 -0.36660647184E+01 -0.46962564309E+01  0.27675387550E+02  0.96690603486E+02  0.92453506539E+02 0.  0.
         11    1    3    3    0    0  0.15824787960E+02 -0.50869176321E+01  0.58169328822E+02  0.60497697980E+02  0.51100000000E-03 0. -1.
         22    1    1    0    0    0  0.36660647184E+01  0.46962564309E+01 -0.27675387550E+02  0.28309396514E+02  0.00000000000E+00 0. -1.
</event>
<event>
 5    1  0.1111613E-009  0.9118800E+02  0.7818608E-02  0.1130116E+00
         25   -1    0    0    0    0  0.00000000000E+00  0.00000000000E+00  0.99999998245E-14  0.12500000000E+03  0.12500000000E+03 0.  0.
        -11    1    3    3    0    0  0.28090066943E+02 -0.23269070245E+02 -0.40878748587E+02  0.54786618596E+02  0.51100000000E-03 0.  1.
         23    2    1    0    0    0 -0.21526940054E+01 -0.25969665891E+02 -0.13590506430E+02  0.95610214309E+02  0.90981061640E+02 0.  0.
         11    1    3    3    0    0 -0.30242760948E+02 -0.27005956455E+01  0.27288242157E+02  0.40823595712E+02  0.51100000000E-03 0. -1.
         22    1    1    0    0    0  0.21526940054E+01  0.25969665891E+02  0.13590506430E+02  0.29389785691E+02  0.00000000000E+00 0.  1.
</event>
<event>
 5    1  0.1111613E-009  0.9118800E+02  0.7818608E-02  0.1130116E+00
         25   -1    0    0    0    0  0.00000000000E+00  0.00000000000E+00  0.99999998245E-14  0.12500000000E+03  0.12500000000E+03 0.  0.
        -11    1    3    3    0    0  0.16818850791E+01 -0.11182035237E+02 -0.33652215157E+02  0.35501242721E+02  0.51100000000E-03 0. -1.
         23    2    1    0    0    0 -0.15831043085E+01  0.29272061463E+02  0.89580019850E+01  0.94347013178E+02  0.89228657361E+02 0.  0.
         11    1    3    3    0    0 -0.32649893877E+01  0.40454096700E+02  0.42610217142E+02  0.58845770457E+02  0.51100000000E-03 0.  1.
         22    1    1    0    0    0  0.15831043085E+01 -0.29272061463E+02 -0.89580019850E+01  0.30652986822E+02  0.00000000000E+00 0.  1.
</event>
<event>
 5    1  0.1111613E-009  0.9118800E+02  0.7818608E-02  0.1130116E+00
         25   -1    0    0    0    0  0.00000000000E+00  0.00000000000E+00  0.99999998245E-14  0.12500000000E+03  0.12500000000E+03 0.  0.
        -11    1    3    3    0    0 -0.16913947042E+02  0.22739139443E+02 -0.54987502192E+02  0.61860936501E+02  0.51100000000E-03 0. -1.
         23    2    1    0    0    0 -0.53330361575E+01  0.15550502035E+02 -0.22142918410E+02  0.97421598598E+02  0.93436607652E+02 0.  0.
         11    1    3    3    0    0  0.11580910885E+02 -0.71886374081E+01  0.32844583782E+02  0.35560662097E+02  0.51100000000E-03 0.  1.
         22    1    1    0    0    0  0.53330361575E+01 -0.15550502035E+02  0.22142918410E+02  0.27578401402E+02  0.00000000000E+00 0. -1.
</event>
<event>
 5    1  0.1111613E-009  0.9118800E+02  0.7818608E-02  0.1130116E+00
         25   -1    0    0    0    0  0.00000000000E+00  0.00000000000E+00  0.99999998245E-14  0.12500000000E+03  0.12500000000E+03 0.  0.
        -11    1    3    3    0    0  0.24385136537E+02  0.45691571592E+02 -0.19787284228E+02  0.55442684061E+02  0.51100000000E-03 0. -1.
         23    2    1    0    0    0  0.62286482026E+01  0.10000007086E+02 -0.26456868847E+02  0.96038610024E+02  0.91567748176E+02 0.  0.
         11    1    3    3    0    0 -0.18156488334E+02 -0.35691564507E+02 -0.66695846185E+01  0.40595925963E+02  0.51100000000E-03 0.  1.
         22    1    1    0    0    0 -0.62286482026E+01 -0.10000007086E+02  0.26456868847E+02  0.28961389976E+02  0.00000000000E+00 0. -1.
</event>
<event>
 5    1  0.1111613E-009  0.9118800E+02  0.7818608E-02  0.1130116E+00
         25   -1    0    0    0    0  0.00000000000E+00  0.00000000000E+00  0.99999998245E-14  0.12500000000E+03  0.12500000000E+03 0.  0.
        -11    1    3    3    0    0 -0.16243158934E+01  0.79790238983E+01 -0.53647672059E+02  0.54262104107E+02  0.51100000000E-03 0.  1.
         23    2    1    0    0    0  0.85706540917E+01  0.23559858568E+02 -0.19192284152E+02  0.93426802217E+02  0.87930089015E+02 0.  0.
         11    1    3    3    0    0  0.10194969985E+02  0.15580834669E+02  0.34455387907E+02  0.39164698110E+02  0.51100000000E-03 0. -1.
         22    1    1    0    0    0 -0.85706540917E+01 -0.23559858568E+02  0.19192284152E+02  0.31573197783E+02  0.00000000000E+00 0.  1.
</event>
<event>
 5    1  0.1111613E-009  0.9118800E+02  0.7818608E-02  0.1130116E+00
         25   -1    0    0    0    0  0.00000000000E+00  0.00000000000E+00  0.99999998245E-14  0.12500000000E+03  0.12500000000E+03 0.  0.
        -11    1    3    3    0    0  0.54496397612E+01  0.30059650766E+02 -0.15677002877E+02  0.34337291640E+02  0.51100000000E-03 0.  1.
         23    2    1    0    0    0 -0.14166497964E+02 -0.19324494535E+02  0.15988660760E+02  0.96194392447E+02  0.91780161864E+02 0.  0.
         11    1    3    3    0    0 -0.19616137725E+02 -0.49384145301E+02  0.31665663637E+02  0.61857100807E+02  0.51100000000E-03 0. -1.
         22    1    1    0    0    0  0.14166497964E+02  0.19324494535E+02 -0.15988660760E+02  0.28805607553E+02  0.00000000000E+00 0. -1.
</event>
<event>
 5    1  0.1111613E-009  0.9118800E+02  0.7818608E-02  0.1130116E+00
         25   -1    0    0    0    0  0.00000000000E+00  0.00000000000E+00  0.99999998245E-14  0.12500000000E+03  0.12500000000E+03 0.  0.
        -11    1    3    3    0    0 -0.35107508894E+02 -0.11634220762E+02 -0.19308341622E+02  0.41721748884E+02  0.51100000000E-03 0.  1.
         23    2    1    0    0    0 -0.57237054503E+01 -0.10725732412E+02  0.26324226935E+02  0.96004016423E+02  0.91520511941E+02 0.  0.
         11    1    3    3    0    0  0.29383803444E+02  0.90848834977E+00  0.45632568557E+02  0.54282267540E+02  0.51100000000E-03 0. -1.
         22    1    1    0    0    0  0.57237054503E+01  0.10725732412E+02 -0.26324226935E+02  0.28995983577E+02  0.00000000000E+00 0. -1.
</event>
<event>
 5    1  0.1111613E-009  0.9118800E+02  0.7818608E-02  0.1130116E+00
         25   -1    0    0    0    0  0.00000000000E+00  0.00000000000E+00  0.99999998245E-14  0.12500000000E+03  0.12500000000E+03 0.  0.
        -11    1    3    3    0    0 -0.15471537217E+02 -0.53837935670E+02  0.11646739727E+02  0.57214843594E+02  0.51100000000E-03 0. -1.
         23    2    1    0    0    0 -0.21972645941E+02 -0.15531278679E+02  0.10589574783E+02  0.96083622614E+02  0.91629174685E+02 0.  0.
         11    1    3    3    0    0 -0.65011087245E+01  0.38306656991E+02 -0.10571649439E+01  0.38868779019E+02  0.51100000000E-03 0.  1.
         22    1    1    0    0    0  0.21972645941E+02  0.15531278679E+02 -0.10589574783E+02  0.28916377386E+02  0.00000000000E+00 0. -1.
</event>
<event>
 5    1  0.1111613E-009  0.9118800E+02  0.7818608E-02  0.1130116E+00
         25   -1    0    0    0    0  0.00000000000E+00  0.00000000000E+00  0.99999998245E-14  0.12500000000E+03  0.12500000000E+03 0.  0.
        -11    1    3    3    0    0  0.36999378533E+02  0.28245252427E+02 -0.19922236670E+02  0.50632438325E+02  0.51100000000E-03 0.  1.
         23    2    1    0    0    0 -0.46326477549E+01  0.29285020346E+02 -0.11947539935E+02  0.93034118933E+02  0.87370073442E+02 0.  0.
         11    1    3    3    0    0 -0.41632026288E+02  0.10397679186E+01  0.79746967358E+01  0.42401680609E+02  0.51100000000E-03 0. -1.
         22    1    1    0    0    0  0.46326477549E+01 -0.29285020346E+02  0.11947539935E+02  0.31965881067E+02  0.00000000000E+00 0.  1.
</event>
<event>
 5    1  0.1111613E-009  0.9118800E+02  0.7818608E-02  0.1130116E+00
         25   -1    0    0    0    0  0.00000000000E+00  0.00000000000E+00  0.99999998245E-14  0.12500000000E+03  0.12500000000E+03 0.  0.
        -11    1    3    3    0    0  0.50733175301E+02  0.25928562564E+02 -0.11762492122E+01  0.56987094989E+02  0.51100000000E-03 0. -1.
         23    2    1    0    0    0  0.21162917058E+02  0.68816417483E+01 -0.18375145308E+02  0.96140477886E+02  0.91706703525E+02 0.  0.
         11    1    3    3    0    0 -0.29570258243E+02 -0.19046920816E+02 -0.17198896096E+02  0.39153382897E+02  0.51100000000E-03 0.  1.
         22    1    1    0    0    0 -0.21162917058E+02 -0.68816417483E+01  0.18375145308E+02  0.28859522114E+02  0.00000000000E+00 0. -1.
</event>
<event>
 5    1  0.1111613E-009  0.9118800E+02  0.7818608E-02  0.1130116E+00
         25   -1    0    0    0    0  0.00000000000E+00  0.00000000000E+00  0.99999998245E-14  0.12500000000E+03  0.12500000000E+03 0.  0.
        -11    1    3    3    0    0  0.38418899420E+02  0.67316059237E+00  0.37890542852E+02  0.53964416199E+02  0.51100000000E-03 0. -1.
         23    2    1    0    0    0  0.34090067147E+02  0.85077212132E+01  0.32823796269E+01  0.89711361399E+02  0.82479332864E+02 0.  0.
         11    1    3    3    0    0 -0.43288322729E+01  0.78345606208E+01 -0.34608163226E+02  0.35746945199E+02  0.51100000000E-03 0.  1.
         22    1    1    0    0    0 -0.34090067147E+02 -0.85077212132E+01 -0.32823796269E+01  0.35288638601E+02  0.00000000000E+00 0. -1.
</event>
<event>
 5    1  0.1111613E-009  0.9118800E+02  0.7818608E-02  0.1130116E+00
         25   -1    0    0    0    0  0.00000000000E+00  0.00000000000E+00  0.99999998245E-14  0.12500000000E+03  0.12500000000E+03 0.  0.
        -11    1    3    3    0    0 -0.35855267181E+02  0.17462376467E+02  0.36579157145E+02  0.54116259241E+02  0.51100000000E-03 0.  1.
         23    2    1    0    0    0 -0.17993022219E+02 -0.14688967853E+02  0.19518449378E+02  0.94660512673E+02  0.89666761781E+02 0.  0.
         11    1    3    3    0    0  0.17862244962E+02 -0.32151344319E+02 -0.17060707768E+02  0.40544253433E+02  0.51100000000E-03 0. -1.
         22    1    1    0    0    0  0.17993022219E+02  0.14688967853E+02 -0.19518449378E+02  0.30339487327E+02  0.00000000000E+00 0.  1.
</event>
<event>
 5    1  0.1111613E-009  0.9118800E+02  0.7818608E-02  0.1130116E+00
         25   -1    0    0    0    0  0.00000000000E+00  0.00000000000E+00  0.99999998245E-14  0.12500000000E+03  0.12500000000E+03 0.  0.
        -11    1    3    3    0    0  0.36618439867E+02  0.27434468585E+02 -0.21286766903E+02  0.50464706978E+02  0.51100000000E-03 0. -1.
         23    2    1    0    0    0  0.13592156531E+02 -0.11348315937E+02 -0.23445077896E+02  0.95619689053E+02  0.90994078177E+02 0.  0.
         11    1    3    3    0    0 -0.23026283336E+02 -0.38782784523E+02 -0.21583109932E+01  0.45154982075E+02  0.51100000000E-03 0.  1.
         22    1    1    0    0    0 -0.13592156531E+02  0.11348315937E+02  0.23445077896E+02  0.29380310947E+02  0.00000000000E+00 0. -1.
</event>
<event>
 5    1  0.1111613E-009  0.9118800E+02  0.7818608E-02  0.1130116E+00
         25   -1    0    0    0    0  0.00000000000E+00  0.00000000000E+00  0.99999998245E-14  0.12500000000E+03  0.12500000000E+03 0.  0.
        -11    1    3    3    0    0 -0.17474639033E+02 -0.31009947356E+02 -0.18301595496E+02  0.40024095772E+02  0.51100000000E-03 0.  1.
         23    2    1    0    0    0 -0.13177440986E+02  0.19828015066E+02  0.10907293707E+02  0.98812900344E+02  0.95279720224E+02 0.  0.
         11    1    3    3    0    0  0.42971980478E+01  0.50837962422E+02  0.29208889203E+02  0.58788804572E+02  0.51100000000E-03 0. -1.
         22    1    1    0    0    0  0.13177440986E+02 -0.19828015066E+02 -0.10907293707E+02  0.26187099656E+02  0.00000000000E+00 0. -1.
</event>
<event>
 5    1  0.1111613E-009  0.9118800E+02  0.7818608E-02  0.1130116E+00
         25   -1    0    0    0    0  0.00000000000E+00  0.00000000000E+00  0.99999998245E-14  0.12500000000E+03  0.12500000000E+03 0.  0.
        -11    1    3    3    0    0  0.24915431244E+02 -0.66025490515E+01 -0.34066709797E+02  0.42719001448E+02  0.51100000000E-03 0.  1.
         23    2    1    0    0    0  0.82745775083E+01  0.23223532569E+02  0.99343745632E+01  0.98420065917E+02  0.94762948873E+02 0.  0.
         11    1    3    3    0    0 -0.16640853736E+02  0.29826081620E+02  0.44001084360E+02  0.55701064469E+02  0.51100000000E-03 0. -1.
         22    1    1    0    0    0 -0.82745775083E+01 -0.23223532569E+02 -0.99343745632E+01  0.26579934083E+02  0.00000000000E+00 0. -1.
</event>
<event>
 5    1  0.1111613E-009  0.9118800E+02  0.7818608E-02  0.1130116E+00
         25   -1    0    0    0    0  0.00000000000E+00  0.00000000000E+00  0.99999998245E-14  0.12500000000E+03  0.12500000000E+03 0.  0.
        -11    1    3    3    0    0  0.27733456083E+01  0.16427810299E+02  0.31075294941E+02  0.35259585265E+02  0.51100000000E-03 0.  1.
         23    2    1    0    0    0 -0.20296918150E+01  0.40910471686E+01 -0.28422746326E+02  0.96212696817E+02  0.91805088118E+02 0.  0.
         11    1    3    3    0    0 -0.48030374233E+01 -0.12336763131E+02 -0.59498041267E+02  0.60953111553E+02  0.51100000000E-03 0. -1.
         22    1    1    0    0    0  0.20296918150E+01 -0.40910471686E+01  0.28422746326E+02  0.28787303183E+02  0.00000000000E+00 0. -1.
</event>
<event>
 5    1  0.1111613E-009  0.9118800E+02  0.7818608E-02  0.1130116E+00
         25   -1    0    0    0    0  0.00000000000E+00  0.00000000000E+00  0.99999998245E-14  0.12500000000E+03  0.12500000000E+03 0.  0.
        -11    1    3    3    0    0  0.47986785604E+02  0.15565613791E+02 -0.19742393202E+02  0.54173628408E+02  0.51100000000E-03 0. -1.
         23    2    1    0    0    0  0.63668601568E+01  0.17273355262E+02 -0.22510336180E+02  0.95920437672E+02  0.91406287628E+02 0.  0.
         11    1    3    3    0    0 -0.41619925447E+02  0.17077414708E+01 -0.27679429777E+01  0.41746809264E+02  0.51100000000E-03 0.  1.
         22    1    1    0    0    0 -0.63668601568E+01 -0.17273355262E+02  0.22510336180E+02  0.29079562328E+02  0.00000000000E+00 0. -1.
</event>
<event>
 5    1  0.1111613E-009  0.9118800E+02  0.7818608E-02  0.1130116E+00
         25   -1    0    0    0    0  0.00000000000E+00  0.00000000000E+00  0.99999998245E-14  0.12500000000E+03  0.12500000000E+03 0.  0.
        -11    1    3    3    0    0 -0.28353948353E+02  0.66279570370E+01  0.39701382208E+02  0.49234905821E+02  0.51100000000E-03 0.  1.
         23    2    1    0    0    0 -0.14616976852E+02  0.22915912431E+02 -0.36845514028E+01  0.97570618420E+02  0.93635754949E+02 0.  0.
         11    1    3    3    0    0  0.13736971501E+02  0.16287955394E+02 -0.43385933611E+02  0.48335712599E+02  0.51100000000E-03 0. -1.
         22    1    1    0    0    0  0.14616976852E+02 -0.22915912431E+02  0.36845514028E+01  0.27429381580E+02  0.00000000000E+00 0. -1.
</event>
<event>
 5    1  0.1111613E-009  0.9118800E+02  0.7818608E-02  0.1130116E+00
         25   -1    0    0    0    0  0.00000000000E+00  0.00000000000E+00  0.99999998245E-14  0.12500000000E+03  0.12500000000E+03 0.  0.
        -11    1    3    3    0    0  0.11219504569E+02 -0.24293692146E+02 -0.56005481280E+02  0.62069917790E+02  0.51100000000E-03 0.  1.
         23    2    1    0    0    0  0.97970724514E+01 -0.89716685298E+01 -0.27284029026E+02  0.94653802466E+02  0.89657406926E+02 0.  0.
         11    1    3    3    0    0 -0.14224321180E+01  0.15322023616E+02  0.28721452253E+02  0.32583884676E+02  0.51100000000E-03 0. -1.
         22    1    1    0    0    0 -0.97970724514E+01  0.89716685298E+01  0.27284029026E+02  0.30346197534E+02  0.00000000000E+00 0.  1.
</event>
<event>
 5    1  0.1111613E-009  0.9118800E+02  0.7818608E-02  0.1130116E+00
         25   -1    0    0    0    0  0.00000000000E+00  0.00000000000E+00  0.99999998245E-14  0.12500000000E+03  0.12500000000E+03 0.  0.
        -11    1    3    3    0    0  0.22515819448E+02  0.41361753923E+02  0.32358205200E+02  0.57138518155E+02  0.51100000000E-03 0.  1.
         23    2    1    0    0    0 -0.80523016267E+01  0.21117417891E+02  0.16132399170E+02  0.97232407328E+02  0.93183162813E+02 0.  0.
         11    1    3    3    0    0 -0.30568121074E+02 -0.20244336032E+02 -0.16225806030E+02  0.40093889173E+02  0.51100000000E-03 0. -1.
         22    1    1    0    0    0  0.80523016267E+01 -0.21117417891E+02 -0.16132399170E+02  0.27767592672E+02  0.00000000000E+00 0.  1.
</event>
<event>
 5    1  0.1111613E-009  0.9118800E+02  0.7818608E-02  0.1130116E+00
         25   -1    0    0    0    0  0.00000000000E+00  0.00000000000E+00  0.99999998245E-14  0.12500000000E+03  0.12500000000E+03 0.  0.
        -11    1    3    3    0    0 -0.50618519674E+02  0.15793349363E+01 -0.31114149456E+02  0.59437522908E+02  0.51100000000E-03 0.  1.
         23    2    1    0    0    0 -0.25144566371E+02 -0.11041677458E+02 -0.71424838154E+01  0.96624254474E+02  0.92363757062E+02 0.  0.
         11    1    3    3    0    0  0.25473953303E+02 -0.12621012395E+02  0.23971665641E+02  0.37186731566E+02  0.51100000000E-03 0. -1.
         22    1    1    0    0    0  0.25144566371E+02  0.11041677458E+02  0.71424838154E+01  0.28375745526E+02  0.00000000000E+00 0.  1.
</event>
<event>
 5    1  0.1111613E-009  0.9118800E+02  0.7818608E-02  0.1130116E+00
         25   -1    0    0    0    0  0.00000000000E+00  0.00000000000E+00  0.99999998245E-14  0.12500000000E+03  0.12500000000E+03 0.  0.
        -11    1    3    3    0    0  0.12839732470E+02 -0.33542810671E+02 -0.26361560908E+02  0.44552337441E+02  0.51100000000E-03 0. -1.
         23    2    1    0    0    0  0.26683627301E+02  0.78278031326E+01  0.28371602863E+01  0.97047541319E+02  0.92934844541E+02 0.  0.
         11    1    3    3    0    0  0.13843894831E+02  0.41370613804E+02  0.29198721195E+02  0.52495203879E+02  0.51100000000E-03 0.  1.
         22    1    1    0    0    0 -0.26683627301E+02 -0.78278031326E+01 -0.28371602863E+01  0.27952458681E+02  0.00000000000E+00 0. -1.
</event>
<event>
 5    1  0.1111613E-009  0.9118800E+02  0.7818608E-02  0.1130116E+00
         25   -1    0    0    0    0  0.00000000000E+00  0.00000000000E+00  0.99999998245E-14  0.12500000000E+03  0.12500000000E+03 0.  0.
        -11    1    3    3    0    0  0.33034774197E+02  0.42697909454E+01 -0.13456651004E+02  0.35925045267E+02  0.51100000000E-03 0.  1.
         23    2    1    0    0    0 -0.12772279875E+02 -0.15554833610E+02  0.20482619563E+02  0.96283773124E+02  0.91901813262E+02 0.  0.
         11    1    3    3    0    0 -0.45807054072E+02 -0.19824624555E+02  0.33939270568E+02  0.60358727856E+02  0.51100000000E-03 0. -1.
         22    1    1    0    0    0  0.12772279875E+02  0.15554833610E+02 -0.20482619563E+02  0.28716226876E+02  0.00000000000E+00 0. -1.
</event>
<event>
 5    1  0.1111613E-009  0.9118800E+02  0.7818608E-02  0.1130116E+00
         25   -1    0    0    0    0  0.00000000000E+00  0.00000000000E+00  0.99999998245E-14  0.12500000000E+03  0.12500000000E+03 0.  0.
        -11    1    3    3    0    0  0.44057506715E+00  0.14550682918E+02 -0.38053928679E+02  0.40743318077E+02  0.51100000000E-03 0.  1.
         23    2    1    0    0    0  0.22276723915E+02 -0.18798742150E+02 -0.27645794037E-02  0.95851326918E+02  0.91311728324E+02 0.  0.
         11    1    3    3    0    0  0.21836148848E+02 -0.33349425068E+02  0.38051164100E+02  0.55108008841E+02  0.51100000000E-03 0. -1.
         22    1    1    0    0    0 -0.22276723915E+02  0.18798742150E+02  0.27645794037E-02  0.29148673082E+02  0.00000000000E+00 0. -1.
</event>
<event>
 5    1  0.1111613E-009  0.9118800E+02  0.7818608E-02  0.1130116E+00
         25   -1    0    0    0    0  0.00000000000E+00  0.00000000000E+00  0.99999998245E-14  0.12500000000E+03  0.12500000000E+03 0.  0.
        -11    1    3    3    0    0 -0.10715805987E+02 -0.51341666230E+02  0.28269299424E+01  0.52524153704E+02  0.51100000000E-03 0.  1.
         23    2    1    0    0    0 -0.14660219649E+02 -0.19233959924E+02 -0.21215398274E+02  0.92829199910E+02  0.87076403104E+02 0.  0.
         11    1    3    3    0    0 -0.39444136616E+01  0.32107706305E+02 -0.24042328216E+02  0.40305046206E+02  0.51100000000E-03 0. -1.
         22    1    1    0    0    0  0.14660219649E+02  0.19233959924E+02  0.21215398274E+02  0.32170800090E+02  0.00000000000E+00 0.  1.
</event>
<event>
 5    1  0.1111613E-009  0.9118800E+02  0.7818608E-02  0.1130116E+00
         25   -1    0    0    0    0  0.00000000000E+00  0.00000000000E+00  0.99999998245E-14  0.12500000000E+03  0.12500000000E+03 0.  0.
        -11    1    3    3    0    0  0.85133844798E+01  0.49846125817E+02 -0.67310360431E+01  0.51013927713E+02  0.51100000000E-03 0.  1.
         23    2    1    0    0    0 -0.14894363786E+02  0.15544173203E+02 -0.21001045656E+02  0.94924971957E+02  0.90034676594E+02 0.  0.
         11    1    3    3    0    0 -0.23407748265E+02 -0.34301952614E+02 -0.14270009612E+02  0.43911044244E+02  0.51100000000E-03 0. -1.
         22    1    1    0    0    0  0.14894363786E+02 -0.15544173203E+02  0.21001045656E+02  0.30075028043E+02  0.00000000000E+00 0. -1.
</event>
<event>
 5    1  0.1111613E-009  0.9118800E+02  0.7818608E-02  0.1130116E+00
         25   -1    0    0    0    0  0.00000000000E+00  0.00000000000E+00  0.99999998245E-14  0.12500000000E+03  0.12500000000E+03 0.  0.
        -11    1    3    3    0    0  0.13778327414E+02  0.34332345719E+00  0.53744412587E+02  0.55483529646E+02  0.51100000000E-03 0.  1.
         23    2    1    0    0    0  0.23206978939E+02 -0.82110398427E+01  0.15217411943E+02  0.96059463152E+02  0.91596210555E+02 0.  0.
         11    1    3    3    0    0  0.94286515252E+01 -0.85543632999E+01 -0.38527000644E+02  0.40575933506E+02  0.51100000000E-03 0. -1.
         22    1    1    0    0    0 -0.23206978939E+02  0.82110398427E+01 -0.15217411943E+02  0.28940536848E+02  0.00000000000E+00 0.  1.
</event>
<event>
 5    1  0.1111613E-009  0.9118800E+02  0.7818608E-02  0.1130116E+00
         25   -1    0    0    0    0  0.00000000000E+00  0.00000000000E+00  0.99999998245E-14  0.12500000000E+03  0.12500000000E+03 0.  0.
        -11    1    3    3    0    0 -0.26557958220E+02  0.29150389152E+02  0.46690126644E+02  0.61114959370E+02  0.51100000000E-03 0.  1.
         23    2    1    0    0    0 -0.20584822829E+02  0.14458929669E+02  0.17431938897E+02  0.94394966562E+02  0.89295809758E+02 0.  0.
         11    1    3    3    0    0  0.59731353916E+01 -0.14691459483E+02 -0.29258187747E+02  0.33280007191E+02  0.51100000000E-03 0. -1.
         22    1    1    0    0    0  0.20584822829E+02 -0.14458929669E+02 -0.17431938897E+02  0.30605033438E+02  0.00000000000E+00 0.  1.
</event>
<event>
 5    1  0.1111613E-009  0.9118800E+02  0.7818608E-02  0.1130116E+00
         25   -1    0    0    0    0  0.00000000000E+00  0.00000000000E+00  0.99999998245E-14  0.12500000000E+03  0.12500000000E+03 0.  0.
        -11    1    3    3    0    0 -0.30139289157E+02 -0.10254068279E+02  0.10932195643E+02  0.33660593711E+02  0.51100000000E-03 0.  1.
         23    2    1    0    0    0  0.19921849275E+02  0.10847825855E+02 -0.18752524664E+02  0.95568510306E+02  0.90923745944E+02 0.  0.
         11    1    3    3    0    0  0.50061138431E+02  0.21101894135E+02 -0.29684720308E+02  0.61907916595E+02  0.51100000000E-03 0. -1.
         22    1    1    0    0    0 -0.19921849275E+02 -0.10847825855E+02  0.18752524664E+02  0.29431489694E+02  0.00000000000E+00 0. -1.
</event>
<event>
 5    1  0.1111613E-009  0.9118800E+02  0.7818608E-02  0.1130116E+00
         25   -1    0    0    0    0  0.00000000000E+00  0.00000000000E+00  0.99999998245E-14  0.12500000000E+03  0.12500000000E+03 0.  0.
        -11    1    3    3    0    0 -0.46005106235E+02  0.26820601843E+02 -0.32448441782E+02  0.62359569091E+02  0.51100000000E-03 0. -1.
         23    2    1    0    0    0 -0.17559076762E+02  0.79715075102E+01 -0.14160802037E+02  0.10107523411E+03  0.98202894696E+02 0.  0.
         11    1    3    3    0    0  0.28446029472E+02 -0.18849094333E+02  0.18287639745E+02  0.38715665016E+02  0.51100000000E-03 0.  1.
         22    1    1    0    0    0  0.17559076762E+02 -0.79715075102E+01  0.14160802037E+02  0.23924765893E+02  0.00000000000E+00 0. -1.
</event>
<event>
 5    1  0.1111613E-009  0.9118800E+02  0.7818608E-02  0.1130116E+00
         25   -1    0    0    0    0  0.00000000000E+00  0.00000000000E+00  0.99999998245E-14  0.12500000000E+03  0.12500000000E+03 0.  0.
        -11    1    3    3    0    0 -0.16495548290E+01  0.37958279895E+02 -0.21669180082E+02  0.43739060455E+02  0.51100000000E-03 0.  1.
         23    2    1    0    0    0 -0.10007202139E+02 -0.14384474592E+02 -0.22162275041E+02  0.96747148128E+02  0.92529925062E+02 0.  0.
         11    1    3    3    0    0 -0.83576473103E+01 -0.52342754487E+02 -0.49309495823E+00  0.53008087673E+02  0.51100000000E-03 0. -1.
         22    1    1    0    0    0  0.10007202139E+02  0.14384474592E+02  0.22162275041E+02  0.28252851872E+02  0.00000000000E+00 0. -1.
</event>
<event>
 5    1  0.1111613E-009  0.9118800E+02  0.7818608E-02  0.1130116E+00
         25   -1    0    0    0    0  0.00000000000E+00  0.00000000000E+00  0.99999998245E-14  0.12500000000E+03  0.12500000000E+03 0.  0.
        -11    1    3    3    0    0  0.10176645694E+01  0.23072431773E+02 -0.74244392951E+01  0.24258916881E+02  0.51100000000E-03 0. -1.
         23    2    1    0    0    0  0.33810689429E+02 -0.18731528512E+02  0.17046962851E+02  0.82755097083E+02  0.71160201452E+02 0.  0.
         11    1    3    3    0    0  0.32793024859E+02 -0.41803960286E+02  0.24471402146E+02  0.58496180202E+02  0.51100000000E-03 0.  1.
         22    1    1    0    0    0 -0.33810689429E+02  0.18731528512E+02 -0.17046962851E+02  0.42244902917E+02  0.00000000000E+00 0.  1.
</event>
<event>
 5    1  0.1111613E-009  0.9118800E+02  0.7818608E-02  0.1130116E+00
         25   -1    0    0    0    0  0.00000000000E+00  0.00000000000E+00  0.99999998245E-14  0.12500000000E+03  0.12500000000E+03 0.  0.
        -11    1    3    3    0    0 -0.25855633488E+02 -0.14437289838E+02 -0.25876333779E+02  0.39325993579E+02  0.51100000000E-03 0.  1.
         23    2    1    0    0    0 -0.58630996312E+01  0.28637261905E+02  0.40981734471E+01  0.95482823097E+02  0.90805868612E+02 0.  0.
         11    1    3    3    0    0  0.19992533857E+02  0.43074551743E+02  0.29974507226E+02  0.56156829518E+02  0.51100000000E-03 0. -1.
         22    1    1    0    0    0  0.58630996312E+01 -0.28637261905E+02 -0.40981734471E+01  0.29517176903E+02  0.00000000000E+00 0. -1.
</event>
<event>
 5    1  0.1111613E-009  0.9118800E+02  0.7818608E-02  0.1130116E+00
         25   -1    0    0    0    0  0.00000000000E+00  0.00000000000E+00  0.99999998245E-14  0.12500000000E+03  0.12500000000E+03 0.  0.
        -11    1    3    3    0    0 -0.16966671350E+02  0.32246617296E+02  0.37166450177E+02  0.52048605003E+02  0.51100000000E-03 0.  1.
         23    2    1    0    0    0  0.17894912834E+02  0.15029913407E+02  0.18584069560E+02  0.95142105839E+02  0.90335632281E+02 0.  0.
         11    1    3    3    0    0  0.34861584184E+02 -0.17216703889E+02 -0.18582380617E+02  0.43093500836E+02  0.51100000000E-03 0. -1.
         22    1    1    0    0    0 -0.17894912834E+02 -0.15029913407E+02 -0.18584069560E+02  0.29857894161E+02  0.00000000000E+00 0.  1.
</event>
<event>
 5    1  0.1111613E-009  0.9118800E+02  0.7818608E-02  0.1130116E+00
         25   -1    0    0    0    0  0.00000000000E+00  0.00000000000E+00  0.99999998245E-14  0.12500000000E+03  0.12500000000E+03 0.  0.
        -11    1    3    3    0    0 -0.23338853809E+02 -0.19484584173E+02 -0.17315721667E+02  0.34988359988E+02  0.51100000000E-03 0. -1.
         23    2    1    0    0    0  0.25864720453E+02  0.12933698660E+02 -0.12850972019E+01  0.96053224706E+02  0.91587696643E+02 0.  0.
         11    1    3    3    0    0  0.49203574262E+02  0.32418282832E+02  0.16030624465E+02  0.61064864718E+02  0.51100000000E-03 0.  1.
         22    1    1    0    0    0 -0.25864720453E+02 -0.12933698660E+02  0.12850972019E+01  0.28946775294E+02  0.00000000000E+00 0.  1.
</event>
<event>
 5    1  0.1111613E-009  0.9118800E+02  0.7818608E-02  0.1130116E+00
         25   -1    0    0    0    0  0.00000000000E+00  0.00000000000E+00  0.99999998245E-14  0.12500000000E+03  0.12500000000E+03 0.  0.
        -11    1    3    3    0    0  0.36200690901E+02 -0.16775474621E+02 -0.41417263032E+02  0.57509097087E+02  0.51100000000E-03 0.  1.
         23    2    1    0    0    0  0.23677908518E+02 -0.12658114953E+02 -0.31698362273E+01  0.97964484698E+02  0.94160082702E+02 0.  0.
         11    1    3    3    0    0 -0.12522782383E+02  0.41173596680E+01  0.38247426805E+02  0.40455387610E+02  0.51100000000E-03 0. -1.
         22    1    1    0    0    0 -0.23677908518E+02  0.12658114953E+02  0.31698362273E+01  0.27035515302E+02  0.00000000000E+00 0.  1.
</event>
<event>
 5    1  0.1111613E-009  0.9118800E+02  0.7818608E-02  0.1130116E+00
         25   -1    0    0    0    0  0.00000000000E+00  0.00000000000E+00  0.99999998245E-14  0.12500000000E+03  0.12500000000E+03 0.  0.
        -11    1    3    3    0    0 -0.19975963451E+02 -0.12769525673E+02  0.24596291570E+02  0.34162515437E+02  0.51100000000E-03 0. -1.
         23    2    1    0    0    0  0.28154422068E+01  0.75602382210E+01 -0.28480528247E+02  0.95398912081E+02  0.90690286251E+02 0.  0.
         11    1    3    3    0    0  0.22791405658E+02  0.20329763894E+02 -0.53076819817E+02  0.61236396644E+02  0.51100000000E-03 0.  1.
         22    1    1    0    0    0 -0.28154422068E+01 -0.75602382210E+01  0.28480528247E+02  0.29601087919E+02  0.00000000000E+00 0.  1.
</event>
<event>
 5    1  0.1111613E-009  0.9118800E+02  0.7818608E-02  0.1130116E+00
         25   -1    0    0    0    0  0.00000000000E+00  0.00000000000E+00  0.99999998245E-14  0.12500000000E+03  0.12500000000E+03 0.  0.
        -11    1    3    3    0    0 -0.32753128750E+02  0.23936832622E+02  0.48702757735E+01  0.40859013513E+02  0.51100000000E-03 0.  1.
         23    2    1    0    0    0  0.10426582074E+02 -0.18570323228E+02 -0.69592496369E+01  0.10259460614E+03  0.10011818783E+03 0.  0.
         11    1    3    3    0    0  0.43179710824E+02 -0.42507155850E+02 -0.11829525410E+02  0.61735592627E+02  0.51100000000E-03 0. -1.
         22    1    1    0    0    0 -0.10426582074E+02  0.18570323228E+02  0.69592496369E+01  0.22405393860E+02  0.00000000000E+00 0. -1.
</event>
<event>
 5    1  0.1111613E-009  0.9118800E+02  0.7818608E-02  0.1130116E+00
         25   -1    0    0    0    0  0.00000000000E+00  0.00000000000E+00  0.99999998245E-14  0.12500000000E+03  0.12500000000E+03 0.  0.
        -11    1    3    3    0    0  0.23382249553E+02 -0.78498869863E+01  0.27898263301E+02  0.37237929794E+02  0.51100000000E-03 0. -1.
         23    2    1    0    0    0  0.88907365864E+01  0.85922718448E+00 -0.27985684962E+02  0.95623444191E+02  0.90999236522E+02 0.  0.
         11    1    3    3    0    0 -0.14491512967E+02  0.87091141708E+01 -0.55883948263E+02  0.58385514397E+02  0.51100000000E-03 0.  1.
         22    1    1    0    0    0 -0.88907365864E+01 -0.85922718448E+00  0.27985684962E+02  0.29376555809E+02  0.00000000000E+00 0.  1.
</event>
<event>
 5    1  0.1111613E-009  0.9118800E+02  0.7818608E-02  0.1130116E+00
         25   -1    0    0    0    0  0.00000000000E+00  0.00000000000E+00  0.99999998245E-14  0.12500000000E+03  0.12500000000E+03 0.  0.
        -11    1    3    3    0    0 -0.44497899085E+02  0.30563498287E-02 -0.68666399454E+01  0.45024590800E+02  0.51100000000E-03 0. -1.
         23    2    1    0    0    0  0.51775149978E+01 -0.22948699277E+02 -0.90607622060E+01  0.99789945026E+02  0.96553023031E+02 0.  0.
         11    1    3    3    0    0  0.49675414083E+02 -0.22951755627E+02 -0.21941222606E+01  0.54765354225E+02  0.51100000000E-03 0.  1.
         22    1    1    0    0    0 -0.51775149978E+01  0.22948699277E+02  0.90607622060E+01  0.25210054974E+02  0.00000000000E+00 0.  1.
</event>
<event>
 5    1  0.1111613E-009  0.9118800E+02  0.7818608E-02  0.1130116E+00
         25   -1    0    0    0    0  0.00000000000E+00  0.00000000000E+00  0.99999998245E-14  0.12500000000E+03  0.12500000000E+03 0.  0.
        -11    1    3    3    0    0  0.28866774534E+02 -0.17235618598E+02  0.40086351027E+02  0.52318952201E+02  0.51100000000E-03 0.  1.
         23    2    1    0    0    0  0.28608350814E+01 -0.29561462420E+02  0.10749700418E+02  0.93414869054E+02  0.87913123386E+02 0.  0.
         11    1    3    3    0    0 -0.26005939453E+02 -0.12325843822E+02 -0.29336650609E+02  0.41095916853E+02  0.51100000000E-03 0. -1.
         22    1    1    0    0    0 -0.28608350814E+01  0.29561462420E+02 -0.10749700418E+02  0.31585130946E+02  0.00000000000E+00 0. -1.
</event>
<event>
 5    1  0.1111613E-009  0.9118800E+02  0.7818608E-02  0.1130116E+00
         25   -1    0    0    0    0  0.00000000000E+00  0.00000000000E+00  0.99999998245E-14  0.12500000000E+03  0.12500000000E+03 0.  0.
        -11    1    3    3    0    0  0.50469474413E+02 -0.83603786881E+01  0.99926002947E+01  0.52124042823E+02  0.51100000000E-03 0. -1.
         23    2    1    0    0    0  0.11867155329E+02 -0.95206070161E+01  0.26752683501E+02  0.94223752534E+02  0.89055814709E+02 0.  0.
         11    1    3    3    0    0 -0.38602319084E+02 -0.11602283281E+01  0.16760083206E+02  0.42099709711E+02  0.51100000000E-03 0.  1.
         22    1    1    0    0    0 -0.11867155329E+02  0.95206070161E+01 -0.26752683501E+02  0.30776247466E+02  0.00000000000E+00 0.  1.
</event>
<event>
 5    1  0.1111613E-009  0.9118800E+02  0.7818608E-02  0.1130116E+00
         25   -1    0    0    0    0  0.00000000000E+00  0.00000000000E+00  0.99999998245E-14  0.12500000000E+03  0.12500000000E+03 0.  0.
        -11    1    3    3    0    0  0.32759236915E+02  0.35886425210E+02  0.14624037953E+02  0.50743133564E+02  0.51100000000E-03 0.  1.
         23    2    1    0    0    0 -0.16944644594E+01  0.96299462014E+01  0.27401307323E+02  0.95906380138E+02  0.91387061637E+02 0.  0.
         11    1    3    3    0    0 -0.34453701374E+02 -0.26256479009E+02  0.12777269370E+02  0.45163246574E+02  0.51100000000E-03 0. -1.
         22    1    1    0    0    0  0.16944644594E+01 -0.96299462014E+01 -0.27401307323E+02  0.29093619862E+02  0.00000000000E+00 0.  1.
</event>
<event>
 5    1  0.1111613E-009  0.9118800E+02  0.7818608E-02  0.1130116E+00
         25   -1    0    0    0    0  0.00000000000E+00  0.00000000000E+00  0.99999998245E-14  0.12500000000E+03  0.12500000000E+03 0.  0.
        -11    1    3    3    0    0 -0.29834648308E+02  0.32182327064E+02  0.15475011020E+02  0.46532616316E+02  0.51100000000E-03 0. -1.
         23    2    1    0    0    0 -0.24280458242E+02 -0.87955013536E+01 -0.12349416328E+02  0.96374668908E+02  0.92025361868E+02 0.  0.
         11    1    3    3    0    0  0.55541900658E+01 -0.40977828417E+02 -0.27824427348E+02  0.49842052592E+02  0.51100000000E-03 0.  1.
         22    1    1    0    0    0  0.24280458242E+02  0.87955013536E+01  0.12349416328E+02  0.28625331092E+02  0.00000000000E+00 0.  1.
</event>
<event>
 5    1  0.1111613E-009  0.9118800E+02  0.7818608E-02  0.1130116E+00
         25   -1    0    0    0    0  0.00000000000E+00  0.00000000000E+00  0.99999998245E-14  0.12500000000E+03  0.12500000000E+03 0.  0.
        -11    1    3    3    0    0 -0.37690964923E+02  0.14589401749E+02 -0.17007403904E+02  0.43848731658E+02  0.51100000000E-03 0. -1.
         23    2    1    0    0    0 -0.83215114973E+00 -0.23140804062E+02 -0.16446907810E+02  0.96597710221E+02  0.92327826549E+02 0.  0.
         11    1    3    3    0    0  0.36858813773E+02 -0.37730205811E+02  0.56049609349E+00  0.52748978563E+02  0.51100000000E-03 0.  1.
         22    1    1    0    0    0  0.83215114973E+00  0.23140804062E+02  0.16446907810E+02  0.28402289779E+02  0.00000000000E+00 0.  1.
</event>
<event>
 5    1  0.1111613E-009  0.9118800E+02  0.7818608E-02  0.1130116E+00
         25   -1    0    0    0    0  0.00000000000E+00  0.00000000000E+00  0.99999998245E-14  0.12500000000E+03  0.12500000000E+03 0.  0.
        -11    1    3    3    0    0 -0.37893185371E+02 -0.11066320818E+02  0.32941167153E+01  0.39613232122E+02  0.51100000000E-03 0.  1.
         23    2    1    0    0    0  0.16604233539E+02 -0.21069545084E+02  0.11842105284E+02  0.95676600487E+02  0.91072224754E+02 0.  0.
         11    1    3    3    0    0  0.54497418910E+02 -0.10003224266E+02  0.85479885683E+01  0.56063368364E+02  0.51100000000E-03 0. -1.
         22    1    1    0    0    0 -0.16604233539E+02  0.21069545084E+02 -0.11842105284E+02  0.29323399513E+02  0.00000000000E+00 0. -1.
</event>
<event>
 5    1  0.1111613E-009  0.9118800E+02  0.7818608E-02  0.1130116E+00
         25   -1    0    0    0    0  0.00000000000E+00  0.00000000000E+00  0.99999998245E-14  0.12500000000E+03  0.12500000000E+03 0.  0.
        -11    1    3    3    0    0 -0.38579722027E+02 -0.35008041421E+02  0.34387194938E+02  0.62421447370E+02  0.51100000000E-03 0.  1.
         23    2    1    0    0    0 -0.16257957178E+02 -0.17447740480E+02  0.16825967103E+02  0.95813393681E+02  0.91259785340E+02 0.  0.
         11    1    3    3    0    0  0.22321764849E+02  0.17560300942E+02 -0.17561227835E+02  0.33391946311E+02  0.51100000000E-03 0. -1.
         22    1    1    0    0    0  0.16257957178E+02  0.17447740480E+02 -0.16825967103E+02  0.29186606319E+02  0.00000000000E+00 0.  1.
</event>
<event>
 5    1  0.1111613E-009  0.9118800E+02  0.7818608E-02  0.1130116E+00
         25   -1    0    0    0    0  0.00000000000E+00  0.00000000000E+00  0.99999998245E-14  0.12500000000E+03  0.12500000000E+03 0.  0.
        -11    1    3    3    0    0 -0.16267149845E+02 -0.28698444240E+02 -0.46307566804E+02  0.56856060446E+02  0.51100000000E-03 0.  1.
         23    2    1    0    0    0 -0.17165538445E+02  0.27977618211E+01 -0.23549399464E+02  0.95724457368E+02  0.91137886424E+02 0.  0.
         11    1    3    3    0    0 -0.89838859985E+00  0.31496206061E+02  0.22758167340E+02  0.38868396922E+02  0.51100000000E-03 0. -1.
         22    1    1    0    0    0  0.17165538445E+02 -0.27977618211E+01  0.23549399464E+02  0.29275542632E+02  0.00000000000E+00 0.  1.
</event>
<event>
 5    1  0.1111613E-009  0.9118800E+02  0.7818608E-02  0.1130116E+00
         25   -1    0    0    0    0  0.00000000000E+00  0.00000000000E+00  0.99999998245E-14  0.12500000000E+03  0.12500000000E+03 0.  0.
        -11    1    3    3    0    0  0.36735225134E+01 -0.21646910725E+02  0.39420593253E+02  0.45122795616E+02  0.51100000000E-03 0.  1.
         23    2    1    0    0    0 -0.24943667092E+02  0.96565224411E+01  0.11603843000E+02  0.95843797812E+02  0.91301420871E+02 0.  0.
         11    1    3    3    0    0 -0.28617189605E+02  0.31303433166E+02 -0.27816750253E+02  0.50721002196E+02  0.51100000000E-03 0. -1.
         22    1    1    0    0    0  0.24943667092E+02 -0.96565224411E+01 -0.11603843000E+02  0.29156202188E+02  0.00000000000E+00 0.  1.
</event>
<event>
 5    1  0.1111613E-009  0.9118800E+02  0.7818608E-02  0.1130116E+00
         25   -1    0    0    0    0  0.00000000000E+00  0.00000000000E+00  0.99999998245E-14  0.12500000000E+03  0.12500000000E+03 0.  0.
        -11    1    3    3    0    0  0.77053196962E+01  0.14216240525E+02  0.34431876758E+02  0.38039815768E+02  0.51100000000E-03 0. -1.
         23    2    1    0    0    0 -0.27855266610E+02  0.12132683016E+02 -0.81367862137E+01  0.93546460216E+02  0.88100028683E+02 0.  0.
         11    1    3    3    0    0 -0.35560586306E+02 -0.20835575091E+01 -0.42568662972E+02  0.55506644448E+02  0.51100000000E-03 0.  1.
         22    1    1    0    0    0  0.27855266610E+02 -0.12132683016E+02  0.81367862137E+01  0.31453539784E+02  0.00000000000E+00 0.  1.
</event>
<event>
 5    1  0.1111613E-009  0.9118800E+02  0.7818608E-02  0.1130116E+00
         25   -1    0    0    0    0  0.00000000000E+00  0.00000000000E+00  0.99999998245E-14  0.12500000000E+03  0.12500000000E+03 0.  0.
        -11    1    3    3    0    0 -0.34419669565E+02  0.41773151516E+00 -0.66720720475E+01  0.35062867798E+02  0.51100000000E-03 0.  1.
         23    2    1    0    0    0  0.19708955217E+02 -0.20758709917E+02 -0.13060813633E+02  0.93536500418E+02  0.88085896173E+02 0.  0.
         11    1    3    3    0    0  0.54128624782E+02 -0.21176441432E+02 -0.63887415858E+01  0.58473632620E+02  0.51100000000E-03 0. -1.
         22    1    1    0    0    0 -0.19708955217E+02  0.20758709917E+02  0.13060813633E+02  0.31463499582E+02  0.00000000000E+00 0. -1.
</event>
<event>
 5    1  0.1111613E-009  0.9118800E+02  0.7818608E-02  0.1130116E+00
         25   -1    0    0    0    0  0.00000000000E+00  0.00000000000E+00  0.99999998245E-14  0.12500000000E+03  0.12500000000E+03 0.  0.
        -11    1    3    3    0    0  0.32779805121E+02 -0.15206227597E+02  0.18287252487E+02  0.40498994868E+02  0.51100000000E-03 0.  1.
         23    2    1    0    0    0 -0.13641128348E+00  0.27949117587E+02  0.94915718626E+01  0.95482857212E+02  0.90805915573E+02 0.  0.
         11    1    3    3    0    0 -0.32916216405E+02  0.43155345184E+02 -0.87956806244E+01  0.54983862344E+02  0.51100000000E-03 0. -1.
         22    1    1    0    0    0  0.13641128348E+00 -0.27949117587E+02 -0.94915718626E+01  0.29517142788E+02  0.00000000000E+00 0.  1.
</event>
<event>
 5    1  0.1111613E-009  0.9118800E+02  0.7818608E-02  0.1130116E+00
         25   -1    0    0    0    0  0.00000000000E+00  0.00000000000E+00  0.99999998245E-14  0.12500000000E+03  0.12500000000E+03 0.  0.
        -11    1    3    3    0    0 -0.54662866052E+02 -0.16650386375E+02  0.13936460450E+02  0.58817422773E+02  0.51100000000E-03 0. -1.
         23    2    1    0    0    0 -0.17802744252E+02 -0.14818219954E+02  0.17606694245E+02  0.95905103063E+02  0.91385314826E+02 0.  0.
         11    1    3    3    0    0  0.36860121801E+02  0.18321664205E+01  0.36702337952E+01  0.37087680291E+02  0.51100000000E-03 0.  1.
         22    1    1    0    0    0  0.17802744252E+02  0.14818219954E+02 -0.17606694245E+02  0.29094896937E+02  0.00000000000E+00 0. -1.
</event>
<event>
 5    1  0.1111613E-009  0.9118800E+02  0.7818608E-02  0.1130116E+00
         25   -1    0    0    0    0  0.00000000000E+00  0.00000000000E+00  0.99999998245E-14  0.12500000000E+03  0.12500000000E+03 0.  0.
        -11    1    3    3    0    0 -0.19336775304E+02  0.30737839674E+02 -0.13564237090E+02  0.38764857733E+02  0.51100000000E-03 0.  1.
         23    2    1    0    0    0  0.28581598674E+02  0.11650890283E+01 -0.76866403651E+01  0.95379911288E+02  0.90664093345E+02 0.  0.
         11    1    3    3    0    0  0.47918373978E+02 -0.29572750646E+02  0.58775967249E+01  0.56615053555E+02  0.51100000000E-03 0. -1.
         22    1    1    0    0    0 -0.28581598674E+02 -0.11650890283E+01  0.76866403651E+01  0.29620088712E+02  0.00000000000E+00 0. -1.
</event>
<event>
 5    1  0.1111613E-009  0.9118800E+02  0.7818608E-02  0.1130116E+00
         25   -1    0    0    0    0  0.00000000000E+00  0.00000000000E+00  0.99999998245E-14  0.12500000000E+03  0.12500000000E+03 0.  0.
        -11    1    3    3    0    0  0.51914997127E+01 -0.34472403349E+02  0.24581739373E+02  0.42656302849E+02  0.51100000000E-03 0.  1.
         23    2    1    0    0    0  0.29287739546E+02  0.64796966486E+01  0.29645591504E+01  0.94857890463E+02  0.89941495517E+02 0.  0.
         11    1    3    3    0    0  0.24096239833E+02  0.40952099998E+02 -0.21617180222E+02  0.52201587613E+02  0.51100000000E-03 0. -1.
         22    1    1    0    0    0 -0.29287739546E+02 -0.64796966486E+01 -0.29645591504E+01  0.30142109537E+02  0.00000000000E+00 0. -1.
</event>
<event>
 5    1  0.1111613E-009  0.9118800E+02  0.7818608E-02  0.1130116E+00
         25   -1    0    0    0    0  0.00000000000E+00  0.00000000000E+00  0.99999998245E-14  0.12500000000E+03  0.12500000000E+03 0.  0.
        -11    1    3    3    0    0  0.29011655917E+02  0.18673462085E+02  0.10733353842E+02  0.36132800199E+02  0.51100000000E-03 0. -1.
         23    2    1    0    0    0 -0.23061514933E+02 -0.11930110781E+02  0.11653561790E+02  0.96540089307E+02  0.92249782259E+02 0.  0.
         11    1    3    3    0    0 -0.52073170850E+02 -0.30603572866E+02  0.92020794767E+00  0.60407289108E+02  0.51100000000E-03 0.  1.
         22    1    1    0    0    0  0.23061514933E+02  0.11930110781E+02 -0.11653561790E+02  0.28459910693E+02  0.00000000000E+00 0.  1.
</event>
<event>
 5    1  0.1111613E-009  0.9118800E+02  0.7818608E-02  0.1130116E+00
         25   -1    0    0    0    0  0.00000000000E+00  0.00000000000E+00  0.99999998245E-14  0.12500000000E+03  0.12500000000E+03 0.  0.
        -11    1    3    3    0    0  0.15500563188E+02  0.49316850412E+02  0.22042958683E+02  0.56198854272E+02  0.51100000000E-03 0.  1.
         23    2    1    0    0    0 -0.63746960088E+00  0.36651020719E+02  0.29417586042E+02  0.77998956865E+02  0.62247403289E+02 0.  0.
         11    1    3    3    0    0 -0.16138032789E+02 -0.12665829693E+02  0.73746273587E+01  0.21800102593E+02  0.51100000000E-03 0. -1.
         22    1    1    0    0    0  0.63746960088E+00 -0.36651020719E+02 -0.29417586042E+02  0.47001043135E+02  0.00000000000E+00 0.  1.
</event>
<event>
 5    1  0.1111613E-009  0.9118800E+02  0.7818608E-02  0.1130116E+00
         25   -1    0    0    0    0  0.00000000000E+00  0.00000000000E+00  0.99999998245E-14  0.12500000000E+03  0.12500000000E+03 0.  0.
        -11    1    3    3    0    0 -0.35140934376E+00 -0.15125530306E+02  0.59041665580E+02  0.60949351352E+02  0.51100000000E-03 0. -1.
         23    2    1    0    0    0  0.84055070415E+01 -0.10366092459E+02  0.44216681444E+02  0.78813169199E+02  0.63861508750E+02 0.  0.
         11    1    3    3    0    0  0.87569163853E+01  0.47594378470E+01 -0.14824984135E+02  0.17863817847E+02  0.51100000000E-03 0.  1.
         22    1    1    0    0    0 -0.84055070415E+01  0.10366092459E+02 -0.44216681444E+02  0.46186830801E+02  0.00000000000E+00 0. -1.
</event>
<event>
 5    1  0.1111613E-009  0.9118800E+02  0.7818608E-02  0.1130116E+00
         25   -1    0    0    0    0  0.00000000000E+00  0.00000000000E+00  0.99999998245E-14  0.12500000000E+03  0.12500000000E+03 0.  0.
        -11    1    3    3    0    0 -0.88208011451E+01  0.36967437138E+02 -0.43583880815E+02  0.57826919411E+02  0.51100000000E-03 0. -1.
         23    2    1    0    0    0 -0.18253141472E+02  0.90973253043E+01 -0.25439476421E+02  0.92394701936E+02  0.86450422116E+02 0.  0.
         11    1    3    3    0    0 -0.94323403265E+01 -0.27870111834E+02  0.18144404394E+02  0.34567782526E+02  0.51100000000E-03 0.  1.
         22    1    1    0    0    0  0.18253141472E+02 -0.90973253043E+01  0.25439476421E+02  0.32605298064E+02  0.00000000000E+00 0. -1.
</event>
<event>
 5    1  0.1111613E-009  0.9118800E+02  0.7818608E-02  0.1130116E+00
         25   -1    0    0    0    0  0.00000000000E+00  0.00000000000E+00  0.99999998245E-14  0.12500000000E+03  0.12500000000E+03 0.  0.
        -11    1    3    3    0    0 -0.34393794892E+02  0.41226741254E+01  0.86530643698E+01  0.35704412785E+02  0.51100000000E-03 0. -1.
         23    2    1    0    0    0  0.23253892589E+02 -0.11492000288E+02  0.13742501060E+02  0.95645853333E+02  0.91030013365E+02 0.  0.
         11    1    3    3    0    0  0.57647687481E+02 -0.15614674413E+02  0.50894366904E+01  0.59941440549E+02  0.51100000000E-03 0.  1.
         22    1    1    0    0    0 -0.23253892589E+02  0.11492000288E+02 -0.13742501060E+02  0.29354146667E+02  0.00000000000E+00 0.  1.
</event>
<event>
 5    1  0.1111613E-009  0.9118800E+02  0.7818608E-02  0.1130116E+00
         25   -1    0    0    0    0  0.00000000000E+00  0.00000000000E+00  0.99999998245E-14  0.12500000000E+03  0.12500000000E+03 0.  0.
        -11    1    3    3    0    0  0.36895538847E+02 -0.10623508495E+02 -0.31345687484E+02  0.49565026416E+02  0.51100000000E-03 0.  1.
         23    2    1    0    0    0  0.10576434799E+01 -0.27981784549E+02 -0.18632653639E+02  0.91365573323E+02  0.84949357447E+02 0.  0.
         11    1    3    3    0    0 -0.35837895367E+02 -0.17358276054E+02  0.12713033845E+02  0.41800546907E+02  0.51100000000E-03 0. -1.
         22    1    1    0    0    0 -0.10576434799E+01  0.27981784549E+02  0.18632653639E+02  0.33634426677E+02  0.00000000000E+00 0.  1.
</event>
<event>
 5    1  0.1111613E-009  0.9118800E+02  0.7818608E-02  0.1130116E+00
         25   -1    0    0    0    0  0.00000000000E+00  0.00000000000E+00  0.99999998245E-14  0.12500000000E+03  0.12500000000E+03 0.  0.
        -11    1    3    3    0    0 -0.27584308748E+02  0.20093515636E+02  0.37999980545E+02  0.51074866435E+02  0.51100000000E-03 0.  1.
         23    2    1    0    0    0 -0.48396641665E+01  0.28602176394E+02  0.21513143306E+00  0.95990464926E+02  0.91502001243E+02 0.  0.
         11    1    3    3    0    0  0.22744644582E+02  0.85086607582E+01 -0.37784849112E+02  0.44915598490E+02  0.51100000000E-03 0. -1.
         22    1    1    0    0    0  0.48396641665E+01 -0.28602176394E+02 -0.21513143306E+00  0.29009535074E+02  0.00000000000E+00 0. -1.
</event>
<event>
 5    1  0.1111613E-009  0.9118800E+02  0.7818608E-02  0.1130116E+00
         25   -1    0    0    0    0  0.00000000000E+00  0.00000000000E+00  0.99999998245E-14  0.12500000000E+03  0.12500000000E+03 0.  0.
        -11    1    3    3    0    0 -0.32379690640E+02  0.61326738967E+01 -0.93492833517E+01  0.34255848472E+02  0.51100000000E-03 0. -1.
         23    2    1    0    0    0  0.21769326503E+02 -0.17760789593E+02  0.77365080266E+01  0.95858915947E+02  0.91322116635E+02 0.  0.
         11    1    3    3    0    0  0.54149017143E+02 -0.23893463489E+02  0.17085791378E+02  0.61603067475E+02  0.51100000000E-03 0.  1.
         22    1    1    0    0    0 -0.21769326503E+02  0.17760789593E+02 -0.77365080266E+01  0.29141084053E+02  0.00000000000E+00 0.  1.
</event>
<event>
 5    1  0.1111613E-009  0.9118800E+02  0.7818608E-02  0.1130116E+00
         25   -1    0    0    0    0  0.00000000000E+00  0.00000000000E+00  0.99999998245E-14  0.12500000000E+03  0.12500000000E+03 0.  0.
        -11    1    3    3    0    0  0.36885919679E+02 -0.10106419371E+02  0.31662897938E+02  0.49651282856E+02  0.51100000000E-03 0.  1.
         23    2    1    0    0    0  0.22676621177E+02  0.19743186115E+02  0.73189093357E+00  0.94924125777E+02  0.90033501788E+02 0.  0.
         11    1    3    3    0    0 -0.14209298503E+02  0.29849605486E+02 -0.30931007005E+02  0.45272842921E+02  0.51100000000E-03 0. -1.
         22    1    1    0    0    0 -0.22676621177E+02 -0.19743186115E+02 -0.73189093357E+00  0.30075874223E+02  0.00000000000E+00 0.  1.
</event>
<event>
 5    1  0.1111613E-009  0.9118800E+02  0.7818608E-02  0.1130116E+00
         25   -1    0    0    0    0  0.00000000000E+00  0.00000000000E+00  0.99999998245E-14  0.12500000000E+03  0.12500000000E+03 0.  0.
        -11    1    3    3    0    0 -0.30254280680E+02 -0.55179739820E+00 -0.42423378698E+02  0.52109203028E+02  0.51100000000E-03 0. -1.
         23    2    1    0    0    0 -0.66398845809E+00 -0.17270936821E+02 -0.33588134582E+02  0.87225816699E+02  0.78622224432E+02 0.  0.
         11    1    3    3    0    0  0.29590292222E+02 -0.16719139423E+02  0.88352441157E+01  0.35116613670E+02  0.51100000000E-03 0.  1.
         22    1    1    0    0    0  0.66398845809E+00  0.17270936821E+02  0.33588134582E+02  0.37774183301E+02  0.00000000000E+00 0. -1.
</event>
<event>
 5    1  0.1111613E-009  0.9118800E+02  0.7818608E-02  0.1130116E+00
         25   -1    0    0    0    0  0.00000000000E+00  0.00000000000E+00  0.99999998245E-14  0.12500000000E+03  0.12500000000E+03 0.  0.
        -11    1    3    3    0    0 -0.46564144693E+02 -0.68993025684E+01  0.32688824514E+02  0.57309503534E+02  0.51100000000E-03 0. -1.
         23    2    1    0    0    0 -0.26895827152E+02 -0.21276734201E+02  0.14251465681E+02  0.87862563221E+02  0.79628140788E+02 0.  0.
         11    1    3    3    0    0  0.19668317542E+02 -0.14377431632E+02 -0.18437358833E+02  0.30553059687E+02  0.51100000000E-03 0.  1.
         22    1    1    0    0    0  0.26895827152E+02  0.21276734201E+02 -0.14251465681E+02  0.37137436779E+02  0.00000000000E+00 0. -1.
</event>
<event>
 5    1  0.1111613E-009  0.9118800E+02  0.7818608E-02  0.1130116E+00
         25   -1    0    0    0    0  0.00000000000E+00  0.00000000000E+00  0.99999998245E-14  0.12500000000E+03  0.12500000000E+03 0.  0.
        -11    1    3    3    0    0  0.22763388755E+02  0.31610463517E+02  0.37503837197E+02  0.54073386024E+02  0.51100000000E-03 0.  1.
         23    2    1    0    0    0 -0.40906228398E+01  0.27510657278E+02  0.44901133130E+01  0.96826775537E+02  0.92637432414E+02 0.  0.
         11    1    3    3    0    0 -0.26854011594E+02 -0.40998062392E+01 -0.33013723884E+02  0.42753389513E+02  0.51100000000E-03 0. -1.
         22    1    1    0    0    0  0.40906228398E+01 -0.27510657278E+02 -0.44901133130E+01  0.28173224463E+02  0.00000000000E+00 0.  1.
</event>
<event>
 5    1  0.1111613E-009  0.9118800E+02  0.7818608E-02  0.1130116E+00
         25   -1    0    0    0    0  0.00000000000E+00  0.00000000000E+00  0.99999998245E-14  0.12500000000E+03  0.12500000000E+03 0.  0.
        -11    1    3    3    0    0  0.51915077879E+02  0.10621755053E+02 -0.32130691452E+02  0.61970786061E+02  0.51100000000E-03 0.  1.
         23    2    1    0    0    0  0.27116533472E+02  0.11250843081E+02 -0.15934335110E+02  0.91596543697E+02  0.85288545094E+02 0.  0.
         11    1    3    3    0    0 -0.24798544407E+02  0.62908802782E+00  0.16196356342E+02  0.29625757635E+02  0.51100000000E-03 0. -1.
         22    1    1    0    0    0 -0.27116533472E+02 -0.11250843081E+02  0.15934335110E+02  0.33403456303E+02  0.00000000000E+00 0.  1.
</event>
<event>
 5    1  0.1111613E-009  0.9118800E+02  0.7818608E-02  0.1130116E+00
         25   -1    0    0    0    0  0.00000000000E+00  0.00000000000E+00  0.99999998245E-14  0.12500000000E+03  0.12500000000E+03 0.  0.
        -11    1    3    3    0    0  0.41933626543E+02  0.74855020085E+01  0.20058390202E+02  0.47082914025E+02  0.51100000000E-03 0.  1.
         23    2    1    0    0    0  0.16634188410E+01  0.27343289872E+02 -0.27940912541E+01  0.97464034261E+02  0.93493361075E+02 0.  0.
         11    1    3    3    0    0 -0.40270207702E+02  0.19857787863E+02 -0.22852481456E+02  0.50381120235E+02  0.51100000000E-03 0. -1.
         22    1    1    0    0    0 -0.16634188410E+01 -0.27343289872E+02  0.27940912541E+01  0.27535965739E+02  0.00000000000E+00 0. -1.
</event>
<event>
 5    1  0.1111613E-009  0.9118800E+02  0.7818608E-02  0.1130116E+00
         25   -1    0    0    0    0  0.00000000000E+00  0.00000000000E+00  0.99999998245E-14  0.12500000000E+03  0.12500000000E+03 0.  0.
        -11    1    3    3    0    0  0.31719830933E+02  0.23675291211E+02 -0.22322300271E+02  0.45441744883E+02  0.51100000000E-03 0. -1.
         23    2    1    0    0    0  0.39549897185E+01 -0.20408875974E+02 -0.17613386275E+02  0.97753063691E+02  0.93878996174E+02 0.  0.
         11    1    3    3    0    0 -0.27764841215E+02 -0.44084167185E+02  0.47089139962E+01  0.52311318807E+02  0.51100000000E-03 0.  1.
         22    1    1    0    0    0 -0.39549897185E+01  0.20408875974E+02  0.17613386275E+02  0.27246936309E+02  0.00000000000E+00 0. -1.
</event>
<event>
 5    1  0.1111613E-009  0.9118800E+02  0.7818608E-02  0.1130116E+00
         25   -1    0    0    0    0  0.00000000000E+00  0.00000000000E+00  0.99999998245E-14  0.12500000000E+03  0.12500000000E+03 0.  0.
        -11    1    3    3    0    0  0.27697049557E+02  0.20812074840E+02 -0.18723961395E+01  0.34695459081E+02  0.51100000000E-03 0.  1.
         23    2    1    0    0    0 -0.17647507485E+02 -0.17973474917E+02 -0.14849540354E+02  0.95759802159E+02  0.91186350622E+02 0.  0.
         11    1    3    3    0    0 -0.45344557042E+02 -0.38785549757E+02 -0.12977144215E+02  0.61064343078E+02  0.51100000000E-03 0. -1.
         22    1    1    0    0    0  0.17647507485E+02  0.17973474917E+02  0.14849540354E+02  0.29240197841E+02  0.00000000000E+00 0. -1.
</event>
<event>
 5    1  0.1111613E-009  0.9118800E+02  0.7818608E-02  0.1130116E+00
         25   -1    0    0    0    0  0.00000000000E+00  0.00000000000E+00  0.99999998245E-14  0.12500000000E+03  0.12500000000E+03 0.  0.
        -11    1    3    3    0    0 -0.16897092242E+02  0.22926554736E+02 -0.18833886640E+02  0.34144603154E+02  0.51100000000E-03 0.  1.
         23    2    1    0    0    0  0.61015807035E+01 -0.25072069075E+02  0.12941865225E+02  0.96132547561E+02  0.91695893530E+02 0.  0.
         11    1    3    3    0    0  0.22998672945E+02 -0.47998623811E+02  0.31775751865E+02  0.61987944408E+02  0.51100000000E-03 0. -1.
         22    1    1    0    0    0 -0.61015807035E+01  0.25072069075E+02 -0.12941865225E+02  0.28867452439E+02  0.00000000000E+00 0. -1.
</event>
<event>
 5    1  0.1111613E-009  0.9118800E+02  0.7818608E-02  0.1130116E+00
         25   -1    0    0    0    0  0.00000000000E+00  0.00000000000E+00  0.99999998245E-14  0.12500000000E+03  0.12500000000E+03 0.  0.
        -11    1    3    3    0    0  0.12725011643E+02  0.52421429770E+02  0.14000895936E+02  0.55731116153E+02  0.51100000000E-03 0.  1.
         23    2    1    0    0    0  0.17854402669E+02  0.22442031847E+02 -0.10160840951E+02  0.94575221004E+02  0.89547781944E+02 0.  0.
         11    1    3    3    0    0  0.51293910253E+01 -0.29979397922E+02 -0.24161736887E+02  0.38844104851E+02  0.51100000000E-03 0. -1.
         22    1    1    0    0    0 -0.17854402669E+02 -0.22442031847E+02  0.10160840951E+02  0.30424778996E+02  0.00000000000E+00 0. -1.
</event>
<event>
 5    1  0.1111613E-009  0.9118800E+02  0.7818608E-02  0.1130116E+00
         25   -1    0    0    0    0  0.00000000000E+00  0.00000000000E+00  0.99999998245E-14  0.12500000000E+03  0.12500000000E+03 0.  0.
        -11    1    3    3    0    0 -0.16938362783E+02 -0.44402714592E+01 -0.39692766070E+02  0.43383635428E+02  0.51100000000E-03 0. -1.
         23    2    1    0    0    0  0.20362483014E+02 -0.18464232714E+02 -0.33643646980E+01  0.97307445873E+02  0.93283768515E+02 0.  0.
         11    1    3    3    0    0  0.37300845797E+02 -0.14023961255E+02  0.36328401372E+02  0.53923810446E+02  0.51100000000E-03 0.  1.
         22    1    1    0    0    0 -0.20362483014E+02  0.18464232714E+02  0.33643646980E+01  0.27692554127E+02  0.00000000000E+00 0.  1.
</event>
<event>
 5    1  0.1111613E-009  0.9118800E+02  0.7818608E-02  0.1130116E+00
         25   -1    0    0    0    0  0.00000000000E+00  0.00000000000E+00  0.99999998245E-14  0.12500000000E+03  0.12500000000E+03 0.  0.
        -11    1    3    3    0    0 -0.46490415842E+02 -0.16459824531E+02 -0.21623102197E+01  0.49365576817E+02  0.51100000000E-03 0.  1.
         23    2    1    0    0    0 -0.10183800487E+02 -0.12257934391E+02  0.25311798688E+02  0.95089234367E+02  0.90262442864E+02 0.  0.
         11    1    3    3    0    0  0.36306615355E+02  0.42018901395E+01  0.27474108908E+02  0.45723657551E+02  0.51100000000E-03 0. -1.
         22    1    1    0    0    0  0.10183800487E+02  0.12257934391E+02 -0.25311798688E+02  0.29910765633E+02  0.00000000000E+00 0. -1.
</event>
<event>
 5    1  0.1111613E-009  0.9118800E+02  0.7818608E-02  0.1130116E+00
         25   -1    0    0    0    0  0.00000000000E+00  0.00000000000E+00  0.99999998245E-14  0.12500000000E+03  0.12500000000E+03 0.  0.
        -11    1    3    3    0    0  0.35589526873E+02 -0.40173776218E+02  0.14907177877E+02  0.55702519433E+02  0.51100000000E-03 0.  1.
         23    2    1    0    0    0 -0.40161304938E+00 -0.25454330631E+02 -0.44783416386E+01  0.99151599957E+02  0.95723037924E+02 0.  0.
         11    1    3    3    0    0 -0.35991139922E+02  0.14719445586E+02 -0.19385519516E+02  0.43449080525E+02  0.51100000000E-03 0. -1.
         22    1    1    0    0    0  0.40161304938E+00  0.25454330631E+02  0.44783416386E+01  0.25848400043E+02  0.00000000000E+00 0.  1.
</event>
<event>
 5    1  0.1111613E-009  0.9118800E+02  0.7818608E-02  0.1130116E+00
         25   -1    0    0    0    0  0.00000000000E+00  0.00000000000E+00  0.99999998245E-14  0.12500000000E+03  0.12500000000E+03 0.  0.
        -11    1    3    3    0    0  0.20520379438E+02  0.14567572415E+02 -0.38621989516E+02  0.46097269038E+02  0.51100000000E-03 0. -1.
         23    2    1    0    0    0  0.60585973096E+01 -0.25427319913E+02 -0.12315768382E+02  0.96104786726E+02  0.91658042099E+02 0.  0.
         11    1    3    3    0    0 -0.14461782128E+02 -0.39994892328E+02  0.26306221134E+02  0.50007517688E+02  0.51100000000E-03 0.  1.
         22    1    1    0    0    0 -0.60585973096E+01  0.25427319913E+02  0.12315768382E+02  0.28895213274E+02  0.00000000000E+00 0.  1.
</event>
<event>
 5    1  0.1111613E-009  0.9118800E+02  0.7818608E-02  0.1130116E+00
         25   -1    0    0    0    0  0.00000000000E+00  0.00000000000E+00  0.99999998245E-14  0.12500000000E+03  0.12500000000E+03 0.  0.
        -11    1    3    3    0    0 -0.17482725071E+01 -0.35650095206E+02  0.29828406594E+02  0.46515799307E+02  0.51100000000E-03 0.  1.
         23    2    1    0    0    0  0.10623194337E+02  0.93311583034E+01  0.28498946819E+02  0.93186280585E+02  0.87587499943E+02 0.  0.
         11    1    3    3    0    0  0.12371466844E+02  0.44981253510E+02 -0.13294597741E+01  0.46670481278E+02  0.51100000000E-03 0. -1.
         22    1    1    0    0    0 -0.10623194337E+02 -0.93311583034E+01 -0.28498946819E+02  0.31813719415E+02  0.00000000000E+00 0. -1.
</event>
<event>
 5    1  0.1111613E-009  0.9118800E+02  0.7818608E-02  0.1130116E+00
         25   -1    0    0    0    0  0.00000000000E+00  0.00000000000E+00  0.99999998245E-14  0.12500000000E+03  0.12500000000E+03 0.  0.
        -11    1    3    3    0    0 -0.26111149335E+02 -0.16495098793E+02 -0.40509927298E+02  0.50940500721E+02  0.51100000000E-03 0. -1.
         23    2    1    0    0    0  0.83290131060E+01  0.89191747815E+01 -0.26244217714E+02  0.96057244404E+02  0.91593182612E+02 0.  0.
         11    1    3    3    0    0  0.34440162441E+02  0.25414273575E+02  0.14265709584E+02  0.45116743682E+02  0.51100000000E-03 0.  1.
         22    1    1    0    0    0 -0.83290131060E+01 -0.89191747815E+01  0.26244217714E+02  0.28942755596E+02  0.00000000000E+00 0.  1.
</event>
<event>
 5    1  0.1111613E-009  0.9118800E+02  0.7818608E-02  0.1130116E+00
         25   -1    0    0    0    0  0.00000000000E+00  0.00000000000E+00  0.99999998245E-14  0.12500000000E+03  0.12500000000E+03 0.  0.
        -11    1    3    3    0    0 -0.13335020608E+02  0.33363158924E+02 -0.41987175957E+02  0.55261615006E+02  0.51100000000E-03 0. -1.
         23    2    1    0    0    0 -0.20095499825E+02 -0.17226147576E+00 -0.23256107777E+02  0.94263940784E+02  0.89112205650E+02 0.  0.
         11    1    3    3    0    0 -0.67604792171E+01 -0.33535420399E+02  0.18731068180E+02  0.39002325777E+02  0.51100000000E-03 0.  1.
         22    1    1    0    0    0  0.20095499825E+02  0.17226147576E+00  0.23256107777E+02  0.30736059216E+02  0.00000000000E+00 0. -1.
</event>
<event>
 5    1  0.1111613E-009  0.9118800E+02  0.7818608E-02  0.1130116E+00
         25   -1    0    0    0    0  0.00000000000E+00  0.00000000000E+00  0.99999998245E-14  0.12500000000E+03  0.12500000000E+03 0.  0.
        -11    1    3    3    0    0  0.26353145041E+02 -0.86490811729E+00  0.52677634160E+02  0.58908144264E+02  0.51100000000E-03 0.  1.
         23    2    1    0    0    0  0.51954389263E+00  0.92210230907E+01  0.26076542599E+02  0.97336246339E+02  0.93322353082E+02 0.  0.
         11    1    3    3    0    0 -0.25833601148E+02  0.10085931208E+02 -0.26601091562E+02  0.38428102076E+02  0.51100000000E-03 0. -1.
         22    1    1    0    0    0 -0.51954389263E+00 -0.92210230907E+01 -0.26076542599E+02  0.27663753661E+02  0.00000000000E+00 0.  1.
</event>
<event>
 5    1  0.1111613E-009  0.9118800E+02  0.7818608E-02  0.1130116E+00
         25   -1    0    0    0    0  0.00000000000E+00  0.00000000000E+00  0.99999998245E-14  0.12500000000E+03  0.12500000000E+03 0.  0.
        -11    1    3    3    0    0  0.24963863254E+02  0.16512962111E+02  0.15826758080E+02  0.33857918687E+02  0.51100000000E-03 0. -1.
         23    2    1    0    0    0  0.23906855751E+02 -0.31894088483E+02 -0.10311060282E+01  0.85127279855E+02  0.75211833935E+02 0.  0.
         11    1    3    3    0    0 -0.10570075025E+01 -0.48407050594E+02 -0.16857864109E+02  0.51269361169E+02  0.51100000000E-03 0.  1.
         22    1    1    0    0    0 -0.23906855751E+02  0.31894088483E+02  0.10311060282E+01  0.39872720145E+02  0.00000000000E+00 0.  1.
</event>
<event>
 5    1  0.1111613E-009  0.9118800E+02  0.7818608E-02  0.1130116E+00
         25   -1    0    0    0    0  0.00000000000E+00  0.00000000000E+00  0.99999998245E-14  0.12500000000E+03  0.12500000000E+03 0.  0.
        -11    1    3    3    0    0 -0.34372871441E+02  0.21846896146E+02  0.60727987965E+01  0.41178392972E+02  0.51100000000E-03 0. -1.
         23    2    1    0    0    0 -0.10573608380E+02 -0.26166902778E+02 -0.60855524214E+01  0.96128873534E+02  0.91690884953E+02 0.  0.
         11    1    3    3    0    0  0.23799263061E+02 -0.48013798924E+02 -0.12158351218E+02  0.54950480561E+02  0.51100000000E-03 0.  1.
         22    1    1    0    0    0  0.10573608380E+02  0.26166902778E+02  0.60855524214E+01  0.28871126466E+02  0.00000000000E+00 0.  1.
</event>
<event>
 5    1  0.1111613E-009  0.9118800E+02  0.7818608E-02  0.1130116E+00
         25   -1    0    0    0    0  0.00000000000E+00  0.00000000000E+00  0.99999998245E-14  0.12500000000E+03  0.12500000000E+03 0.  0.
        -11    1    3    3    0    0 -0.42454568978E+02 -0.34321926181E+02 -0.22145903269E+01  0.54637802430E+02  0.51100000000E-03 0. -1.
         23    2    1    0    0    0 -0.42801272083E+01 -0.28206985341E+02  0.93258664935E+01  0.94984582348E+02  0.90117398914E+02 0.  0.
         11    1    3    3    0    0  0.38174441769E+02  0.61149408399E+01  0.11540456820E+02  0.40346779918E+02  0.51100000000E-03 0.  1.
         22    1    1    0    0    0  0.42801272083E+01  0.28206985341E+02 -0.93258664935E+01  0.30015417652E+02  0.00000000000E+00 0. -1.
</event>
<event>
 5    1  0.1111613E-009  0.9118800E+02  0.7818608E-02  0.1130116E+00
         25   -1    0    0    0    0  0.00000000000E+00  0.00000000000E+00  0.99999998245E-14  0.12500000000E+03  0.12500000000E+03 0.  0.
        -11    1    3    3    0    0 -0.35234943114E+01 -0.60830825154E+02  0.99335157656E+01  0.61737177104E+02  0.51100000000E-03 0.  1.
         23    2    1    0    0    0 -0.80437954826E+01 -0.24400760158E+02  0.25543931291E+01  0.99180924372E+02  0.95761323576E+02 0.  0.
         11    1    3    3    0    0 -0.45203011712E+01  0.36430064996E+02 -0.73791226365E+01  0.37443747268E+02  0.51100000000E-03 0. -1.
         22    1    1    0    0    0  0.80437954826E+01  0.24400760158E+02 -0.25543931291E+01  0.25819075628E+02  0.00000000000E+00 0.  1.
</event>
<event>
 5    1  0.1111613E-009  0.9118800E+02  0.7818608E-02  0.1130116E+00
         25   -1    0    0    0    0  0.00000000000E+00  0.00000000000E+00  0.99999998245E-14  0.12500000000E+03  0.12500000000E+03 0.  0.
        -11    1    3    3    0    0  0.14085852082E+02 -0.95333092006E+00 -0.45274700132E+02  0.47424872599E+02  0.51100000000E-03 0.  1.
         23    2    1    0    0    0  0.13042609124E+02 -0.25764320211E+02 -0.36521753779E+01  0.95892471185E+02  0.91368034872E+02 0.  0.
         11    1    3    3    0    0 -0.10432429587E+01 -0.24810989291E+02  0.41622524754E+02  0.48467598586E+02  0.51100000000E-03 0. -1.
         22    1    1    0    0    0 -0.13042609124E+02  0.25764320211E+02  0.36521753779E+01  0.29107528815E+02  0.00000000000E+00 0.  1.
</event>
<event>
 5    1  0.1111613E-009  0.9118800E+02  0.7818608E-02  0.1130116E+00
         25   -1    0    0    0    0  0.00000000000E+00  0.00000000000E+00  0.99999998245E-14  0.12500000000E+03  0.12500000000E+03 0.  0.
        -11    1    3    3    0    0  0.73573811565E+01 -0.15991750091E+01  0.48977747376E+02  0.49553084228E+02  0.51100000000E-03 0.  1.
         23    2    1    0    0    0 -0.24469367291E+02 -0.27954136725E+01  0.14816447396E+02  0.96258194444E+02  0.91867015903E+02 0.  0.
         11    1    3    3    0    0 -0.31826748447E+02 -0.11962386634E+01 -0.34161299980E+02  0.46705110216E+02  0.51100000000E-03 0. -1.
         22    1    1    0    0    0  0.24469367291E+02  0.27954136725E+01 -0.14816447396E+02  0.28741805556E+02  0.00000000000E+00 0.  1.
</event>
<event>
 5    1  0.1111613E-009  0.9118800E+02  0.7818608E-02  0.1130116E+00
         25   -1    0    0    0    0  0.00000000000E+00  0.00000000000E+00  0.99999998245E-14  0.12500000000E+03  0.12500000000E+03 0.  0.
        -11    1    3    3    0    0 -0.33705288382E+02 -0.69937015044E+01 -0.25764124577E+02  0.42997074798E+02  0.51100000000E-03 0. -1.
         23    2    1    0    0    0  0.15745190099E+02  0.12226349230E+02 -0.20650771813E+02  0.96297230042E+02  0.91920114831E+02 0.  0.
         11    1    3    3    0    0  0.49450478482E+02  0.19220050735E+02  0.51133527638E+01  0.53300155244E+02  0.51100000000E-03 0.  1.
         22    1    1    0    0    0 -0.15745190099E+02 -0.12226349230E+02  0.20650771813E+02  0.28702769958E+02  0.00000000000E+00 0. -1.
</event>
<event>
 5    1  0.1111613E-009  0.9118800E+02  0.7818608E-02  0.1130116E+00
         25   -1    0    0    0    0  0.00000000000E+00  0.00000000000E+00  0.99999998245E-14  0.12500000000E+03  0.12500000000E+03 0.  0.
        -11    1    3    3    0    0 -0.14687864489E+02 -0.29413249161E+02  0.72022190725E+01  0.33656270579E+02  0.51100000000E-03 0. -1.
         23    2    1    0    0    0  0.61577221239E+01  0.28238819678E+02 -0.34933662876E+01  0.95887252164E+02  0.91360894484E+02 0.  0.
         11    1    3    3    0    0  0.20845586613E+02  0.57652068838E+02 -0.10695585360E+02  0.62230981585E+02  0.51100000000E-03 0.  1.
         22    1    1    0    0    0 -0.61577221239E+01 -0.28238819678E+02  0.34933662876E+01  0.29112747836E+02  0.00000000000E+00 0.  1.
</event>
<event>
 5    1  0.1111613E-009  0.9118800E+02  0.7818608E-02  0.1130116E+00
         25   -1    0    0    0    0  0.00000000000E+00  0.00000000000E+00  0.99999998245E-14  0.12500000000E+03  0.12500000000E+03 0.  0.
        -11    1    3    3    0    0  0.34541321312E+02  0.37150357075E+02  0.31843975296E+02  0.59893995289E+02  0.51100000000E-03 0.  1.
         23    2    1    0    0    0  0.93675395442E+01  0.27022877185E+02  0.10090944191E+02  0.94671567084E+02  0.89682170865E+02 0.  0.
         11    1    3    3    0    0 -0.25173781768E+02 -0.10127479890E+02 -0.21753031105E+02  0.34777571795E+02  0.51100000000E-03 0. -1.
         22    1    1    0    0    0 -0.93675395442E+01 -0.27022877185E+02 -0.10090944191E+02  0.30328432916E+02  0.00000000000E+00 0.  1.
</event>
<event>
 5    1  0.1111613E-009  0.9118800E+02  0.7818608E-02  0.1130116E+00
         25   -1    0    0    0    0  0.00000000000E+00  0.00000000000E+00  0.99999998245E-14  0.12500000000E+03  0.12500000000E+03 0.  0.
        -11    1    3    3    0    0  0.43859016907E+02  0.10090720814E+02 -0.41700404005E+02  0.61354378043E+02  0.51100000000E-03 0. -1.
         23    2    1    0    0    0  0.13149005223E+02  0.11083121053E+02 -0.17481882095E+02  0.10047759979E+03  0.97439211546E+02 0.  0.
         11    1    3    3    0    0 -0.30710011684E+02  0.99240023924E+00  0.24218521910E+02  0.39123221744E+02  0.51100000000E-03 0.  1.
         22    1    1    0    0    0 -0.13149005223E+02 -0.11083121053E+02  0.17481882095E+02  0.24522400213E+02  0.00000000000E+00 0. -1.
</event>
<event>
 5    1  0.1111613E-009  0.9118800E+02  0.7818608E-02  0.1130116E+00
         25   -1    0    0    0    0  0.00000000000E+00  0.00000000000E+00  0.99999998245E-14  0.12500000000E+03  0.12500000000E+03 0.  0.
        -11    1    3    3    0    0 -0.33292964062E+02 -0.48545825365E+02 -0.15770367982E+02  0.60941144746E+02  0.51100000000E-03 0.  1.
         23    2    1    0    0    0 -0.17263643719E+02 -0.23064207636E+02  0.23779916633E+01  0.96092459241E+02  0.91641228769E+02 0.  0.
         11    1    3    3    0    0  0.16029320343E+02  0.25481617728E+02  0.18148359645E+02  0.35151314496E+02  0.51100000000E-03 0. -1.
         22    1    1    0    0    0  0.17263643719E+02  0.23064207636E+02 -0.23779916633E+01  0.28907540759E+02  0.00000000000E+00 0.  1.
</event>
<event>
 5    1  0.1111613E-009  0.9118800E+02  0.7818608E-02  0.1130116E+00
         25   -1    0    0    0    0  0.00000000000E+00  0.00000000000E+00  0.99999998245E-14  0.12500000000E+03  0.12500000000E+03 0.  0.
        -11    1    3    3    0    0 -0.17967348649E+02  0.21035181232E+02 -0.31747648770E+02  0.42109591184E+02  0.51100000000E-03 0. -1.
         23    2    1    0    0    0 -0.21345573345E+02 -0.18869733316E+02  0.45375162158E+01  0.96150573831E+02  0.91720463681E+02 0.  0.
         11    1    3    3    0    0 -0.33782246958E+01 -0.39904914548E+02  0.36285164986E+02  0.54040982648E+02  0.51100000000E-03 0.  1.
         22    1    1    0    0    0  0.21345573345E+02  0.18869733316E+02 -0.45375162158E+01  0.28849426169E+02  0.00000000000E+00 0.  1.
</event>
<event>
 5    1  0.1111613E-009  0.9118800E+02  0.7818608E-02  0.1130116E+00
         25   -1    0    0    0    0  0.00000000000E+00  0.00000000000E+00  0.99999998245E-14  0.12500000000E+03  0.12500000000E+03 0.  0.
        -11    1    3    3    0    0  0.26539871639E+01  0.19221974391E+01  0.34071641550E+02  0.34228865728E+02  0.51100000000E-03 0.  1.
         23    2    1    0    0    0 -0.20679619099E+02 -0.27702229749E+02 -0.67226183701E+01  0.89782763072E+02  0.82587473432E+02 0.  0.
         11    1    3    3    0    0 -0.23333606262E+02 -0.29624427188E+02 -0.40794259920E+02  0.55553897344E+02  0.51100000000E-03 0. -1.
         22    1    1    0    0    0  0.20679619099E+02  0.27702229749E+02  0.67226183701E+01  0.35217236928E+02  0.00000000000E+00 0. -1.
</event>
<event>
 5    1  0.1111613E-009  0.9118800E+02  0.7818608E-02  0.1130116E+00
         25   -1    0    0    0    0  0.00000000000E+00  0.00000000000E+00  0.99999998245E-14  0.12500000000E+03  0.12500000000E+03 0.  0.
        -11    1    3    3    0    0  0.17196226237E+02 -0.29979966842E+02  0.26342596988E+02  0.43456196623E+02  0.51100000000E-03 0. -1.
         23    2    1    0    0    0 -0.63212642596E+01  0.17552807426E+02  0.21234513967E+02  0.96734048507E+02  0.92512226904E+02 0.  0.
         11    1    3    3    0    0 -0.23517490497E+02  0.47532774268E+02 -0.51080830207E+01  0.53277851883E+02  0.51100000000E-03 0.  1.
         22    1    1    0    0    0  0.63212642596E+01 -0.17552807426E+02 -0.21234513967E+02  0.28265951493E+02  0.00000000000E+00 0.  1.
</event>
<event>
 5    1  0.1111613E-009  0.9118800E+02  0.7818608E-02  0.1130116E+00
         25   -1    0    0    0    0  0.00000000000E+00  0.00000000000E+00  0.99999998245E-14  0.12500000000E+03  0.12500000000E+03 0.  0.
        -11    1    3    3    0    0  0.50115374184E+02  0.65565601577E+01 -0.13613813601E+02  0.52343816557E+02  0.51100000000E-03 0. -1.
         23    2    1    0    0    0  0.22678114585E+02  0.28046421150E+02 -0.28496210797E+01  0.88819632938E+02  0.81116633525E+02 0.  0.
         11    1    3    3    0    0 -0.27437259599E+02  0.21489860992E+02  0.10764192521E+02  0.36475816381E+02  0.51100000000E-03 0.  1.
         22    1    1    0    0    0 -0.22678114585E+02 -0.28046421150E+02  0.28496210797E+01  0.36180367062E+02  0.00000000000E+00 0. -1.
</event>
<event>
 5    1  0.1111613E-009  0.9118800E+02  0.7818608E-02  0.1130116E+00
         25   -1    0    0    0    0  0.00000000000E+00  0.00000000000E+00  0.99999998245E-14  0.12500000000E+03  0.12500000000E+03 0.  0.
        -11    1    3    3    0    0 -0.94140163625E+01  0.11947321198E+02  0.39521272200E+02  0.42347292056E+02  0.51100000000E-03 0. -1.
         23    2    1    0    0    0 -0.41245757478E+00  0.28145307329E+02 -0.99259152971E+01  0.95152852056E+02  0.90350500906E+02 0.  0.
         11    1    3    3    0    0  0.90015587877E+01  0.16197986132E+02 -0.49447187497E+02  0.52805560000E+02  0.51100000000E-03 0.  1.
         22    1    1    0    0    0  0.41245757478E+00 -0.28145307329E+02  0.99259152971E+01  0.29847147944E+02  0.00000000000E+00 0.  1.
</event>
<event>
 5    1  0.1111613E-009  0.9118800E+02  0.7818608E-02  0.1130116E+00
         25   -1    0    0    0    0  0.00000000000E+00  0.00000000000E+00  0.99999998245E-14  0.12500000000E+03  0.12500000000E+03 0.  0.
        -11    1    3    3    0    0 -0.17367042671E+02 -0.37265658448E+02  0.16612708276E+02  0.44343269469E+02  0.51100000000E-03 0. -1.
         23    2    1    0    0    0 -0.26484253107E+02  0.54659279224E+01 -0.10752022883E+02  0.95898487552E+02  0.91376265452E+02 0.  0.
         11    1    3    3    0    0 -0.91172104362E+01  0.42731586371E+02 -0.27364731158E+02  0.51555218083E+02  0.51100000000E-03 0.  1.
         22    1    1    0    0    0  0.26484253107E+02 -0.54659279224E+01  0.10752022883E+02  0.29101512448E+02  0.00000000000E+00 0. -1.
</event>
<event>
 5    1  0.1111613E-009  0.9118800E+02  0.7818608E-02  0.1130116E+00
         25   -1    0    0    0    0  0.00000000000E+00  0.00000000000E+00  0.99999998245E-14  0.12500000000E+03  0.12500000000E+03 0.  0.
        -11    1    3    3    0    0  0.18037337777E+02  0.74129856545E+01 -0.56668476878E+02  0.59930077443E+02  0.51100000000E-03 0.  1.
         23    2    1    0    0    0 -0.14115358635E+01 -0.44281521193E+01 -0.28369598733E+02  0.96252215791E+02  0.91858880614E+02 0.  0.
         11    1    3    3    0    0 -0.19448873641E+02 -0.11841137774E+02  0.28298878145E+02  0.36322138348E+02  0.51100000000E-03 0. -1.
         22    1    1    0    0    0  0.14115358635E+01  0.44281521193E+01  0.28369598733E+02  0.28747784209E+02  0.00000000000E+00 0.  1.
</event>
<event>
 5    1  0.1111613E-009  0.9118800E+02  0.7818608E-02  0.1130116E+00
         25   -1    0    0    0    0  0.00000000000E+00  0.00000000000E+00  0.99999998245E-14  0.12500000000E+03  0.12500000000E+03 0.  0.
        -11    1    3    3    0    0 -0.89603703415E+00 -0.30381970477E+02  0.18666688441E+02  0.35669486540E+02  0.51100000000E-03 0.  1.
         23    2    1    0    0    0 -0.29211848015E+01  0.86627630731E+01 -0.27414222170E+02  0.96101620082E+02  0.91653723441E+02 0.  0.
         11    1    3    3    0    0 -0.20251477673E+01  0.39044733550E+02 -0.46080910611E+02  0.60432133542E+02  0.51100000000E-03 0. -1.
         22    1    1    0    0    0  0.29211848015E+01 -0.86627630731E+01  0.27414222170E+02  0.28898379918E+02  0.00000000000E+00 0. -1.
</event>
<event>
 5    1  0.1111613E-009  0.9118800E+02  0.7818608E-02  0.1130116E+00
         25   -1    0    0    0    0  0.00000000000E+00  0.00000000000E+00  0.99999998245E-14  0.12500000000E+03  0.12500000000E+03 0.  0.
        -11    1    3    3    0    0 -0.28083105176E+02  0.27988520025E+02  0.69215259779E+01  0.40248298990E+02  0.51100000000E-03 0.  1.
         23    2    1    0    0    0  0.13784144681E+02  0.93016832052E+01 -0.24182644757E+02  0.95651673600E+02  0.91038005251E+02 0.  0.
         11    1    3    3    0    0  0.41867249856E+02 -0.18686836820E+02 -0.31104170735E+02  0.55403374610E+02  0.51100000000E-03 0. -1.
         22    1    1    0    0    0 -0.13784144681E+02 -0.93016832052E+01  0.24182644757E+02  0.29348326400E+02  0.00000000000E+00 0. -1.
</event>
<event>
 5    1  0.1111613E-009  0.9118800E+02  0.7818608E-02  0.1130116E+00
         25   -1    0    0    0    0  0.00000000000E+00  0.00000000000E+00  0.99999998245E-14  0.12500000000E+03  0.12500000000E+03 0.  0.
        -11    1    3    3    0    0  0.35423519043E+02  0.22729575433E+02  0.24513602105E+02  0.48707042501E+02  0.51100000000E-03 0. -1.
         23    2    1    0    0    0  0.24716781652E+02 -0.14206085090E+02 -0.34897778304E+01  0.96278741356E+02  0.91894969062E+02 0.  0.
         11    1    3    3    0    0 -0.10706737392E+02 -0.36935660524E+02 -0.28003379935E+02  0.47571698855E+02  0.51100000000E-03 0.  1.
         22    1    1    0    0    0 -0.24716781652E+02  0.14206085090E+02  0.34897778304E+01  0.28721258644E+02  0.00000000000E+00 0.  1.
</event>
<event>
 5    1  0.1111613E-009  0.9118800E+02  0.7818608E-02  0.1130116E+00
         25   -1    0    0    0    0  0.00000000000E+00  0.00000000000E+00  0.99999998245E-14  0.12500000000E+03  0.12500000000E+03 0.  0.
        -11    1    3    3    0    0 -0.16338547219E+02 -0.41109117689E+02  0.39303547107E+02  0.59174965128E+02  0.51100000000E-03 0.  1.
         23    2    1    0    0    0  0.58066940879E+01 -0.23905320827E+02  0.15818789912E+02  0.95752501400E+02  0.91176342053E+02 0.  0.
         11    1    3    3    0    0  0.22145241307E+02  0.17203796862E+02 -0.23484757195E+02  0.36577536273E+02  0.51100000000E-03 0. -1.
         22    1    1    0    0    0 -0.58066940879E+01  0.23905320827E+02 -0.15818789912E+02  0.29247498600E+02  0.00000000000E+00 0.  1.
</event>
<event>
 5    1  0.1111613E-009  0.9118800E+02  0.7818608E-02  0.1130116E+00
         25   -1    0    0    0    0  0.00000000000E+00  0.00000000000E+00  0.99999998245E-14  0.12500000000E+03  0.12500000000E+03 0.  0.
        -11    1    3    3    0    0 -0.35882336117E+02  0.32179821019E+02  0.32164294013E+02  0.57945014761E+02  0.51100000000E-03 0.  1.
         23    2    1    0    0    0  0.95261252844E+00  0.18800924560E+02  0.15836105528E+02  0.10039990908E+03  0.97339494914E+02 0.  0.
         11    1    3    3    0    0  0.36834948646E+02 -0.13378896459E+02 -0.16328188485E+02  0.42454894319E+02  0.51100000000E-03 0. -1.
         22    1    1    0    0    0 -0.95261252844E+00 -0.18800924560E+02 -0.15836105528E+02  0.24600090920E+02  0.00000000000E+00 0.  1.
</event>
<event>
 5    1  0.1111613E-009  0.9118800E+02  0.7818608E-02  0.1130116E+00
         25   -1    0    0    0    0  0.00000000000E+00  0.00000000000E+00  0.99999998245E-14  0.12500000000E+03  0.12500000000E+03 0.  0.
        -11    1    3    3    0    0 -0.50461029059E+02  0.32474595548E+02  0.49562215640E+01  0.60211950161E+02  0.51100000000E-03 0.  1.
         23    2    1    0    0    0 -0.28107519288E+02  0.76147010881E+01 -0.57514157494E+01  0.95316753946E+02  0.90576975476E+02 0.  0.
         11    1    3    3    0    0  0.22353509771E+02 -0.24859894460E+02 -0.10707637313E+02  0.35104803785E+02  0.51100000000E-03 0. -1.
         22    1    1    0    0    0  0.28107519288E+02 -0.76147010881E+01  0.57514157494E+01  0.29683246054E+02  0.00000000000E+00 0.  1.
</event>
<event>
 5    1  0.1111613E-009  0.9118800E+02  0.7818608E-02  0.1130116E+00
         25   -1    0    0    0    0  0.00000000000E+00  0.00000000000E+00  0.99999998245E-14  0.12500000000E+03  0.12500000000E+03 0.  0.
        -11    1    3    3    0    0  0.46045060609E+02 -0.36922184729E+02 -0.30007255740E+01  0.59096528543E+02  0.51100000000E-03 0.  1.
         23    2    1    0    0    0  0.10026315395E+02 -0.25209763600E+02 -0.64030455071E+01  0.97124236819E+02  0.93037944972E+02 0.  0.
         11    1    3    3    0    0 -0.36018745214E+02  0.11712421128E+02 -0.34023199331E+01  0.38027708275E+02  0.51100000000E-03 0. -1.
         22    1    1    0    0    0 -0.10026315395E+02  0.25209763600E+02  0.64030455071E+01  0.27875763181E+02  0.00000000000E+00 0.  1.
</event>
<event>
 5    1  0.1111613E-009  0.9118800E+02  0.7818608E-02  0.1130116E+00
         25   -1    0    0    0    0  0.00000000000E+00  0.00000000000E+00  0.99999998245E-14  0.12500000000E+03  0.12500000000E+03 0.  0.
        -11    1    3    3    0    0 -0.26465538254E+01 -0.21122494304E+02  0.48727857819E+02  0.53174882611E+02  0.51100000000E-03 0. -1.
         23    2    1    0    0    0 -0.19177045389E+02  0.60074386679E+01  0.25516053063E+02  0.92520508731E+02  0.86632137124E+02 0.  0.
         11    1    3    3    0    0 -0.16530491563E+02  0.27129932972E+02 -0.23211804756E+02  0.39345626119E+02  0.51100000000E-03 0.  1.
         22    1    1    0    0    0  0.19177045389E+02 -0.60074386679E+01 -0.25516053063E+02  0.32479491269E+02  0.00000000000E+00 0. -1.
</event>
<event>
 5    1  0.1111613E-009  0.9118800E+02  0.7818608E-02  0.1130116E+00
         25   -1    0    0    0    0  0.00000000000E+00  0.00000000000E+00  0.99999998245E-14  0.12500000000E+03  0.12500000000E+03 0.  0.
        -11    1    3    3    0    0 -0.25764405402E+02  0.37717054457E+02  0.11426353359E+02  0.47084417104E+02  0.51100000000E-03 0.  1.
         23    2    1    0    0    0 -0.18877283994E+02  0.22849642251E+01 -0.21749759401E+02  0.96110123806E+02  0.91665320331E+02 0.  0.
         11    1    3    3    0    0  0.68871214077E+01 -0.35432090232E+02 -0.33176112761E+02  0.49025706702E+02  0.51100000000E-03 0. -1.
         22    1    1    0    0    0  0.18877283994E+02 -0.22849642251E+01  0.21749759401E+02  0.28889876194E+02  0.00000000000E+00 0. -1.
</event>
<event>
 5    1  0.1111613E-009  0.9118800E+02  0.7818608E-02  0.1130116E+00
         25   -1    0    0    0    0  0.00000000000E+00  0.00000000000E+00  0.99999998245E-14  0.12500000000E+03  0.12500000000E+03 0.  0.
        -11    1    3    3    0    0 -0.44423437154E+02  0.24054413797E+02  0.26530779423E+02  0.57060834631E+02  0.51100000000E-03 0.  1.
         23    2    1    0    0    0 -0.11730429912E+02  0.23790963595E+01  0.26097220775E+02  0.96288886863E+02  0.91908768438E+02 0.  0.
         11    1    3    3    0    0  0.32693007242E+02 -0.21675317438E+02 -0.43355864849E+00  0.39228052232E+02  0.51100000000E-03 0. -1.
         22    1    1    0    0    0  0.11730429912E+02 -0.23790963595E+01 -0.26097220775E+02  0.28711113137E+02  0.00000000000E+00 0.  1.
</event>
<event>
 5    1  0.1111613E-009  0.9118800E+02  0.7818608E-02  0.1130116E+00
         25   -1    0    0    0    0  0.00000000000E+00  0.00000000000E+00  0.99999998245E-14  0.12500000000E+03  0.12500000000E+03 0.  0.
        -11    1    3    3    0    0  0.27857528687E+02  0.27899511621E+02  0.79774118994E+01  0.40225163196E+02  0.51100000000E-03 0.  1.
         23    2    1    0    0    0 -0.54290320865E+01 -0.10722724167E+02  0.27630493706E+02  0.94868697582E+02  0.89956513914E+02 0.  0.
         11    1    3    3    0    0 -0.33286560774E+02 -0.38622235788E+02  0.19653081807E+02  0.54643534386E+02  0.51100000000E-03 0. -1.
         22    1    1    0    0    0  0.54290320865E+01  0.10722724167E+02 -0.27630493706E+02  0.30131302418E+02  0.00000000000E+00 0. -1.
</event>
<event>
 5    1  0.1111613E-009  0.9118800E+02  0.7818608E-02  0.1130116E+00
         25   -1    0    0    0    0  0.00000000000E+00  0.00000000000E+00  0.99999998245E-14  0.12500000000E+03  0.12500000000E+03 0.  0.
        -11    1    3    3    0    0  0.23725148533E+02  0.72510716186E+01 -0.39489041352E+02  0.46635234530E+02  0.51100000000E-03 0.  1.
         23    2    1    0    0    0 -0.12577902512E+02  0.23392648197E+02 -0.23753861847E+02  0.89367633058E+02  0.81956746302E+02 0.  0.
         11    1    3    3    0    0 -0.36303051045E+02  0.16141576579E+02  0.15735179505E+02  0.42732398528E+02  0.51100000000E-03 0. -1.
         22    1    1    0    0    0  0.12577902512E+02 -0.23392648197E+02  0.23753861847E+02  0.35632366942E+02  0.00000000000E+00 0.  1.
</event>
<event>
 5    1  0.1111613E-009  0.9118800E+02  0.7818608E-02  0.1130116E+00
         25   -1    0    0    0    0  0.00000000000E+00  0.00000000000E+00  0.99999998245E-14  0.12500000000E+03  0.12500000000E+03 0.  0.
        -11    1    3    3    0    0 -0.21358988773E+02  0.35062109848E+02  0.36799599218E+01  0.41220141359E+02  0.51100000000E-03 0. -1.
         23    2    1    0    0    0 -0.12697066866E+02 -0.14369551300E+02 -0.20502705758E+02  0.96927585516E+02  0.92773360288E+02 0.  0.
         11    1    3    3    0    0  0.86619219068E+01 -0.49431661147E+02 -0.24182665680E+02  0.55707444157E+02  0.51100000000E-03 0.  1.
         22    1    1    0    0    0  0.12697066866E+02  0.14369551300E+02  0.20502705758E+02  0.28072414484E+02  0.00000000000E+00 0.  1.
</event>
<event>
 5    1  0.1111613E-009  0.9118800E+02  0.7818608E-02  0.1130116E+00
         25   -1    0    0    0    0  0.00000000000E+00  0.00000000000E+00  0.99999998245E-14  0.12500000000E+03  0.12500000000E+03 0.  0.
        -11    1    3    3    0    0 -0.22934406701E+02 -0.20152057607E+02  0.34104943971E+02  0.45773787696E+02  0.51100000000E-03 0.  1.
         23    2    1    0    0    0 -0.24498926908E+02 -0.86829474235E+01 -0.14155654446E+02  0.95403149687E+02  0.90696126829E+02 0.  0.
         11    1    3    3    0    0 -0.15645202074E+01  0.11469110183E+02 -0.48260598417E+02  0.49629361992E+02  0.51100000000E-03 0. -1.
         22    1    1    0    0    0  0.24498926908E+02  0.86829474235E+01  0.14155654446E+02  0.29596850313E+02  0.00000000000E+00 0.  1.
</event>
<event>
 5    1  0.1111613E-009  0.9118800E+02  0.7818608E-02  0.1130116E+00
         25   -1    0    0    0    0  0.00000000000E+00  0.00000000000E+00  0.99999998245E-14  0.12500000000E+03  0.12500000000E+03 0.  0.
        -11    1    3    3    0    0  0.55987284489E+02 -0.13220201761E+02  0.20431048389E+01  0.57563217741E+02  0.51100000000E-03 0. -1.
         23    2    1    0    0    0  0.24304195968E+02  0.33865533689E+01  0.15717054057E+02  0.95859161412E+02  0.91322452623E+02 0.  0.
         11    1    3    3    0    0 -0.31683088521E+02  0.16606755130E+02  0.13673949218E+02  0.38295943671E+02  0.51100000000E-03 0.  1.
         22    1    1    0    0    0 -0.24304195968E+02 -0.33865533689E+01 -0.15717054057E+02  0.29140838588E+02  0.00000000000E+00 0. -1.
</event>
<event>
 5    1  0.1111613E-009  0.9118800E+02  0.7818608E-02  0.1130116E+00
         25   -1    0    0    0    0  0.00000000000E+00  0.00000000000E+00  0.99999998245E-14  0.12500000000E+03  0.12500000000E+03 0.  0.
        -11    1    3    3    0    0  0.35824023017E+02 -0.45677275770E+02 -0.65199165053E+01  0.58414753773E+02  0.51100000000E-03 0.  1.
         23    2    1    0    0    0  0.10332714475E+02 -0.22514588995E+02  0.11948352068E+02  0.97496639784E+02  0.93536944284E+02 0.  0.
         11    1    3    3    0    0 -0.25491308542E+02  0.23162686775E+02  0.18468268574E+02  0.39081886011E+02  0.51100000000E-03 0. -1.
         22    1    1    0    0    0 -0.10332714475E+02  0.22514588995E+02 -0.11948352068E+02  0.27503360216E+02  0.00000000000E+00 0.  1.
</event>
<event>
 5    1  0.1111613E-009  0.9118800E+02  0.7818608E-02  0.1130116E+00
         25   -1    0    0    0    0  0.00000000000E+00  0.00000000000E+00  0.99999998245E-14  0.12500000000E+03  0.12500000000E+03 0.  0.
        -11    1    3    3    0    0 -0.38382122358E+02 -0.13206778836E+02  0.33965244833E+02  0.52926781318E+02  0.51100000000E-03 0.  1.
         23    2    1    0    0    0  0.34332815556E+01  0.19066355456E+01  0.26740380734E+02  0.97972779589E+02  0.94171093746E+02 0.  0.
         11    1    3    3    0    0  0.41815403913E+02  0.15113414382E+02 -0.72248640989E+01  0.45045998271E+02  0.51100000000E-03 0. -1.
         22    1    1    0    0    0 -0.34332815556E+01 -0.19066355456E+01 -0.26740380734E+02  0.27027220411E+02  0.00000000000E+00 0. -1.
</event>
<event>
 5    1  0.1111613E-009  0.9118800E+02  0.7818608E-02  0.1130116E+00
         25   -1    0    0    0    0  0.00000000000E+00  0.00000000000E+00  0.99999998245E-14  0.12500000000E+03  0.12500000000E+03 0.  0.
        -11    1    3    3    0    0 -0.25426697926E+01 -0.22871717979E+01  0.35725617531E+02  0.35888940814E+02  0.51100000000E-03 0.  1.
         23    2    1    0    0    0  0.20673430107E+02 -0.20581478036E+02 -0.13145424330E+02  0.93003279366E+02  0.87325940255E+02 0.  0.
         11    1    3    3    0    0  0.23216099900E+02 -0.18294306238E+02 -0.48871041862E+02  0.57114338551E+02  0.51100000000E-03 0. -1.
         22    1    1    0    0    0 -0.20673430107E+02  0.20581478036E+02  0.13145424330E+02  0.31996720634E+02  0.00000000000E+00 0. -1.
</event>
<event>
 5    1  0.1111613E-009  0.9118800E+02  0.7818608E-02  0.1130116E+00
         25   -1    0    0    0    0  0.00000000000E+00  0.00000000000E+00  0.99999998245E-14  0.12500000000E+03  0.12500000000E+03 0.  0.
        -11    1    3    3    0    0  0.14412381941E+02 -0.49828667381E+02 -0.22620388178E+02  0.56588822287E+02  0.51100000000E-03 0.  1.
         23    2    1    0    0    0  0.21043441829E+02 -0.18282829867E+02  0.18536432708E+01  0.97062134918E+02  0.92954471272E+02 0.  0.
         11    1    3    3    0    0  0.66310598878E+01  0.31545837514E+02  0.24474031449E+02  0.40473312631E+02  0.51100000000E-03 0. -1.
         22    1    1    0    0    0 -0.21043441829E+02  0.18282829867E+02 -0.18536432708E+01  0.27937865082E+02  0.00000000000E+00 0.  1.
</event>
<event>
 5    1  0.1111613E-009  0.9118800E+02  0.7818608E-02  0.1130116E+00
         25   -1    0    0    0    0  0.00000000000E+00  0.00000000000E+00  0.99999998245E-14  0.12500000000E+03  0.12500000000E+03 0.  0.
        -11    1    3    3    0    0 -0.12978287852E+02  0.18949212066E+02  0.24770930885E+02  0.33780284348E+02  0.51100000000E-03 0. -1.
         23    2    1    0    0    0  0.20412810522E+02 -0.42077121932E+01 -0.21292022142E+02  0.95205069522E+02  0.90422714958E+02 0.  0.
         11    1    3    3    0    0  0.33391098374E+02 -0.23156924259E+02 -0.46062953027E+02  0.61424785173E+02  0.51100000000E-03 0.  1.
         22    1    1    0    0    0 -0.20412810522E+02  0.42077121932E+01  0.21292022142E+02  0.29794930478E+02  0.00000000000E+00 0.  1.
</event>
<event>
 5    1  0.1111613E-009  0.9118800E+02  0.7818608E-02  0.1130116E+00
         25   -1    0    0    0    0  0.00000000000E+00  0.00000000000E+00  0.99999998245E-14  0.12500000000E+03  0.12500000000E+03 0.  0.
        -11    1    3    3    0    0  0.59062354243E+02  0.27574789029E+01  0.19774843324E+02  0.62345888456E+02  0.51100000000E-03 0. -1.
         23    2    1    0    0    0  0.35391468752E+02 -0.11416963759E+01  0.10501384140E+02  0.88065753021E+02  0.79946471188E+02 0.  0.
         11    1    3    3    0    0 -0.23670885491E+02 -0.38991752788E+01 -0.92734591840E+01  0.25719864566E+02  0.51100000000E-03 0.  1.
         22    1    1    0    0    0 -0.35391468752E+02  0.11416963759E+01 -0.10501384140E+02  0.36934246979E+02  0.00000000000E+00 0. -1.
</event>
<event>
 5    1  0.1111613E-009  0.9118800E+02  0.7818608E-02  0.1130116E+00
         25   -1    0    0    0    0  0.00000000000E+00  0.00000000000E+00  0.99999998245E-14  0.12500000000E+03  0.12500000000E+03 0.  0.
        -11    1    3    3    0    0 -0.24334684944E+02  0.21904051900E+02 -0.32286861097E+02  0.45982668264E+02  0.51100000000E-03 0.  1.
         23    2    1    0    0    0 -0.68114207701E+01 -0.22215349942E+02 -0.18151757050E+02  0.95514350780E+02  0.90849258087E+02 0.  0.
         11    1    3    3    0    0  0.17523264174E+02 -0.44119401841E+02  0.14135104047E+02  0.49531682515E+02  0.51100000000E-03 0. -1.
         22    1    1    0    0    0  0.68114207701E+01  0.22215349942E+02  0.18151757050E+02  0.29485649220E+02  0.00000000000E+00 0. -1.
</event>
<event>
 5    1  0.1111613E-009  0.9118800E+02  0.7818608E-02  0.1130116E+00
         25   -1    0    0    0    0  0.00000000000E+00  0.00000000000E+00  0.99999998245E-14  0.12500000000E+03  0.12500000000E+03 0.  0.
        -11    1    3    3    0    0  0.78329471280E+01  0.19278067954E+02 -0.48697627308E+02  0.52957132385E+02  0.51100000000E-03 0.  1.
         23    2    1    0    0    0 -0.17267014450E+02 -0.44048487708E+01 -0.22578685095E+02  0.96236316277E+02  0.91837242278E+02 0.  0.
         11    1    3    3    0    0 -0.25099961578E+02 -0.23682916725E+02  0.26118942213E+02  0.43279183892E+02  0.51100000000E-03 0. -1.
         22    1    1    0    0    0  0.17267014450E+02  0.44048487708E+01  0.22578685095E+02  0.28763683723E+02  0.00000000000E+00 0.  1.
</event>
<event>
 4    1  0.1111613E-009  0.9118800E+02  0.7818608E-02  0.1130116E+00
         25   -1    0    0    0    0  0.00000000000E+00  0.00000000000E+00  0.99999998245E-14  0.12500000000E+03  0.12500000000E+03 0.  0.
        -11    1    1    0    0    0 -0.37215198796E+01  0.45038344412E+02 -0.39294214570E+02  0.59886037408E+02  0.51100000000E-03 0.  1.
         11    1    1    0    0    0 -0.13585841142E+01 -0.13677001962E+02 -0.10243290008E+01  0.13782430251E+02  0.51100000000E-03 0. -1.
         22    1    1    0    0    0  0.50801039938E+01 -0.31361342450E+02  0.40318543570E+02  0.51331532341E+02  0.00000000000E+00 0.  1.
</event>
<event>
 5    1  0.1111613E-009  0.9118800E+02  0.7818608E-02  0.1130116E+00
         25   -1    0    0    0    0  0.00000000000E+00  0.00000000000E+00  0.99999998245E-14  0.12500000000E+03  0.12500000000E+03 0.  0.
        -11    1    3    3    0    0 -0.26678593109E+02  0.43805632498E+02  0.66956863027E+00  0.51294532762E+02  0.51100000000E-03 0. -1.
         23    2    1    0    0    0 -0.16430360657E+01  0.16701931925E+02  0.24562144101E+02  0.95251840051E+02  0.90487347252E+02 0.  0.
         11    1    3    3    0    0  0.25035557043E+02 -0.27103700573E+02  0.23892575470E+02  0.43957307289E+02  0.51100000000E-03 0.  1.
         22    1    1    0    0    0  0.16430360657E+01 -0.16701931925E+02 -0.24562144101E+02  0.29748159949E+02  0.00000000000E+00 0. -1.
</event>
<event>
 5    1  0.1111613E-009  0.9118800E+02  0.7818608E-02  0.1130116E+00
         25   -1    0    0    0    0  0.00000000000E+00  0.00000000000E+00  0.99999998245E-14  0.12500000000E+03  0.12500000000E+03 0.  0.
        -11    1    3    3    0    0  0.13202919898E+02 -0.55056116368E+02 -0.19153552045E+02  0.59769152575E+02  0.51100000000E-03 0.  1.
         23    2    1    0    0    0 -0.69920199021E+01 -0.26050808483E+02 -0.94412230325E+01  0.96422567343E+02  0.92090400345E+02 0.  0.
         11    1    3    3    0    0 -0.20194939800E+02  0.29005307885E+02  0.97123290121E+01  0.36653414768E+02  0.51100000000E-03 0. -1.
         22    1    1    0    0    0  0.69920199021E+01  0.26050808483E+02  0.94412230325E+01  0.28577432657E+02  0.00000000000E+00 0.  1.
</event>
<event>
 5    1  0.1111613E-009  0.9118800E+02  0.7818608E-02  0.1130116E+00
         25   -1    0    0    0    0  0.00000000000E+00  0.00000000000E+00  0.99999998245E-14  0.12500000000E+03  0.12500000000E+03 0.  0.
        -11    1    3    3    0    0  0.47653878119E+02 -0.22068209695E+02 -0.79645902031E+01  0.53116218580E+02  0.51100000000E-03 0. -1.
         23    2    1    0    0    0  0.14380908844E+02  0.14153979674E+02 -0.10277931958E+02  0.10235531928E+03  0.99818985263E+02 0.  0.
         11    1    3    3    0    0 -0.33272969274E+02  0.36222189368E+02 -0.23133417545E+01  0.49239100696E+02  0.51100000000E-03 0.  1.
         22    1    1    0    0    0 -0.14380908844E+02 -0.14153979674E+02  0.10277931958E+02  0.22644680724E+02  0.00000000000E+00 0. -1.
</event>
<event>
 5    1  0.1111613E-009  0.9118800E+02  0.7818608E-02  0.1130116E+00
         25   -1    0    0    0    0  0.00000000000E+00  0.00000000000E+00  0.99999998245E-14  0.12500000000E+03  0.12500000000E+03 0.  0.
        -11    1    3    3    0    0 -0.13446737958E+02 -0.51004499823E+02 -0.30784976617E+02  0.61073632195E+02  0.51100000000E-03 0.  1.
         23    2    1    0    0    0  0.33464007184E+01 -0.23912594553E+02 -0.13713440687E+02  0.97231870220E+02  0.93182442310E+02 0.  0.
         11    1    3    3    0    0  0.16793138676E+02  0.27091905271E+02  0.17071535930E+02  0.36158238025E+02  0.51100000000E-03 0. -1.
         22    1    1    0    0    0 -0.33464007184E+01  0.23912594553E+02  0.13713440687E+02  0.27768129780E+02  0.00000000000E+00 0.  1.
</event>
<event>
 5    1  0.1111613E-009  0.9118800E+02  0.7818608E-02  0.1130116E+00
         25   -1    0    0    0    0  0.00000000000E+00  0.00000000000E+00  0.99999998245E-14  0.12500000000E+03  0.12500000000E+03 0.  0.
        -11    1    3    3    0    0 -0.43456604941E+02 -0.16736358262E+02 -0.40536905247E+02  0.61739961841E+02  0.51100000000E-03 0.  1.
         23    2    1    0    0    0 -0.21680433771E+02 -0.15625600844E+02 -0.21103495162E+02  0.90947714933E+02  0.84332252035E+02 0.  0.
         11    1    3    3    0    0  0.21776171171E+02  0.11107574188E+01  0.19433410085E+02  0.29207753092E+02  0.51100000000E-03 0. -1.
         22    1    1    0    0    0  0.21680433771E+02  0.15625600844E+02  0.21103495162E+02  0.34052285067E+02  0.00000000000E+00 0.  1.
</event>
<event>
 5    1  0.1111613E-009  0.9118800E+02  0.7818608E-02  0.1130116E+00
         25   -1    0    0    0    0  0.00000000000E+00  0.00000000000E+00  0.99999998245E-14  0.12500000000E+03  0.12500000000E+03 0.  0.
        -11    1    3    3    0    0 -0.37696662327E+02  0.14600033992E+02  0.43189982820E+01  0.40655295960E+02  0.51100000000E-03 0. -1.
         23    2    1    0    0    0  0.18026465352E+02  0.81358287966E+01  0.17847344986E+02  0.98360313696E+02  0.94684098053E+02 0.  0.
         11    1    3    3    0    0  0.55723127679E+02 -0.64642051954E+01  0.13528346704E+02  0.57705017736E+02  0.51100000000E-03 0.  1.
         22    1    1    0    0    0 -0.18026465352E+02 -0.81358287966E+01 -0.17847344986E+02  0.26639686304E+02  0.00000000000E+00 0.  1.
</event>
<event>
 5    1  0.1111613E-009  0.9118800E+02  0.7818608E-02  0.1130116E+00
         25   -1    0    0    0    0  0.00000000000E+00  0.00000000000E+00  0.99999998245E-14  0.12500000000E+03  0.12500000000E+03 0.  0.
        -11    1    3    3    0    0  0.29758807772E+02 -0.46450418945E+02  0.18082797006E+02  0.58053558099E+02  0.51100000000E-03 0. -1.
         23    2    1    0    0    0  0.70743610943E+01 -0.19006687453E+02  0.23378685740E+02  0.94050626827E+02  0.88812480581E+02 0.  0.
         11    1    3    3    0    0 -0.22684446678E+02  0.27443731492E+02  0.52958887347E+01  0.35997068728E+02  0.51100000000E-03 0.  1.
         22    1    1    0    0    0 -0.70743610943E+01  0.19006687453E+02 -0.23378685740E+02  0.30949373173E+02  0.00000000000E+00 0. -1.
</event>
<event>
 5    1  0.1111613E-009  0.9118800E+02  0.7818608E-02  0.1130116E+00
         25   -1    0    0    0    0  0.00000000000E+00  0.00000000000E+00  0.99999998245E-14  0.12500000000E+03  0.12500000000E+03 0.  0.
        -11    1    3    3    0    0  0.17844936537E+01 -0.45516780635E+01  0.36126662678E+02  0.36455972725E+02  0.51100000000E-03 0.  1.
         23    2    1    0    0    0  0.11258384205E+02 -0.25239384016E+02 -0.15811786707E+02  0.93159925891E+02  0.87549879912E+02 0.  0.
         11    1    3    3    0    0  0.94738905508E+01 -0.20687705953E+02 -0.51938449386E+02  0.56703953166E+02  0.51100000000E-03 0. -1.
         22    1    1    0    0    0 -0.11258384205E+02  0.25239384016E+02  0.15811786707E+02  0.31840074109E+02  0.00000000000E+00 0. -1.
</event>
<event>
 5    1  0.1111613E-009  0.9118800E+02  0.7818608E-02  0.1130116E+00
         25   -1    0    0    0    0  0.00000000000E+00  0.00000000000E+00  0.99999998245E-14  0.12500000000E+03  0.12500000000E+03 0.  0.
        -11    1    3    3    0    0  0.59386846041E+01  0.40509497082E+02 -0.10252707167E+02  0.42206697729E+02  0.51100000000E-03 0.  1.
         23    2    1    0    0    0  0.71488958509E+01  0.87639452434E+01  0.29681952583E+02  0.93236313860E+02  0.87658875562E+02 0.  0.
         11    1    3    3    0    0  0.12102112468E+01 -0.31745551839E+02  0.39934659749E+02  0.51029616130E+02  0.51100000000E-03 0. -1.
         22    1    1    0    0    0 -0.71488958509E+01 -0.87639452434E+01 -0.29681952583E+02  0.31763686140E+02  0.00000000000E+00 0. -1.
</event>
<event>
 5    1  0.1111613E-009  0.9118800E+02  0.7818608E-02  0.1130116E+00
         25   -1    0    0    0    0  0.00000000000E+00  0.00000000000E+00  0.99999998245E-14  0.12500000000E+03  0.12500000000E+03 0.  0.
        -11    1    3    3    0    0  0.24037336541E+02  0.31579046078E+02 -0.24317541407E+02  0.46544307058E+02  0.51100000000E-03 0. -1.
         23    2    1    0    0    0 -0.20269058035E+02  0.20435112435E+02 -0.11602151937E+02  0.93967138974E+02  0.88694896942E+02 0.  0.
         11    1    3    3    0    0 -0.44306394576E+02 -0.11143933642E+02  0.12715389470E+02  0.47422831916E+02  0.51100000000E-03 0.  1.
         22    1    1    0    0    0  0.20269058035E+02 -0.20435112435E+02  0.11602151937E+02  0.31032861026E+02  0.00000000000E+00 0. -1.
</event>
<event>
 5    1  0.1111613E-009  0.9118800E+02  0.7818608E-02  0.1130116E+00
         25   -1    0    0    0    0  0.00000000000E+00  0.00000000000E+00  0.99999998245E-14  0.12500000000E+03  0.12500000000E+03 0.  0.
        -11    1    3    3    0    0 -0.50459350266E+02  0.34789255861E+02 -0.92354084808E+01  0.61981699902E+02  0.51100000000E-03 0. -1.
         23    2    1    0    0    0 -0.28422798398E+02  0.14096663842E+02 -0.12443384507E+01  0.93249097990E+02  0.87677103611E+02 0.  0.
         11    1    3    3    0    0  0.22036551869E+02 -0.20692592019E+02  0.79910700301E+01  0.31267398088E+02  0.51100000000E-03 0.  1.
         22    1    1    0    0    0  0.28422798398E+02 -0.14096663842E+02  0.12443384507E+01  0.31750902010E+02  0.00000000000E+00 0. -1.
</event>
<event>
 5    1  0.1111613E-009  0.9118800E+02  0.7818608E-02  0.1130116E+00
         25   -1    0    0    0    0  0.00000000000E+00  0.00000000000E+00  0.99999998245E-14  0.12500000000E+03  0.12500000000E+03 0.  0.
        -11    1    3    3    0    0  0.14958893308E+02  0.19815429303E+02  0.51330474934E+02  0.57019622803E+02  0.51100000000E-03 0.  1.
         23    2    1    0    0    0  0.57342821453E+01 -0.88035449726E+01  0.28048208229E+02  0.95048599687E+02  0.90206152350E+02 0.  0.
         11    1    3    3    0    0 -0.92246111624E+01 -0.28618974276E+02 -0.23282266705E+02  0.38028976884E+02  0.51100000000E-03 0. -1.
         22    1    1    0    0    0 -0.57342821453E+01  0.88035449726E+01 -0.28048208229E+02  0.29951400313E+02  0.00000000000E+00 0.  1.
</event>
<event>
 5    1  0.1111613E-009  0.9118800E+02  0.7818608E-02  0.1130116E+00
         25   -1    0    0    0    0  0.00000000000E+00  0.00000000000E+00  0.99999998245E-14  0.12500000000E+03  0.12500000000E+03 0.  0.
        -11    1    3    3    0    0 -0.28122168078E+02  0.18477482846E+02 -0.12432547538E+02  0.35872579337E+02  0.51100000000E-03 0.  1.
         23    2    1    0    0    0  0.24216141032E+02 -0.77661692389E+01 -0.16697845049E+02  0.94577099080E+02  0.89550403517E+02 0.  0.
         11    1    3    3    0    0  0.52338309110E+02 -0.26243652085E+02 -0.42652975101E+01  0.58704519743E+02  0.51100000000E-03 0. -1.
         22    1    1    0    0    0 -0.24216141032E+02  0.77661692389E+01  0.16697845049E+02  0.30422900920E+02  0.00000000000E+00 0. -1.
</event>
<event>
 5    1  0.1111613E-009  0.9118800E+02  0.7818608E-02  0.1130116E+00
         25   -1    0    0    0    0  0.00000000000E+00  0.00000000000E+00  0.99999998245E-14  0.12500000000E+03  0.12500000000E+03 0.  0.
        -11    1    3    3    0    0  0.32756157773E+02 -0.21974197089E+02 -0.10121835450E+02  0.40722018158E+02  0.51100000000E-03 0.  1.
         23    2    1    0    0    0  0.18050442435E+02  0.26612747315E+02  0.15341455259E+01  0.92806671588E+02  0.87044057218E+02 0.  0.
         11    1    3    3    0    0 -0.14705715338E+02  0.48586944404E+02  0.11655980976E+02  0.52084653430E+02  0.51100000000E-03 0. -1.
         22    1    1    0    0    0 -0.18050442435E+02 -0.26612747315E+02 -0.15341455259E+01  0.32193328412E+02  0.00000000000E+00 0. -1.
</event>
<event>
 5    1  0.1111613E-009  0.9118800E+02  0.7818608E-02  0.1130116E+00
         25   -1    0    0    0    0  0.00000000000E+00  0.00000000000E+00  0.99999998245E-14  0.12500000000E+03  0.12500000000E+03 0.  0.
        -11    1    3    3    0    0  0.21375856086E+02 -0.20887039329E+02 -0.26381868659E+02  0.39864754227E+02  0.51100000000E-03 0.  1.
         23    2    1    0    0    0 -0.26025828393E+02 -0.17193447543E+02 -0.93024466435E+00  0.93793850974E+02  0.88450340550E+02 0.  0.
         11    1    3    3    0    0 -0.47401684479E+02  0.36935917868E+01  0.25451623994E+02  0.53929096747E+02  0.51100000000E-03 0. -1.
         22    1    1    0    0    0  0.26025828393E+02  0.17193447543E+02  0.93024466435E+00  0.31206149026E+02  0.00000000000E+00 0.  1.
</event>
<event>
 5    1  0.1111613E-009  0.9118800E+02  0.7818608E-02  0.1130116E+00
         25   -1    0    0    0    0  0.00000000000E+00  0.00000000000E+00  0.99999998245E-14  0.12500000000E+03  0.12500000000E+03 0.  0.
        -11    1    3    3    0    0 -0.32051233264E+02  0.13591485890E+02  0.47137693880E+02  0.58600104326E+02  0.51100000000E-03 0.  1.
         23    2    1    0    0    0 -0.15947953471E+02  0.18886187894E+02  0.12197005153E+02  0.97435670736E+02  0.93455431539E+02 0.  0.
         11    1    3    3    0    0  0.16103279794E+02  0.52947020033E+01 -0.34940688727E+02  0.38835566410E+02  0.51100000000E-03 0. -1.
         22    1    1    0    0    0  0.15947953471E+02 -0.18886187894E+02 -0.12197005153E+02  0.27564329264E+02  0.00000000000E+00 0.  1.
</event>
<event>
 5    1  0.1111613E-009  0.9118800E+02  0.7818608E-02  0.1130116E+00
         25   -1    0    0    0    0  0.00000000000E+00  0.00000000000E+00  0.99999998245E-14  0.12500000000E+03  0.12500000000E+03 0.  0.
        -11    1    3    3    0    0 -0.65868045636E+01  0.60787212532E+01 -0.61346435597E+02  0.61997758082E+02  0.51100000000E-03 0.  1.
         23    2    1    0    0    0 -0.84891964427E+01  0.19301696304E+01 -0.27385231074E+02  0.96264257587E+02  0.91875265424E+02 0.  0.
         11    1    3    3    0    0 -0.19023918791E+01 -0.41485516228E+01  0.33961204523E+02  0.34266499505E+02  0.51100000000E-03 0. -1.
         22    1    1    0    0    0  0.84891964427E+01 -0.19301696304E+01  0.27385231074E+02  0.28735742413E+02  0.00000000000E+00 0.  1.
</event>
<event>
 5    1  0.1111613E-009  0.9118800E+02  0.7818608E-02  0.1130116E+00
         25   -1    0    0    0    0  0.00000000000E+00  0.00000000000E+00  0.99999998245E-14  0.12500000000E+03  0.12500000000E+03 0.  0.
        -11    1    3    3    0    0 -0.14311770130E+02  0.18523763365E+02  0.49951068271E+02  0.55163990022E+02  0.51100000000E-03 0.  1.
         23    2    1    0    0    0 -0.17888013690E+02  0.21298606987E+02  0.98897887900E+01  0.95480182662E+02  0.90802233813E+02 0.  0.
         11    1    3    3    0    0 -0.35762435602E+01  0.27748436217E+01 -0.40061279481E+02  0.40316192640E+02  0.51100000000E-03 0. -1.
         22    1    1    0    0    0  0.17888013690E+02 -0.21298606987E+02 -0.98897887900E+01  0.29519817338E+02  0.00000000000E+00 0.  1.
</event>
<event>
 5    1  0.1111613E-009  0.9118800E+02  0.7818608E-02  0.1130116E+00
         25   -1    0    0    0    0  0.00000000000E+00  0.00000000000E+00  0.99999998245E-14  0.12500000000E+03  0.12500000000E+03 0.  0.
        -11    1    3    3    0    0  0.17655476656E+02 -0.45924621297E+02 -0.34697683328E+02  0.60205613740E+02  0.51100000000E-03 0. -1.
         23    2    1    0    0    0 -0.19602357057E+01 -0.25575590581E+02 -0.22066998528E+02  0.91163543602E+02  0.84651555806E+02 0.  0.
         11    1    3    3    0    0 -0.19615712362E+02  0.20349030716E+02  0.12630684800E+02  0.30957929862E+02  0.51100000000E-03 0.  1.
         22    1    1    0    0    0  0.19602357057E+01  0.25575590581E+02  0.22066998528E+02  0.33836456398E+02  0.00000000000E+00 0. -1.
</event>
<event>
 5    1  0.1111613E-009  0.9118800E+02  0.7818608E-02  0.1130116E+00
         25   -1    0    0    0    0  0.00000000000E+00  0.00000000000E+00  0.99999998245E-14  0.12500000000E+03  0.12500000000E+03 0.  0.
        -11    1    3    3    0    0  0.68594775993E+01 -0.40238342006E+02  0.23401951631E+01  0.40885854693E+02  0.51100000000E-03 0.  1.
         23    2    1    0    0    0 -0.38560665265E+01  0.44063743716E+01  0.29964823434E+02  0.94468442104E+02  0.89398604720E+02 0.  0.
         11    1    3    3    0    0 -0.10715544126E+02  0.44644716377E+02  0.27624628271E+02  0.53582587411E+02  0.51100000000E-03 0. -1.
         22    1    1    0    0    0  0.38560665265E+01 -0.44063743716E+01 -0.29964823434E+02  0.30531557896E+02  0.00000000000E+00 0. -1.
</event>
<event>
 5    1  0.1111613E-009  0.9118800E+02  0.7818608E-02  0.1130116E+00
         25   -1    0    0    0    0  0.00000000000E+00  0.00000000000E+00  0.99999998245E-14  0.12500000000E+03  0.12500000000E+03 0.  0.
        -11    1    3    3    0    0  0.16831181109E+02 -0.35211007945E+02  0.43641074666E+01  0.39270207184E+02  0.51100000000E-03 0. -1.
         23    2    1    0    0    0  0.17339018730E+02  0.15933617345E+02 -0.18263787841E+02  0.95199200036E+02  0.90414600640E+02 0.  0.
         11    1    3    3    0    0  0.50783762071E+00  0.51144625290E+02 -0.22627895308E+02  0.55928992852E+02  0.51100000000E-03 0.  1.
         22    1    1    0    0    0 -0.17339018730E+02 -0.15933617345E+02  0.18263787841E+02  0.29800799964E+02  0.00000000000E+00 0.  1.
</event>
<event>
 5    1  0.1111613E-009  0.9118800E+02  0.7818608E-02  0.1130116E+00
         25   -1    0    0    0    0  0.00000000000E+00  0.00000000000E+00  0.99999998245E-14  0.12500000000E+03  0.12500000000E+03 0.  0.
        -11    1    3    3    0    0 -0.14962514270E+02 -0.44037289581E+02  0.25689139321E+02  0.53132773184E+02  0.51100000000E-03 0. -1.
         23    2    1    0    0    0  0.13689646132E+02 -0.25468466093E+02 -0.36823085488E+00  0.96083140379E+02  0.91628516821E+02 0.  0.
         11    1    3    3    0    0  0.28652160402E+02  0.18568823488E+02 -0.26057370176E+02  0.42950367195E+02  0.51100000000E-03 0.  1.
         22    1    1    0    0    0 -0.13689646132E+02  0.25468466093E+02  0.36823085488E+00  0.28916859621E+02  0.00000000000E+00 0.  1.
</event>
<event>
 5    1  0.1111613E-009  0.9118800E+02  0.7818608E-02  0.1130116E+00
         25   -1    0    0    0    0  0.00000000000E+00  0.00000000000E+00  0.99999998245E-14  0.12500000000E+03  0.12500000000E+03 0.  0.
        -11    1    3    3    0    0 -0.35481122714E+02  0.63969634503E+01  0.15227227616E+02  0.39136934877E+02  0.51100000000E-03 0.  1.
         23    2    1    0    0    0  0.17412718160E+02 -0.84623297731E+01  0.23341661279E+02  0.94674318966E+02  0.89686006386E+02 0.  0.
         11    1    3    3    0    0  0.52893840874E+02 -0.14859293223E+02  0.81144336633E+01  0.55537384089E+02  0.51100000000E-03 0. -1.
         22    1    1    0    0    0 -0.17412718160E+02  0.84623297731E+01 -0.23341661279E+02  0.30325681034E+02  0.00000000000E+00 0. -1.
</event>
<event>
 5    1  0.1111613E-009  0.9118800E+02  0.7818608E-02  0.1130116E+00
         25   -1    0    0    0    0  0.00000000000E+00  0.00000000000E+00  0.99999998245E-14  0.12500000000E+03  0.12500000000E+03 0.  0.
        -11    1    3    3    0    0 -0.32407939048E+02  0.30405054881E+02  0.27477393494E+02  0.52247000192E+02  0.51100000000E-03 0.  1.
         23    2    1    0    0    0  0.63890312735E+01  0.10484030250E+02  0.26413574315E+02  0.95872495490E+02  0.91340702167E+02 0.  0.
         11    1    3    3    0    0  0.38796970321E+02 -0.19921024631E+02 -0.10638191791E+01  0.43625495297E+02  0.51100000000E-03 0. -1.
         22    1    1    0    0    0 -0.63890312735E+01 -0.10484030250E+02 -0.26413574315E+02  0.29127504510E+02  0.00000000000E+00 0.  1.
</event>
<event>
 5    1  0.1111613E-009  0.9118800E+02  0.7818608E-02  0.1130116E+00
         25   -1    0    0    0    0  0.00000000000E+00  0.00000000000E+00  0.99999998245E-14  0.12500000000E+03  0.12500000000E+03 0.  0.
        -11    1    3    3    0    0 -0.12394636811E+02 -0.43629161005E+01  0.14232733185E+02  0.19370925449E+02  0.51100000000E-03 0.  1.
         23    2    1    0    0    0 -0.24031047243E+02  0.29645552940E+02 -0.30065291498E+02  0.76417371484E+02  0.58985954862E+02 0.  0.
         11    1    3    3    0    0 -0.11636410432E+02  0.34008469040E+02 -0.44298024683E+02  0.57046446035E+02  0.51100000000E-03 0. -1.
         22    1    1    0    0    0  0.24031047243E+02 -0.29645552940E+02  0.30065291498E+02  0.48582628516E+02  0.00000000000E+00 0. -1.
</event>
<event>
 5    1  0.1111613E-009  0.9118800E+02  0.7818608E-02  0.1130116E+00
         25   -1    0    0    0    0  0.00000000000E+00  0.00000000000E+00  0.99999998245E-14  0.12500000000E+03  0.12500000000E+03 0.  0.
        -11    1    3    3    0    0  0.46841321717E+02  0.17975700515E+02 -0.28973469019E+02  0.57937010075E+02  0.51100000000E-03 0.  1.
         23    2    1    0    0    0  0.12260061022E+02  0.16663630376E+02 -0.24660826311E+02  0.92810839901E+02  0.87050042936E+02 0.  0.
         11    1    3    3    0    0 -0.34581260695E+02 -0.13120701392E+01  0.43126427081E+01  0.34873829825E+02  0.51100000000E-03 0. -1.
         22    1    1    0    0    0 -0.12260061022E+02 -0.16663630376E+02  0.24660826311E+02  0.32189160099E+02  0.00000000000E+00 0.  1.
</event>
<event>
 5    1  0.1111613E-009  0.9118800E+02  0.7818608E-02  0.1130116E+00
         25   -1    0    0    0    0  0.00000000000E+00  0.00000000000E+00  0.99999998245E-14  0.12500000000E+03  0.12500000000E+03 0.  0.
        -11    1    3    3    0    0 -0.31973179265E+02 -0.47644381506E+02 -0.19601043174E+02  0.60633919345E+02  0.51100000000E-03 0.  1.
         23    2    1    0    0    0 -0.15411463471E+02 -0.16403027802E+02 -0.18256865716E+02  0.96019218900E+02  0.91541273342E+02 0.  0.
         11    1    3    3    0    0  0.16561715794E+02  0.31241353704E+02  0.13441774579E+01  0.35385299555E+02  0.51100000000E-03 0. -1.
         22    1    1    0    0    0  0.15411463471E+02  0.16403027802E+02  0.18256865716E+02  0.28980781100E+02  0.00000000000E+00 0.  1.
</event>
<event>
 5    1  0.1111613E-009  0.9118800E+02  0.7818608E-02  0.1130116E+00
         25   -1    0    0    0    0  0.00000000000E+00  0.00000000000E+00  0.99999998245E-14  0.12500000000E+03  0.12500000000E+03 0.  0.
        -11    1    3    3    0    0  0.34280283651E+02  0.18338591908E+02 -0.32657903313E+02  0.50773816573E+02  0.51100000000E-03 0. -1.
         23    2    1    0    0    0 -0.94744279067E+01  0.18257056382E+01 -0.25050555255E+02  0.98155479072E+02  0.94413292327E+02 0.  0.
         11    1    3    3    0    0 -0.43754711558E+02 -0.16512886269E+02  0.76073480578E+01  0.47381662499E+02  0.51100000000E-03 0.  1.
         22    1    1    0    0    0  0.94744279067E+01 -0.18257056382E+01  0.25050555255E+02  0.26844520928E+02  0.00000000000E+00 0. -1.
</event>
<event>
 5    1  0.1111613E-009  0.9118800E+02  0.7818608E-02  0.1130116E+00
         25   -1    0    0    0    0  0.00000000000E+00  0.00000000000E+00  0.99999998245E-14  0.12500000000E+03  0.12500000000E+03 0.  0.
        -11    1    3    3    0    0  0.85319581611E+01 -0.36684401795E+02 -0.18275751187E+02  0.41863381694E+02  0.51100000000E-03 0. -1.
         23    2    1    0    0    0  0.26176790765E+02  0.12275989955E+02 -0.41325873037E+01  0.95793792065E+02  0.91232932739E+02 0.  0.
         11    1    3    3    0    0  0.17644832604E+02  0.48960391750E+02  0.14143163883E+02  0.53930410371E+02  0.51100000000E-03 0.  1.
         22    1    1    0    0    0 -0.26176790765E+02 -0.12275989955E+02  0.41325873037E+01  0.29206207935E+02  0.00000000000E+00 0.  1.
</event>
<event>
 5    1  0.1111613E-009  0.9118800E+02  0.7818608E-02  0.1130116E+00
         25   -1    0    0    0    0  0.00000000000E+00  0.00000000000E+00  0.99999998245E-14  0.12500000000E+03  0.12500000000E+03 0.  0.
        -11    1    3    3    0    0  0.52214053539E+02 -0.16805087981E+02 -0.25486212958E+02  0.60483596291E+02  0.51100000000E-03 0.  1.
         23    2    1    0    0    0  0.25106397808E+02 -0.15044697150E+02 -0.33222339982E+01  0.95543059189E+02  0.90888749563E+02 0.  0.
         11    1    3    3    0    0 -0.27107655731E+02  0.17603908314E+01  0.22163978960E+02  0.35059462898E+02  0.51100000000E-03 0. -1.
         22    1    1    0    0    0 -0.25106397808E+02  0.15044697150E+02  0.33222339982E+01  0.29456940811E+02  0.00000000000E+00 0.  1.
</event>
<event>
 5    1  0.1111613E-009  0.9118800E+02  0.7818608E-02  0.1130116E+00
         25   -1    0    0    0    0  0.00000000000E+00  0.00000000000E+00  0.99999998245E-14  0.12500000000E+03  0.12500000000E+03 0.  0.
        -11    1    3    3    0    0  0.21316457911E+02  0.24836318278E+02  0.63511079913E+01  0.33340225801E+02  0.51100000000E-03 0.  1.
         23    2    1    0    0    0 -0.24721261232E+02 -0.15745452008E+02 -0.34477509561E+01  0.95488188763E+02  0.90813254488E+02 0.  0.
         11    1    3    3    0    0 -0.46037719143E+02 -0.40581770286E+02 -0.97988589473E+01  0.62147962962E+02  0.51100000000E-03 0. -1.
         22    1    1    0    0    0  0.24721261232E+02  0.15745452008E+02  0.34477509561E+01  0.29511811237E+02  0.00000000000E+00 0. -1.
</event>
<event>
 5    1  0.1111613E-009  0.9118800E+02  0.7818608E-02  0.1130116E+00
         25   -1    0    0    0    0  0.00000000000E+00  0.00000000000E+00  0.99999998245E-14  0.12500000000E+03  0.12500000000E+03 0.  0.
        -11    1    3    3    0    0  0.20732939661E+02  0.10432890227E+02 -0.54926854480E+02  0.59629349559E+02  0.51100000000E-03 0.  1.
         23    2    1    0    0    0  0.13979926023E+02 -0.77416414200E+01 -0.26961756325E+02  0.93658212438E+02  0.88258444975E+02 0.  0.
         11    1    3    3    0    0 -0.67530136383E+01 -0.18174531647E+02  0.27965098155E+02  0.34028862879E+02  0.51100000000E-03 0. -1.
         22    1    1    0    0    0 -0.13979926023E+02  0.77416414200E+01  0.26961756325E+02  0.31341787562E+02  0.00000000000E+00 0.  1.
</event>
<event>
 5    1  0.1111613E-009  0.9118800E+02  0.7818608E-02  0.1130116E+00
         25   -1    0    0    0    0  0.00000000000E+00  0.00000000000E+00  0.99999998245E-14  0.12500000000E+03  0.12500000000E+03 0.  0.
        -11    1    3    3    0    0 -0.78541934119E+01  0.34331663157E+02 -0.45223300364E+02  0.57319266790E+02  0.51100000000E-03 0.  1.
         23    2    1    0    0    0  0.87898028715E+01  0.29695859480E+01 -0.25345123703E+02  0.98010106137E+02  0.94220626905E+02 0.  0.
         11    1    3    3    0    0  0.16643996283E+02 -0.31362077209E+02  0.19878176662E+02  0.40690839347E+02  0.51100000000E-03 0. -1.
         22    1    1    0    0    0 -0.87898028715E+01 -0.29695859480E+01  0.25345123703E+02  0.26989893863E+02  0.00000000000E+00 0.  1.
</event>
<event>
 5    1  0.1111613E-009  0.9118800E+02  0.7818608E-02  0.1130116E+00
         25   -1    0    0    0    0  0.00000000000E+00  0.00000000000E+00  0.99999998245E-14  0.12500000000E+03  0.12500000000E+03 0.  0.
        -11    1    3    3    0    0  0.22188769504E+02  0.37521464934E+02 -0.33310159960E+02  0.54861357801E+02  0.51100000000E-03 0.  1.
         23    2    1    0    0    0  0.55778847276E+01  0.47609994121E+00 -0.28743512369E+02  0.95716404379E+02  0.91126840694E+02 0.  0.
         11    1    3    3    0    0 -0.16610884777E+02 -0.37045364992E+02  0.45666475918E+01  0.40855046579E+02  0.51100000000E-03 0. -1.
         22    1    1    0    0    0 -0.55778847276E+01 -0.47609994121E+00  0.28743512369E+02  0.29283595621E+02  0.00000000000E+00 0.  1.
</event>
<event>
 5    1  0.1111613E-009  0.9118800E+02  0.7818608E-02  0.1130116E+00
         25   -1    0    0    0    0  0.00000000000E+00  0.00000000000E+00  0.99999998245E-14  0.12500000000E+03  0.12500000000E+03 0.  0.
        -11    1    3    3    0    0  0.14418668752E+02  0.93528833752E+01  0.28802168116E+02  0.33540115153E+02  0.51100000000E-03 0. -1.
         23    2    1    0    0    0 -0.24075928369E+02  0.99544973760E+01 -0.17393055211E+02  0.93674918765E+02  0.88282102893E+02 0.  0.
         11    1    3    3    0    0 -0.38494597121E+02  0.60161400074E+00 -0.46195223327E+02  0.60134803612E+02  0.51100000000E-03 0.  1.
         22    1    1    0    0    0  0.24075928369E+02 -0.99544973760E+01  0.17393055211E+02  0.31325081235E+02  0.00000000000E+00 0.  1.
</event>
<event>
 5    1  0.1111613E-009  0.9118800E+02  0.7818608E-02  0.1130116E+00
         25   -1    0    0    0    0  0.00000000000E+00  0.00000000000E+00  0.99999998245E-14  0.12500000000E+03  0.12500000000E+03 0.  0.
        -11    1    3    3    0    0  0.28852934460E+02 -0.10281734306E+01  0.19587574642E+02  0.34888709466E+02  0.51100000000E-03 0. -1.
         23    2    1    0    0    0  0.27030426843E+01  0.17421086284E+02 -0.27806366270E+02  0.92075925340E+02  0.85988262774E+02 0.  0.
         11    1    3    3    0    0 -0.26149891776E+02  0.18449259715E+02 -0.47393940913E+02  0.57187215874E+02  0.51100000000E-03 0.  1.
         22    1    1    0    0    0 -0.27030426843E+01 -0.17421086284E+02  0.27806366270E+02  0.32924074660E+02  0.00000000000E+00 0.  1.
</event>
<event>
 5    1  0.1111613E-009  0.9118800E+02  0.7818608E-02  0.1130116E+00
         25   -1    0    0    0    0  0.00000000000E+00  0.00000000000E+00  0.99999998245E-14  0.12500000000E+03  0.12500000000E+03 0.  0.
        -11    1    3    3    0    0 -0.40021959651E+02 -0.29742915481E+02  0.15966186931E+02  0.52357591627E+02  0.51100000000E-03 0. -1.
         23    2    1    0    0    0 -0.25326367021E+02 -0.19898436449E+01 -0.14194439759E+02  0.95899029840E+02  0.91377007283E+02 0.  0.
         11    1    3    3    0    0  0.14695592630E+02  0.27753071836E+02 -0.30160626690E+02  0.43541438213E+02  0.51100000000E-03 0.  1.
         22    1    1    0    0    0  0.25326367021E+02  0.19898436449E+01  0.14194439759E+02  0.29100970160E+02  0.00000000000E+00 0.  1.
</event>
<event>
 5    1  0.1111613E-009  0.9118800E+02  0.7818608E-02  0.1130116E+00
         25   -1    0    0    0    0  0.00000000000E+00  0.00000000000E+00  0.99999998245E-14  0.12500000000E+03  0.12500000000E+03 0.  0.
        -11    1    3    3    0    0 -0.28989139570E+02  0.18539500447E+02 -0.17307508176E+02  0.38517958530E+02  0.51100000000E-03 0.  1.
         23    2    1    0    0    0  0.24399421244E+02  0.17699785774E+02  0.64365355449E+00  0.94849901105E+02  0.89930391283E+02 0.  0.
         11    1    3    3    0    0  0.53388560814E+02 -0.83971467265E+00  0.17951161731E+02  0.56331942575E+02  0.51100000000E-03 0. -1.
         22    1    1    0    0    0 -0.24399421244E+02 -0.17699785774E+02 -0.64365355449E+00  0.30150098895E+02  0.00000000000E+00 0. -1.
</event>
<event>
 5    1  0.1111613E-009  0.9118800E+02  0.7818608E-02  0.1130116E+00
         25   -1    0    0    0    0  0.00000000000E+00  0.00000000000E+00  0.99999998245E-14  0.12500000000E+03  0.12500000000E+03 0.  0.
        -11    1    3    3    0    0  0.26155058224E+02  0.13562025192E+02  0.34760165461E+02  0.45566267141E+02  0.51100000000E-03 0. -1.
         23    2    1    0    0    0  0.20626750808E+02 -0.89576644035E+01 -0.13261317912E+02  0.98893197185E+02  0.95385005615E+02 0.  0.
         11    1    3    3    0    0 -0.55283074154E+01 -0.22519689595E+02 -0.48021483373E+02  0.53326930044E+02  0.51100000000E-03 0.  1.
         22    1    1    0    0    0 -0.20626750808E+02  0.89576644035E+01  0.13261317912E+02  0.26106802815E+02  0.00000000000E+00 0.  1.
</event>
<event>
 5    1  0.1111613E-009  0.9118800E+02  0.7818608E-02  0.1130116E+00
         25   -1    0    0    0    0  0.00000000000E+00  0.00000000000E+00  0.99999998245E-14  0.12500000000E+03  0.12500000000E+03 0.  0.
        -11    1    3    3    0    0 -0.29969750957E+02  0.21259241441E+02  0.31163856163E+02  0.48180154112E+02  0.51100000000E-03 0.  1.
         23    2    1    0    0    0 -0.18339322061E+02  0.11378781854E+02 -0.16246436007E+02  0.97986038923E+02  0.94188692160E+02 0.  0.
         11    1    3    3    0    0  0.11630428896E+02 -0.98804595867E+01 -0.47410292170E+02  0.49805884811E+02  0.51100000000E-03 0. -1.
         22    1    1    0    0    0  0.18339322061E+02 -0.11378781854E+02  0.16246436007E+02  0.27013961077E+02  0.00000000000E+00 0.  1.
</event>
<event>
 5    1  0.1111613E-009  0.9118800E+02  0.7818608E-02  0.1130116E+00
         25   -1    0    0    0    0  0.00000000000E+00  0.00000000000E+00  0.99999998245E-14  0.12500000000E+03  0.12500000000E+03 0.  0.
        -11    1    3    3    0    0 -0.85393163154E-01  0.13569881754E+02 -0.43198941423E+02  0.45280211165E+02  0.51100000000E-03 0.  1.
         23    2    1    0    0    0 -0.12098428446E+01 -0.25587754551E+02 -0.74287259468E+01  0.98328238306E+02  0.94641743309E+02 0.  0.
         11    1    3    3    0    0 -0.11244496815E+01 -0.39157636305E+02  0.35770215476E+02  0.53048027141E+02  0.51100000000E-03 0. -1.
         22    1    1    0    0    0  0.12098428446E+01  0.25587754551E+02  0.74287259468E+01  0.26671761694E+02  0.00000000000E+00 0.  1.
</event>
<event>
 5    1  0.1111613E-009  0.9118800E+02  0.7818608E-02  0.1130116E+00
         25   -1    0    0    0    0  0.00000000000E+00  0.00000000000E+00  0.99999998245E-14  0.12500000000E+03  0.12500000000E+03 0.  0.
        -11    1    3    3    0    0 -0.31103792884E+02  0.16137061734E+02 -0.44638162513E+01  0.35323877887E+02  0.51100000000E-03 0.  1.
         23    2    1    0    0    0  0.26748022422E+02  0.19842803831E+01 -0.12477145093E+02  0.95418363436E+02  0.90717092431E+02 0.  0.
         11    1    3    3    0    0  0.57851815305E+02 -0.14152781351E+02 -0.80133288420E+01  0.60094485550E+02  0.51100000000E-03 0. -1.
         22    1    1    0    0    0 -0.26748022422E+02 -0.19842803831E+01  0.12477145093E+02  0.29581636564E+02  0.00000000000E+00 0. -1.
</event>
<event>
 5    1  0.1111613E-009  0.9118800E+02  0.7818608E-02  0.1130116E+00
         25   -1    0    0    0    0  0.00000000000E+00  0.00000000000E+00  0.99999998245E-14  0.12500000000E+03  0.12500000000E+03 0.  0.
        -11    1    3    3    0    0  0.31092549270E+02  0.11988553276E+02 -0.48611954565E+02  0.58937205199E+02  0.51100000000E-03 0. -1.
         23    2    1    0    0    0  0.18120214982E+02  0.18490294887E+02 -0.16170516014E+02  0.94475931068E+02  0.89409075418E+02 0.  0.
         11    1    3    3    0    0 -0.12972334288E+02  0.65017416107E+01  0.32441438552E+02  0.35538725869E+02  0.51100000000E-03 0.  1.
         22    1    1    0    0    0 -0.18120214982E+02 -0.18490294887E+02  0.16170516014E+02  0.30524068932E+02  0.00000000000E+00 0. -1.
</event>
<event>
 5    1  0.1111613E-009  0.9118800E+02  0.7818608E-02  0.1130116E+00
         25   -1    0    0    0    0  0.00000000000E+00  0.00000000000E+00  0.99999998245E-14  0.12500000000E+03  0.12500000000E+03 0.  0.
        -11    1    3    3    0    0  0.22514843157E+02  0.56901133520E+02 -0.16823792749E+01  0.61216726134E+02  0.51100000000E-03 0.  1.
         23    2    1    0    0    0  0.10588729274E+02  0.28152990222E+02 -0.97708961478E+01  0.93374338621E+02  0.87855475955E+02 0.  0.
         11    1    3    3    0    0 -0.11926113883E+02 -0.28748143298E+02 -0.80885168729E+01  0.32157612487E+02  0.51100000000E-03 0. -1.
         22    1    1    0    0    0 -0.10588729274E+02 -0.28152990222E+02  0.97708961478E+01  0.31625661379E+02  0.00000000000E+00 0.  1.
</event>
<event>
 5    1  0.1111613E-009  0.9118800E+02  0.7818608E-02  0.1130116E+00
         25   -1    0    0    0    0  0.00000000000E+00  0.00000000000E+00  0.99999998245E-14  0.12500000000E+03  0.12500000000E+03 0.  0.
        -11    1    3    3    0    0 -0.37846097353E+02 -0.19693484325E+01  0.87653213054E+01  0.38897766979E+02  0.51100000000E-03 0. -1.
         23    2    1    0    0    0  0.78455334498E+01  0.27846287152E+02 -0.60738371040E+01  0.95438883640E+02  0.90745363023E+02 0.  0.
         11    1    3    3    0    0  0.45691630803E+02  0.29815635584E+02 -0.14839158409E+02  0.56541116661E+02  0.51100000000E-03 0.  1.
         22    1    1    0    0    0 -0.78455334498E+01 -0.27846287152E+02  0.60738371040E+01  0.29561116360E+02  0.00000000000E+00 0.  1.
</event>
<event>
 5    1  0.1111613E-009  0.9118800E+02  0.7818608E-02  0.1130116E+00
         25   -1    0    0    0    0  0.00000000000E+00  0.00000000000E+00  0.99999998245E-14  0.12500000000E+03  0.12500000000E+03 0.  0.
        -11    1    3    3    0    0 -0.25948357914E+02  0.16645511112E+02 -0.91841196063E+01  0.32167349468E+02  0.51100000000E-03 0. -1.
         23    2    1    0    0    0  0.20840408851E+02 -0.16590166134E+02  0.14980838022E+02  0.94438884817E+02  0.89357267215E+02 0.  0.
         11    1    3    3    0    0  0.46788766764E+02 -0.33235677245E+02  0.24164957628E+02  0.62271535349E+02  0.51100000000E-03 0.  1.
         22    1    1    0    0    0 -0.20840408851E+02  0.16590166134E+02 -0.14980838022E+02  0.30561115183E+02  0.00000000000E+00 0.  1.
</event>
<event>
 5    1  0.1111613E-009  0.9118800E+02  0.7818608E-02  0.1130116E+00
         25   -1    0    0    0    0  0.00000000000E+00  0.00000000000E+00  0.99999998245E-14  0.12500000000E+03  0.12500000000E+03 0.  0.
        -11    1    3    3    0    0 -0.36686733539E+02  0.14357874639E+02  0.32086799735E+02  0.50809720521E+02  0.51100000000E-03 0.  1.
         23    2    1    0    0    0 -0.27492208015E+02 -0.11955262544E+02 -0.21331726691E+01  0.94945046504E+02  0.90062542857E+02 0.  0.
         11    1    3    3    0    0  0.91945255245E+01 -0.26313137182E+02 -0.34219972404E+02  0.44135325983E+02  0.51100000000E-03 0. -1.
         22    1    1    0    0    0  0.27492208015E+02  0.11955262544E+02  0.21331726691E+01  0.30054953496E+02  0.00000000000E+00 0.  1.
</event>
<event>
 5    1  0.1111613E-009  0.9118800E+02  0.7818608E-02  0.1130116E+00
         25   -1    0    0    0    0  0.00000000000E+00  0.00000000000E+00  0.99999998245E-14  0.12500000000E+03  0.12500000000E+03 0.  0.
        -11    1    3    3    0    0 -0.23160384205E+02 -0.21244983948E+02 -0.45549200095E+02  0.55339699756E+02  0.51100000000E-03 0.  1.
         23    2    1    0    0    0 -0.22002865689E+02  0.76461773643E+01 -0.15623019312E+02  0.96952382289E+02  0.92806764690E+02 0.  0.
         11    1    3    3    0    0  0.11575185160E+01  0.28891161313E+02  0.29926180783E+02  0.41612682533E+02  0.51100000000E-03 0. -1.
         22    1    1    0    0    0  0.22002865689E+02 -0.76461773643E+01  0.15623019312E+02  0.28047617711E+02  0.00000000000E+00 0. -1.
</event>
<event>
 5    1  0.1111613E-009  0.9118800E+02  0.7818608E-02  0.1130116E+00
         25   -1    0    0    0    0  0.00000000000E+00  0.00000000000E+00  0.99999998245E-14  0.12500000000E+03  0.12500000000E+03 0.  0.
        -11    1    3    3    0    0 -0.12580169497E+02 -0.18436230725E+02  0.35829214531E+02  0.42212413839E+02  0.51100000000E-03 0.  1.
         23    2    1    0    0    0 -0.15439001754E+02  0.25160686869E+02  0.66813997503E+01  0.94733450123E+02  0.89768382689E+02 0.  0.
         11    1    3    3    0    0 -0.28588322571E+01  0.43596917594E+02 -0.29147814781E+02  0.52521036284E+02  0.51100000000E-03 0. -1.
         22    1    1    0    0    0  0.15439001754E+02 -0.25160686869E+02 -0.66813997503E+01  0.30266549877E+02  0.00000000000E+00 0.  1.
</event>
<event>
 5    1  0.1111613E-009  0.9118800E+02  0.7818608E-02  0.1130116E+00
         25   -1    0    0    0    0  0.00000000000E+00  0.00000000000E+00  0.99999998245E-14  0.12500000000E+03  0.12500000000E+03 0.  0.
        -11    1    3    3    0    0  0.28057028972E+01  0.50136990177E+02 -0.14489807502E+02  0.52264177737E+02  0.51100000000E-03 0. -1.
         23    2    1    0    0    0  0.11272857933E+02  0.10555478668E+02 -0.26363051595E+02  0.94446670471E+02  0.89368157739E+02 0.  0.
         11    1    3    3    0    0  0.84671550353E+01 -0.39581511509E+02 -0.11873244093E+02  0.42182492734E+02  0.51100000000E-03 0.  1.
         22    1    1    0    0    0 -0.11272857933E+02 -0.10555478668E+02  0.26363051595E+02  0.30553329529E+02  0.00000000000E+00 0.  1.
</event>
<event>
 5    1  0.1111613E-009  0.9118800E+02  0.7818608E-02  0.1130116E+00
         25   -1    0    0    0    0  0.00000000000E+00  0.00000000000E+00  0.99999998245E-14  0.12500000000E+03  0.12500000000E+03 0.  0.
        -11    1    3    3    0    0 -0.31928056195E+02  0.12387101324E+02  0.26238384690E+02  0.43142715295E+02  0.51100000000E-03 0.  1.
         23    2    1    0    0    0  0.63285233302E+00 -0.26358060951E+02  0.13719865582E+02  0.95278247178E+02  0.90523818935E+02 0.  0.
         11    1    3    3    0    0  0.32560908528E+02 -0.38745162276E+02 -0.12518519108E+02  0.52135531884E+02  0.51100000000E-03 0. -1.
         22    1    1    0    0    0 -0.63285233302E+00  0.26358060951E+02 -0.13719865582E+02  0.29721752822E+02  0.00000000000E+00 0. -1.
</event>
<event>
 5    1  0.1111613E-009  0.9118800E+02  0.7818608E-02  0.1130116E+00
         25   -1    0    0    0    0  0.00000000000E+00  0.00000000000E+00  0.99999998245E-14  0.12500000000E+03  0.12500000000E+03 0.  0.
        -11    1    3    3    0    0  0.14879003905E+02 -0.12938943314E+02  0.31679362787E+02  0.37314649110E+02  0.51100000000E-03 0.  1.
         23    2    1    0    0    0  0.29001436641E+02 -0.53726189941E+01 -0.18630374526E+02  0.90113910837E+02  0.83087169341E+02 0.  0.
         11    1    3    3    0    0  0.14122432736E+02  0.75663243203E+01 -0.50309737314E+02  0.52799261727E+02  0.51100000000E-03 0. -1.
         22    1    1    0    0    0 -0.29001436641E+02  0.53726189941E+01  0.18630374526E+02  0.34886089163E+02  0.00000000000E+00 0. -1.
</event>
<event>
 5    1  0.1111613E-009  0.9118800E+02  0.7818608E-02  0.1130116E+00
         25   -1    0    0    0    0  0.00000000000E+00  0.00000000000E+00  0.99999998245E-14  0.12500000000E+03  0.12500000000E+03 0.  0.
        -11    1    3    3    0    0  0.39162850409E+02 -0.12433251786E+01 -0.16250138017E+02  0.42418647969E+02  0.51100000000E-03 0.  1.
         23    2    1    0    0    0 -0.11448408085E+02 -0.14670613291E+02 -0.23220758155E+02  0.95242705914E+02  0.90474728397E+02 0.  0.
         11    1    3    3    0    0 -0.50611258494E+02 -0.13427288113E+02 -0.69706201380E+01  0.52824057945E+02  0.51100000000E-03 0. -1.
         22    1    1    0    0    0  0.11448408085E+02  0.14670613291E+02  0.23220758155E+02  0.29757294086E+02  0.00000000000E+00 0. -1.
</event>
<event>
 5    1  0.1111613E-009  0.9118800E+02  0.7818608E-02  0.1130116E+00
         25   -1    0    0    0    0  0.00000000000E+00  0.00000000000E+00  0.99999998245E-14  0.12500000000E+03  0.12500000000E+03 0.  0.
        -11    1    3    3    0    0  0.27343059359E+02  0.39506734910E+02  0.74885682123E+01  0.48626162222E+02  0.51100000000E-03 0.  1.
         23    2    1    0    0    0 -0.70981545525E+01  0.17486442028E+02  0.25482462373E+02  0.93290138105E+02  0.87735594408E+02 0.  0.
         11    1    3    3    0    0 -0.34441213912E+02 -0.22020292882E+02  0.17993894160E+02  0.44663975882E+02  0.51100000000E-03 0. -1.
         22    1    1    0    0    0  0.70981545525E+01 -0.17486442028E+02 -0.25482462373E+02  0.31709861895E+02  0.00000000000E+00 0. -1.
</event>
<event>
 5    1  0.1111613E-009  0.9118800E+02  0.7818608E-02  0.1130116E+00
         25   -1    0    0    0    0  0.00000000000E+00  0.00000000000E+00  0.99999998245E-14  0.12500000000E+03  0.12500000000E+03 0.  0.
        -11    1    3    3    0    0 -0.17120061851E+01  0.51492046021E+02  0.29584530936E+02  0.59410489306E+02  0.51100000000E-03 0. -1.
         23    2    1    0    0    0 -0.60360648698E+01  0.15882177290E+02  0.23818731876E+02  0.95742357874E+02  0.91162434525E+02 0.  0.
         11    1    3    3    0    0 -0.43240586847E+01 -0.35609868732E+02 -0.57657990592E+01  0.36331868568E+02  0.51100000000E-03 0.  1.
         22    1    1    0    0    0  0.60360648698E+01 -0.15882177290E+02 -0.23818731876E+02  0.29257642126E+02  0.00000000000E+00 0. -1.
</event>
<event>
 5    1  0.1111613E-009  0.9118800E+02  0.7818608E-02  0.1130116E+00
         25   -1    0    0    0    0  0.00000000000E+00  0.00000000000E+00  0.99999998245E-14  0.12500000000E+03  0.12500000000E+03 0.  0.
        -11    1    3    3    0    0 -0.36269115983E+02 -0.44605364486E+01  0.22824008665E+02  0.43084574170E+02  0.51100000000E-03 0. -1.
         23    2    1    0    0    0 -0.26172853016E+02  0.16057839347E+02 -0.17657691678E+02  0.89578727932E+02  0.82278077172E+02 0.  0.
         11    1    3    3    0    0  0.10096262967E+02  0.20518375796E+02 -0.40481700343E+02  0.46494153763E+02  0.51100000000E-03 0.  1.
         22    1    1    0    0    0  0.26172853016E+02 -0.16057839347E+02  0.17657691678E+02  0.35421272068E+02  0.00000000000E+00 0. -1.
</event>
<event>
 5    1  0.1111613E-009  0.9118800E+02  0.7818608E-02  0.1130116E+00
         25   -1    0    0    0    0  0.00000000000E+00  0.00000000000E+00  0.99999998245E-14  0.12500000000E+03  0.12500000000E+03 0.  0.
        -11    1    3    3    0    0 -0.63579408613E+01  0.11267674234E+02  0.31556537396E+02  0.34105702563E+02  0.51100000000E-03 0. -1.
         23    2    1    0    0    0 -0.10622415527E+02 -0.42109012884E+00 -0.28053164569E+02  0.95000115485E+02  0.90138942036E+02 0.  0.
         11    1    3    3    0    0 -0.42644746660E+01 -0.11688764363E+02 -0.59609701965E+02  0.60894412922E+02  0.51100000000E-03 0.  1.
         22    1    1    0    0    0  0.10622415527E+02  0.42109012884E+00  0.28053164569E+02  0.29999884515E+02  0.00000000000E+00 0.  1.
</event>
<event>
 5    1  0.1111613E-009  0.9118800E+02  0.7818608E-02  0.1130116E+00
         25   -1    0    0    0    0  0.00000000000E+00  0.00000000000E+00  0.99999998245E-14  0.12500000000E+03  0.12500000000E+03 0.  0.
        -11    1    3    3    0    0  0.45377804837E+01 -0.23614952948E+02 -0.48910432100E+02  0.54502181818E+02  0.51100000000E-03 0.  1.
         23    2    1    0    0    0 -0.16537209136E+02 -0.20188020260E+02 -0.14103787318E+02  0.95336010640E+02  0.90603546620E+02 0.  0.
         11    1    3    3    0    0 -0.21074989619E+02  0.34269326885E+01  0.34806644781E+02  0.40833828823E+02  0.51100000000E-03 0. -1.
         22    1    1    0    0    0  0.16537209136E+02  0.20188020260E+02  0.14103787318E+02  0.29663989360E+02  0.00000000000E+00 0.  1.
</event>
<event>
 5    1  0.1111613E-009  0.9118800E+02  0.7818608E-02  0.1130116E+00
         25   -1    0    0    0    0  0.00000000000E+00  0.00000000000E+00  0.99999998245E-14  0.12500000000E+03  0.12500000000E+03 0.  0.
        -11    1    3    3    0    0  0.37481309841E+02  0.24357947469E+02 -0.38264440572E+02  0.58841529593E+02  0.51100000000E-03 0.  1.
         23    2    1    0    0    0  0.21821962503E+02  0.29491773328E+02 -0.31461822129E+02  0.76669792125E+02  0.59518467986E+02 0.  0.
         11    1    3    3    0    0 -0.15659347338E+02  0.51338258597E+01  0.68026184429E+01  0.17828262533E+02  0.51100000000E-03 0. -1.
         22    1    1    0    0    0 -0.21821962503E+02 -0.29491773328E+02  0.31461822129E+02  0.48330207875E+02  0.00000000000E+00 0.  1.
</event>
<event>
 5    1  0.1111613E-009  0.9118800E+02  0.7818608E-02  0.1130116E+00
         25   -1    0    0    0    0  0.00000000000E+00  0.00000000000E+00  0.99999998245E-14  0.12500000000E+03  0.12500000000E+03 0.  0.
        -11    1    3    3    0    0  0.26492854449E+02  0.44809868485E+02 -0.78833996570E+01  0.52649251095E+02  0.51100000000E-03 0.  1.
         23    2    1    0    0    0  0.35034492865E+02  0.10872148957E+02 -0.10745685026E+01  0.88301580269E+02  0.80314351565E+02 0.  0.
         11    1    3    3    0    0  0.85416384165E+01 -0.33937719528E+02  0.68088311543E+01  0.35652329174E+02  0.51100000000E-03 0. -1.
         22    1    1    0    0    0 -0.35034492865E+02 -0.10872148957E+02  0.10745685026E+01  0.36698419731E+02  0.00000000000E+00 0.  1.
</event>
<event>
 5    1  0.1111613E-009  0.9118800E+02  0.7818608E-02  0.1130116E+00
         25   -1    0    0    0    0  0.00000000000E+00  0.00000000000E+00  0.99999998245E-14  0.12500000000E+03  0.12500000000E+03 0.  0.
        -11    1    3    3    0    0  0.24409297921E+02  0.37724653575E+02  0.67496789701E+01  0.45437005610E+02  0.51100000000E-03 0.  1.
         23    2    1    0    0    0  0.30290576512E+01  0.90341820971E+01 -0.28065874422E+02  0.95360753325E+02  0.90637676113E+02 0.  0.
         11    1    3    3    0    0 -0.21380240270E+02 -0.28690471478E+02 -0.34815553392E+02  0.49923747715E+02  0.51100000000E-03 0. -1.
         22    1    1    0    0    0 -0.30290576512E+01 -0.90341820971E+01  0.28065874422E+02  0.29639246675E+02  0.00000000000E+00 0. -1.
</event>
<event>
 5    1  0.1111613E-009  0.9118800E+02  0.7818608E-02  0.1130116E+00
         25   -1    0    0    0    0  0.00000000000E+00  0.00000000000E+00  0.99999998245E-14  0.12500000000E+03  0.12500000000E+03 0.  0.
        -11    1    3    3    0    0 -0.28619653227E+02  0.29670962052E+02  0.18843262960E+02  0.45326803319E+02  0.51100000000E-03 0.  1.
         23    2    1    0    0    0  0.15618350367E+02 -0.92769571192E+01  0.14662928445E+01  0.10677515936E+03  0.10520831640E+03 0.  0.
         11    1    3    3    0    0  0.44238003594E+02 -0.38947919171E+02 -0.17376970116E+02  0.61448356043E+02  0.51100000000E-03 0. -1.
         22    1    1    0    0    0 -0.15618350367E+02  0.92769571192E+01 -0.14662928445E+01  0.18224840638E+02  0.00000000000E+00 0. -1.
</event>
<event>
 5    1  0.1111613E-009  0.9118800E+02  0.7818608E-02  0.1130116E+00
         25   -1    0    0    0    0  0.00000000000E+00  0.00000000000E+00  0.99999998245E-14  0.12500000000E+03  0.12500000000E+03 0.  0.
        -11    1    3    3    0    0  0.18036799852E+02  0.45015324427E+02 -0.35232439873E+02  0.59941891877E+02  0.51100000000E-03 0. -1.
         23    2    1    0    0    0  0.18253330279E+01  0.14074020577E+02 -0.24849617528E+02  0.96383337246E+02  0.92037135503E+02 0.  0.
         11    1    3    3    0    0 -0.16211466824E+02 -0.30941303849E+02  0.10382822344E+02  0.36441445369E+02  0.51100000000E-03 0.  1.
         22    1    1    0    0    0 -0.18253330279E+01 -0.14074020577E+02  0.24849617528E+02  0.28616662754E+02  0.00000000000E+00 0. -1.
</event>
<event>
 5    1  0.1111613E-009  0.9118800E+02  0.7818608E-02  0.1130116E+00
         25   -1    0    0    0    0  0.00000000000E+00  0.00000000000E+00  0.99999998245E-14  0.12500000000E+03  0.12500000000E+03 0.  0.
        -11    1    3    3    0    0 -0.90129276306E+01  0.16216647413E+02  0.13004008303E+02  0.22656494654E+02  0.51100000000E-03 0.  1.
         23    2    1    0    0    0  0.37022212250E+02 -0.17557736060E+02  0.18551706802E+02  0.80021292585E+02  0.66184009748E+02 0.  0.
         11    1    3    3    0    0  0.46035139881E+02 -0.33774383473E+02  0.55476984994E+01  0.57364797931E+02  0.51100000000E-03 0. -1.
         22    1    1    0    0    0 -0.37022212250E+02  0.17557736060E+02 -0.18551706802E+02  0.44978707415E+02  0.00000000000E+00 0. -1.
</event>
<event>
 5    1  0.1111613E-009  0.9118800E+02  0.7818608E-02  0.1130116E+00
         25   -1    0    0    0    0  0.00000000000E+00  0.00000000000E+00  0.99999998245E-14  0.12500000000E+03  0.12500000000E+03 0.  0.
        -11    1    3    3    0    0 -0.17629656540E+02  0.39375728590E+02  0.21254923469E+02  0.48093913998E+02  0.51100000000E-03 0.  1.
         23    2    1    0    0    0 -0.31732758450E+02  0.17234338378E+02 -0.86309128535E+01  0.87872072036E+02  0.79643066297E+02 0.  0.
         11    1    3    3    0    0 -0.14103101910E+02 -0.22141390212E+02 -0.29885836323E+02  0.39778158039E+02  0.51100000000E-03 0. -1.
         22    1    1    0    0    0  0.31732758450E+02 -0.17234338378E+02  0.86309128535E+01  0.37127927964E+02  0.00000000000E+00 0.  1.
</event>
<event>
 5    1  0.1111613E-009  0.9118800E+02  0.7818608E-02  0.1130116E+00
         25   -1    0    0    0    0  0.00000000000E+00  0.00000000000E+00  0.99999998245E-14  0.12500000000E+03  0.12500000000E+03 0.  0.
        -11    1    3    3    0    0 -0.16631316829E+02  0.31692894749E+02 -0.63287623784E+01  0.36346850077E+02  0.51100000000E-03 0. -1.
         23    2    1    0    0    0  0.20505225692E+02 -0.15489637725E+02 -0.11960917466E+02  0.96654688145E+02  0.92404935129E+02 0.  0.
         11    1    3    3    0    0  0.37136542521E+02 -0.47182532475E+02 -0.56321550877E+01  0.60307838067E+02  0.51100000000E-03 0.  1.
         22    1    1    0    0    0 -0.20505225692E+02  0.15489637725E+02  0.11960917466E+02  0.28345311855E+02  0.00000000000E+00 0.  1.
</event>
<event>
 5    1  0.1111613E-009  0.9118800E+02  0.7818608E-02  0.1130116E+00
         25   -1    0    0    0    0  0.00000000000E+00  0.00000000000E+00  0.99999998245E-14  0.12500000000E+03  0.12500000000E+03 0.  0.
        -11    1    3    3    0    0 -0.32055699017E+02  0.14633575951E+02  0.10092505344E+02  0.36654713871E+02  0.51100000000E-03 0.  1.
         23    2    1    0    0    0  0.75411129754E+01 -0.11295437276E+02 -0.25657356606E+02  0.95969753081E+02  0.91473702616E+02 0.  0.
         11    1    3    3    0    0  0.39596811992E+02 -0.25929013227E+02 -0.35749861950E+02  0.59315039211E+02  0.51100000000E-03 0. -1.
         22    1    1    0    0    0 -0.75411129754E+01  0.11295437276E+02  0.25657356606E+02  0.29030246919E+02  0.00000000000E+00 0. -1.
</event>
<event>
 5    1  0.1111613E-009  0.9118800E+02  0.7818608E-02  0.1130116E+00
         25   -1    0    0    0    0  0.00000000000E+00  0.00000000000E+00  0.99999998245E-14  0.12500000000E+03  0.12500000000E+03 0.  0.
        -11    1    3    3    0    0  0.72792675020E+01  0.59726370647E+02  0.80097875943E+01  0.60699125065E+02  0.51100000000E-03 0. -1.
         23    2    1    0    0    0  0.54103650251E+01  0.34653215608E+02  0.15088202036E+02  0.86819229416E+02  0.77973119433E+02 0.  0.
         11    1    3    3    0    0 -0.18689024769E+01 -0.25073155039E+02  0.70784144414E+01  0.26120104352E+02  0.51100000000E-03 0.  1.
         22    1    1    0    0    0 -0.54103650251E+01 -0.34653215608E+02 -0.15088202036E+02  0.38180770584E+02  0.00000000000E+00 0. -1.
</event>
<event>
 5    1  0.1111613E-009  0.9118800E+02  0.7818608E-02  0.1130116E+00
         25   -1    0    0    0    0  0.00000000000E+00  0.00000000000E+00  0.99999998245E-14  0.12500000000E+03  0.12500000000E+03 0.  0.
        -11    1    3    3    0    0 -0.18873068652E+02 -0.48612762232E+02  0.24416902114E+02  0.57581060092E+02  0.51100000000E-03 0. -1.
         23    2    1    0    0    0 -0.23814867473E+02 -0.13953541241E+02  0.79087457929E+01  0.96287677106E+02  0.91907123100E+02 0.  0.
         11    1    3    3    0    0 -0.49417988209E+01  0.34659220991E+02 -0.16508156321E+02  0.38706617014E+02  0.51100000000E-03 0.  1.
         22    1    1    0    0    0  0.23814867473E+02  0.13953541241E+02 -0.79087457929E+01  0.28712322894E+02  0.00000000000E+00 0. -1.
</event>
<event>
 5    1  0.1111613E-009  0.9118800E+02  0.7818608E-02  0.1130116E+00
         25   -1    0    0    0    0  0.00000000000E+00  0.00000000000E+00  0.99999998245E-14  0.12500000000E+03  0.12500000000E+03 0.  0.
        -11    1    3    3    0    0 -0.70297013772E+01 -0.32121540913E+02  0.15583277269E+02  0.36387478928E+02  0.51100000000E-03 0. -1.
         23    2    1    0    0    0 -0.13205223693E+02  0.25656373347E+02  0.84638854176E+01  0.94929004299E+02  0.90040274737E+02 0.  0.
         11    1    3    3    0    0 -0.61755223158E+01  0.57777914260E+02 -0.71193918513E+01  0.58541525370E+02  0.51100000000E-03 0.  1.
         22    1    1    0    0    0  0.13205223693E+02 -0.25656373347E+02 -0.84638854176E+01  0.30070995701E+02  0.00000000000E+00 0.  1.
</event>
<event>
 5    1  0.1111613E-009  0.9118800E+02  0.7818608E-02  0.1130116E+00
         25   -1    0    0    0    0  0.00000000000E+00  0.00000000000E+00  0.99999998245E-14  0.12500000000E+03  0.12500000000E+03 0.  0.
        -11    1    3    3    0    0 -0.53935371038E+02  0.14246662770E+02  0.27479886088E+02  0.62186299043E+02  0.51100000000E-03 0.  1.
         23    2    1    0    0    0 -0.24602517179E+02  0.25103735388E+01  0.14419119954E+02  0.96373144652E+02  0.92023291416E+02 0.  0.
         11    1    3    3    0    0  0.29332853858E+02 -0.11736289232E+02 -0.13060766134E+02  0.34186845608E+02  0.51100000000E-03 0. -1.
         22    1    1    0    0    0  0.24602517179E+02 -0.25103735388E+01 -0.14419119954E+02  0.28626855348E+02  0.00000000000E+00 0.  1.
</event>
<event>
 5    1  0.1111613E-009  0.9118800E+02  0.7818608E-02  0.1130116E+00
         25   -1    0    0    0    0  0.00000000000E+00  0.00000000000E+00  0.99999998245E-14  0.12500000000E+03  0.12500000000E+03 0.  0.
        -11    1    3    3    0    0 -0.23102573416E+02  0.15041282736E+02 -0.83185734179E+01  0.28795273028E+02  0.51100000000E-03 0.  1.
         23    2    1    0    0    0  0.17059319056E+02 -0.30609121804E+02 -0.30197879506E+01  0.89828167185E+02  0.82656166112E+02 0.  0.
         11    1    3    3    0    0  0.40161892472E+02 -0.45650404540E+02  0.52987854672E+01  0.61032894158E+02  0.51100000000E-03 0. -1.
         22    1    1    0    0    0 -0.17059319056E+02  0.30609121804E+02  0.30197879506E+01  0.35171832815E+02  0.00000000000E+00 0. -1.
</event>
<event>
 5    1  0.1111613E-009  0.9118800E+02  0.7818608E-02  0.1130116E+00
         25   -1    0    0    0    0  0.00000000000E+00  0.00000000000E+00  0.99999998245E-14  0.12500000000E+03  0.12500000000E+03 0.  0.
        -11    1    3    3    0    0 -0.90006964798E+01  0.19756518369E+02 -0.50820156141E+02  0.55263195941E+02  0.51100000000E-03 0. -1.
         23    2    1    0    0    0  0.86945551205E+01  0.22508014941E+02 -0.11920234226E+02  0.98087214761E+02  0.94322869391E+02 0.  0.
         11    1    3    3    0    0  0.17695251600E+02  0.27514965720E+01  0.38899921915E+02  0.42824018819E+02  0.51100000000E-03 0.  1.
         22    1    1    0    0    0 -0.86945551205E+01 -0.22508014941E+02  0.11920234226E+02  0.26912785239E+02  0.00000000000E+00 0. -1.
</event>
<event>
 5    1  0.1111613E-009  0.9118800E+02  0.7818608E-02  0.1130116E+00
         25   -1    0    0    0    0  0.00000000000E+00  0.00000000000E+00  0.99999998245E-14  0.12500000000E+03  0.12500000000E+03 0.  0.
        -11    1    3    3    0    0  0.34022661387E+02  0.28439809625E+02 -0.32151081139E+02  0.54772769494E+02  0.51100000000E-03 0.  1.
         23    2    1    0    0    0  0.26678778372E+02 -0.47417569394E+01 -0.71121649172E+01  0.96985283080E+02  0.92851067684E+02 0.  0.
         11    1    3    3    0    0 -0.73438830157E+01 -0.33181566565E+02  0.25038916222E+02  0.42212513586E+02  0.51100000000E-03 0. -1.
         22    1    1    0    0    0 -0.26678778372E+02  0.47417569394E+01  0.71121649172E+01  0.28014716920E+02  0.00000000000E+00 0.  1.
</event>
<event>
 5    1  0.1111613E-009  0.9118800E+02  0.7818608E-02  0.1130116E+00
         25   -1    0    0    0    0  0.00000000000E+00  0.00000000000E+00  0.99999998245E-14  0.12500000000E+03  0.12500000000E+03 0.  0.
        -11    1    3    3    0    0  0.37278490285E+02 -0.41890687782E+00 -0.15290934134E+02  0.40294838229E+02  0.51100000000E-03 0.  1.
         23    2    1    0    0    0 -0.52988689416E-02  0.19253367550E+02  0.21423078133E+02  0.96196519884E+02  0.91783059281E+02 0.  0.
         11    1    3    3    0    0 -0.37283789154E+02  0.19672274428E+02  0.36714012267E+02  0.55901681655E+02  0.51100000000E-03 0. -1.
         22    1    1    0    0    0  0.52988689416E-02 -0.19253367550E+02 -0.21423078133E+02  0.28803480116E+02  0.00000000000E+00 0. -1.
</event>
<event>
 5    1  0.1111613E-009  0.9118800E+02  0.7818608E-02  0.1130116E+00
         25   -1    0    0    0    0  0.00000000000E+00  0.00000000000E+00  0.99999998245E-14  0.12500000000E+03  0.12500000000E+03 0.  0.
        -11    1    3    3    0    0  0.10893734231E+02 -0.30446573893E+02 -0.66291994920E+01  0.33009295561E+02  0.51100000000E-03 0.  1.
         23    2    1    0    0    0 -0.26068764765E+02  0.15822168825E+02  0.68532531018E+01  0.93744782823E+02  0.88380969138E+02 0.  0.
         11    1    3    3    0    0 -0.36962498996E+02  0.46268742718E+02  0.13482452594E+02  0.60735487262E+02  0.51100000000E-03 0. -1.
         22    1    1    0    0    0  0.26068764765E+02 -0.15822168825E+02 -0.68532531018E+01  0.31255217177E+02  0.00000000000E+00 0. -1.
</event>
<event>
 5    1  0.1111613E-009  0.9118800E+02  0.7818608E-02  0.1130116E+00
         25   -1    0    0    0    0  0.00000000000E+00  0.00000000000E+00  0.99999998245E-14  0.12500000000E+03  0.12500000000E+03 0.  0.
        -11    1    3    3    0    0 -0.13521493257E+02  0.32765650366E+02 -0.44852454510E+02  0.57167834484E+02  0.51100000000E-03 0. -1.
         23    2    1    0    0    0  0.48021853864E+01  0.40683765787E+01 -0.30055639559E+02  0.94292441618E+02  0.89152175545E+02 0.  0.
         11    1    3    3    0    0  0.18323678643E+02 -0.28697273788E+02  0.14796814950E+02  0.37124607133E+02  0.51100000000E-03 0.  1.
         22    1    1    0    0    0 -0.48021853864E+01 -0.40683765787E+01  0.30055639559E+02  0.30707558382E+02  0.00000000000E+00 0. -1.
</event>
<event>
 5    1  0.1111613E-009  0.9118800E+02  0.7818608E-02  0.1130116E+00
         25   -1    0    0    0    0  0.00000000000E+00  0.00000000000E+00  0.99999998245E-14  0.12500000000E+03  0.12500000000E+03 0.  0.
        -11    1    3    3    0    0  0.20981013989E+02  0.36082785826E+02 -0.43860429465E+02  0.60546739418E+02  0.51100000000E-03 0.  1.
         23    2    1    0    0    0 -0.13284405623E+01  0.19206792682E+02 -0.18168096190E+02  0.98528404683E+02  0.94905748882E+02 0.  0.
         11    1    3    3    0    0 -0.22309454551E+02 -0.16875993145E+02  0.25692333275E+02  0.37981665266E+02  0.51100000000E-03 0. -1.
         22    1    1    0    0    0  0.13284405623E+01 -0.19206792682E+02  0.18168096190E+02  0.26471595317E+02  0.00000000000E+00 0.  1.
</event>
<event>
 5    1  0.1111613E-009  0.9118800E+02  0.7818608E-02  0.1130116E+00
         25   -1    0    0    0    0  0.00000000000E+00  0.00000000000E+00  0.99999998245E-14  0.12500000000E+03  0.12500000000E+03 0.  0.
        -11    1    3    3    0    0  0.35051773232E+02  0.19043208376E+02  0.41146992120E+01  0.40102385738E+02  0.51100000000E-03 0.  1.
         23    2    1    0    0    0  0.40844516170E+01 -0.27954225157E+02  0.45392281117E+01  0.96386610809E+02  0.92041581376E+02 0.  0.
         11    1    3    3    0    0 -0.30967321615E+02 -0.46997433534E+02  0.42452889966E+00  0.56284225071E+02  0.51100000000E-03 0. -1.
         22    1    1    0    0    0 -0.40844516170E+01  0.27954225157E+02 -0.45392281117E+01  0.28613389191E+02  0.00000000000E+00 0. -1.
</event>
<event>
 5    1  0.1111613E-009  0.9118800E+02  0.7818608E-02  0.1130116E+00
         25   -1    0    0    0    0  0.00000000000E+00  0.00000000000E+00  0.99999998245E-14  0.12500000000E+03  0.12500000000E+03 0.  0.
        -11    1    3    3    0    0  0.31620355417E+02  0.22356932596E+02 -0.12044971889E+02  0.40555648927E+02  0.51100000000E-03 0. -1.
         23    2    1    0    0    0 -0.66218956374E+01 -0.14016648101E+02 -0.25623285918E+02  0.95052233688E+02  0.90211187898E+02 0.  0.
         11    1    3    3    0    0 -0.38242251055E+02 -0.36373580698E+02 -0.13578314029E+02  0.54496584761E+02  0.51100000000E-03 0.  1.
         22    1    1    0    0    0  0.66218956374E+01  0.14016648101E+02  0.25623285918E+02  0.29947766312E+02  0.00000000000E+00 0.  1.
</event>
<event>
 5    1  0.1111613E-009  0.9118800E+02  0.7818608E-02  0.1130116E+00
         25   -1    0    0    0    0  0.00000000000E+00  0.00000000000E+00  0.99999998245E-14  0.12500000000E+03  0.12500000000E+03 0.  0.
        -11    1    3    3    0    0  0.16868763677E+02 -0.94854424702E+01  0.42001428737E+02  0.46245527601E+02  0.51100000000E-03 0. -1.
         23    2    1    0    0    0 -0.21908035200E+02 -0.14945388774E+02  0.10601517238E+02  0.96439208350E+02  0.92112985445E+02 0.  0.
         11    1    3    3    0    0 -0.38776798877E+02 -0.54599463034E+01 -0.31399911499E+02  0.50193680749E+02  0.51100000000E-03 0.  1.
         22    1    1    0    0    0  0.21908035200E+02  0.14945388774E+02 -0.10601517238E+02  0.28560791650E+02  0.00000000000E+00 0. -1.
</event>
<event>
 5    1  0.1111613E-009  0.9118800E+02  0.7818608E-02  0.1130116E+00
         25   -1    0    0    0    0  0.00000000000E+00  0.00000000000E+00  0.99999998245E-14  0.12500000000E+03  0.12500000000E+03 0.  0.
        -11    1    3    3    0    0 -0.49335596115E+02  0.34605446368E+02 -0.82731523002E+01  0.60827485659E+02  0.51100000000E-03 0.  1.
         23    2    1    0    0    0 -0.27607278347E+02  0.69964828600E+01 -0.45673614702E+01  0.96156051225E+02  0.91727928169E+02 0.  0.
         11    1    3    3    0    0  0.21728317768E+02 -0.27608963508E+02  0.37057908300E+01  0.35328565566E+02  0.51100000000E-03 0. -1.
         22    1    1    0    0    0  0.27607278347E+02 -0.69964828600E+01  0.45673614702E+01  0.28843948775E+02  0.00000000000E+00 0.  1.
</event>
<event>
 5    1  0.1111613E-009  0.9118800E+02  0.7818608E-02  0.1130116E+00
         25   -1    0    0    0    0  0.00000000000E+00  0.00000000000E+00  0.99999998245E-14  0.12500000000E+03  0.12500000000E+03 0.  0.
        -11    1    3    3    0    0  0.27236930709E+02 -0.41590620408E+02  0.20044298204E+02  0.53604141548E+02  0.51100000000E-03 0.  1.
         23    2    1    0    0    0 -0.35749327945E+01 -0.31921697211E+02 -0.21783433208E+01  0.92804968133E+02  0.87041610930E+02 0.  0.
         11    1    3    3    0    0 -0.30811863504E+02  0.96689231973E+01 -0.22222641525E+02  0.39200826585E+02  0.51100000000E-03 0. -1.
         22    1    1    0    0    0  0.35749327945E+01  0.31921697211E+02  0.21783433208E+01  0.32195031867E+02  0.00000000000E+00 0.  1.
</event>
<event>
 5    1  0.1111613E-009  0.9118800E+02  0.7818608E-02  0.1130116E+00
         25   -1    0    0    0    0  0.00000000000E+00  0.00000000000E+00  0.99999998245E-14  0.12500000000E+03  0.12500000000E+03 0.  0.
        -11    1    3    3    0    0 -0.50430163133E+01  0.12630707540E+02  0.31560180765E+02  0.34365852189E+02  0.51100000000E-03 0. -1.
         23    2    1    0    0    0  0.14509548313E+02  0.67004565172E+01 -0.25461814085E+02  0.94937946073E+02  0.90052687458E+02 0.  0.
         11    1    3    3    0    0  0.19552564626E+02 -0.59302510227E+01 -0.57021994850E+02  0.60572093885E+02  0.51100000000E-03 0.  1.
         22    1    1    0    0    0 -0.14509548313E+02 -0.67004565172E+01  0.25461814085E+02  0.30062053927E+02  0.00000000000E+00 0.  1.
</event>
<event>
 5    1  0.1111613E-009  0.9118800E+02  0.7818608E-02  0.1130116E+00
         25   -1    0    0    0    0  0.00000000000E+00  0.00000000000E+00  0.99999998245E-14  0.12500000000E+03  0.12500000000E+03 0.  0.
        -11    1    3    3    0    0  0.37581485625E+02  0.14680167750E+02 -0.42044539298E+02  0.58271937259E+02  0.51100000000E-03 0.  1.
         23    2    1    0    0    0  0.68907379543E+01  0.19417035081E+02 -0.19347755455E+02  0.96736257112E+02  0.92515211063E+02 0.  0.
         11    1    3    3    0    0 -0.30690747671E+02  0.47368673308E+01  0.22696783842E+02  0.38464319853E+02  0.51100000000E-03 0. -1.
         22    1    1    0    0    0 -0.68907379543E+01 -0.19417035081E+02  0.19347755455E+02  0.28263742888E+02  0.00000000000E+00 0.  1.
</event>
<event>
 5    1  0.1111613E-009  0.9118800E+02  0.7818608E-02  0.1130116E+00
         25   -1    0    0    0    0  0.00000000000E+00  0.00000000000E+00  0.99999998245E-14  0.12500000000E+03  0.12500000000E+03 0.  0.
        -11    1    3    3    0    0  0.16834250911E+02 -0.25582107242E+02 -0.50635070162E+02  0.59175556991E+02  0.51100000000E-03 0.  1.
         23    2    1    0    0    0  0.10548669529E+02 -0.23335723536E+02 -0.15230086522E+02  0.95204262767E+02  0.90421599697E+02 0.  0.
         11    1    3    3    0    0 -0.62855813815E+01  0.22463837055E+01  0.35404983640E+02  0.36028705776E+02  0.51100000000E-03 0. -1.
         22    1    1    0    0    0 -0.10548669529E+02  0.23335723536E+02  0.15230086522E+02  0.29795737233E+02  0.00000000000E+00 0.  1.
</event>
<event>
 5    1  0.1111613E-009  0.9118800E+02  0.7818608E-02  0.1130116E+00
         25   -1    0    0    0    0  0.00000000000E+00  0.00000000000E+00  0.99999998245E-14  0.12500000000E+03  0.12500000000E+03 0.  0.
        -11    1    3    3    0    0 -0.33704740475E+02 -0.28491939560E+02 -0.24887514302E+02  0.50667430552E+02  0.51100000000E-03 0. -1.
         23    2    1    0    0    0 -0.86825295561E+01  0.93908519948E+01 -0.25938000767E+02  0.96080209121E+02  0.91624517899E+02 0.  0.
         11    1    3    3    0    0  0.25022210919E+02  0.37882791555E+02 -0.10504864650E+01  0.45412778569E+02  0.51100000000E-03 0.  1.
         22    1    1    0    0    0  0.86825295561E+01 -0.93908519948E+01  0.25938000767E+02  0.28919790879E+02  0.00000000000E+00 0. -1.
</event>
<event>
 5    1  0.1111613E-009  0.9118800E+02  0.7818608E-02  0.1130116E+00
         25   -1    0    0    0    0  0.00000000000E+00  0.00000000000E+00  0.99999998245E-14  0.12500000000E+03  0.12500000000E+03 0.  0.
        -11    1    3    3    0    0  0.33929332183E+01 -0.48938522086E+01  0.55520436288E+02  0.55838880998E+02  0.51100000000E-03 0.  1.
         23    2    1    0    0    0  0.20824915299E+02 -0.63286668993E+01  0.19959949193E+02  0.95468174900E+02  0.90785702206E+02 0.  0.
         11    1    3    3    0    0  0.17431982081E+02 -0.14348146907E+01 -0.35560487095E+02  0.39629293902E+02  0.51100000000E-03 0. -1.
         22    1    1    0    0    0 -0.20824915299E+02  0.63286668993E+01 -0.19959949193E+02  0.29531825100E+02  0.00000000000E+00 0.  1.
</event>
<event>
 5    1  0.1111613E-009  0.9118800E+02  0.7818608E-02  0.1130116E+00
         25   -1    0    0    0    0  0.00000000000E+00  0.00000000000E+00  0.99999998245E-14  0.12500000000E+03  0.12500000000E+03 0.  0.
        -11    1    3    3    0    0 -0.47536468909E+02  0.24183836922E+01 -0.91792931475E+01  0.48474981991E+02  0.51100000000E-03 0.  1.
         23    2    1    0    0    0 -0.11698701204E+02 -0.30210550223E+01  0.24327485060E+02  0.97837288194E+02  0.93991074303E+02 0.  0.
         11    1    3    3    0    0  0.35837767706E+02 -0.54394387145E+01  0.33506778207E+02  0.49362306204E+02  0.51100000000E-03 0. -1.
         22    1    1    0    0    0  0.11698701204E+02  0.30210550223E+01 -0.24327485060E+02  0.27162711806E+02  0.00000000000E+00 0.  1.
</event>
<event>
 5    1  0.1111613E-009  0.9118800E+02  0.7818608E-02  0.1130116E+00
         25   -1    0    0    0    0  0.00000000000E+00  0.00000000000E+00  0.99999998245E-14  0.12500000000E+03  0.12500000000E+03 0.  0.
        -11    1    3    3    0    0 -0.19427289541E+01 -0.41412146091E+02 -0.12563162600E+02  0.43319430911E+02  0.51100000000E-03 0. -1.
         23    2    1    0    0    0 -0.24830128889E+02  0.74926387378E+01 -0.94200238679E+01  0.97406308953E+02  0.93416150843E+02 0.  0.
         11    1    3    3    0    0 -0.22887399935E+02  0.48904784829E+02  0.31431387322E+01  0.54086878042E+02  0.51100000000E-03 0.  1.
         22    1    1    0    0    0  0.24830128889E+02 -0.74926387378E+01  0.94200238679E+01  0.27593691047E+02  0.00000000000E+00 0. -1.
</event>
<event>
 5    1  0.1111613E-009  0.9118800E+02  0.7818608E-02  0.1130116E+00
         25   -1    0    0    0    0  0.00000000000E+00  0.00000000000E+00  0.99999998245E-14  0.12500000000E+03  0.12500000000E+03 0.  0.
        -11    1    3    3    0    0  0.33385140968E+02 -0.31224587890E+02  0.13990984119E+01  0.45732920342E+02  0.51100000000E-03 0. -1.
         23    2    1    0    0    0 -0.10041940231E+02 -0.21949758105E+02 -0.18690085216E+02  0.94472115536E+02  0.89403740883E+02 0.  0.
         11    1    3    3    0    0 -0.43427081199E+02  0.92748297848E+01 -0.20089183628E+02  0.48739195194E+02  0.51100000000E-03 0.  1.
         22    1    1    0    0    0  0.10041940231E+02  0.21949758105E+02  0.18690085216E+02  0.30527884464E+02  0.00000000000E+00 0.  1.
</event>
<event>
 5    1  0.1111613E-009  0.9118800E+02  0.7818608E-02  0.1130116E+00
         25   -1    0    0    0    0  0.00000000000E+00  0.00000000000E+00  0.99999998245E-14  0.12500000000E+03  0.12500000000E+03 0.  0.
        -11    1    3    3    0    0 -0.23668616760E+02  0.22020611490E+02 -0.13100775058E+02  0.34881815565E+02  0.51100000000E-03 0.  1.
         23    2    1    0    0    0 -0.11188388828E+01 -0.16227322052E+02  0.26189538939E+02  0.94170310880E+02  0.88980771630E+02 0.  0.
         11    1    3    3    0    0  0.22549777877E+02 -0.38247933542E+02  0.39290313997E+02  0.59288495315E+02  0.51100000000E-03 0. -1.
         22    1    1    0    0    0  0.11188388828E+01  0.16227322052E+02 -0.26189538939E+02  0.30829689120E+02  0.00000000000E+00 0. -1.
</event>
<event>
 5    1  0.1111613E-009  0.9118800E+02  0.7818608E-02  0.1130116E+00
         25   -1    0    0    0    0  0.00000000000E+00  0.00000000000E+00  0.99999998245E-14  0.12500000000E+03  0.12500000000E+03 0.  0.
        -11    1    3    3    0    0  0.55311193039E+01 -0.10204829537E+02  0.25378000806E+02  0.27906536005E+02  0.51100000000E-03 0. -1.
         23    2    1    0    0    0 -0.16126551058E+02  0.18686884196E+02 -0.24986663082E+02  0.89877377348E+02  0.82730552622E+02 0.  0.
         11    1    3    3    0    0 -0.21657670362E+02  0.28891713733E+02 -0.50364663888E+02  0.61970841343E+02  0.51100000000E-03 0.  1.
         22    1    1    0    0    0  0.16126551058E+02 -0.18686884196E+02  0.24986663082E+02  0.35122622652E+02  0.00000000000E+00 0.  1.
</event>
<event>
 5    1  0.1111613E-009  0.9118800E+02  0.7818608E-02  0.1130116E+00
         25   -1    0    0    0    0  0.00000000000E+00  0.00000000000E+00  0.99999998245E-14  0.12500000000E+03  0.12500000000E+03 0.  0.
        -11    1    3    3    0    0  0.16247686304E+02  0.90351346375E+01 -0.33451036076E+02  0.38269998471E+02  0.51100000000E-03 0.  1.
         23    2    1    0    0    0 -0.18460226550E+02 -0.21962772905E+02  0.11928731962E+01  0.96284737431E+02  0.91903124853E+02 0.  0.
         11    1    3    3    0    0 -0.34707912854E+02 -0.30997907542E+02  0.34643909272E+02  0.58014738960E+02  0.51100000000E-03 0. -1.
         22    1    1    0    0    0  0.18460226550E+02  0.21962772905E+02 -0.11928731962E+01  0.28715262569E+02  0.00000000000E+00 0. -1.
</event>
<event>
 5    1  0.1111613E-009  0.9118800E+02  0.7818608E-02  0.1130116E+00
         25   -1    0    0    0    0  0.00000000000E+00  0.00000000000E+00  0.99999998245E-14  0.12500000000E+03  0.12500000000E+03 0.  0.
        -11    1    3    3    0    0 -0.43115010728E+02  0.24522934904E+02 -0.21835677208E+02  0.54194790209E+02  0.51100000000E-03 0. -1.
         23    2    1    0    0    0 -0.29959966336E+02 -0.67322384411E+00  0.65064559151E+01  0.94334273500E+02  0.89210808622E+02 0.  0.
         11    1    3    3    0    0  0.13155044391E+02 -0.25196158748E+02  0.28342133124E+02  0.40139483291E+02  0.51100000000E-03 0.  1.
         22    1    1    0    0    0  0.29959966336E+02  0.67322384411E+00 -0.65064559151E+01  0.30665726500E+02  0.00000000000E+00 0. -1.
</event>
<event>
 5    1  0.1111613E-009  0.9118800E+02  0.7818608E-02  0.1130116E+00
         25   -1    0    0    0    0  0.00000000000E+00  0.00000000000E+00  0.99999998245E-14  0.12500000000E+03  0.12500000000E+03 0.  0.
        -11    1    3    3    0    0 -0.28708795350E+02  0.28123536229E+01  0.41629323345E+02  0.50646863928E+02  0.51100000000E-03 0.  1.
         23    2    1    0    0    0 -0.17061707119E+02 -0.23009022231E+02  0.67664480098E+01  0.95566995184E+02  0.90921662964E+02 0.  0.
         11    1    3    3    0    0  0.11647088231E+02 -0.25821375853E+02 -0.34862875335E+02  0.44920131256E+02  0.51100000000E-03 0. -1.
         22    1    1    0    0    0  0.17061707119E+02  0.23009022231E+02 -0.67664480098E+01  0.29433004816E+02  0.00000000000E+00 0.  1.
</event>
<event>
 5    1  0.1111613E-009  0.9118800E+02  0.7818608E-02  0.1130116E+00
         25   -1    0    0    0    0  0.00000000000E+00  0.00000000000E+00  0.99999998245E-14  0.12500000000E+03  0.12500000000E+03 0.  0.
        -11    1    3    3    0    0  0.29908642802E+02  0.49043814076E+02  0.17311457806E+02  0.59995909736E+02  0.51100000000E-03 0. -1.
         23    2    1    0    0    0  0.13088560349E+02  0.25875850621E+02 -0.40554159209E+01  0.95720033203E+02  0.91131818267E+02 0.  0.
         11    1    3    3    0    0 -0.16820082453E+02 -0.23167963455E+02 -0.21366873727E+02  0.35724123467E+02  0.51100000000E-03 0.  1.
         22    1    1    0    0    0 -0.13088560349E+02 -0.25875850621E+02  0.40554159209E+01  0.29279966797E+02  0.00000000000E+00 0. -1.
</event>
<event>
 5    1  0.1111613E-009  0.9118800E+02  0.7818608E-02  0.1130116E+00
         25   -1    0    0    0    0  0.00000000000E+00  0.00000000000E+00  0.99999998245E-14  0.12500000000E+03  0.12500000000E+03 0.  0.
        -11    1    3    3    0    0 -0.41754011951E+02 -0.12711436115E+02  0.37271850174E+02  0.57394851144E+02  0.51100000000E-03 0.  1.
         23    2    1    0    0    0 -0.28243548582E+02  0.45883750941E+01  0.57374919466E+01  0.95816613693E+02  0.91264195736E+02 0.  0.
         11    1    3    3    0    0  0.13510463369E+02  0.17299811209E+02 -0.31534358228E+02  0.38421762550E+02  0.51100000000E-03 0. -1.
         22    1    1    0    0    0  0.28243548582E+02 -0.45883750941E+01 -0.57374919466E+01  0.29183386307E+02  0.00000000000E+00 0.  1.
</event>
<event>
 5    1  0.1111613E-009  0.9118800E+02  0.7818608E-02  0.1130116E+00
         25   -1    0    0    0    0  0.00000000000E+00  0.00000000000E+00  0.99999998245E-14  0.12500000000E+03  0.12500000000E+03 0.  0.
        -11    1    3    3    0    0 -0.42435699471E+02 -0.24292798061E+02  0.29834219771E+02  0.57280095119E+02  0.51100000000E-03 0. -1.
         23    2    1    0    0    0 -0.65395434215E+01 -0.11657994203E+02  0.26299178845E+02  0.95498792145E+02  0.90827848352E+02 0.  0.
         11    1    3    3    0    0  0.35896156050E+02  0.12634803859E+02 -0.35350409259E+01  0.38218697025E+02  0.51100000000E-03 0.  1.
         22    1    1    0    0    0  0.65395434215E+01  0.11657994203E+02 -0.26299178845E+02  0.29501207855E+02  0.00000000000E+00 0. -1.
</event>
<event>
 5    1  0.1111613E-009  0.9118800E+02  0.7818608E-02  0.1130116E+00
         25   -1    0    0    0    0  0.00000000000E+00  0.00000000000E+00  0.99999998245E-14  0.12500000000E+03  0.12500000000E+03 0.  0.
        -11    1    3    3    0    0 -0.22911807316E+02 -0.29833746535E+02  0.23823670356E+00  0.37617284641E+02  0.51100000000E-03 0.  1.
         23    2    1    0    0    0  0.20809494500E+02  0.79610832095E+01  0.16057821468E+02  0.97536068426E+02  0.93589620720E+02 0.  0.
         11    1    3    3    0    0  0.43721301816E+02  0.37794829744E+02  0.15819584764E+02  0.59918783785E+02  0.51100000000E-03 0. -1.
         22    1    1    0    0    0 -0.20809494500E+02 -0.79610832095E+01 -0.16057821468E+02  0.27463931574E+02  0.00000000000E+00 0. -1.
</event>
<event>
 5    1  0.1111613E-009  0.9118800E+02  0.7818608E-02  0.1130116E+00
         25   -1    0    0    0    0  0.00000000000E+00  0.00000000000E+00  0.99999998245E-14  0.12500000000E+03  0.12500000000E+03 0.  0.
        -11    1    3    3    0    0 -0.94569668123E+01  0.23347052011E+02 -0.27044015012E+02  0.36958054699E+02  0.51100000000E-03 0.  1.
         23    2    1    0    0    0 -0.17867577423E+02 -0.23275769498E+02  0.64232092399E+01  0.94962200720E+02  0.90086348466E+02 0.  0.
         11    1    3    3    0    0 -0.84106106106E+01 -0.46622821508E+02  0.33467224252E+02  0.58004146021E+02  0.51100000000E-03 0. -1.
         22    1    1    0    0    0  0.17867577423E+02  0.23275769498E+02 -0.64232092399E+01  0.30037799280E+02  0.00000000000E+00 0. -1.
</event>
<event>
 5    1  0.1111613E-009  0.9118800E+02  0.7818608E-02  0.1130116E+00
         25   -1    0    0    0    0  0.00000000000E+00  0.00000000000E+00  0.99999998245E-14  0.12500000000E+03  0.12500000000E+03 0.  0.
        -11    1    3    3    0    0 -0.36700435068E+02  0.25622332787E+02  0.69918804067E+00  0.44765106230E+02  0.51100000000E-03 0.  1.
         23    2    1    0    0    0 -0.43146680101E+01  0.25588319444E+02 -0.27124588766E+02  0.87461729293E+02  0.78996407027E+02 0.  0.
         11    1    3    3    0    0  0.32385767058E+02 -0.34013343062E-01 -0.27823776807E+02  0.42696623062E+02  0.51100000000E-03 0. -1.
         22    1    1    0    0    0  0.43146680101E+01 -0.25588319444E+02  0.27124588766E+02  0.37538270707E+02  0.00000000000E+00 0. -1.
</event>
<event>
 5    1  0.1111613E-009  0.9118800E+02  0.7818608E-02  0.1130116E+00
         25   -1    0    0    0    0  0.00000000000E+00  0.00000000000E+00  0.99999998245E-14  0.12500000000E+03  0.12500000000E+03 0.  0.
        -11    1    3    3    0    0  0.11122229403E+02 -0.29738168864E+02 -0.39337729390E+02  0.50552147611E+02  0.51100000000E-03 0. -1.
         23    2    1    0    0    0  0.66522059685E+00  0.13881835890E+02 -0.22678687464E+02  0.98401677662E+02  0.94738690171E+02 0.  0.
         11    1    3    3    0    0 -0.10457008806E+02  0.43620004754E+02  0.16659041926E+02  0.47849530051E+02  0.51100000000E-03 0.  1.
         22    1    1    0    0    0 -0.66522059685E+00 -0.13881835890E+02  0.22678687464E+02  0.26598322338E+02  0.00000000000E+00 0.  1.
</event>
<event>
 5    1  0.1111613E-009  0.9118800E+02  0.7818608E-02  0.1130116E+00
         25   -1    0    0    0    0  0.00000000000E+00  0.00000000000E+00  0.99999998245E-14  0.12500000000E+03  0.12500000000E+03 0.  0.
        -11    1    3    3    0    0 -0.38469706290E+02  0.15073678633E+01 -0.79668891835E+01  0.39314905360E+02  0.51100000000E-03 0. -1.
         23    2    1    0    0    0  0.12536369811E+02  0.21913718544E+02 -0.16399387451E+02  0.94894991493E+02  0.89993043471E+02 0.  0.
         11    1    3    3    0    0  0.51006076101E+02  0.20406350681E+02 -0.84324982674E+01  0.55580086133E+02  0.51100000000E-03 0.  1.
         22    1    1    0    0    0 -0.12536369811E+02 -0.21913718544E+02  0.16399387451E+02  0.30105008507E+02  0.00000000000E+00 0. -1.
</event>
<event>
 5    1  0.1111613E-009  0.9118800E+02  0.7818608E-02  0.1130116E+00
         25   -1    0    0    0    0  0.00000000000E+00  0.00000000000E+00  0.99999998245E-14  0.12500000000E+03  0.12500000000E+03 0.  0.
        -11    1    3    3    0    0  0.30339937613E+01  0.37638930211E+02 -0.63131548330E+01  0.38285116035E+02  0.51100000000E-03 0.  1.
         23    2    1    0    0    0  0.18595430929E+02 -0.99683777709E+01  0.20913067443E+02  0.95292846035E+02  0.90543975552E+02 0.  0.
         11    1    3    3    0    0  0.15561437167E+02 -0.47607307982E+02  0.27226222276E+02  0.57007730000E+02  0.51100000000E-03 0. -1.
         22    1    1    0    0    0 -0.18595430929E+02  0.99683777709E+01 -0.20913067443E+02  0.29707153965E+02  0.00000000000E+00 0. -1.
</event>
<event>
 5    1  0.1111613E-009  0.9118800E+02  0.7818608E-02  0.1130116E+00
         25   -1    0    0    0    0  0.00000000000E+00  0.00000000000E+00  0.99999998245E-14  0.12500000000E+03  0.12500000000E+03 0.  0.
        -11    1    3    3    0    0  0.22511163517E+02 -0.10641547840E+02  0.36170242546E+02  0.43912201828E+02  0.51100000000E-03 0. -1.
         23    2    1    0    0    0  0.12025239452E+02  0.26185186299E+02  0.59349448125E+00  0.96179476044E+02  0.91759844218E+02 0.  0.
         11    1    3    3    0    0 -0.10485924064E+02  0.36826734140E+02 -0.35576748064E+02  0.52267274216E+02  0.51100000000E-03 0.  1.
         22    1    1    0    0    0 -0.12025239452E+02 -0.26185186299E+02 -0.59349448125E+00  0.28820523956E+02  0.00000000000E+00 0.  1.
</event>
<event>
 5    1  0.1111613E-009  0.9118800E+02  0.7818608E-02  0.1130116E+00
         25   -1    0    0    0    0  0.00000000000E+00  0.00000000000E+00  0.99999998245E-14  0.12500000000E+03  0.12500000000E+03 0.  0.
        -11    1    3    3    0    0 -0.13944975883E+02 -0.29224713241E+01  0.24745164448E+02  0.28553920131E+02  0.51100000000E-03 0.  1.
         23    2    1    0    0    0 -0.16757160215E+02 -0.66931013184E+01 -0.33479042563E+02  0.86967825270E+02  0.78210973128E+02 0.  0.
         11    1    3    3    0    0 -0.28121843317E+01 -0.37706299943E+01 -0.58224207011E+02  0.58413905139E+02  0.51100000000E-03 0. -1.
         22    1    1    0    0    0  0.16757160215E+02  0.66931013184E+01  0.33479042563E+02  0.38032174730E+02  0.00000000000E+00 0. -1.
</event>
<event>
 5    1  0.1111613E-009  0.9118800E+02  0.7818608E-02  0.1130116E+00
         25   -1    0    0    0    0  0.00000000000E+00  0.00000000000E+00  0.99999998245E-14  0.12500000000E+03  0.12500000000E+03 0.  0.
        -11    1    3    3    0    0 -0.16002722828E+02  0.28365120441E+02 -0.95044748173E+01  0.33926423881E+02  0.51100000000E-03 0. -1.
         23    2    1    0    0    0  0.24136203004E+02 -0.16084434188E+02 -0.11370755798E+02  0.93846197568E+02  0.88524287017E+02 0.  0.
         11    1    3    3    0    0  0.40138925832E+02 -0.44449554629E+02 -0.18662809803E+01  0.59919773686E+02  0.51100000000E-03 0.  1.
         22    1    1    0    0    0 -0.24136203004E+02  0.16084434188E+02  0.11370755798E+02  0.31153802432E+02  0.00000000000E+00 0.  1.
</event>
<event>
 5    1  0.1111613E-009  0.9118800E+02  0.7818608E-02  0.1130116E+00
         25   -1    0    0    0    0  0.00000000000E+00  0.00000000000E+00  0.99999998245E-14  0.12500000000E+03  0.12500000000E+03 0.  0.
        -11    1    3    3    0    0  0.92809106565E+01  0.20045962042E+02  0.33155111505E+02  0.39840147038E+02  0.51100000000E-03 0. -1.
         23    2    1    0    0    0  0.18834184972E+02  0.71305463680E+00 -0.20190490019E+02  0.97379521045E+02  0.93380299107E+02 0.  0.
         11    1    3    3    0    0  0.95532743151E+01 -0.19332907405E+02 -0.53345601525E+02  0.57539374008E+02  0.51100000000E-03 0.  1.
         22    1    1    0    0    0 -0.18834184972E+02 -0.71305463680E+00  0.20190490019E+02  0.27620478955E+02  0.00000000000E+00 0.  1.
</event>
<event>
 5    1  0.1111613E-009  0.9118800E+02  0.7818608E-02  0.1130116E+00
         25   -1    0    0    0    0  0.00000000000E+00  0.00000000000E+00  0.99999998245E-14  0.12500000000E+03  0.12500000000E+03 0.  0.
        -11    1    3    3    0    0 -0.14021573576E+02  0.12768756510E+02  0.56470750159E+02  0.59570053653E+02  0.51100000000E-03 0.  1.
         23    2    1    0    0    0 -0.18691755406E+02  0.12218570570E+02  0.24639716834E+02  0.91746566604E+02  0.85508137923E+02 0.  0.
         11    1    3    3    0    0 -0.46701818309E+01 -0.55018594020E+00 -0.31831033326E+02  0.32176512952E+02  0.51100000000E-03 0. -1.
         22    1    1    0    0    0  0.18691755406E+02 -0.12218570570E+02 -0.24639716834E+02  0.33253433396E+02  0.00000000000E+00 0.  1.
</event>
<event>
 5    1  0.1111613E-009  0.9118800E+02  0.7818608E-02  0.1130116E+00
         25   -1    0    0    0    0  0.00000000000E+00  0.00000000000E+00  0.99999998245E-14  0.12500000000E+03  0.12500000000E+03 0.  0.
        -11    1    3    3    0    0  0.59869983073E+02 -0.57465419006E+01  0.12868497912E+02  0.61506388739E+02  0.51100000000E-03 0. -1.
         23    2    1    0    0    0  0.25474630112E+02 -0.76856421317E+01  0.11580582360E+02  0.95980424501E+02  0.91488284088E+02 0.  0.
         11    1    3    3    0    0 -0.34395352961E+02 -0.19391002311E+01 -0.12879155526E+01  0.34474035762E+02  0.51100000000E-03 0.  1.
         22    1    1    0    0    0 -0.25474630112E+02  0.76856421317E+01 -0.11580582360E+02  0.29019575499E+02  0.00000000000E+00 0. -1.
</event>
<event>
 5    1  0.1111613E-009  0.9118800E+02  0.7818608E-02  0.1130116E+00
         25   -1    0    0    0    0  0.00000000000E+00  0.00000000000E+00  0.99999998245E-14  0.12500000000E+03  0.12500000000E+03 0.  0.
        -11    1    3    3    0    0 -0.18187915329E+01 -0.28207463614E+02  0.24955627616E+02  0.37706131546E+02  0.51100000000E-03 0. -1.
         23    2    1    0    0    0 -0.97478164267E+01 -0.58223806155E+01 -0.27478864378E+02  0.95267727490E+02  0.90509291636E+02 0.  0.
         11    1    3    3    0    0 -0.79290248939E+01  0.22385082999E+02 -0.52434491994E+02  0.57561595944E+02  0.51100000000E-03 0.  1.
         22    1    1    0    0    0  0.97478164267E+01  0.58223806155E+01  0.27478864378E+02  0.29732272510E+02  0.00000000000E+00 0.  1.
</event>
<event>
 5    1  0.1111613E-009  0.9118800E+02  0.7818608E-02  0.1130116E+00
         25   -1    0    0    0    0  0.00000000000E+00  0.00000000000E+00  0.99999998245E-14  0.12500000000E+03  0.12500000000E+03 0.  0.
        -11    1    3    3    0    0 -0.52480963719E+02  0.28289453331E+02  0.30258341122E+01  0.59696736887E+02  0.51100000000E-03 0.  1.
         23    2    1    0    0    0 -0.20926679559E+02  0.13843204128E+02  0.14217671276E+02  0.96160749066E+02  0.91734329815E+02 0.  0.
         11    1    3    3    0    0  0.31554284159E+02 -0.14446249203E+02  0.11191837164E+02  0.36464012179E+02  0.51100000000E-03 0. -1.
         22    1    1    0    0    0  0.20926679559E+02 -0.13843204128E+02 -0.14217671276E+02  0.28839250934E+02  0.00000000000E+00 0.  1.
</event>
<event>
 5    1  0.1111613E-009  0.9118800E+02  0.7818608E-02  0.1130116E+00
         25   -1    0    0    0    0  0.00000000000E+00  0.00000000000E+00  0.99999998245E-14  0.12500000000E+03  0.12500000000E+03 0.  0.
        -11    1    3    3    0    0  0.26184644022E+02 -0.46658638239E+02 -0.20400033084E+02  0.57261029111E+02  0.51100000000E-03 0.  1.
         23    2    1    0    0    0 -0.30768039938E+01 -0.29950770472E+02 -0.43667627701E+01  0.94576588098E+02  0.89549690254E+02 0.  0.
         11    1    3    3    0    0 -0.29261448015E+02  0.16707867767E+02  0.16033270313E+02  0.37315558987E+02  0.51100000000E-03 0. -1.
         22    1    1    0    0    0  0.30768039938E+01  0.29950770472E+02  0.43667627701E+01  0.30423411902E+02  0.00000000000E+00 0.  1.
</event>
<event>
 5    1  0.1111613E-009  0.9118800E+02  0.7818608E-02  0.1130116E+00
         25   -1    0    0    0    0  0.00000000000E+00  0.00000000000E+00  0.99999998245E-14  0.12500000000E+03  0.12500000000E+03 0.  0.
        -11    1    3    3    0    0 -0.35552473535E+02 -0.10524264800E+02 -0.46303139523E+02  0.59318793430E+02  0.51100000000E-03 0.  1.
         23    2    1    0    0    0 -0.23663347937E+02  0.63059189717E+01 -0.16812873538E+02  0.95294926927E+02  0.90546848271E+02 0.  0.
         11    1    3    3    0    0  0.11889125598E+02  0.16830183771E+02  0.29490265985E+02  0.35976133497E+02  0.51100000000E-03 0. -1.
         22    1    1    0    0    0  0.23663347937E+02 -0.63059189717E+01  0.16812873538E+02  0.29705073073E+02  0.00000000000E+00 0.  1.
</event>
<event>
 5    1  0.1111613E-009  0.9118800E+02  0.7818608E-02  0.1130116E+00
         25   -1    0    0    0    0  0.00000000000E+00  0.00000000000E+00  0.99999998245E-14  0.12500000000E+03  0.12500000000E+03 0.  0.
        -11    1    3    3    0    0 -0.48992016253E+01  0.40405204617E+02 -0.67110261565E+01  0.41250704346E+02  0.51100000000E-03 0. -1.
         23    2    1    0    0    0 -0.27695299751E+02 -0.89133766738E+01 -0.37707139969E+01  0.95662375760E+02  0.91052698697E+02 0.  0.
         11    1    3    3    0    0 -0.22796098125E+02 -0.49318581290E+02  0.29403121597E+01  0.54411671414E+02  0.51100000000E-03 0.  1.
         22    1    1    0    0    0  0.27695299751E+02  0.89133766738E+01  0.37707139969E+01  0.29337624240E+02  0.00000000000E+00 0. -1.
</event>
<event>
 5    1  0.1111613E-009  0.9118800E+02  0.7818608E-02  0.1130116E+00
         25   -1    0    0    0    0  0.00000000000E+00  0.00000000000E+00  0.99999998245E-14  0.12500000000E+03  0.12500000000E+03 0.  0.
        -11    1    3    3    0    0  0.84131120439E+00 -0.38324915711E+02 -0.81086314963E+01  0.39182354112E+02  0.51100000000E-03 0. -1.
         23    2    1    0    0    0  0.66677635355E+00  0.77060798191E+01 -0.32718686858E+02  0.91379459751E+02  0.84969788383E+02 0.  0.
         11    1    3    3    0    0 -0.17453485085E+00  0.46030995530E+02 -0.24610055362E+02  0.52197105639E+02  0.51100000000E-03 0.  1.
         22    1    1    0    0    0 -0.66677635355E+00 -0.77060798191E+01  0.32718686858E+02  0.33620540249E+02  0.00000000000E+00 0. -1.
</event>
<event>
 5    1  0.1111613E-009  0.9118800E+02  0.7818608E-02  0.1130116E+00
         25   -1    0    0    0    0  0.00000000000E+00  0.00000000000E+00  0.99999998245E-14  0.12500000000E+03  0.12500000000E+03 0.  0.
        -11    1    3    3    0    0 -0.59439006635E+01  0.23027651970E+02  0.50409201729E+02  0.55737692180E+02  0.51100000000E-03 0.  1.
         23    2    1    0    0    0  0.16217389359E+02  0.14393196265E+02  0.34148577805E+02  0.84548879095E+02  0.74244324859E+02 0.  0.
         11    1    3    3    0    0  0.22161290022E+02 -0.86344557044E+01 -0.16260623924E+02  0.28811186915E+02  0.51100000000E-03 0. -1.
         22    1    1    0    0    0 -0.16217389359E+02 -0.14393196265E+02 -0.34148577805E+02  0.40451120905E+02  0.00000000000E+00 0.  1.
</event>
<event>
 5    1  0.1111613E-009  0.9118800E+02  0.7818608E-02  0.1130116E+00
         25   -1    0    0    0    0  0.00000000000E+00  0.00000000000E+00  0.99999998245E-14  0.12500000000E+03  0.12500000000E+03 0.  0.
        -11    1    3    3    0    0  0.36034123634E+02  0.36497290163E+02  0.19863946148E+02  0.55000787377E+02  0.51100000000E-03 0. -1.
         23    2    1    0    0    0  0.56282946810E+01  0.16392812473E+02 -0.12407160529E+02  0.10368475583E+03  0.10147013825E+03 0.  0.
         11    1    3    3    0    0 -0.30405828953E+02 -0.20104477690E+02 -0.32271106677E+02  0.48683968449E+02  0.51100000000E-03 0.  1.
         22    1    1    0    0    0 -0.56282946810E+01 -0.16392812473E+02  0.12407160529E+02  0.21315244174E+02  0.00000000000E+00 0. -1.
</event>
<event>
 5    1  0.1111613E-009  0.9118800E+02  0.7818608E-02  0.1130116E+00
         25   -1    0    0    0    0  0.00000000000E+00  0.00000000000E+00  0.99999998245E-14  0.12500000000E+03  0.12500000000E+03 0.  0.
        -11    1    3    3    0    0  0.30116305282E+02  0.76795653912E+01  0.36874931393E+02  0.48225803612E+02  0.51100000000E-03 0. -1.
         23    2    1    0    0    0  0.27424969352E+02 -0.11675020786E+02 -0.53167355429E+01  0.94722900879E+02  0.89753691956E+02 0.  0.
         11    1    3    3    0    0 -0.26913359301E+01 -0.19354586177E+02 -0.42191666936E+02  0.46497097268E+02  0.51100000000E-03 0.  1.
         22    1    1    0    0    0 -0.27424969352E+02  0.11675020786E+02  0.53167355429E+01  0.30277099121E+02  0.00000000000E+00 0. -1.
</event>
<event>
 5    1  0.1111613E-009  0.9118800E+02  0.7818608E-02  0.1130116E+00
         25   -1    0    0    0    0  0.00000000000E+00  0.00000000000E+00  0.99999998245E-14  0.12500000000E+03  0.12500000000E+03 0.  0.
        -11    1    3    3    0    0 -0.33001804914E+01 -0.60599083584E+01  0.51685174624E+02  0.52143752807E+02  0.51100000000E-03 0.  1.
         23    2    1    0    0    0 -0.16383896641E+02  0.15416018065E+02  0.11036905538E+02  0.99942087757E+02  0.96749790384E+02 0.  0.
         11    1    3    3    0    0 -0.13083716149E+02  0.21475926424E+02 -0.40648269086E+02  0.47798334950E+02  0.51100000000E-03 0. -1.
         22    1    1    0    0    0  0.16383896641E+02 -0.15416018065E+02 -0.11036905538E+02  0.25057912243E+02  0.00000000000E+00 0.  1.
</event>
<event>
 5    1  0.1111613E-009  0.9118800E+02  0.7818608E-02  0.1130116E+00
         25   -1    0    0    0    0  0.00000000000E+00  0.00000000000E+00  0.99999998245E-14  0.12500000000E+03  0.12500000000E+03 0.  0.
        -11    1    3    3    0    0  0.97821566565E+01 -0.22249586327E+02  0.44414100579E+02  0.50629507316E+02  0.51100000000E-03 0. -1.
         23    2    1    0    0    0 -0.75573086724E+01  0.14272186839E+02  0.24396123817E+02  0.95742879690E+02  0.91163150025E+02 0.  0.
         11    1    3    3    0    0 -0.17339465329E+02  0.36521773166E+02 -0.20017976761E+02  0.45113372374E+02  0.51100000000E-03 0.  1.
         22    1    1    0    0    0  0.75573086724E+01 -0.14272186839E+02 -0.24396123817E+02  0.29257120310E+02  0.00000000000E+00 0. -1.
</event>
<event>
 5    1  0.1111613E-009  0.9118800E+02  0.7818608E-02  0.1130116E+00
         25   -1    0    0    0    0  0.00000000000E+00  0.00000000000E+00  0.99999998245E-14  0.12500000000E+03  0.12500000000E+03 0.  0.
        -11    1    3    3    0    0 -0.39430060461E+02 -0.36804514042E+02 -0.13922564579E+02  0.55705832070E+02  0.51100000000E-03 0.  1.
         23    2    1    0    0    0 -0.26094060078E+02 -0.90495741279E+01  0.10950744354E+02  0.95289504125E+02  0.90539361779E+02 0.  0.
         11    1    3    3    0    0  0.13336000384E+02  0.27754939914E+02  0.24873308933E+02  0.39583672055E+02  0.51100000000E-03 0. -1.
         22    1    1    0    0    0  0.26094060078E+02  0.90495741279E+01 -0.10950744354E+02  0.29710495875E+02  0.00000000000E+00 0.  1.
</event>
<event>
 5    1  0.1111613E-009  0.9118800E+02  0.7818608E-02  0.1130116E+00
         25   -1    0    0    0    0  0.00000000000E+00  0.00000000000E+00  0.99999998245E-14  0.12500000000E+03  0.12500000000E+03 0.  0.
        -11    1    3    3    0    0  0.36371215033E+02 -0.13368050619E+02  0.88911997367E+01  0.39757055894E+02  0.51100000000E-03 0. -1.
         23    2    1    0    0    0 -0.39428457703E+01 -0.11056573387E+02  0.35161606826E+02  0.87930707555E+02  0.79735041786E+02 0.  0.
         11    1    3    3    0    0 -0.40314060803E+02  0.23114772317E+01  0.26270407089E+02  0.48173651661E+02  0.51100000000E-03 0.  1.
         22    1    1    0    0    0  0.39428457703E+01  0.11056573387E+02 -0.35161606826E+02  0.37069292445E+02  0.00000000000E+00 0.  1.
</event>
<event>
 5    1  0.1111613E-009  0.9118800E+02  0.7818608E-02  0.1130116E+00
         25   -1    0    0    0    0  0.00000000000E+00  0.00000000000E+00  0.99999998245E-14  0.12500000000E+03  0.12500000000E+03 0.  0.
        -11    1    3    3    0    0  0.38185424317E+02 -0.50808248270E+01  0.32912082493E+01  0.38662300284E+02  0.51100000000E-03 0. -1.
         23    2    1    0    0    0 -0.52327812712E+01  0.28769559318E+02 -0.76073277045E+01  0.94785086828E+02  0.89840256606E+02 0.  0.
         11    1    3    3    0    0 -0.43418205589E+02  0.33850384145E+02 -0.10898535954E+02  0.56122786544E+02  0.51100000000E-03 0.  1.
         22    1    1    0    0    0  0.52327812712E+01 -0.28769559318E+02  0.76073277045E+01  0.30214913172E+02  0.00000000000E+00 0.  1.
</event>
<event>
 5    1  0.1111613E-009  0.9118800E+02  0.7818608E-02  0.1130116E+00
         25   -1    0    0    0    0  0.00000000000E+00  0.00000000000E+00  0.99999998245E-14  0.12500000000E+03  0.12500000000E+03 0.  0.
        -11    1    3    3    0    0  0.51200584528E+01 -0.83963165411E+00  0.39646637137E+02  0.39984694777E+02  0.51100000000E-03 0.  1.
         23    2    1    0    0    0  0.16656794817E+01  0.30976605158E+02 -0.35841234936E+01  0.93772279999E+02  0.88419850711E+02 0.  0.
         11    1    3    3    0    0 -0.34543789711E+01  0.31816236812E+02 -0.43230760631E+02  0.53787585222E+02  0.51100000000E-03 0. -1.
         22    1    1    0    0    0 -0.16656794817E+01 -0.30976605158E+02  0.35841234936E+01  0.31227720001E+02  0.00000000000E+00 0. -1.
</event>
<event>
 5    1  0.1111613E-009  0.9118800E+02  0.7818608E-02  0.1130116E+00
         25   -1    0    0    0    0  0.00000000000E+00  0.00000000000E+00  0.99999998245E-14  0.12500000000E+03  0.12500000000E+03 0.  0.
        -11    1    3    3    0    0  0.94564262645E+01 -0.21129549669E+02 -0.27362542294E+02  0.35841185638E+02  0.51100000000E-03 0. -1.
         23    2    1    0    0    0 -0.21296940065E+02  0.20515683847E+01  0.19190472937E+02  0.96259038977E+02  0.91868165021E+02 0.  0.
         11    1    3    3    0    0 -0.30753366329E+02  0.23181118053E+02  0.46553015231E+02  0.60417853339E+02  0.51100000000E-03 0.  1.
         22    1    1    0    0    0  0.21296940065E+02 -0.20515683847E+01 -0.19190472937E+02  0.28740961023E+02  0.00000000000E+00 0.  1.
</event>
<event>
 5    1  0.1111613E-009  0.9118800E+02  0.7818608E-02  0.1130116E+00
         25   -1    0    0    0    0  0.00000000000E+00  0.00000000000E+00  0.99999998245E-14  0.12500000000E+03  0.12500000000E+03 0.  0.
        -11    1    3    3    0    0  0.29590378723E+02 -0.19069358335E+02 -0.39160731335E+01  0.35419861227E+02  0.51100000000E-03 0.  1.
         23    2    1    0    0    0 -0.25658144662E+02  0.93530237908E+01 -0.26304036373E+01  0.97563920382E+02  0.93626812909E+02 0.  0.
         11    1    3    3    0    0 -0.55248523385E+02  0.28422382126E+02  0.12856694962E+01  0.62144059155E+02  0.51100000000E-03 0. -1.
         22    1    1    0    0    0  0.25658144662E+02 -0.93530237908E+01  0.26304036373E+01  0.27436079618E+02  0.00000000000E+00 0. -1.
</event>
<event>
 5    1  0.1111613E-009  0.9118800E+02  0.7818608E-02  0.1130116E+00
         25   -1    0    0    0    0  0.00000000000E+00  0.00000000000E+00  0.99999998245E-14  0.12500000000E+03  0.12500000000E+03 0.  0.
        -11    1    3    3    0    0 -0.18504442743E+02  0.41607739388E+02 -0.14813677035E+02  0.47885941629E+02  0.51100000000E-03 0.  1.
         23    2    1    0    0    0  0.62171509919E+01  0.17182303552E+02  0.20572908187E+02  0.97484021495E+02  0.93520080057E+02 0.  0.
         11    1    3    3    0    0  0.24721593735E+02 -0.24425435835E+02  0.35386585221E+02  0.49598079866E+02  0.51100000000E-03 0. -1.
         22    1    1    0    0    0 -0.62171509919E+01 -0.17182303552E+02 -0.20572908187E+02  0.27515978505E+02  0.00000000000E+00 0. -1.
</event>
<event>
 5    1  0.1111613E-009  0.9118800E+02  0.7818608E-02  0.1130116E+00
         25   -1    0    0    0    0  0.00000000000E+00  0.00000000000E+00  0.99999998245E-14  0.12500000000E+03  0.12500000000E+03 0.  0.
        -11    1    3    3    0    0 -0.30607948639E+02 -0.47065349152E+02  0.16678352700E+02  0.58567576864E+02  0.51100000000E-03 0. -1.
         23    2    1    0    0    0 -0.85176522270E+01 -0.16437875011E+02  0.21489287290E+02  0.96635522170E+02  0.92379004879E+02 0.  0.
         11    1    3    3    0    0  0.22090296412E+02  0.30627474142E+02  0.48109345909E+01  0.38067945306E+02  0.51100000000E-03 0.  1.
         22    1    1    0    0    0  0.85176522270E+01  0.16437875011E+02 -0.21489287290E+02  0.28364477830E+02  0.00000000000E+00 0. -1.
</event>
<event>
 5    1  0.1111613E-009  0.9118800E+02  0.7818608E-02  0.1130116E+00
         25   -1    0    0    0    0  0.00000000000E+00  0.00000000000E+00  0.99999998245E-14  0.12500000000E+03  0.12500000000E+03 0.  0.
        -11    1    3    3    0    0 -0.50481350452E+02  0.18020837960E+02  0.23831178694E+02  0.58660399099E+02  0.51100000000E-03 0.  1.
         23    2    1    0    0    0 -0.30456926222E+02 -0.24547438815E+01  0.25559493495E+01  0.94337596319E+02  0.89215464353E+02 0.  0.
         11    1    3    3    0    0  0.20024424230E+02 -0.20475581842E+02 -0.21275229345E+02  0.35677197220E+02  0.51100000000E-03 0. -1.
         22    1    1    0    0    0  0.30456926222E+02  0.24547438815E+01 -0.25559493495E+01  0.30662403681E+02  0.00000000000E+00 0.  1.
</event>
<event>
 5    1  0.1111613E-009  0.9118800E+02  0.7818608E-02  0.1130116E+00
         25   -1    0    0    0    0  0.00000000000E+00  0.00000000000E+00  0.99999998245E-14  0.12500000000E+03  0.12500000000E+03 0.  0.
        -11    1    3    3    0    0  0.48121512478E+02 -0.12336433613E+02 -0.36921869666E+02  0.61895815831E+02  0.51100000000E-03 0. -1.
         23    2    1    0    0    0  0.26748486353E+02 -0.66082146995E+01 -0.12832027510E+02  0.94605741435E+02  0.89590375368E+02 0.  0.
         11    1    3    3    0    0 -0.21373026125E+02  0.57282189131E+01  0.24089842156E+02  0.32709925604E+02  0.51100000000E-03 0.  1.
         22    1    1    0    0    0 -0.26748486353E+02  0.66082146995E+01  0.12832027510E+02  0.30394258565E+02  0.00000000000E+00 0. -1.
</event>
<event>
 5    1  0.1111613E-009  0.9118800E+02  0.7818608E-02  0.1130116E+00
         25   -1    0    0    0    0  0.00000000000E+00  0.00000000000E+00  0.99999998245E-14  0.12500000000E+03  0.12500000000E+03 0.  0.
        -11    1    3    3    0    0  0.56153376017E+02  0.67640021261E+01  0.15749349669E+02  0.58711118011E+02  0.51100000000E-03 0.  1.
         23    2    1    0    0    0  0.24134862728E+02 -0.11306238993E+02  0.12325925163E+02  0.95635888058E+02  0.91016328285E+02 0.  0.
         11    1    3    3    0    0 -0.32018513289E+02 -0.18070241119E+02 -0.34234245061E+01  0.36924770046E+02  0.51100000000E-03 0. -1.
         22    1    1    0    0    0 -0.24134862728E+02  0.11306238993E+02 -0.12325925163E+02  0.29364111942E+02  0.00000000000E+00 0.  1.
</event>
<event>
 5    1  0.1111613E-009  0.9118800E+02  0.7818608E-02  0.1130116E+00
         25   -1    0    0    0    0  0.00000000000E+00  0.00000000000E+00  0.99999998245E-14  0.12500000000E+03  0.12500000000E+03 0.  0.
        -11    1    3    3    0    0 -0.28481908474E+02  0.43876276746E+02 -0.16461025715E+01  0.52335995504E+02  0.51100000000E-03 0.  1.
         23    2    1    0    0    0  0.11471515768E+02  0.22232715088E+02 -0.90922434575E+01  0.98381243731E+02  0.94711725424E+02 0.  0.
         11    1    3    3    0    0  0.39953424243E+02 -0.21643561658E+02 -0.74461408860E+01  0.46045248227E+02  0.51100000000E-03 0. -1.
         22    1    1    0    0    0 -0.11471515768E+02 -0.22232715088E+02  0.90922434575E+01  0.26618756269E+02  0.00000000000E+00 0. -1.
</event>
<event>
 5    1  0.1111613E-009  0.9118800E+02  0.7818608E-02  0.1130116E+00
         25   -1    0    0    0    0  0.00000000000E+00  0.00000000000E+00  0.99999998245E-14  0.12500000000E+03  0.12500000000E+03 0.  0.
        -11    1    3    3    0    0  0.50693165305E+02  0.86901521199E+00 -0.19188039040E+02  0.54210082443E+02  0.51100000000E-03 0.  1.
         23    2    1    0    0    0  0.17865441531E+02  0.20376555523E+02 -0.18099678508E+02  0.92412020955E+02  0.86475460327E+02 0.  0.
         11    1    3    3    0    0 -0.32827723774E+02  0.19507540311E+02  0.10883605313E+01  0.38201938512E+02  0.51100000000E-03 0. -1.
         22    1    1    0    0    0 -0.17865441531E+02 -0.20376555523E+02  0.18099678508E+02  0.32587979045E+02  0.00000000000E+00 0.  1.
</event>
<event>
 5    1  0.1111613E-009  0.9118800E+02  0.7818608E-02  0.1130116E+00
         25   -1    0    0    0    0  0.00000000000E+00  0.00000000000E+00  0.99999998245E-14  0.12500000000E+03  0.12500000000E+03 0.  0.
        -11    1    3    3    0    0 -0.13612591590E+02  0.27079954551E+02 -0.49612321862E+02  0.58137845412E+02  0.51100000000E-03 0. -1.
         23    2    1    0    0    0 -0.20898498795E+02  0.13943808573E+02 -0.15324314282E+02  0.95571923990E+02  0.90928438882E+02 0.  0.
         11    1    3    3    0    0 -0.72859072050E+01 -0.13136145979E+02  0.34288007580E+02  0.37434078579E+02  0.51100000000E-03 0.  1.
         22    1    1    0    0    0  0.20898498795E+02 -0.13943808573E+02  0.15324314282E+02  0.29428076010E+02  0.00000000000E+00 0. -1.
</event>
<event>
 5    1  0.1111613E-009  0.9118800E+02  0.7818608E-02  0.1130116E+00
         25   -1    0    0    0    0  0.00000000000E+00  0.00000000000E+00  0.99999998245E-14  0.12500000000E+03  0.12500000000E+03 0.  0.
        -11    1    3    3    0    0  0.28667527690E+02  0.26256853969E+02  0.10139530461E+02  0.40175360639E+02  0.51100000000E-03 0. -1.
         23    2    1    0    0    0 -0.25141602695E+02  0.14780130658E+02  0.46400186904E+01  0.95468961722E+02  0.90786785550E+02 0.  0.
         11    1    3    3    0    0 -0.53809130385E+02 -0.11476723312E+02 -0.54995117703E+01  0.55293601083E+02  0.51100000000E-03 0.  1.
         22    1    1    0    0    0  0.25141602695E+02 -0.14780130658E+02 -0.46400186904E+01  0.29531038278E+02  0.00000000000E+00 0.  1.
</event>
<event>
 5    1  0.1111613E-009  0.9118800E+02  0.7818608E-02  0.1130116E+00
         25   -1    0    0    0    0  0.00000000000E+00  0.00000000000E+00  0.99999998245E-14  0.12500000000E+03  0.12500000000E+03 0.  0.
        -11    1    3    3    0    0  0.14406256317E+02  0.68300351016E+01  0.28958695686E+02  0.33057459925E+02  0.51100000000E-03 0.  1.
         23    2    1    0    0    0 -0.15952508324E+02 -0.13997458623E+02 -0.21017964183E+02  0.95130848888E+02  0.90320054373E+02 0.  0.
         11    1    3    3    0    0 -0.30358764641E+02 -0.20827493725E+02 -0.49976659870E+02  0.62073388963E+02  0.51100000000E-03 0. -1.
         22    1    1    0    0    0  0.15952508324E+02  0.13997458623E+02  0.21017964183E+02  0.29869151112E+02  0.00000000000E+00 0. -1.
</event>
<event>
 5    1  0.1111613E-009  0.9118800E+02  0.7818608E-02  0.1130116E+00
         25   -1    0    0    0    0  0.00000000000E+00  0.00000000000E+00  0.99999998245E-14  0.12500000000E+03  0.12500000000E+03 0.  0.
        -11    1    3    3    0    0  0.36929267425E+02  0.24474694880E+01 -0.13153977371E+02  0.39278340347E+02  0.51100000000E-03 0. -1.
         23    2    1    0    0    0 -0.15974022560E+02  0.22674754934E+02 -0.79029299493E+01  0.96159573341E+02  0.91732727722E+02 0.  0.
         11    1    3    3    0    0 -0.52903289985E+02  0.20227285446E+02  0.52510474221E+01  0.56881232995E+02  0.51100000000E-03 0.  1.
         22    1    1    0    0    0  0.15974022560E+02 -0.22674754934E+02  0.79029299493E+01  0.28840426659E+02  0.00000000000E+00 0.  1.
</event>
<event>
 5    1  0.1111613E-009  0.9118800E+02  0.7818608E-02  0.1130116E+00
         25   -1    0    0    0    0  0.00000000000E+00  0.00000000000E+00  0.99999998245E-14  0.12500000000E+03  0.12500000000E+03 0.  0.
        -11    1    3    3    0    0  0.34180260641E+02 -0.19750701469E+02 -0.15079289761E+02  0.42258317595E+02  0.51100000000E-03 0.  1.
         23    2    1    0    0    0  0.93274159875E+01  0.26534887174E+02 -0.10439134864E+02  0.94998725643E+02  0.90137014654E+02 0.  0.
         11    1    3    3    0    0 -0.24852844653E+02  0.46285588643E+02  0.46401548976E+01  0.52740408048E+02  0.51100000000E-03 0. -1.
         22    1    1    0    0    0 -0.93274159875E+01 -0.26534887174E+02  0.10439134864E+02  0.30001274357E+02  0.00000000000E+00 0. -1.
</event>
<event>
 5    1  0.1111613E-009  0.9118800E+02  0.7818608E-02  0.1130116E+00
         25   -1    0    0    0    0  0.00000000000E+00  0.00000000000E+00  0.99999998245E-14  0.12500000000E+03  0.12500000000E+03 0.  0.
        -11    1    3    3    0    0  0.27228095807E+02 -0.24379292580E+02 -0.46801530088E+02  0.59380992976E+02  0.51100000000E-03 0.  1.
         23    2    1    0    0    0  0.80071781801E+01 -0.23116470271E+02 -0.15806514695E+02  0.95873860417E+02  0.91342570055E+02 0.  0.
         11    1    3    3    0    0 -0.19220917627E+02  0.12628223084E+01  0.30995015393E+02  0.36492867441E+02  0.51100000000E-03 0. -1.
         22    1    1    0    0    0 -0.80071781801E+01  0.23116470271E+02  0.15806514695E+02  0.29126139583E+02  0.00000000000E+00 0.  1.
</event>
<event>
 5    1  0.1111613E-009  0.9118800E+02  0.7818608E-02  0.1130116E+00
         25   -1    0    0    0    0  0.00000000000E+00  0.00000000000E+00  0.99999998245E-14  0.12500000000E+03  0.12500000000E+03 0.  0.
        -11    1    3    3    0    0 -0.91130581613E+01 -0.23511523153E+02  0.54738466224E+02  0.60267231850E+02  0.51100000000E-03 0. -1.
         23    2    1    0    0    0  0.67915086502E+01 -0.81932979260E+01  0.28598100413E+02  0.94485969327E+02  0.89423108489E+02 0.  0.
         11    1    3    3    0    0  0.15904566812E+02  0.15318225227E+02 -0.26140365811E+02  0.34218737478E+02  0.51100000000E-03 0.  1.
         22    1    1    0    0    0 -0.67915086502E+01  0.81932979260E+01 -0.28598100413E+02  0.30514030673E+02  0.00000000000E+00 0. -1.
</event>
<event>
 5    1  0.1111613E-009  0.9118800E+02  0.7818608E-02  0.1130116E+00
         25   -1    0    0    0    0  0.00000000000E+00  0.00000000000E+00  0.99999998245E-14  0.12500000000E+03  0.12500000000E+03 0.  0.
        -11    1    3    3    0    0  0.34062991464E+02 -0.62741669767E+01 -0.38240456889E+02  0.51594428983E+02  0.51100000000E-03 0.  1.
         23    2    1    0    0    0  0.90912700761E+01  0.20953399853E+02 -0.25717308213E+02  0.90604126720E+02  0.83821427332E+02 0.  0.
         11    1    3    3    0    0 -0.24971721388E+02  0.27227566830E+02  0.12523148676E+02  0.39009697737E+02  0.51100000000E-03 0. -1.
         22    1    1    0    0    0 -0.90912700761E+01 -0.20953399853E+02  0.25717308213E+02  0.34395873280E+02  0.00000000000E+00 0.  1.
</event>
<event>
 5    1  0.1111613E-009  0.9118800E+02  0.7818608E-02  0.1130116E+00
         25   -1    0    0    0    0  0.00000000000E+00  0.00000000000E+00  0.99999998245E-14  0.12500000000E+03  0.12500000000E+03 0.  0.
        -11    1    3    3    0    0  0.20175026687E+01  0.18955596075E+02 -0.41678578974E+02  0.45831090813E+02  0.51100000000E-03 0. -1.
         23    2    1    0    0    0 -0.77037380840E+01  0.27545519732E+02  0.64516129832E+01  0.95678906094E+02  0.91075389230E+02 0.  0.
         11    1    3    3    0    0 -0.97212407528E+01  0.85899236566E+01  0.48130191957E+02  0.49847815281E+02  0.51100000000E-03 0.  1.
         22    1    1    0    0    0  0.77037380840E+01 -0.27545519732E+02 -0.64516129832E+01  0.29321093906E+02  0.00000000000E+00 0.  1.
</event>
<event>
 5    1  0.1111613E-009  0.9118800E+02  0.7818608E-02  0.1130116E+00
         25   -1    0    0    0    0  0.00000000000E+00  0.00000000000E+00  0.99999998245E-14  0.12500000000E+03  0.12500000000E+03 0.  0.
        -11    1    3    3    0    0  0.12228590434E+02  0.51652888461E+02 -0.13321739153E+02  0.54726849395E+02  0.51100000000E-03 0. -1.
         23    2    1    0    0    0  0.25710578414E+02  0.19080066410E+02 -0.14164862602E+02  0.89989628549E+02  0.82899982734E+02 0.  0.
         11    1    3    3    0    0  0.13481987980E+02 -0.32572822051E+02 -0.84312344928E+00  0.35262779154E+02  0.51100000000E-03 0.  1.
         22    1    1    0    0    0 -0.25710578414E+02 -0.19080066410E+02  0.14164862602E+02  0.35010371451E+02  0.00000000000E+00 0. -1.
</event>
<event>
 5    1  0.1111613E-009  0.9118800E+02  0.7818608E-02  0.1130116E+00
         25   -1    0    0    0    0  0.00000000000E+00  0.00000000000E+00  0.99999998245E-14  0.12500000000E+03  0.12500000000E+03 0.  0.
        -11    1    3    3    0    0 -0.39317443955E+01  0.35395561119E+02  0.15464031658E+02  0.38825772836E+02  0.51100000000E-03 0.  1.
         23    2    1    0    0    0 -0.23506088597E+02 -0.16467562394E+02  0.29428743235E+00  0.96298024154E+02  0.91921194719E+02 0.  0.
         11    1    3    3    0    0 -0.19574344202E+02 -0.51863123513E+02 -0.15169744226E+02  0.57472251318E+02  0.51100000000E-03 0. -1.
         22    1    1    0    0    0  0.23506088597E+02  0.16467562394E+02 -0.29428743235E+00  0.28701975846E+02  0.00000000000E+00 0. -1.
</event>
<event>
 5    1  0.1111613E-009  0.9118800E+02  0.7818608E-02  0.1130116E+00
         25   -1    0    0    0    0  0.00000000000E+00  0.00000000000E+00  0.99999998245E-14  0.12500000000E+03  0.12500000000E+03 0.  0.
        -11    1    3    3    0    0 -0.46550995229E+02  0.36501660121E+02  0.12908843873E+01  0.59169525358E+02  0.51100000000E-03 0.  1.
         23    2    1    0    0    0 -0.87198757076E+01  0.24008363797E+02  0.41911080467E+01  0.99115580918E+02  0.95675990873E+02 0.  0.
         11    1    3    3    0    0  0.37831119521E+02 -0.12493296324E+02  0.29002236594E+01  0.39946055560E+02  0.51100000000E-03 0. -1.
         22    1    1    0    0    0  0.87198757076E+01 -0.24008363797E+02 -0.41911080467E+01  0.25884419082E+02  0.00000000000E+00 0.  1.
</event>
<event>
 5    1  0.1111613E-009  0.9118800E+02  0.7818608E-02  0.1130116E+00
         25   -1    0    0    0    0  0.00000000000E+00  0.00000000000E+00  0.99999998245E-14  0.12500000000E+03  0.12500000000E+03 0.  0.
        -11    1    3    3    0    0  0.74829875967E+01 -0.33904417735E+02  0.45488085371E+01  0.35017085897E+02  0.51100000000E-03 0.  1.
         23    2    1    0    0    0  0.39890553514E+01  0.27587197424E+02  0.53698746103E+01  0.96613355647E+02  0.92349006014E+02 0.  0.
         11    1    3    3    0    0 -0.34939322453E+01  0.61491615159E+02  0.82106607324E+00  0.61596269750E+02  0.51100000000E-03 0. -1.
         22    1    1    0    0    0 -0.39890553514E+01 -0.27587197424E+02 -0.53698746103E+01  0.28386644353E+02  0.00000000000E+00 0. -1.
</event>
<event>
 5    1  0.1111613E-009  0.9118800E+02  0.7818608E-02  0.1130116E+00
         25   -1    0    0    0    0  0.00000000000E+00  0.00000000000E+00  0.99999998245E-14  0.12500000000E+03  0.12500000000E+03 0.  0.
        -11    1    3    3    0    0 -0.23888315839E+02 -0.13549537056E+02  0.27630924614E+02  0.38957792332E+02  0.51100000000E-03 0. -1.
         23    2    1    0    0    0  0.12403248760E+02 -0.20654799095E+02 -0.15943724232E+02  0.96109454006E+02  0.91664406950E+02 0.  0.
         11    1    3    3    0    0  0.36291564600E+02 -0.71052620384E+01 -0.43574648846E+02  0.57151661674E+02  0.51100000000E-03 0.  1.
         22    1    1    0    0    0 -0.12403248760E+02  0.20654799095E+02  0.15943724232E+02  0.28890545994E+02  0.00000000000E+00 0.  1.
</event>
<event>
 5    1  0.1111613E-009  0.9118800E+02  0.7818608E-02  0.1130116E+00
         25   -1    0    0    0    0  0.00000000000E+00  0.00000000000E+00  0.99999998245E-14  0.12500000000E+03  0.12500000000E+03 0.  0.
        -11    1    3    3    0    0 -0.39763010071E+02  0.80566139475E+01 -0.16872459231E+02  0.43939570765E+02  0.51100000000E-03 0.  1.
         23    2    1    0    0    0 -0.11651597537E+01  0.27351387039E+02  0.11202410106E+02  0.95420446887E+02  0.90719963193E+02 0.  0.
         11    1    3    3    0    0  0.38597850318E+02  0.19294773091E+02  0.28074869336E+02  0.51480876122E+02  0.51100000000E-03 0. -1.
         22    1    1    0    0    0  0.11651597537E+01 -0.27351387039E+02 -0.11202410106E+02  0.29579553113E+02  0.00000000000E+00 0.  1.
</event>
<event>
 5    1  0.1111613E-009  0.9118800E+02  0.7818608E-02  0.1130116E+00
         25   -1    0    0    0    0  0.00000000000E+00  0.00000000000E+00  0.99999998245E-14  0.12500000000E+03  0.12500000000E+03 0.  0.
        -11    1    3    3    0    0  0.77663125068E+01  0.55688952033E+02 -0.11904039758E+02  0.57474178127E+02  0.51100000000E-03 0.  1.
         23    2    1    0    0    0  0.57299060558E+01  0.20119520967E+02 -0.22136974386E+02  0.94542282057E+02  0.89501790564E+02 0.  0.
         11    1    3    3    0    0 -0.20364064510E+01 -0.35569431066E+02 -0.10232934627E+02  0.37068103930E+02  0.51100000000E-03 0. -1.
         22    1    1    0    0    0 -0.57299060558E+01 -0.20119520967E+02  0.22136974386E+02  0.30457717943E+02  0.00000000000E+00 0.  1.
</event>
<event>
 5    1  0.1111613E-009  0.9118800E+02  0.7818608E-02  0.1130116E+00
         25   -1    0    0    0    0  0.00000000000E+00  0.00000000000E+00  0.99999998245E-14  0.12500000000E+03  0.12500000000E+03 0.  0.
        -11    1    3    3    0    0 -0.16873827280E+02 -0.71514248010E+01 -0.51344642033E+02  0.54517347601E+02  0.51100000000E-03 0. -1.
         23    2    1    0    0    0 -0.94706823191E+01  0.18645859125E+02 -0.17368646129E+02  0.97814861515E+02  0.93961244025E+02 0.  0.
         11    1    3    3    0    0  0.74031449605E+01  0.25797283926E+02  0.33975995903E+02  0.43297513914E+02  0.51100000000E-03 0.  1.
         22    1    1    0    0    0  0.94706823191E+01 -0.18645859125E+02  0.17368646129E+02  0.27185138485E+02  0.00000000000E+00 0. -1.
</event>
<event>
 5    1  0.1111613E-009  0.9118800E+02  0.7818608E-02  0.1130116E+00
         25   -1    0    0    0    0  0.00000000000E+00  0.00000000000E+00  0.99999998245E-14  0.12500000000E+03  0.12500000000E+03 0.  0.
        -11    1    3    3    0    0 -0.53304898552E+02  0.27020256175E+01 -0.30213011642E+02  0.61331388577E+02  0.51100000000E-03 0. -1.
         23    2    1    0    0    0 -0.20529809657E+02 -0.32899861589E+01 -0.19926172088E+02  0.96201572481E+02  0.91789940191E+02 0.  0.
         11    1    3    3    0    0  0.32775088895E+02 -0.59920117764E+01  0.10286839554E+02  0.34870183904E+02  0.51100000000E-03 0.  1.
         22    1    1    0    0    0  0.20529809657E+02  0.32899861589E+01  0.19926172088E+02  0.28798427519E+02  0.00000000000E+00 0. -1.
</event>
<event>
 5    1  0.1111613E-009  0.9118800E+02  0.7818608E-02  0.1130116E+00
         25   -1    0    0    0    0  0.00000000000E+00  0.00000000000E+00  0.99999998245E-14  0.12500000000E+03  0.12500000000E+03 0.  0.
        -11    1    3    3    0    0  0.21019840143E+02  0.53703372353E+02  0.24008419782E+02  0.62468312787E+02  0.51100000000E-03 0.  1.
         23    2    1    0    0    0  0.96563061405E+01  0.22877118191E+02  0.90049238935E+01  0.98586074898E+02  0.94981675730E+02 0.  0.
         11    1    3    3    0    0 -0.11363534003E+02 -0.30826254163E+02 -0.15003495889E+02  0.36117762111E+02  0.51100000000E-03 0. -1.
         22    1    1    0    0    0 -0.96563061405E+01 -0.22877118191E+02 -0.90049238935E+01  0.26413925102E+02  0.00000000000E+00 0.  1.
</event>
<event>
 5    1  0.1111613E-009  0.9118800E+02  0.7818608E-02  0.1130116E+00
         25   -1    0    0    0    0  0.00000000000E+00  0.00000000000E+00  0.99999998245E-14  0.12500000000E+03  0.12500000000E+03 0.  0.
        -11    1    3    3    0    0  0.28726004182E+02  0.41117476453E+02  0.63104405113E+01  0.50553455330E+02  0.51100000000E-03 0. -1.
         23    2    1    0    0    0  0.26867646947E+02 -0.11776062265E+01 -0.10533735744E+02  0.96117188544E+02  0.91674953701E+02 0.  0.
         11    1    3    3    0    0 -0.18583572349E+01 -0.42295082679E+02 -0.16844176255E+02  0.45563733214E+02  0.51100000000E-03 0.  1.
         22    1    1    0    0    0 -0.26867646947E+02  0.11776062265E+01  0.10533735744E+02  0.28882811456E+02  0.00000000000E+00 0. -1.
</event>
<event>
 5    1  0.1111613E-009  0.9118800E+02  0.7818608E-02  0.1130116E+00
         25   -1    0    0    0    0  0.00000000000E+00  0.00000000000E+00  0.99999998245E-14  0.12500000000E+03  0.12500000000E+03 0.  0.
        -11    1    3    3    0    0  0.14367735592E+02 -0.26648155141E+02  0.47951292917E+02  0.56708751451E+02  0.51100000000E-03 0. -1.
         23    2    1    0    0    0  0.62688906313E+01  0.47639496059E+01  0.30410368649E+02  0.93586870150E+02  0.88157345341E+02 0.  0.
         11    1    3    3    0    0 -0.80988449605E+01  0.31412104747E+02 -0.17540924268E+02  0.36878118699E+02  0.51100000000E-03 0.  1.
         22    1    1    0    0    0 -0.62688906313E+01 -0.47639496059E+01 -0.30410368649E+02  0.31413129850E+02  0.00000000000E+00 0. -1.
</event>
<event>
 5    1  0.1111613E-009  0.9118800E+02  0.7818608E-02  0.1130116E+00
         25   -1    0    0    0    0  0.00000000000E+00  0.00000000000E+00  0.99999998245E-14  0.12500000000E+03  0.12500000000E+03 0.  0.
        -11    1    3    3    0    0  0.29563669266E+02 -0.33455182028E+02  0.64208857995E+01  0.45105293699E+02  0.51100000000E-03 0. -1.
         23    2    1    0    0    0 -0.17859619211E+02 -0.14712044365E+02  0.15837158824E+02  0.96960280897E+02  0.92817402594E+02 0.  0.
         11    1    3    3    0    0 -0.47423288477E+02  0.18743137662E+02  0.94162730243E+01  0.51854987198E+02  0.51100000000E-03 0.  1.
         22    1    1    0    0    0  0.17859619211E+02  0.14712044365E+02 -0.15837158824E+02  0.28039719103E+02  0.00000000000E+00 0. -1.
</event>
<event>
 5    1  0.1111613E-009  0.9118800E+02  0.7818608E-02  0.1130116E+00
         25   -1    0    0    0    0  0.00000000000E+00  0.00000000000E+00  0.99999998245E-14  0.12500000000E+03  0.12500000000E+03 0.  0.
        -11    1    3    3    0    0  0.53309949498E+01  0.48619265442E+02  0.25984909419E+02  0.55384727110E+02  0.51100000000E-03 0.  1.
         23    2    1    0    0    0 -0.17815693656E+02  0.24463821419E+02  0.66878291706E+01  0.94006378755E+02  0.88750181345E+02 0.  0.
         11    1    3    3    0    0 -0.23146688606E+02 -0.24155444023E+02 -0.19297080249E+02  0.38621651645E+02  0.51100000000E-03 0. -1.
         22    1    1    0    0    0  0.17815693656E+02 -0.24463821419E+02 -0.66878291706E+01  0.30993621245E+02  0.00000000000E+00 0.  1.
</event>
<event>
 5    1  0.1111613E-009  0.9118800E+02  0.7818608E-02  0.1130116E+00
         25   -1    0    0    0    0  0.00000000000E+00  0.00000000000E+00  0.99999998245E-14  0.12500000000E+03  0.12500000000E+03 0.  0.
        -11    1    3    3    0    0 -0.87065878161E+01 -0.55333315375E+02  0.25912385491E+02  0.61717357234E+02  0.51100000000E-03 0.  1.
         23    2    1    0    0    0  0.23186027080E+01 -0.26187622521E+02  0.14985576222E+02  0.94738886562E+02  0.89775952462E+02 0.  0.
         11    1    3    3    0    0  0.11025190524E+02  0.29145692855E+02 -0.10926809269E+02  0.33021529327E+02  0.51100000000E-03 0. -1.
         22    1    1    0    0    0 -0.23186027080E+01  0.26187622521E+02 -0.14985576222E+02  0.30261113438E+02  0.00000000000E+00 0.  1.
</event>
<event>
 5    1  0.1111613E-009  0.9118800E+02  0.7818608E-02  0.1130116E+00
         25   -1    0    0    0    0  0.00000000000E+00  0.00000000000E+00  0.99999998245E-14  0.12500000000E+03  0.12500000000E+03 0.  0.
        -11    1    3    3    0    0 -0.26170008224E+02 -0.17825836743E+02  0.30193778834E+02  0.43752646395E+02  0.51100000000E-03 0.  1.
         23    2    1    0    0    0  0.18997043565E+02 -0.23621968340E+01  0.27399860620E+02  0.91575158937E+02  0.85257197551E+02 0.  0.
         11    1    3    3    0    0  0.45167051789E+02  0.15463639909E+02 -0.27939182139E+01  0.47822512542E+02  0.51100000000E-03 0. -1.
         22    1    1    0    0    0 -0.18997043565E+02  0.23621968340E+01 -0.27399860620E+02  0.33424841063E+02  0.00000000000E+00 0.  1.
</event>
<event>
 5    1  0.1111613E-009  0.9118800E+02  0.7818608E-02  0.1130116E+00
         25   -1    0    0    0    0  0.00000000000E+00  0.00000000000E+00  0.99999998245E-14  0.12500000000E+03  0.12500000000E+03 0.  0.
        -11    1    3    3    0    0  0.14125234342E+02 -0.51655697984E+01  0.26397694314E+02  0.30381632970E+02  0.51100000000E-03 0.  1.
         23    2    1    0    0    0 -0.13282533631E+02  0.37848541308E+01 -0.29025644903E+02  0.92855966612E+02  0.87114818790E+02 0.  0.
         11    1    3    3    0    0 -0.27407767972E+02  0.89504239292E+01 -0.55423339217E+02  0.62474333642E+02  0.51100000000E-03 0. -1.
         22    1    1    0    0    0  0.13282533631E+02 -0.37848541308E+01  0.29025644903E+02  0.32144033388E+02  0.00000000000E+00 0. -1.
</event>
<event>
 5    1  0.1111613E-009  0.9118800E+02  0.7818608E-02  0.1130116E+00
         25   -1    0    0    0    0  0.00000000000E+00  0.00000000000E+00  0.99999998245E-14  0.12500000000E+03  0.12500000000E+03 0.  0.
        -11    1    3    3    0    0 -0.11546810971E+02  0.51931773437E+01 -0.32399343195E+02  0.34785275251E+02  0.51100000000E-03 0. -1.
         23    2    1    0    0    0  0.47611814868E+01 -0.15706003568E+02  0.23316914172E+02  0.96486391254E+02  0.92176991779E+02 0.  0.
         11    1    3    3    0    0  0.16307992458E+02 -0.20899180911E+02  0.55716257367E+02  0.61701116003E+02  0.51100000000E-03 0.  1.
         22    1    1    0    0    0 -0.47611814868E+01  0.15706003568E+02 -0.23316914172E+02  0.28513608746E+02  0.00000000000E+00 0.  1.
</event>
<event>
 5    1  0.1111613E-009  0.9118800E+02  0.7818608E-02  0.1130116E+00
         25   -1    0    0    0    0  0.00000000000E+00  0.00000000000E+00  0.99999998245E-14  0.12500000000E+03  0.12500000000E+03 0.  0.
        -11    1    3    3    0    0 -0.28672838226E+02  0.42880894079E+02  0.84977287831E+01  0.52279193985E+02  0.51100000000E-03 0. -1.
         23    2    1    0    0    0 -0.53376264694E+00  0.17020499020E+02  0.25684424205E+02  0.94183252342E+02  0.88998949913E+02 0.  0.
         11    1    3    3    0    0  0.28139075579E+02 -0.25860395059E+02  0.17186695422E+02  0.41904058358E+02  0.51100000000E-03 0.  1.
         22    1    1    0    0    0  0.53376264694E+00 -0.17020499020E+02 -0.25684424205E+02  0.30816747658E+02  0.00000000000E+00 0. -1.
</event>
<event>
 5    1  0.1111613E-009  0.9118800E+02  0.7818608E-02  0.1130116E+00
         25   -1    0    0    0    0  0.00000000000E+00  0.00000000000E+00  0.99999998245E-14  0.12500000000E+03  0.12500000000E+03 0.  0.
        -11    1    3    3    0    0  0.24552318445E+02  0.75392324789E+01 -0.25862365824E+02  0.36448845437E+02  0.51100000000E-03 0.  1.
         23    2    1    0    0    0 -0.33718929487E+01  0.16654924467E+02  0.24756050946E+02  0.94973041621E+02  0.90101389585E+02 0.  0.
         11    1    3    3    0    0 -0.27924211393E+02  0.91156919880E+01  0.50618416771E+02  0.58524196184E+02  0.51100000000E-03 0. -1.
         22    1    1    0    0    0  0.33718929487E+01 -0.16654924467E+02 -0.24756050946E+02  0.30026958379E+02  0.00000000000E+00 0. -1.
</event>
<event>
 5    1  0.1111613E-009  0.9118800E+02  0.7818608E-02  0.1130116E+00
         25   -1    0    0    0    0  0.00000000000E+00  0.00000000000E+00  0.99999998245E-14  0.12500000000E+03  0.12500000000E+03 0.  0.
        -11    1    3    3    0    0  0.16688776574E+02 -0.59061638267E+01 -0.31371784043E+02  0.36022033105E+02  0.51100000000E-03 0.  1.
         23    2    1    0    0    0 -0.13379358845E+02 -0.94478189751E+01  0.22113196100E+02  0.97481606728E+02  0.93516852396E+02 0.  0.
         11    1    3    3    0    0 -0.30068135420E+02 -0.35416551483E+01  0.53484980143E+02  0.61459573623E+02  0.51100000000E-03 0. -1.
         22    1    1    0    0    0  0.13379358845E+02  0.94478189751E+01 -0.22113196100E+02  0.27518393272E+02  0.00000000000E+00 0. -1.
</event>
<event>
 5    1  0.1111613E-009  0.9118800E+02  0.7818608E-02  0.1130116E+00
         25   -1    0    0    0    0  0.00000000000E+00  0.00000000000E+00  0.99999998245E-14  0.12500000000E+03  0.12500000000E+03 0.  0.
        -11    1    3    3    0    0 -0.41543595832E+02 -0.11259555406E+02  0.10573090087E+02  0.44321982998E+02  0.51100000000E-03 0. -1.
         23    2    1    0    0    0 -0.10991761795E+02  0.24602405897E+02 -0.10691496672E+02  0.96010255187E+02  0.91529032534E+02 0.  0.
         11    1    3    3    0    0  0.30551834038E+02  0.35861961303E+02 -0.21264586759E+02  0.51688272189E+02  0.51100000000E-03 0.  1.
         22    1    1    0    0    0  0.10991761795E+02 -0.24602405897E+02  0.10691496672E+02  0.28989744813E+02  0.00000000000E+00 0. -1.
</event>
<event>
 5    1  0.1111613E-009  0.9118800E+02  0.7818608E-02  0.1130116E+00
         25   -1    0    0    0    0  0.00000000000E+00  0.00000000000E+00  0.99999998245E-14  0.12500000000E+03  0.12500000000E+03 0.  0.
        -11    1    3    3    0    0  0.40798856904E+02  0.21434220491E+02  0.37380516598E+02  0.59340336653E+02  0.51100000000E-03 0.  1.
         23    2    1    0    0    0  0.46448799562E+01  0.14544923376E+02  0.19428756813E+02  0.10028955085E+03  0.97197673392E+02 0.  0.
         11    1    3    3    0    0 -0.36153976947E+02 -0.68892971142E+01 -0.17951759785E+02  0.40949214199E+02  0.51100000000E-03 0. -1.
         22    1    1    0    0    0 -0.46448799562E+01 -0.14544923376E+02 -0.19428756813E+02  0.24710449148E+02  0.00000000000E+00 0.  1.
</event>
<event>
 5    1  0.1111613E-009  0.9118800E+02  0.7818608E-02  0.1130116E+00
         25   -1    0    0    0    0  0.00000000000E+00  0.00000000000E+00  0.99999998245E-14  0.12500000000E+03  0.12500000000E+03 0.  0.
        -11    1    3    3    0    0 -0.37324817904E+02 -0.90120317423E+01 -0.48237143372E+02  0.61653716422E+02  0.51100000000E-03 0.  1.
         23    2    1    0    0    0 -0.17898727476E+02  0.30246125076E+01 -0.22985091527E+02  0.95711313471E+02  0.91119857154E+02 0.  0.
         11    1    3    3    0    0  0.19426090428E+02  0.12036644250E+02  0.25252051845E+02  0.34057597049E+02  0.51100000000E-03 0. -1.
         22    1    1    0    0    0  0.17898727476E+02 -0.30246125076E+01  0.22985091527E+02  0.29288686529E+02  0.00000000000E+00 0.  1.
</event>
<event>
 5    1  0.1111613E-009  0.9118800E+02  0.7818608E-02  0.1130116E+00
         25   -1    0    0    0    0  0.00000000000E+00  0.00000000000E+00  0.99999998245E-14  0.12500000000E+03  0.12500000000E+03 0.  0.
        -11    1    3    3    0    0 -0.10200817447E+02 -0.16747671165E+02 -0.40109808429E+02  0.44646812859E+02  0.51100000000E-03 0. -1.
         23    2    1    0    0    0  0.27528695889E+01 -0.28016361750E+02  0.80046109701E+01  0.95732806533E+02  0.91149336987E+02 0.  0.
         11    1    3    3    0    0  0.12953687036E+02 -0.11268690584E+02  0.48114419399E+02  0.51085993674E+02  0.51100000000E-03 0.  1.
         22    1    1    0    0    0 -0.27528695889E+01  0.28016361750E+02 -0.80046109701E+01  0.29267193467E+02  0.00000000000E+00 0.  1.
</event>
<event>
 5    1  0.1111613E-009  0.9118800E+02  0.7818608E-02  0.1130116E+00
         25   -1    0    0    0    0  0.00000000000E+00  0.00000000000E+00  0.99999998245E-14  0.12500000000E+03  0.12500000000E+03 0.  0.
        -11    1    3    3    0    0  0.22074776049E+01  0.24404348193E+02  0.24189060399E+02  0.34431901071E+02  0.51100000000E-03 0. -1.
         23    2    1    0    0    0 -0.13108023141E+02 -0.11261281760E+02 -0.23442767097E+02  0.95876125486E+02  0.91345669692E+02 0.  0.
         11    1    3    3    0    0 -0.15315500746E+02 -0.35665629953E+02 -0.47631827496E+02  0.61444224415E+02  0.51100000000E-03 0.  1.
         22    1    1    0    0    0  0.13108023141E+02  0.11261281760E+02  0.23442767097E+02  0.29123874514E+02  0.00000000000E+00 0.  1.
</event>
<event>
 5    1  0.1111613E-009  0.9118800E+02  0.7818608E-02  0.1130116E+00
         25   -1    0    0    0    0  0.00000000000E+00  0.00000000000E+00  0.99999998245E-14  0.12500000000E+03  0.12500000000E+03 0.  0.
        -11    1    3    3    0    0 -0.41857233952E+02  0.13994882535E+02 -0.35553346892E+02  0.56673849761E+02  0.51100000000E-03 0. -1.
         23    2    1    0    0    0 -0.68327636436E+01  0.20541922702E+02 -0.19910937237E+02  0.95587372288E+02  0.90949673292E+02 0.  0.
         11    1    3    3    0    0  0.35024470308E+02  0.65470401667E+01  0.15642409655E+02  0.38913522526E+02  0.51100000000E-03 0.  1.
         22    1    1    0    0    0  0.68327636436E+01 -0.20541922702E+02  0.19910937237E+02  0.29412627712E+02  0.00000000000E+00 0. -1.
</event>
<event>
 5    1  0.1111613E-009  0.9118800E+02  0.7818608E-02  0.1130116E+00
         25   -1    0    0    0    0  0.00000000000E+00  0.00000000000E+00  0.99999998245E-14  0.12500000000E+03  0.12500000000E+03 0.  0.
        -11    1    3    3    0    0  0.48293481814E+02  0.10782834924E+02 -0.19491329719E+01  0.49520995894E+02  0.51100000000E-03 0. -1.
         23    2    1    0    0    0  0.94406197139E+01  0.51181712713E+01 -0.26895877734E+02  0.96039523194E+02  0.91568994744E+02 0.  0.
         11    1    3    3    0    0 -0.38852862100E+02 -0.56646636529E+01 -0.24946744762E+02  0.46518527300E+02  0.51100000000E-03 0.  1.
         22    1    1    0    0    0 -0.94406197139E+01 -0.51181712713E+01  0.26895877734E+02  0.28960476806E+02  0.00000000000E+00 0. -1.
</event>
<event>
 5    1  0.1111613E-009  0.9118800E+02  0.7818608E-02  0.1130116E+00
         25   -1    0    0    0    0  0.00000000000E+00  0.00000000000E+00  0.99999998245E-14  0.12500000000E+03  0.12500000000E+03 0.  0.
        -11    1    3    3    0    0  0.70301240555E+01 -0.50432985852E+02 -0.15013976401E+02  0.53087928889E+02  0.51100000000E-03 0.  1.
         23    2    1    0    0    0  0.12241208541E+02 -0.20421512972E+02  0.15806978870E+02  0.96421232364E+02  0.92088588278E+02 0.  0.
         11    1    3    3    0    0  0.52110844855E+01  0.30011472880E+02  0.30820955271E+02  0.43333303474E+02  0.51100000000E-03 0. -1.
         22    1    1    0    0    0 -0.12241208541E+02  0.20421512972E+02 -0.15806978870E+02  0.28578767636E+02  0.00000000000E+00 0.  1.
</event>
<event>
 5    1  0.1111613E-009  0.9118800E+02  0.7818608E-02  0.1130116E+00
         25   -1    0    0    0    0  0.00000000000E+00  0.00000000000E+00  0.99999998245E-14  0.12500000000E+03  0.12500000000E+03 0.  0.
        -11    1    3    3    0    0 -0.27505827063E+02  0.18852091735E+02 -0.42217125232E+02  0.53798304325E+02  0.51100000000E-03 0.  1.
         23    2    1    0    0    0 -0.13206849830E+02  0.23485926686E+02 -0.59773532140E+00  0.98048804809E+02  0.94271953423E+02 0.  0.
         11    1    3    3    0    0  0.14298977233E+02  0.46338349508E+01  0.41619389911E+02  0.44250500484E+02  0.51100000000E-03 0. -1.
         22    1    1    0    0    0  0.13206849830E+02 -0.23485926686E+02  0.59773532140E+00  0.26951195191E+02  0.00000000000E+00 0.  1.
</event>
<event>
 5    1  0.1111613E-009  0.9118800E+02  0.7818608E-02  0.1130116E+00
         25   -1    0    0    0    0  0.00000000000E+00  0.00000000000E+00  0.99999998245E-14  0.12500000000E+03  0.12500000000E+03 0.  0.
        -11    1    3    3    0    0 -0.38175413181E+02 -0.11757827269E+02 -0.41215308019E+02  0.57396082523E+02  0.51100000000E-03 0. -1.
         23    2    1    0    0    0 -0.56097906098E+01 -0.16572320154E+02 -0.25998798420E+02  0.93662337910E+02  0.88264287668E+02 0.  0.
         11    1    3    3    0    0  0.32565622571E+02 -0.48144928846E+01  0.15216509599E+02  0.36266255387E+02  0.51100000000E-03 0.  1.
         22    1    1    0    0    0  0.56097906098E+01  0.16572320154E+02  0.25998798420E+02  0.31337662090E+02  0.00000000000E+00 0. -1.
</event>
<event>
 5    1  0.1111613E-009  0.9118800E+02  0.7818608E-02  0.1130116E+00
         25   -1    0    0    0    0  0.00000000000E+00  0.00000000000E+00  0.99999998245E-14  0.12500000000E+03  0.12500000000E+03 0.  0.
        -11    1    3    3    0    0  0.20022579876E+02 -0.29397281549E+02 -0.58695941652E+01  0.36049355102E+02  0.51100000000E-03 0.  1.
         23    2    1    0    0    0 -0.23106794196E+02  0.13506913806E+02 -0.84316212870E+01  0.96938408881E+02  0.92787942214E+02 0.  0.
         11    1    3    3    0    0 -0.43129374072E+02  0.42904195355E+02 -0.25620271218E+01  0.60889053779E+02  0.51100000000E-03 0. -1.
         22    1    1    0    0    0  0.23106794196E+02 -0.13506913806E+02  0.84316212870E+01  0.28061591119E+02  0.00000000000E+00 0. -1.
</event>
<event>
 5    1  0.1111613E-009  0.9118800E+02  0.7818608E-02  0.1130116E+00
         25   -1    0    0    0    0  0.00000000000E+00  0.00000000000E+00  0.99999998245E-14  0.12500000000E+03  0.12500000000E+03 0.  0.
        -11    1    3    3    0    0 -0.24651214685E+02  0.14788093217E+02  0.53807360666E+02  0.61004935444E+02  0.51100000000E-03 0. -1.
         23    2    1    0    0    0 -0.11879860076E+02  0.15741391441E+02  0.21158005790E+02  0.96076243520E+02  0.91619107614E+02 0.  0.
         11    1    3    3    0    0  0.12771354609E+02  0.95329822382E+00 -0.32649354876E+02  0.35071308076E+02  0.51100000000E-03 0.  1.
         22    1    1    0    0    0  0.11879860076E+02 -0.15741391441E+02 -0.21158005790E+02  0.28923756480E+02  0.00000000000E+00 0. -1.
</event>
<event>
 5    1  0.1111613E-009  0.9118800E+02  0.7818608E-02  0.1130116E+00
         25   -1    0    0    0    0  0.00000000000E+00  0.00000000000E+00  0.99999998245E-14  0.12500000000E+03  0.12500000000E+03 0.  0.
        -11    1    3    3    0    0  0.37562618090E+02 -0.10625724827E+02 -0.32419931810E+02  0.50743554119E+02  0.51100000000E-03 0.  1.
         23    2    1    0    0    0 -0.76739895687E+01 -0.16817445899E+02 -0.19357695974E+02  0.98233659274E+02  0.94516743588E+02 0.  0.
         11    1    3    3    0    0 -0.45236607659E+02 -0.61917210713E+01  0.13062235836E+02  0.47490105154E+02  0.51100000000E-03 0. -1.
         22    1    1    0    0    0  0.76739895687E+01  0.16817445899E+02  0.19357695974E+02  0.26766340726E+02  0.00000000000E+00 0. -1.
</event>
<event>
 5    1  0.1111613E-009  0.9118800E+02  0.7818608E-02  0.1130116E+00
         25   -1    0    0    0    0  0.00000000000E+00  0.00000000000E+00  0.99999998245E-14  0.12500000000E+03  0.12500000000E+03 0.  0.
        -11    1    3    3    0    0 -0.39953753334E+02  0.64104879847E+01  0.12682441273E+02  0.42405672717E+02  0.51100000000E-03 0.  1.
         23    2    1    0    0    0  0.10774309027E+02  0.19733722384E+02  0.19427111003E+02  0.95286060913E+02  0.90534607903E+02 0.  0.
         11    1    3    3    0    0  0.50728062361E+02  0.13323234400E+02  0.67446697309E+01  0.52880388196E+02  0.51100000000E-03 0. -1.
         22    1    1    0    0    0 -0.10774309027E+02 -0.19733722384E+02 -0.19427111003E+02  0.29713939087E+02  0.00000000000E+00 0. -1.
</event>
<event>
 5    1  0.1111613E-009  0.9118800E+02  0.7818608E-02  0.1130116E+00
         25   -1    0    0    0    0  0.00000000000E+00  0.00000000000E+00  0.99999998245E-14  0.12500000000E+03  0.12500000000E+03 0.  0.
        -11    1    3    3    0    0 -0.37733091586E+02 -0.33587142322E+02 -0.17807813825E+02  0.53563052224E+02  0.51100000000E-03 0. -1.
         23    2    1    0    0    0 -0.40970144347E+02 -0.21306057809E+02  0.38401304387E+01  0.78661598765E+02  0.63564138406E+02 0.  0.
         11    1    3    3    0    0 -0.32370527609E+01  0.12281084513E+02  0.21647944263E+02  0.25098546541E+02  0.51100000000E-03 0.  1.
         22    1    1    0    0    0  0.40970144347E+02  0.21306057809E+02 -0.38401304387E+01  0.46338401235E+02  0.00000000000E+00 0. -1.
</event>
<event>
 5    1  0.1111613E-009  0.9118800E+02  0.7818608E-02  0.1130116E+00
         25   -1    0    0    0    0  0.00000000000E+00  0.00000000000E+00  0.99999998245E-14  0.12500000000E+03  0.12500000000E+03 0.  0.
        -11    1    3    3    0    0 -0.18964127147E+02  0.31928470956E+02  0.48200457198E+02  0.60846934601E+02  0.51100000000E-03 0.  1.
         23    2    1    0    0    0 -0.13355814787E+02  0.41790701215E+01  0.14799693122E+02  0.10463156039E+03  0.10262986942E+03 0.  0.
         11    1    3    3    0    0  0.56083123595E+01 -0.27749400834E+02 -0.33400764076E+02  0.43784625787E+02  0.51100000000E-03 0. -1.
         22    1    1    0    0    0  0.13355814787E+02 -0.41790701215E+01 -0.14799693122E+02  0.20368439612E+02  0.00000000000E+00 0.  1.
</event>
<event>
 5    1  0.1111613E-009  0.9118800E+02  0.7818608E-02  0.1130116E+00
         25   -1    0    0    0    0  0.00000000000E+00  0.00000000000E+00  0.99999998245E-14  0.12500000000E+03  0.12500000000E+03 0.  0.
        -11    1    3    3    0    0 -0.23727248922E+02  0.48895819238E+02  0.22873177991E+02  0.58965801547E+02  0.51100000000E-03 0.  1.
         23    2    1    0    0    0 -0.22717590330E+02  0.13504690313E+02  0.11747438646E+02  0.96078245462E+02  0.91621838911E+02 0.  0.
         11    1    3    3    0    0  0.10096585920E+01 -0.35391128926E+02 -0.11125739345E+02  0.37112443915E+02  0.51100000000E-03 0. -1.
         22    1    1    0    0    0  0.22717590330E+02 -0.13504690313E+02 -0.11747438646E+02  0.28921754538E+02  0.00000000000E+00 0.  1.
</event>
<event>
 5    1  0.1111613E-009  0.9118800E+02  0.7818608E-02  0.1130116E+00
         25   -1    0    0    0    0  0.00000000000E+00  0.00000000000E+00  0.99999998245E-14  0.12500000000E+03  0.12500000000E+03 0.  0.
        -11    1    3    3    0    0 -0.63922787595E+01  0.29840187953E+02 -0.26058018075E+02  0.40128772111E+02  0.51100000000E-03 0.  1.
         23    2    1    0    0    0  0.15554464704E+02  0.61439666940E+01  0.21589084587E+02  0.97691058749E+02  0.93796400182E+02 0.  0.
         11    1    3    3    0    0  0.21946743463E+02 -0.23696221259E+02  0.47647102662E+02  0.57562286638E+02  0.51100000000E-03 0. -1.
         22    1    1    0    0    0 -0.15554464704E+02 -0.61439666940E+01 -0.21589084587E+02  0.27308941251E+02  0.00000000000E+00 0. -1.
</event>
<event>
 5    1  0.1111613E-009  0.9118800E+02  0.7818608E-02  0.1130116E+00
         25   -1    0    0    0    0  0.00000000000E+00  0.00000000000E+00  0.99999998245E-14  0.12500000000E+03  0.12500000000E+03 0.  0.
        -11    1    3    3    0    0 -0.53366310958E-01 -0.41610125534E+02  0.11907153715E+01  0.41627193015E+02  0.51100000000E-03 0. -1.
         23    2    1    0    0    0 -0.19693947148E+02  0.11728217394E+01  0.23995139609E+02  0.93935650821E+02  0.88650508770E+02 0.  0.
         11    1    3    3    0    0 -0.19640580837E+02  0.42782947273E+02  0.22804424237E+02  0.52308457806E+02  0.51100000000E-03 0.  1.
         22    1    1    0    0    0  0.19693947148E+02 -0.11728217394E+01 -0.23995139609E+02  0.31064349179E+02  0.00000000000E+00 0.  1.
</event>
<event>
 5    1  0.1111613E-009  0.9118800E+02  0.7818608E-02  0.1130116E+00
         25   -1    0    0    0    0  0.00000000000E+00  0.00000000000E+00  0.99999998245E-14  0.12500000000E+03  0.12500000000E+03 0.  0.
        -11    1    3    3    0    0 -0.29867684790E+02 -0.13880921686E+02 -0.33370024455E+02  0.46886214541E+02  0.51100000000E-03 0.  1.
         23    2    1    0    0    0 -0.41961888132E+01 -0.28746941675E+02  0.51398215738E+01  0.95497247213E+02  0.90825722145E+02 0.  0.
         11    1    3    3    0    0  0.25671495977E+02 -0.14866019988E+02  0.38509846029E+02  0.48611032672E+02  0.51100000000E-03 0. -1.
         22    1    1    0    0    0  0.41961888132E+01  0.28746941675E+02 -0.51398215738E+01  0.29502752787E+02  0.00000000000E+00 0. -1.
</event>
<event>
 5    1  0.1111613E-009  0.9118800E+02  0.7818608E-02  0.1130116E+00
         25   -1    0    0    0    0  0.00000000000E+00  0.00000000000E+00  0.99999998245E-14  0.12500000000E+03  0.12500000000E+03 0.  0.
        -11    1    3    3    0    0  0.43099909293E+02  0.24700391657E+02 -0.21831034946E+02  0.54261456082E+02  0.51100000000E-03 0. -1.
         23    2    1    0    0    0  0.18945501286E+02  0.21310355168E+02  0.10371036111E+02  0.94658252417E+02  0.89663610815E+02 0.  0.
         11    1    3    3    0    0 -0.24154408007E+02 -0.33900364888E+01  0.32202071057E+02  0.40396796335E+02  0.51100000000E-03 0.  1.
         22    1    1    0    0    0 -0.18945501286E+02 -0.21310355168E+02 -0.10371036111E+02  0.30341747583E+02  0.00000000000E+00 0. -1.
</event>
<event>
 5    1  0.1111613E-009  0.9118800E+02  0.7818608E-02  0.1130116E+00
         25   -1    0    0    0    0  0.00000000000E+00  0.00000000000E+00  0.99999998245E-14  0.12500000000E+03  0.12500000000E+03 0.  0.
        -11    1    3    3    0    0  0.46118159641E+02  0.63365146479E+01 -0.36303523223E+02  0.59033734976E+02  0.51100000000E-03 0. -1.
         23    2    1    0    0    0  0.27932105365E+02 -0.90670341561E+01 -0.11416074148E+02  0.93492217351E+02  0.88023032995E+02 0.  0.
         11    1    3    3    0    0 -0.18186054275E+02 -0.15403548804E+02  0.24887449075E+02  0.34458482375E+02  0.51100000000E-03 0.  1.
         22    1    1    0    0    0 -0.27932105365E+02  0.90670341561E+01  0.11416074148E+02  0.31507782649E+02  0.00000000000E+00 0. -1.
</event>
<event>
 5    1  0.1111613E-009  0.9118800E+02  0.7818608E-02  0.1130116E+00
         25   -1    0    0    0    0  0.00000000000E+00  0.00000000000E+00  0.99999998245E-14  0.12500000000E+03  0.12500000000E+03 0.  0.
        -11    1    3    3    0    0  0.32813468746E+02  0.28034885701E+02 -0.27144405774E+02  0.50985265641E+02  0.51100000000E-03 0.  1.
         23    2    1    0    0    0  0.25958964451E+01  0.27786126345E+02  0.66414446864E+01  0.96313482555E+02  0.91942213584E+02 0.  0.
         11    1    3    3    0    0 -0.30217572301E+02 -0.24875935624E+00  0.33785850460E+02  0.45328216914E+02  0.51100000000E-03 0. -1.
         22    1    1    0    0    0 -0.25958964451E+01 -0.27786126345E+02 -0.66414446864E+01  0.28686517445E+02  0.00000000000E+00 0. -1.
</event>
<event>
 5    1  0.1111613E-009  0.9118800E+02  0.7818608E-02  0.1130116E+00
         25   -1    0    0    0    0  0.00000000000E+00  0.00000000000E+00  0.99999998245E-14  0.12500000000E+03  0.12500000000E+03 0.  0.
        -11    1    3    3    0    0 -0.60075257024E+01 -0.44410126152E+02 -0.13746516350E+02  0.46875541404E+02  0.51100000000E-03 0.  1.
         23    2    1    0    0    0  0.83610887177E+01 -0.14277979309E+02  0.23093658484E+02  0.96590748692E+02  0.92318401054E+02 0.  0.
         11    1    3    3    0    0  0.14368614420E+02  0.30132146843E+02  0.36840174834E+02  0.49715207289E+02  0.51100000000E-03 0. -1.
         22    1    1    0    0    0 -0.83610887177E+01  0.14277979309E+02 -0.23093658484E+02  0.28409251308E+02  0.00000000000E+00 0. -1.
</event>
<event>
 5    1  0.1111613E-009  0.9118800E+02  0.7818608E-02  0.1130116E+00
         25   -1    0    0    0    0  0.00000000000E+00  0.00000000000E+00  0.99999998245E-14  0.12500000000E+03  0.12500000000E+03 0.  0.
        -11    1    3    3    0    0  0.27886030080E+02  0.60994564010E+01 -0.25928069920E+02  0.38562920689E+02  0.51100000000E-03 0. -1.
         23    2    1    0    0    0 -0.27038841839E+02  0.13631986533E+01 -0.53743325788E+01  0.97398537553E+02  0.93405751366E+02 0.  0.
         11    1    3    3    0    0 -0.54924871919E+02 -0.47362577477E+01  0.20553737341E+02  0.58835616864E+02  0.51100000000E-03 0.  1.
         22    1    1    0    0    0  0.27038841839E+02 -0.13631986533E+01  0.53743325788E+01  0.27601462447E+02  0.00000000000E+00 0.  1.
</event>
<event>
 5    1  0.1111613E-009  0.9118800E+02  0.7818608E-02  0.1130116E+00
         25   -1    0    0    0    0  0.00000000000E+00  0.00000000000E+00  0.99999998245E-14  0.12500000000E+03  0.12500000000E+03 0.  0.
        -11    1    3    3    0    0 -0.64500325544E+01 -0.60552004951E+02  0.13835150437E+02  0.62446453954E+02  0.51100000000E-03 0. -1.
         23    2    1    0    0    0 -0.48833866670E+01 -0.28628380322E+02  0.64670322859E+01  0.95246779472E+02  0.90480356255E+02 0.  0.
         11    1    3    3    0    0  0.15666458874E+01  0.31923624628E+02 -0.73681181516E+01  0.32800325518E+02  0.51100000000E-03 0.  1.
         22    1    1    0    0    0  0.48833866670E+01  0.28628380322E+02 -0.64670322859E+01  0.29753220528E+02  0.00000000000E+00 0. -1.
</event>
<event>
 5    1  0.1111613E-009  0.9118800E+02  0.7818608E-02  0.1130116E+00
         25   -1    0    0    0    0  0.00000000000E+00  0.00000000000E+00  0.99999998245E-14  0.12500000000E+03  0.12500000000E+03 0.  0.
        -11    1    3    3    0    0 -0.16723954206E+02 -0.33224867935E+02  0.23127501572E+02  0.43800271949E+02  0.51100000000E-03 0.  1.
         23    2    1    0    0    0 -0.47566227244E+01  0.18269166025E+02  0.21074513960E+02  0.96706484389E+02  0.92474975519E+02 0.  0.
         11    1    3    3    0    0  0.11967331481E+02  0.51494033961E+02 -0.20529876122E+01  0.52906212440E+02  0.51100000000E-03 0. -1.
         22    1    1    0    0    0  0.47566227244E+01 -0.18269166025E+02 -0.21074513960E+02  0.28293515611E+02  0.00000000000E+00 0. -1.
</event>
<event>
 5    1  0.1111613E-009  0.9118800E+02  0.7818608E-02  0.1130116E+00
         25   -1    0    0    0    0  0.00000000000E+00  0.00000000000E+00  0.99999998245E-14  0.12500000000E+03  0.12500000000E+03 0.  0.
        -11    1    3    3    0    0 -0.15901047293E+02  0.29321665019E+02 -0.37804154168E+02  0.50415844901E+02  0.51100000000E-03 0. -1.
         23    2    1    0    0    0  0.14323285480E+02  0.25397312926E+02 -0.46097560681E+01  0.95480009116E+02  0.90801994906E+02 0.  0.
         11    1    3    3    0    0  0.30224332773E+02 -0.39243520930E+01  0.33194398100E+02  0.45064164215E+02  0.51100000000E-03 0.  1.
         22    1    1    0    0    0 -0.14323285480E+02 -0.25397312926E+02  0.46097560681E+01  0.29519990884E+02  0.00000000000E+00 0. -1.
</event>
<event>
 5    1  0.1111613E-009  0.9118800E+02  0.7818608E-02  0.1130116E+00
         25   -1    0    0    0    0  0.00000000000E+00  0.00000000000E+00  0.99999998245E-14  0.12500000000E+03  0.12500000000E+03 0.  0.
        -11    1    3    3    0    0  0.37977480414E+02 -0.76059264048E+01 -0.46647681646E+02  0.60631224120E+02  0.51100000000E-03 0. -1.
         23    2    1    0    0    0  0.14813527013E+02  0.27670229729E+01 -0.31221262436E+02  0.90332086495E+02  0.83414756631E+02 0.  0.
         11    1    3    3    0    0 -0.23163953401E+02  0.10372949378E+02  0.15426419210E+02  0.29700862375E+02  0.51100000000E-03 0.  1.
         22    1    1    0    0    0 -0.14813527013E+02 -0.27670229729E+01  0.31221262436E+02  0.34667913505E+02  0.00000000000E+00 0. -1.
</event>
<event>
 5    1  0.1111613E-009  0.9118800E+02  0.7818608E-02  0.1130116E+00
         25   -1    0    0    0    0  0.00000000000E+00  0.00000000000E+00  0.99999998245E-14  0.12500000000E+03  0.12500000000E+03 0.  0.
        -11    1    3    3    0    0  0.33415545085E+02  0.25940902796E+02 -0.12525790693E+02  0.44118301463E+02  0.51100000000E-03 0.  1.
         23    2    1    0    0    0  0.13234850499E+02  0.35504001864E+01  0.27529732733E+02  0.94248531847E+02  0.89090588513E+02 0.  0.
         11    1    3    3    0    0 -0.20180694586E+02 -0.22390502610E+02  0.40055523427E+02  0.50130230384E+02  0.51100000000E-03 0. -1.
         22    1    1    0    0    0 -0.13234850499E+02 -0.35504001864E+01 -0.27529732733E+02  0.30751468153E+02  0.00000000000E+00 0.  1.
</event>
<event>
 5    1  0.1111613E-009  0.9118800E+02  0.7818608E-02  0.1130116E+00
         25   -1    0    0    0    0  0.00000000000E+00  0.00000000000E+00  0.99999998245E-14  0.12500000000E+03  0.12500000000E+03 0.  0.
        -11    1    3    3    0    0  0.82982831494E+01  0.42459114716E+02  0.39548187461E+02  0.58614819436E+02  0.51100000000E-03 0. -1.
         23    2    1    0    0    0 -0.44968723028E+01  0.26553484381E+02  0.67687143897E+01  0.97230864475E+02  0.93181093140E+02 0.  0.
         11    1    3    3    0    0 -0.12795155452E+02 -0.15905630335E+02 -0.32779473072E+02  0.38616045040E+02  0.51100000000E-03 0.  1.
         22    1    1    0    0    0  0.44968723028E+01 -0.26553484381E+02 -0.67687143897E+01  0.27769135525E+02  0.00000000000E+00 0. -1.
</event>
<event>
 5    1  0.1111613E-009  0.9118800E+02  0.7818608E-02  0.1130116E+00
         25   -1    0    0    0    0  0.00000000000E+00  0.00000000000E+00  0.99999998245E-14  0.12500000000E+03  0.12500000000E+03 0.  0.
        -11    1    3    3    0    0  0.34169507151E+02 -0.56187715076E+01  0.23651833851E+02  0.41934890687E+02  0.51100000000E-03 0. -1.
         23    2    1    0    0    0 -0.17935522527E+02 -0.14048783968E+01  0.24966916367E+02  0.94226576978E+02  0.89059779050E+02 0.  0.
         11    1    3    3    0    0 -0.52105029678E+02  0.42138931108E+01  0.13150825164E+01  0.52291686291E+02  0.51100000000E-03 0.  1.
         22    1    1    0    0    0  0.17935522527E+02  0.14048783968E+01 -0.24966916367E+02  0.30773423022E+02  0.00000000000E+00 0. -1.
</event>
<event>
 5    1  0.1111613E-009  0.9118800E+02  0.7818608E-02  0.1130116E+00
         25   -1    0    0    0    0  0.00000000000E+00  0.00000000000E+00  0.99999998245E-14  0.12500000000E+03  0.12500000000E+03 0.  0.
        -11    1    3    3    0    0 -0.19202164394E+02 -0.76350705009E+01  0.57983645462E+02  0.61555832870E+02  0.51100000000E-03 0. -1.
         23    2    1    0    0    0 -0.15326673526E+01 -0.37053320236E+01  0.28975785336E+02  0.95748082277E+02  0.91170283367E+02 0.  0.
         11    1    3    3    0    0  0.17669497042E+02  0.39297384773E+01 -0.29007860125E+02  0.34192249407E+02  0.51100000000E-03 0.  1.
         22    1    1    0    0    0  0.15326673526E+01  0.37053320236E+01 -0.28975785336E+02  0.29251917723E+02  0.00000000000E+00 0. -1.
</event>
<event>
 5    1  0.1111613E-009  0.9118800E+02  0.7818608E-02  0.1130116E+00
         25   -1    0    0    0    0  0.00000000000E+00  0.00000000000E+00  0.99999998245E-14  0.12500000000E+03  0.12500000000E+03 0.  0.
        -11    1    3    3    0    0 -0.11303906811E+02  0.53856345256E+02 -0.14659213186E+02  0.56948896082E+02  0.51100000000E-03 0. -1.
         23    2    1    0    0    0 -0.12471473156E+02  0.15092055888E+02 -0.21048711305E+02  0.96253590812E+02  0.91860751701E+02 0.  0.
         11    1    3    3    0    0 -0.11675663449E+01 -0.38764289368E+02 -0.63894981192E+01  0.39304694730E+02  0.51100000000E-03 0.  1.
         22    1    1    0    0    0  0.12471473156E+02 -0.15092055888E+02  0.21048711305E+02  0.28746409188E+02  0.00000000000E+00 0. -1.
</event>
<event>
 5    1  0.1111613E-009  0.9118800E+02  0.7818608E-02  0.1130116E+00
         25   -1    0    0    0    0  0.00000000000E+00  0.00000000000E+00  0.99999998245E-14  0.12500000000E+03  0.12500000000E+03 0.  0.
        -11    1    3    3    0    0 -0.33696374774E+02  0.20583933351E+02  0.20636796142E+02  0.44553578312E+02  0.51100000000E-03 0.  1.
         23    2    1    0    0    0  0.10294741899E+02 -0.44718955289E+01  0.27173158944E+02  0.95599997834E+02  0.90967024016E+02 0.  0.
         11    1    3    3    0    0  0.43991116674E+02 -0.25055828879E+02  0.65363628017E+01  0.51046419522E+02  0.51100000000E-03 0. -1.
         22    1    1    0    0    0 -0.10294741899E+02  0.44718955289E+01 -0.27173158944E+02  0.29400002166E+02  0.00000000000E+00 0. -1.
</event>
<event>
 5    1  0.1111613E-009  0.9118800E+02  0.7818608E-02  0.1130116E+00
         25   -1    0    0    0    0  0.00000000000E+00  0.00000000000E+00  0.99999998245E-14  0.12500000000E+03  0.12500000000E+03 0.  0.
        -11    1    3    3    0    0 -0.32185931237E+02 -0.21713496146E+02  0.11602943352E+02  0.40522072740E+02  0.51100000000E-03 0. -1.
         23    2    1    0    0    0 -0.14289161565E+02  0.13717757101E+02 -0.24026037083E+02  0.93861479547E+02  0.88545863182E+02 0.  0.
         11    1    3    3    0    0  0.17896769672E+02  0.35431253247E+02 -0.35628980436E+02  0.53339406806E+02  0.51100000000E-03 0.  1.
         22    1    1    0    0    0  0.14289161565E+02 -0.13717757101E+02  0.24026037083E+02  0.31138520453E+02  0.00000000000E+00 0.  1.
</event>
<event>
 5    1  0.1111613E-009  0.9118800E+02  0.7818608E-02  0.1130116E+00
         25   -1    0    0    0    0  0.00000000000E+00  0.00000000000E+00  0.99999998245E-14  0.12500000000E+03  0.12500000000E+03 0.  0.
        -11    1    3    3    0    0 -0.20853443471E+02 -0.24158164376E+02 -0.28969213049E+02  0.43101024530E+02  0.51100000000E-03 0.  1.
         23    2    1    0    0    0  0.11939215802E+02  0.12584519953E+01  0.16461399054E+02  0.10462584396E+03  0.10262290676E+03 0.  0.
         11    1    3    3    0    0  0.32792659273E+02  0.25416616371E+02  0.45430612103E+02  0.61524819433E+02  0.51100000000E-03 0. -1.
         22    1    1    0    0    0 -0.11939215802E+02 -0.12584519953E+01 -0.16461399054E+02  0.20374156037E+02  0.00000000000E+00 0. -1.
</event>
<event>
 5    1  0.1111613E-009  0.9118800E+02  0.7818608E-02  0.1130116E+00
         25   -1    0    0    0    0  0.00000000000E+00  0.00000000000E+00  0.99999998245E-14  0.12500000000E+03  0.12500000000E+03 0.  0.
        -11    1    3    3    0    0 -0.48828669963E+02  0.19303484757E+02 -0.32350961002E+02  0.61672102382E+02  0.51100000000E-03 0.  1.
         23    2    1    0    0    0 -0.21362746586E+02  0.15800906627E+02 -0.13262143940E+02  0.95302861184E+02  0.90557800857E+02 0.  0.
         11    1    3    3    0    0  0.27465923377E+02 -0.35025781302E+01  0.19088817063E+02  0.33630758802E+02  0.51100000000E-03 0. -1.
         22    1    1    0    0    0  0.21362746586E+02 -0.15800906627E+02  0.13262143940E+02  0.29697138816E+02  0.00000000000E+00 0.  1.
</event>
<event>
 5    1  0.1111613E-009  0.9118800E+02  0.7818608E-02  0.1130116E+00
         25   -1    0    0    0    0  0.00000000000E+00  0.00000000000E+00  0.99999998245E-14  0.12500000000E+03  0.12500000000E+03 0.  0.
        -11    1    3    3    0    0  0.60571986557E+01 -0.62987745297E+01 -0.61801739504E+02  0.62416497996E+02  0.51100000000E-03 0.  1.
         23    2    1    0    0    0  0.50702367229E+01 -0.20759941404E+01 -0.31476200171E+02  0.93050536322E+02  0.87393558575E+02 0.  0.
         11    1    3    3    0    0 -0.98696193286E+00  0.42227803893E+01  0.30325539333E+02  0.30634038326E+02  0.51100000000E-03 0. -1.
         22    1    1    0    0    0 -0.50702367229E+01  0.20759941404E+01  0.31476200171E+02  0.31949463678E+02  0.00000000000E+00 0.  1.
</event>
<event>
 5    1  0.1111613E-009  0.9118800E+02  0.7818608E-02  0.1130116E+00
         25   -1    0    0    0    0  0.00000000000E+00  0.00000000000E+00  0.99999998245E-14  0.12500000000E+03  0.12500000000E+03 0.  0.
        -11    1    3    3    0    0 -0.52854675574E+00  0.45623709632E+00  0.45681706894E+02  0.45687042572E+02  0.51100000000E-03 0.  1.
         23    2    1    0    0    0  0.19168858859E+02 -0.23393329936E+02  0.94770162896E+01  0.93306043586E+02  0.87758252583E+02 0.  0.
         11    1    3    3    0    0  0.19697405615E+02 -0.23849567032E+02 -0.36204690604E+02  0.47619001014E+02  0.51100000000E-03 0. -1.
         22    1    1    0    0    0 -0.19168858859E+02  0.23393329936E+02 -0.94770162896E+01  0.31693956414E+02  0.00000000000E+00 0.  1.
</event>
<event>
 5    1  0.1111613E-009  0.9118800E+02  0.7818608E-02  0.1130116E+00
         25   -1    0    0    0    0  0.00000000000E+00  0.00000000000E+00  0.99999998245E-14  0.12500000000E+03  0.12500000000E+03 0.  0.
        -11    1    3    3    0    0 -0.26977644591E+02 -0.17788966917E+01  0.17459510125E+02  0.32183726869E+02  0.51100000000E-03 0.  1.
         23    2    1    0    0    0  0.28405537132E+02 -0.97051587256E+01 -0.84154851878E+01  0.93824929245E+02  0.88494250159E+02 0.  0.
         11    1    3    3    0    0  0.55383181723E+02 -0.79262620339E+01 -0.25874995313E+02  0.61641202376E+02  0.51100000000E-03 0. -1.
         22    1    1    0    0    0 -0.28405537132E+02  0.97051587256E+01  0.84154851878E+01  0.31175070755E+02  0.00000000000E+00 0. -1.
</event>
<event>
 5    1  0.1111613E-009  0.9118800E+02  0.7818608E-02  0.1130116E+00
         25   -1    0    0    0    0  0.00000000000E+00  0.00000000000E+00  0.99999998245E-14  0.12500000000E+03  0.12500000000E+03 0.  0.
        -11    1    3    3    0    0  0.25901212170E+02  0.50765335231E+01 -0.27519547023E+02  0.38130951379E+02  0.51100000000E-03 0.  1.
         23    2    1    0    0    0 -0.12706560682E+02 -0.28398390413E+02 -0.13244535789E+02  0.91186644788E+02  0.84685661107E+02 0.  0.
         11    1    3    3    0    0 -0.38607772851E+02 -0.33474923936E+02  0.14275011235E+02  0.53055693409E+02  0.51100000000E-03 0. -1.
         22    1    1    0    0    0  0.12706560682E+02  0.28398390413E+02  0.13244535789E+02  0.33813355212E+02  0.00000000000E+00 0. -1.
</event>
<event>
 5    1  0.1111613E-009  0.9118800E+02  0.7818608E-02  0.1130116E+00
         25   -1    0    0    0    0  0.00000000000E+00  0.00000000000E+00  0.99999998245E-14  0.12500000000E+03  0.12500000000E+03 0.  0.
        -11    1    3    3    0    0 -0.19677037034E+02  0.47291746950E+02  0.18622016960E+02  0.54502060805E+02  0.51100000000E-03 0. -1.
         23    2    1    0    0    0 -0.25593468588E+02  0.71142825987E+01  0.12748650289E+02  0.95535330726E+02  0.90878119927E+02 0.  0.
         11    1    3    3    0    0 -0.59164315540E+01 -0.40177464352E+02 -0.58733666715E+01  0.41033269921E+02  0.51100000000E-03 0.  1.
         22    1    1    0    0    0  0.25593468588E+02 -0.71142825987E+01 -0.12748650289E+02  0.29464669274E+02  0.00000000000E+00 0. -1.
</event>
<event>
 5    1  0.1111613E-009  0.9118800E+02  0.7818608E-02  0.1130116E+00
         25   -1    0    0    0    0  0.00000000000E+00  0.00000000000E+00  0.99999998245E-14  0.12500000000E+03  0.12500000000E+03 0.  0.
        -11    1    3    3    0    0  0.87865146687E+01  0.40808167003E+02  0.13839771630E+02  0.43977819559E+02  0.51100000000E-03 0.  1.
         23    2    1    0    0    0  0.28771133755E+02 -0.37742386936E+01 -0.33931185473E+01  0.95784656963E+02  0.91220415702E+02 0.  0.
         11    1    3    3    0    0  0.19984619086E+02 -0.44582405696E+02 -0.17232890177E+02  0.51806837404E+02  0.51100000000E-03 0. -1.
         22    1    1    0    0    0 -0.28771133755E+02  0.37742386936E+01  0.33931185473E+01  0.29215343037E+02  0.00000000000E+00 0.  1.
</event>
<event>
 5    1  0.1111613E-009  0.9118800E+02  0.7818608E-02  0.1130116E+00
         25   -1    0    0    0    0  0.00000000000E+00  0.00000000000E+00  0.99999998245E-14  0.12500000000E+03  0.12500000000E+03 0.  0.
        -11    1    3    3    0    0 -0.22856997843E+02  0.26199618291E+02  0.25340267035E+02  0.43023150543E+02  0.51100000000E-03 0.  1.
         23    2    1    0    0    0 -0.23636852119E+02 -0.42627471709E+01 -0.17276614652E+02  0.95413631426E+02  0.90710571912E+02 0.  0.
         11    1    3    3    0    0 -0.77985427585E+00 -0.30462365462E+02 -0.42616881687E+02  0.52390480883E+02  0.51100000000E-03 0. -1.
         22    1    1    0    0    0  0.23636852119E+02  0.42627471709E+01  0.17276614652E+02  0.29586368574E+02  0.00000000000E+00 0. -1.
</event>
<event>
 5    1  0.1111613E-009  0.9118800E+02  0.7818608E-02  0.1130116E+00
         25   -1    0    0    0    0  0.00000000000E+00  0.00000000000E+00  0.99999998245E-14  0.12500000000E+03  0.12500000000E+03 0.  0.
        -11    1    3    3    0    0 -0.12273386591E+02 -0.49512835652E+02  0.29295925572E-01  0.51011349436E+02  0.51100000000E-03 0.  1.
         23    2    1    0    0    0  0.21333344667E+02 -0.20161675476E+02 -0.74123154738E+00  0.95637537963E+02  0.91018594203E+02 0.  0.
         11    1    3    3    0    0  0.33606731258E+02  0.29351160176E+02 -0.77052747295E+00  0.44626188527E+02  0.51100000000E-03 0. -1.
         22    1    1    0    0    0 -0.21333344667E+02  0.20161675476E+02  0.74123154738E+00  0.29362462037E+02  0.00000000000E+00 0.  1.
</event>
<event>
 5    1  0.1111613E-009  0.9118800E+02  0.7818608E-02  0.1130116E+00
         25   -1    0    0    0    0  0.00000000000E+00  0.00000000000E+00  0.99999998245E-14  0.12500000000E+03  0.12500000000E+03 0.  0.
        -11    1    3    3    0    0 -0.31691596828E+01 -0.38235286975E+02 -0.17254005651E+02  0.42067581989E+02  0.51100000000E-03 0. -1.
         23    2    1    0    0    0 -0.11321882244E+02 -0.67950624076E+00  0.24003923233E+02  0.98451269770E+02  0.94804100346E+02 0.  0.
         11    1    3    3    0    0 -0.81527225609E+01  0.37555780734E+02  0.41257928884E+02  0.56383687781E+02  0.51100000000E-03 0.  1.
         22    1    1    0    0    0  0.11321882244E+02  0.67950624076E+00 -0.24003923233E+02  0.26548730230E+02  0.00000000000E+00 0.  1.
</event>
<event>
 5    1  0.1111613E-009  0.9118800E+02  0.7818608E-02  0.1130116E+00
         25   -1    0    0    0    0  0.00000000000E+00  0.00000000000E+00  0.99999998245E-14  0.12500000000E+03  0.12500000000E+03 0.  0.
        -11    1    3    3    0    0  0.53831600397E+02  0.15828553868E+02 -0.18925385207E+02  0.59216167761E+02  0.51100000000E-03 0.  1.
         23    2    1    0    0    0  0.24902300576E+02 -0.72434484099E+01 -0.92763002950E+01  0.97456545859E+02  0.93483348597E+02 0.  0.
         11    1    3    3    0    0 -0.28929299821E+02 -0.23072002278E+02  0.96490849116E+01  0.38240378099E+02  0.51100000000E-03 0. -1.
         22    1    1    0    0    0 -0.24902300576E+02  0.72434484099E+01  0.92763002950E+01  0.27543454141E+02  0.00000000000E+00 0.  1.
</event>
<event>
 5    1  0.1111613E-009  0.9118800E+02  0.7818608E-02  0.1130116E+00
         25   -1    0    0    0    0  0.00000000000E+00  0.00000000000E+00  0.99999998245E-14  0.12500000000E+03  0.12500000000E+03 0.  0.
        -11    1    3    3    0    0  0.45894202105E+02  0.19059580326E+02 -0.28477236512E+02  0.57275635210E+02  0.51100000000E-03 0.  1.
         23    2    1    0    0    0  0.19396422575E+02  0.21275219299E+02 -0.36908205926E-01  0.96210114152E+02  0.91801571544E+02 0.  0.
         11    1    3    3    0    0 -0.26497779530E+02  0.22156389722E+01  0.28440328306E+02  0.38934478942E+02  0.51100000000E-03 0. -1.
         22    1    1    0    0    0 -0.19396422575E+02 -0.21275219299E+02  0.36908205926E-01  0.28789885848E+02  0.00000000000E+00 0.  1.
</event>
<event>
 5    1  0.1111613E-009  0.9118800E+02  0.7818608E-02  0.1130116E+00
         25   -1    0    0    0    0  0.00000000000E+00  0.00000000000E+00  0.99999998245E-14  0.12500000000E+03  0.12500000000E+03 0.  0.
        -11    1    3    3    0    0  0.74371009750E+01  0.43563483795E+02  0.36321736694E+02  0.57204511605E+02  0.51100000000E-03 0.  1.
         23    2    1    0    0    0  0.19322543713E+02  0.12157902176E+02  0.20469896787E+02  0.94337450280E+02  0.89215259737E+02 0.  0.
         11    1    3    3    0    0  0.11885442738E+02 -0.31405581619E+02 -0.15851839907E+02  0.37132938674E+02  0.51100000000E-03 0. -1.
         22    1    1    0    0    0 -0.19322543713E+02 -0.12157902176E+02 -0.20469896787E+02  0.30662549720E+02  0.00000000000E+00 0.  1.
</event>
<event>
 5    1  0.1111613E-009  0.9118800E+02  0.7818608E-02  0.1130116E+00
         25   -1    0    0    0    0  0.00000000000E+00  0.00000000000E+00  0.99999998245E-14  0.12500000000E+03  0.12500000000E+03 0.  0.
        -11    1    3    3    0    0 -0.23939067101E+02  0.42153691470E+01  0.25442822650E+02  0.35187860057E+02  0.51100000000E-03 0.  1.
         23    2    1    0    0    0  0.20025733084E+02 -0.90736135052E+01 -0.16597862351E+02  0.97452777232E+02  0.93478309292E+02 0.  0.
         11    1    3    3    0    0  0.43964800185E+02 -0.13288982652E+02 -0.42040685001E+02  0.62264917175E+02  0.51100000000E-03 0. -1.
         22    1    1    0    0    0 -0.20025733084E+02  0.90736135052E+01  0.16597862351E+02  0.27547222768E+02  0.00000000000E+00 0. -1.
</event>
<event>
 5    1  0.1111613E-009  0.9118800E+02  0.7818608E-02  0.1130116E+00
         25   -1    0    0    0    0  0.00000000000E+00  0.00000000000E+00  0.99999998245E-14  0.12500000000E+03  0.12500000000E+03 0.  0.
        -11    1    3    3    0    0  0.21382256683E+02  0.14717591158E+02  0.24519689138E+02  0.35707471852E+02  0.51100000000E-03 0. -1.
         23    2    1    0    0    0 -0.86347799936E+01  0.91113587736E+01 -0.26789221448E+02  0.95415567100E+02  0.90713239248E+02 0.  0.
         11    1    3    3    0    0 -0.30017036677E+02 -0.56062323844E+01 -0.51308910586E+02  0.59708095248E+02  0.51100000000E-03 0.  1.
         22    1    1    0    0    0  0.86347799936E+01 -0.91113587736E+01  0.26789221448E+02  0.29584432900E+02  0.00000000000E+00 0.  1.
</event>
<event>
 5    1  0.1111613E-009  0.9118800E+02  0.7818608E-02  0.1130116E+00
         25   -1    0    0    0    0  0.00000000000E+00  0.00000000000E+00  0.99999998245E-14  0.12500000000E+03  0.12500000000E+03 0.  0.
        -11    1    3    3    0    0  0.46052485056E+02  0.28111650914E+01  0.39520623922E+02  0.60750421763E+02  0.51100000000E-03 0. -1.
         23    2    1    0    0    0  0.15615056041E+02  0.98344055188E+01  0.20910170453E+02  0.97111279422E+02  0.93020534591E+02 0.  0.
         11    1    3    3    0    0 -0.30437429014E+02  0.70232404274E+01 -0.18610453469E+02  0.36360857659E+02  0.51100000000E-03 0.  1.
         22    1    1    0    0    0 -0.15615056041E+02 -0.98344055188E+01 -0.20910170453E+02  0.27888720578E+02  0.00000000000E+00 0. -1.
</event>
<event>
 5    1  0.1111613E-009  0.9118800E+02  0.7818608E-02  0.1130116E+00
         25   -1    0    0    0    0  0.00000000000E+00  0.00000000000E+00  0.99999998245E-14  0.12500000000E+03  0.12500000000E+03 0.  0.
        -11    1    3    3    0    0 -0.20121406410E+02  0.32018612268E+01 -0.51299262652E+02  0.55197257723E+02  0.51100000000E-03 0.  1.
         23    2    1    0    0    0 -0.22048653829E+02 -0.13460357500E+02 -0.15139523092E+02  0.95057897216E+02  0.90219035153E+02 0.  0.
         11    1    3    3    0    0 -0.19272474190E+01 -0.16662218727E+02  0.36159739559E+02  0.39860639493E+02  0.51100000000E-03 0. -1.
         22    1    1    0    0    0  0.22048653829E+02  0.13460357500E+02  0.15139523092E+02  0.29942102784E+02  0.00000000000E+00 0.  1.
</event>
<event>
 5    1  0.1111613E-009  0.9118800E+02  0.7818608E-02  0.1130116E+00
         25   -1    0    0    0    0  0.00000000000E+00  0.00000000000E+00  0.99999998245E-14  0.12500000000E+03  0.12500000000E+03 0.  0.
        -11    1    3    3    0    0 -0.36013198350E+02 -0.33174826681E+01 -0.50277126737E+02  0.61933396644E+02  0.51100000000E-03 0.  1.
         23    2    1    0    0    0 -0.13095362942E+02  0.38477987518E+01 -0.22827160359E+02  0.98403508955E+02  0.94741106384E+02 0.  0.
         11    1    3    3    0    0  0.22917835408E+02  0.71652814199E+01  0.27449966378E+02  0.36470112312E+02  0.51100000000E-03 0. -1.
         22    1    1    0    0    0  0.13095362942E+02 -0.38477987518E+01  0.22827160359E+02  0.26596491045E+02  0.00000000000E+00 0.  1.
</event>
<event>
 5    1  0.1111613E-009  0.9118800E+02  0.7818608E-02  0.1130116E+00
         25   -1    0    0    0    0  0.00000000000E+00  0.00000000000E+00  0.99999998245E-14  0.12500000000E+03  0.12500000000E+03 0.  0.
        -11    1    3    3    0    0 -0.19334792349E+02 -0.42078171799E+02  0.86086603427E+01  0.47101122813E+02  0.51100000000E-03 0. -1.
         23    2    1    0    0    0 -0.17167898029E+02 -0.35160860357E+01 -0.22349013726E+02  0.96599683130E+02  0.92330497576E+02 0.  0.
         11    1    3    3    0    0  0.21668943194E+01  0.38562085763E+02 -0.30957674069E+02  0.49498560317E+02  0.51100000000E-03 0.  1.
         22    1    1    0    0    0  0.17167898029E+02  0.35160860357E+01  0.22349013726E+02  0.28400316870E+02  0.00000000000E+00 0. -1.
</event>
<event>
 5    1  0.1111613E-009  0.9118800E+02  0.7818608E-02  0.1130116E+00
         25   -1    0    0    0    0  0.00000000000E+00  0.00000000000E+00  0.99999998245E-14  0.12500000000E+03  0.12500000000E+03 0.  0.
        -11    1    3    3    0    0 -0.29437888165E+02 -0.40905447467E+01  0.40009353845E+02  0.49840447543E+02  0.51100000000E-03 0. -1.
         23    2    1    0    0    0  0.10675604515E+02 -0.16631278092E+02  0.21598873050E+02  0.95724083964E+02  0.91137374282E+02 0.  0.
         11    1    3    3    0    0  0.40113492680E+02 -0.12540733345E+02 -0.18410480795E+02  0.45883636421E+02  0.51100000000E-03 0.  1.
         22    1    1    0    0    0 -0.10675604515E+02  0.16631278092E+02 -0.21598873050E+02  0.29275916036E+02  0.00000000000E+00 0. -1.
</event>
<event>
 5    1  0.1111613E-009  0.9118800E+02  0.7818608E-02  0.1130116E+00
         25   -1    0    0    0    0  0.00000000000E+00  0.00000000000E+00  0.99999998245E-14  0.12500000000E+03  0.12500000000E+03 0.  0.
        -11    1    3    3    0    0  0.17100980460E+02  0.21292765658E+02  0.41460647826E+02  0.49646860127E+02  0.51100000000E-03 0. -1.
         23    2    1    0    0    0 -0.10356249548E+02  0.26829079382E+02  0.47041643337E+01  0.95859297070E+02  0.91322638308E+02 0.  0.
         11    1    3    3    0    0 -0.27457230007E+02  0.55363137233E+01 -0.36756483492E+02  0.46212436944E+02  0.51100000000E-03 0.  1.
         22    1    1    0    0    0  0.10356249548E+02 -0.26829079382E+02 -0.47041643337E+01  0.29140702930E+02  0.00000000000E+00 0. -1.
</event>
<event>
 5    1  0.1111613E-009  0.9118800E+02  0.7818608E-02  0.1130116E+00
         25   -1    0    0    0    0  0.00000000000E+00  0.00000000000E+00  0.99999998245E-14  0.12500000000E+03  0.12500000000E+03 0.  0.
        -11    1    3    3    0    0 -0.29899868008E+02 -0.41492047760E+02 -0.25054687479E+02  0.56950237042E+02  0.51100000000E-03 0. -1.
         23    2    1    0    0    0 -0.34816528600E+01 -0.28320463792E+02  0.11786148010E+01  0.96441993961E+02  0.92116765523E+02 0.  0.
         11    1    3    3    0    0  0.26418215148E+02  0.13171583967E+02  0.26233302280E+02  0.39491756920E+02  0.51100000000E-03 0.  1.
         22    1    1    0    0    0  0.34816528600E+01  0.28320463792E+02 -0.11786148010E+01  0.28558006039E+02  0.00000000000E+00 0. -1.
</event>
<event>
 5    1  0.1111613E-009  0.9118800E+02  0.7818608E-02  0.1130116E+00
         25   -1    0    0    0    0  0.00000000000E+00  0.00000000000E+00  0.99999998245E-14  0.12500000000E+03  0.12500000000E+03 0.  0.
        -11    1    3    3    0    0 -0.49113421833E+02 -0.27020869438E+02 -0.38924429864E+01  0.56190806205E+02  0.51100000000E-03 0.  1.
         23    2    1    0    0    0 -0.27873289031E+02  0.54824750179E+01  0.53250439366E+01  0.96097857058E+02  0.91648591175E+02 0.  0.
         11    1    3    3    0    0  0.21240132802E+02  0.32503344456E+02  0.92174869229E+01  0.39907050852E+02  0.51100000000E-03 0. -1.
         22    1    1    0    0    0  0.27873289031E+02 -0.54824750179E+01 -0.53250439366E+01  0.28902142942E+02  0.00000000000E+00 0.  1.
</event>
<event>
 5    1  0.1111613E-009  0.9118800E+02  0.7818608E-02  0.1130116E+00
         25   -1    0    0    0    0  0.00000000000E+00  0.00000000000E+00  0.99999998245E-14  0.12500000000E+03  0.12500000000E+03 0.  0.
        -11    1    3    3    0    0  0.35000182901E+02 -0.21115990054E+02 -0.73062964603E+01  0.41524448308E+02  0.51100000000E-03 0. -1.
         23    2    1    0    0    0 -0.19999681623E+02 -0.19787800374E+02 -0.20437530996E+01  0.96791468748E+02  0.92589779063E+02 0.  0.
         11    1    3    3    0    0 -0.54999864523E+02  0.13281896801E+01  0.52625433607E+01  0.55267020440E+02  0.51100000000E-03 0.  1.
         22    1    1    0    0    0  0.19999681623E+02  0.19787800374E+02  0.20437530996E+01  0.28208531252E+02  0.00000000000E+00 0.  1.
</event>
<event>
 5    1  0.1111613E-009  0.9118800E+02  0.7818608E-02  0.1130116E+00
         25   -1    0    0    0    0  0.00000000000E+00  0.00000000000E+00  0.99999998245E-14  0.12500000000E+03  0.12500000000E+03 0.  0.
        -11    1    3    3    0    0  0.54538224968E+02 -0.19789890795E+02 -0.11308130678E+02  0.59109488072E+02  0.51100000000E-03 0. -1.
         23    2    1    0    0    0  0.20477775029E+02 -0.22716210059E+02 -0.31569605909E+01  0.94253750314E+02  0.89097910069E+02 0.  0.
         11    1    3    3    0    0 -0.34060449940E+02 -0.29263192635E+01  0.81511700869E+01  0.35144262243E+02  0.51100000000E-03 0.  1.
         22    1    1    0    0    0 -0.20477775029E+02  0.22716210059E+02  0.31569605909E+01  0.30746249686E+02  0.00000000000E+00 0. -1.
</event>
<event>
 5    1  0.1111613E-009  0.9118800E+02  0.7818608E-02  0.1130116E+00
         25   -1    0    0    0    0  0.00000000000E+00  0.00000000000E+00  0.99999998245E-14  0.12500000000E+03  0.12500000000E+03 0.  0.
        -11    1    3    3    0    0  0.32385396737E+02  0.46633037731E+01  0.37343799515E+02  0.49649971665E+02  0.51100000000E-03 0.  1.
         23    2    1    0    0    0  0.23706914313E+02 -0.40960836054E+01 -0.10275131078E+02  0.98839457081E+02  0.95314554347E+02 0.  0.
         11    1    3    3    0    0 -0.86784824242E+01 -0.87593873785E+01 -0.47618930593E+02  0.49189485416E+02  0.51100000000E-03 0. -1.
         22    1    1    0    0    0 -0.23706914313E+02  0.40960836054E+01  0.10275131078E+02  0.26160542919E+02  0.00000000000E+00 0.  1.
</event>
<event>
 5    1  0.1111613E-009  0.9118800E+02  0.7818608E-02  0.1130116E+00
         25   -1    0    0    0    0  0.00000000000E+00  0.00000000000E+00  0.99999998245E-14  0.12500000000E+03  0.12500000000E+03 0.  0.
        -11    1    3    3    0    0 -0.46268125383E+02  0.31358189813E+02 -0.13882569927E+02  0.57591676854E+02  0.51100000000E-03 0.  1.
         23    2    1    0    0    0 -0.28983064496E+02 -0.12479726223E+01 -0.74002950807E+01  0.95061064973E+02  0.90223424028E+02 0.  0.
         11    1    3    3    0    0  0.17285060887E+02 -0.32606162435E+02  0.64822748459E+01  0.37469388120E+02  0.51100000000E-03 0. -1.
         22    1    1    0    0    0  0.28983064496E+02  0.12479726223E+01  0.74002950807E+01  0.29938935027E+02  0.00000000000E+00 0.  1.
</event>
<event>
 5    1  0.1111613E-009  0.9118800E+02  0.7818608E-02  0.1130116E+00
         25   -1    0    0    0    0  0.00000000000E+00  0.00000000000E+00  0.99999998245E-14  0.12500000000E+03  0.12500000000E+03 0.  0.
        -11    1    3    3    0    0  0.39019826721E+02  0.22773749485E+01 -0.24683065284E+02  0.46227556999E+02  0.51100000000E-03 0.  1.
         23    2    1    0    0    0 -0.50237993176E+01  0.23944711605E+02 -0.15130916824E+02  0.96233136817E+02  0.91832914602E+02 0.  0.
         11    1    3    3    0    0 -0.44043626039E+02  0.21667336657E+02  0.95521484599E+01  0.50005579818E+02  0.51100000000E-03 0. -1.
         22    1    1    0    0    0  0.50237993176E+01 -0.23944711605E+02  0.15130916824E+02  0.28766863183E+02  0.00000000000E+00 0. -1.
</event>
<event>
 5    1  0.1111613E-009  0.9118800E+02  0.7818608E-02  0.1130116E+00
         25   -1    0    0    0    0  0.00000000000E+00  0.00000000000E+00  0.99999998245E-14  0.12500000000E+03  0.12500000000E+03 0.  0.
        -11    1    3    3    0    0 -0.46207407012E+02 -0.35805277847E+02 -0.16685991692E+02  0.60791156458E+02  0.51100000000E-03 0.  1.
         23    2    1    0    0    0 -0.27213655629E+02 -0.11888860057E+02 -0.62886370964E+00  0.95296069019E+02  0.90548424916E+02 0.  0.
         11    1    3    3    0    0  0.18993751383E+02  0.23916417790E+02  0.16057127983E+02  0.34504912561E+02  0.51100000000E-03 0. -1.
         22    1    1    0    0    0  0.27213655629E+02  0.11888860057E+02  0.62886370964E+00  0.29703930981E+02  0.00000000000E+00 0.  1.
</event>
<event>
 5    1  0.1111613E-009  0.9118800E+02  0.7818608E-02  0.1130116E+00
         25   -1    0    0    0    0  0.00000000000E+00  0.00000000000E+00  0.99999998245E-14  0.12500000000E+03  0.12500000000E+03 0.  0.
        -11    1    3    3    0    0 -0.13221006421E+01 -0.32891536248E+02 -0.33505093676E+02  0.46970122519E+02  0.51100000000E-03 0.  1.
         23    2    1    0    0    0  0.26881307185E+02  0.22486610484E+00 -0.10897146045E+02  0.95993051993E+02  0.91505535342E+02 0.  0.
         11    1    3    3    0    0  0.28203407827E+02  0.33116402353E+02  0.22607947631E+02  0.49022929475E+02  0.51100000000E-03 0. -1.
         22    1    1    0    0    0 -0.26881307185E+02 -0.22486610484E+00  0.10897146045E+02  0.29006948007E+02  0.00000000000E+00 0.  1.
</event>
<event>
 5    1  0.1111613E-009  0.9118800E+02  0.7818608E-02  0.1130116E+00
         25   -1    0    0    0    0  0.00000000000E+00  0.00000000000E+00  0.99999998245E-14  0.12500000000E+03  0.12500000000E+03 0.  0.
        -11    1    3    3    0    0 -0.27584390393E+02 -0.21426897219E+02 -0.34053930608E+02  0.48781971136E+02  0.51100000000E-03 0.  1.
         23    2    1    0    0    0 -0.82748356931E+01  0.19050095992E+02 -0.20939169591E+02  0.95507155339E+02  0.90839357300E+02 0.  0.
         11    1    3    3    0    0  0.19309554700E+02  0.40476993210E+02  0.13114761017E+02  0.46725184203E+02  0.51100000000E-03 0. -1.
         22    1    1    0    0    0  0.82748356931E+01 -0.19050095992E+02  0.20939169591E+02  0.29492844661E+02  0.00000000000E+00 0. -1.
</event>
<event>
 5    1  0.1111613E-009  0.9118800E+02  0.7818608E-02  0.1130116E+00
         25   -1    0    0    0    0  0.00000000000E+00  0.00000000000E+00  0.99999998245E-14  0.12500000000E+03  0.12500000000E+03 0.  0.
        -11    1    3    3    0    0 -0.61561540747E+01 -0.54326742364E+02 -0.26486471054E+02  0.60752171303E+02  0.51100000000E-03 0. -1.
         23    2    1    0    0    0 -0.79602613691E+01 -0.28520644620E+02 -0.38250875664E+01  0.95143271688E+02  0.90337245486E+02 0.  0.
         11    1    3    3    0    0 -0.18041072944E+01  0.25806097744E+02  0.22661383488E+02  0.34391100386E+02  0.51100000000E-03 0.  1.
         22    1    1    0    0    0  0.79602613691E+01  0.28520644620E+02  0.38250875664E+01  0.29856728312E+02  0.00000000000E+00 0. -1.
</event>
<event>
 5    1  0.1111613E-009  0.9118800E+02  0.7818608E-02  0.1130116E+00
         25   -1    0    0    0    0  0.00000000000E+00  0.00000000000E+00  0.99999998245E-14  0.12500000000E+03  0.12500000000E+03 0.  0.
        -11    1    3    3    0    0  0.19138168069E+01  0.37426822465E+02 -0.24760128010E+02  0.44916518942E+02  0.51100000000E-03 0.  1.
         23    2    1    0    0    0 -0.53821504116E+01 -0.38565567845E+01 -0.36061074168E+02  0.88336098906E+02  0.80368057874E+02 0.  0.
         11    1    3    3    0    0 -0.72959672185E+01 -0.41283379249E+02 -0.11300946158E+02  0.43419579964E+02  0.51100000000E-03 0. -1.
         22    1    1    0    0    0  0.53821504116E+01  0.38565567845E+01  0.36061074168E+02  0.36663901094E+02  0.00000000000E+00 0.  1.
</event>
<event>
 5    1  0.1111613E-009  0.9118800E+02  0.7818608E-02  0.1130116E+00
         25   -1    0    0    0    0  0.00000000000E+00  0.00000000000E+00  0.99999998245E-14  0.12500000000E+03  0.12500000000E+03 0.  0.
        -11    1    3    3    0    0 -0.37084076760E+02 -0.35413631399E+01  0.88476494515E+01  0.38289044165E+02  0.51100000000E-03 0.  1.
         23    2    1    0    0    0  0.38855547702E+01  0.11179996244E+02 -0.27537747473E+02  0.95026388476E+02  0.90175368693E+02 0.  0.
         11    1    3    3    0    0  0.40969631530E+02  0.14721359384E+02 -0.36385396925E+02  0.56737344311E+02  0.51100000000E-03 0. -1.
         22    1    1    0    0    0 -0.38855547702E+01 -0.11179996244E+02  0.27537747473E+02  0.29973611524E+02  0.00000000000E+00 0. -1.
</event>
<event>
 5    1  0.1111613E-009  0.9118800E+02  0.7818608E-02  0.1130116E+00
         25   -1    0    0    0    0  0.00000000000E+00  0.00000000000E+00  0.99999998245E-14  0.12500000000E+03  0.12500000000E+03 0.  0.
        -11    1    3    3    0    0 -0.57615225827E+01 -0.24113780862E+02  0.24204388202E+02  0.34648549442E+02  0.51100000000E-03 0. -1.
         23    2    1    0    0    0 -0.60919606676E+01  0.25671229664E+02 -0.11808026462E+02  0.96094057598E+02  0.91643408925E+02 0.  0.
         11    1    3    3    0    0 -0.33043808498E+00  0.49785010526E+02 -0.36012414664E+02  0.61445508156E+02  0.51100000000E-03 0.  1.
         22    1    1    0    0    0  0.60919606676E+01 -0.25671229664E+02  0.11808026462E+02  0.28905942402E+02  0.00000000000E+00 0.  1.
</event>
<event>
 5    1  0.1111613E-009  0.9118800E+02  0.7818608E-02  0.1130116E+00
         25   -1    0    0    0    0  0.00000000000E+00  0.00000000000E+00  0.99999998245E-14  0.12500000000E+03  0.12500000000E+03 0.  0.
        -11    1    3    3    0    0 -0.32417163276E+02 -0.10977119942E+02 -0.15525296197E+02  0.37581969871E+02  0.51100000000E-03 0.  1.
         23    2    1    0    0    0  0.11731525826E+02  0.25889805554E+02 -0.69890495172E+01  0.95729579044E+02  0.91144910779E+02 0.  0.
         11    1    3    3    0    0  0.44148689102E+02  0.36866925496E+02  0.85362466799E+01  0.58147609173E+02  0.51100000000E-03 0. -1.
         22    1    1    0    0    0 -0.11731525826E+02 -0.25889805554E+02  0.69890495172E+01  0.29270420956E+02  0.00000000000E+00 0. -1.
</event>
<event>
 5    1  0.1111613E-009  0.9118800E+02  0.7818608E-02  0.1130116E+00
         25   -1    0    0    0    0  0.00000000000E+00  0.00000000000E+00  0.99999998245E-14  0.12500000000E+03  0.12500000000E+03 0.  0.
        -11    1    3    3    0    0  0.17109846447E+02  0.31789486364E+02 -0.21545053047E+02  0.42041736403E+02  0.51100000000E-03 0. -1.
         23    2    1    0    0    0 -0.98756982456E+01 -0.15744155022E+02 -0.21339807963E+02  0.96701674306E+02  0.92468473420E+02 0.  0.
         11    1    3    3    0    0 -0.26985544692E+02 -0.47533641386E+02  0.20524508442E+00  0.54659937903E+02  0.51100000000E-03 0.  1.
         22    1    1    0    0    0  0.98756982456E+01  0.15744155022E+02  0.21339807963E+02  0.28298325694E+02  0.00000000000E+00 0. -1.
</event>
<event>
 5    1  0.1111613E-009  0.9118800E+02  0.7818608E-02  0.1130116E+00
         25   -1    0    0    0    0  0.00000000000E+00  0.00000000000E+00  0.99999998245E-14  0.12500000000E+03  0.12500000000E+03 0.  0.
        -11    1    3    3    0    0  0.32108730601E+02  0.34941421628E+02  0.22389522319E+02  0.52470603542E+02  0.51100000000E-03 0. -1.
         23    2    1    0    0    0 -0.75388152430E+01  0.22811635784E+02  0.19543670071E+02  0.94029699675E+02  0.88783021568E+02 0.  0.
         11    1    3    3    0    0 -0.39647545844E+02 -0.12129785844E+02 -0.28458522483E+01  0.41559096132E+02  0.51100000000E-03 0.  1.
         22    1    1    0    0    0  0.75388152430E+01 -0.22811635784E+02 -0.19543670071E+02  0.30970300325E+02  0.00000000000E+00 0. -1.
</event>
<event>
 5    1  0.1111613E-009  0.9118800E+02  0.7818608E-02  0.1130116E+00
         25   -1    0    0    0    0  0.00000000000E+00  0.00000000000E+00  0.99999998245E-14  0.12500000000E+03  0.12500000000E+03 0.  0.
        -11    1    3    3    0    0 -0.48079814006E+02  0.28484390670E+02  0.73387678060E+01  0.56363876196E+02  0.51100000000E-03 0.  1.
         23    2    1    0    0    0 -0.91859470472E+01  0.27856225606E+02  0.25184788371E+01  0.95560338592E+02  0.90912510954E+02 0.  0.
         11    1    3    3    0    0  0.38893866958E+02 -0.62816506389E+00 -0.48202889688E+01  0.39196462396E+02  0.51100000000E-03 0. -1.
         22    1    1    0    0    0  0.91859470472E+01 -0.27856225606E+02 -0.25184788371E+01  0.29439661408E+02  0.00000000000E+00 0.  1.
</event>
<event>
 5    1  0.1111613E-009  0.9118800E+02  0.7818608E-02  0.1130116E+00
         25   -1    0    0    0    0  0.00000000000E+00  0.00000000000E+00  0.99999998245E-14  0.12500000000E+03  0.12500000000E+03 0.  0.
        -11    1    3    3    0    0 -0.42602794994E+02 -0.15409175735E+02 -0.14926305787E+02  0.47699428119E+02  0.51100000000E-03 0. -1.
         23    2    1    0    0    0 -0.93132491259E+01 -0.16606053498E+02  0.20973821539E+02  0.96673355087E+02  0.92430183229E+02 0.  0.
         11    1    3    3    0    0  0.33289545868E+02 -0.11968777638E+01  0.35900127325E+02  0.48973926969E+02  0.51100000000E-03 0.  1.
         22    1    1    0    0    0  0.93132491259E+01  0.16606053498E+02 -0.20973821539E+02  0.28326644913E+02  0.00000000000E+00 0. -1.
</event>
<event>
 5    1  0.1111613E-009  0.9118800E+02  0.7818608E-02  0.1130116E+00
         25   -1    0    0    0    0  0.00000000000E+00  0.00000000000E+00  0.99999998245E-14  0.12500000000E+03  0.12500000000E+03 0.  0.
        -11    1    3    3    0    0 -0.34117312766E+02  0.24793502679E+02 -0.52761812124E+01  0.42503492726E+02  0.51100000000E-03 0. -1.
         23    2    1    0    0    0  0.12928335538E+01 -0.41215325571E+01 -0.30145789258E+02  0.94546312880E+02  0.89507419917E+02 0.  0.
         11    1    3    3    0    0  0.35410146320E+02 -0.28915035236E+02 -0.24869608045E+02  0.52042820155E+02  0.51100000000E-03 0.  1.
         22    1    1    0    0    0 -0.12928335538E+01  0.41215325571E+01  0.30145789258E+02  0.30453687120E+02  0.00000000000E+00 0.  1.
</event>
<event>
 5    1  0.1111613E-009  0.9118800E+02  0.7818608E-02  0.1130116E+00
         25   -1    0    0    0    0  0.00000000000E+00  0.00000000000E+00  0.99999998245E-14  0.12500000000E+03  0.12500000000E+03 0.  0.
        -11    1    3    3    0    0  0.39925654791E+02  0.12314095965E+02 -0.39716447412E+02  0.57646258033E+02  0.51100000000E-03 0.  1.
         23    2    1    0    0    0  0.27021733303E+02  0.30348402151E+01 -0.30145924433E+01  0.97641781977E+02  0.93730707317E+02 0.  0.
         11    1    3    3    0    0 -0.12903921488E+02 -0.92792557501E+01  0.36701854969E+02  0.39995523943E+02  0.51100000000E-03 0. -1.
         22    1    1    0    0    0 -0.27021733303E+02 -0.30348402151E+01  0.30145924433E+01  0.27358218023E+02  0.00000000000E+00 0.  1.
</event>
<event>
 5    1  0.1111613E-009  0.9118800E+02  0.7818608E-02  0.1130116E+00
         25   -1    0    0    0    0  0.00000000000E+00  0.00000000000E+00  0.99999998245E-14  0.12500000000E+03  0.12500000000E+03 0.  0.
        -11    1    3    3    0    0 -0.11938844565E+02 -0.10833001426E+02 -0.41950493955E+02  0.44941449384E+02  0.51100000000E-03 0. -1.
         23    2    1    0    0    0  0.26032433033E+02 -0.10864161136E+02 -0.85178326290E+01  0.95533560794E+02  0.90875685409E+02 0.  0.
         11    1    3    3    0    0  0.37971277598E+02 -0.31159710045E-01  0.33432661326E+02  0.50592111410E+02  0.51100000000E-03 0.  1.
         22    1    1    0    0    0 -0.26032433033E+02  0.10864161136E+02  0.85178326290E+01  0.29466439206E+02  0.00000000000E+00 0.  1.
</event>
<event>
 5    1  0.1111613E-009  0.9118800E+02  0.7818608E-02  0.1130116E+00
         25   -1    0    0    0    0  0.00000000000E+00  0.00000000000E+00  0.99999998245E-14  0.12500000000E+03  0.12500000000E+03 0.  0.
        -11    1    3    3    0    0 -0.32454570529E+01  0.34506438775E+02 -0.36388382449E+02  0.50252777893E+02  0.51100000000E-03 0.  1.
         23    2    1    0    0    0  0.15903052816E+02  0.23415845306E+02  0.41052564569E+01  0.96398216300E+02  0.92057341234E+02 0.  0.
         11    1    3    3    0    0  0.19148509869E+02 -0.11090593469E+02  0.40493638906E+02  0.46145438407E+02  0.51100000000E-03 0. -1.
         22    1    1    0    0    0 -0.15903052816E+02 -0.23415845306E+02 -0.41052564569E+01  0.28601783700E+02  0.00000000000E+00 0. -1.
</event>
<event>
 5    1  0.1111613E-009  0.9118800E+02  0.7818608E-02  0.1130116E+00
         25   -1    0    0    0    0  0.00000000000E+00  0.00000000000E+00  0.99999998245E-14  0.12500000000E+03  0.12500000000E+03 0.  0.
        -11    1    3    3    0    0 -0.15260484706E+02  0.29343946409E+01 -0.31532166579E+02  0.35153528909E+02  0.51100000000E-03 0. -1.
         23    2    1    0    0    0  0.82821166126E+01 -0.19205869900E+02  0.20051911023E+02  0.96025217346E+02  0.91549463878E+02 0.  0.
         11    1    3    3    0    0  0.23542601319E+02 -0.22140264541E+02  0.51584077602E+02  0.60871688436E+02  0.51100000000E-03 0.  1.
         22    1    1    0    0    0 -0.82821166126E+01  0.19205869900E+02 -0.20051911023E+02  0.28974782654E+02  0.00000000000E+00 0.  1.
</event>
<event>
 5    1  0.1111613E-009  0.9118800E+02  0.7818608E-02  0.1130116E+00
         25   -1    0    0    0    0  0.00000000000E+00  0.00000000000E+00  0.99999998245E-14  0.12500000000E+03  0.12500000000E+03 0.  0.
        -11    1    3    3    0    0  0.37065206541E+02 -0.39777565594E+02 -0.29496544735E+01  0.54449836752E+02  0.51100000000E-03 0.  1.
         23    2    1    0    0    0  0.18274770161E+02 -0.81359962704E+01 -0.21476183813E+02  0.95650585510E+02  0.91036511233E+02 0.  0.
         11    1    3    3    0    0 -0.18790436380E+02  0.31641569323E+02 -0.18526529340E+02  0.41200748758E+02  0.51100000000E-03 0. -1.
         22    1    1    0    0    0 -0.18274770161E+02  0.81359962704E+01  0.21476183813E+02  0.29349414490E+02  0.00000000000E+00 0.  1.
</event>
<event>
 5    1  0.1111613E-009  0.9118800E+02  0.7818608E-02  0.1130116E+00
         25   -1    0    0    0    0  0.00000000000E+00  0.00000000000E+00  0.99999998245E-14  0.12500000000E+03  0.12500000000E+03 0.  0.
        -11    1    3    3    0    0  0.31590480793E+01  0.47059197800E+02  0.23694051331E+01  0.47224588546E+02  0.51100000000E-03 0.  1.
         23    2    1    0    0    0 -0.24337155301E+02  0.10337720168E+02 -0.12907107618E+02  0.95576216873E+02  0.90934340148E+02 0.  0.
         11    1    3    3    0    0 -0.27496203381E+02 -0.36721477632E+02 -0.15276512751E+02  0.48351628327E+02  0.51100000000E-03 0. -1.
         22    1    1    0    0    0  0.24337155301E+02 -0.10337720168E+02  0.12907107618E+02  0.29423783127E+02  0.00000000000E+00 0.  1.
</event>
<event>
 5    1  0.1111613E-009  0.9118800E+02  0.7818608E-02  0.1130116E+00
         25   -1    0    0    0    0  0.00000000000E+00  0.00000000000E+00  0.99999998245E-14  0.12500000000E+03  0.12500000000E+03 0.  0.
        -11    1    3    3    0    0 -0.11999025750E+02  0.57039745816E+02  0.20752207477E+02  0.61872153164E+02  0.51100000000E-03 0. -1.
         23    2    1    0    0    0 -0.11272281932E+02  0.25326537642E+02  0.72635977534E+01  0.96342405873E+02  0.91981527864E+02 0.  0.
         11    1    3    3    0    0  0.72674381842E+00 -0.31713208174E+02 -0.13488609724E+02  0.34470252709E+02  0.51100000000E-03 0.  1.
         22    1    1    0    0    0  0.11272281932E+02 -0.25326537642E+02 -0.72635977534E+01  0.28657594127E+02  0.00000000000E+00 0. -1.
</event>
<event>
 5    1  0.1111613E-009  0.9118800E+02  0.7818608E-02  0.1130116E+00
         25   -1    0    0    0    0  0.00000000000E+00  0.00000000000E+00  0.99999998245E-14  0.12500000000E+03  0.12500000000E+03 0.  0.
        -11    1    3    3    0    0  0.35963858660E+02  0.22603256392E+02 -0.15651559617E+02  0.45268947944E+02  0.51100000000E-03 0. -1.
         23    2    1    0    0    0  0.30124832118E+02 -0.18983956985E+02 -0.12009718942E+02  0.87421688675E+02  0.78933023310E+02 0.  0.
         11    1    3    3    0    0 -0.58390265415E+01 -0.41587213377E+02  0.36418406752E+01  0.42152740731E+02  0.51100000000E-03 0.  1.
         22    1    1    0    0    0 -0.30124832118E+02  0.18983956985E+02  0.12009718942E+02  0.37578311325E+02  0.00000000000E+00 0. -1.
</event>
<event>
 5    1  0.1111613E-009  0.9118800E+02  0.7818608E-02  0.1130116E+00
         25   -1    0    0    0    0  0.00000000000E+00  0.00000000000E+00  0.99999998245E-14  0.12500000000E+03  0.12500000000E+03 0.  0.
        -11    1    3    3    0    0  0.48562078159E+02 -0.28966593252E+02 -0.18854021225E+02  0.59605478577E+02  0.51100000000E-03 0. -1.
         23    2    1    0    0    0  0.31351686911E+02 -0.69738228821E+01 -0.77564221530E+00  0.92872689210E+02  0.87138810541E+02 0.  0.
         11    1    3    3    0    0 -0.17210391248E+02  0.21992770370E+02  0.18078379010E+02  0.33267210633E+02  0.51100000000E-03 0.  1.
         22    1    1    0    0    0 -0.31351686911E+02  0.69738228821E+01  0.77564221530E+00  0.32127310790E+02  0.00000000000E+00 0. -1.
</event>
<event>
 5    1  0.1111613E-009  0.9118800E+02  0.7818608E-02  0.1130116E+00
         25   -1    0    0    0    0  0.00000000000E+00  0.00000000000E+00  0.99999998245E-14  0.12500000000E+03  0.12500000000E+03 0.  0.
        -11    1    3    3    0    0 -0.14496857885E+02 -0.28210292573E+02  0.42022332638E+02  0.52648418174E+02  0.51100000000E-03 0.  1.
         23    2    1    0    0    0 -0.69629222167E+01 -0.28545191919E+02 -0.27881081306E+00  0.95616535212E+02  0.90989745592E+02 0.  0.
         11    1    3    3    0    0  0.75339356683E+01 -0.33489934572E+00 -0.42301143451E+02  0.42968117038E+02  0.51100000000E-03 0. -1.
         22    1    1    0    0    0  0.69629222167E+01  0.28545191919E+02  0.27881081306E+00  0.29383464788E+02  0.00000000000E+00 0.  1.
</event>
<event>
 5    1  0.1111613E-009  0.9118800E+02  0.7818608E-02  0.1130116E+00
         25   -1    0    0    0    0  0.00000000000E+00  0.00000000000E+00  0.99999998245E-14  0.12500000000E+03  0.12500000000E+03 0.  0.
        -11    1    3    3    0    0  0.18382251943E+02  0.21500963348E+02 -0.17461420001E+02  0.33243041378E+02  0.51100000000E-03 0. -1.
         23    2    1    0    0    0 -0.13864245964E+02 -0.12199923609E+02  0.23356554947E+02  0.95224437684E+02  0.90449485466E+02 0.  0.
         11    1    3    3    0    0 -0.32246497907E+02 -0.33700886956E+02  0.40817974948E+02  0.61981396306E+02  0.51100000000E-03 0.  1.
         22    1    1    0    0    0  0.13864245964E+02  0.12199923609E+02 -0.23356554947E+02  0.29775562316E+02  0.00000000000E+00 0.  1.
</event>
<event>
 5    1  0.1111613E-009  0.9118800E+02  0.7818608E-02  0.1130116E+00
         25   -1    0    0    0    0  0.00000000000E+00  0.00000000000E+00  0.99999998245E-14  0.12500000000E+03  0.12500000000E+03 0.  0.
        -11    1    3    3    0    0  0.14143742841E+02 -0.24192243374E+02  0.25561612448E+02  0.37930279886E+02  0.51100000000E-03 0.  1.
         23    2    1    0    0    0 -0.81798217517E+01 -0.86318283103E+01 -0.26099021935E+02  0.96319398719E+02  0.91950256551E+02 0.  0.
         11    1    3    3    0    0 -0.22323564593E+02  0.15560415063E+02 -0.51660634383E+02  0.58389118834E+02  0.51100000000E-03 0. -1.
         22    1    1    0    0    0  0.81798217517E+01  0.86318283103E+01  0.26099021935E+02  0.28680601281E+02  0.00000000000E+00 0.  1.
</event>
<event>
 5    1  0.1111613E-009  0.9118800E+02  0.7818608E-02  0.1130116E+00
         25   -1    0    0    0    0  0.00000000000E+00  0.00000000000E+00  0.99999998245E-14  0.12500000000E+03  0.12500000000E+03 0.  0.
        -11    1    3    3    0    0 -0.36056101608E+02 -0.38934913262E+02  0.15683878993E+02  0.55334925629E+02  0.51100000000E-03 0.  1.
         23    2    1    0    0    0 -0.24975198513E+02  0.19499217188E+00  0.14707724864E+02  0.96015249986E+02  0.91535853612E+02 0.  0.
         11    1    3    3    0    0  0.11080903095E+02  0.39129905434E+02 -0.97615412883E+00  0.40680324357E+02  0.51100000000E-03 0. -1.
         22    1    1    0    0    0  0.24975198513E+02 -0.19499217188E+00 -0.14707724864E+02  0.28984750014E+02  0.00000000000E+00 0.  1.
</event>
<event>
 5    1  0.1111613E-009  0.9118800E+02  0.7818608E-02  0.1130116E+00
         25   -1    0    0    0    0  0.00000000000E+00  0.00000000000E+00  0.99999998245E-14  0.12500000000E+03  0.12500000000E+03 0.  0.
        -11    1    3    3    0    0  0.90766455789E+01 -0.49845514543E+02  0.82294863496E+01  0.51329185274E+02  0.51100000000E-03 0.  1.
         23    2    1    0    0    0  0.21809648669E+01 -0.11843411207E+02  0.27855886143E+02  0.94652456614E+02  0.89655530524E+02 0.  0.
         11    1    3    3    0    0 -0.68956807120E+01  0.38002103337E+02  0.19626399793E+02  0.43323271340E+02  0.51100000000E-03 0. -1.
         22    1    1    0    0    0 -0.21809648669E+01  0.11843411207E+02 -0.27855886143E+02  0.30347543386E+02  0.00000000000E+00 0.  1.
</event>
<event>
 5    1  0.1111613E-009  0.9118800E+02  0.7818608E-02  0.1130116E+00
         25   -1    0    0    0    0  0.00000000000E+00  0.00000000000E+00  0.99999998245E-14  0.12500000000E+03  0.12500000000E+03 0.  0.
        -11    1    3    3    0    0 -0.18218965360E+01  0.48909640875E+02  0.20697283679E+02  0.53139908067E+02  0.51100000000E-03 0. -1.
         23    2    1    0    0    0 -0.15521004888E+02  0.21218989746E+02 -0.10170054108E+02  0.96811755657E+02  0.92617163173E+02 0.  0.
         11    1    3    3    0    0 -0.13699108352E+02 -0.27690651129E+02 -0.30867337787E+02  0.43671847590E+02  0.51100000000E-03 0.  1.
         22    1    1    0    0    0  0.15521004888E+02 -0.21218989746E+02  0.10170054108E+02  0.28188244343E+02  0.00000000000E+00 0.  1.
</event>
<event>
 5    1  0.1111613E-009  0.9118800E+02  0.7818608E-02  0.1130116E+00
         25   -1    0    0    0    0  0.00000000000E+00  0.00000000000E+00  0.99999998245E-14  0.12500000000E+03  0.12500000000E+03 0.  0.
        -11    1    3    3    0    0 -0.11801715133E+02  0.29033795034E+02  0.11337968995E+02  0.33328535451E+02  0.51100000000E-03 0. -1.
         23    2    1    0    0    0  0.88587525739E+01 -0.28495456799E+02  0.36223992849E+01  0.94940220694E+02  0.90055844749E+02 0.  0.
         11    1    3    3    0    0  0.20660467707E+02 -0.57529251832E+02 -0.77155697105E+01  0.61611685243E+02  0.51100000000E-03 0.  1.
         22    1    1    0    0    0 -0.88587525739E+01  0.28495456799E+02 -0.36223992849E+01  0.30059779306E+02  0.00000000000E+00 0.  1.
</event>
<event>
 5    1  0.1111613E-009  0.9118800E+02  0.7818608E-02  0.1130116E+00
         25   -1    0    0    0    0  0.00000000000E+00  0.00000000000E+00  0.99999998245E-14  0.12500000000E+03  0.12500000000E+03 0.  0.
        -11    1    3    3    0    0  0.15297909550E+02  0.17055090292E+02  0.55270529235E+02  0.59830874502E+02  0.51100000000E-03 0.  1.
         23    2    1    0    0    0 -0.45038642661E+01  0.12862260636E+02  0.28663079216E+02  0.93262094396E+02  0.87695630444E+02 0.  0.
         11    1    3    3    0    0 -0.19801773817E+02 -0.41928296558E+01 -0.26607450019E+02  0.33431219894E+02  0.51100000000E-03 0. -1.
         22    1    1    0    0    0  0.45038642661E+01 -0.12862260636E+02 -0.28663079216E+02  0.31737905604E+02  0.00000000000E+00 0.  1.
</event>
<event>
 5    1  0.1111613E-009  0.9118800E+02  0.7818608E-02  0.1130116E+00
         25   -1    0    0    0    0  0.00000000000E+00  0.00000000000E+00  0.99999998245E-14  0.12500000000E+03  0.12500000000E+03 0.  0.
        -11    1    3    3    0    0  0.31756437698E+02 -0.71825528118E+01  0.87738524288E+01  0.33720036875E+02  0.51100000000E-03 0. -1.
         23    2    1    0    0    0 -0.28919810619E+02  0.10270999122E+00 -0.28926371414E+01  0.95935703256E+02  0.91427161248E+02 0.  0.
         11    1    3    3    0    0 -0.60676248318E+02  0.72852628030E+01 -0.11666489570E+02  0.62215666380E+02  0.51100000000E-03 0.  1.
         22    1    1    0    0    0  0.28919810619E+02 -0.10270999122E+00  0.28926371414E+01  0.29064296744E+02  0.00000000000E+00 0.  1.
</event>
<event>
 5    1  0.1111613E-009  0.9118800E+02  0.7818608E-02  0.1130116E+00
         25   -1    0    0    0    0  0.00000000000E+00  0.00000000000E+00  0.99999998245E-14  0.12500000000E+03  0.12500000000E+03 0.  0.
        -11    1    3    3    0    0 -0.94497099463E+01 -0.61607785153E+02  0.36702459895E+01  0.62436262824E+02  0.51100000000E-03 0.  1.
         23    2    1    0    0    0 -0.65084628535E+01 -0.29777293190E+02  0.23402799110E+01  0.94430011638E+02  0.89344853850E+02 0.  0.
         11    1    3    3    0    0  0.29412470928E+01  0.31830491964E+02 -0.13299660784E+01  0.31993748813E+02  0.51100000000E-03 0. -1.
         22    1    1    0    0    0  0.65084628535E+01  0.29777293190E+02 -0.23402799110E+01  0.30569988362E+02  0.00000000000E+00 0.  1.
</event>
<event>
 5    1  0.1111613E-009  0.9118800E+02  0.7818608E-02  0.1130116E+00
         25   -1    0    0    0    0  0.00000000000E+00  0.00000000000E+00  0.99999998245E-14  0.12500000000E+03  0.12500000000E+03 0.  0.
        -11    1    3    3    0    0 -0.13220360113E+02  0.41653661219E+02 -0.17771754635E+02  0.47176696340E+02  0.51100000000E-03 0. -1.
         23    2    1    0    0    0  0.40355477144E+01  0.18537554472E+02  0.21770694939E+02  0.96122851088E+02  0.91682674329E+02 0.  0.
         11    1    3    3    0    0  0.17255907827E+02 -0.23116106747E+02  0.39542449574E+02  0.48946154748E+02  0.51100000000E-03 0.  1.
         22    1    1    0    0    0 -0.40355477144E+01 -0.18537554472E+02 -0.21770694939E+02  0.28877148912E+02  0.00000000000E+00 0.  1.
</event>
<event>
 5    1  0.1111613E-009  0.9118800E+02  0.7818608E-02  0.1130116E+00
         25   -1    0    0    0    0  0.00000000000E+00  0.00000000000E+00  0.99999998245E-14  0.12500000000E+03  0.12500000000E+03 0.  0.
        -11    1    3    3    0    0  0.38751659706E+02  0.95767969367E+00  0.43174230718E+01  0.39003184775E+02  0.51100000000E-03 0.  1.
         23    2    1    0    0    0 -0.13483925174E+02 -0.30512795920E+01  0.25882066967E+02  0.95657063274E+02  0.91045405257E+02 0.  0.
         11    1    3    3    0    0 -0.52235584880E+02 -0.40089592857E+01  0.21564643895E+02  0.56653878498E+02  0.51100000000E-03 0. -1.
         22    1    1    0    0    0  0.13483925174E+02  0.30512795920E+01 -0.25882066967E+02  0.29342936726E+02  0.00000000000E+00 0. -1.
</event>
<event>
 5    1  0.1111613E-009  0.9118800E+02  0.7818608E-02  0.1130116E+00
         25   -1    0    0    0    0  0.00000000000E+00  0.00000000000E+00  0.99999998245E-14  0.12500000000E+03  0.12500000000E+03 0.  0.
        -11    1    3    3    0    0 -0.18151600883E+02 -0.23262062632E+02 -0.19839252030E+02  0.35555591598E+02  0.51100000000E-03 0.  1.
         23    2    1    0    0    0  0.24329033562E+02  0.48921288429E+01  0.13785549707E+02  0.96612041648E+02  0.92347227419E+02 0.  0.
         11    1    3    3    0    0  0.42480634445E+02  0.28154191475E+02  0.33624801737E+02  0.61056450049E+02  0.51100000000E-03 0. -1.
         22    1    1    0    0    0 -0.24329033562E+02 -0.48921288429E+01 -0.13785549707E+02  0.28387958352E+02  0.00000000000E+00 0. -1.
</event>
<event>
 5    1  0.1111613E-009  0.9118800E+02  0.7818608E-02  0.1130116E+00
         25   -1    0    0    0    0  0.00000000000E+00  0.00000000000E+00  0.99999998245E-14  0.12500000000E+03  0.12500000000E+03 0.  0.
        -11    1    3    3    0    0 -0.45096697526E+02 -0.16831871220E+02  0.24695782472E+02  0.54100884361E+02  0.51100000000E-03 0. -1.
         23    2    1    0    0    0 -0.53694124237E+01 -0.90738605579E+00  0.27474470886E+02  0.96991064110E+02  0.92858850023E+02 0.  0.
         11    1    3    3    0    0  0.39727285102E+02  0.15924485164E+02  0.27786884135E+01  0.42890179749E+02  0.51100000000E-03 0.  1.
         22    1    1    0    0    0  0.53694124237E+01  0.90738605579E+00 -0.27474470886E+02  0.28008935890E+02  0.00000000000E+00 0. -1.
</event>
<event>
 5    1  0.1111613E-009  0.9118800E+02  0.7818608E-02  0.1130116E+00
         25   -1    0    0    0    0  0.00000000000E+00  0.00000000000E+00  0.99999998245E-14  0.12500000000E+03  0.12500000000E+03 0.  0.
        -11    1    3    3    0    0  0.83537959953E+00  0.93165492450E+00  0.36425935811E+02  0.36447422953E+02  0.51100000000E-03 0. -1.
         23    2    1    0    0    0 -0.27182710477E+02 -0.20692464514E+02 -0.44866158989E+01  0.90544121565E+02  0.83731895901E+02 0.  0.
         11    1    3    3    0    0 -0.28018090076E+02 -0.21624119438E+02 -0.40912551710E+02  0.54096698612E+02  0.51100000000E-03 0.  1.
         22    1    1    0    0    0  0.27182710477E+02  0.20692464514E+02  0.44866158989E+01  0.34455878435E+02  0.00000000000E+00 0.  1.
</event>
<event>
 5    1  0.1111613E-009  0.9118800E+02  0.7818608E-02  0.1130116E+00
         25   -1    0    0    0    0  0.00000000000E+00  0.00000000000E+00  0.99999998245E-14  0.12500000000E+03  0.12500000000E+03 0.  0.
        -11    1    3    3    0    0 -0.18272043962E+02 -0.38954963525E+02  0.44253603101E+02  0.61723076410E+02  0.51100000000E-03 0. -1.
         23    2    1    0    0    0 -0.42023952198E+01 -0.16033636135E+02  0.25778957171E+02  0.94352124933E+02  0.89235818107E+02 0.  0.
         11    1    3    3    0    0  0.14069648742E+02  0.22921327390E+02 -0.18474645930E+02  0.32629048523E+02  0.51100000000E-03 0.  1.
         22    1    1    0    0    0  0.42023952198E+01  0.16033636135E+02 -0.25778957171E+02  0.30647875067E+02  0.00000000000E+00 0. -1.
</event>
<event>
 5    1  0.1111613E-009  0.9118800E+02  0.7818608E-02  0.1130116E+00
         25   -1    0    0    0    0  0.00000000000E+00  0.00000000000E+00  0.99999998245E-14  0.12500000000E+03  0.12500000000E+03 0.  0.
        -11    1    3    3    0    0 -0.26149850419E+02  0.31468829804E+02  0.11422356943E+01  0.40931731319E+02  0.51100000000E-03 0.  1.
         23    2    1    0    0    0  0.25473643419E+02  0.16007415678E+02 -0.14108857642E+01  0.94881326982E+02  0.89974061515E+02 0.  0.
         11    1    3    3    0    0  0.51623493838E+02 -0.15461414125E+02 -0.25531214585E+01  0.53949595663E+02  0.51100000000E-03 0. -1.
         22    1    1    0    0    0 -0.25473643419E+02 -0.16007415678E+02  0.14108857642E+01  0.30118673018E+02  0.00000000000E+00 0. -1.
</event>
<event>
 5    1  0.1111613E-009  0.9118800E+02  0.7818608E-02  0.1130116E+00
         25   -1    0    0    0    0  0.00000000000E+00  0.00000000000E+00  0.99999998245E-14  0.12500000000E+03  0.12500000000E+03 0.  0.
        -11    1    3    3    0    0  0.18900285487E+02 -0.93002589955E+01  0.46995196966E+02  0.51500137350E+02  0.51100000000E-03 0.  1.
         23    2    1    0    0    0  0.28668610415E+02 -0.61714444092E+01  0.43594012603E+01  0.95352397592E+02  0.90626151844E+02 0.  0.
         11    1    3    3    0    0  0.97683249280E+01  0.31288145863E+01 -0.42635795706E+02  0.43852260242E+02  0.51100000000E-03 0. -1.
         22    1    1    0    0    0 -0.28668610415E+02  0.61714444092E+01 -0.43594012603E+01  0.29647602408E+02  0.00000000000E+00 0. -1.
</event>
<event>
 5    1  0.1111613E-009  0.9118800E+02  0.7818608E-02  0.1130116E+00
         25   -1    0    0    0    0  0.00000000000E+00  0.00000000000E+00  0.99999998245E-14  0.12500000000E+03  0.12500000000E+03 0.  0.
        -11    1    3    3    0    0  0.41650260975E+02 -0.43149264244E+02 -0.43432461665E+01  0.60128753784E+02  0.51100000000E-03 0. -1.
         23    2    1    0    0    0  0.74549916729E+01 -0.24840966594E+02 -0.20004670716E+01  0.98987457051E+02  0.95508451264E+02 0.  0.
         11    1    3    3    0    0 -0.34195269302E+02  0.18308297650E+02  0.23427790949E+01  0.38858703268E+02  0.51100000000E-03 0.  1.
         22    1    1    0    0    0 -0.74549916729E+01  0.24840966594E+02  0.20004670716E+01  0.26012542949E+02  0.00000000000E+00 0. -1.
</event>
<event>
 5    1  0.1111613E-009  0.9118800E+02  0.7818608E-02  0.1130116E+00
         25   -1    0    0    0    0  0.00000000000E+00  0.00000000000E+00  0.99999998245E-14  0.12500000000E+03  0.12500000000E+03 0.  0.
        -11    1    3    3    0    0 -0.23871702428E+02  0.40727864503E+02 -0.30150065328E+02  0.56014672751E+02  0.51100000000E-03 0.  1.
         23    2    1    0    0    0 -0.19057222189E+02 -0.41286058827E+00 -0.16959885801E+02  0.99485574711E+02  0.96158170104E+02 0.  0.
         11    1    3    3    0    0  0.48144802385E+01 -0.41140725092E+02  0.13190179527E+02  0.43470901961E+02  0.51100000000E-03 0. -1.
         22    1    1    0    0    0  0.19057222189E+02  0.41286058827E+00  0.16959885801E+02  0.25514425289E+02  0.00000000000E+00 0.  1.
</event>
<event>
 5    1  0.1111613E-009  0.9118800E+02  0.7818608E-02  0.1130116E+00
         25   -1    0    0    0    0  0.00000000000E+00  0.00000000000E+00  0.99999998245E-14  0.12500000000E+03  0.12500000000E+03 0.  0.
        -11    1    3    3    0    0 -0.32623495629E+02 -0.36185549333E+02  0.31172745044E+02  0.57839661837E+02  0.51100000000E-03 0. -1.
         23    2    1    0    0    0 -0.26683412211E+02 -0.16020271329E+02  0.19799053045E+01  0.93813887615E+02  0.88478652248E+02 0.  0.
         11    1    3    3    0    0  0.59400834180E+01  0.20165278004E+02 -0.29192839739E+02  0.35974225777E+02  0.51100000000E-03 0.  1.
         22    1    1    0    0    0  0.26683412211E+02  0.16020271329E+02 -0.19799053045E+01  0.31186112385E+02  0.00000000000E+00 0. -1.
</event>
<event>
 5    1  0.1111613E-009  0.9118800E+02  0.7818608E-02  0.1130116E+00
         25   -1    0    0    0    0  0.00000000000E+00  0.00000000000E+00  0.99999998245E-14  0.12500000000E+03  0.12500000000E+03 0.  0.
        -11    1    3    3    0    0 -0.47871041485E+02 -0.34053564334E+02 -0.10114417081E+02  0.59611939155E+02  0.51100000000E-03 0. -1.
         23    2    1    0    0    0 -0.16637408735E+02 -0.16638140254E+02 -0.16925296541E+02  0.96015577571E+02  0.91536300956E+02 0.  0.
         11    1    3    3    0    0  0.31233632750E+02  0.17415424080E+02 -0.68108794601E+01  0.36403638416E+02  0.51100000000E-03 0.  1.
         22    1    1    0    0    0  0.16637408735E+02  0.16638140254E+02  0.16925296541E+02  0.28984422429E+02  0.00000000000E+00 0. -1.
</event>
<event>
 5    1  0.1111613E-009  0.9118800E+02  0.7818608E-02  0.1130116E+00
         25   -1    0    0    0    0  0.00000000000E+00  0.00000000000E+00  0.99999998245E-14  0.12500000000E+03  0.12500000000E+03 0.  0.
        -11    1    3    3    0    0  0.18201387415E+02  0.30997887490E+02  0.29797674150E+02  0.46691122472E+02  0.51100000000E-03 0. -1.
         23    2    1    0    0    0 -0.23094282159E+02  0.17220557397E+02  0.10106011816E+02  0.94470916484E+02  0.89402064412E+02 0.  0.
         11    1    3    3    0    0 -0.41295669574E+02 -0.13777330093E+02 -0.19691662334E+02  0.47779794012E+02  0.51100000000E-03 0.  1.
         22    1    1    0    0    0  0.23094282159E+02 -0.17220557397E+02 -0.10106011816E+02  0.30529083516E+02  0.00000000000E+00 0.  1.
</event>
<event>
 5    1  0.1111613E-009  0.9118800E+02  0.7818608E-02  0.1130116E+00
         25   -1    0    0    0    0  0.00000000000E+00  0.00000000000E+00  0.99999998245E-14  0.12500000000E+03  0.12500000000E+03 0.  0.
        -11    1    3    3    0    0 -0.27972349218E+02  0.27879839656E+02 -0.26974117518E+01  0.39585525264E+02  0.51100000000E-03 0. -1.
         23    2    1    0    0    0 -0.54583126041E+00 -0.11757479751E+02  0.26544503061E+02  0.95963007996E+02  0.91464484906E+02 0.  0.
         11    1    3    3    0    0  0.27426517957E+02 -0.39637319407E+02  0.29241914813E+02  0.56377482732E+02  0.51100000000E-03 0.  1.
         22    1    1    0    0    0  0.54583126041E+00  0.11757479751E+02 -0.26544503061E+02  0.29036992004E+02  0.00000000000E+00 0.  1.
</event>
<event>
 5    1  0.1111613E-009  0.9118800E+02  0.7818608E-02  0.1130116E+00
         25   -1    0    0    0    0  0.00000000000E+00  0.00000000000E+00  0.99999998245E-14  0.12500000000E+03  0.12500000000E+03 0.  0.
        -11    1    3    3    0    0 -0.27417766501E+02  0.43072468473E+02 -0.30558425729E+02  0.59504527925E+02  0.51100000000E-03 0. -1.
         23    2    1    0    0    0 -0.50102150662E+00  0.26091350140E+02 -0.14304235330E+02  0.95240619578E+02  0.90471845867E+02 0.  0.
         11    1    3    3    0    0  0.26916744994E+02 -0.16981118332E+02  0.16254190399E+02  0.35736091654E+02  0.51100000000E-03 0.  1.
         22    1    1    0    0    0  0.50102150662E+00 -0.26091350140E+02  0.14304235330E+02  0.29759380422E+02  0.00000000000E+00 0. -1.
</event>
<event>
 5    1  0.1111613E-009  0.9118800E+02  0.7818608E-02  0.1130116E+00
         25   -1    0    0    0    0  0.00000000000E+00  0.00000000000E+00  0.99999998245E-14  0.12500000000E+03  0.12500000000E+03 0.  0.
        -11    1    3    3    0    0 -0.21146073832E+02 -0.20479281908E+02  0.17374767253E+02  0.34182451102E+02  0.51100000000E-03 0. -1.
         23    2    1    0    0    0  0.22744078040E+02  0.88369491670E+01 -0.15244127316E+02  0.96229039396E+02  0.91827337155E+02 0.  0.
         11    1    3    3    0    0  0.43890151872E+02  0.29316231075E+02 -0.32618894569E+02  0.62046588294E+02  0.51100000000E-03 0.  1.
         22    1    1    0    0    0 -0.22744078040E+02 -0.88369491670E+01  0.15244127316E+02  0.28770960604E+02  0.00000000000E+00 0.  1.
</event>
<event>
 5    1  0.1111613E-009  0.9118800E+02  0.7818608E-02  0.1130116E+00
         25   -1    0    0    0    0  0.00000000000E+00  0.00000000000E+00  0.99999998245E-14  0.12500000000E+03  0.12500000000E+03 0.  0.
        -11    1    3    3    0    0 -0.14765978137E+02 -0.30682601900E+02 -0.46635457161E+02  0.57743588688E+02  0.51100000000E-03 0.  1.
         23    2    1    0    0    0 -0.33447924483E+00 -0.27802566549E+02 -0.13309543259E+02  0.94174060845E+02  0.88986039417E+02 0.  0.
         11    1    3    3    0    0  0.14431498892E+02  0.28800353514E+01  0.33325913902E+02  0.36430472157E+02  0.51100000000E-03 0. -1.
         22    1    1    0    0    0  0.33447924483E+00  0.27802566549E+02  0.13309543259E+02  0.30825939155E+02  0.00000000000E+00 0.  1.
</event>
<event>
 5    1  0.1111613E-009  0.9118800E+02  0.7818608E-02  0.1130116E+00
         25   -1    0    0    0    0  0.00000000000E+00  0.00000000000E+00  0.99999998245E-14  0.12500000000E+03  0.12500000000E+03 0.  0.
        -11    1    3    3    0    0  0.46812335197E+02 -0.31277218986E+02  0.14102601196E+01  0.56317386197E+02  0.51100000000E-03 0. -1.
         23    2    1    0    0    0  0.27027177257E+02 -0.14149110318E+01  0.14302987619E+02  0.94388797173E+02  0.89287173173E+02 0.  0.
         11    1    3    3    0    0 -0.19785157940E+02  0.29862307955E+02  0.12892727499E+02  0.38071410976E+02  0.51100000000E-03 0.  1.
         22    1    1    0    0    0 -0.27027177257E+02  0.14149110318E+01 -0.14302987619E+02  0.30611202827E+02  0.00000000000E+00 0. -1.
</event>
<event>
 5    1  0.1111613E-009  0.9118800E+02  0.7818608E-02  0.1130116E+00
         25   -1    0    0    0    0  0.00000000000E+00  0.00000000000E+00  0.99999998245E-14  0.12500000000E+03  0.12500000000E+03 0.  0.
        -11    1    3    3    0    0 -0.26643089427E+02 -0.39776928366E+02  0.32928761719E+02  0.58106467738E+02  0.51100000000E-03 0.  1.
         23    2    1    0    0    0 -0.15596674037E+02 -0.10928853867E+02  0.30434877141E+02  0.89097662549E+02  0.81543949114E+02 0.  0.
         11    1    3    3    0    0  0.11046415390E+02  0.28848074498E+02 -0.24938845780E+01  0.30991194810E+02  0.51100000000E-03 0. -1.
         22    1    1    0    0    0  0.15596674037E+02  0.10928853867E+02 -0.30434877141E+02  0.35902337451E+02  0.00000000000E+00 0.  1.
</event>
<event>
 5    1  0.1111613E-009  0.9118800E+02  0.7818608E-02  0.1130116E+00
         25   -1    0    0    0    0  0.00000000000E+00  0.00000000000E+00  0.99999998245E-14  0.12500000000E+03  0.12500000000E+03 0.  0.
        -11    1    3    3    0    0 -0.36290253966E+02 -0.21438388588E+02 -0.43939782287E+02  0.60887531612E+02  0.51100000000E-03 0.  1.
         23    2    1    0    0    0 -0.14004793508E+02 -0.78568053447E+01 -0.31158037659E+02  0.89947368969E+02  0.82836237495E+02 0.  0.
         11    1    3    3    0    0  0.22285460458E+02  0.13581583243E+02  0.12781744628E+02  0.29059837357E+02  0.51100000000E-03 0. -1.
         22    1    1    0    0    0  0.14004793508E+02  0.78568053447E+01  0.31158037659E+02  0.35052631031E+02  0.00000000000E+00 0.  1.
</event>
<event>
 5    1  0.1111613E-009  0.9118800E+02  0.7818608E-02  0.1130116E+00
         25   -1    0    0    0    0  0.00000000000E+00  0.00000000000E+00  0.99999998245E-14  0.12500000000E+03  0.12500000000E+03 0.  0.
        -11    1    3    3    0    0  0.13840921190E+02  0.22216156304E+02 -0.26437145222E+02  0.37202840591E+02  0.51100000000E-03 0.  1.
         23    2    1    0    0    0  0.11232653306E+02 -0.21925803879E+02  0.13604782278E+02  0.96857443669E+02  0.92678805113E+02 0.  0.
         11    1    3    3    0    0 -0.26082678838E+01 -0.44141960183E+02  0.40041927499E+02  0.59654603077E+02  0.51100000000E-03 0. -1.
         22    1    1    0    0    0 -0.11232653306E+02  0.21925803879E+02 -0.13604782278E+02  0.28142556331E+02  0.00000000000E+00 0. -1.
</event>
<event>
 5    1  0.1111613E-009  0.9118800E+02  0.7818608E-02  0.1130116E+00
         25   -1    0    0    0    0  0.00000000000E+00  0.00000000000E+00  0.99999998245E-14  0.12500000000E+03  0.12500000000E+03 0.  0.
        -11    1    3    3    0    0  0.48031449416E+02 -0.15760521559E+02  0.30839642041E+02  0.59215687907E+02  0.51100000000E-03 0.  1.
         23    2    1    0    0    0  0.23112252660E+02  0.65230368692E+01  0.17839527319E+02  0.95083867763E+02  0.90255010614E+02 0.  0.
         11    1    3    3    0    0 -0.24919196755E+02  0.22283558429E+02 -0.13000114722E+02  0.35868179857E+02  0.51100000000E-03 0. -1.
         22    1    1    0    0    0 -0.23112252660E+02 -0.65230368692E+01 -0.17839527319E+02  0.29916132237E+02  0.00000000000E+00 0.  1.
</event>
<event>
 5    1  0.1111613E-009  0.9118800E+02  0.7818608E-02  0.1130116E+00
         25   -1    0    0    0    0  0.00000000000E+00  0.00000000000E+00  0.99999998245E-14  0.12500000000E+03  0.12500000000E+03 0.  0.
        -11    1    3    3    0    0 -0.41226277486E+02  0.17625330769E+02  0.20950632647E+02  0.49489263973E+02  0.51100000000E-03 0. -1.
         23    2    1    0    0    0 -0.23435751745E+02 -0.70808617751E+01 -0.14757212218E+02  0.96414192756E+02  0.92079032299E+02 0.  0.
         11    1    3    3    0    0  0.17790525741E+02 -0.24706192544E+02 -0.35707844864E+02  0.46924928783E+02  0.51100000000E-03 0.  1.
         22    1    1    0    0    0  0.23435751745E+02  0.70808617751E+01  0.14757212218E+02  0.28585807244E+02  0.00000000000E+00 0. -1.
</event>
<event>
 5    1  0.1111613E-009  0.9118800E+02  0.7818608E-02  0.1130116E+00
         25   -1    0    0    0    0  0.00000000000E+00  0.00000000000E+00  0.99999998245E-14  0.12500000000E+03  0.12500000000E+03 0.  0.
        -11    1    3    3    0    0  0.15309497816E+02  0.27258889737E+02 -0.41800380157E+02  0.52198654912E+02  0.51100000000E-03 0. -1.
         23    2    1    0    0    0  0.19609433529E+02 -0.99827319426E+01 -0.17632926145E+02  0.96802395407E+02  0.92604529326E+02 0.  0.
         11    1    3    3    0    0  0.42999357124E+01 -0.37241621680E+02  0.24167454012E+02  0.44603740495E+02  0.51100000000E-03 0.  1.
         22    1    1    0    0    0 -0.19609433529E+02  0.99827319426E+01  0.17632926145E+02  0.28197604593E+02  0.00000000000E+00 0. -1.
</event>
<event>
 5    1  0.1111613E-009  0.9118800E+02  0.7818608E-02  0.1130116E+00
         25   -1    0    0    0    0  0.00000000000E+00  0.00000000000E+00  0.99999998245E-14  0.12500000000E+03  0.12500000000E+03 0.  0.
        -11    1    3    3    0    0 -0.36768140741E+02  0.79460231958E+00  0.38030435384E+02  0.52904079069E+02  0.51100000000E-03 0.  1.
         23    2    1    0    0    0 -0.66636431727E+01 -0.21312409265E+02  0.22333575954E+02  0.93418177001E+02  0.87917826693E+02 0.  0.
         11    1    3    3    0    0  0.30104497568E+02 -0.22107011585E+02 -0.15696859430E+02  0.40514097932E+02  0.51100000000E-03 0. -1.
         22    1    1    0    0    0  0.66636431727E+01  0.21312409265E+02 -0.22333575954E+02  0.31581822999E+02  0.00000000000E+00 0.  1.
</event>
<event>
 5    1  0.1111613E-009  0.9118800E+02  0.7818608E-02  0.1130116E+00
         25   -1    0    0    0    0  0.00000000000E+00  0.00000000000E+00  0.99999998245E-14  0.12500000000E+03  0.12500000000E+03 0.  0.
        -11    1    3    3    0    0 -0.98838124583E+01 -0.71162739755E+01  0.43997331462E+02  0.45651903356E+02  0.51100000000E-03 0. -1.
         23    2    1    0    0    0 -0.26257824844E+02  0.16282681948E+02  0.54493719940E+01  0.93626527892E+02  0.88213558895E+02 0.  0.
         11    1    3    3    0    0 -0.16374012386E+02  0.23398955924E+02 -0.38547959468E+02  0.47974624536E+02  0.51100000000E-03 0.  1.
         22    1    1    0    0    0  0.26257824844E+02 -0.16282681948E+02 -0.54493719940E+01  0.31373472108E+02  0.00000000000E+00 0. -1.
</event>
<event>
 5    1  0.1111613E-009  0.9118800E+02  0.7818608E-02  0.1130116E+00
         25   -1    0    0    0    0  0.00000000000E+00  0.00000000000E+00  0.99999998245E-14  0.12500000000E+03  0.12500000000E+03 0.  0.
        -11    1    3    3    0    0 -0.81152889807E+01  0.47509817258E+02  0.32946136877E+02  0.58382262602E+02  0.51100000000E-03 0. -1.
         23    2    1    0    0    0  0.62538363127E+01  0.14420185974E+02  0.25232187148E+02  0.95272647269E+02  0.90516085958E+02 0.  0.
         11    1    3    3    0    0  0.14369125293E+02 -0.33089631284E+02 -0.77139497293E+01  0.36890384667E+02  0.51100000000E-03 0.  1.
         22    1    1    0    0    0 -0.62538363127E+01 -0.14420185974E+02 -0.25232187148E+02  0.29727352731E+02  0.00000000000E+00 0. -1.
</event>
<event>
 5    1  0.1111613E-009  0.9118800E+02  0.7818608E-02  0.1130116E+00
         25   -1    0    0    0    0  0.00000000000E+00  0.00000000000E+00  0.99999998245E-14  0.12500000000E+03  0.12500000000E+03 0.  0.
        -11    1    3    3    0    0  0.72871145626E+01  0.41820929888E+02  0.13427808035E+02  0.44524131033E+02  0.51100000000E-03 0. -1.
         23    2    1    0    0    0 -0.44192033526E+01  0.13196325163E+02 -0.26523917275E+02  0.95046860871E+02  0.90203742814E+02 0.  0.
         11    1    3    3    0    0 -0.11706317915E+02 -0.28624604725E+02 -0.39951725310E+02  0.50522729838E+02  0.51100000000E-03 0.  1.
         22    1    1    0    0    0  0.44192033526E+01 -0.13196325163E+02  0.26523917275E+02  0.29953139129E+02  0.00000000000E+00 0. -1.
</event>
<event>
 4    1  0.1111613E-009  0.9118800E+02  0.7818608E-02  0.1130116E+00
         25   -1    0    0    0    0  0.00000000000E+00  0.00000000000E+00  0.99999998245E-14  0.12500000000E+03  0.12500000000E+03 0.  0.
        -11    1    1    0    0    0  0.70741539953E+01 -0.83830548903E+01  0.25079005873E+02  0.27372902657E+02  0.51100000000E-03 0.  1.
         11    1    1    0    0    0  0.43178149552E+02  0.89408991480E+01 -0.11457479136E+02  0.45558381278E+02  0.51100000000E-03 0. -1.
         22    1    1    0    0    0 -0.50252303547E+02 -0.55784425762E+00 -0.13621526736E+02  0.52068716065E+02  0.00000000000E+00 0. -1.
</event>
<event>
 5    1  0.1111613E-009  0.9118800E+02  0.7818608E-02  0.1130116E+00
         25   -1    0    0    0    0  0.00000000000E+00  0.00000000000E+00  0.99999998245E-14  0.12500000000E+03  0.12500000000E+03 0.  0.
        -11    1    3    3    0    0 -0.28124764518E+02 -0.43357928761E+02 -0.14520163244E+02  0.53681910422E+02  0.51100000000E-03 0. -1.
         23    2    1    0    0    0  0.90090090801E+01 -0.27814790214E+02 -0.26932001359E+01  0.95638833023E+02  0.91020372752E+02 0.  0.
         11    1    3    3    0    0  0.37133773598E+02  0.15543138547E+02  0.11826963108E+02  0.41956922601E+02  0.51100000000E-03 0.  1.
         22    1    1    0    0    0 -0.90090090801E+01  0.27814790214E+02  0.26932001359E+01  0.29361166977E+02  0.00000000000E+00 0. -1.
</event>
<event>
 5    1  0.1111613E-009  0.9118800E+02  0.7818608E-02  0.1130116E+00
         25   -1    0    0    0    0  0.00000000000E+00  0.00000000000E+00  0.99999998245E-14  0.12500000000E+03  0.12500000000E+03 0.  0.
        -11    1    3    3    0    0 -0.15437210769E+02  0.12380848722E+02 -0.51735953606E+02  0.55391351194E+02  0.51100000000E-03 0. -1.
         23    2    1    0    0    0 -0.12679726301E+02 -0.14601771216E+02 -0.19218499552E+02  0.97735776066E+02  0.93855974858E+02 0.  0.
         11    1    3    3    0    0  0.27574844679E+01 -0.26982619937E+02  0.32517454054E+02  0.42344424871E+02  0.51100000000E-03 0.  1.
         22    1    1    0    0    0  0.12679726301E+02  0.14601771216E+02  0.19218499552E+02  0.27264223934E+02  0.00000000000E+00 0. -1.
</event>
<event>
 5    1  0.1111613E-009  0.9118800E+02  0.7818608E-02  0.1130116E+00
         25   -1    0    0    0    0  0.00000000000E+00  0.00000000000E+00  0.99999998245E-14  0.12500000000E+03  0.12500000000E+03 0.  0.
        -11    1    3    3    0    0 -0.33508859597E+02  0.18045149336E+02  0.25351710340E+02  0.45729424920E+02  0.51100000000E-03 0.  1.
         23    2    1    0    0    0 -0.13481913368E+01  0.25235114793E+02 -0.13234715559E+02  0.96473059498E+02  0.92158910988E+02 0.  0.
         11    1    3    3    0    0  0.32160668261E+02  0.71899654568E+01 -0.38586425899E+02  0.50743634578E+02  0.51100000000E-03 0. -1.
         22    1    1    0    0    0  0.13481913368E+01 -0.25235114793E+02  0.13234715559E+02  0.28526940502E+02  0.00000000000E+00 0.  1.
</event>
<event>
 5    1  0.1111613E-009  0.9118800E+02  0.7818608E-02  0.1130116E+00
         25   -1    0    0    0    0  0.00000000000E+00  0.00000000000E+00  0.99999998245E-14  0.12500000000E+03  0.12500000000E+03 0.  0.
        -11    1    3    3    0    0  0.29585902530E+02  0.27693449541E+02  0.44783329870E+01  0.40771414527E+02  0.51100000000E-03 0. -1.
         23    2    1    0    0    0 -0.35843961111E+01 -0.15405163202E+02  0.21995460361E+02  0.97908170508E+02  0.94085294424E+02 0.  0.
         11    1    3    3    0    0 -0.33170298641E+02 -0.43098612743E+02  0.17517127374E+02  0.57136755980E+02  0.51100000000E-03 0.  1.
         22    1    1    0    0    0  0.35843961111E+01  0.15405163202E+02 -0.21995460361E+02  0.27091829492E+02  0.00000000000E+00 0.  1.
</event>
<event>
 5    1  0.1111613E-009  0.9118800E+02  0.7818608E-02  0.1130116E+00
         25   -1    0    0    0    0  0.00000000000E+00  0.00000000000E+00  0.99999998245E-14  0.12500000000E+03  0.12500000000E+03 0.  0.
        -11    1    3    3    0    0  0.33893682068E+02  0.22971246828E+02 -0.23878430026E+02  0.47398726626E+02  0.51100000000E-03 0. -1.
         23    2    1    0    0    0 -0.12738682038E+02  0.72890662116E+01 -0.24314484584E+02  0.96599319253E+02  0.92330004946E+02 0.  0.
         11    1    3    3    0    0 -0.46632364106E+02 -0.15682180617E+02 -0.43605455795E+00  0.49200592627E+02  0.51100000000E-03 0.  1.
         22    1    1    0    0    0  0.12738682038E+02 -0.72890662116E+01  0.24314484584E+02  0.28400680747E+02  0.00000000000E+00 0. -1.
</event>
<event>
 5    1  0.1111613E-009  0.9118800E+02  0.7818608E-02  0.1130116E+00
         25   -1    0    0    0    0  0.00000000000E+00  0.00000000000E+00  0.99999998245E-14  0.12500000000E+03  0.12500000000E+03 0.  0.
        -11    1    3    3    0    0 -0.32125169094E+02  0.35983903487E+02  0.12057169632E+02  0.49721656643E+02  0.51100000000E-03 0.  1.
         23    2    1    0    0    0 -0.69996255523E+01  0.21091638292E+02 -0.21410066547E+02  0.94141566578E+02  0.88940382529E+02 0.  0.
         11    1    3    3    0    0  0.25125543542E+02 -0.14892265195E+02 -0.33467236179E+02  0.44419909935E+02  0.51100000000E-03 0. -1.
         22    1    1    0    0    0  0.69996255523E+01 -0.21091638292E+02  0.21410066547E+02  0.30858433422E+02  0.00000000000E+00 0.  1.
</event>
<event>
 5    1  0.1111613E-009  0.9118800E+02  0.7818608E-02  0.1130116E+00
         25   -1    0    0    0    0  0.00000000000E+00  0.00000000000E+00  0.99999998245E-14  0.12500000000E+03  0.12500000000E+03 0.  0.
        -11    1    3    3    0    0  0.14406298844E+02  0.23004910883E+02 -0.13837285870E+02  0.30466996105E+02  0.51100000000E-03 0.  1.
         23    2    1    0    0    0  0.77828203266E+01 -0.34006156507E+02  0.21555847415E+01  0.90048068463E+02  0.82988054054E+02 0.  0.
         11    1    3    3    0    0 -0.66234785177E+01 -0.57011067390E+02  0.15992870611E+02  0.59581072358E+02  0.51100000000E-03 0. -1.
         22    1    1    0    0    0 -0.77828203266E+01  0.34006156507E+02 -0.21555847415E+01  0.34951931537E+02  0.00000000000E+00 0. -1.
</event>
<event>
 5    1  0.1111613E-009  0.9118800E+02  0.7818608E-02  0.1130116E+00
         25   -1    0    0    0    0  0.00000000000E+00  0.00000000000E+00  0.99999998245E-14  0.12500000000E+03  0.12500000000E+03 0.  0.
        -11    1    3    3    0    0 -0.95787804376E+01  0.24891727438E+02 -0.15267324012E+02  0.30731780167E+02  0.51100000000E-03 0.  1.
         23    2    1    0    0    0  0.18123324954E+02 -0.24942058600E+02  0.92728011254E+01  0.92804564993E+02  0.87041031980E+02 0.  0.
         11    1    3    3    0    0  0.27702105392E+02 -0.49833786038E+02  0.24540125137E+02  0.62072784825E+02  0.51100000000E-03 0. -1.
         22    1    1    0    0    0 -0.18123324954E+02  0.24942058600E+02 -0.92728011254E+01  0.32195435007E+02  0.00000000000E+00 0. -1.
</event>
<event>
 5    1  0.1111613E-009  0.9118800E+02  0.7818608E-02  0.1130116E+00
         25   -1    0    0    0    0  0.00000000000E+00  0.00000000000E+00  0.99999998245E-14  0.12500000000E+03  0.12500000000E+03 0.  0.
        -11    1    3    3    0    0  0.22322901729E+02 -0.22450597903E+02  0.33731954083E+02  0.46262144506E+02  0.51100000000E-03 0. -1.
         23    2    1    0    0    0  0.19795472317E+02 -0.18956169825E+02 -0.14024052188E+02  0.94212484049E+02  0.89039996699E+02 0.  0.
         11    1    3    3    0    0 -0.25274294119E+01  0.34944280781E+01 -0.47756006271E+02  0.47950339542E+02  0.51100000000E-03 0.  1.
         22    1    1    0    0    0 -0.19795472317E+02  0.18956169825E+02  0.14024052188E+02  0.30787515951E+02  0.00000000000E+00 0.  1.
</event>
<event>
 5    1  0.1111613E-009  0.9118800E+02  0.7818608E-02  0.1130116E+00
         25   -1    0    0    0    0  0.00000000000E+00  0.00000000000E+00  0.99999998245E-14  0.12500000000E+03  0.12500000000E+03 0.  0.
        -11    1    3    3    0    0  0.19594888277E+02 -0.38405674435E+02 -0.18019206807E+02  0.46729511977E+02  0.51100000000E-03 0.  1.
         23    2    1    0    0    0 -0.16669653036E+02  0.93846026663E+00 -0.18286681003E+02  0.10023791725E+03  0.97131247868E+02 0.  0.
         11    1    3    3    0    0 -0.36264541313E+02  0.39344134702E+02 -0.26747419544E+00  0.53508405273E+02  0.51100000000E-03 0. -1.
         22    1    1    0    0    0  0.16669653036E+02 -0.93846026663E+00  0.18286681003E+02  0.24762082750E+02  0.00000000000E+00 0. -1.
</event>
<event>
 5    1  0.1111613E-009  0.9118800E+02  0.7818608E-02  0.1130116E+00
         25   -1    0    0    0    0  0.00000000000E+00  0.00000000000E+00  0.99999998245E-14  0.12500000000E+03  0.12500000000E+03 0.  0.
        -11    1    3    3    0    0 -0.47358654091E+02  0.86686344802E+01 -0.21685430127E+02  0.52803837181E+02  0.51100000000E-03 0.  1.
         23    2    1    0    0    0 -0.26570995762E+02  0.24201078065E+02  0.34036968379E+01  0.88898820692E+02  0.81238569491E+02 0.  0.
         11    1    3    3    0    0  0.20787658328E+02  0.15532443584E+02  0.25089126965E+02  0.36094983510E+02  0.51100000000E-03 0. -1.
         22    1    1    0    0    0  0.26570995762E+02 -0.24201078065E+02 -0.34036968379E+01  0.36101179308E+02  0.00000000000E+00 0.  1.
</event>
<event>
 5    1  0.1111613E-009  0.9118800E+02  0.7818608E-02  0.1130116E+00
         25   -1    0    0    0    0  0.00000000000E+00  0.00000000000E+00  0.99999998245E-14  0.12500000000E+03  0.12500000000E+03 0.  0.
        -11    1    3    3    0    0 -0.49945276130E+02  0.20327814967E+02 -0.28171718675E+02  0.60839102578E+02  0.51100000000E-03 0.  1.
         23    2    1    0    0    0 -0.16680657887E+02  0.10299316642E+02 -0.20917681046E+02  0.96331730935E+02  0.91967019816E+02 0.  0.
         11    1    3    3    0    0  0.33264618244E+02 -0.10028498325E+02  0.72540376296E+01  0.35492628358E+02  0.51100000000E-03 0. -1.
         22    1    1    0    0    0  0.16680657887E+02 -0.10299316642E+02  0.20917681046E+02  0.28668269065E+02  0.00000000000E+00 0.  1.
</event>
<event>
 5    1  0.1111613E-009  0.9118800E+02  0.7818608E-02  0.1130116E+00
         25   -1    0    0    0    0  0.00000000000E+00  0.00000000000E+00  0.99999998245E-14  0.12500000000E+03  0.12500000000E+03 0.  0.
        -11    1    3    3    0    0  0.42197060363E+02  0.98949877817E+01  0.86350350652E+01  0.44193512163E+02  0.51100000000E-03 0. -1.
         23    2    1    0    0    0  0.15132771595E+01  0.25840341131E+02 -0.16208820031E+02  0.94459222597E+02  0.89385712781E+02 0.  0.
         11    1    3    3    0    0 -0.40683783203E+02  0.15945353350E+02 -0.24843855096E+02  0.50265710435E+02  0.51100000000E-03 0.  1.
         22    1    1    0    0    0 -0.15132771595E+01 -0.25840341131E+02  0.16208820031E+02  0.30540777403E+02  0.00000000000E+00 0.  1.
</event>
<event>
 5    1  0.1111613E-009  0.9118800E+02  0.7818608E-02  0.1130116E+00
         25   -1    0    0    0    0  0.00000000000E+00  0.00000000000E+00  0.99999998245E-14  0.12500000000E+03  0.12500000000E+03 0.  0.
        -11    1    3    3    0    0  0.30411603979E+02 -0.15615462943E+02 -0.35300899745E+01  0.34368152045E+02  0.51100000000E-03 0. -1.
         23    2    1    0    0    0 -0.29287999981E+02 -0.21711589891E+01 -0.11343440669E+01  0.95609736124E+02  0.90980404654E+02 0.  0.
         11    1    3    3    0    0 -0.59699603960E+02  0.13444303954E+02  0.23957459075E+01  0.61241584079E+02  0.51100000000E-03 0.  1.
         22    1    1    0    0    0  0.29287999981E+02  0.21711589891E+01  0.11343440669E+01  0.29390263876E+02  0.00000000000E+00 0.  1.
</event>
<event>
 5    1  0.1111613E-009  0.9118800E+02  0.7818608E-02  0.1130116E+00
         25   -1    0    0    0    0  0.00000000000E+00  0.00000000000E+00  0.99999998245E-14  0.12500000000E+03  0.12500000000E+03 0.  0.
        -11    1    3    3    0    0  0.80819446250E+01  0.19827597991E+02 -0.28343331596E+02  0.35521766809E+02  0.51100000000E-03 0. -1.
         23    2    1    0    0    0 -0.10702579578E+02 -0.22213321106E+01  0.25829810120E+02  0.96952564881E+02  0.92807010620E+02 0.  0.
         11    1    3    3    0    0 -0.18784524203E+02 -0.22048930102E+02  0.54173141715E+02  0.61430798072E+02  0.51100000000E-03 0.  1.
         22    1    1    0    0    0  0.10702579578E+02  0.22213321106E+01 -0.25829810120E+02  0.28047435119E+02  0.00000000000E+00 0.  1.
</event>
<event>
 5    1  0.1111613E-009  0.9118800E+02  0.7818608E-02  0.1130116E+00
         25   -1    0    0    0    0  0.00000000000E+00  0.00000000000E+00  0.99999998245E-14  0.12500000000E+03  0.12500000000E+03 0.  0.
        -11    1    3    3    0    0 -0.27568608774E+02  0.14732540203E+02  0.44737238270E+02  0.54575602781E+02  0.51100000000E-03 0. -1.
         23    2    1    0    0    0 -0.23704554446E+02 -0.11009124900E+02  0.12447025563E+02  0.96051162753E+02  0.91584882423E+02 0.  0.
         11    1    3    3    0    0  0.38640543280E+01 -0.25741665103E+02 -0.32290212707E+02  0.41475559973E+02  0.51100000000E-03 0.  1.
         22    1    1    0    0    0  0.23704554446E+02  0.11009124900E+02 -0.12447025563E+02  0.28948837247E+02  0.00000000000E+00 0.  1.
</event>
<event>
 5    1  0.1111613E-009  0.9118800E+02  0.7818608E-02  0.1130116E+00
         25   -1    0    0    0    0  0.00000000000E+00  0.00000000000E+00  0.99999998245E-14  0.12500000000E+03  0.12500000000E+03 0.  0.
        -11    1    3    3    0    0  0.97302383358E+01  0.34088826893E+02  0.20813641477E+02  0.41108798679E+02  0.51100000000E-03 0. -1.
         23    2    1    0    0    0  0.26579221923E+02 -0.13654224078E+02  0.22485604488E+01  0.95034204544E+02  0.90186202582E+02 0.  0.
         11    1    3    3    0    0  0.16848983587E+02 -0.47743050971E+02 -0.18565081028E+02  0.53925405866E+02  0.51100000000E-03 0.  1.
         22    1    1    0    0    0 -0.26579221923E+02  0.13654224078E+02 -0.22485604488E+01  0.29965795456E+02  0.00000000000E+00 0.  1.
</event>
<event>
 5    1  0.1111613E-009  0.9118800E+02  0.7818608E-02  0.1130116E+00
         25   -1    0    0    0    0  0.00000000000E+00  0.00000000000E+00  0.99999998245E-14  0.12500000000E+03  0.12500000000E+03 0.  0.
        -11    1    3    3    0    0 -0.34792024799E+02  0.88430599919E+01 -0.67001313925E+01  0.36518166172E+02  0.51100000000E-03 0. -1.
         23    2    1    0    0    0  0.24748558005E+02  0.34727644223E+01 -0.13345839795E+02  0.96668698302E+02  0.92423885308E+02 0.  0.
         11    1    3    3    0    0  0.59540582804E+02 -0.53702955696E+01 -0.66457084024E+01  0.60150532130E+02  0.51100000000E-03 0.  1.
         22    1    1    0    0    0 -0.24748558005E+02 -0.34727644223E+01  0.13345839795E+02  0.28331301698E+02  0.00000000000E+00 0.  1.
</event>
<event>
 5    1  0.1111613E-009  0.9118800E+02  0.7818608E-02  0.1130116E+00
         25   -1    0    0    0    0  0.00000000000E+00  0.00000000000E+00  0.99999998245E-14  0.12500000000E+03  0.12500000000E+03 0.  0.
        -11    1    3    3    0    0 -0.21037906414E+02  0.37623295535E+01 -0.37535340256E+02  0.43193175368E+02  0.51100000000E-03 0.  1.
         23    2    1    0    0    0 -0.65858735499E+01 -0.26512686747E+02  0.48563667247E+01  0.97253277910E+02  0.93211155328E+02 0.  0.
         11    1    3    3    0    0  0.14452032864E+02 -0.30275016300E+02  0.42391706981E+02  0.54060102543E+02  0.51100000000E-03 0. -1.
         22    1    1    0    0    0  0.65858735499E+01  0.26512686747E+02 -0.48563667247E+01  0.27746722090E+02  0.00000000000E+00 0. -1.
</event>
<event>
 5    1  0.1111613E-009  0.9118800E+02  0.7818608E-02  0.1130116E+00
         25   -1    0    0    0    0  0.00000000000E+00  0.00000000000E+00  0.99999998245E-14  0.12500000000E+03  0.12500000000E+03 0.  0.
        -11    1    3    3    0    0  0.24083023861E+02 -0.24413464776E+02 -0.32133855351E+02  0.46995680234E+02  0.51100000000E-03 0. -1.
         23    2    1    0    0    0  0.26240576825E+02 -0.41398151506E+01  0.12180765202E+02  0.95775404494E+02  0.91207736095E+02 0.  0.
         11    1    3    3    0    0  0.21575529632E+01  0.20273649626E+02  0.44314620553E+02  0.48779724260E+02  0.51100000000E-03 0.  1.
         22    1    1    0    0    0 -0.26240576825E+02  0.41398151506E+01 -0.12180765202E+02  0.29224595506E+02  0.00000000000E+00 0. -1.
</event>
<event>
 5    1  0.1111613E-009  0.9118800E+02  0.7818608E-02  0.1130116E+00
         25   -1    0    0    0    0  0.00000000000E+00  0.00000000000E+00  0.99999998245E-14  0.12500000000E+03  0.12500000000E+03 0.  0.
        -11    1    3    3    0    0  0.50975147465E+01 -0.13863502143E+02 -0.19048678130E+02  0.24104636214E+02  0.51100000000E-03 0.  1.
         23    2    1    0    0    0 -0.41521527369E+02 -0.30554524865E+01  0.12626854211E+02  0.81493558268E+02  0.68908559461E+02 0.  0.
         11    1    3    3    0    0 -0.46619042115E+02  0.10808049657E+02  0.31675532341E+02  0.57388922054E+02  0.51100000000E-03 0. -1.
         22    1    1    0    0    0  0.41521527369E+02  0.30554524865E+01 -0.12626854211E+02  0.43506441732E+02  0.00000000000E+00 0. -1.
</event>
<event>
 5    1  0.1111613E-009  0.9118800E+02  0.7818608E-02  0.1130116E+00
         25   -1    0    0    0    0  0.00000000000E+00  0.00000000000E+00  0.99999998245E-14  0.12500000000E+03  0.12500000000E+03 0.  0.
        -11    1    3    3    0    0 -0.15561198118E+02  0.20919959739E+02 -0.27187711881E+02  0.37669182098E+02  0.51100000000E-03 0. -1.
         23    2    1    0    0    0  0.27226055318E+02  0.14428996106E+02  0.76793152828E+01  0.93244277681E+02  0.87670231094E+02 0.  0.
         11    1    3    3    0    0  0.42787253436E+02 -0.64909636331E+01  0.34867027164E+02  0.55575095582E+02  0.51100000000E-03 0.  1.
         22    1    1    0    0    0 -0.27226055318E+02 -0.14428996106E+02 -0.76793152828E+01  0.31755722319E+02  0.00000000000E+00 0.  1.
</event>
<event>
 5    1  0.1111613E-009  0.9118800E+02  0.7818608E-02  0.1130116E+00
         25   -1    0    0    0    0  0.00000000000E+00  0.00000000000E+00  0.99999998245E-14  0.12500000000E+03  0.12500000000E+03 0.  0.
        -11    1    3    3    0    0  0.22247606020E+02 -0.45008794271E+01 -0.55310956354E+02  0.59787254346E+02  0.51100000000E-03 0. -1.
         23    2    1    0    0    0  0.16816830344E+02 -0.12427828678E+02 -0.21212800229E+02  0.95213432523E+02  0.90434275199E+02 0.  0.
         11    1    3    3    0    0 -0.54307756764E+01 -0.79269492513E+01  0.34098156125E+02  0.35426178177E+02  0.51100000000E-03 0.  1.
         22    1    1    0    0    0 -0.16816830344E+02  0.12427828678E+02  0.21212800229E+02  0.29786567477E+02  0.00000000000E+00 0. -1.
</event>
<event>
 5    1  0.1111613E-009  0.9118800E+02  0.7818608E-02  0.1130116E+00
         25   -1    0    0    0    0  0.00000000000E+00  0.00000000000E+00  0.99999998245E-14  0.12500000000E+03  0.12500000000E+03 0.  0.
        -11    1    3    3    0    0 -0.38160601337E+01  0.51682456600E+02  0.16407529859E+00  0.51823407415E+02  0.51100000000E-03 0.  1.
         23    2    1    0    0    0 -0.46298992640E+01  0.14707890893E+02  0.24468568149E+02  0.96078228806E+02  0.91621816187E+02 0.  0.
         11    1    3    3    0    0 -0.81383913036E+00 -0.36974565707E+02  0.24304492851E+02  0.44254821391E+02  0.51100000000E-03 0. -1.
         22    1    1    0    0    0  0.46298992640E+01 -0.14707890893E+02 -0.24468568149E+02  0.28921771194E+02  0.00000000000E+00 0.  1.
</event>
<event>
 5    1  0.1111613E-009  0.9118800E+02  0.7818608E-02  0.1130116E+00
         25   -1    0    0    0    0  0.00000000000E+00  0.00000000000E+00  0.99999998245E-14  0.12500000000E+03  0.12500000000E+03 0.  0.
        -11    1    3    3    0    0 -0.17878221392E+02  0.21420825252E+02  0.49585841338E+02  0.56896732912E+02  0.51100000000E-03 0. -1.
         23    2    1    0    0    0  0.37849044015E+01  0.23330732036E+02  0.17794385261E+02  0.95414721474E+02  0.90712073995E+02 0.  0.
         11    1    3    3    0    0  0.21663125794E+02  0.19099067839E+01 -0.31791456077E+02  0.38517988561E+02  0.51100000000E-03 0.  1.
         22    1    1    0    0    0 -0.37849044015E+01 -0.23330732036E+02 -0.17794385261E+02  0.29585278526E+02  0.00000000000E+00 0.  1.
</event>
<event>
 5    1  0.1111613E-009  0.9118800E+02  0.7818608E-02  0.1130116E+00
         25   -1    0    0    0    0  0.00000000000E+00  0.00000000000E+00  0.99999998245E-14  0.12500000000E+03  0.12500000000E+03 0.  0.
        -11    1    3    3    0    0  0.13340839221E+02  0.11798263762E+02 -0.28944805421E+02  0.33984978741E+02  0.51100000000E-03 0. -1.
         23    2    1    0    0    0 -0.17098276579E+02 -0.12800058093E+02  0.19373127821E+02  0.96164073957E+02  0.91738860301E+02 0.  0.
         11    1    3    3    0    0 -0.30439115800E+02 -0.24598321855E+02  0.48317933243E+02  0.62179095216E+02  0.51100000000E-03 0.  1.
         22    1    1    0    0    0  0.17098276579E+02  0.12800058093E+02 -0.19373127821E+02  0.28835926043E+02  0.00000000000E+00 0.  1.
</event>
<event>
 5    1  0.1111613E-009  0.9118800E+02  0.7818608E-02  0.1130116E+00
         25   -1    0    0    0    0  0.00000000000E+00  0.00000000000E+00  0.99999998245E-14  0.12500000000E+03  0.12500000000E+03 0.  0.
        -11    1    3    3    0    0  0.15391833918E+02 -0.21799753038E+01  0.29048228067E+02  0.32946326014E+02  0.51100000000E-03 0.  1.
         23    2    1    0    0    0 -0.97871630157E+00 -0.34614716289E+01 -0.30281041172E+02  0.94506047716E+02  0.89451170641E+02 0.  0.
         11    1    3    3    0    0 -0.16370550220E+02 -0.12814963251E+01 -0.59329269239E+02  0.61559721702E+02  0.51100000000E-03 0. -1.
         22    1    1    0    0    0  0.97871630157E+00  0.34614716289E+01  0.30281041172E+02  0.30493952284E+02  0.00000000000E+00 0. -1.
</event>
<event>
 5    1  0.1111613E-009  0.9118800E+02  0.7818608E-02  0.1130116E+00
         25   -1    0    0    0    0  0.00000000000E+00  0.00000000000E+00  0.99999998245E-14  0.12500000000E+03  0.12500000000E+03 0.  0.
        -11    1    3    3    0    0 -0.81855875955E+01  0.29174612966E+02 -0.29564589292E+02  0.42334700026E+02  0.51100000000E-03 0.  1.
         23    2    1    0    0    0  0.12619212034E+02  0.17580670617E+02  0.18856574987E+02  0.96296430328E+02  0.91919027312E+02 0.  0.
         11    1    3    3    0    0  0.20804799629E+02 -0.11593942350E+02  0.48421164279E+02  0.53961730302E+02  0.51100000000E-03 0. -1.
         22    1    1    0    0    0 -0.12619212034E+02 -0.17580670617E+02 -0.18856574987E+02  0.28703569672E+02  0.00000000000E+00 0.  1.
</event>
<event>
 5    1  0.1111613E-009  0.9118800E+02  0.7818608E-02  0.1130116E+00
         25   -1    0    0    0    0  0.00000000000E+00  0.00000000000E+00  0.99999998245E-14  0.12500000000E+03  0.12500000000E+03 0.  0.
        -11    1    3    3    0    0 -0.42522106940E+02 -0.13838829650E+02 -0.39976785443E+02  0.59981548490E+02  0.51100000000E-03 0.  1.
         23    2    1    0    0    0 -0.27590549172E+02 -0.13942501494E+02 -0.11722692210E+02  0.91938643946E+02  0.85788466511E+02 0.  0.
         11    1    3    3    0    0  0.14931557768E+02 -0.10367184380E+00  0.28254093233E+02  0.31957095455E+02  0.51100000000E-03 0. -1.
         22    1    1    0    0    0  0.27590549172E+02  0.13942501494E+02  0.11722692210E+02  0.33061356054E+02  0.00000000000E+00 0.  1.
</event>
<event>
 5    1  0.1111613E-009  0.9118800E+02  0.7818608E-02  0.1130116E+00
         25   -1    0    0    0    0  0.00000000000E+00  0.00000000000E+00  0.99999998245E-14  0.12500000000E+03  0.12500000000E+03 0.  0.
        -11    1    3    3    0    0 -0.36681530181E+02  0.43882708777E+02 -0.24254260225E+02  0.62124841451E+02  0.51100000000E-03 0.  1.
         23    2    1    0    0    0 -0.12926703842E+02  0.19201603779E+02 -0.14276584798E+02  0.97804005196E+02  0.93946800366E+02 0.  0.
         11    1    3    3    0    0  0.23754826339E+02 -0.24681104998E+02  0.99776754270E+01  0.35679163744E+02  0.51100000000E-03 0. -1.
         22    1    1    0    0    0  0.12926703842E+02 -0.19201603779E+02  0.14276584798E+02  0.27195994804E+02  0.00000000000E+00 0.  1.
</event>
<event>
 5    1  0.1111613E-009  0.9118800E+02  0.7818608E-02  0.1130116E+00
         25   -1    0    0    0    0  0.00000000000E+00  0.00000000000E+00  0.99999998245E-14  0.12500000000E+03  0.12500000000E+03 0.  0.
        -11    1    3    3    0    0 -0.32236709593E+00  0.42658984374E+02  0.56842709705E+01  0.43037237424E+02  0.51100000000E-03 0.  1.
         23    2    1    0    0    0 -0.17560610720E+02 -0.47488234237E+01  0.22367394729E+02  0.96168997248E+02  0.91745568350E+02 0.  0.
         11    1    3    3    0    0 -0.17238243624E+02 -0.47407807797E+02  0.16683123758E+02  0.53131759824E+02  0.51100000000E-03 0. -1.
         22    1    1    0    0    0  0.17560610720E+02  0.47488234237E+01 -0.22367394729E+02  0.28831002752E+02  0.00000000000E+00 0. -1.
</event>
<event>
 5    1  0.1111613E-009  0.9118800E+02  0.7818608E-02  0.1130116E+00
         25   -1    0    0    0    0  0.00000000000E+00  0.00000000000E+00  0.99999998245E-14  0.12500000000E+03  0.12500000000E+03 0.  0.
        -11    1    3    3    0    0 -0.21462695003E+02  0.86596327280E+01 -0.35002064895E+02  0.41961661823E+02  0.51100000000E-03 0.  1.
         23    2    1    0    0    0 -0.24957474791E+02 -0.10282890526E+02  0.13984803619E+02  0.94599537540E+02  0.89581719034E+02 0.  0.
         11    1    3    3    0    0 -0.34947797885E+01 -0.18942523254E+02  0.48986868514E+02  0.52637875717E+02  0.51100000000E-03 0. -1.
         22    1    1    0    0    0  0.24957474791E+02  0.10282890526E+02 -0.13984803619E+02  0.30400462460E+02  0.00000000000E+00 0.  1.
</event>
<event>
 5    1  0.1111613E-009  0.9118800E+02  0.7818608E-02  0.1130116E+00
         25   -1    0    0    0    0  0.00000000000E+00  0.00000000000E+00  0.99999998245E-14  0.12500000000E+03  0.12500000000E+03 0.  0.
        -11    1    3    3    0    0 -0.48909281783E+00  0.12998656815E+02  0.54029636782E+02  0.55573428380E+02  0.51100000000E-03 0.  1.
         23    2    1    0    0    0  0.10460760138E+02  0.22059199472E+02  0.16962490023E+02  0.95271867670E+02  0.90515009349E+02 0.  0.
         11    1    3    3    0    0  0.10949852956E+02  0.90605426571E+01 -0.37067146759E+02  0.39698439290E+02  0.51100000000E-03 0. -1.
         22    1    1    0    0    0 -0.10460760138E+02 -0.22059199472E+02 -0.16962490023E+02  0.29728132330E+02  0.00000000000E+00 0.  1.
</event>
<event>
 5    1  0.1111613E-009  0.9118800E+02  0.7818608E-02  0.1130116E+00
         25   -1    0    0    0    0  0.00000000000E+00  0.00000000000E+00  0.99999998245E-14  0.12500000000E+03  0.12500000000E+03 0.  0.
        -11    1    3    3    0    0  0.11317574431E+02  0.33277324080E+02 -0.85298813869E+01  0.36169416164E+02  0.51100000000E-03 0.  1.
         23    2    1    0    0    0  0.87935408311E+01 -0.26464630038E+02 -0.80776449803E+01  0.95966375496E+02  0.91469086986E+02 0.  0.
         11    1    3    3    0    0 -0.25240336001E+01 -0.59741954117E+02  0.45223640664E+00  0.59796959332E+02  0.51100000000E-03 0. -1.
         22    1    1    0    0    0 -0.87935408311E+01  0.26464630038E+02  0.80776449803E+01  0.29033624504E+02  0.00000000000E+00 0. -1.
</event>
<event>
 5    1  0.1111613E-009  0.9118800E+02  0.7818608E-02  0.1130116E+00
         25   -1    0    0    0    0  0.00000000000E+00  0.00000000000E+00  0.99999998245E-14  0.12500000000E+03  0.12500000000E+03 0.  0.
        -11    1    3    3    0    0 -0.11430212869E+02 -0.13177781487E+02 -0.32439852039E+02  0.36832698675E+02  0.51100000000E-03 0.  1.
         23    2    1    0    0    0 -0.11985324731E+02  0.11393655832E+02  0.22533249801E+02  0.97049852438E+02  0.92937953009E+02 0.  0.
         11    1    3    3    0    0 -0.55511186245E+00  0.24571437319E+02  0.54973101840E+02  0.60217153763E+02  0.51100000000E-03 0. -1.
         22    1    1    0    0    0  0.11985324731E+02 -0.11393655832E+02 -0.22533249801E+02  0.27950147562E+02  0.00000000000E+00 0. -1.
</event>
<event>
 5    1  0.1111613E-009  0.9118800E+02  0.7818608E-02  0.1130116E+00
         25   -1    0    0    0    0  0.00000000000E+00  0.00000000000E+00  0.99999998245E-14  0.12500000000E+03  0.12500000000E+03 0.  0.
        -11    1    3    3    0    0 -0.55471008809E+01 -0.28303498012E+02  0.46371039137E+02  0.54608896700E+02  0.51100000000E-03 0. -1.
         23    2    1    0    0    0 -0.10965814869E+02  0.73169074299E+01  0.25619499606E+02  0.96187763187E+02  0.91771132699E+02 0.  0.
         11    1    3    3    0    0 -0.54187139884E+01  0.35620405442E+02 -0.20751539531E+02  0.41578866487E+02  0.51100000000E-03 0.  1.
         22    1    1    0    0    0  0.10965814869E+02 -0.73169074299E+01 -0.25619499606E+02  0.28812236813E+02  0.00000000000E+00 0. -1.
</event>
<event>
 5    1  0.1111613E-009  0.9118800E+02  0.7818608E-02  0.1130116E+00
         25   -1    0    0    0    0  0.00000000000E+00  0.00000000000E+00  0.99999998245E-14  0.12500000000E+03  0.12500000000E+03 0.  0.
        -11    1    3    3    0    0  0.10201490113E+02  0.31986727403E+02 -0.31782005109E+02  0.46231125657E+02  0.51100000000E-03 0. -1.
         23    2    1    0    0    0 -0.37907694357E+01  0.30463965947E+02  0.11862403127E+02  0.92088911259E+02  0.86007138162E+02 0.  0.
         11    1    3    3    0    0 -0.13992259549E+02 -0.15227614560E+01  0.43644408237E+02  0.45857785602E+02  0.51100000000E-03 0.  1.
         22    1    1    0    0    0  0.37907694357E+01 -0.30463965947E+02 -0.11862403127E+02  0.32911088741E+02  0.00000000000E+00 0.  1.
</event>
<event>
 5    1  0.1111613E-009  0.9118800E+02  0.7818608E-02  0.1130116E+00
         25   -1    0    0    0    0  0.00000000000E+00  0.00000000000E+00  0.99999998245E-14  0.12500000000E+03  0.12500000000E+03 0.  0.
        -11    1    3    3    0    0  0.17274788751E+02  0.21458342481E+01 -0.32180997975E+02  0.36587423548E+02  0.51100000000E-03 0.  1.
         23    2    1    0    0    0 -0.11637426856E+02  0.23505720349E+02  0.14126082865E+02  0.95209148887E+02  0.90428354080E+02 0.  0.
         11    1    3    3    0    0 -0.28912215607E+02  0.21359886101E+02  0.46307080839E+02  0.58621725338E+02  0.51100000000E-03 0. -1.
         22    1    1    0    0    0  0.11637426856E+02 -0.23505720349E+02 -0.14126082865E+02  0.29790851113E+02  0.00000000000E+00 0. -1.
</event>
<event>
 5    1  0.1111613E-009  0.9118800E+02  0.7818608E-02  0.1130116E+00
         25   -1    0    0    0    0  0.00000000000E+00  0.00000000000E+00  0.99999998245E-14  0.12500000000E+03  0.12500000000E+03 0.  0.
        -11    1    3    3    0    0 -0.14797419526E+02 -0.62418744906E+01  0.57154619818E+02  0.59368132770E+02  0.51100000000E-03 0. -1.
         23    2    1    0    0    0  0.39887202393E+01  0.50940452350E+01  0.30153922492E+02  0.94159795272E+02  0.88965998101E+02 0.  0.
         11    1    3    3    0    0  0.18786139765E+02  0.11335919726E+02 -0.27000697327E+02  0.34791662502E+02  0.51100000000E-03 0.  1.
         22    1    1    0    0    0 -0.39887202393E+01 -0.50940452350E+01 -0.30153922492E+02  0.30840204728E+02  0.00000000000E+00 0. -1.
</event>
<event>
 5    1  0.1111613E-009  0.9118800E+02  0.7818608E-02  0.1130116E+00
         25   -1    0    0    0    0  0.00000000000E+00  0.00000000000E+00  0.99999998245E-14  0.12500000000E+03  0.12500000000E+03 0.  0.
        -11    1    3    3    0    0  0.58565860245E+02 -0.14860146521E+02  0.29104781037E+01  0.60491774845E+02  0.51100000000E-03 0. -1.
         23    2    1    0    0    0  0.28806791954E+02  0.37994493180E+01 -0.15684349904E+01  0.95901425015E+02  0.91380283726E+02 0.  0.
         11    1    3    3    0    0 -0.29759068291E+02  0.18659595839E+02 -0.44789130941E+01  0.35409650170E+02  0.51100000000E-03 0.  1.
         22    1    1    0    0    0 -0.28806791954E+02 -0.37994493180E+01  0.15684349904E+01  0.29098574985E+02  0.00000000000E+00 0. -1.
</event>
<event>
 5    1  0.1111613E-009  0.9118800E+02  0.7818608E-02  0.1130116E+00
         25   -1    0    0    0    0  0.00000000000E+00  0.00000000000E+00  0.99999998245E-14  0.12500000000E+03  0.12500000000E+03 0.  0.
        -11    1    3    3    0    0  0.10050024500E+01 -0.50285099565E+02  0.17691228262E+02  0.53315859046E+02  0.51100000000E-03 0. -1.
         23    2    1    0    0    0 -0.20133221583E+02 -0.13408188353E+02  0.16275200132E+02  0.95845098774E+02  0.91303201989E+02 0.  0.
         11    1    3    3    0    0 -0.21138224033E+02  0.36876911212E+02 -0.14160281303E+01  0.42529239727E+02  0.51100000000E-03 0.  1.
         22    1    1    0    0    0  0.20133221583E+02  0.13408188353E+02 -0.16275200132E+02  0.29154901226E+02  0.00000000000E+00 0.  1.
</event>
<event>
 5    1  0.1111613E-009  0.9118800E+02  0.7818608E-02  0.1130116E+00
         25   -1    0    0    0    0  0.00000000000E+00  0.00000000000E+00  0.99999998245E-14  0.12500000000E+03  0.12500000000E+03 0.  0.
        -11    1    3    3    0    0 -0.14643502352E+02 -0.23755486515E+02  0.30823077136E+02  0.41579049834E+02  0.51100000000E-03 0.  1.
         23    2    1    0    0    0 -0.21361238665E+02 -0.40788193529E+01 -0.19350573666E+02  0.95890139372E+02  0.91364844678E+02 0.  0.
         11    1    3    3    0    0 -0.67177363130E+01  0.19676667162E+02 -0.50173650802E+02  0.54311089538E+02  0.51100000000E-03 0. -1.
         22    1    1    0    0    0  0.21361238665E+02  0.40788193529E+01  0.19350573666E+02  0.29109860628E+02  0.00000000000E+00 0.  1.
</event>
<event>
 5    1  0.1111613E-009  0.9118800E+02  0.7818608E-02  0.1130116E+00
         25   -1    0    0    0    0  0.00000000000E+00  0.00000000000E+00  0.99999998245E-14  0.12500000000E+03  0.12500000000E+03 0.  0.
        -11    1    3    3    0    0 -0.29171033866E+02  0.33529363558E+02 -0.21021076830E+02  0.49163534340E+02  0.51100000000E-03 0.  1.
         23    2    1    0    0    0  0.15467704143E+02  0.21707078460E+02 -0.87929795632E+01  0.96932873030E+02  0.92780484250E+02 0.  0.
         11    1    3    3    0    0  0.44638738008E+02 -0.11822285098E+02  0.12228097267E+02  0.47769338691E+02  0.51100000000E-03 0. -1.
         22    1    1    0    0    0 -0.15467704143E+02 -0.21707078460E+02  0.87929795632E+01  0.28067126970E+02  0.00000000000E+00 0. -1.
</event>
<event>
 5    1  0.1111613E-009  0.9118800E+02  0.7818608E-02  0.1130116E+00
         25   -1    0    0    0    0  0.00000000000E+00  0.00000000000E+00  0.99999998245E-14  0.12500000000E+03  0.12500000000E+03 0.  0.
        -11    1    3    3    0    0  0.57661105746E+02 -0.36884185532E+01  0.90502917581E+01  0.58483462008E+02  0.51100000000E-03 0.  1.
         23    2    1    0    0    0  0.23756062585E+02 -0.14470750126E+02 -0.50041173029E+01  0.96737050601E+02  0.92516283163E+02 0.  0.
         11    1    3    3    0    0 -0.33905043161E+02 -0.10782331572E+02 -0.14054409061E+02  0.38253588593E+02  0.51100000000E-03 0. -1.
         22    1    1    0    0    0 -0.23756062585E+02  0.14470750126E+02  0.50041173029E+01  0.28262949399E+02  0.00000000000E+00 0.  1.
</event>
<event>
 5    1  0.1111613E-009  0.9118800E+02  0.7818608E-02  0.1130116E+00
         25   -1    0    0    0    0  0.00000000000E+00  0.00000000000E+00  0.99999998245E-14  0.12500000000E+03  0.12500000000E+03 0.  0.
        -11    1    3    3    0    0  0.33427060263E+02 -0.31287244934E+02  0.43055188308E+01  0.45986927991E+02  0.51100000000E-03 0.  1.
         23    2    1    0    0    0  0.19633051880E+02  0.15847063244E+02  0.14145901582E+02  0.96074359624E+02  0.91616537296E+02 0.  0.
         11    1    3    3    0    0 -0.13794008383E+02  0.47134308178E+02  0.98403827512E+01  0.50087431634E+02  0.51100000000E-03 0. -1.
         22    1    1    0    0    0 -0.19633051880E+02 -0.15847063244E+02 -0.14145901582E+02  0.28925640376E+02  0.00000000000E+00 0. -1.
</event>
<event>
 5    1  0.1111613E-009  0.9118800E+02  0.7818608E-02  0.1130116E+00
         25   -1    0    0    0    0  0.00000000000E+00  0.00000000000E+00  0.99999998245E-14  0.12500000000E+03  0.12500000000E+03 0.  0.
        -11    1    3    3    0    0  0.25930117758E+02 -0.54169390692E+01 -0.22621885742E+02  0.34834809467E+02  0.51100000000E-03 0.  1.
         23    2    1    0    0    0 -0.19579631823E+01  0.16243653754E+02  0.25609050621E+02  0.94610637045E+02  0.89597205656E+02 0.  0.
         11    1    3    3    0    0 -0.27888080941E+02  0.21660592823E+02  0.48230936363E+02  0.59775827578E+02  0.51100000000E-03 0. -1.
         22    1    1    0    0    0  0.19579631823E+01 -0.16243653754E+02 -0.25609050621E+02  0.30389362955E+02  0.00000000000E+00 0. -1.
</event>
<event>
 5    1  0.1111613E-009  0.9118800E+02  0.7818608E-02  0.1130116E+00
         25   -1    0    0    0    0  0.00000000000E+00  0.00000000000E+00  0.99999998245E-14  0.12500000000E+03  0.12500000000E+03 0.  0.
        -11    1    3    3    0    0  0.85362415660E+01 -0.48003944042E+02  0.36239641490E+02  0.60749960323E+02  0.51100000000E-03 0. -1.
         23    2    1    0    0    0  0.13981930265E+02 -0.19442813875E+02  0.17451839360E+02  0.95367516432E+02  0.90647002753E+02 0.  0.
         11    1    3    3    0    0  0.54456886995E+01  0.28561130167E+02 -0.18787802130E+02  0.34617556109E+02  0.51100000000E-03 0.  1.
         22    1    1    0    0    0 -0.13981930265E+02  0.19442813875E+02 -0.17451839360E+02  0.29632483568E+02  0.00000000000E+00 0. -1.
</event>
<event>
 5    1  0.1111613E-009  0.9118800E+02  0.7818608E-02  0.1130116E+00
         25   -1    0    0    0    0  0.00000000000E+00  0.00000000000E+00  0.99999998245E-14  0.12500000000E+03  0.12500000000E+03 0.  0.
        -11    1    3    3    0    0 -0.58225431787E+01  0.61879078476E+02  0.26154279540E+01  0.62207417771E+02  0.51100000000E-03 0.  1.
         23    2    1    0    0    0  0.15622092146E+01  0.28249129969E+02  0.50596755002E+00  0.96703183134E+02  0.92470513048E+02 0.  0.
         11    1    3    3    0    0  0.73847523933E+01 -0.33629948507E+02 -0.21094604040E+01  0.34495765363E+02  0.51100000000E-03 0. -1.
         22    1    1    0    0    0 -0.15622092146E+01 -0.28249129969E+02 -0.50596755002E+00  0.28296816866E+02  0.00000000000E+00 0.  1.
</event>
<event>
 5    1  0.1111613E-009  0.9118800E+02  0.7818608E-02  0.1130116E+00
         25   -1    0    0    0    0  0.00000000000E+00  0.00000000000E+00  0.99999998245E-14  0.12500000000E+03  0.12500000000E+03 0.  0.
        -11    1    3    3    0    0 -0.11378750432E+02 -0.36325676565E+02 -0.24206905030E+01  0.38143026650E+02  0.51100000000E-03 0.  1.
         23    2    1    0    0    0 -0.26173271074E+02  0.17169496622E+02 -0.17155177373E+01  0.93650761826E+02  0.88247892079E+02 0.  0.
         11    1    3    3    0    0 -0.14794520643E+02  0.53495173187E+02  0.70517276569E+00  0.55507735175E+02  0.51100000000E-03 0. -1.
         22    1    1    0    0    0  0.26173271074E+02 -0.17169496622E+02  0.17155177373E+01  0.31349238174E+02  0.00000000000E+00 0. -1.
</event>
<event>
 5    1  0.1111613E-009  0.9118800E+02  0.7818608E-02  0.1130116E+00
         25   -1    0    0    0    0  0.00000000000E+00  0.00000000000E+00  0.99999998245E-14  0.12500000000E+03  0.12500000000E+03 0.  0.
        -11    1    3    3    0    0  0.36133922940E+02 -0.45717693089E+01 -0.86838985069E+01  0.37442910613E+02  0.51100000000E-03 0.  1.
         23    2    1    0    0    0 -0.14949075670E+02  0.27246445047E+01  0.22584962154E+02  0.97779069330E+02  0.93913616332E+02 0.  0.
         11    1    3    3    0    0 -0.51082998609E+02  0.72964138136E+01  0.31268860661E+02  0.60336158717E+02  0.51100000000E-03 0. -1.
         22    1    1    0    0    0  0.14949075670E+02 -0.27246445047E+01 -0.22584962154E+02  0.27220930670E+02  0.00000000000E+00 0. -1.
</event>
<event>
 5    1  0.1111613E-009  0.9118800E+02  0.7818608E-02  0.1130116E+00
         25   -1    0    0    0    0  0.00000000000E+00  0.00000000000E+00  0.99999998245E-14  0.12500000000E+03  0.12500000000E+03 0.  0.
        -11    1    3    3    0    0  0.24682575802E+01 -0.31110121913E+02  0.33902030665E+02  0.46079058849E+02  0.51100000000E-03 0.  1.
         23    2    1    0    0    0 -0.22732271844E+02  0.83134364997E+01  0.14877109334E+02  0.96588773491E+02  0.92315726573E+02 0.  0.
         11    1    3    3    0    0 -0.25200529424E+02  0.39423558413E+02 -0.19024921332E+02  0.50509714641E+02  0.51100000000E-03 0. -1.
         22    1    1    0    0    0  0.22732271844E+02 -0.83134364997E+01 -0.14877109334E+02  0.28411226509E+02  0.00000000000E+00 0. -1.
</event>
<event>
 5    1  0.1111613E-009  0.9118800E+02  0.7818608E-02  0.1130116E+00
         25   -1    0    0    0    0  0.00000000000E+00  0.00000000000E+00  0.99999998245E-14  0.12500000000E+03  0.12500000000E+03 0.  0.
        -11    1    3    3    0    0 -0.83664142748E+01 -0.54362199946E+02 -0.11657604399E+00  0.55002356868E+02  0.51100000000E-03 0. -1.
         23    2    1    0    0    0  0.24685670009E+01 -0.20969475047E+02  0.20380184348E+02  0.95654393500E+02  0.91041739740E+02 0.  0.
         11    1    3    3    0    0  0.10834981276E+02  0.33392724899E+02  0.20496760392E+02  0.40652036631E+02  0.51100000000E-03 0.  1.
         22    1    1    0    0    0 -0.24685670009E+01  0.20969475047E+02 -0.20380184348E+02  0.29345606500E+02  0.00000000000E+00 0. -1.
</event>
<event>
 5    1  0.1111613E-009  0.9118800E+02  0.7818608E-02  0.1130116E+00
         25   -1    0    0    0    0  0.00000000000E+00  0.00000000000E+00  0.99999998245E-14  0.12500000000E+03  0.12500000000E+03 0.  0.
        -11    1    3    3    0    0  0.14929435109E+02  0.31141569004E+02  0.23523080640E+02  0.41785412236E+02  0.51100000000E-03 0.  1.
         23    2    1    0    0    0  0.14963569242E+02 -0.19481054879E+00 -0.22809267287E+02  0.97719805174E+02  0.93834701968E+02 0.  0.
         11    1    3    3    0    0  0.34134133244E-01 -0.31336379552E+02 -0.46332347927E+02  0.55934392937E+02  0.51100000000E-03 0. -1.
         22    1    1    0    0    0 -0.14963569242E+02  0.19481054879E+00  0.22809267287E+02  0.27280194826E+02  0.00000000000E+00 0. -1.
</event>
<event>
 5    1  0.1111613E-009  0.9118800E+02  0.7818608E-02  0.1130116E+00
         25   -1    0    0    0    0  0.00000000000E+00  0.00000000000E+00  0.99999998245E-14  0.12500000000E+03  0.12500000000E+03 0.  0.
        -11    1    3    3    0    0  0.29674180941E+02  0.15006652979E+01  0.54511328852E+01  0.30208009879E+02  0.51100000000E-03 0.  1.
         23    2    1    0    0    0 -0.21054102819E+02 -0.19241980138E+02 -0.19523644811E+02  0.90435542072E+02  0.83569644717E+02 0.  0.
         11    1    3    3    0    0 -0.50728283760E+02 -0.20742645436E+02 -0.24974777696E+02  0.60227532193E+02  0.51100000000E-03 0. -1.
         22    1    1    0    0    0  0.21054102819E+02  0.19241980138E+02  0.19523644811E+02  0.34564457928E+02  0.00000000000E+00 0. -1.
</event>
<event>
 5    1  0.1111613E-009  0.9118800E+02  0.7818608E-02  0.1130116E+00
         25   -1    0    0    0    0  0.00000000000E+00  0.00000000000E+00  0.99999998245E-14  0.12500000000E+03  0.12500000000E+03 0.  0.
        -11    1    3    3    0    0 -0.29302894843E+02  0.10687306351E+02  0.24583883550E+02  0.39714550153E+02  0.51100000000E-03 0.  1.
         23    2    1    0    0    0  0.21473472419E+02 -0.98500687776E+01  0.18831186169E+02  0.94788289602E+02  0.89844712702E+02 0.  0.
         11    1    3    3    0    0  0.50776367262E+02 -0.20537375128E+02 -0.57526973808E+01  0.55073739449E+02  0.51100000000E-03 0. -1.
         22    1    1    0    0    0 -0.21473472419E+02  0.98500687776E+01 -0.18831186169E+02  0.30211710398E+02  0.00000000000E+00 0. -1.
</event>
<event>
 5    1  0.1111613E-009  0.9118800E+02  0.7818608E-02  0.1130116E+00
         25   -1    0    0    0    0  0.00000000000E+00  0.00000000000E+00  0.99999998245E-14  0.12500000000E+03  0.12500000000E+03 0.  0.
        -11    1    3    3    0    0 -0.28442117713E+02  0.50715746817E+02  0.22409245650E+02  0.62315450139E+02  0.51100000000E-03 0.  1.
         23    2    1    0    0    0 -0.13940463213E+02  0.20980666761E+02  0.67243267412E+01  0.98928148082E+02  0.95430797023E+02 0.  0.
         11    1    3    3    0    0  0.14501654500E+02 -0.29735080057E+02 -0.15684918908E+02  0.36612697943E+02  0.51100000000E-03 0. -1.
         22    1    1    0    0    0  0.13940463213E+02 -0.20980666761E+02 -0.67243267412E+01  0.26071851918E+02  0.00000000000E+00 0.  1.
</event>
<event>
 5    1  0.1111613E-009  0.9118800E+02  0.7818608E-02  0.1130116E+00
         25   -1    0    0    0    0  0.00000000000E+00  0.00000000000E+00  0.99999998245E-14  0.12500000000E+03  0.12500000000E+03 0.  0.
        -11    1    3    3    0    0 -0.76513593850E+01 -0.25282737855E+02  0.54584826897E+02  0.60640444107E+02  0.51100000000E-03 0. -1.
         23    2    1    0    0    0 -0.13456737756E+02 -0.14052301725E+02  0.21789399653E+02  0.95788205943E+02  0.91225278765E+02 0.  0.
         11    1    3    3    0    0 -0.58053783707E+01  0.11230436130E+02 -0.32795427244E+02  0.35147761836E+02  0.51100000000E-03 0.  1.
         22    1    1    0    0    0  0.13456737756E+02  0.14052301725E+02 -0.21789399653E+02  0.29211794057E+02  0.00000000000E+00 0. -1.
</event>
<event>
 5    1  0.1111613E-009  0.9118800E+02  0.7818608E-02  0.1130116E+00
         25   -1    0    0    0    0  0.00000000000E+00  0.00000000000E+00  0.99999998245E-14  0.12500000000E+03  0.12500000000E+03 0.  0.
        -11    1    3    3    0    0  0.31033757642E+02 -0.17628180473E+02 -0.12424960316E+02  0.37791884040E+02  0.51100000000E-03 0. -1.
         23    2    1    0    0    0 -0.20258374079E+02 -0.15063986852E+02  0.14612651748E+02  0.95830580888E+02  0.91283323899E+02 0.  0.
         11    1    3    3    0    0 -0.51292131722E+02  0.25641936211E+01  0.27037612063E+02  0.58038696848E+02  0.51100000000E-03 0.  1.
         22    1    1    0    0    0  0.20258374079E+02  0.15063986852E+02 -0.14612651748E+02  0.29169419112E+02  0.00000000000E+00 0.  1.
</event>
<event>
 5    1  0.1111613E-009  0.9118800E+02  0.7818608E-02  0.1130116E+00
         25   -1    0    0    0    0  0.00000000000E+00  0.00000000000E+00  0.99999998245E-14  0.12500000000E+03  0.12500000000E+03 0.  0.
        -11    1    3    3    0    0 -0.49608679223E+02 -0.64531812949E+01  0.12457601944E+02  0.51554402814E+02  0.51100000000E-03 0.  1.
         23    2    1    0    0    0 -0.13549182138E+02 -0.24709220501E+02 -0.63182884967E+01  0.96120133589E+02  0.91678969221E+02 0.  0.
         11    1    3    3    0    0  0.36059497084E+02 -0.18256039206E+02 -0.18775890440E+02  0.44565730775E+02  0.51100000000E-03 0. -1.
         22    1    1    0    0    0  0.13549182138E+02  0.24709220501E+02  0.63182884967E+01  0.28879866411E+02  0.00000000000E+00 0.  1.
</event>
<event>
 5    1  0.1111613E-009  0.9118800E+02  0.7818608E-02  0.1130116E+00
         25   -1    0    0    0    0  0.00000000000E+00  0.00000000000E+00  0.99999998245E-14  0.12500000000E+03  0.12500000000E+03 0.  0.
        -11    1    3    3    0    0 -0.11040428555E+02  0.30390160783E+02  0.33767501300E+02  0.46751439330E+02  0.51100000000E-03 0.  1.
         23    2    1    0    0    0  0.26061979410E+02  0.80467151380E+01  0.13234040228E+02  0.94683070472E+02  0.89698202981E+02 0.  0.
         11    1    3    3    0    0  0.37102407964E+02 -0.22343445645E+02 -0.20533461072E+02  0.47931631142E+02  0.51100000000E-03 0. -1.
         22    1    1    0    0    0 -0.26061979410E+02 -0.80467151380E+01 -0.13234040228E+02  0.30316929528E+02  0.00000000000E+00 0.  1.
</event>
<event>
 5    1  0.1111613E-009  0.9118800E+02  0.7818608E-02  0.1130116E+00
         25   -1    0    0    0    0  0.00000000000E+00  0.00000000000E+00  0.99999998245E-14  0.12500000000E+03  0.12500000000E+03 0.  0.
        -11    1    3    3    0    0 -0.17638135215E+02  0.26254815963E+02  0.20452074129E+02  0.37665720643E+02  0.51100000000E-03 0.  1.
         23    2    1    0    0    0 -0.61941434767E+00  0.44858477375E+01 -0.29716421931E+02  0.94940521687E+02  0.90056262535E+02 0.  0.
         11    1    3    3    0    0  0.17018720867E+02 -0.21768968225E+02 -0.50168496060E+02  0.57274801045E+02  0.51100000000E-03 0. -1.
         22    1    1    0    0    0  0.61941434767E+00 -0.44858477375E+01  0.29716421931E+02  0.30059478313E+02  0.00000000000E+00 0. -1.
</event>
<event>
 5    1  0.1111613E-009  0.9118800E+02  0.7818608E-02  0.1130116E+00
         25   -1    0    0    0    0  0.00000000000E+00  0.00000000000E+00  0.99999998245E-14  0.12500000000E+03  0.12500000000E+03 0.  0.
        -11    1    3    3    0    0  0.10614978208E+02  0.15574259488E+02 -0.55093727131E+02  0.58228464606E+02  0.51100000000E-03 0. -1.
         23    2    1    0    0    0  0.20179669048E+02  0.50617899004E+01 -0.19787831055E+02  0.96287650431E+02  0.91907086820E+02 0.  0.
         11    1    3    3    0    0  0.95646908403E+01 -0.10512469588E+02  0.35305896076E+02  0.38059185825E+02  0.51100000000E-03 0.  1.
         22    1    1    0    0    0 -0.20179669048E+02 -0.50617899004E+01  0.19787831055E+02  0.28712349569E+02  0.00000000000E+00 0. -1.
</event>
<event>
 5    1  0.1111613E-009  0.9118800E+02  0.7818608E-02  0.1130116E+00
         25   -1    0    0    0    0  0.00000000000E+00  0.00000000000E+00  0.99999998245E-14  0.12500000000E+03  0.12500000000E+03 0.  0.
        -11    1    3    3    0    0 -0.39441029466E+02 -0.13342437599E+02  0.13612686534E+01  0.41658954608E+02  0.51100000000E-03 0.  1.
         23    2    1    0    0    0  0.58867660779E+01  0.13920090672E+01  0.28063767245E+02  0.96291695695E+02  0.91912588494E+02 0.  0.
         11    1    3    3    0    0  0.45327795544E+02  0.14734446666E+02  0.26702498592E+02  0.54632741087E+02  0.51100000000E-03 0. -1.
         22    1    1    0    0    0 -0.58867660779E+01 -0.13920090672E+01 -0.28063767245E+02  0.28708304305E+02  0.00000000000E+00 0. -1.
</event>
<event>
 5    1  0.1111613E-009  0.9118800E+02  0.7818608E-02  0.1130116E+00
         25   -1    0    0    0    0  0.00000000000E+00  0.00000000000E+00  0.99999998245E-14  0.12500000000E+03  0.12500000000E+03 0.  0.
        -11    1    3    3    0    0 -0.47318496013E+02  0.14260134448E+02 -0.52383042793E+01  0.49697397632E+02  0.51100000000E-03 0.  1.
         23    2    1    0    0    0 -0.11829693831E+02 -0.17032063364E+02 -0.16693127420E+02  0.98378705110E+02  0.94708374906E+02 0.  0.
         11    1    3    3    0    0  0.35488802182E+02 -0.31292197812E+02 -0.11454823141E+02  0.48681307477E+02  0.51100000000E-03 0. -1.
         22    1    1    0    0    0  0.11829693831E+02  0.17032063364E+02  0.16693127420E+02  0.26621294890E+02  0.00000000000E+00 0.  1.
</event>
<event>
 5    1  0.1111613E-009  0.9118800E+02  0.7818608E-02  0.1130116E+00
         25   -1    0    0    0    0  0.00000000000E+00  0.00000000000E+00  0.99999998245E-14  0.12500000000E+03  0.12500000000E+03 0.  0.
        -11    1    3    3    0    0  0.19672568053E+02  0.13560195892E+02  0.53116709675E+02  0.58243228734E+02  0.51100000000E-03 0.  1.
         23    2    1    0    0    0 -0.59001530497E+01  0.12188242635E+02  0.26852463871E+02  0.94926425545E+02  0.90036694665E+02 0.  0.
         11    1    3    3    0    0 -0.25572721103E+02 -0.13719532565E+01 -0.26264245804E+02  0.36683196811E+02  0.51100000000E-03 0. -1.
         22    1    1    0    0    0  0.59001530497E+01 -0.12188242635E+02 -0.26852463871E+02  0.30073574455E+02  0.00000000000E+00 0.  1.
</event>
<event>
 5    1  0.1111613E-009  0.9118800E+02  0.7818608E-02  0.1130116E+00
         25   -1    0    0    0    0  0.00000000000E+00  0.00000000000E+00  0.99999998245E-14  0.12500000000E+03  0.12500000000E+03 0.  0.
        -11    1    3    3    0    0  0.15114994382E+02 -0.31573274596E+02 -0.14161466489E+02  0.37760850855E+02  0.51100000000E-03 0. -1.
         23    2    1    0    0    0 -0.17432296709E+02  0.14494968500E+02 -0.20388573767E+02  0.94509296161E+02  0.89455709936E+02 0.  0.
         11    1    3    3    0    0 -0.32547291091E+02  0.46068243096E+02 -0.62271072779E+01  0.56748445306E+02  0.51100000000E-03 0.  1.
         22    1    1    0    0    0  0.17432296709E+02 -0.14494968500E+02  0.20388573767E+02  0.30490703839E+02  0.00000000000E+00 0.  1.
</event>
<event>
 5    1  0.1111613E-009  0.9118800E+02  0.7818608E-02  0.1130116E+00
         25   -1    0    0    0    0  0.00000000000E+00  0.00000000000E+00  0.99999998245E-14  0.12500000000E+03  0.12500000000E+03 0.  0.
        -11    1    3    3    0    0 -0.29372451780E+02 -0.27497398390E+02 -0.18645417685E+02  0.44345230213E+02  0.51100000000E-03 0.  1.
         23    2    1    0    0    0  0.48946643315E+01 -0.24190576545E+02  0.17869014244E+02  0.94529630745E+02  0.89484119743E+02 0.  0.
         11    1    3    3    0    0  0.34267116112E+02  0.33068218443E+01  0.36514431929E+02  0.50184400531E+02  0.51100000000E-03 0. -1.
         22    1    1    0    0    0 -0.48946643315E+01  0.24190576545E+02 -0.17869014244E+02  0.30470369255E+02  0.00000000000E+00 0. -1.
</event>
<event>
 5    1  0.1111613E-009  0.9118800E+02  0.7818608E-02  0.1130116E+00
         25   -1    0    0    0    0  0.00000000000E+00  0.00000000000E+00  0.99999998245E-14  0.12500000000E+03  0.12500000000E+03 0.  0.
        -11    1    3    3    0    0  0.23576495132E+02 -0.32690542700E+02  0.39312667320E+02  0.56302828675E+02  0.51100000000E-03 0. -1.
         23    2    1    0    0    0  0.23203588776E+02  0.38341404078E+00  0.17693866476E+02  0.95817360481E+02  0.91265218568E+02 0.  0.
         11    1    3    3    0    0 -0.37290635532E+00  0.33073956741E+02 -0.21618800844E+02  0.39514531806E+02  0.51100000000E-03 0.  1.
         22    1    1    0    0    0 -0.23203588776E+02 -0.38341404078E+00 -0.17693866476E+02  0.29182639519E+02  0.00000000000E+00 0. -1.
</event>
<event>
 5    1  0.1111613E-009  0.9118800E+02  0.7818608E-02  0.1130116E+00
         25   -1    0    0    0    0  0.00000000000E+00  0.00000000000E+00  0.99999998245E-14  0.12500000000E+03  0.12500000000E+03 0.  0.
        -11    1    3    3    0    0 -0.23221265467E+02  0.34430853398E+02 -0.19985439542E+02  0.46088269978E+02  0.51100000000E-03 0.  1.
         23    2    1    0    0    0 -0.27314681479E+02 -0.64428496135E+01  0.80290891569E+01  0.95809789173E+02  0.91254848054E+02 0.  0.
         11    1    3    3    0    0 -0.40934160121E+01 -0.40873703012E+02  0.28014528699E+02  0.49721519195E+02  0.51100000000E-03 0. -1.
         22    1    1    0    0    0  0.27314681479E+02  0.64428496135E+01 -0.80290891569E+01  0.29190210827E+02  0.00000000000E+00 0. -1.
</event>
<event>
 5    1  0.1111613E-009  0.9118800E+02  0.7818608E-02  0.1130116E+00
         25   -1    0    0    0    0  0.00000000000E+00  0.00000000000E+00  0.99999998245E-14  0.12500000000E+03  0.12500000000E+03 0.  0.
        -11    1    3    3    0    0 -0.28541559576E+02  0.91061355718E+01 -0.11163623825E+02  0.31971375091E+02  0.51100000000E-03 0.  1.
         23    2    1    0    0    0  0.21636901927E+02 -0.20341097162E+01  0.22739390538E+02  0.93545699668E+02  0.88098949579E+02 0.  0.
         11    1    3    3    0    0  0.50178461503E+02 -0.11140245288E+02  0.33903014363E+02  0.61574324576E+02  0.51100000000E-03 0. -1.
         22    1    1    0    0    0 -0.21636901927E+02  0.20341097162E+01 -0.22739390538E+02  0.31454300332E+02  0.00000000000E+00 0. -1.
</event>
<event>
 5    1  0.1111613E-009  0.9118800E+02  0.7818608E-02  0.1130116E+00
         25   -1    0    0    0    0  0.00000000000E+00  0.00000000000E+00  0.99999998245E-14  0.12500000000E+03  0.12500000000E+03 0.  0.
        -11    1    3    3    0    0  0.19595111282E+02  0.28227197862E+02  0.14115762937E+02  0.37148322289E+02  0.51100000000E-03 0. -1.
         23    2    1    0    0    0 -0.20220911596E+02  0.32965434868E+01 -0.20894776972E+02  0.95736641180E+02  0.91154595577E+02 0.  0.
         11    1    3    3    0    0 -0.39816022878E+02 -0.24930654376E+02 -0.35010539909E+02  0.58588318891E+02  0.51100000000E-03 0.  1.
         22    1    1    0    0    0  0.20220911596E+02 -0.32965434868E+01  0.20894776972E+02  0.29263358820E+02  0.00000000000E+00 0.  1.
</event>
<event>
 5    1  0.1111613E-009  0.9118800E+02  0.7818608E-02  0.1130116E+00
         25   -1    0    0    0    0  0.00000000000E+00  0.00000000000E+00  0.99999998245E-14  0.12500000000E+03  0.12500000000E+03 0.  0.
        -11    1    3    3    0    0 -0.10539951427E+02 -0.25274273430E+02  0.39631131814E+02  0.48171631513E+02  0.51100000000E-03 0.  1.
         23    2    1    0    0    0 -0.10716134277E+02 -0.10762574839E+02 -0.14371562213E+02  0.10409042441E+03  0.10196865255E+03 0.  0.
         11    1    3    3    0    0 -0.17618284990E+00  0.14511698591E+02 -0.54002694027E+02  0.55918792895E+02  0.51100000000E-03 0. -1.
         22    1    1    0    0    0  0.10716134277E+02  0.10762574839E+02  0.14371562213E+02  0.20909575592E+02  0.00000000000E+00 0. -1.
</event>
<event>
 5    1  0.1111613E-009  0.9118800E+02  0.7818608E-02  0.1130116E+00
         25   -1    0    0    0    0  0.00000000000E+00  0.00000000000E+00  0.99999998245E-14  0.12500000000E+03  0.12500000000E+03 0.  0.
        -11    1    3    3    0    0 -0.36978948505E+02  0.13576570161E+02  0.47107675752E+02  0.61407646144E+02  0.51100000000E-03 0.  1.
         23    2    1    0    0    0 -0.23363332619E+02  0.70941680708E+01  0.16492775298E+02  0.95535034894E+02  0.90877713018E+02 0.  0.
         11    1    3    3    0    0  0.13615615886E+02 -0.64824020905E+01 -0.30614900455E+02  0.34127388750E+02  0.51100000000E-03 0. -1.
         22    1    1    0    0    0  0.23363332619E+02 -0.70941680708E+01 -0.16492775298E+02  0.29464965106E+02  0.00000000000E+00 0.  1.
</event>
<event>
 5    1  0.1111613E-009  0.9118800E+02  0.7818608E-02  0.1130116E+00
         25   -1    0    0    0    0  0.00000000000E+00  0.00000000000E+00  0.99999998245E-14  0.12500000000E+03  0.12500000000E+03 0.  0.
        -11    1    3    3    0    0 -0.94366197997E+01  0.24709186296E+02  0.24089376287E+02  0.35775574500E+02  0.51100000000E-03 0.  1.
         23    2    1    0    0    0  0.26408192647E+02  0.96326516689E+01 -0.16839425484E+02  0.92231923040E+02  0.86214736327E+02 0.  0.
         11    1    3    3    0    0  0.35844812447E+02 -0.15076534627E+02 -0.40928801771E+02  0.56456348539E+02  0.51100000000E-03 0. -1.
         22    1    1    0    0    0 -0.26408192647E+02 -0.96326516689E+01  0.16839425484E+02  0.32768076960E+02  0.00000000000E+00 0. -1.
</event>
<event>
 5    1  0.1111613E-009  0.9118800E+02  0.7818608E-02  0.1130116E+00
         25   -1    0    0    0    0  0.00000000000E+00  0.00000000000E+00  0.99999998245E-14  0.12500000000E+03  0.12500000000E+03 0.  0.
        -11    1    3    3    0    0  0.10979094639E+01  0.37890259368E+02 -0.75438073963E+01  0.38649530275E+02  0.51100000000E-03 0.  1.
         23    2    1    0    0    0  0.14025903483E+02 -0.63060518885E+01  0.25426832289E+02  0.95284413868E+02  0.90532333820E+02 0.  0.
         11    1    3    3    0    0  0.12927994019E+02 -0.44196311257E+02  0.32970639685E+02  0.56634883593E+02  0.51100000000E-03 0. -1.
         22    1    1    0    0    0 -0.14025903483E+02  0.63060518885E+01 -0.25426832289E+02  0.29715586132E+02  0.00000000000E+00 0. -1.
</event>
<event>
 5    1  0.1111613E-009  0.9118800E+02  0.7818608E-02  0.1130116E+00
         25   -1    0    0    0    0  0.00000000000E+00  0.00000000000E+00  0.99999998245E-14  0.12500000000E+03  0.12500000000E+03 0.  0.
        -11    1    3    3    0    0 -0.27570170544E+02  0.17714983486E-01  0.27389421199E+02  0.38862514220E+02  0.51100000000E-03 0.  1.
         23    2    1    0    0    0  0.23650445686E+02  0.14650128427E+02  0.14313085823E+02  0.93713672798E+02  0.88336958287E+02 0.  0.
         11    1    3    3    0    0  0.51220616230E+02  0.14632413443E+02 -0.13076335376E+02  0.54851158577E+02  0.51100000000E-03 0. -1.
         22    1    1    0    0    0 -0.23650445686E+02 -0.14650128427E+02 -0.14313085823E+02  0.31286327202E+02  0.00000000000E+00 0.  1.
</event>
<event>
 5    1  0.1111613E-009  0.9118800E+02  0.7818608E-02  0.1130116E+00
         25   -1    0    0    0    0  0.00000000000E+00  0.00000000000E+00  0.99999998245E-14  0.12500000000E+03  0.12500000000E+03 0.  0.
        -11    1    3    3    0    0  0.16473248929E+02  0.40973517973E+02 -0.75570145036E+01  0.44802963895E+02  0.51100000000E-03 0. -1.
         23    2    1    0    0    0 -0.22747178924E+02  0.10156613210E+02 -0.16001620695E+02  0.95391845620E+02  0.90680545901E+02 0.  0.
         11    1    3    3    0    0 -0.39220427853E+02 -0.30816904763E+02 -0.84446061917E+01  0.50588881725E+02  0.51100000000E-03 0.  1.
         22    1    1    0    0    0  0.22747178924E+02 -0.10156613210E+02  0.16001620695E+02  0.29608154380E+02  0.00000000000E+00 0.  1.
</event>
<event>
 5    1  0.1111613E-009  0.9118800E+02  0.7818608E-02  0.1130116E+00
         25   -1    0    0    0    0  0.00000000000E+00  0.00000000000E+00  0.99999998245E-14  0.12500000000E+03  0.12500000000E+03 0.  0.
        -11    1    3    3    0    0  0.22715545050E+02  0.28813766869E+02  0.25931922974E+02  0.44929876224E+02  0.51100000000E-03 0.  1.
         23    2    1    0    0    0  0.14688546352E+02 -0.20590274679E+02  0.12683142307E+02  0.96705567614E+02  0.92473736290E+02 0.  0.
         11    1    3    3    0    0 -0.80269986979E+01 -0.49404041549E+02 -0.13248780668E+02  0.51775691390E+02  0.51100000000E-03 0. -1.
         22    1    1    0    0    0 -0.14688546352E+02  0.20590274679E+02 -0.12683142307E+02  0.28294432386E+02  0.00000000000E+00 0. -1.
</event>
<event>
 5    1  0.1111613E-009  0.9118800E+02  0.7818608E-02  0.1130116E+00
         25   -1    0    0    0    0  0.00000000000E+00  0.00000000000E+00  0.99999998245E-14  0.12500000000E+03  0.12500000000E+03 0.  0.
        -11    1    3    3    0    0 -0.30388802616E+02 -0.27816620023E+02 -0.43912963004E+02  0.60212888935E+02  0.51100000000E-03 0.  1.
         23    2    1    0    0    0 -0.20982018089E+02 -0.17698859450E+02 -0.11895936908E+02  0.95083315294E+02  0.90254245459E+02 0.  0.
         11    1    3    3    0    0  0.94067845269E+01  0.10117760573E+02  0.32017026096E+02  0.34870426359E+02  0.51100000000E-03 0. -1.
         22    1    1    0    0    0  0.20982018089E+02  0.17698859450E+02  0.11895936908E+02  0.29916684706E+02  0.00000000000E+00 0.  1.
</event>
<event>
 5    1  0.1111613E-009  0.9118800E+02  0.7818608E-02  0.1130116E+00
         25   -1    0    0    0    0  0.00000000000E+00  0.00000000000E+00  0.99999998245E-14  0.12500000000E+03  0.12500000000E+03 0.  0.
        -11    1    3    3    0    0 -0.14028681849E+02 -0.29424370544E+02  0.12722048525E+02  0.34992113615E+02  0.51100000000E-03 0.  1.
         23    2    1    0    0    0  0.16099036338E+02  0.23285600657E+02  0.58554600730E+01  0.96091790411E+02  0.91640316470E+02 0.  0.
         11    1    3    3    0    0  0.30127718187E+02  0.52709971201E+02 -0.68665884523E+01  0.61099676795E+02  0.51100000000E-03 0. -1.
         22    1    1    0    0    0 -0.16099036338E+02 -0.23285600657E+02 -0.58554600730E+01  0.28908209589E+02  0.00000000000E+00 0. -1.
</event>
<event>
 5    1  0.1111613E-009  0.9118800E+02  0.7818608E-02  0.1130116E+00
         25   -1    0    0    0    0  0.00000000000E+00  0.00000000000E+00  0.99999998245E-14  0.12500000000E+03  0.12500000000E+03 0.  0.
        -11    1    3    3    0    0 -0.12682144684E+02  0.32306577620E+01 -0.31637960272E+02  0.34237909892E+02  0.51100000000E-03 0. -1.
         23    2    1    0    0    0  0.75324152715E+01 -0.17046419588E+02  0.22683119556E+02  0.95642860947E+02  0.91025904207E+02 0.  0.
         11    1    3    3    0    0  0.20214559956E+02 -0.20277077350E+02  0.54321079828E+02  0.61404951055E+02  0.51100000000E-03 0.  1.
         22    1    1    0    0    0 -0.75324152715E+01  0.17046419588E+02 -0.22683119556E+02  0.29357139053E+02  0.00000000000E+00 0.  1.
</event>
<event>
 5    1  0.1111613E-009  0.9118800E+02  0.7818608E-02  0.1130116E+00
         25   -1    0    0    0    0  0.00000000000E+00  0.00000000000E+00  0.99999998245E-14  0.12500000000E+03  0.12500000000E+03 0.  0.
        -11    1    3    3    0    0  0.15446957305E+02 -0.57585173535E+01 -0.31140111407E+02  0.35234578907E+02  0.51100000000E-03 0.  1.
         23    2    1    0    0    0 -0.72471370506E+01 -0.17279725963E+02  0.23163395208E+02  0.95206497314E+02  0.90424688711E+02 0.  0.
         11    1    3    3    0    0 -0.22694094356E+02 -0.11521208609E+02  0.54303506614E+02  0.59971918406E+02  0.51100000000E-03 0. -1.
         22    1    1    0    0    0  0.72471370506E+01  0.17279725963E+02 -0.23163395208E+02  0.29793502686E+02  0.00000000000E+00 0. -1.
</event>
<event>
 5    1  0.1111613E-009  0.9118800E+02  0.7818608E-02  0.1130116E+00
         25   -1    0    0    0    0  0.00000000000E+00  0.00000000000E+00  0.99999998245E-14  0.12500000000E+03  0.12500000000E+03 0.  0.
        -11    1    3    3    0    0 -0.37973865340E+02  0.23772031256E+02  0.17910110813E+02  0.48248274461E+02  0.51100000000E-03 0.  1.
         23    2    1    0    0    0 -0.19094621294E+02 -0.19303770051E+02  0.10636637235E+02  0.95838755990E+02  0.91294517894E+02 0.  0.
         11    1    3    3    0    0  0.18879244046E+02 -0.43075801307E+02 -0.72734735783E+01  0.47590481529E+02  0.51100000000E-03 0. -1.
         22    1    1    0    0    0  0.19094621294E+02  0.19303770051E+02 -0.10636637235E+02  0.29161244010E+02  0.00000000000E+00 0. -1.
</event>
<event>
 5    1  0.1111613E-009  0.9118800E+02  0.7818608E-02  0.1130116E+00
         25   -1    0    0    0    0  0.00000000000E+00  0.00000000000E+00  0.99999998245E-14  0.12500000000E+03  0.12500000000E+03 0.  0.
        -11    1    3    3    0    0 -0.58332257181E+02  0.51458120197E+00  0.92841937266E+01  0.59068716551E+02  0.51100000000E-03 0.  1.
         23    2    1    0    0    0 -0.24471382235E+02 -0.13948157680E+02  0.70887502827E+01  0.95954345734E+02  0.91452645853E+02 0.  0.
         11    1    3    3    0    0  0.33860874946E+02 -0.14462738882E+02 -0.21954434438E+01  0.36885629183E+02  0.51100000000E-03 0. -1.
         22    1    1    0    0    0  0.24471382235E+02  0.13948157680E+02 -0.70887502827E+01  0.29045654266E+02  0.00000000000E+00 0.  1.
</event>
<event>
 5    1  0.1111613E-009  0.9118800E+02  0.7818608E-02  0.1130116E+00
         25   -1    0    0    0    0  0.00000000000E+00  0.00000000000E+00  0.99999998245E-14  0.12500000000E+03  0.12500000000E+03 0.  0.
        -11    1    3    3    0    0  0.14815628533E+02  0.71838997597E-01  0.51381860218E+02  0.53475261284E+02  0.51100000000E-03 0.  1.
         23    2    1    0    0    0  0.26210585621E+02  0.11624083296E+02  0.16568232782E+02  0.91884739944E+02  0.85709888496E+02 0.  0.
         11    1    3    3    0    0  0.11394957088E+02  0.11552244298E+02 -0.34813627436E+02  0.38409478660E+02  0.51100000000E-03 0. -1.
         22    1    1    0    0    0 -0.26210585621E+02 -0.11624083296E+02 -0.16568232782E+02  0.33115260056E+02  0.00000000000E+00 0.  1.
</event>
<event>
 5    1  0.1111613E-009  0.9118800E+02  0.7818608E-02  0.1130116E+00
         25   -1    0    0    0    0  0.00000000000E+00  0.00000000000E+00  0.99999998245E-14  0.12500000000E+03  0.12500000000E+03 0.  0.
        -11    1    3    3    0    0  0.16698277874E+01 -0.15063091085E+02 -0.23491462784E+02  0.27955927133E+02  0.51100000000E-03 0. -1.
         23    2    1    0    0    0 -0.21560722640E+02  0.99241771176E+01  0.27099331818E+02  0.88976010254E+02  0.81357252680E+02 0.  0.
         11    1    3    3    0    0 -0.23230550427E+02  0.24987268203E+02  0.50590794602E+02  0.61020083121E+02  0.51100000000E-03 0.  1.
         22    1    1    0    0    0  0.21560722640E+02 -0.99241771176E+01 -0.27099331818E+02  0.36023989746E+02  0.00000000000E+00 0.  1.
</event>
<event>
 5    1  0.1111613E-009  0.9118800E+02  0.7818608E-02  0.1130116E+00
         25   -1    0    0    0    0  0.00000000000E+00  0.00000000000E+00  0.99999998245E-14  0.12500000000E+03  0.12500000000E+03 0.  0.
        -11    1    3    3    0    0 -0.25922017570E+02  0.21260371275E+02  0.41773043737E+01  0.33784674836E+02  0.51100000000E-03 0. -1.
         23    2    1    0    0    0  0.14709015991E+02 -0.24425661122E+02  0.89634556947E+01  0.95111681033E+02  0.90293522793E+02 0.  0.
         11    1    3    3    0    0  0.40631033561E+02 -0.45686032397E+02  0.47861513210E+01  0.61327006198E+02  0.51100000000E-03 0.  1.
         22    1    1    0    0    0 -0.14709015991E+02  0.24425661122E+02 -0.89634556947E+01  0.29888318967E+02  0.00000000000E+00 0.  1.
</event>
<event>
 5    1  0.1111613E-009  0.9118800E+02  0.7818608E-02  0.1130116E+00
         25   -1    0    0    0    0  0.00000000000E+00  0.00000000000E+00  0.99999998245E-14  0.12500000000E+03  0.12500000000E+03 0.  0.
        -11    1    3    3    0    0  0.46466144215E+02  0.22529727026E+02  0.12109259624E+02  0.53040789275E+02  0.51100000000E-03 0.  1.
         23    2    1    0    0    0  0.18383541275E+02  0.14098557276E+02 -0.18444158407E+02  0.95387318824E+02  0.90674305655E+02 0.  0.
         11    1    3    3    0    0 -0.28082602940E+02 -0.84311697503E+01 -0.30553418030E+02  0.42346529549E+02  0.51100000000E-03 0. -1.
         22    1    1    0    0    0 -0.18383541275E+02 -0.14098557276E+02  0.18444158407E+02  0.29612681176E+02  0.00000000000E+00 0.  1.
</event>
<event>
 5    1  0.1111613E-009  0.9118800E+02  0.7818608E-02  0.1130116E+00
         25   -1    0    0    0    0  0.00000000000E+00  0.00000000000E+00  0.99999998245E-14  0.12500000000E+03  0.12500000000E+03 0.  0.
        -11    1    3    3    0    0 -0.17172864282E+02 -0.15154563416E+02  0.29121379066E+02  0.37048924126E+02  0.51100000000E-03 0.  1.
         23    2    1    0    0    0 -0.74549360471E+01  0.23561761919E+02 -0.14635999430E+02  0.96278141155E+02  0.91894152636E+02 0.  0.
         11    1    3    3    0    0  0.97179282347E+01  0.38716325335E+02 -0.43757378496E+02  0.59229217028E+02  0.51100000000E-03 0. -1.
         22    1    1    0    0    0  0.74549360471E+01 -0.23561761919E+02  0.14635999430E+02  0.28721858845E+02  0.00000000000E+00 0. -1.
</event>
<event>
 5    1  0.1111613E-009  0.9118800E+02  0.7818608E-02  0.1130116E+00
         25   -1    0    0    0    0  0.00000000000E+00  0.00000000000E+00  0.99999998245E-14  0.12500000000E+03  0.12500000000E+03 0.  0.
        -11    1    3    3    0    0  0.31732176419E+02 -0.20873138953E+02  0.17837876472E+02  0.41961992176E+02  0.51100000000E-03 0. -1.
         23    2    1    0    0    0  0.46302696740E+01 -0.95835797314E+01 -0.27238142684E+02  0.95756183310E+02  0.91181389700E+02 0.  0.
         11    1    3    3    0    0 -0.27101906745E+02  0.11289559222E+02 -0.45076019155E+02  0.53794191135E+02  0.51100000000E-03 0.  1.
         22    1    1    0    0    0 -0.46302696740E+01  0.95835797314E+01  0.27238142684E+02  0.29243816690E+02  0.00000000000E+00 0.  1.
</event>
<event>
 5    1  0.1111613E-009  0.9118800E+02  0.7818608E-02  0.1130116E+00
         25   -1    0    0    0    0  0.00000000000E+00  0.00000000000E+00  0.99999998245E-14  0.12500000000E+03  0.12500000000E+03 0.  0.
        -11    1    3    3    0    0  0.35734795731E+02  0.96176563589E+01 -0.46148087178E+00  0.37009294841E+02  0.51100000000E-03 0.  1.
         23    2    1    0    0    0 -0.21019702229E+02  0.17925236715E+02  0.10573826726E+02  0.95420483359E+02  0.90720013446E+02 0.  0.
         11    1    3    3    0    0 -0.56754497960E+02  0.83075803564E+01  0.11035307597E+02  0.58411188518E+02  0.51100000000E-03 0. -1.
         22    1    1    0    0    0  0.21019702229E+02 -0.17925236715E+02 -0.10573826726E+02  0.29579516641E+02  0.00000000000E+00 0. -1.
</event>
<event>
 5    1  0.1111613E-009  0.9118800E+02  0.7818608E-02  0.1130116E+00
         25   -1    0    0    0    0  0.00000000000E+00  0.00000000000E+00  0.99999998245E-14  0.12500000000E+03  0.12500000000E+03 0.  0.
        -11    1    3    3    0    0  0.25023656224E+01 -0.38383426876E+02 -0.36417946198E+02  0.52969954672E+02  0.51100000000E-03 0.  1.
         23    2    1    0    0    0 -0.18842138755E+02 -0.23279513365E+02 -0.37454639803E+01  0.94817381893E+02  0.89885179386E+02 0.  0.
         11    1    3    3    0    0 -0.21344504377E+02  0.15103913511E+02  0.32672482218E+02  0.41847427221E+02  0.51100000000E-03 0. -1.
         22    1    1    0    0    0  0.18842138755E+02  0.23279513365E+02  0.37454639803E+01  0.30182618107E+02  0.00000000000E+00 0.  1.
</event>
<event>
 5    1  0.1111613E-009  0.9118800E+02  0.7818608E-02  0.1130116E+00
         25   -1    0    0    0    0  0.00000000000E+00  0.00000000000E+00  0.99999998245E-14  0.12500000000E+03  0.12500000000E+03 0.  0.
        -11    1    3    3    0    0  0.14360806755E+02  0.12645064642E+02 -0.26759895236E+02  0.32897149174E+02  0.51100000000E-03 0.  1.
         23    2    1    0    0    0 -0.13789340300E+02 -0.27182097587E+02  0.88228265079E+01  0.93269027706E+02  0.87705512520E+02 0.  0.
         11    1    3    3    0    0 -0.28150147055E+02 -0.39827162229E+02  0.35582721744E+02  0.60371878532E+02  0.51100000000E-03 0. -1.
         22    1    1    0    0    0  0.13789340300E+02  0.27182097587E+02 -0.88228265079E+01  0.31730972294E+02  0.00000000000E+00 0. -1.
</event>
<event>
 5    1  0.1111613E-009  0.9118800E+02  0.7818608E-02  0.1130116E+00
         25   -1    0    0    0    0  0.00000000000E+00  0.00000000000E+00  0.99999998245E-14  0.12500000000E+03  0.12500000000E+03 0.  0.
        -11    1    3    3    0    0  0.21273018184E+02 -0.38903806755E+02 -0.42061306045E+02  0.61116290375E+02  0.51100000000E-03 0.  1.
         23    2    1    0    0    0  0.12126527795E+01 -0.21393160601E+02 -0.19834642940E+02  0.95801525591E+02  0.91243527977E+02 0.  0.
         11    1    3    3    0    0 -0.20060365405E+02  0.17510646154E+02  0.22226663105E+02  0.34685235215E+02  0.51100000000E-03 0. -1.
         22    1    1    0    0    0 -0.12126527795E+01  0.21393160601E+02  0.19834642940E+02  0.29198474409E+02  0.00000000000E+00 0.  1.
</event>
<event>
 5    1  0.1111613E-009  0.9118800E+02  0.7818608E-02  0.1130116E+00
         25   -1    0    0    0    0  0.00000000000E+00  0.00000000000E+00  0.99999998245E-14  0.12500000000E+03  0.12500000000E+03 0.  0.
        -11    1    3    3    0    0  0.10939295850E+02 -0.21264537618E+01 -0.59032691595E+02  0.60075358313E+02  0.51100000000E-03 0. -1.
         23    2    1    0    0    0  0.14331047887E+02  0.66727696934E+01 -0.24743493478E+02  0.95637689832E+02  0.91018802772E+02 0.  0.
         11    1    3    3    0    0  0.33917520367E+01  0.87992234552E+01  0.34289198117E+02  0.35562331519E+02  0.51100000000E-03 0.  1.
         22    1    1    0    0    0 -0.14331047887E+02 -0.66727696934E+01  0.24743493478E+02  0.29362310168E+02  0.00000000000E+00 0. -1.
</event>
<event>
 5    1  0.1111613E-009  0.9118800E+02  0.7818608E-02  0.1130116E+00
         25   -1    0    0    0    0  0.00000000000E+00  0.00000000000E+00  0.99999998245E-14  0.12500000000E+03  0.12500000000E+03 0.  0.
        -11    1    3    3    0    0  0.58231355907E+01 -0.38965387021E+02  0.84863639590E+01  0.40301720402E+02  0.51100000000E-03 0.  1.
         23    2    1    0    0    0  0.71489652868E+01  0.17611202673E+02 -0.14202814893E+02  0.10127275585E+03  0.98453994137E+02 0.  0.
         11    1    3    3    0    0  0.13258296961E+01  0.56576589695E+02 -0.22689178852E+02  0.60971035444E+02  0.51100000000E-03 0. -1.
         22    1    1    0    0    0 -0.71489652868E+01 -0.17611202673E+02  0.14202814893E+02  0.23727244154E+02  0.00000000000E+00 0. -1.
</event>
<event>
 5    1  0.1111613E-009  0.9118800E+02  0.7818608E-02  0.1130116E+00
         25   -1    0    0    0    0  0.00000000000E+00  0.00000000000E+00  0.99999998245E-14  0.12500000000E+03  0.12500000000E+03 0.  0.
        -11    1    3    3    0    0 -0.31797435719E+02 -0.39644444183E+02 -0.46579255474E+01  0.51033862715E+02  0.51100000000E-03 0. -1.
         23    2    1    0    0    0 -0.32049904692E+02  0.16020561978E+01  0.21454105440E+01  0.92838442805E+02  0.87089670462E+02 0.  0.
         11    1    3    3    0    0 -0.25246897300E+00  0.41246500381E+02  0.68033360914E+01  0.41804580090E+02  0.51100000000E-03 0.  1.
         22    1    1    0    0    0  0.32049904692E+02 -0.16020561978E+01 -0.21454105440E+01  0.32161557195E+02  0.00000000000E+00 0.  1.
</event>
<event>
 5    1  0.1111613E-009  0.9118800E+02  0.7818608E-02  0.1130116E+00
         25   -1    0    0    0    0  0.00000000000E+00  0.00000000000E+00  0.99999998245E-14  0.12500000000E+03  0.12500000000E+03 0.  0.
        -11    1    3    3    0    0  0.24509323284E+02 -0.34282583935E+02  0.43374177293E+02  0.60475794705E+02  0.51100000000E-03 0.  1.
         23    2    1    0    0    0  0.82184340646E+01 -0.71561665510E+01  0.26523265392E+02  0.96325325019E+02  0.91958312592E+02 0.  0.
         11    1    3    3    0    0 -0.16290889219E+02  0.27126417384E+02 -0.16850911901E+02  0.35849530315E+02  0.51100000000E-03 0. -1.
         22    1    1    0    0    0 -0.82184340646E+01  0.71561665510E+01 -0.26523265392E+02  0.28674674981E+02  0.00000000000E+00 0.  1.
</event>
<event>
 5    1  0.1111613E-009  0.9118800E+02  0.7818608E-02  0.1130116E+00
         25   -1    0    0    0    0  0.00000000000E+00  0.00000000000E+00  0.99999998245E-14  0.12500000000E+03  0.12500000000E+03 0.  0.
        -11    1    3    3    0    0 -0.15129297315E+02 -0.32414111271E+02  0.10989432280E+02  0.37421088557E+02  0.51100000000E-03 0. -1.
         23    2    1    0    0    0 -0.17849627356E+02  0.22738426005E+02 -0.65507876806E+01  0.95359520362E+02  0.90635975696E+02 0.  0.
         11    1    3    3    0    0 -0.27203300419E+01  0.55152537276E+02 -0.17540219961E+02  0.57938431805E+02  0.51100000000E-03 0.  1.
         22    1    1    0    0    0  0.17849627356E+02 -0.22738426005E+02  0.65507876806E+01  0.29640479638E+02  0.00000000000E+00 0.  1.
</event>
<event>
 5    1  0.1111613E-009  0.9118800E+02  0.7818608E-02  0.1130116E+00
         25   -1    0    0    0    0  0.00000000000E+00  0.00000000000E+00  0.99999998245E-14  0.12500000000E+03  0.12500000000E+03 0.  0.
        -11    1    3    3    0    0  0.15675485172E+00 -0.34345970050E+02 -0.34466339005E+02  0.48657977305E+02  0.51100000000E-03 0. -1.
         23    2    1    0    0    0  0.81753529129E+01 -0.27899677252E+02  0.99664198727E+01  0.94266339120E+02  0.89115569796E+02 0.  0.
         11    1    3    3    0    0  0.80185980611E+01  0.64462927986E+01  0.44432758877E+02  0.45608361815E+02  0.51100000000E-03 0.  1.
         22    1    1    0    0    0 -0.81753529129E+01  0.27899677252E+02 -0.99664198727E+01  0.30733660880E+02  0.00000000000E+00 0. -1.
</event>
<event>
 5    1  0.1111613E-009  0.9118800E+02  0.7818608E-02  0.1130116E+00
         25   -1    0    0    0    0  0.00000000000E+00  0.00000000000E+00  0.99999998245E-14  0.12500000000E+03  0.12500000000E+03 0.  0.
        -11    1    3    3    0    0  0.22433983671E+02  0.43566232943E+02  0.16816056553E+02  0.51808107807E+02  0.51100000000E-03 0. -1.
         23    2    1    0    0    0  0.30275136642E+02  0.50969524285E+01  0.57948663861E+00  0.94293345550E+02  0.89153442936E+02 0.  0.
         11    1    3    3    0    0  0.78411529709E+01 -0.38469280515E+02 -0.16236569914E+02  0.42485237743E+02  0.51100000000E-03 0.  1.
         22    1    1    0    0    0 -0.30275136642E+02 -0.50969524285E+01 -0.57948663861E+00  0.30706654450E+02  0.00000000000E+00 0.  1.
</event>
<event>
 5    1  0.1111613E-009  0.9118800E+02  0.7818608E-02  0.1130116E+00
         25   -1    0    0    0    0  0.00000000000E+00  0.00000000000E+00  0.99999998245E-14  0.12500000000E+03  0.12500000000E+03 0.  0.
        -11    1    3    3    0    0 -0.67691833965E+00 -0.12296472078E+02 -0.41572633096E+02  0.43358335609E+02  0.51100000000E-03 0.  1.
         23    2    1    0    0    0 -0.90052014548E+01 -0.26287163421E+02  0.84440926509E+01  0.95958455367E+02  0.91458262840E+02 0.  0.
         11    1    3    3    0    0 -0.83282831152E+01 -0.13990691343E+02  0.50016725747E+02  0.52600119758E+02  0.51100000000E-03 0. -1.
         22    1    1    0    0    0  0.90052014548E+01  0.26287163421E+02 -0.84440926509E+01  0.29041544633E+02  0.00000000000E+00 0. -1.
</event>
<event>
 5    1  0.1111613E-009  0.9118800E+02  0.7818608E-02  0.1130116E+00
         25   -1    0    0    0    0  0.00000000000E+00  0.00000000000E+00  0.99999998245E-14  0.12500000000E+03  0.12500000000E+03 0.  0.
        -11    1    3    3    0    0 -0.26669457372E+02  0.37080883466E+02 -0.16315397840E+02  0.48502000805E+02  0.51100000000E-03 0.  1.
         23    2    1    0    0    0 -0.43675256212E+01  0.44617938144E+01 -0.33014691728E+02  0.91400107828E+02  0.85000158570E+02 0.  0.
         11    1    3    3    0    0  0.22301931751E+02 -0.32619089652E+02 -0.16699293888E+02  0.42898107023E+02  0.51100000000E-03 0. -1.
         22    1    1    0    0    0  0.43675256212E+01 -0.44617938144E+01  0.33014691728E+02  0.33599892172E+02  0.00000000000E+00 0.  1.
</event>
<event>
 5    1  0.1111613E-009  0.9118800E+02  0.7818608E-02  0.1130116E+00
         25   -1    0    0    0    0  0.00000000000E+00  0.00000000000E+00  0.99999998245E-14  0.12500000000E+03  0.12500000000E+03 0.  0.
        -11    1    3    3    0    0 -0.25641946218E+02  0.36700237991E+02  0.30601311529E+02  0.54229670310E+02  0.51100000000E-03 0.  1.
         23    2    1    0    0    0  0.58501697364E+01  0.27117102186E+02  0.31710016155E+01  0.97078378124E+02  0.92976311666E+02 0.  0.
         11    1    3    3    0    0  0.31492115954E+02 -0.95831358045E+01 -0.27430309913E+02  0.42848707814E+02  0.51100000000E-03 0. -1.
         22    1    1    0    0    0 -0.58501697364E+01 -0.27117102186E+02 -0.31710016155E+01  0.27921621876E+02  0.00000000000E+00 0.  1.
</event>
<event>
 5    1  0.1111613E-009  0.9118800E+02  0.7818608E-02  0.1130116E+00
         25   -1    0    0    0    0  0.00000000000E+00  0.00000000000E+00  0.99999998245E-14  0.12500000000E+03  0.12500000000E+03 0.  0.
        -11    1    3    3    0    0 -0.33972297004E+02 -0.59666512524E+01  0.51812699016E+02  0.62243663697E+02  0.51100000000E-03 0.  1.
         23    2    1    0    0    0 -0.14611784723E+02 -0.66057863359E+01  0.23829968743E+02  0.96277046179E+02  0.91892663171E+02 0.  0.
         11    1    3    3    0    0  0.19360512281E+02 -0.63913508353E+00 -0.27982730272E+02  0.34033382482E+02  0.51100000000E-03 0. -1.
         22    1    1    0    0    0  0.14611784723E+02  0.66057863359E+01 -0.23829968743E+02  0.28722953821E+02  0.00000000000E+00 0.  1.
</event>
<event>
 5    1  0.1111613E-009  0.9118800E+02  0.7818608E-02  0.1130116E+00
         25   -1    0    0    0    0  0.00000000000E+00  0.00000000000E+00  0.99999998245E-14  0.12500000000E+03  0.12500000000E+03 0.  0.
        -11    1    3    3    0    0  0.38515331110E+02 -0.99969864493E+01 -0.24983733211E+02  0.46984650621E+02  0.51100000000E-03 0. -1.
         23    2    1    0    0    0 -0.13169193656E+01 -0.29496201819E+02 -0.88589226785E+01  0.94174025410E+02  0.88985989642E+02 0.  0.
         11    1    3    3    0    0 -0.39832250476E+02 -0.19499215370E+02  0.16124810533E+02  0.47189374789E+02  0.51100000000E-03 0.  1.
         22    1    1    0    0    0  0.13169193656E+01  0.29496201819E+02  0.88589226785E+01  0.30825974590E+02  0.00000000000E+00 0.  1.
</event>
<event>
 5    1  0.1111613E-009  0.9118800E+02  0.7818608E-02  0.1130116E+00
         25   -1    0    0    0    0  0.00000000000E+00  0.00000000000E+00  0.99999998245E-14  0.12500000000E+03  0.12500000000E+03 0.  0.
        -11    1    3    3    0    0 -0.21856437749E+02  0.14041977907E+02  0.33186510342E+02  0.42145290171E+02  0.51100000000E-03 0.  1.
         23    2    1    0    0    0  0.33024292913E+00 -0.28200897858E+02  0.12457998400E+02  0.94168175135E+02  0.88977771290E+02 0.  0.
         11    1    3    3    0    0  0.22186680678E+02 -0.42242875765E+02 -0.20728511942E+02  0.52022884964E+02  0.51100000000E-03 0. -1.
         22    1    1    0    0    0 -0.33024292913E+00  0.28200897858E+02 -0.12457998400E+02  0.30831824865E+02  0.00000000000E+00 0. -1.
</event>
<event>
 5    1  0.1111613E-009  0.9118800E+02  0.7818608E-02  0.1130116E+00
         25   -1    0    0    0    0  0.00000000000E+00  0.00000000000E+00  0.99999998245E-14  0.12500000000E+03  0.12500000000E+03 0.  0.
        -11    1    3    3    0    0  0.36883215809E+02  0.27095680787E+02 -0.21099344244E+02  0.50395732493E+02  0.51100000000E-03 0.  1.
         23    2    1    0    0    0  0.89063588641E+01 -0.69787740842E+01 -0.27795636113E+02  0.94989603421E+02  0.90124363272E+02 0.  0.
         11    1    3    3    0    0 -0.27976856945E+02 -0.34074454871E+02 -0.66962918684E+01  0.44593870928E+02  0.51100000000E-03 0. -1.
         22    1    1    0    0    0 -0.89063588641E+01  0.69787740842E+01  0.27795636113E+02  0.30010396579E+02  0.00000000000E+00 0.  1.
</event>
<event>
 5    1  0.1111613E-009  0.9118800E+02  0.7818608E-02  0.1130116E+00
         25   -1    0    0    0    0  0.00000000000E+00  0.00000000000E+00  0.99999998245E-14  0.12500000000E+03  0.12500000000E+03 0.  0.
        -11    1    3    3    0    0  0.44386210664E+01  0.61182720464E+01 -0.34181815276E+02  0.35007586401E+02  0.51100000000E-03 0. -1.
         23    2    1    0    0    0 -0.19514775050E+02 -0.42668656333E+01  0.20977161087E+02  0.96033228091E+02  0.91560400953E+02 0.  0.
         11    1    3    3    0    0 -0.23953396116E+02 -0.10385137680E+02  0.55158976362E+02  0.61025641690E+02  0.51100000000E-03 0.  1.
         22    1    1    0    0    0  0.19514775050E+02  0.42668656333E+01 -0.20977161087E+02  0.28966771909E+02  0.00000000000E+00 0.  1.
</event>
<event>
 5    1  0.1111613E-009  0.9118800E+02  0.7818608E-02  0.1130116E+00
         25   -1    0    0    0    0  0.00000000000E+00  0.00000000000E+00  0.99999998245E-14  0.12500000000E+03  0.12500000000E+03 0.  0.
        -11    1    3    3    0    0  0.23608362385E+02  0.11747945399E+02  0.26622848437E+02  0.37471923553E+02  0.51100000000E-03 0. -1.
         23    2    1    0    0    0  0.65303570793E+01 -0.16147979150E+02 -0.22535492699E+02  0.96517527752E+02  0.92219205906E+02 0.  0.
         11    1    3    3    0    0 -0.17078005305E+02 -0.27895924550E+02 -0.49158341136E+02  0.59045604198E+02  0.51100000000E-03 0.  1.
         22    1    1    0    0    0 -0.65303570793E+01  0.16147979150E+02  0.22535492699E+02  0.28482472248E+02  0.00000000000E+00 0.  1.
</event>
<event>
 5    1  0.1111613E-009  0.9118800E+02  0.7818608E-02  0.1130116E+00
         25   -1    0    0    0    0  0.00000000000E+00  0.00000000000E+00  0.99999998245E-14  0.12500000000E+03  0.12500000000E+03 0.  0.
        -11    1    3    3    0    0 -0.16821733735E+02 -0.85003168038E+01  0.32072107276E+02  0.37200083024E+02  0.51100000000E-03 0.  1.
         23    2    1    0    0    0  0.56041775793E+01 -0.19094012979E+02 -0.21176080910E+02  0.95941188243E+02  0.91434660063E+02 0.  0.
         11    1    3    3    0    0  0.22425911315E+02 -0.10593696176E+02 -0.53248188186E+02  0.58741105219E+02  0.51100000000E-03 0. -1.
         22    1    1    0    0    0 -0.56041775793E+01  0.19094012979E+02  0.21176080910E+02  0.29058811757E+02  0.00000000000E+00 0. -1.
</event>
<event>
 5    1  0.1111613E-009  0.9118800E+02  0.7818608E-02  0.1130116E+00
         25   -1    0    0    0    0  0.00000000000E+00  0.00000000000E+00  0.99999998245E-14  0.12500000000E+03  0.12500000000E+03 0.  0.
        -11    1    3    3    0    0  0.19244906517E+02  0.11044666243E+02  0.49527062284E+02  0.54270442950E+02  0.51100000000E-03 0. -1.
         23    2    1    0    0    0  0.76180247340E+01 -0.17171497723E+02  0.26574251523E+02  0.92456406484E+02  0.86539595684E+02 0.  0.
         11    1    3    3    0    0 -0.11626881783E+02 -0.28216163965E+02 -0.22952810761E+02  0.38185963534E+02  0.51100000000E-03 0.  1.
         22    1    1    0    0    0 -0.76180247340E+01  0.17171497723E+02 -0.26574251523E+02  0.32543593516E+02  0.00000000000E+00 0. -1.
</event>
<event>
 5    1  0.1111613E-009  0.9118800E+02  0.7818608E-02  0.1130116E+00
         25   -1    0    0    0    0  0.00000000000E+00  0.00000000000E+00  0.99999998245E-14  0.12500000000E+03  0.12500000000E+03 0.  0.
        -11    1    3    3    0    0 -0.35306307322E+02  0.97833624898E+01  0.34690050154E+02  0.50454425953E+02  0.51100000000E-03 0. -1.
         23    2    1    0    0    0 -0.42373230558E+01  0.28963814997E+02  0.12583841747E+02  0.93137630989E+02  0.87518042410E+02 0.  0.
         11    1    3    3    0    0  0.31068984266E+02  0.19180452508E+02 -0.22106208407E+02  0.42683205036E+02  0.51100000000E-03 0.  1.
         22    1    1    0    0    0  0.42373230558E+01 -0.28963814997E+02 -0.12583841747E+02  0.31862369011E+02  0.00000000000E+00 0. -1.
</event>
<event>
 5    1  0.1111613E-009  0.9118800E+02  0.7818608E-02  0.1130116E+00
         25   -1    0    0    0    0  0.00000000000E+00  0.00000000000E+00  0.99999998245E-14  0.12500000000E+03  0.12500000000E+03 0.  0.
        -11    1    3    3    0    0  0.31216280200E+02 -0.26309530914E+02  0.26349328879E+02  0.48589450491E+02  0.51100000000E-03 0.  1.
         23    2    1    0    0    0  0.12750478210E+02 -0.19817291008E+02 -0.16859548105E+02  0.96025112946E+02  0.91549321333E+02 0.  0.
         11    1    3    3    0    0 -0.18465801990E+02  0.64922399054E+01 -0.43208876983E+02  0.47435662455E+02  0.51100000000E-03 0. -1.
         22    1    1    0    0    0 -0.12750478210E+02  0.19817291008E+02  0.16859548105E+02  0.28974887054E+02  0.00000000000E+00 0.  1.
</event>
<event>
 5    1  0.1111613E-009  0.9118800E+02  0.7818608E-02  0.1130116E+00
         25   -1    0    0    0    0  0.00000000000E+00  0.00000000000E+00  0.99999998245E-14  0.12500000000E+03  0.12500000000E+03 0.  0.
        -11    1    3    3    0    0  0.11884647234E+02 -0.31657312594E+02 -0.17665881983E+02  0.38151194831E+02  0.51100000000E-03 0. -1.
         23    2    1    0    0    0 -0.24473732555E+01  0.24207886996E+02 -0.16057104945E+02  0.95847949508E+02  0.91307104746E+02 0.  0.
         11    1    3    3    0    0 -0.14332020489E+02  0.55865199590E+02  0.16087770378E+01  0.57696754677E+02  0.51100000000E-03 0.  1.
         22    1    1    0    0    0  0.24473732555E+01 -0.24207886996E+02  0.16057104945E+02  0.29152050492E+02  0.00000000000E+00 0.  1.
</event>
<event>
 5    1  0.1111613E-009  0.9118800E+02  0.7818608E-02  0.1130116E+00
         25   -1    0    0    0    0  0.00000000000E+00  0.00000000000E+00  0.99999998245E-14  0.12500000000E+03  0.12500000000E+03 0.  0.
        -11    1    3    3    0    0 -0.29080841782E+02  0.43650700559E+02  0.21980617979E+02  0.56870260990E+02  0.51100000000E-03 0. -1.
         23    2    1    0    0    0 -0.33228456166E+01  0.15567204879E+02  0.25286396485E+02  0.95120558608E+02  0.90305811839E+02 0.  0.
         11    1    3    3    0    0  0.25757996166E+02 -0.28083495679E+02  0.33057785053E+01  0.38250297618E+02  0.51100000000E-03 0.  1.
         22    1    1    0    0    0  0.33228456166E+01 -0.15567204879E+02 -0.25286396485E+02  0.29879441392E+02  0.00000000000E+00 0. -1.
</event>
<event>
 5    1  0.1111613E-009  0.9118800E+02  0.7818608E-02  0.1130116E+00
         25   -1    0    0    0    0  0.00000000000E+00  0.00000000000E+00  0.99999998245E-14  0.12500000000E+03  0.12500000000E+03 0.  0.
        -11    1    3    3    0    0  0.37156529827E+02 -0.96100906050E+01 -0.39821635683E+02  0.55305734051E+02  0.51100000000E-03 0.  1.
         23    2    1    0    0    0  0.17497471797E+02  0.16770302993E+02 -0.15308633593E+02  0.96333663571E+02  0.91969646584E+02 0.  0.
         11    1    3    3    0    0 -0.19659058030E+02  0.26380393598E+02  0.24513002090E+02  0.41027929520E+02  0.51100000000E-03 0. -1.
         22    1    1    0    0    0 -0.17497471797E+02 -0.16770302993E+02  0.15308633593E+02  0.28666336429E+02  0.00000000000E+00 0.  1.
</event>
<event>
 5    1  0.1111613E-009  0.9118800E+02  0.7818608E-02  0.1130116E+00
         25   -1    0    0    0    0  0.00000000000E+00  0.00000000000E+00  0.99999998245E-14  0.12500000000E+03  0.12500000000E+03 0.  0.
        -11    1    3    3    0    0  0.50038734469E+02 -0.24236749197E+02  0.53541417516E+01  0.55856618167E+02  0.51100000000E-03 0. -1.
         23    2    1    0    0    0  0.13593374196E+02 -0.26542120132E+02  0.11782199651E+02  0.92936248009E+02  0.87229937534E+02 0.  0.
         11    1    3    3    0    0 -0.36445360273E+02 -0.23053709346E+01  0.64280578996E+01  0.37079629842E+02  0.51100000000E-03 0.  1.
         22    1    1    0    0    0 -0.13593374196E+02  0.26542120132E+02 -0.11782199651E+02  0.32063751991E+02  0.00000000000E+00 0. -1.
</event>
<event>
 5    1  0.1111613E-009  0.9118800E+02  0.7818608E-02  0.1130116E+00
         25   -1    0    0    0    0  0.00000000000E+00  0.00000000000E+00  0.99999998245E-14  0.12500000000E+03  0.12500000000E+03 0.  0.
        -11    1    3    3    0    0  0.12165115558E+02  0.52681247870E+02  0.51255327970E+01  0.54309989876E+02  0.51100000000E-03 0. -1.
         23    2    1    0    0    0  0.43081981047E+01  0.21416784784E+02 -0.20154847016E+02  0.95276993765E+02  0.90522088141E+02 0.  0.
         11    1    3    3    0    0 -0.78569174534E+01 -0.31264463086E+02 -0.25280379813E+02  0.40967003889E+02  0.51100000000E-03 0.  1.
         22    1    1    0    0    0 -0.43081981047E+01 -0.21416784784E+02  0.20154847016E+02  0.29723006235E+02  0.00000000000E+00 0.  1.
</event>
<event>
 5    1  0.1111613E-009  0.9118800E+02  0.7818608E-02  0.1130116E+00
         25   -1    0    0    0    0  0.00000000000E+00  0.00000000000E+00  0.99999998245E-14  0.12500000000E+03  0.12500000000E+03 0.  0.
        -11    1    3    3    0    0  0.73384631257E+01 -0.18255035645E+02  0.33468192817E+02  0.38822922329E+02  0.51100000000E-03 0. -1.
         23    2    1    0    0    0  0.12947606827E+02 -0.91708731493E+01 -0.23423964626E+02  0.96708171574E+02  0.92477256088E+02 0.  0.
         11    1    3    3    0    0  0.56091437014E+01  0.90841624959E+01 -0.56892157444E+02  0.57885249245E+02  0.51100000000E-03 0.  1.
         22    1    1    0    0    0 -0.12947606827E+02  0.91708731493E+01  0.23423964626E+02  0.28291828426E+02  0.00000000000E+00 0.  1.
</event>
<event>
 5    1  0.1111613E-009  0.9118800E+02  0.7818608E-02  0.1130116E+00
         25   -1    0    0    0    0  0.00000000000E+00  0.00000000000E+00  0.99999998245E-14  0.12500000000E+03  0.12500000000E+03 0.  0.
        -11    1    3    3    0    0  0.47285993830E+02  0.31773904106E+02 -0.21685593167E+02  0.60957453571E+02  0.51100000000E-03 0. -1.
         23    2    1    0    0    0  0.26881495508E+02  0.13336807503E+02 -0.17172446924E+01  0.94942818421E+02  0.90059450394E+02 0.  0.
         11    1    3    3    0    0 -0.20404498322E+02 -0.18437096602E+02  0.19968348474E+02  0.33985364849E+02  0.51100000000E-03 0.  1.
         22    1    1    0    0    0 -0.26881495508E+02 -0.13336807503E+02  0.17172446924E+01  0.30057181579E+02  0.00000000000E+00 0. -1.
</event>
<event>
 5    1  0.1111613E-009  0.9118800E+02  0.7818608E-02  0.1130116E+00
         25   -1    0    0    0    0  0.00000000000E+00  0.00000000000E+00  0.99999998245E-14  0.12500000000E+03  0.12500000000E+03 0.  0.
        -11    1    3    3    0    0 -0.56060079292E+02  0.12015843207E+02 -0.15219904206E+02  0.59319123919E+02  0.51100000000E-03 0.  1.
         23    2    1    0    0    0 -0.20718083859E+02  0.14957715953E+02 -0.16106051609E+02  0.94794418335E+02  0.89853239138E+02 0.  0.
         11    1    3    3    0    0  0.35341995433E+02  0.29418727466E+01 -0.88614740233E+00  0.35475294416E+02  0.51100000000E-03 0. -1.
         22    1    1    0    0    0  0.20718083859E+02 -0.14957715953E+02  0.16106051609E+02  0.30205581665E+02  0.00000000000E+00 0.  1.
</event>
<event>
 5    1  0.1111613E-009  0.9118800E+02  0.7818608E-02  0.1130116E+00
         25   -1    0    0    0    0  0.00000000000E+00  0.00000000000E+00  0.99999998245E-14  0.12500000000E+03  0.12500000000E+03 0.  0.
        -11    1    3    3    0    0  0.12603374269E+02 -0.30706004254E+02 -0.17393712400E+02  0.37473256752E+02  0.51100000000E-03 0.  1.
         23    2    1    0    0    0  0.21357022197E+01  0.74934620459E+01  0.26959335832E+02  0.96937231321E+02  0.92786355841E+02 0.  0.
         11    1    3    3    0    0 -0.10467672050E+02  0.38199466300E+02  0.44353048233E+02  0.59463974569E+02  0.51100000000E-03 0. -1.
         22    1    1    0    0    0 -0.21357022197E+01 -0.74934620459E+01 -0.26959335832E+02  0.28062768679E+02  0.00000000000E+00 0. -1.
</event>
<event>
 5    1  0.1111613E-009  0.9118800E+02  0.7818608E-02  0.1130116E+00
         25   -1    0    0    0    0  0.00000000000E+00  0.00000000000E+00  0.99999998245E-14  0.12500000000E+03  0.12500000000E+03 0.  0.
        -11    1    3    3    0    0 -0.17482880983E+02 -0.38717731517E+02 -0.29057805871E+01  0.42581186249E+02  0.51100000000E-03 0. -1.
         23    2    1    0    0    0 -0.21254427723E+02  0.88437684823E+01  0.19066768144E+02  0.95108452930E+02  0.90289053780E+02 0.  0.
         11    1    3    3    0    0 -0.37715467394E+01  0.47561499999E+02  0.21972548731E+02  0.52527266681E+02  0.51100000000E-03 0.  1.
         22    1    1    0    0    0  0.21254427723E+02 -0.88437684823E+01 -0.19066768144E+02  0.29891547070E+02  0.00000000000E+00 0.  1.
</event>
<event>
 5    1  0.1111613E-009  0.9118800E+02  0.7818608E-02  0.1130116E+00
         25   -1    0    0    0    0  0.00000000000E+00  0.00000000000E+00  0.99999998245E-14  0.12500000000E+03  0.12500000000E+03 0.  0.
        -11    1    3    3    0    0  0.46780919355E+02  0.70310011376E+01 -0.24132598769E+02  0.53106230485E+02  0.51100000000E-03 0. -1.
         23    2    1    0    0    0  0.24393391904E+02  0.19045302880E+01  0.13396298744E+02  0.97105096806E+02  0.93012226086E+02 0.  0.
         11    1    3    3    0    0 -0.22387527451E+02 -0.51264708496E+01  0.37528897513E+02  0.43998866321E+02  0.51100000000E-03 0.  1.
         22    1    1    0    0    0 -0.24393391904E+02 -0.19045302880E+01 -0.13396298744E+02  0.27894903194E+02  0.00000000000E+00 0. -1.
</event>
<event>
 5    1  0.1111613E-009  0.9118800E+02  0.7818608E-02  0.1130116E+00
         25   -1    0    0    0    0  0.00000000000E+00  0.00000000000E+00  0.99999998245E-14  0.12500000000E+03  0.12500000000E+03 0.  0.
        -11    1    3    3    0    0  0.27932491537E+02 -0.19391807267E+02  0.22048480727E+02  0.40526556420E+02  0.51100000000E-03 0. -1.
         23    2    1    0    0    0  0.13925102416E+02  0.21630926367E+02 -0.12911955239E+02  0.96215906461E+02  0.91809458201E+02 0.  0.
         11    1    3    3    0    0 -0.14007389122E+02  0.41022733634E+02 -0.34960435966E+02  0.55689350041E+02  0.51100000000E-03 0.  1.
         22    1    1    0    0    0 -0.13925102416E+02 -0.21630926367E+02  0.12911955239E+02  0.28784093539E+02  0.00000000000E+00 0.  1.
</event>
<event>
 5    1  0.1111613E-009  0.9118800E+02  0.7818608E-02  0.1130116E+00
         25   -1    0    0    0    0  0.00000000000E+00  0.00000000000E+00  0.99999998245E-14  0.12500000000E+03  0.12500000000E+03 0.  0.
        -11    1    3    3    0    0  0.32123491757E+02 -0.11983973775E+02  0.19158986820E+01  0.34339554716E+02  0.51100000000E-03 0.  1.
         23    2    1    0    0    0 -0.17253519526E+02  0.23760778762E+02  0.41855219260E+01  0.95338962641E+02  0.90607619217E+02 0.  0.
         11    1    3    3    0    0 -0.49377011283E+02  0.35744752538E+02  0.22696232439E+01  0.60999407924E+02  0.51100000000E-03 0. -1.
         22    1    1    0    0    0  0.17253519526E+02 -0.23760778762E+02 -0.41855219260E+01  0.29661037359E+02  0.00000000000E+00 0. -1.
</event>
<event>
 5    1  0.1111613E-009  0.9118800E+02  0.7818608E-02  0.1130116E+00
         25   -1    0    0    0    0  0.00000000000E+00  0.00000000000E+00  0.99999998245E-14  0.12500000000E+03  0.12500000000E+03 0.  0.
        -11    1    3    3    0    0  0.29320806443E+01  0.29507799780E+02 -0.52718798248E+02  0.60486188785E+02  0.51100000000E-03 0. -1.
         23    2    1    0    0    0  0.76039332305E+01  0.55275841086E+01 -0.28910807920E+02  0.94599197359E+02  0.89581244352E+02 0.  0.
         11    1    3    3    0    0  0.46718525861E+01 -0.23980215672E+02  0.23807990328E+02  0.34113008574E+02  0.51100000000E-03 0.  1.
         22    1    1    0    0    0 -0.76039332305E+01 -0.55275841086E+01  0.28910807920E+02  0.30400802641E+02  0.00000000000E+00 0. -1.
</event>
<event>
 5    1  0.1111613E-009  0.9118800E+02  0.7818608E-02  0.1130116E+00
         25   -1    0    0    0    0  0.00000000000E+00  0.00000000000E+00  0.99999998245E-14  0.12500000000E+03  0.12500000000E+03 0.  0.
        -11    1    3    3    0    0 -0.26413040104E+02 -0.99543512123E+01 -0.49345365375E+02  0.56848068391E+02  0.51100000000E-03 0. -1.
         23    2    1    0    0    0 -0.25022056929E+02  0.61028442611E+01 -0.14021691734E+02  0.95674995650E+02  0.91070022030E+02 0.  0.
         11    1    3    3    0    0  0.13909831752E+01  0.16057195473E+02  0.35323673640E+02  0.38826927259E+02  0.51100000000E-03 0.  1.
         22    1    1    0    0    0  0.25022056929E+02 -0.61028442611E+01  0.14021691734E+02  0.29325004350E+02  0.00000000000E+00 0. -1.
</event>
<event>
 5    1  0.1111613E-009  0.9118800E+02  0.7818608E-02  0.1130116E+00
         25   -1    0    0    0    0  0.00000000000E+00  0.00000000000E+00  0.99999998245E-14  0.12500000000E+03  0.12500000000E+03 0.  0.
        -11    1    3    3    0    0 -0.41689138230E+02 -0.14018573558E+02 -0.18285026785E+01  0.44020995824E+02  0.51100000000E-03 0.  1.
         23    2    1    0    0    0 -0.10758602816E+02  0.25263392828E+02  0.10643053881E+02  0.95550702086E+02  0.90899260291E+02 0.  0.
         11    1    3    3    0    0  0.30930535415E+02  0.39281966386E+02  0.12471556559E+02  0.51529706262E+02  0.51100000000E-03 0. -1.
         22    1    1    0    0    0  0.10758602816E+02 -0.25263392828E+02 -0.10643053881E+02  0.29449297914E+02  0.00000000000E+00 0. -1.
</event>
<event>
 5    1  0.1111613E-009  0.9118800E+02  0.7818608E-02  0.1130116E+00
         25   -1    0    0    0    0  0.00000000000E+00  0.00000000000E+00  0.99999998245E-14  0.12500000000E+03  0.12500000000E+03 0.  0.
        -11    1    3    3    0    0  0.29930300138E+01 -0.40107242997E+01 -0.31901465136E+02  0.32291602874E+02  0.51100000000E-03 0. -1.
         23    2    1    0    0    0  0.12643620508E+02 -0.87915331398E+01  0.27941397244E+02  0.93095864305E+02  0.87458367674E+02 0.  0.
         11    1    3    3    0    0  0.96505904939E+01 -0.47808088401E+01  0.59842862380E+02  0.60804261431E+02  0.51100000000E-03 0.  1.
         22    1    1    0    0    0 -0.12643620508E+02  0.87915331398E+01 -0.27941397244E+02  0.31904135695E+02  0.00000000000E+00 0.  1.
</event>
<event>
 5    1  0.1111613E-009  0.9118800E+02  0.7818608E-02  0.1130116E+00
         25   -1    0    0    0    0  0.00000000000E+00  0.00000000000E+00  0.99999998245E-14  0.12500000000E+03  0.12500000000E+03 0.  0.
        -11    1    3    3    0    0  0.61934875466E+02 -0.55527252706E+01  0.18104191516E+01  0.62209638921E+02  0.51100000000E-03 0. -1.
         23    2    1    0    0    0  0.27727865618E+02 -0.67344340467E+01  0.11224123161E+01  0.96443968359E+02  0.92119444689E+02 0.  0.
         11    1    3    3    0    0 -0.34207009848E+02 -0.11817087761E+01 -0.68800683549E+00  0.34234329438E+02  0.51100000000E-03 0.  1.
         22    1    1    0    0    0 -0.27727865618E+02  0.67344340467E+01 -0.11224123161E+01  0.28556031641E+02  0.00000000000E+00 0. -1.
</event>
<event>
 5    1  0.1111613E-009  0.9118800E+02  0.7818608E-02  0.1130116E+00
         25   -1    0    0    0    0  0.00000000000E+00  0.00000000000E+00  0.99999998245E-14  0.12500000000E+03  0.12500000000E+03 0.  0.
        -11    1    3    3    0    0 -0.32758642721E+02 -0.49477740633E+02  0.82356409404E+01  0.59908273828E+02  0.51100000000E-03 0.  1.
         23    2    1    0    0    0 -0.30207064611E+02 -0.23866375419E+02  0.81624016736E+01  0.85646532184E+02  0.76069922084E+02 0.  0.
         11    1    3    3    0    0  0.25515781100E+01  0.25611365213E+02 -0.73239266771E-01  0.25738258356E+02  0.51100000000E-03 0. -1.
         22    1    1    0    0    0  0.30207064611E+02  0.23866375419E+02 -0.81624016736E+01  0.39353467816E+02  0.00000000000E+00 0.  1.
</event>
<event>
 5    1  0.1111613E-009  0.9118800E+02  0.7818608E-02  0.1130116E+00
         25   -1    0    0    0    0  0.00000000000E+00  0.00000000000E+00  0.99999998245E-14  0.12500000000E+03  0.12500000000E+03 0.  0.
        -11    1    3    3    0    0  0.40152960469E+02  0.39860172040E+02 -0.78808758397E+01  0.57124440949E+02  0.51100000000E-03 0. -1.
         23    2    1    0    0    0  0.24418120537E+02  0.11143275939E+02  0.12178980245E+02  0.95525523431E+02  0.90864629299E+02 0.  0.
         11    1    3    3    0    0 -0.15734839932E+02 -0.28716896101E+02  0.20059856085E+02  0.38401082482E+02  0.51100000000E-03 0.  1.
         22    1    1    0    0    0 -0.24418120537E+02 -0.11143275939E+02 -0.12178980245E+02  0.29474476569E+02  0.00000000000E+00 0. -1.
</event>
<event>
 5    1  0.1111613E-009  0.9118800E+02  0.7818608E-02  0.1130116E+00
         25   -1    0    0    0    0  0.00000000000E+00  0.00000000000E+00  0.99999998245E-14  0.12500000000E+03  0.12500000000E+03 0.  0.
        -11    1    3    3    0    0 -0.20932907912E+02 -0.16578187077E+02 -0.20755269307E+02  0.33820173339E+02  0.51100000000E-03 0.  1.
         23    2    1    0    0    0  0.94507615300E+01  0.19038114483E+02  0.19943943407E+02  0.95853343670E+02  0.91314489089E+02 0.  0.
         11    1    3    3    0    0  0.30383669442E+02  0.35616301560E+02  0.40699212714E+02  0.62033170331E+02  0.51100000000E-03 0. -1.
         22    1    1    0    0    0 -0.94507615300E+01 -0.19038114483E+02 -0.19943943407E+02  0.29146656330E+02  0.00000000000E+00 0. -1.
</event>
<event>
 5    1  0.1111613E-009  0.9118800E+02  0.7818608E-02  0.1130116E+00
         25   -1    0    0    0    0  0.00000000000E+00  0.00000000000E+00  0.99999998245E-14  0.12500000000E+03  0.12500000000E+03 0.  0.
        -11    1    3    3    0    0  0.32903955516E+02 -0.63250463399E+01  0.45354835042E+01  0.33811937399E+02  0.51100000000E-03 0.  1.
         23    2    1    0    0    0 -0.13676843472E+02 -0.33645676677E+02 -0.39130590192E+01  0.88470564783E+02  0.80576927192E+02 0.  0.
         11    1    3    3    0    0 -0.46580798989E+02 -0.27320630337E+02 -0.84485425235E+01  0.54658627383E+02  0.51100000000E-03 0. -1.
         22    1    1    0    0    0  0.13676843472E+02  0.33645676677E+02  0.39130590192E+01  0.36529435217E+02  0.00000000000E+00 0. -1.
</event>
<event>
 5    1  0.1111613E-009  0.9118800E+02  0.7818608E-02  0.1130116E+00
         25   -1    0    0    0    0  0.00000000000E+00  0.00000000000E+00  0.99999998245E-14  0.12500000000E+03  0.12500000000E+03 0.  0.
        -11    1    3    3    0    0 -0.17445204139E+02 -0.29199602951E+02 -0.10341013288E+02  0.35551209768E+02  0.51100000000E-03 0.  1.
         23    2    1    0    0    0 -0.82755482528E+01  0.22188214283E+02  0.18281649993E+02  0.95083110482E+02  0.90253961800E+02 0.  0.
         11    1    3    3    0    0  0.91696558859E+01  0.51387817234E+02  0.28622663280E+02  0.59531900714E+02  0.51100000000E-03 0. -1.
         22    1    1    0    0    0  0.82755482528E+01 -0.22188214283E+02 -0.18281649993E+02  0.29916889518E+02  0.00000000000E+00 0. -1.
</event>
<event>
 5    1  0.1111613E-009  0.9118800E+02  0.7818608E-02  0.1130116E+00
         25   -1    0    0    0    0  0.00000000000E+00  0.00000000000E+00  0.99999998245E-14  0.12500000000E+03  0.12500000000E+03 0.  0.
        -11    1    3    3    0    0 -0.15897673318E+02  0.41881983597E+02 -0.18204691702E+02  0.48355427484E+02  0.51100000000E-03 0. -1.
         23    2    1    0    0    0  0.91823941240E+00  0.19932326735E+02  0.20806452632E+02  0.96172074584E+02  0.91749761013E+02 0.  0.
         11    1    3    3    0    0  0.16815912731E+02 -0.21949656862E+02  0.39011144334E+02  0.47816647100E+02  0.51100000000E-03 0.  1.
         22    1    1    0    0    0 -0.91823941240E+00 -0.19932326735E+02 -0.20806452632E+02  0.28827925416E+02  0.00000000000E+00 0.  1.
</event>
<event>
 5    1  0.1111613E-009  0.9118800E+02  0.7818608E-02  0.1130116E+00
         25   -1    0    0    0    0  0.00000000000E+00  0.00000000000E+00  0.99999998245E-14  0.12500000000E+03  0.12500000000E+03 0.  0.
        -11    1    3    3    0    0  0.31237803635E+02 -0.12421054298E+02 -0.23733761487E+02  0.41150630619E+02  0.51100000000E-03 0. -1.
         23    2    1    0    0    0  0.12498259703E+02  0.16129873040E+02  0.19857754382E+02  0.96527035473E+02  0.92232092399E+02 0.  0.
         11    1    3    3    0    0 -0.18739543931E+02  0.28550927337E+02  0.43591515868E+02  0.55376404854E+02  0.51100000000E-03 0.  1.
         22    1    1    0    0    0 -0.12498259703E+02 -0.16129873040E+02 -0.19857754382E+02  0.28472964527E+02  0.00000000000E+00 0.  1.
</event>
<event>
 5    1  0.1111613E-009  0.9118800E+02  0.7818608E-02  0.1130116E+00
         25   -1    0    0    0    0  0.00000000000E+00  0.00000000000E+00  0.99999998245E-14  0.12500000000E+03  0.12500000000E+03 0.  0.
        -11    1    3    3    0    0 -0.42097128441E+02 -0.23133046256E+01  0.25275428752E+02  0.49156555006E+02  0.51100000000E-03 0. -1.
         23    2    1    0    0    0 -0.21590668922E+02 -0.19668996312E+02 -0.10559107152E+02  0.93943259279E+02  0.88661236285E+02 0.  0.
         11    1    3    3    0    0  0.20506459519E+02 -0.17355691686E+02 -0.35834535903E+02  0.44786704272E+02  0.51100000000E-03 0.  1.
         22    1    1    0    0    0  0.21590668922E+02  0.19668996312E+02  0.10559107152E+02  0.31056740721E+02  0.00000000000E+00 0.  1.
</event>
<event>
 5    1  0.1111613E-009  0.9118800E+02  0.7818608E-02  0.1130116E+00
         25   -1    0    0    0    0  0.00000000000E+00  0.00000000000E+00  0.99999998245E-14  0.12500000000E+03  0.12500000000E+03 0.  0.
        -11    1    3    3    0    0  0.32036681219E+02  0.15390860860E+02 -0.51750859348E+01  0.35916696065E+02  0.51100000000E-03 0.  1.
         23    2    1    0    0    0 -0.27239437876E+02  0.11184694939E+02 -0.32738794580E+01  0.95372265301E+02  0.90653551090E+02 0.  0.
         11    1    3    3    0    0 -0.59276119096E+02 -0.42061659203E+01  0.19012064768E+01  0.59455569235E+02  0.51100000000E-03 0. -1.
         22    1    1    0    0    0  0.27239437876E+02 -0.11184694939E+02  0.32738794580E+01  0.29627734699E+02  0.00000000000E+00 0. -1.
</event>
<event>
 5    1  0.1111613E-009  0.9118800E+02  0.7818608E-02  0.1130116E+00
         25   -1    0    0    0    0  0.00000000000E+00  0.00000000000E+00  0.99999998245E-14  0.12500000000E+03  0.12500000000E+03 0.  0.
        -11    1    3    3    0    0 -0.75032546857E+01  0.11003985301E+02 -0.57688381990E+02  0.59205877582E+02  0.51100000000E-03 0. -1.
         23    2    1    0    0    0 -0.17683502150E+01 -0.92057049058E+01 -0.27191645578E+02  0.96237912897E+02  0.91839415418E+02 0.  0.
         11    1    3    3    0    0  0.57349044707E+01 -0.20209690207E+02  0.30496736412E+02  0.37032035315E+02  0.51100000000E-03 0.  1.
         22    1    1    0    0    0  0.17683502150E+01  0.92057049058E+01  0.27191645578E+02  0.28762087103E+02  0.00000000000E+00 0. -1.
</event>
<event>
 5    1  0.1111613E-009  0.9118800E+02  0.7818608E-02  0.1130116E+00
         25   -1    0    0    0    0  0.00000000000E+00  0.00000000000E+00  0.99999998245E-14  0.12500000000E+03  0.12500000000E+03 0.  0.
        -11    1    3    3    0    0 -0.38748643597E+02 -0.21698040957E+02 -0.37227022298E+02  0.57949232535E+02  0.51100000000E-03 0.  1.
         23    2    1    0    0    0 -0.68033606938E+01 -0.22534759902E+02 -0.12552348168E+02  0.98322995575E+02  0.94634818612E+02 0.  0.
         11    1    3    3    0    0  0.31945282903E+02 -0.83671894453E+00  0.24674674130E+02  0.40373763040E+02  0.51100000000E-03 0. -1.
         22    1    1    0    0    0  0.68033606938E+01  0.22534759902E+02  0.12552348168E+02  0.26677004425E+02  0.00000000000E+00 0.  1.
</event>
<event>
 5    1  0.1111613E-009  0.9118800E+02  0.7818608E-02  0.1130116E+00
         25   -1    0    0    0    0  0.00000000000E+00  0.00000000000E+00  0.99999998245E-14  0.12500000000E+03  0.12500000000E+03 0.  0.
        -11    1    3    3    0    0  0.21229975255E+02 -0.24684842034E+02  0.17348806134E+02  0.36892199042E+02  0.51100000000E-03 0. -1.
         23    2    1    0    0    0 -0.23635640548E+02 -0.57329254704E+01 -0.15971557466E+02  0.95903598394E+02  0.91383256664E+02 0.  0.
         11    1    3    3    0    0 -0.44865615803E+02  0.18951916564E+02 -0.33320363599E+02  0.59011399352E+02  0.51100000000E-03 0.  1.
         22    1    1    0    0    0  0.23635640548E+02  0.57329254704E+01  0.15971557466E+02  0.29096401606E+02  0.00000000000E+00 0.  1.
</event>
<event>
 5    1  0.1111613E-009  0.9118800E+02  0.7818608E-02  0.1130116E+00
         25   -1    0    0    0    0  0.00000000000E+00  0.00000000000E+00  0.99999998245E-14  0.12500000000E+03  0.12500000000E+03 0.  0.
        -11    1    3    3    0    0  0.33558820522E+02 -0.99215561288E+01  0.24839732872E+02  0.42914380343E+02  0.51100000000E-03 0. -1.
         23    2    1    0    0    0  0.29250018306E+01 -0.25146497314E+02 -0.15116605572E+02  0.95514177527E+02  0.90849019707E+02 0.  0.
         11    1    3    3    0    0 -0.30633818691E+02 -0.15224941186E+02 -0.39956338443E+02  0.52599797184E+02  0.51100000000E-03 0.  1.
         22    1    1    0    0    0 -0.29250018306E+01  0.25146497314E+02  0.15116605572E+02  0.29485822473E+02  0.00000000000E+00 0.  1.
</event>
<event>
 5    1  0.1111613E-009  0.9118800E+02  0.7818608E-02  0.1130116E+00
         25   -1    0    0    0    0  0.00000000000E+00  0.00000000000E+00  0.99999998245E-14  0.12500000000E+03  0.12500000000E+03 0.  0.
        -11    1    3    3    0    0 -0.40518117556E+02  0.16903714029E+02 -0.82978707042E+01  0.44680063303E+02  0.51100000000E-03 0.  1.
         23    2    1    0    0    0 -0.11299201828E+02 -0.27941950752E+01  0.27638403253E+02  0.95010654851E+02  0.90153556296E+02 0.  0.
         11    1    3    3    0    0  0.29218915728E+02 -0.19697909104E+02  0.35936273957E+02  0.50330591548E+02  0.51100000000E-03 0. -1.
         22    1    1    0    0    0  0.11299201828E+02  0.27941950752E+01 -0.27638403253E+02  0.29989345149E+02  0.00000000000E+00 0. -1.
</event>
<event>
 5    1  0.1111613E-009  0.9118800E+02  0.7818608E-02  0.1130116E+00
         25   -1    0    0    0    0  0.00000000000E+00  0.00000000000E+00  0.99999998245E-14  0.12500000000E+03  0.12500000000E+03 0.  0.
        -11    1    3    3    0    0  0.50991954665E+02 -0.30004369868E+02  0.13217029845E+02  0.60622863096E+02  0.51100000000E-03 0.  1.
         23    2    1    0    0    0  0.30604348089E+02 -0.64947940380E+01  0.21889604052E+01  0.93637601826E+02  0.88229249438E+02 0.  0.
         11    1    3    3    0    0 -0.20387606576E+02  0.23509575830E+02 -0.11028069440E+02  0.33014738730E+02  0.51100000000E-03 0. -1.
         22    1    1    0    0    0 -0.30604348089E+02  0.64947940380E+01 -0.21889604052E+01  0.31362398174E+02  0.00000000000E+00 0.  1.
</event>
<event>
 5    1  0.1111613E-009  0.9118800E+02  0.7818608E-02  0.1130116E+00
         25   -1    0    0    0    0  0.00000000000E+00  0.00000000000E+00  0.99999998245E-14  0.12500000000E+03  0.12500000000E+03 0.  0.
        -11    1    3    3    0    0 -0.24139227216E+02  0.53223169107E+02 -0.25693203009E+01  0.58497943788E+02  0.51100000000E-03 0. -1.
         23    2    1    0    0    0  0.10256679104E+01  0.27137371652E+02  0.87475779705E+01  0.96469156073E+02  0.92153616414E+02 0.  0.
         11    1    3    3    0    0  0.25164895127E+02 -0.26085797455E+02  0.11316898271E+02  0.37971212284E+02  0.51100000000E-03 0.  1.
         22    1    1    0    0    0 -0.10256679104E+01 -0.27137371652E+02 -0.87475779705E+01  0.28530843927E+02  0.00000000000E+00 0. -1.
</event>
<event>
 5    1  0.1111613E-009  0.9118800E+02  0.7818608E-02  0.1130116E+00
         25   -1    0    0    0    0  0.00000000000E+00  0.00000000000E+00  0.99999998245E-14  0.12500000000E+03  0.12500000000E+03 0.  0.
        -11    1    3    3    0    0  0.32090735835E+02  0.16198659914E+01 -0.12522831497E+02  0.34485657907E+02  0.51100000000E-03 0.  1.
         23    2    1    0    0    0 -0.27903769405E+02  0.57820019574E+01  0.22580483823E+01  0.96414152520E+02  0.92078977677E+02 0.  0.
         11    1    3    3    0    0 -0.59994505240E+02  0.41621359660E+01  0.14780879879E+02  0.61928494614E+02  0.51100000000E-03 0. -1.
         22    1    1    0    0    0  0.27903769405E+02 -0.57820019574E+01 -0.22580483823E+01  0.28585847480E+02  0.00000000000E+00 0. -1.
</event>
<event>
 5    1  0.1111613E-009  0.9118800E+02  0.7818608E-02  0.1130116E+00
         25   -1    0    0    0    0  0.00000000000E+00  0.00000000000E+00  0.99999998245E-14  0.12500000000E+03  0.12500000000E+03 0.  0.
        -11    1    3    3    0    0  0.21586323083E+02 -0.36121090062E+02  0.37493806028E+01  0.42246424069E+02  0.51100000000E-03 0.  1.
         23    2    1    0    0    0 -0.22502736702E+02 -0.91207586728E+01  0.16683899814E+02  0.95539621339E+02  0.90884021339E+02 0.  0.
         11    1    3    3    0    0 -0.44089059784E+02  0.27000331389E+02  0.12934519211E+02  0.53293197270E+02  0.51100000000E-03 0. -1.
         22    1    1    0    0    0  0.22502736702E+02  0.91207586728E+01 -0.16683899814E+02  0.29460378661E+02  0.00000000000E+00 0. -1.
</event>
<event>
 5    1  0.1111613E-009  0.9118800E+02  0.7818608E-02  0.1130116E+00
         25   -1    0    0    0    0  0.00000000000E+00  0.00000000000E+00  0.99999998245E-14  0.12500000000E+03  0.12500000000E+03 0.  0.
        -11    1    3    3    0    0  0.47390371730E+02 -0.31045507619E+02  0.60399558192E+01  0.56975011563E+02  0.51100000000E-03 0. -1.
         23    2    1    0    0    0  0.16232173951E+02 -0.18809286784E+02 -0.14484688376E+02  0.96241019874E+02  0.91843644138E+02 0.  0.
         11    1    3    3    0    0 -0.31158197778E+02  0.12236220835E+02 -0.20524644195E+02  0.39266008312E+02  0.51100000000E-03 0.  1.
         22    1    1    0    0    0 -0.16232173951E+02  0.18809286784E+02  0.14484688376E+02  0.28758980126E+02  0.00000000000E+00 0. -1.
</event>
<event>
 5    1  0.1111613E-009  0.9118800E+02  0.7818608E-02  0.1130116E+00
         25   -1    0    0    0    0  0.00000000000E+00  0.00000000000E+00  0.99999998245E-14  0.12500000000E+03  0.12500000000E+03 0.  0.
        -11    1    3    3    0    0  0.27898902921E+02  0.43426490019E+02 -0.27885230507E+02  0.58666812597E+02  0.51100000000E-03 0.  1.
         23    2    1    0    0    0 -0.90174170254E+00  0.26116238807E+02 -0.81946909495E+01  0.97613433452E+02  0.93692893877E+02 0.  0.
         11    1    3    3    0    0 -0.28800644624E+02 -0.17310251212E+02  0.19690539558E+02  0.38946620856E+02  0.51100000000E-03 0. -1.
         22    1    1    0    0    0  0.90174170254E+00 -0.26116238807E+02  0.81946909495E+01  0.27386566548E+02  0.00000000000E+00 0.  1.
</event>
<event>
 5    1  0.1111613E-009  0.9118800E+02  0.7818608E-02  0.1130116E+00
         25   -1    0    0    0    0  0.00000000000E+00  0.00000000000E+00  0.99999998245E-14  0.12500000000E+03  0.12500000000E+03 0.  0.
        -11    1    3    3    0    0  0.24662168910E+02  0.53004157716E+02  0.96826202486E+01  0.59257205854E+02  0.51100000000E-03 0. -1.
         23    2    1    0    0    0  0.16572934565E+02  0.23754927674E+02 -0.87235881055E+01  0.94750045648E+02  0.89791488527E+02 0.  0.
         11    1    3    3    0    0 -0.80892343450E+01 -0.29249230042E+02 -0.18406208354E+02  0.35492839793E+02  0.51100000000E-03 0.  1.
         22    1    1    0    0    0 -0.16572934565E+02 -0.23754927674E+02  0.87235881055E+01  0.30249954352E+02  0.00000000000E+00 0. -1.
</event>
<event>
 5    1  0.1111613E-009  0.9118800E+02  0.7818608E-02  0.1130116E+00
         25   -1    0    0    0    0  0.00000000000E+00  0.00000000000E+00  0.99999998245E-14  0.12500000000E+03  0.12500000000E+03 0.  0.
        -11    1    3    3    0    0 -0.44912887059E+02  0.29927251697E+02 -0.29036131023E+02  0.61285436469E+02  0.51100000000E-03 0. -1.
         23    2    1    0    0    0 -0.26369953721E+02  0.85228699232E+01 -0.94419104538E+01  0.95722646226E+02  0.91135402323E+02 0.  0.
         11    1    3    3    0    0  0.18542933338E+02 -0.21404381774E+02  0.19594220569E+02  0.34437209758E+02  0.51100000000E-03 0.  1.
         22    1    1    0    0    0  0.26369953721E+02 -0.85228699232E+01  0.94419104538E+01  0.29277353774E+02  0.00000000000E+00 0. -1.
</event>
<event>
 5    1  0.1111613E-009  0.9118800E+02  0.7818608E-02  0.1130116E+00
         25   -1    0    0    0    0  0.00000000000E+00  0.00000000000E+00  0.99999998245E-14  0.12500000000E+03  0.12500000000E+03 0.  0.
        -11    1    3    3    0    0 -0.34988590980E+02  0.77467650251E+01  0.87394959939E+01  0.36886212297E+02  0.51100000000E-03 0. -1.
         23    2    1    0    0    0  0.24562347253E+02 -0.51433095913E+01  0.10391236680E+02  0.97838624191E+02  0.93992851045E+02 0.  0.
         11    1    3    3    0    0  0.59550938233E+02 -0.12890074616E+02  0.16517406860E+01  0.60952411893E+02  0.51100000000E-03 0.  1.
         22    1    1    0    0    0 -0.24562347253E+02  0.51433095913E+01 -0.10391236680E+02  0.27161375809E+02  0.00000000000E+00 0.  1.
</event>
<event>
 5    1  0.1111613E-009  0.9118800E+02  0.7818608E-02  0.1130116E+00
         25   -1    0    0    0    0  0.00000000000E+00  0.00000000000E+00  0.99999998245E-14  0.12500000000E+03  0.12500000000E+03 0.  0.
        -11    1    3    3    0    0  0.15434118252E+02 -0.11406784519E+02  0.28586152786E+02  0.34431016114E+02  0.51100000000E-03 0. -1.
         23    2    1    0    0    0 -0.12301302674E+02  0.17705434926E+02 -0.18671107083E+02  0.96479573756E+02  0.92167746197E+02 0.  0.
         11    1    3    3    0    0 -0.27735420926E+02  0.29112219445E+02 -0.47257259869E+02  0.62048557643E+02  0.51100000000E-03 0.  1.
         22    1    1    0    0    0  0.12301302674E+02 -0.17705434926E+02  0.18671107083E+02  0.28520426244E+02  0.00000000000E+00 0.  1.
</event>
<event>
 5    1  0.1111613E-009  0.9118800E+02  0.7818608E-02  0.1130116E+00
         25   -1    0    0    0    0  0.00000000000E+00  0.00000000000E+00  0.99999998245E-14  0.12500000000E+03  0.12500000000E+03 0.  0.
        -11    1    3    3    0    0 -0.30471660258E+02  0.13272846035E+02  0.59358110261E+01  0.33762766083E+02  0.51100000000E-03 0.  1.
         23    2    1    0    0    0  0.27466701779E+02 -0.90706240211E+01  0.97734356301E+00  0.96057796780E+02  0.91593936454E+02 0.  0.
         11    1    3    3    0    0  0.57938362038E+02 -0.22343470056E+02 -0.49584674630E+01  0.62295030697E+02  0.51100000000E-03 0. -1.
         22    1    1    0    0    0 -0.27466701779E+02  0.90706240211E+01 -0.97734356301E+00  0.28942203220E+02  0.00000000000E+00 0. -1.
</event>
<event>
 5    1  0.1111613E-009  0.9118800E+02  0.7818608E-02  0.1130116E+00
         25   -1    0    0    0    0  0.00000000000E+00  0.00000000000E+00  0.99999998245E-14  0.12500000000E+03  0.12500000000E+03 0.  0.
        -11    1    3    3    0    0  0.45153256775E+02 -0.68986881349E+01 -0.11540437940E+01  0.45691796996E+02  0.51100000000E-03 0.  1.
         23    2    1    0    0    0  0.31672622232E+01 -0.30459234136E+02 -0.49206482173E+01  0.93983725675E+02  0.88718269926E+02 0.  0.
         11    1    3    3    0    0 -0.41985994552E+02 -0.23560546001E+02 -0.37666044234E+01  0.48291928679E+02  0.51100000000E-03 0. -1.
         22    1    1    0    0    0 -0.31672622232E+01  0.30459234136E+02  0.49206482173E+01  0.31016274325E+02  0.00000000000E+00 0.  1.
</event>
<event>
 5    1  0.1111613E-009  0.9118800E+02  0.7818608E-02  0.1130116E+00
         25   -1    0    0    0    0  0.00000000000E+00  0.00000000000E+00  0.99999998245E-14  0.12500000000E+03  0.12500000000E+03 0.  0.
        -11    1    3    3    0    0 -0.17900106434E+02  0.43851405678E+02 -0.44410212808E+01  0.47571864170E+02  0.51100000000E-03 0. -1.
         23    2    1    0    0    0 -0.28181867131E+02 -0.30905452670E+01  0.40192593149E+01  0.96365692772E+02  0.92013168584E+02 0.  0.
         11    1    3    3    0    0 -0.10281760696E+02 -0.46941950945E+02  0.84602805957E+01  0.48793828602E+02  0.51100000000E-03 0.  1.
         22    1    1    0    0    0  0.28181867131E+02  0.30905452670E+01 -0.40192593149E+01  0.28634307228E+02  0.00000000000E+00 0. -1.
</event>
<event>
 5    1  0.1111613E-009  0.9118800E+02  0.7818608E-02  0.1130116E+00
         25   -1    0    0    0    0  0.00000000000E+00  0.00000000000E+00  0.99999998245E-14  0.12500000000E+03  0.12500000000E+03 0.  0.
        -11    1    3    3    0    0 -0.41124850527E+02  0.41011488652E+02 -0.11459899220E+02  0.59199027211E+02  0.51100000000E-03 0.  1.
         23    2    1    0    0    0 -0.11021934182E+02  0.20606169006E+02 -0.17156592505E+02  0.96009555012E+02  0.91528076310E+02 0.  0.
         11    1    3    3    0    0  0.30102916346E+02 -0.20405319646E+02 -0.56966932850E+01  0.36810527801E+02  0.51100000000E-03 0. -1.
         22    1    1    0    0    0  0.11021934182E+02 -0.20606169006E+02  0.17156592505E+02  0.28990444988E+02  0.00000000000E+00 0.  1.
</event>
<event>
 5    1  0.1111613E-009  0.9118800E+02  0.7818608E-02  0.1130116E+00
         25   -1    0    0    0    0  0.00000000000E+00  0.00000000000E+00  0.99999998245E-14  0.12500000000E+03  0.12500000000E+03 0.  0.
        -11    1    3    3    0    0 -0.17656544080E+01  0.27797750324E+02 -0.25191173221E+02  0.37555660919E+02  0.51100000000E-03 0. -1.
         23    2    1    0    0    0 -0.13796287944E+02 -0.25460716229E+02 -0.60307330584E+01  0.95420355426E+02  0.90719837171E+02 0.  0.
         11    1    3    3    0    0 -0.12030633536E+02 -0.53258466553E+02  0.19160440163E+02  0.57864694506E+02  0.51100000000E-03 0.  1.
         22    1    1    0    0    0  0.13796287944E+02  0.25460716229E+02  0.60307330584E+01  0.29579644574E+02  0.00000000000E+00 0.  1.
</event>
<event>
 5    1  0.1111613E-009  0.9118800E+02  0.7818608E-02  0.1130116E+00
         25   -1    0    0    0    0  0.00000000000E+00  0.00000000000E+00  0.99999998245E-14  0.12500000000E+03  0.12500000000E+03 0.  0.
        -11    1    3    3    0    0 -0.69411189748E+01 -0.27956428408E+02 -0.17685083534E+02  0.33800934925E+02  0.51100000000E-03 0.  1.
         23    2    1    0    0    0 -0.71799705302E+01  0.26921173826E+01  0.31953431372E+02  0.92139366268E+02  0.86080436610E+02 0.  0.
         11    1    3    3    0    0 -0.23885155542E+00  0.30648545790E+02  0.49638514907E+02  0.58338431343E+02  0.51100000000E-03 0. -1.
         22    1    1    0    0    0  0.71799705302E+01 -0.26921173826E+01 -0.31953431372E+02  0.32860633732E+02  0.00000000000E+00 0. -1.
</event>
<event>
 5    1  0.1111613E-009  0.9118800E+02  0.7818608E-02  0.1130116E+00
         25   -1    0    0    0    0  0.00000000000E+00  0.00000000000E+00  0.99999998245E-14  0.12500000000E+03  0.12500000000E+03 0.  0.
        -11    1    3    3    0    0 -0.56632502205E-01  0.40377036480E+02 -0.33275343945E+02  0.52321666612E+02  0.51100000000E-03 0.  1.
         23    2    1    0    0    0 -0.48109713882E+01  0.17717052030E+01 -0.33389875844E+02  0.91218818938E+02  0.84733138350E+02 0.  0.
         11    1    3    3    0    0 -0.47543388860E+01 -0.38605331277E+02 -0.11453189968E+00  0.38897152326E+02  0.51100000000E-03 0. -1.
         22    1    1    0    0    0  0.48109713882E+01 -0.17717052030E+01  0.33389875844E+02  0.33781181062E+02  0.00000000000E+00 0.  1.
</event>
<event>
 5    1  0.1111613E-009  0.9118800E+02  0.7818608E-02  0.1130116E+00
         25   -1    0    0    0    0  0.00000000000E+00  0.00000000000E+00  0.99999998245E-14  0.12500000000E+03  0.12500000000E+03 0.  0.
        -11    1    3    3    0    0  0.72920594343E+01 -0.75066383834E+01 -0.35990099912E+02  0.37480808990E+02  0.51100000000E-03 0.  1.
         23    2    1    0    0    0 -0.17516469705E+02 -0.18258636683E+02  0.15278726523E+02  0.95442530409E+02  0.90750386237E+02 0.  0.
         11    1    3    3    0    0 -0.24808529140E+02 -0.10751998300E+02  0.51268826435E+02  0.57961721419E+02  0.51100000000E-03 0. -1.
         22    1    1    0    0    0  0.17516469705E+02  0.18258636683E+02 -0.15278726523E+02  0.29557469591E+02  0.00000000000E+00 0. -1.
</event>
<event>
 5    1  0.1111613E-009  0.9118800E+02  0.7818608E-02  0.1130116E+00
         25   -1    0    0    0    0  0.00000000000E+00  0.00000000000E+00  0.99999998245E-14  0.12500000000E+03  0.12500000000E+03 0.  0.
        -11    1    3    3    0    0  0.13912585165E+02 -0.34089193345E+02  0.12023824002E+02  0.38732486014E+02  0.51100000000E-03 0.  1.
         23    2    1    0    0    0  0.21786473097E+02  0.18061753665E+02 -0.86897102709E+01  0.95396141804E+02  0.90686467850E+02 0.  0.
         11    1    3    3    0    0  0.78738879317E+01  0.52150947010E+02 -0.20713534273E+02  0.56663655791E+02  0.51100000000E-03 0. -1.
         22    1    1    0    0    0 -0.21786473097E+02 -0.18061753665E+02  0.86897102709E+01  0.29603858196E+02  0.00000000000E+00 0. -1.
</event>
<event>
 5    1  0.1111613E-009  0.9118800E+02  0.7818608E-02  0.1130116E+00
         25   -1    0    0    0    0  0.00000000000E+00  0.00000000000E+00  0.99999998245E-14  0.12500000000E+03  0.12500000000E+03 0.  0.
        -11    1    3    3    0    0  0.44733231430E+02 -0.28225445932E+02  0.21850923636E+02  0.57229368826E+02  0.51100000000E-03 0. -1.
         23    2    1    0    0    0  0.26025410907E+02  0.34544916398E+01  0.29808838671E+01  0.98577638372E+02  0.94970572247E+02 0.  0.
         11    1    3    3    0    0 -0.18707820523E+02  0.31679937572E+02 -0.18870039769E+02  0.41348269546E+02  0.51100000000E-03 0.  1.
         22    1    1    0    0    0 -0.26025410907E+02 -0.34544916398E+01 -0.29808838671E+01  0.26422361628E+02  0.00000000000E+00 0. -1.
</event>
<event>
 5    1  0.1111613E-009  0.9118800E+02  0.7818608E-02  0.1130116E+00
         25   -1    0    0    0    0  0.00000000000E+00  0.00000000000E+00  0.99999998245E-14  0.12500000000E+03  0.12500000000E+03 0.  0.
        -11    1    3    3    0    0  0.19193961888E+02  0.50873414561E+02 -0.25944277164E+02  0.60246311089E+02  0.51100000000E-03 0.  1.
         23    2    1    0    0    0 -0.21878158747E+01  0.25633909585E+02 -0.15635483001E+02  0.94894316358E+02  0.89992105706E+02 0.  0.
         11    1    3    3    0    0 -0.21381777763E+02 -0.25239504976E+02  0.10308794163E+02  0.34648005268E+02  0.51100000000E-03 0. -1.
         22    1    1    0    0    0  0.21878158747E+01 -0.25633909585E+02  0.15635483001E+02  0.30105683642E+02  0.00000000000E+00 0.  1.
</event>
<event>
 5    1  0.1111613E-009  0.9118800E+02  0.7818608E-02  0.1130116E+00
         25   -1    0    0    0    0  0.00000000000E+00  0.00000000000E+00  0.99999998245E-14  0.12500000000E+03  0.12500000000E+03 0.  0.
        -11    1    3    3    0    0  0.16456142076E+02 -0.28738997765E+02 -0.76911713573E+01  0.33998363515E+02  0.51100000000E-03 0. -1.
         23    2    1    0    0    0  0.17235252972E+01  0.26366877205E+02  0.14087723282E+02  0.95055940484E+02  0.90216324028E+02 0.  0.
         11    1    3    3    0    0 -0.14732616779E+02  0.55105874971E+02  0.21778894639E+02  0.61057576970E+02  0.51100000000E-03 0.  1.
         22    1    1    0    0    0 -0.17235252972E+01 -0.26366877205E+02 -0.14087723282E+02  0.29944059516E+02  0.00000000000E+00 0.  1.
</event>
<event>
 5    1  0.1111613E-009  0.9118800E+02  0.7818608E-02  0.1130116E+00
         25   -1    0    0    0    0  0.00000000000E+00  0.00000000000E+00  0.99999998245E-14  0.12500000000E+03  0.12500000000E+03 0.  0.
        -11    1    3    3    0    0  0.21009041282E+02  0.41904474340E+02 -0.18360610375E-01  0.46876061296E+02  0.51100000000E-03 0.  1.
         23    2    1    0    0    0  0.24442074690E+02 -0.96441256919E+01 -0.25485413393E+01  0.98600772010E+02  0.95001015797E+02 0.  0.
         11    1    3    3    0    0  0.34330334082E+01 -0.51548600032E+02 -0.25301807289E+01  0.51724710714E+02  0.51100000000E-03 0. -1.
         22    1    1    0    0    0 -0.24442074690E+02  0.96441256919E+01  0.25485413393E+01  0.26399227990E+02  0.00000000000E+00 0.  1.
</event>
<event>
 5    1  0.1111613E-009  0.9118800E+02  0.7818608E-02  0.1130116E+00
         25   -1    0    0    0    0  0.00000000000E+00  0.00000000000E+00  0.99999998245E-14  0.12500000000E+03  0.12500000000E+03 0.  0.
        -11    1    3    3    0    0 -0.58269580180E+02  0.34710144707E+01 -0.25836888158E+01  0.58430021085E+02  0.51100000000E-03 0.  1.
         23    2    1    0    0    0 -0.28665949984E+02  0.10998999170E+02 -0.14279305983E+02  0.91138321799E+02  0.84614304050E+02 0.  0.
         11    1    3    3    0    0  0.29603630196E+02  0.75279846991E+01 -0.11695617167E+02  0.32708300714E+02  0.51100000000E-03 0. -1.
         22    1    1    0    0    0  0.28665949984E+02 -0.10998999170E+02  0.14279305983E+02  0.33861678201E+02  0.00000000000E+00 0.  1.
</event>
<event>
 5    1  0.1111613E-009  0.9118800E+02  0.7818608E-02  0.1130116E+00
         25   -1    0    0    0    0  0.00000000000E+00  0.00000000000E+00  0.99999998245E-14  0.12500000000E+03  0.12500000000E+03 0.  0.
        -11    1    3    3    0    0 -0.44955332513E+02  0.15780845918E+01 -0.27886747115E+02  0.52925824861E+02  0.51100000000E-03 0.  1.
         23    2    1    0    0    0 -0.65192892836E+01 -0.15935681008E+02 -0.24166285736E+02  0.95327513953E+02  0.90591823517E+02 0.  0.
         11    1    3    3    0    0  0.38436043230E+02 -0.17513765600E+02  0.37204613782E+01  0.42401689091E+02  0.51100000000E-03 0. -1.
         22    1    1    0    0    0  0.65192892836E+01  0.15935681008E+02  0.24166285736E+02  0.29672486047E+02  0.00000000000E+00 0.  1.
</event>
<event>
 5    1  0.1111613E-009  0.9118800E+02  0.7818608E-02  0.1130116E+00
         25   -1    0    0    0    0  0.00000000000E+00  0.00000000000E+00  0.99999998245E-14  0.12500000000E+03  0.12500000000E+03 0.  0.
        -11    1    3    3    0    0 -0.85072609230E+01 -0.49482990463E+02  0.28998537857E+02  0.57981505945E+02  0.51100000000E-03 0.  1.
         23    2    1    0    0    0 -0.18668764163E+02 -0.22446025265E+02  0.23809148339E+02  0.87327432392E+02  0.78783615669E+02 0.  0.
         11    1    3    3    0    0 -0.10161503240E+02  0.27036965197E+02 -0.51893895181E+01  0.29345926447E+02  0.51100000000E-03 0. -1.
         22    1    1    0    0    0  0.18668764163E+02  0.22446025265E+02 -0.23809148339E+02  0.37672567608E+02  0.00000000000E+00 0.  1.
</event>
<event>
 5    1  0.1111613E-009  0.9118800E+02  0.7818608E-02  0.1130116E+00
         25   -1    0    0    0    0  0.00000000000E+00  0.00000000000E+00  0.99999998245E-14  0.12500000000E+03  0.12500000000E+03 0.  0.
        -11    1    3    3    0    0 -0.33518067253E+02 -0.41543348139E+02  0.30929184989E+02  0.61692180147E+02  0.51100000000E-03 0.  1.
         23    2    1    0    0    0 -0.20677809808E+02 -0.14720279591E+02  0.12186234417E+02  0.96843956972E+02  0.92660613224E+02 0.  0.
         11    1    3    3    0    0  0.12840257445E+02  0.26823068548E+02 -0.18742950572E+02  0.35151776825E+02  0.51100000000E-03 0. -1.
         22    1    1    0    0    0  0.20677809808E+02  0.14720279591E+02 -0.12186234417E+02  0.28156043028E+02  0.00000000000E+00 0.  1.
</event>
<event>
 5    1  0.1111613E-009  0.9118800E+02  0.7818608E-02  0.1130116E+00
         25   -1    0    0    0    0  0.00000000000E+00  0.00000000000E+00  0.99999998245E-14  0.12500000000E+03  0.12500000000E+03 0.  0.
        -11    1    3    3    0    0 -0.40727267510E+02 -0.57303458782E+01 -0.15599503308E+01  0.41157995918E+02  0.51100000000E-03 0. -1.
         23    2    1    0    0    0  0.55832083588E+01 -0.58370506419E+00 -0.29153442620E+02  0.95311009721E+02  0.90569047860E+02 0.  0.
         11    1    3    3    0    0  0.46310475869E+02  0.51466408141E+01 -0.27593492290E+02  0.54153013802E+02  0.51100000000E-03 0.  1.
         22    1    1    0    0    0 -0.55832083588E+01  0.58370506419E+00  0.29153442620E+02  0.29688990279E+02  0.00000000000E+00 0.  1.
</event>
<event>
 5    1  0.1111613E-009  0.9118800E+02  0.7818608E-02  0.1130116E+00
         25   -1    0    0    0    0  0.00000000000E+00  0.00000000000E+00  0.99999998245E-14  0.12500000000E+03  0.12500000000E+03 0.  0.
        -11    1    3    3    0    0  0.22384358926E+02  0.25762738945E+02  0.22609896040E+02  0.40938803618E+02  0.51100000000E-03 0.  1.
         23    2    1    0    0    0  0.18453973831E+02 -0.23000807688E+02 -0.14883447626E+01  0.95473715530E+02  0.90793330606E+02 0.  0.
         11    1    3    3    0    0 -0.39303850946E+01 -0.48763546633E+02 -0.24098240803E+02  0.54534911912E+02  0.51100000000E-03 0. -1.
         22    1    1    0    0    0 -0.18453973831E+02  0.23000807688E+02  0.14883447626E+01  0.29526284470E+02  0.00000000000E+00 0. -1.
</event>
<event>
 5    1  0.1111613E-009  0.9118800E+02  0.7818608E-02  0.1130116E+00
         25   -1    0    0    0    0  0.00000000000E+00  0.00000000000E+00  0.99999998245E-14  0.12500000000E+03  0.12500000000E+03 0.  0.
        -11    1    3    3    0    0 -0.37239586326E+02  0.35772680999E+02 -0.60238402911E+01  0.51988057741E+02  0.51100000000E-03 0.  1.
         23    2    1    0    0    0 -0.73290210229E+01  0.67726143772E+01 -0.25233742472E+02  0.97864698016E+02  0.94027519929E+02 0.  0.
         11    1    3    3    0    0  0.29910565303E+02 -0.29000066621E+02 -0.19209902180E+02  0.45876640274E+02  0.51100000000E-03 0. -1.
         22    1    1    0    0    0  0.73290210229E+01 -0.67726143772E+01  0.25233742472E+02  0.27135301984E+02  0.00000000000E+00 0.  1.
</event>
<event>
 5    1  0.1111613E-009  0.9118800E+02  0.7818608E-02  0.1130116E+00
         25   -1    0    0    0    0  0.00000000000E+00  0.00000000000E+00  0.99999998245E-14  0.12500000000E+03  0.12500000000E+03 0.  0.
        -11    1    3    3    0    0  0.14813250833E+02 -0.34350145529E+02  0.48475336337E+02  0.61230900135E+02  0.51100000000E-03 0.  1.
         23    2    1    0    0    0  0.60184604688E+01 -0.83632310608E+01  0.27092196851E+02  0.96014613502E+02  0.91534984435E+02 0.  0.
         11    1    3    3    0    0 -0.87947903644E+01  0.25986914468E+02 -0.21383139486E+02  0.34783713367E+02  0.51100000000E-03 0. -1.
         22    1    1    0    0    0 -0.60184604688E+01  0.83632310608E+01 -0.27092196851E+02  0.28985386498E+02  0.00000000000E+00 0.  1.
</event>
<event>
 5    1  0.1111613E-009  0.9118800E+02  0.7818608E-02  0.1130116E+00
         25   -1    0    0    0    0  0.00000000000E+00  0.00000000000E+00  0.99999998245E-14  0.12500000000E+03  0.12500000000E+03 0.  0.
        -11    1    3    3    0    0  0.27308529983E+02 -0.17514150757E+02  0.38429555355E+02  0.50292464760E+02  0.51100000000E-03 0.  1.
         23    2    1    0    0    0  0.81911831831E+01 -0.27878727627E+02 -0.16548795027E+01  0.95895746665E+02  0.91372515924E+02 0.  0.
         11    1    3    3    0    0 -0.19117346800E+02 -0.10364576870E+02 -0.40084434858E+02  0.45603281905E+02  0.51100000000E-03 0. -1.
         22    1    1    0    0    0 -0.81911831831E+01  0.27878727627E+02  0.16548795027E+01  0.29104253335E+02  0.00000000000E+00 0.  1.
</event>
<event>
 5    1  0.1111613E-009  0.9118800E+02  0.7818608E-02  0.1130116E+00
         25   -1    0    0    0    0  0.00000000000E+00  0.00000000000E+00  0.99999998245E-14  0.12500000000E+03  0.12500000000E+03 0.  0.
        -11    1    3    3    0    0  0.24268270761E+02 -0.81015386174E+01 -0.27209849730E+02  0.37349160851E+02  0.51100000000E-03 0. -1.
         23    2    1    0    0    0  0.57440220806E+01  0.22085477594E+02  0.18814664100E+02  0.95423764685E+02  0.90724534561E+02 0.  0.
         11    1    3    3    0    0 -0.18524248680E+02  0.30187016211E+02  0.46024513830E+02  0.58074603834E+02  0.51100000000E-03 0.  1.
         22    1    1    0    0    0 -0.57440220806E+01 -0.22085477594E+02 -0.18814664100E+02  0.29576235315E+02  0.00000000000E+00 0.  1.
</event>
<event>
 5    1  0.1111613E-009  0.9118800E+02  0.7818608E-02  0.1130116E+00
         25   -1    0    0    0    0  0.00000000000E+00  0.00000000000E+00  0.99999998245E-14  0.12500000000E+03  0.12500000000E+03 0.  0.
        -11    1    3    3    0    0  0.23076493522E+01 -0.39009577002E+02 -0.12890293491E+02  0.41148900471E+02  0.51100000000E-03 0.  1.
         23    2    1    0    0    0  0.12422780648E+02 -0.24502451996E+01  0.26374186233E+02  0.95743771944E+02  0.91164373448E+02 0.  0.
         11    1    3    3    0    0  0.10115131296E+02  0.36559331802E+02  0.39264479725E+02  0.54594871474E+02  0.51100000000E-03 0. -1.
         22    1    1    0    0    0 -0.12422780648E+02  0.24502451996E+01 -0.26374186233E+02  0.29256228056E+02  0.00000000000E+00 0.  1.
</event>
<event>
 5    1  0.1111613E-009  0.9118800E+02  0.7818608E-02  0.1130116E+00
         25   -1    0    0    0    0  0.00000000000E+00  0.00000000000E+00  0.99999998245E-14  0.12500000000E+03  0.12500000000E+03 0.  0.
        -11    1    3    3    0    0 -0.10623121138E+02 -0.31442035692E+02  0.22506970952E+02  0.40100075472E+02  0.51100000000E-03 0. -1.
         23    2    1    0    0    0  0.15179032804E+02 -0.11866114843E+02 -0.22391078900E+02  0.95460735746E+02  0.90775458889E+02 0.  0.
         11    1    3    3    0    0  0.25802153942E+02  0.19575920849E+02 -0.44898049853E+02  0.55360660274E+02  0.51100000000E-03 0.  1.
         22    1    1    0    0    0 -0.15179032804E+02  0.11866114843E+02  0.22391078900E+02  0.29539264254E+02  0.00000000000E+00 0.  1.
</event>
<event>
 5    1  0.1111613E-009  0.9118800E+02  0.7818608E-02  0.1130116E+00
         25   -1    0    0    0    0  0.00000000000E+00  0.00000000000E+00  0.99999998245E-14  0.12500000000E+03  0.12500000000E+03 0.  0.
        -11    1    3    3    0    0 -0.43679531057E+02 -0.10728960170E+02 -0.22903311476E+01  0.45036181418E+02  0.51100000000E-03 0.  1.
         23    2    1    0    0    0 -0.27047051876E+00 -0.19485821453E+01 -0.28455866249E+02  0.96476212547E+02  0.92163187536E+02 0.  0.
         11    1    3    3    0    0  0.43409060539E+02  0.87803780245E+01 -0.26165535102E+02  0.51440031129E+02  0.51100000000E-03 0. -1.
         22    1    1    0    0    0  0.27047051876E+00  0.19485821453E+01  0.28455866249E+02  0.28523787453E+02  0.00000000000E+00 0.  1.
</event>
<event>
 5    1  0.1111613E-009  0.9118800E+02  0.7818608E-02  0.1130116E+00
         25   -1    0    0    0    0  0.00000000000E+00  0.00000000000E+00  0.99999998245E-14  0.12500000000E+03  0.12500000000E+03 0.  0.
        -11    1    3    3    0    0 -0.51938281943E+02  0.87748017634E+01 -0.21668328662E+02  0.56956990304E+02  0.51100000000E-03 0.  1.
         23    2    1    0    0    0 -0.29827447375E+02 -0.61047278168E+01  0.44003513464E+01  0.94237890018E+02  0.89075656071E+02 0.  0.
         11    1    3    3    0    0  0.22110834569E+02 -0.14879529580E+02  0.26068680008E+02  0.37280899714E+02  0.51100000000E-03 0. -1.
         22    1    1    0    0    0  0.29827447375E+02  0.61047278168E+01 -0.44003513464E+01  0.30762109982E+02  0.00000000000E+00 0. -1.
</event>
<event>
 5    1  0.1111613E-009  0.9118800E+02  0.7818608E-02  0.1130116E+00
         25   -1    0    0    0    0  0.00000000000E+00  0.00000000000E+00  0.99999998245E-14  0.12500000000E+03  0.12500000000E+03 0.  0.
        -11    1    3    3    0    0  0.10546278997E+02 -0.58814952199E+02 -0.17657295119E+02  0.62307324401E+02  0.51100000000E-03 0. -1.
         23    2    1    0    0    0  0.69833537603E+01 -0.28652203536E+02 -0.11780861726E+02  0.93243036981E+02  0.87668462090E+02 0.  0.
         11    1    3    3    0    0 -0.35629252365E+01  0.30162748663E+02  0.58764333933E+01  0.30935712580E+02  0.51100000000E-03 0.  1.
         22    1    1    0    0    0 -0.69833537603E+01  0.28652203536E+02  0.11780861726E+02  0.31756963019E+02  0.00000000000E+00 0. -1.
</event>
<event>
 5    1  0.1111613E-009  0.9118800E+02  0.7818608E-02  0.1130116E+00
         25   -1    0    0    0    0  0.00000000000E+00  0.00000000000E+00  0.99999998245E-14  0.12500000000E+03  0.12500000000E+03 0.  0.
        -11    1    3    3    0    0 -0.38149099294E+02 -0.32515320147E+02  0.25890675257E+02  0.56417434244E+02  0.51100000000E-03 0.  1.
         23    2    1    0    0    0 -0.76675366120E+01 -0.77474305800E+01  0.27181624841E+02  0.95714260684E+02  0.91123900108E+02 0.  0.
         11    1    3    3    0    0  0.30481562682E+02  0.24767889567E+02  0.12909495843E+01  0.39296826439E+02  0.51100000000E-03 0. -1.
         22    1    1    0    0    0  0.76675366120E+01  0.77474305800E+01 -0.27181624841E+02  0.29285739316E+02  0.00000000000E+00 0.  1.
</event>
<event>
 5    1  0.1111613E-009  0.9118800E+02  0.7818608E-02  0.1130116E+00
         25   -1    0    0    0    0  0.00000000000E+00  0.00000000000E+00  0.99999998245E-14  0.12500000000E+03  0.12500000000E+03 0.  0.
        -11    1    3    3    0    0 -0.23052261416E+02  0.14270624209E+02 -0.26656898978E+02  0.38021674544E+02  0.51100000000E-03 0. -1.
         23    2    1    0    0    0  0.11596366702E+02  0.20481084365E+02  0.18347481009E+02  0.95157402981E+02  0.90356796896E+02 0.  0.
         11    1    3    3    0    0  0.34648628118E+02  0.62104601565E+01  0.45004379987E+02  0.57135728438E+02  0.51100000000E-03 0.  1.
         22    1    1    0    0    0 -0.11596366702E+02 -0.20481084365E+02 -0.18347481009E+02  0.29842597019E+02  0.00000000000E+00 0.  1.
</event>
<event>
 5    1  0.1111613E-009  0.9118800E+02  0.7818608E-02  0.1130116E+00
         25   -1    0    0    0    0  0.00000000000E+00  0.00000000000E+00  0.99999998245E-14  0.12500000000E+03  0.12500000000E+03 0.  0.
        -11    1    3    3    0    0 -0.29630583571E+02  0.11101255246E+02 -0.41415433676E+02  0.52119550053E+02  0.51100000000E-03 0.  1.
         23    2    1    0    0    0 -0.13493002988E+02  0.28282219322E+02 -0.86328238543E+01  0.92496604683E+02  0.86597639522E+02 0.  0.
         11    1    3    3    0    0  0.16137580583E+02  0.17180964075E+02  0.32782609822E+02  0.40377054631E+02  0.51100000000E-03 0. -1.
         22    1    1    0    0    0  0.13493002988E+02 -0.28282219322E+02  0.86328238543E+01  0.32503395317E+02  0.00000000000E+00 0. -1.
</event>
<event>
 5    1  0.1111613E-009  0.9118800E+02  0.7818608E-02  0.1130116E+00
         25   -1    0    0    0    0  0.00000000000E+00  0.00000000000E+00  0.99999998245E-14  0.12500000000E+03  0.12500000000E+03 0.  0.
        -11    1    3    3    0    0  0.31545349274E+02 -0.50262342583E+01 -0.16542352365E+02  0.35972510528E+02  0.51100000000E-03 0. -1.
         23    2    1    0    0    0 -0.39552572738E+01  0.24407896027E+02  0.18688298481E+02  0.94005775559E+02  0.88749331771E+02 0.  0.
         11    1    3    3    0    0 -0.35500606548E+02  0.29434130286E+02  0.35230650846E+02  0.58033265031E+02  0.51100000000E-03 0.  1.
         22    1    1    0    0    0  0.39552572738E+01 -0.24407896027E+02 -0.18688298481E+02  0.30994224441E+02  0.00000000000E+00 0.  1.
</event>
<event>
 5    1  0.1111613E-009  0.9118800E+02  0.7818608E-02  0.1130116E+00
         25   -1    0    0    0    0  0.00000000000E+00  0.00000000000E+00  0.99999998245E-14  0.12500000000E+03  0.12500000000E+03 0.  0.
        -11    1    3    3    0    0 -0.54978543193E+02 -0.14145784345E+02 -0.13674808940E+02  0.58393011793E+02  0.51100000000E-03 0.  1.
         23    2    1    0    0    0 -0.24193213620E+02  0.91441142846E+01 -0.10363558695E+02  0.97137305225E+02  0.93055501214E+02 0.  0.
         11    1    3    3    0    0  0.30785329573E+02  0.23289898630E+02  0.33112502455E+01  0.38744293432E+02  0.51100000000E-03 0. -1.
         22    1    1    0    0    0  0.24193213620E+02 -0.91441142846E+01  0.10363558695E+02  0.27862694775E+02  0.00000000000E+00 0.  1.
</event>
<event>
 5    1  0.1111613E-009  0.9118800E+02  0.7818608E-02  0.1130116E+00
         25   -1    0    0    0    0  0.00000000000E+00  0.00000000000E+00  0.99999998245E-14  0.12500000000E+03  0.12500000000E+03 0.  0.
        -11    1    3    3    0    0 -0.33910198544E+02  0.30726406407E+02 -0.30112430194E+01  0.45859363283E+02  0.51100000000E-03 0.  1.
         23    2    1    0    0    0 -0.11189435067E+02 -0.58406153755E+01 -0.27037853937E+02  0.95161069212E+02  0.90361868633E+02 0.  0.
         11    1    3    3    0    0  0.22720763477E+02 -0.36567021783E+02 -0.24026610917E+02  0.49301705928E+02  0.51100000000E-03 0. -1.
         22    1    1    0    0    0  0.11189435067E+02  0.58406153755E+01  0.27037853937E+02  0.29838930788E+02  0.00000000000E+00 0. -1.
</event>
<event>
 5    1  0.1111613E-009  0.9118800E+02  0.7818608E-02  0.1130116E+00
         25   -1    0    0    0    0  0.00000000000E+00  0.00000000000E+00  0.99999998245E-14  0.12500000000E+03  0.12500000000E+03 0.  0.
        -11    1    3    3    0    0  0.18604042851E+02 -0.15220915158E+02  0.25263085141E+02  0.34871336937E+02  0.51100000000E-03 0.  1.
         23    2    1    0    0    0  0.87977339369E+01  0.85292914067E+01 -0.28235314945E+02  0.94220429756E+02  0.89051150689E+02 0.  0.
         11    1    3    3    0    0 -0.98063089144E+01  0.23750206564E+02 -0.53498400087E+02  0.59349092819E+02  0.51100000000E-03 0. -1.
         22    1    1    0    0    0 -0.87977339369E+01 -0.85292914067E+01  0.28235314945E+02  0.30779570244E+02  0.00000000000E+00 0. -1.
</event>
<event>
 5    1  0.1111613E-009  0.9118800E+02  0.7818608E-02  0.1130116E+00
         25   -1    0    0    0    0  0.00000000000E+00  0.00000000000E+00  0.99999998245E-14  0.12500000000E+03  0.12500000000E+03 0.  0.
        -11    1    3    3    0    0 -0.18315650894E+02 -0.77524463755E+01  0.33829993025E+02  0.39243240448E+02  0.51100000000E-03 0.  1.
         23    2    1    0    0    0 -0.13218973008E+02  0.20127102188E+02 -0.15661322830E+02  0.96275123627E+02  0.91890047920E+02 0.  0.
         11    1    3    3    0    0  0.50966778862E+01  0.27879548564E+02 -0.49491315855E+02  0.57031883179E+02  0.51100000000E-03 0. -1.
         22    1    1    0    0    0  0.13218973008E+02 -0.20127102188E+02  0.15661322830E+02  0.28724876373E+02  0.00000000000E+00 0. -1.
</event>
<event>
 5    1  0.1111613E-009  0.9118800E+02  0.7818608E-02  0.1130116E+00
         25   -1    0    0    0    0  0.00000000000E+00  0.00000000000E+00  0.99999998245E-14  0.12500000000E+03  0.12500000000E+03 0.  0.
        -11    1    3    3    0    0  0.52091678738E+02 -0.12114421233E+02 -0.71984758973E+00  0.53486637363E+02  0.51100000000E-03 0. -1.
         23    2    1    0    0    0  0.24876343794E+02  0.11229616967E+02  0.16335057168E+02  0.93191654075E+02  0.87595168353E+02 0.  0.
         11    1    3    3    0    0 -0.27215334944E+02  0.23344038200E+02  0.17054904757E+02  0.39705016712E+02  0.51100000000E-03 0.  1.
         22    1    1    0    0    0 -0.24876343794E+02 -0.11229616967E+02 -0.16335057168E+02  0.31808345925E+02  0.00000000000E+00 0. -1.
</event>
<event>
 5    1  0.1111613E-009  0.9118800E+02  0.7818608E-02  0.1130116E+00
         25   -1    0    0    0    0  0.00000000000E+00  0.00000000000E+00  0.99999998245E-14  0.12500000000E+03  0.12500000000E+03 0.  0.
        -11    1    3    3    0    0  0.34096547066E+02  0.11455660586E+02  0.15185222167E+02  0.39043535365E+02  0.51100000000E-03 0.  1.
         23    2    1    0    0    0 -0.22119125336E+02  0.11894333699E+02  0.15918469057E+02  0.95265701002E+02  0.90506492864E+02 0.  0.
         11    1    3    3    0    0 -0.56215672402E+02  0.43867311272E+00  0.73324689044E+00  0.56222165637E+02  0.51100000000E-03 0. -1.
         22    1    1    0    0    0  0.22119125336E+02 -0.11894333699E+02 -0.15918469057E+02  0.29734298998E+02  0.00000000000E+00 0. -1.
</event>
<event>
 5    1  0.1111613E-009  0.9118800E+02  0.7818608E-02  0.1130116E+00
         25   -1    0    0    0    0  0.00000000000E+00  0.00000000000E+00  0.99999998245E-14  0.12500000000E+03  0.12500000000E+03 0.  0.
        -11    1    3    3    0    0  0.44260277298E+02  0.29618322858E+02 -0.15008966625E+01  0.53277292409E+02  0.51100000000E-03 0. -1.
         23    2    1    0    0    0  0.25984055211E+02 -0.76367811404E+01 -0.10867662863E+02  0.95817853960E+02  0.91265894451E+02 0.  0.
         11    1    3    3    0    0 -0.18276222087E+02 -0.37255103998E+02 -0.93667662009E+01  0.42540561551E+02  0.51100000000E-03 0.  1.
         22    1    1    0    0    0 -0.25984055211E+02  0.76367811404E+01  0.10867662863E+02  0.29182146040E+02  0.00000000000E+00 0. -1.
</event>
<event>
 5    1  0.1111613E-009  0.9118800E+02  0.7818608E-02  0.1130116E+00
         25   -1    0    0    0    0  0.00000000000E+00  0.00000000000E+00  0.99999998245E-14  0.12500000000E+03  0.12500000000E+03 0.  0.
        -11    1    3    3    0    0  0.20244289601E+02 -0.33243350630E+02 -0.99806616754E+01  0.40181652907E+02  0.51100000000E-03 0. -1.
         23    2    1    0    0    0  0.19195118607E+02  0.17003086527E+02  0.13908717181E+02  0.95827925281E+02  0.91279687337E+02 0.  0.
         11    1    3    3    0    0 -0.10491709943E+01  0.50246437157E+02  0.23889378857E+02  0.55646272374E+02  0.51100000000E-03 0.  1.
         22    1    1    0    0    0 -0.19195118607E+02 -0.17003086527E+02 -0.13908717181E+02  0.29172074719E+02  0.00000000000E+00 0.  1.
</event>
<event>
 5    1  0.1111613E-009  0.9118800E+02  0.7818608E-02  0.1130116E+00
         25   -1    0    0    0    0  0.00000000000E+00  0.00000000000E+00  0.99999998245E-14  0.12500000000E+03  0.12500000000E+03 0.  0.
        -11    1    3    3    0    0 -0.51796774094E+02  0.22355773035E+02 -0.25699584217E+02  0.61993185300E+02  0.51100000000E-03 0.  1.
         23    2    1    0    0    0 -0.16833498987E+02  0.11885611604E+02 -0.56601187536E+01  0.10363012879E+03  0.10140282144E+03 0.  0.
         11    1    3    3    0    0  0.34963275107E+02 -0.10470161430E+02  0.20039465463E+02  0.41636943486E+02  0.51100000000E-03 0. -1.
         22    1    1    0    0    0  0.16833498987E+02 -0.11885611604E+02  0.56601187536E+01  0.21369871213E+02  0.00000000000E+00 0.  1.
</event>
<event>
 5    1  0.1111613E-009  0.9118800E+02  0.7818608E-02  0.1130116E+00
         25   -1    0    0    0    0  0.00000000000E+00  0.00000000000E+00  0.99999998245E-14  0.12500000000E+03  0.12500000000E+03 0.  0.
        -11    1    3    3    0    0  0.14619270046E+00  0.11156241396E+02  0.36082861080E+02  0.37768451892E+02  0.51100000000E-03 0.  1.
         23    2    1    0    0    0  0.24458864621E+02  0.54632607301E+01 -0.15818193133E+02  0.95363898530E+02  0.90642013617E+02 0.  0.
         11    1    3    3    0    0  0.24312671921E+02 -0.56929806656E+01 -0.51901054212E+02  0.57595446638E+02  0.51100000000E-03 0. -1.
         22    1    1    0    0    0 -0.24458864621E+02 -0.54632607301E+01  0.15818193133E+02  0.29636101470E+02  0.00000000000E+00 0. -1.
</event>
<event>
 5    1  0.1111613E-009  0.9118800E+02  0.7818608E-02  0.1130116E+00
         25   -1    0    0    0    0  0.00000000000E+00  0.00000000000E+00  0.99999998245E-14  0.12500000000E+03  0.12500000000E+03 0.  0.
        -11    1    3    3    0    0  0.33115685795E+02  0.15852030137E+02 -0.13216406020E+02  0.39020621387E+02  0.51100000000E-03 0.  1.
         23    2    1    0    0    0 -0.76815213585E+01  0.30832719069E+01  0.26417849312E+02  0.97315796953E+02  0.93294958269E+02 0.  0.
         11    1    3    3    0    0 -0.40797207153E+02 -0.12768758230E+02  0.39634255332E+02  0.58295175566E+02  0.51100000000E-03 0. -1.
         22    1    1    0    0    0  0.76815213585E+01 -0.30832719069E+01 -0.26417849312E+02  0.27684203047E+02  0.00000000000E+00 0. -1.
</event>
<event>
 5    1  0.1111613E-009  0.9118800E+02  0.7818608E-02  0.1130116E+00
         25   -1    0    0    0    0  0.00000000000E+00  0.00000000000E+00  0.99999998245E-14  0.12500000000E+03  0.12500000000E+03 0.  0.
        -11    1    3    3    0    0  0.59321891404E+01 -0.58372204312E+02 -0.18879571589E+02  0.61635568691E+02  0.51100000000E-03 0.  1.
         23    2    1    0    0    0  0.12816004994E+01 -0.30235859504E+02 -0.22374269842E+01  0.94654394398E+02  0.89658232191E+02 0.  0.
         11    1    3    3    0    0 -0.46505886410E+01  0.28136344807E+02  0.16642144605E+02  0.33018825708E+02  0.51100000000E-03 0. -1.
         22    1    1    0    0    0 -0.12816004994E+01  0.30235859504E+02  0.22374269842E+01  0.30345605602E+02  0.00000000000E+00 0.  1.
</event>
<event>
 5    1  0.1111613E-009  0.9118800E+02  0.7818608E-02  0.1130116E+00
         25   -1    0    0    0    0  0.00000000000E+00  0.00000000000E+00  0.99999998245E-14  0.12500000000E+03  0.12500000000E+03 0.  0.
        -11    1    3    3    0    0 -0.21722430748E+02  0.27076959777E+02  0.31991233716E+02  0.47206618003E+02  0.51100000000E-03 0.  1.
         23    2    1    0    0    0 -0.28147832921E+02 -0.10916512316E+02  0.46517868127E+01  0.94453153030E+02  0.89377224489E+02 0.  0.
         11    1    3    3    0    0 -0.64254021726E+01 -0.37993472093E+02 -0.27339446903E+02  0.47246535027E+02  0.51100000000E-03 0. -1.
         22    1    1    0    0    0  0.28147832921E+02  0.10916512316E+02 -0.46517868127E+01  0.30546846970E+02  0.00000000000E+00 0.  1.
</event>
<event>
 5    1  0.1111613E-009  0.9118800E+02  0.7818608E-02  0.1130116E+00
         25   -1    0    0    0    0  0.00000000000E+00  0.00000000000E+00  0.99999998245E-14  0.12500000000E+03  0.12500000000E+03 0.  0.
        -11    1    3    3    0    0  0.25177415140E+02 -0.52640559867E+02 -0.16266915333E+02  0.60576755534E+02  0.51100000000E-03 0. -1.
         23    2    1    0    0    0  0.72103617951E+01 -0.23060577716E+02 -0.17433624874E+02  0.95205523364E+02  0.90423342346E+02 0.  0.
         11    1    3    3    0    0 -0.17967053345E+02  0.29579982152E+02 -0.11667095408E+01  0.34628767830E+02  0.51100000000E-03 0.  1.
         22    1    1    0    0    0 -0.72103617951E+01  0.23060577716E+02  0.17433624874E+02  0.29794476636E+02  0.00000000000E+00 0. -1.
</event>
<event>
 5    1  0.1111613E-009  0.9118800E+02  0.7818608E-02  0.1130116E+00
         25   -1    0    0    0    0  0.00000000000E+00  0.00000000000E+00  0.99999998245E-14  0.12500000000E+03  0.12500000000E+03 0.  0.
        -11    1    3    3    0    0 -0.12528002189E+02  0.21498077962E+02  0.26073824790E+02  0.36041122824E+02  0.51100000000E-03 0.  1.
         23    2    1    0    0    0  0.80543259101E+01 -0.71514725307E+01 -0.24807498679E+02  0.97955079665E+02  0.94147596444E+02 0.  0.
         11    1    3    3    0    0  0.20582328099E+02 -0.28649550493E+02 -0.50881323470E+02  0.61913956841E+02  0.51100000000E-03 0. -1.
         22    1    1    0    0    0 -0.80543259101E+01  0.71514725307E+01  0.24807498679E+02  0.27044920335E+02  0.00000000000E+00 0. -1.
</event>
<event>
 5    1  0.1111613E-009  0.9118800E+02  0.7818608E-02  0.1130116E+00
         25   -1    0    0    0    0  0.00000000000E+00  0.00000000000E+00  0.99999998245E-14  0.12500000000E+03  0.12500000000E+03 0.  0.
        -11    1    3    3    0    0 -0.27525479307E+02  0.49147410191E+02 -0.20406384971E+02  0.59912773992E+02  0.51100000000E-03 0. -1.
         23    2    1    0    0    0 -0.14110821678E+02  0.14930418970E+02 -0.19498236903E+02  0.96676618469E+02  0.92434596430E+02 0.  0.
         11    1    3    3    0    0  0.13414657629E+02 -0.34216991221E+02  0.90814806795E+00  0.36763844477E+02  0.51100000000E-03 0.  1.
         22    1    1    0    0    0  0.14110821678E+02 -0.14930418970E+02  0.19498236903E+02  0.28323381531E+02  0.00000000000E+00 0. -1.
</event>
<event>
 5    1  0.1111613E-009  0.9118800E+02  0.7818608E-02  0.1130116E+00
         25   -1    0    0    0    0  0.00000000000E+00  0.00000000000E+00  0.99999998245E-14  0.12500000000E+03  0.12500000000E+03 0.  0.
        -11    1    3    3    0    0  0.28632542580E-01 -0.24357696711E+02  0.43411500639E+02  0.49778073454E+02  0.51100000000E-03 0. -1.
         23    2    1    0    0    0  0.26530695061E+02 -0.66601154247E+01  0.10199248387E+02  0.95806514673E+02  0.91250362565E+02 0.  0.
         11    1    3    3    0    0  0.26502062519E+02  0.17697581286E+02 -0.33212252252E+02  0.46028441218E+02  0.51100000000E-03 0.  1.
         22    1    1    0    0    0 -0.26530695061E+02  0.66601154247E+01 -0.10199248387E+02  0.29193485327E+02  0.00000000000E+00 0. -1.
</event>
<event>
 5    1  0.1111613E-009  0.9118800E+02  0.7818608E-02  0.1130116E+00
         25   -1    0    0    0    0  0.00000000000E+00  0.00000000000E+00  0.99999998245E-14  0.12500000000E+03  0.12500000000E+03 0.  0.
        -11    1    3    3    0    0  0.32856233754E+02 -0.66031788350E+01  0.47660767320E+02  0.58263906572E+02  0.51100000000E-03 0. -1.
         23    2    1    0    0    0  0.17688018671E+02  0.12811732641E+02  0.19070676875E+02  0.96005220914E+02  0.91522157036E+02 0.  0.
         11    1    3    3    0    0 -0.15168215083E+02  0.19414911476E+02 -0.28590090445E+02  0.37741314342E+02  0.51100000000E-03 0.  1.
         22    1    1    0    0    0 -0.17688018671E+02 -0.12811732641E+02 -0.19070676875E+02  0.28994779086E+02  0.00000000000E+00 0. -1.
</event>
<event>
 5    1  0.1111613E-009  0.9118800E+02  0.7818608E-02  0.1130116E+00
         25   -1    0    0    0    0  0.00000000000E+00  0.00000000000E+00  0.99999998245E-14  0.12500000000E+03  0.12500000000E+03 0.  0.
        -11    1    3    3    0    0  0.96051065533E+01 -0.92687436758E+00 -0.52336629583E+02  0.53218793339E+02  0.51100000000E-03 0. -1.
         23    2    1    0    0    0 -0.15661158896E+02  0.12916930434E+02 -0.20748592221E+02  0.95972029542E+02  0.91476813376E+02 0.  0.
         11    1    3    3    0    0 -0.25266265449E+02  0.13843804802E+02  0.31588037363E+02  0.42753236203E+02  0.51100000000E-03 0.  1.
         22    1    1    0    0    0  0.15661158896E+02 -0.12916930434E+02  0.20748592221E+02  0.29027970458E+02  0.00000000000E+00 0. -1.
</event>
<event>
 5    1  0.1111613E-009  0.9118800E+02  0.7818608E-02  0.1130116E+00
         25   -1    0    0    0    0  0.00000000000E+00  0.00000000000E+00  0.99999998245E-14  0.12500000000E+03  0.12500000000E+03 0.  0.
        -11    1    3    3    0    0  0.36621948352E+01  0.11196072428E+02 -0.36950497465E+02  0.38782766430E+02  0.51100000000E-03 0. -1.
         23    2    1    0    0    0  0.43681209630E+01 -0.26110256666E+02  0.81342601105E+01  0.97305376489E+02  0.93280995504E+02 0.  0.
         11    1    3    3    0    0  0.70592612779E+00 -0.37306329094E+02  0.45084757575E+02  0.58522610058E+02  0.51100000000E-03 0.  1.
         22    1    1    0    0    0 -0.43681209630E+01  0.26110256666E+02 -0.81342601105E+01  0.27694623511E+02  0.00000000000E+00 0.  1.
</event>
<event>
 5    1  0.1111613E-009  0.9118800E+02  0.7818608E-02  0.1130116E+00
         25   -1    0    0    0    0  0.00000000000E+00  0.00000000000E+00  0.99999998245E-14  0.12500000000E+03  0.12500000000E+03 0.  0.
        -11    1    3    3    0    0 -0.82714502749E+01 -0.21175670857E+02 -0.58203882655E+02  0.62486141522E+02  0.51100000000E-03 0. -1.
         23    2    1    0    0    0 -0.35020928658E+01 -0.11228550761E+02 -0.31219841428E+02  0.91637993085E+02  0.85349272236E+02 0.  0.
         11    1    3    3    0    0  0.47693574091E+01  0.99471200960E+01  0.26984041228E+02  0.29151851563E+02  0.51100000000E-03 0.  1.
         22    1    1    0    0    0  0.35020928658E+01  0.11228550761E+02  0.31219841428E+02  0.33362006915E+02  0.00000000000E+00 0. -1.
</event>
<event>
 5    1  0.1111613E-009  0.9118800E+02  0.7818608E-02  0.1130116E+00
         25   -1    0    0    0    0  0.00000000000E+00  0.00000000000E+00  0.99999998245E-14  0.12500000000E+03  0.12500000000E+03 0.  0.
        -11    1    3    3    0    0 -0.57106984948E+01 -0.19015841590E+01  0.32085173908E+02  0.32644853876E+02  0.51100000000E-03 0.  1.
         23    2    1    0    0    0 -0.95578537725E+01 -0.43297221860E+02  0.22361099226E+02  0.75340955022E+02  0.56658968889E+02 0.  0.
         11    1    3    3    0    0 -0.38471552776E+01 -0.41395637701E+02 -0.97240746821E+01  0.42696101146E+02  0.51100000000E-03 0. -1.
         22    1    1    0    0    0  0.95578537725E+01  0.43297221860E+02 -0.22361099226E+02  0.49659044978E+02  0.00000000000E+00 0.  1.
</event>
<event>
 5    1  0.1111613E-009  0.9118800E+02  0.7818608E-02  0.1130116E+00
         25   -1    0    0    0    0  0.00000000000E+00  0.00000000000E+00  0.99999998245E-14  0.12500000000E+03  0.12500000000E+03 0.  0.
        -11    1    3    3    0    0 -0.41508202239E+02  0.56361807359E+00 -0.35516951545E+01  0.41663689913E+02  0.51100000000E-03 0.  1.
         23    2    1    0    0    0 -0.48126720508E+00 -0.21723122662E+02  0.21314999322E+02  0.94562278791E+02  0.89529714049E+02 0.  0.
         11    1    3    3    0    0  0.41026935034E+02 -0.22286740735E+02  0.24866694476E+02  0.52898588878E+02  0.51100000000E-03 0. -1.
         22    1    1    0    0    0  0.48126720508E+00  0.21723122662E+02 -0.21314999322E+02  0.30437721209E+02  0.00000000000E+00 0. -1.
</event>
<event>
 5    1  0.1111613E-009  0.9118800E+02  0.7818608E-02  0.1130116E+00
         25   -1    0    0    0    0  0.00000000000E+00  0.00000000000E+00  0.99999998245E-14  0.12500000000E+03  0.12500000000E+03 0.  0.
        -11    1    3    3    0    0 -0.16445197605E+02 -0.35171322058E+02 -0.25559430804E+02  0.46483878096E+02  0.51100000000E-03 0. -1.
         23    2    1    0    0    0 -0.68834304250E+01  0.13079792324E+02 -0.25329077892E+02  0.95673821107E+02  0.91068409872E+02 0.  0.
         11    1    3    3    0    0  0.95617671801E+01  0.48251114382E+02  0.23035291261E+00  0.49189943011E+02  0.51100000000E-03 0.  1.
         22    1    1    0    0    0  0.68834304250E+01 -0.13079792324E+02  0.25329077892E+02  0.29326178893E+02  0.00000000000E+00 0.  1.
</event>
<event>
 5    1  0.1111613E-009  0.9118800E+02  0.7818608E-02  0.1130116E+00
         25   -1    0    0    0    0  0.00000000000E+00  0.00000000000E+00  0.99999998245E-14  0.12500000000E+03  0.12500000000E+03 0.  0.
        -11    1    3    3    0    0  0.52428465421E+01  0.26592122651E+02  0.53558453952E+02  0.60026131118E+02  0.51100000000E-03 0.  1.
         23    2    1    0    0    0  0.90961507150E+01  0.20855684206E+02  0.18741795857E+02  0.95521966933E+02  0.90859736591E+02 0.  0.
         11    1    3    3    0    0  0.38533041729E+01 -0.57364384449E+01 -0.34816658095E+02  0.35495835816E+02  0.51100000000E-03 0. -1.
         22    1    1    0    0    0 -0.90961507150E+01 -0.20855684206E+02 -0.18741795857E+02  0.29478033067E+02  0.00000000000E+00 0.  1.
</event>
<event>
 5    1  0.1111613E-009  0.9118800E+02  0.7818608E-02  0.1130116E+00
         25   -1    0    0    0    0  0.00000000000E+00  0.00000000000E+00  0.99999998245E-14  0.12500000000E+03  0.12500000000E+03 0.  0.
        -11    1    3    3    0    0 -0.45716091162E+02 -0.14699552187E+02 -0.35261869150E+02  0.59577153691E+02  0.51100000000E-03 0. -1.
         23    2    1    0    0    0 -0.30181612266E+02 -0.63653415273E+01 -0.62462401114E+01  0.93528380924E+02  0.88074373294E+02 0.  0.
         11    1    3    3    0    0  0.15534478896E+02  0.83342106599E+01  0.29015629039E+02  0.33951227234E+02  0.51100000000E-03 0.  1.
         22    1    1    0    0    0  0.30181612266E+02  0.63653415273E+01  0.62462401114E+01  0.31471619076E+02  0.00000000000E+00 0. -1.
</event>
<event>
 5    1  0.1111613E-009  0.9118800E+02  0.7818608E-02  0.1130116E+00
         25   -1    0    0    0    0  0.00000000000E+00  0.00000000000E+00  0.99999998245E-14  0.12500000000E+03  0.12500000000E+03 0.  0.
        -11    1    3    3    0    0  0.51455341287E+02  0.95562567394E+00 -0.26504093578E+02  0.57888101921E+02  0.51100000000E-03 0. -1.
         23    2    1    0    0    0  0.15497004790E+02  0.38043600521E+01 -0.26625068369E+02  0.93959307699E+02  0.88683859438E+02 0.  0.
         11    1    3    3    0    0 -0.35958336497E+02  0.28487343782E+01 -0.12097479123E+00  0.36071205779E+02  0.51100000000E-03 0.  1.
         22    1    1    0    0    0 -0.15497004790E+02 -0.38043600521E+01  0.26625068369E+02  0.31040692301E+02  0.00000000000E+00 0. -1.
</event>
<event>
 5    1  0.1111613E-009  0.9118800E+02  0.7818608E-02  0.1130116E+00
         25   -1    0    0    0    0  0.00000000000E+00  0.00000000000E+00  0.99999998245E-14  0.12500000000E+03  0.12500000000E+03 0.  0.
        -11    1    3    3    0    0 -0.43354303597E+02  0.16292310440E+02  0.21364172730E+01  0.46363771405E+02  0.51100000000E-03 0.  1.
         23    2    1    0    0    0 -0.17269164593E+02 -0.23104151078E+02 -0.87616697630E+01  0.94853811189E+02  0.89935825994E+02 0.  0.
         11    1    3    3    0    0  0.26085139003E+02 -0.39396461518E+02 -0.10898087036E+02  0.48490039784E+02  0.51100000000E-03 0. -1.
         22    1    1    0    0    0  0.17269164593E+02  0.23104151078E+02  0.87616697630E+01  0.30146188811E+02  0.00000000000E+00 0. -1.
</event>
<event>
 5    1  0.1111613E-009  0.9118800E+02  0.7818608E-02  0.1130116E+00
         25   -1    0    0    0    0  0.00000000000E+00  0.00000000000E+00  0.99999998245E-14  0.12500000000E+03  0.12500000000E+03 0.  0.
        -11    1    3    3    0    0  0.52646833701E+02  0.37571624898E+01  0.16873952018E+02  0.55412414003E+02  0.51100000000E-03 0.  1.
         23    2    1    0    0    0  0.28176132944E+02  0.63727106829E+01 -0.12319427060E+02  0.93594997338E+02  0.88168868284E+02 0.  0.
         11    1    3    3    0    0 -0.24470700756E+02  0.26155481931E+01 -0.29193379078E+02  0.38182583334E+02  0.51100000000E-03 0. -1.
         22    1    1    0    0    0 -0.28176132944E+02 -0.63727106829E+01  0.12319427060E+02  0.31405002662E+02  0.00000000000E+00 0.  1.
</event>
<event>
 5    1  0.1111613E-009  0.9118800E+02  0.7818608E-02  0.1130116E+00
         25   -1    0    0    0    0  0.00000000000E+00  0.00000000000E+00  0.99999998245E-14  0.12500000000E+03  0.12500000000E+03 0.  0.
        -11    1    3    3    0    0  0.17493646868E+02  0.20152786055E+02  0.50663728892E+02  0.57262342705E+02  0.51100000000E-03 0.  1.
         23    2    1    0    0    0  0.22099737816E+02 -0.96924773548E+00  0.17763546156E+02  0.96629567773E+02  0.92370947507E+02 0.  0.
         11    1    3    3    0    0  0.46060909476E+01 -0.21122033791E+02 -0.32900182736E+02  0.39367225068E+02  0.51100000000E-03 0. -1.
         22    1    1    0    0    0 -0.22099737816E+02  0.96924773548E+00 -0.17763546156E+02  0.28370432227E+02  0.00000000000E+00 0.  1.
</event>
<event>
 5    1  0.1111613E-009  0.9118800E+02  0.7818608E-02  0.1130116E+00
         25   -1    0    0    0    0  0.00000000000E+00  0.00000000000E+00  0.99999998245E-14  0.12500000000E+03  0.12500000000E+03 0.  0.
        -11    1    3    3    0    0 -0.24794690617E+02 -0.23024231354E+02 -0.90055606342E+00  0.33848233539E+02  0.51100000000E-03 0. -1.
         23    2    1    0    0    0  0.17548408797E+02  0.22754707615E+02 -0.17270314157E+01  0.96212745747E+02  0.91805154739E+02 0.  0.
         11    1    3    3    0    0  0.42343099414E+02  0.45778938969E+02 -0.82647535230E+00  0.62364512207E+02  0.51100000000E-03 0.  1.
         22    1    1    0    0    0 -0.17548408797E+02 -0.22754707615E+02  0.17270314157E+01  0.28787254253E+02  0.00000000000E+00 0.  1.
</event>
<event>
 5    1  0.1111613E-009  0.9118800E+02  0.7818608E-02  0.1130116E+00
         25   -1    0    0    0    0  0.00000000000E+00  0.00000000000E+00  0.99999998245E-14  0.12500000000E+03  0.12500000000E+03 0.  0.
        -11    1    3    3    0    0  0.46127582173E+02  0.97789397663E+01  0.39087593460E+02  0.61247215960E+02  0.51100000000E-03 0. -1.
         23    2    1    0    0    0  0.26432529589E+02  0.88872673452E+00  0.11839701209E+02  0.96023337314E+02  0.91546896881E+02 0.  0.
         11    1    3    3    0    0 -0.19695052584E+02 -0.88902130318E+01 -0.27247892251E+02  0.34776121354E+02  0.51100000000E-03 0.  1.
         22    1    1    0    0    0 -0.26432529589E+02 -0.88872673452E+00 -0.11839701209E+02  0.28976662686E+02  0.00000000000E+00 0. -1.
</event>
<event>
 5    1  0.1111613E-009  0.9118800E+02  0.7818608E-02  0.1130116E+00
         25   -1    0    0    0    0  0.00000000000E+00  0.00000000000E+00  0.99999998245E-14  0.12500000000E+03  0.12500000000E+03 0.  0.
        -11    1    3    3    0    0  0.88379417342E+01 -0.49166917900E+02  0.28256949058E+02  0.57392945561E+02  0.51100000000E-03 0. -1.
         23    2    1    0    0    0  0.16413463178E+02 -0.14954514612E+02 -0.60094019430E+00  0.10278738174E+03  0.10035858426E+03 0.  0.
         11    1    3    3    0    0  0.75755214434E+01  0.34212403288E+02 -0.28857889252E+02  0.45394436181E+02  0.51100000000E-03 0.  1.
         22    1    1    0    0    0 -0.16413463178E+02  0.14954514612E+02  0.60094019430E+00  0.22212618258E+02  0.00000000000E+00 0. -1.
</event>
<event>
 5    1  0.1111613E-009  0.9118800E+02  0.7818608E-02  0.1130116E+00
         25   -1    0    0    0    0  0.00000000000E+00  0.00000000000E+00  0.99999998245E-14  0.12500000000E+03  0.12500000000E+03 0.  0.
        -11    1    3    3    0    0  0.21081781827E+02  0.24251629217E+02 -0.38475527607E+02  0.50129325445E+02  0.51100000000E-03 0.  1.
         23    2    1    0    0    0  0.15790466489E+02  0.21547141977E+02  0.81022872572E+01  0.97084677718E+02  0.92984780634E+02 0.  0.
         11    1    3    3    0    0 -0.52913153382E+01 -0.27044872399E+01  0.46577814864E+02  0.46955352273E+02  0.51100000000E-03 0. -1.
         22    1    1    0    0    0 -0.15790466489E+02 -0.21547141977E+02 -0.81022872572E+01  0.27915322282E+02  0.00000000000E+00 0.  1.
</event>
<event>
 5    1  0.1111613E-009  0.9118800E+02  0.7818608E-02  0.1130116E+00
         25   -1    0    0    0    0  0.00000000000E+00  0.00000000000E+00  0.99999998245E-14  0.12500000000E+03  0.12500000000E+03 0.  0.
        -11    1    3    3    0    0  0.18368599608E+02 -0.53300978238E+02 -0.22097475099E+01  0.56420587705E+02  0.51100000000E-03 0.  1.
         23    2    1    0    0    0  0.47283090312E+00 -0.24699195909E+02  0.16779671271E+02  0.95136456748E+02  0.90327815134E+02 0.  0.
         11    1    3    3    0    0 -0.17895768705E+02  0.28601782328E+02  0.18989418780E+02  0.38715869043E+02  0.51100000000E-03 0. -1.
         22    1    1    0    0    0 -0.47283090312E+00  0.24699195909E+02 -0.16779671271E+02  0.29863543252E+02  0.00000000000E+00 0.  1.
</event>
<event>
 5    1  0.1111613E-009  0.9118800E+02  0.7818608E-02  0.1130116E+00
         25   -1    0    0    0    0  0.00000000000E+00  0.00000000000E+00  0.99999998245E-14  0.12500000000E+03  0.12500000000E+03 0.  0.
        -11    1    3    3    0    0  0.27961929176E+02  0.17913428741E+02 -0.16495398332E+02  0.37079085465E+02  0.51100000000E-03 0.  1.
         23    2    1    0    0    0 -0.16281362711E+02 -0.21181849988E+02 -0.37755184887E+00  0.98281166079E+02  0.94579551277E+02 0.  0.
         11    1    3    3    0    0 -0.44243291888E+02 -0.39095278730E+02  0.16117846483E+02  0.61202080614E+02  0.51100000000E-03 0. -1.
         22    1    1    0    0    0  0.16281362711E+02  0.21181849988E+02  0.37755184887E+00  0.26718833921E+02  0.00000000000E+00 0. -1.
</event>
<event>
 5    1  0.1111613E-009  0.9118800E+02  0.7818608E-02  0.1130116E+00
         25   -1    0    0    0    0  0.00000000000E+00  0.00000000000E+00  0.99999998245E-14  0.12500000000E+03  0.12500000000E+03 0.  0.
        -11    1    3    3    0    0 -0.30549438097E+02 -0.48978302383E+02 -0.16436453587E+02  0.60019157601E+02  0.51100000000E-03 0.  1.
         23    2    1    0    0    0 -0.20061417376E+02 -0.18763580825E+02  0.28763375961E+01  0.97381061742E+02  0.93382361480E+02 0.  0.
         11    1    3    3    0    0  0.10488020721E+02  0.30214721558E+02  0.19312791183E+02  0.37361904141E+02  0.51100000000E-03 0. -1.
         22    1    1    0    0    0  0.20061417376E+02  0.18763580825E+02 -0.28763375961E+01  0.27618938258E+02  0.00000000000E+00 0.  1.
</event>
<event>
 5    1  0.1111613E-009  0.9118800E+02  0.7818608E-02  0.1130116E+00
         25   -1    0    0    0    0  0.00000000000E+00  0.00000000000E+00  0.99999998245E-14  0.12500000000E+03  0.12500000000E+03 0.  0.
        -11    1    3    3    0    0 -0.37431484159E+01  0.33086111078E+02 -0.32047697683E+02  0.46214249246E+02  0.51100000000E-03 0.  1.
         23    2    1    0    0    0  0.14796966600E+02 -0.12557889496E+02 -0.20410011693E+02  0.96835849268E+02  0.92649675212E+02 0.  0.
         11    1    3    3    0    0  0.18540115016E+02 -0.45644000574E+02  0.11637685990E+02  0.50621600021E+02  0.51100000000E-03 0. -1.
         22    1    1    0    0    0 -0.14796966600E+02  0.12557889496E+02  0.20410011693E+02  0.28164150732E+02  0.00000000000E+00 0. -1.
</event>
<event>
 5    1  0.1111613E-009  0.9118800E+02  0.7818608E-02  0.1130116E+00
         25   -1    0    0    0    0  0.00000000000E+00  0.00000000000E+00  0.99999998245E-14  0.12500000000E+03  0.12500000000E+03 0.  0.
        -11    1    3    3    0    0  0.51958753893E+01 -0.53718561597E+02  0.16606110070E+02  0.56466307415E+02  0.51100000000E-03 0.  1.
         23    2    1    0    0    0  0.13794065285E+02 -0.15489663281E+02  0.20492789909E+02  0.95842490780E+02  0.91299631407E+02 0.  0.
         11    1    3    3    0    0  0.85981898962E+01  0.38228898317E+02  0.38866798389E+01  0.39376183365E+02  0.51100000000E-03 0. -1.
         22    1    1    0    0    0 -0.13794065285E+02  0.15489663281E+02 -0.20492789909E+02  0.29157509220E+02  0.00000000000E+00 0.  1.
</event>
<event>
 5    1  0.1111613E-009  0.9118800E+02  0.7818608E-02  0.1130116E+00
         25   -1    0    0    0    0  0.00000000000E+00  0.00000000000E+00  0.99999998245E-14  0.12500000000E+03  0.12500000000E+03 0.  0.
        -11    1    3    3    0    0  0.18905188572E+02 -0.62453653290E+00 -0.28503345132E+02  0.34208725273E+02  0.51100000000E-03 0.  1.
         23    2    1    0    0    0 -0.22924847180E+02 -0.12140271212E+01  0.17309702151E+02  0.96248508410E+02  0.91853835536E+02 0.  0.
         11    1    3    3    0    0 -0.41830035752E+02 -0.58949058828E+00  0.45813047283E+02  0.62039783138E+02  0.51100000000E-03 0. -1.
         22    1    1    0    0    0  0.22924847180E+02  0.12140271212E+01 -0.17309702151E+02  0.28751491590E+02  0.00000000000E+00 0. -1.
</event>
<event>
 5    1  0.1111613E-009  0.9118800E+02  0.7818608E-02  0.1130116E+00
         25   -1    0    0    0    0  0.00000000000E+00  0.00000000000E+00  0.99999998245E-14  0.12500000000E+03  0.12500000000E+03 0.  0.
        -11    1    3    3    0    0  0.25276275425E+02  0.18442836003E+02 -0.83629180440E+01  0.32387755366E+02  0.51100000000E-03 0. -1.
         23    2    1    0    0    0 -0.26377812575E+02 -0.14997885935E+02  0.10547664939E+01  0.94638212979E+02  0.89635669489E+02 0.  0.
         11    1    3    3    0    0 -0.51654087999E+02 -0.33440721938E+02  0.94176845379E+01  0.62250457613E+02  0.51100000000E-03 0.  1.
         22    1    1    0    0    0  0.26377812575E+02  0.14997885935E+02 -0.10547664939E+01  0.30361787021E+02  0.00000000000E+00 0.  1.
</event>
<event>
 5    1  0.1111613E-009  0.9118800E+02  0.7818608E-02  0.1130116E+00
         25   -1    0    0    0    0  0.00000000000E+00  0.00000000000E+00  0.99999998245E-14  0.12500000000E+03  0.12500000000E+03 0.  0.
        -11    1    3    3    0    0  0.25022709680E+02  0.99210799375E+01 -0.20792127392E+02  0.34012885626E+02  0.51100000000E-03 0. -1.
         23    2    1    0    0    0 -0.23644909122E+02 -0.20117579080E+02 -0.35175270308E+01  0.93756253236E+02  0.88397190617E+02 0.  0.
         11    1    3    3    0    0 -0.48667618802E+02 -0.30038659018E+02  0.17274600361E+02  0.59743367610E+02  0.51100000000E-03 0.  1.
         22    1    1    0    0    0  0.23644909122E+02  0.20117579080E+02  0.35175270308E+01  0.31243746764E+02  0.00000000000E+00 0.  1.
</event>
<event>
 5    1  0.1111613E-009  0.9118800E+02  0.7818608E-02  0.1130116E+00
         25   -1    0    0    0    0  0.00000000000E+00  0.00000000000E+00  0.99999998245E-14  0.12500000000E+03  0.12500000000E+03 0.  0.
        -11    1    3    3    0    0 -0.17153798856E+02 -0.68768931036E+01 -0.30779844176E+02  0.35901856243E+02  0.51100000000E-03 0.  1.
         23    2    1    0    0    0  0.63485504510E+01  0.67517735455E+01  0.25212975124E+02  0.98137672225E+02  0.94389713721E+02 0.  0.
         11    1    3    3    0    0  0.23502349307E+02  0.13628666649E+02  0.55992819300E+02  0.62235815983E+02  0.51100000000E-03 0. -1.
         22    1    1    0    0    0 -0.63485504510E+01 -0.67517735455E+01 -0.25212975124E+02  0.26862327775E+02  0.00000000000E+00 0. -1.
</event>
<event>
 5    1  0.1111613E-009  0.9118800E+02  0.7818608E-02  0.1130116E+00
         25   -1    0    0    0    0  0.00000000000E+00  0.00000000000E+00  0.99999998245E-14  0.12500000000E+03  0.12500000000E+03 0.  0.
        -11    1    3    3    0    0  0.52038043147E+02 -0.23099830187E+02  0.18155242187E+02  0.59759291398E+02  0.51100000000E-03 0. -1.
         23    2    1    0    0    0  0.22970360732E+02  0.29811985905E+01  0.10556471476E+02  0.99544860888E+02  0.96235207809E+02 0.  0.
         11    1    3    3    0    0 -0.29067682415E+02  0.26081028778E+02 -0.75987707110E+01  0.39785569491E+02  0.51100000000E-03 0.  1.
         22    1    1    0    0    0 -0.22970360732E+02 -0.29811985905E+01 -0.10556471476E+02  0.25455139112E+02  0.00000000000E+00 0. -1.
</event>
<event>
 5    1  0.1111613E-009  0.9118800E+02  0.7818608E-02  0.1130116E+00
         25   -1    0    0    0    0  0.00000000000E+00  0.00000000000E+00  0.99999998245E-14  0.12500000000E+03  0.12500000000E+03 0.  0.
        -11    1    3    3    0    0  0.67730852027E+01  0.39901044870E+02  0.15667619892E+02  0.43398644889E+02  0.51100000000E-03 0.  1.
         23    2    1    0    0    0 -0.27963410376E+02  0.13418816794E+01  0.81766167343E+01  0.95834780517E+02  0.91289074534E+02 0.  0.
         11    1    3    3    0    0 -0.34736495578E+02 -0.38559163190E+02 -0.74910031579E+01  0.52436135628E+02  0.51100000000E-03 0. -1.
         22    1    1    0    0    0  0.27963410376E+02 -0.13418816794E+01 -0.81766167343E+01  0.29165219483E+02  0.00000000000E+00 0. -1.
</event>
<event>
 5    1  0.1111613E-009  0.9118800E+02  0.7818608E-02  0.1130116E+00
         25   -1    0    0    0    0  0.00000000000E+00  0.00000000000E+00  0.99999998245E-14  0.12500000000E+03  0.12500000000E+03 0.  0.
        -11    1    3    3    0    0  0.15846395517E+01  0.27777885992E+01 -0.48473931358E+02  0.48579308492E+02  0.51100000000E-03 0. -1.
         23    2    1    0    0    0 -0.27593877004E+02  0.31579890138E+01 -0.13528452508E+02  0.94106408917E+02  0.88890956960E+02 0.  0.
         11    1    3    3    0    0 -0.29178516556E+02  0.38020041455E+00  0.34945478850E+02  0.45527100425E+02  0.51100000000E-03 0.  1.
         22    1    1    0    0    0  0.27593877004E+02 -0.31579890138E+01  0.13528452508E+02  0.30893591083E+02  0.00000000000E+00 0.  1.
</event>
<event>
 5    1  0.1111613E-009  0.9118800E+02  0.7818608E-02  0.1130116E+00
         25   -1    0    0    0    0  0.00000000000E+00  0.00000000000E+00  0.99999998245E-14  0.12500000000E+03  0.12500000000E+03 0.  0.
        -11    1    3    3    0    0  0.12430006776E+02 -0.50593440231E+02 -0.19414043109E+02  0.55597718775E+02  0.51100000000E-03 0. -1.
         23    2    1    0    0    0  0.90978432152E+01 -0.94911040012E+01 -0.24547730404E+02  0.97153225064E+02  0.93076883629E+02 0.  0.
         11    1    3    3    0    0 -0.33321635604E+01  0.41102336229E+02 -0.51336872945E+01  0.41555506290E+02  0.51100000000E-03 0.  1.
         22    1    1    0    0    0 -0.90978432152E+01  0.94911040012E+01  0.24547730404E+02  0.27846774936E+02  0.00000000000E+00 0. -1.
</event>
<event>
 5    1  0.1111613E-009  0.9118800E+02  0.7818608E-02  0.1130116E+00
         25   -1    0    0    0    0  0.00000000000E+00  0.00000000000E+00  0.99999998245E-14  0.12500000000E+03  0.12500000000E+03 0.  0.
        -11    1    3    3    0    0  0.16409635899E+02  0.30617279038E+02  0.11723133496E+02  0.36662321057E+02  0.51100000000E-03 0. -1.
         23    2    1    0    0    0 -0.24478220588E+02  0.83696034988E+00 -0.17330816600E+02  0.94995983772E+02  0.90133212208E+02 0.  0.
         11    1    3    3    0    0 -0.40887856487E+02 -0.29780318688E+02 -0.29053950096E+02  0.58333662715E+02  0.51100000000E-03 0.  1.
         22    1    1    0    0    0  0.24478220588E+02 -0.83696034988E+00  0.17330816600E+02  0.30004016228E+02  0.00000000000E+00 0.  1.
</event>
<event>
 5    1  0.1111613E-009  0.9118800E+02  0.7818608E-02  0.1130116E+00
         25   -1    0    0    0    0  0.00000000000E+00  0.00000000000E+00  0.99999998245E-14  0.12500000000E+03  0.12500000000E+03 0.  0.
        -11    1    3    3    0    0 -0.21054295535E+00  0.48368002460E+02  0.11876767670E+02  0.49805276837E+02  0.51100000000E-03 0.  1.
         23    2    1    0    0    0  0.22070448504E+02  0.82761716162E+01  0.16971690023E+02  0.95954553265E+02  0.91452929512E+02 0.  0.
         11    1    3    3    0    0  0.22280991459E+02 -0.40091830844E+02  0.50949223534E+01  0.46149276428E+02  0.51100000000E-03 0. -1.
         22    1    1    0    0    0 -0.22070448504E+02 -0.82761716162E+01 -0.16971690023E+02  0.29045446735E+02  0.00000000000E+00 0.  1.
</event>
<event>
 5    1  0.1111613E-009  0.9118800E+02  0.7818608E-02  0.1130116E+00
         25   -1    0    0    0    0  0.00000000000E+00  0.00000000000E+00  0.99999998245E-14  0.12500000000E+03  0.12500000000E+03 0.  0.
        -11    1    3    3    0    0  0.32400117379E+02  0.29651701674E+02  0.29697293812E+02  0.53018112739E+02  0.51100000000E-03 0. -1.
         23    2    1    0    0    0  0.22167775721E+02  0.16407402590E+02 -0.96534005254E+01  0.95780121803E+02  0.91214200926E+02 0.  0.
         11    1    3    3    0    0 -0.10232341658E+02 -0.13244299084E+02 -0.39350694338E+02  0.42762009064E+02  0.51100000000E-03 0.  1.
         22    1    1    0    0    0 -0.22167775721E+02 -0.16407402590E+02  0.96534005254E+01  0.29219878197E+02  0.00000000000E+00 0. -1.
</event>
<event>
 5    1  0.1111613E-009  0.9118800E+02  0.7818608E-02  0.1130116E+00
         25   -1    0    0    0    0  0.00000000000E+00  0.00000000000E+00  0.99999998245E-14  0.12500000000E+03  0.12500000000E+03 0.  0.
        -11    1    3    3    0    0  0.26097796594E+02 -0.80231430397E+01  0.27798208427E+02  0.38964165631E+02  0.51100000000E-03 0. -1.
         23    2    1    0    0    0  0.11464168570E+02 -0.61362249734E+01 -0.26634342677E+02  0.95361028565E+02  0.90638055701E+02 0.  0.
         11    1    3    3    0    0 -0.14633628024E+02  0.18869180664E+01 -0.54432551103E+02  0.56396862934E+02  0.51100000000E-03 0.  1.
         22    1    1    0    0    0 -0.11464168570E+02  0.61362249734E+01  0.26634342677E+02  0.29638971435E+02  0.00000000000E+00 0.  1.
</event>
<event>
 5    1  0.1111613E-009  0.9118800E+02  0.7818608E-02  0.1130116E+00
         25   -1    0    0    0    0  0.00000000000E+00  0.00000000000E+00  0.99999998245E-14  0.12500000000E+03  0.12500000000E+03 0.  0.
        -11    1    3    3    0    0 -0.41171644093E+02 -0.32856735162E+02 -0.30960454670E+02  0.61100074275E+02  0.51100000000E-03 0.  1.
         23    2    1    0    0    0 -0.15599340158E+02 -0.22367614939E+02 -0.93970456796E+01  0.96156385820E+02  0.91728384130E+02 0.  0.
         11    1    3    3    0    0  0.25572303935E+02  0.10489120223E+02  0.21563408990E+02  0.35056311545E+02  0.51100000000E-03 0. -1.
         22    1    1    0    0    0  0.15599340158E+02  0.22367614939E+02  0.93970456796E+01  0.28843614180E+02  0.00000000000E+00 0.  1.
</event>
<event>
 5    1  0.1111613E-009  0.9118800E+02  0.7818608E-02  0.1130116E+00
         25   -1    0    0    0    0  0.00000000000E+00  0.00000000000E+00  0.99999998245E-14  0.12500000000E+03  0.12500000000E+03 0.  0.
        -11    1    3    3    0    0 -0.30931909849E+02  0.48993928790E+02 -0.73297454110E+01  0.58403024522E+02  0.51100000000E-03 0.  1.
         23    2    1    0    0    0 -0.93202896862E+01  0.18611496180E+02 -0.18317364882E+02  0.97273091660E+02  0.93237722596E+02 0.  0.
         11    1    3    3    0    0  0.21611620163E+02 -0.30382432611E+02 -0.10987619471E+02  0.38870067138E+02  0.51100000000E-03 0. -1.
         22    1    1    0    0    0  0.93202896862E+01 -0.18611496180E+02  0.18317364882E+02  0.27726908340E+02  0.00000000000E+00 0.  1.
</event>
<event>
 5    1  0.1111613E-009  0.9118800E+02  0.7818608E-02  0.1130116E+00
         25   -1    0    0    0    0  0.00000000000E+00  0.00000000000E+00  0.99999998245E-14  0.12500000000E+03  0.12500000000E+03 0.  0.
        -11    1    3    3    0    0 -0.27118096313E+02 -0.31240734941E+02 -0.33804751337E+02  0.53424113287E+02  0.51100000000E-03 0.  1.
         23    2    1    0    0    0 -0.13742209394E+02 -0.27856157562E+02  0.40131831580E+01  0.93680366027E+02  0.88289815419E+02 0.  0.
         11    1    3    3    0    0  0.13375886919E+02  0.33845773786E+01  0.37817934495E+02  0.40256252740E+02  0.51100000000E-03 0. -1.
         22    1    1    0    0    0  0.13742209394E+02  0.27856157562E+02 -0.40131831580E+01  0.31319633973E+02  0.00000000000E+00 0.  1.
</event>
<event>
 5    1  0.1111613E-009  0.9118800E+02  0.7818608E-02  0.1130116E+00
         25   -1    0    0    0    0  0.00000000000E+00  0.00000000000E+00  0.99999998245E-14  0.12500000000E+03  0.12500000000E+03 0.  0.
        -11    1    3    3    0    0 -0.32949372045E+02  0.36281485396E+02 -0.50527628402E+01  0.49270048846E+02  0.51100000000E-03 0.  1.
         23    2    1    0    0    0 -0.23360280899E+02 -0.11991893607E+02 -0.37471327743E-01  0.98741484427E+02  0.95185981672E+02 0.  0.
         11    1    3    3    0    0  0.95890911459E+01 -0.48273379002E+02  0.50152915125E+01  0.49471435582E+02  0.51100000000E-03 0. -1.
         22    1    1    0    0    0  0.23360280899E+02  0.11991893607E+02  0.37471327743E-01  0.26258515573E+02  0.00000000000E+00 0. -1.
</event>
<event>
 5    1  0.1111613E-009  0.9118800E+02  0.7818608E-02  0.1130116E+00
         25   -1    0    0    0    0  0.00000000000E+00  0.00000000000E+00  0.99999998245E-14  0.12500000000E+03  0.12500000000E+03 0.  0.
        -11    1    3    3    0    0  0.30091880335E+02 -0.80522976638E+01  0.39639843199E+02  0.50415056569E+02  0.51100000000E-03 0. -1.
         23    2    1    0    0    0  0.24408349357E+02 -0.56679349158E+01 -0.81879695647E+01  0.98638364047E+02  0.95050465605E+02 0.  0.
         11    1    3    3    0    0 -0.56835309783E+01  0.23843627479E+01 -0.47827812764E+02  0.48223307478E+02  0.51100000000E-03 0.  1.
         22    1    1    0    0    0 -0.24408349357E+02  0.56679349158E+01  0.81879695647E+01  0.26361635953E+02  0.00000000000E+00 0. -1.
</event>
<event>
 5    1  0.1111613E-009  0.9118800E+02  0.7818608E-02  0.1130116E+00
         25   -1    0    0    0    0  0.00000000000E+00  0.00000000000E+00  0.99999998245E-14  0.12500000000E+03  0.12500000000E+03 0.  0.
        -11    1    3    3    0    0  0.71559623744E+01  0.35440670220E+02  0.17561906840E+02  0.40195391219E+02  0.51100000000E-03 0. -1.
         23    2    1    0    0    0 -0.72505894868E+01 -0.22128536356E+02  0.84119883866E+01  0.10024106792E+03  0.97135302438E+02 0.  0.
         11    1    3    3    0    0 -0.14406551861E+02 -0.57569206576E+02 -0.91499184533E+01  0.60045676700E+02  0.51100000000E-03 0.  1.
         22    1    1    0    0    0  0.72505894868E+01  0.22128536356E+02 -0.84119883866E+01  0.24758932081E+02  0.00000000000E+00 0.  1.
</event>
<event>
 5    1  0.1111613E-009  0.9118800E+02  0.7818608E-02  0.1130116E+00
         25   -1    0    0    0    0  0.00000000000E+00  0.00000000000E+00  0.99999998245E-14  0.12500000000E+03  0.12500000000E+03 0.  0.
        -11    1    3    3    0    0  0.30849252788E+02 -0.18885023054E+02 -0.83133939224E+01  0.37113784664E+02  0.51100000000E-03 0.  1.
         23    2    1    0    0    0 -0.19903200444E+02  0.80321580791E+01 -0.19913655420E+02  0.95721908814E+02  0.91134390893E+02 0.  0.
         11    1    3    3    0    0 -0.50752453232E+02  0.26917181133E+02 -0.11600261498E+02  0.58608124149E+02  0.51100000000E-03 0. -1.
         22    1    1    0    0    0  0.19903200444E+02 -0.80321580791E+01  0.19913655420E+02  0.29278091186E+02  0.00000000000E+00 0. -1.
</event>
<event>
 5    1  0.1111613E-009  0.9118800E+02  0.7818608E-02  0.1130116E+00
         25   -1    0    0    0    0  0.00000000000E+00  0.00000000000E+00  0.99999998245E-14  0.12500000000E+03  0.12500000000E+03 0.  0.
        -11    1    3    3    0    0 -0.54987113863E+02  0.28494118068E+01 -0.27561492104E+02  0.61573839298E+02  0.51100000000E-03 0. -1.
         23    2    1    0    0    0 -0.25097047737E+02 -0.13475686864E+01 -0.20486167407E+02  0.92575305683E+02  0.86711166644E+02 0.  0.
         11    1    3    3    0    0  0.29890066125E+02 -0.41969804932E+01  0.70753246962E+01  0.31001466386E+02  0.51100000000E-03 0.  1.
         22    1    1    0    0    0  0.25097047737E+02  0.13475686864E+01  0.20486167407E+02  0.32424694317E+02  0.00000000000E+00 0. -1.
</event>
<event>
 5    1  0.1111613E-009  0.9118800E+02  0.7818608E-02  0.1130116E+00
         25   -1    0    0    0    0  0.00000000000E+00  0.00000000000E+00  0.99999998245E-14  0.12500000000E+03  0.12500000000E+03 0.  0.
        -11    1    3    3    0    0 -0.20505273286E+01  0.41175848872E+02 -0.52696845986E+01  0.41562299848E+02  0.51100000000E-03 0.  1.
         23    2    1    0    0    0 -0.12968427815E+02  0.29608940171E+00  0.27178657391E+02  0.94884435810E+02  0.89978380472E+02 0.  0.
         11    1    3    3    0    0 -0.10917900486E+02 -0.40879759470E+02  0.32448341990E+02  0.53322135961E+02  0.51100000000E-03 0. -1.
         22    1    1    0    0    0  0.12968427815E+02 -0.29608940171E+00 -0.27178657391E+02  0.30115564190E+02  0.00000000000E+00 0. -1.
</event>
<event>
 5    1  0.1111613E-009  0.9118800E+02  0.7818608E-02  0.1130116E+00
         25   -1    0    0    0    0  0.00000000000E+00  0.00000000000E+00  0.99999998245E-14  0.12500000000E+03  0.12500000000E+03 0.  0.
        -11    1    3    3    0    0 -0.34155460382E+02 -0.36693222847E+02  0.22846727801E+02  0.55090480560E+02  0.51100000000E-03 0.  1.
         23    2    1    0    0    0 -0.22871136854E+02 -0.16834921359E+02 -0.98207272487E+01  0.94950870864E+02  0.90070626266E+02 0.  0.
         11    1    3    3    0    0  0.11284323528E+02  0.19858301489E+02 -0.32667455049E+02  0.39860390304E+02  0.51100000000E-03 0. -1.
         22    1    1    0    0    0  0.22871136854E+02  0.16834921359E+02  0.98207272487E+01  0.30049129136E+02  0.00000000000E+00 0.  1.
</event>
<event>
 5    1  0.1111613E-009  0.9118800E+02  0.7818608E-02  0.1130116E+00
         25   -1    0    0    0    0  0.00000000000E+00  0.00000000000E+00  0.99999998245E-14  0.12500000000E+03  0.12500000000E+03 0.  0.
        -11    1    3    3    0    0 -0.16328286084E+02  0.77417986356E+00 -0.29957173762E+02  0.34126888826E+02  0.51100000000E-03 0.  1.
         23    2    1    0    0    0  0.39020324023E+01 -0.10061935814E+02  0.27209644488E+02  0.95728287335E+02  0.91143139257E+02 0.  0.
         11    1    3    3    0    0  0.20230318486E+02 -0.10836115677E+02  0.57166818250E+02  0.61601398508E+02  0.51100000000E-03 0. -1.
         22    1    1    0    0    0 -0.39020324023E+01  0.10061935814E+02 -0.27209644488E+02  0.29271712665E+02  0.00000000000E+00 0. -1.
</event>
<event>
 5    1  0.1111613E-009  0.9118800E+02  0.7818608E-02  0.1130116E+00
         25   -1    0    0    0    0  0.00000000000E+00  0.00000000000E+00  0.99999998245E-14  0.12500000000E+03  0.12500000000E+03 0.  0.
        -11    1    3    3    0    0  0.13089667867E+02  0.40194568351E+02  0.37449150484E+01  0.42437802945E+02  0.51100000000E-03 0. -1.
         23    2    1    0    0    0  0.26284562249E+01 -0.28488508491E+01 -0.27871691227E+02  0.96860065652E+02  0.92682341430E+02 0.  0.
         11    1    3    3    0    0 -0.10461211642E+02 -0.43043419200E+02 -0.31616606275E+02  0.54422262707E+02  0.51100000000E-03 0.  1.
         22    1    1    0    0    0 -0.26284562249E+01  0.28488508491E+01  0.27871691227E+02  0.28139934348E+02  0.00000000000E+00 0.  1.
</event>
<event>
 5    1  0.1111613E-009  0.9118800E+02  0.7818608E-02  0.1130116E+00
         25   -1    0    0    0    0  0.00000000000E+00  0.00000000000E+00  0.99999998245E-14  0.12500000000E+03  0.12500000000E+03 0.  0.
        -11    1    3    3    0    0  0.19144371455E+02 -0.37788378686E+01  0.55016810109E+02  0.58374960119E+02  0.51100000000E-03 0.  1.
         23    2    1    0    0    0 -0.48462190824E+01 -0.10717923142E+02  0.24612733360E+02  0.97720953841E+02  0.93836232130E+02 0.  0.
         11    1    3    3    0    0 -0.23990590538E+02 -0.69390852731E+01 -0.30404076749E+02  0.39345993722E+02  0.51100000000E-03 0. -1.
         22    1    1    0    0    0  0.48462190824E+01  0.10717923142E+02 -0.24612733360E+02  0.27279046159E+02  0.00000000000E+00 0.  1.
</event>
<event>
 5    1  0.1111613E-009  0.9118800E+02  0.7818608E-02  0.1130116E+00
         25   -1    0    0    0    0  0.00000000000E+00  0.00000000000E+00  0.99999998245E-14  0.12500000000E+03  0.12500000000E+03 0.  0.
        -11    1    3    3    0    0  0.18861064906E+02  0.29167452790E+02  0.24875461119E+02  0.42723162778E+02  0.51100000000E-03 0.  1.
         23    2    1    0    0    0  0.16450415268E+02  0.37497257917E+01 -0.22699803924E+02  0.96716476453E+02  0.92488480976E+02 0.  0.
         11    1    3    3    0    0 -0.24106496379E+01 -0.25417726998E+02 -0.47575265043E+02  0.53993313675E+02  0.51100000000E-03 0. -1.
         22    1    1    0    0    0 -0.16450415268E+02 -0.37497257917E+01  0.22699803924E+02  0.28283523547E+02  0.00000000000E+00 0. -1.
</event>
<event>
 5    1  0.1111613E-009  0.9118800E+02  0.7818608E-02  0.1130116E+00
         25   -1    0    0    0    0  0.00000000000E+00  0.00000000000E+00  0.99999998245E-14  0.12500000000E+03  0.12500000000E+03 0.  0.
        -11    1    3    3    0    0 -0.76086192947E+01 -0.45481025589E+02 -0.23599612082E+01  0.46173414356E+02  0.51100000000E-03 0.  1.
         23    2    1    0    0    0  0.39892812801E+01 -0.34284719412E+01 -0.27823254091E+02  0.96683887040E+02  0.92444425251E+02 0.  0.
         11    1    3    3    0    0  0.11597900575E+02  0.42052553647E+02 -0.25463292882E+02  0.50510472683E+02  0.51100000000E-03 0. -1.
         22    1    1    0    0    0 -0.39892812801E+01  0.34284719412E+01  0.27823254091E+02  0.28316112960E+02  0.00000000000E+00 0.  1.
</event>
<event>
 5    1  0.1111613E-009  0.9118800E+02  0.7818608E-02  0.1130116E+00
         25   -1    0    0    0    0  0.00000000000E+00  0.00000000000E+00  0.99999998245E-14  0.12500000000E+03  0.12500000000E+03 0.  0.
        -11    1    3    3    0    0  0.38925034762E+02  0.12147442834E+02  0.16281406762E+02  0.43906752386E+02  0.51100000000E-03 0. -1.
         23    2    1    0    0    0 -0.10180788592E+02 -0.43104917019E+01 -0.16454927670E+02  0.10517593786E+03  0.10329077628E+03 0.  0.
         11    1    3    3    0    0 -0.49105823354E+02 -0.16457934536E+02 -0.32736334432E+02  0.61269185475E+02  0.51100000000E-03 0.  1.
         22    1    1    0    0    0  0.10180788592E+02  0.43104917019E+01  0.16454927670E+02  0.19824062139E+02  0.00000000000E+00 0.  1.
</event>
<event>
 5    1  0.1111613E-009  0.9118800E+02  0.7818608E-02  0.1130116E+00
         25   -1    0    0    0    0  0.00000000000E+00  0.00000000000E+00  0.99999998245E-14  0.12500000000E+03  0.12500000000E+03 0.  0.
        -11    1    3    3    0    0 -0.40053703303E+02 -0.69478969333E+01  0.41578615604E+02  0.58149408388E+02  0.51100000000E-03 0. -1.
         23    2    1    0    0    0 -0.26649833959E+02 -0.91568377935E+01  0.60607870273E+01  0.96176494526E+02  0.91755782551E+02 0.  0.
         11    1    3    3    0    0  0.13403869344E+02 -0.22089408601E+01 -0.35517828576E+02  0.38027086138E+02  0.51100000000E-03 0.  1.
         22    1    1    0    0    0  0.26649833959E+02  0.91568377935E+01 -0.60607870273E+01  0.28823505474E+02  0.00000000000E+00 0. -1.
</event>
<event>
 5    1  0.1111613E-009  0.9118800E+02  0.7818608E-02  0.1130116E+00
         25   -1    0    0    0    0  0.00000000000E+00  0.00000000000E+00  0.99999998245E-14  0.12500000000E+03  0.12500000000E+03 0.  0.
        -11    1    3    3    0    0 -0.52900055110E+02  0.10165197982E+01  0.17994716948E+02  0.55886125124E+02  0.51100000000E-03 0. -1.
         23    2    1    0    0    0 -0.20273065491E+02  0.20168114388E+02  0.45091423798E+01  0.96050347370E+02  0.91583769536E+02 0.  0.
         11    1    3    3    0    0  0.32626989618E+02  0.19151594590E+02 -0.13485574568E+02  0.40164222246E+02  0.51100000000E-03 0.  1.
         22    1    1    0    0    0  0.20273065491E+02 -0.20168114388E+02 -0.45091423798E+01  0.28949652630E+02  0.00000000000E+00 0. -1.
</event>
<event>
 5    1  0.1111613E-009  0.9118800E+02  0.7818608E-02  0.1130116E+00
         25   -1    0    0    0    0  0.00000000000E+00  0.00000000000E+00  0.99999998245E-14  0.12500000000E+03  0.12500000000E+03 0.  0.
        -11    1    3    3    0    0  0.10331629602E+02  0.45758092730E+02 -0.34306904020E+02  0.58116342660E+02  0.51100000000E-03 0. -1.
         23    2    1    0    0    0  0.19402788718E+02  0.20432223767E+02 -0.80785538920E+01  0.95687766870E+02  0.91087549739E+02 0.  0.
         11    1    3    3    0    0  0.90711591157E+01 -0.25325868963E+02  0.26228350128E+02  0.37571424209E+02  0.51100000000E-03 0.  1.
         22    1    1    0    0    0 -0.19402788718E+02 -0.20432223767E+02  0.80785538920E+01  0.29312233130E+02  0.00000000000E+00 0. -1.
</event>
<event>
 5    1  0.1111613E-009  0.9118800E+02  0.7818608E-02  0.1130116E+00
         25   -1    0    0    0    0  0.00000000000E+00  0.00000000000E+00  0.99999998245E-14  0.12500000000E+03  0.12500000000E+03 0.  0.
        -11    1    3    3    0    0 -0.15859338877E+02 -0.32773282834E+02 -0.24706565787E+02  0.44000239665E+02  0.51100000000E-03 0. -1.
         23    2    1    0    0    0 -0.26196727565E+02  0.13559037291E+02 -0.68638648460E+01  0.94714216734E+02  0.89741596730E+02 0.  0.
         11    1    3    3    0    0 -0.10337388688E+02  0.46332320125E+02  0.17842700940E+02  0.50713977069E+02  0.51100000000E-03 0.  1.
         22    1    1    0    0    0  0.26196727565E+02 -0.13559037291E+02  0.68638648460E+01  0.30285783266E+02  0.00000000000E+00 0. -1.
</event>
<event>
 5    1  0.1111613E-009  0.9118800E+02  0.7818608E-02  0.1130116E+00
         25   -1    0    0    0    0  0.00000000000E+00  0.00000000000E+00  0.99999998245E-14  0.12500000000E+03  0.12500000000E+03 0.  0.
        -11    1    3    3    0    0 -0.16821779061E+02 -0.55280259614E+01  0.28361002275E+02  0.33434679183E+02  0.51100000000E-03 0. -1.
         23    2    1    0    0    0  0.27149866269E+02  0.21497893258E+02  0.17584385025E+02  0.86160776917E+02  0.76910299891E+02 0.  0.
         11    1    3    3    0    0  0.43971645330E+02  0.27025919219E+02 -0.10776617249E+02  0.52726097734E+02  0.51100000000E-03 0.  1.
         22    1    1    0    0    0 -0.27149866269E+02 -0.21497893258E+02 -0.17584385025E+02  0.38839223083E+02  0.00000000000E+00 0.  1.
</event>
<event>
 5    1  0.1111613E-009  0.9118800E+02  0.7818608E-02  0.1130116E+00
         25   -1    0    0    0    0  0.00000000000E+00  0.00000000000E+00  0.99999998245E-14  0.12500000000E+03  0.12500000000E+03 0.  0.
        -11    1    3    3    0    0  0.30236527223E+01  0.39373524319E+01 -0.35474566343E+02  0.35820246753E+02  0.51100000000E-03 0.  1.
         23    2    1    0    0    0  0.12005077773E+02 -0.20935814295E+02  0.17608234760E+02  0.95125593832E+02  0.90312781255E+02 0.  0.
         11    1    3    3    0    0  0.89814250505E+01 -0.24873166727E+02  0.53082801103E+02  0.59305347079E+02  0.51100000000E-03 0. -1.
         22    1    1    0    0    0 -0.12005077773E+02  0.20935814295E+02 -0.17608234760E+02  0.29874406168E+02  0.00000000000E+00 0. -1.
</event>
<event>
 5    1  0.1111613E-009  0.9118800E+02  0.7818608E-02  0.1130116E+00
         25   -1    0    0    0    0  0.00000000000E+00  0.00000000000E+00  0.99999998245E-14  0.12500000000E+03  0.12500000000E+03 0.  0.
        -11    1    3    3    0    0 -0.77154979729E+01  0.69916922268E+01 -0.30945943517E+02  0.32650636894E+02  0.51100000000E-03 0.  1.
         23    2    1    0    0    0 -0.17175980273E+01 -0.22293307710E+02  0.22114229488E+02  0.93551933963E+02  0.88107794722E+02 0.  0.
         11    1    3    3    0    0  0.59978999456E+01 -0.29284999937E+02  0.53060173005E+02  0.60901297069E+02  0.51100000000E-03 0. -1.
         22    1    1    0    0    0  0.17175980273E+01  0.22293307710E+02 -0.22114229488E+02  0.31448066037E+02  0.00000000000E+00 0. -1.
</event>
<event>
 5    1  0.1111613E-009  0.9118800E+02  0.7818608E-02  0.1130116E+00
         25   -1    0    0    0    0  0.00000000000E+00  0.00000000000E+00  0.99999998245E-14  0.12500000000E+03  0.12500000000E+03 0.  0.
        -11    1    3    3    0    0 -0.24293560379E+02 -0.28606457023E+02  0.27189304309E+02  0.46343982656E+02  0.51100000000E-03 0.  1.
         23    2    1    0    0    0 -0.18419889997E+02  0.18589436469E+02  0.11382779246E+02  0.96461829787E+02  0.92143678279E+02 0.  0.
         11    1    3    3    0    0  0.58736703824E+01  0.47195893492E+02 -0.15806525063E+02  0.50117847132E+02  0.51100000000E-03 0. -1.
         22    1    1    0    0    0  0.18419889997E+02 -0.18589436469E+02 -0.11382779246E+02  0.28538170213E+02  0.00000000000E+00 0. -1.
</event>
<event>
 5    1  0.1111613E-009  0.9118800E+02  0.7818608E-02  0.1130116E+00
         25   -1    0    0    0    0  0.00000000000E+00  0.00000000000E+00  0.99999998245E-14  0.12500000000E+03  0.12500000000E+03 0.  0.
        -11    1    3    3    0    0  0.20758834581E+02 -0.31383160781E+02 -0.34843370077E+02  0.51282476854E+02  0.51100000000E-03 0.  1.
         23    2    1    0    0    0 -0.17011163891E+00 -0.26986534175E+02  0.59709889879E+01  0.97360270004E+02  0.93354525873E+02 0.  0.
         11    1    3    3    0    0 -0.20928946220E+02  0.43966266054E+01  0.40814359065E+02  0.46077793149E+02  0.51100000000E-03 0. -1.
         22    1    1    0    0    0  0.17011163891E+00  0.26986534175E+02 -0.59709889879E+01  0.27639729996E+02  0.00000000000E+00 0. -1.
</event>
<event>
 5    1  0.1111613E-009  0.9118800E+02  0.7818608E-02  0.1130116E+00
         25   -1    0    0    0    0  0.00000000000E+00  0.00000000000E+00  0.99999998245E-14  0.12500000000E+03  0.12500000000E+03 0.  0.
        -11    1    3    3    0    0 -0.10406017726E+02 -0.36573870796E+02  0.18200038674E+02  0.42156549170E+02  0.51100000000E-03 0.  1.
         23    2    1    0    0    0 -0.55443159002E+01  0.63729570280E+01  0.35349168003E+02  0.88655568534E+02  0.80863416534E+02 0.  0.
         11    1    3    3    0    0  0.48617018263E+01  0.42946827824E+02  0.17149129329E+02  0.46499019364E+02  0.51100000000E-03 0. -1.
         22    1    1    0    0    0  0.55443159002E+01 -0.63729570280E+01 -0.35349168003E+02  0.36344431466E+02  0.00000000000E+00 0. -1.
</event>
<event>
 5    1  0.1111613E-009  0.9118800E+02  0.7818608E-02  0.1130116E+00
         25   -1    0    0    0    0  0.00000000000E+00  0.00000000000E+00  0.99999998245E-14  0.12500000000E+03  0.12500000000E+03 0.  0.
        -11    1    3    3    0    0  0.33132265037E+02 -0.44455122011E+02 -0.21838417757E+00  0.55444139018E+02  0.51100000000E-03 0.  1.
         23    2    1    0    0    0  0.15680220935E+02 -0.10774681458E+02 -0.19293699809E+02  0.97903691369E+02  0.94079343335E+02 0.  0.
         11    1    3    3    0    0 -0.17452044102E+02  0.33680440553E+02 -0.19075315631E+02  0.42459552351E+02  0.51100000000E-03 0. -1.
         22    1    1    0    0    0 -0.15680220935E+02  0.10774681458E+02  0.19293699809E+02  0.27096308631E+02  0.00000000000E+00 0.  1.
</event>
<event>
 5    1  0.1111613E-009  0.9118800E+02  0.7818608E-02  0.1130116E+00
         25   -1    0    0    0    0  0.00000000000E+00  0.00000000000E+00  0.99999998245E-14  0.12500000000E+03  0.12500000000E+03 0.  0.
        -11    1    3    3    0    0 -0.49340479148E+01 -0.78228866998E+01  0.61287902346E+02  0.61981847015E+02  0.51100000000E-03 0.  1.
         23    2    1    0    0    0 -0.42764328304E+00 -0.88240155927E+01  0.26700745349E+02  0.96875705660E+02  0.92703432595E+02 0.  0.
         11    1    3    3    0    0  0.45064046317E+01 -0.10011288928E+01 -0.34587156997E+02  0.34893858645E+02  0.51100000000E-03 0. -1.
         22    1    1    0    0    0  0.42764328304E+00  0.88240155927E+01 -0.26700745349E+02  0.28124294340E+02  0.00000000000E+00 0.  1.
</event>
<event>
 5    1  0.1111613E-009  0.9118800E+02  0.7818608E-02  0.1130116E+00
         25   -1    0    0    0    0  0.00000000000E+00  0.00000000000E+00  0.99999998245E-14  0.12500000000E+03  0.12500000000E+03 0.  0.
        -11    1    3    3    0    0  0.50446852909E+02  0.20390427044E+02 -0.14468019027E+02  0.56302558186E+02  0.51100000000E-03 0.  1.
         23    2    1    0    0    0  0.30243326945E+02 -0.59580418383E+01  0.33666494575E+01  0.93992074952E+02  0.88730032897E+02 0.  0.
         11    1    3    3    0    0 -0.20203525964E+02 -0.26348468882E+02  0.17834668484E+02  0.37689516766E+02  0.51100000000E-03 0. -1.
         22    1    1    0    0    0 -0.30243326945E+02  0.59580418383E+01 -0.33666494575E+01  0.31007925048E+02  0.00000000000E+00 0.  1.
</event>
<event>
 5    1  0.1111613E-009  0.9118800E+02  0.7818608E-02  0.1130116E+00
         25   -1    0    0    0    0  0.00000000000E+00  0.00000000000E+00  0.99999998245E-14  0.12500000000E+03  0.12500000000E+03 0.  0.
        -11    1    3    3    0    0  0.19962457466E+02  0.88725720533E+01 -0.52952739278E+02  0.57281889286E+02  0.51100000000E-03 0.  1.
         23    2    1    0    0    0  0.21932505493E+02  0.12260280008E+02 -0.14387488188E+02  0.96045741601E+02  0.91577483042E+02 0.  0.
         11    1    3    3    0    0  0.19700480273E+01  0.33877079543E+01  0.38565251090E+02  0.38763852315E+02  0.51100000000E-03 0. -1.
         22    1    1    0    0    0 -0.21932505493E+02 -0.12260280008E+02  0.14387488188E+02  0.28954258399E+02  0.00000000000E+00 0.  1.
</event>
<event>
 5    1  0.1111613E-009  0.9118800E+02  0.7818608E-02  0.1130116E+00
         25   -1    0    0    0    0  0.00000000000E+00  0.00000000000E+00  0.99999998245E-14  0.12500000000E+03  0.12500000000E+03 0.  0.
        -11    1    3    3    0    0  0.46703764229E+01  0.55317542987E+02  0.13011748421E+02  0.57018844037E+02  0.51100000000E-03 0. -1.
         23    2    1    0    0    0  0.78538848870E+01  0.17671281122E+02  0.21852135834E+02  0.95819980726E+02  0.91268807276E+02 0.  0.
         11    1    3    3    0    0  0.31835084641E+01 -0.37646261865E+02  0.88403874125E+01  0.38801136689E+02  0.51100000000E-03 0.  1.
         22    1    1    0    0    0 -0.78538848870E+01 -0.17671281122E+02 -0.21852135834E+02  0.29180019274E+02  0.00000000000E+00 0. -1.
</event>
<event>
 5    1  0.1111613E-009  0.9118800E+02  0.7818608E-02  0.1130116E+00
         25   -1    0    0    0    0  0.00000000000E+00  0.00000000000E+00  0.99999998245E-14  0.12500000000E+03  0.12500000000E+03 0.  0.
        -11    1    3    3    0    0 -0.81579117420E+01  0.32383887805E+02 -0.12431544877E+02  0.35634407834E+02  0.51100000000E-03 0. -1.
         23    2    1    0    0    0 -0.24107295890E+01 -0.21677734634E+02  0.16899157680E+02  0.97408020617E+02  0.93418441189E+02 0.  0.
         11    1    3    3    0    0  0.57471821531E+01 -0.54061622439E+02  0.29330702557E+02  0.61773612783E+02  0.51100000000E-03 0.  1.
         22    1    1    0    0    0  0.24107295890E+01  0.21677734634E+02 -0.16899157680E+02  0.27591979383E+02  0.00000000000E+00 0.  1.
</event>
<event>
 5    1  0.1111613E-009  0.9118800E+02  0.7818608E-02  0.1130116E+00
         25   -1    0    0    0    0  0.00000000000E+00  0.00000000000E+00  0.99999998245E-14  0.12500000000E+03  0.12500000000E+03 0.  0.
        -11    1    3    3    0    0  0.40380621452E+02 -0.15837138920E+01 -0.32413852038E+02  0.51805024300E+02  0.51100000000E-03 0.  1.
         23    2    1    0    0    0 -0.43876598834E+01 -0.95172428502E+01 -0.25027473102E+02  0.97866922758E+02  0.94030477451E+02 0.  0.
         11    1    3    3    0    0 -0.44768281336E+02 -0.79335289582E+01  0.73863789357E+01  0.46061898458E+02  0.51100000000E-03 0. -1.
         22    1    1    0    0    0  0.43876598834E+01  0.95172428502E+01  0.25027473102E+02  0.27133077242E+02  0.00000000000E+00 0.  1.
</event>
<event>
 5    1  0.1111613E-009  0.9118800E+02  0.7818608E-02  0.1130116E+00
         25   -1    0    0    0    0  0.00000000000E+00  0.00000000000E+00  0.99999998245E-14  0.12500000000E+03  0.12500000000E+03 0.  0.
        -11    1    3    3    0    0 -0.45719922435E+02  0.21849267061E+02  0.14452856803E+02  0.52693328312E+02  0.51100000000E-03 0.  1.
         23    2    1    0    0    0 -0.23674156413E+02 -0.11561691577E+02 -0.64845102333E+01  0.97867228911E+02  0.94030884436E+02 0.  0.
         11    1    3    3    0    0  0.22045766022E+02 -0.33410958639E+02 -0.20937367037E+02  0.45173900599E+02  0.51100000000E-03 0. -1.
         22    1    1    0    0    0  0.23674156413E+02  0.11561691577E+02  0.64845102333E+01  0.27132771089E+02  0.00000000000E+00 0.  1.
</event>
<event>
 5    1  0.1111613E-009  0.9118800E+02  0.7818608E-02  0.1130116E+00
         25   -1    0    0    0    0  0.00000000000E+00  0.00000000000E+00  0.99999998245E-14  0.12500000000E+03  0.12500000000E+03 0.  0.
        -11    1    3    3    0    0  0.31126107544E+02 -0.15000193664E+02 -0.47913496716E+02  0.59072358584E+02  0.51100000000E-03 0.  1.
         23    2    1    0    0    0  0.34660895500E+01  0.12384546813E+01 -0.27855980153E+02  0.96901900828E+02  0.92738747064E+02 0.  0.
         11    1    3    3    0    0 -0.27660017994E+02  0.16238648345E+02  0.20057516563E+02  0.37829542245E+02  0.51100000000E-03 0. -1.
         22    1    1    0    0    0 -0.34660895500E+01 -0.12384546813E+01  0.27855980153E+02  0.28098099172E+02  0.00000000000E+00 0.  1.
</event>
<event>
 5    1  0.1111613E-009  0.9118800E+02  0.7818608E-02  0.1130116E+00
         25   -1    0    0    0    0  0.00000000000E+00  0.00000000000E+00  0.99999998245E-14  0.12500000000E+03  0.12500000000E+03 0.  0.
        -11    1    3    3    0    0 -0.15982256931E+02  0.34930807758E+02  0.32650724243E+01  0.38551972264E+02  0.51100000000E-03 0. -1.
         23    2    1    0    0    0 -0.18588273004E+02 -0.20260494709E+02 -0.10623199045E+02  0.95523502632E+02  0.90861849299E+02 0.  0.
         11    1    3    3    0    0 -0.26060160725E+01 -0.55191302467E+02 -0.13888271469E+02  0.56971530368E+02  0.51100000000E-03 0.  1.
         22    1    1    0    0    0  0.18588273004E+02  0.20260494709E+02  0.10623199045E+02  0.29476497368E+02  0.00000000000E+00 0.  1.
</event>
<event>
 5    1  0.1111613E-009  0.9118800E+02  0.7818608E-02  0.1130116E+00
         25   -1    0    0    0    0  0.00000000000E+00  0.00000000000E+00  0.99999998245E-14  0.12500000000E+03  0.12500000000E+03 0.  0.
        -11    1    3    3    0    0  0.19952722065E+02  0.38846014440E+02 -0.36107788598E+02  0.56664771714E+02  0.51100000000E-03 0. -1.
         23    2    1    0    0    0 -0.38466430264E+01  0.96486429581E+01 -0.27916965726E+02  0.95213258841E+02  0.90434035132E+02 0.  0.
         11    1    3    3    0    0 -0.23799365091E+02 -0.29197371482E+02  0.81908228721E+01  0.38548487127E+02  0.51100000000E-03 0.  1.
         22    1    1    0    0    0  0.38466430264E+01 -0.96486429581E+01  0.27916965726E+02  0.29786741159E+02  0.00000000000E+00 0. -1.
</event>
<event>
 5    1  0.1111613E-009  0.9118800E+02  0.7818608E-02  0.1130116E+00
         25   -1    0    0    0    0  0.00000000000E+00  0.00000000000E+00  0.99999998245E-14  0.12500000000E+03  0.12500000000E+03 0.  0.
        -11    1    3    3    0    0 -0.38070827756E+02  0.77124735083E+00  0.20659274448E+02  0.43321915580E+02  0.51100000000E-03 0.  1.
         23    2    1    0    0    0 -0.10409145069E+02  0.20293825615E+02 -0.18891143671E+02  0.95384717318E+02  0.90670719251E+02 0.  0.
         11    1    3    3    0    0  0.27661682687E+02  0.19522578264E+02 -0.39550418119E+02  0.52062801738E+02  0.51100000000E-03 0. -1.
         22    1    1    0    0    0  0.10409145069E+02 -0.20293825615E+02  0.18891143671E+02  0.29615282682E+02  0.00000000000E+00 0. -1.
</event>
<event>
 5    1  0.1111613E-009  0.9118800E+02  0.7818608E-02  0.1130116E+00
         25   -1    0    0    0    0  0.00000000000E+00  0.00000000000E+00  0.99999998245E-14  0.12500000000E+03  0.12500000000E+03 0.  0.
        -11    1    3    3    0    0 -0.29702848672E+02  0.18955727697E+02 -0.10748647858E+02  0.36839004639E+02  0.51100000000E-03 0.  1.
         23    2    1    0    0    0  0.10923257329E+02 -0.49550690685E+01  0.25839504931E+02  0.96512278518E+02  0.92212090474E+02 0.  0.
         11    1    3    3    0    0  0.40626106001E+02 -0.23910796765E+02  0.36588152788E+02  0.59673273879E+02  0.51100000000E-03 0. -1.
         22    1    1    0    0    0 -0.10923257329E+02  0.49550690685E+01 -0.25839504931E+02  0.28487721482E+02  0.00000000000E+00 0. -1.
</event>
<event>
 5    1  0.1111613E-009  0.9118800E+02  0.7818608E-02  0.1130116E+00
         25   -1    0    0    0    0  0.00000000000E+00  0.00000000000E+00  0.99999998245E-14  0.12500000000E+03  0.12500000000E+03 0.  0.
        -11    1    3    3    0    0 -0.20962462444E+01  0.22222727155E+02  0.39293302261E+02  0.45190789475E+02  0.51100000000E-03 0.  1.
         23    2    1    0    0    0 -0.28321000855E+02 -0.76878990463E+01  0.12805783218E+02  0.92981708900E+02  0.87295058422E+02 0.  0.
         11    1    3    3    0    0 -0.26224754610E+02 -0.29910626202E+02 -0.26487519043E+02  0.47790919425E+02  0.51100000000E-03 0. -1.
         22    1    1    0    0    0  0.28321000855E+02  0.76878990463E+01 -0.12805783218E+02  0.32018291100E+02  0.00000000000E+00 0.  1.
</event>
<event>
 5    1  0.1111613E-009  0.9118800E+02  0.7818608E-02  0.1130116E+00
         25   -1    0    0    0    0  0.00000000000E+00  0.00000000000E+00  0.99999998245E-14  0.12500000000E+03  0.12500000000E+03 0.  0.
        -11    1    3    3    0    0  0.37737630149E+02  0.86596082322E+01 -0.26252274680E+02  0.46779263249E+02  0.51100000000E-03 0. -1.
         23    2    1    0    0    0  0.12576119221E+02 -0.25251509471E+02  0.53417986855E+00  0.96785059749E+02  0.92581126248E+02 0.  0.
         11    1    3    3    0    0 -0.25161510928E+02 -0.33911117703E+02  0.26786454548E+02  0.50005796500E+02  0.51100000000E-03 0.  1.
         22    1    1    0    0    0 -0.12576119221E+02  0.25251509471E+02 -0.53417986855E+00  0.28214940251E+02  0.00000000000E+00 0.  1.
</event>
<event>
 5    1  0.1111613E-009  0.9118800E+02  0.7818608E-02  0.1130116E+00
         25   -1    0    0    0    0  0.00000000000E+00  0.00000000000E+00  0.99999998245E-14  0.12500000000E+03  0.12500000000E+03 0.  0.
        -11    1    3    3    0    0 -0.86868794207E+01  0.26213045072E+01  0.39061929125E+02  0.40101962777E+02  0.51100000000E-03 0.  1.
         23    2    1    0    0    0 -0.39319623046E+01  0.25889682300E+02 -0.11832037754E+02  0.96264428062E+02  0.91875497362E+02 0.  0.
         11    1    3    3    0    0  0.47549171161E+01  0.23268377793E+02 -0.50893966879E+02  0.56162465285E+02  0.51100000000E-03 0. -1.
         22    1    1    0    0    0  0.39319623046E+01 -0.25889682300E+02  0.11832037754E+02  0.28735571938E+02  0.00000000000E+00 0. -1.
</event>
<event>
 5    1  0.1111613E-009  0.9118800E+02  0.7818608E-02  0.1130116E+00
         25   -1    0    0    0    0  0.00000000000E+00  0.00000000000E+00  0.99999998245E-14  0.12500000000E+03  0.12500000000E+03 0.  0.
        -11    1    3    3    0    0  0.25769346755E+02  0.26428821222E+02 -0.37960719167E+02  0.52948635707E+02  0.51100000000E-03 0. -1.
         23    2    1    0    0    0  0.21648341358E+02  0.14620316267E+02  0.56122660064E+01  0.98281058011E+02  0.94579408450E+02 0.  0.
         11    1    3    3    0    0 -0.41210053974E+01 -0.11808504955E+02  0.43572985173E+02  0.45332422303E+02  0.51100000000E-03 0.  1.
         22    1    1    0    0    0 -0.21648341358E+02 -0.14620316267E+02 -0.56122660064E+01  0.26718941989E+02  0.00000000000E+00 0. -1.
</event>
<event>
 5    1  0.1111613E-009  0.9118800E+02  0.7818608E-02  0.1130116E+00
         25   -1    0    0    0    0  0.00000000000E+00  0.00000000000E+00  0.99999998245E-14  0.12500000000E+03  0.12500000000E+03 0.  0.
        -11    1    3    3    0    0  0.15202899882E+02  0.31426689671E+02 -0.29684393327E+01  0.35036789534E+02  0.51100000000E-03 0.  1.
         23    2    1    0    0    0 -0.18454483816E+02 -0.16865289572E+02  0.14064407629E+02  0.96315273625E+02  0.91944648600E+02 0.  0.
         11    1    3    3    0    0 -0.33657383698E+02 -0.48291979243E+02  0.17032846961E+02  0.61278484091E+02  0.51100000000E-03 0. -1.
         22    1    1    0    0    0  0.18454483816E+02  0.16865289572E+02 -0.14064407629E+02  0.28684726375E+02  0.00000000000E+00 0. -1.
</event>
<event>
 5    1  0.1111613E-009  0.9118800E+02  0.7818608E-02  0.1130116E+00
         25   -1    0    0    0    0  0.00000000000E+00  0.00000000000E+00  0.99999998245E-14  0.12500000000E+03  0.12500000000E+03 0.  0.
        -11    1    3    3    0    0 -0.48892662855E+02  0.96496615093E+01 -0.21727388149E+02  0.54366238093E+02  0.51100000000E-03 0. -1.
         23    2    1    0    0    0 -0.18819167318E+02  0.22208975616E+02  0.36364111765E+01  0.95663620832E+02  0.91054407955E+02 0.  0.
         11    1    3    3    0    0  0.30073495537E+02  0.12559314106E+02  0.25363799326E+02  0.41297382739E+02  0.51100000000E-03 0.  1.
         22    1    1    0    0    0  0.18819167318E+02 -0.22208975616E+02 -0.36364111765E+01  0.29336379168E+02  0.00000000000E+00 0. -1.
</event>
<event>
 5    1  0.1111613E-009  0.9118800E+02  0.7818608E-02  0.1130116E+00
         25   -1    0    0    0    0  0.00000000000E+00  0.00000000000E+00  0.99999998245E-14  0.12500000000E+03  0.12500000000E+03 0.  0.
        -11    1    3    3    0    0  0.61700540052E+02  0.48702026148E+01 -0.19069404870E+01  0.61921821182E+02  0.51100000000E-03 0. -1.
         23    2    1    0    0    0  0.28764171878E+02  0.61655651625E+00 -0.66553660410E+01  0.95469479806E+02  0.90787498873E+02 0.  0.
         11    1    3    3    0    0 -0.32936368174E+02 -0.42536460985E+01 -0.47484255540E+01  0.33547658624E+02  0.51100000000E-03 0.  1.
         22    1    1    0    0    0 -0.28764171878E+02 -0.61655651625E+00  0.66553660410E+01  0.29530520194E+02  0.00000000000E+00 0. -1.
</event>
<event>
 5    1  0.1111613E-009  0.9118800E+02  0.7818608E-02  0.1130116E+00
         25   -1    0    0    0    0  0.00000000000E+00  0.00000000000E+00  0.99999998245E-14  0.12500000000E+03  0.12500000000E+03 0.  0.
        -11    1    3    3    0    0 -0.19225068971E+02  0.40510904168E+02 -0.15764749311E+02  0.47531715249E+02  0.51100000000E-03 0. -1.
         23    2    1    0    0    0  0.22344092383E+02  0.13621134048E+02 -0.79325690901E+01  0.97655541521E+02  0.93749055356E+02 0.  0.
         11    1    3    3    0    0  0.41569161354E+02 -0.26889770120E+02  0.78321802209E+01  0.50123826271E+02  0.51100000000E-03 0.  1.
         22    1    1    0    0    0 -0.22344092383E+02 -0.13621134048E+02  0.79325690901E+01  0.27344458479E+02  0.00000000000E+00 0.  1.
</event>
<event>
 5    1  0.1111613E-009  0.9118800E+02  0.7818608E-02  0.1130116E+00
         25   -1    0    0    0    0  0.00000000000E+00  0.00000000000E+00  0.99999998245E-14  0.12500000000E+03  0.12500000000E+03 0.  0.
        -11    1    3    3    0    0 -0.45476515668E+02  0.23727521319E+02  0.22817799068E+02  0.56140544171E+02  0.51100000000E-03 0. -1.
         23    2    1    0    0    0 -0.18561736555E+02 -0.70716326243E+01  0.19480163974E+02  0.97178734026E+02  0.93111135245E+02 0.  0.
         11    1    3    3    0    0  0.26914779112E+02 -0.30799153944E+02 -0.33376350939E+01  0.41038189855E+02  0.51100000000E-03 0.  1.
         22    1    1    0    0    0  0.18561736555E+02  0.70716326243E+01 -0.19480163974E+02  0.27821265974E+02  0.00000000000E+00 0. -1.
</event>
<event>
 5    1  0.1111613E-009  0.9118800E+02  0.7818608E-02  0.1130116E+00
         25   -1    0    0    0    0  0.00000000000E+00  0.00000000000E+00  0.99999998245E-14  0.12500000000E+03  0.12500000000E+03 0.  0.
        -11    1    3    3    0    0 -0.13652129716E+02 -0.15444379650E+02  0.26515019819E+02  0.33585052997E+02  0.51100000000E-03 0. -1.
         23    2    1    0    0    0 -0.27973814301E+02 -0.56216081053E+01 -0.24447820458E+02  0.87425637871E+02  0.78939277092E+02 0.  0.
         11    1    3    3    0    0 -0.14321684585E+02  0.98227715446E+01 -0.50962840277E+02  0.53840584874E+02  0.51100000000E-03 0.  1.
         22    1    1    0    0    0  0.27973814301E+02  0.56216081053E+01  0.24447820458E+02  0.37574362129E+02  0.00000000000E+00 0.  1.
</event>
<event>
 5    1  0.1111613E-009  0.9118800E+02  0.7818608E-02  0.1130116E+00
         25   -1    0    0    0    0  0.00000000000E+00  0.00000000000E+00  0.99999998245E-14  0.12500000000E+03  0.12500000000E+03 0.  0.
        -11    1    3    3    0    0  0.34009923862E+02 -0.33722228049E+02  0.38344742010E+02  0.61352936570E+02  0.51100000000E-03 0. -1.
         23    2    1    0    0    0  0.83098448941E+01 -0.19484648177E+02  0.19122636202E+02  0.96462651629E+02  0.92144793164E+02 0.  0.
         11    1    3    3    0    0 -0.25700078968E+02  0.14237579872E+02 -0.19222105808E+02  0.35109715059E+02  0.51100000000E-03 0.  1.
         22    1    1    0    0    0 -0.83098448941E+01  0.19484648177E+02 -0.19122636202E+02  0.28537348371E+02  0.00000000000E+00 0. -1.
</event>
<event>
 5    1  0.1111613E-009  0.9118800E+02  0.7818608E-02  0.1130116E+00
         25   -1    0    0    0    0  0.00000000000E+00  0.00000000000E+00  0.99999998245E-14  0.12500000000E+03  0.12500000000E+03 0.  0.
        -11    1    3    3    0    0  0.24642598546E+02  0.31989181756E+02  0.34147981432E+02  0.52883362683E+02  0.51100000000E-03 0. -1.
         23    2    1    0    0    0  0.27554477377E+01 -0.26320796417E+01  0.30784331016E+02  0.93980725805E+02  0.88714043146E+02 0.  0.
         11    1    3    3    0    0 -0.21887150808E+02 -0.34621261397E+02 -0.33636504160E+01  0.41097363123E+02  0.51100000000E-03 0.  1.
         22    1    1    0    0    0 -0.27554477377E+01  0.26320796417E+01 -0.30784331016E+02  0.31019274195E+02  0.00000000000E+00 0. -1.
</event>
<event>
 5    1  0.1111613E-009  0.9118800E+02  0.7818608E-02  0.1130116E+00
         25   -1    0    0    0    0  0.00000000000E+00  0.00000000000E+00  0.99999998245E-14  0.12500000000E+03  0.12500000000E+03 0.  0.
        -11    1    3    3    0    0  0.11924537000E+02  0.30424018897E+02 -0.21953044151E+02  0.39366885275E+02  0.51100000000E-03 0.  1.
         23    2    1    0    0    0 -0.24727743205E+02 -0.83739463591E+01  0.37820682596E+01  0.98620305120E+02  0.95026713508E+02 0.  0.
         11    1    3    3    0    0 -0.36652280205E+02 -0.38797965256E+02  0.25735112410E+02  0.59253419845E+02  0.51100000000E-03 0. -1.
         22    1    1    0    0    0  0.24727743205E+02  0.83739463591E+01 -0.37820682596E+01  0.26379694880E+02  0.00000000000E+00 0. -1.
</event>
<event>
 5    1  0.1111613E-009  0.9118800E+02  0.7818608E-02  0.1130116E+00
         25   -1    0    0    0    0  0.00000000000E+00  0.00000000000E+00  0.99999998245E-14  0.12500000000E+03  0.12500000000E+03 0.  0.
        -11    1    3    3    0    0  0.22185052803E+02  0.14177982054E+02 -0.24110209991E+02  0.35700055589E+02  0.51100000000E-03 0.  1.
         23    2    1    0    0    0 -0.23898960057E+02 -0.17480607222E+02 -0.39806806057E+01  0.95123960457E+02  0.90310520507E+02 0.  0.
         11    1    3    3    0    0 -0.46084012860E+02 -0.31658589276E+02  0.20129529385E+02  0.59423904868E+02  0.51100000000E-03 0. -1.
         22    1    1    0    0    0  0.23898960057E+02  0.17480607222E+02  0.39806806057E+01  0.29876039543E+02  0.00000000000E+00 0. -1.
</event>
<event>
 5    1  0.1111613E-009  0.9118800E+02  0.7818608E-02  0.1130116E+00
         25   -1    0    0    0    0  0.00000000000E+00  0.00000000000E+00  0.99999998245E-14  0.12500000000E+03  0.12500000000E+03 0.  0.
        -11    1    3    3    0    0 -0.42525855887E+02  0.15892142780E+02 -0.42340087762E+02  0.62078109290E+02  0.51100000000E-03 0.  1.
         23    2    1    0    0    0 -0.15792459951E+02  0.24686140301E+01 -0.19909915878E+02  0.99467655869E+02  0.96134873835E+02 0.  0.
         11    1    3    3    0    0  0.26733395936E+02 -0.13423528750E+02  0.22430171884E+02  0.37389546579E+02  0.51100000000E-03 0. -1.
         22    1    1    0    0    0  0.15792459951E+02 -0.24686140301E+01  0.19909915878E+02  0.25532344131E+02  0.00000000000E+00 0.  1.
</event>
<event>
 5    1  0.1111613E-009  0.9118800E+02  0.7818608E-02  0.1130116E+00
         25   -1    0    0    0    0  0.00000000000E+00  0.00000000000E+00  0.99999998245E-14  0.12500000000E+03  0.12500000000E+03 0.  0.
        -11    1    3    3    0    0 -0.27410368060E+02 -0.20934190069E+02  0.26529301387E+02  0.43512899506E+02  0.51100000000E-03 0. -1.
         23    2    1    0    0    0 -0.14190046609E+02  0.25260927106E+02  0.10975198068E+02  0.94017313970E+02  0.88765581689E+02 0.  0.
         11    1    3    3    0    0  0.13220321451E+02  0.46195117175E+02 -0.15554103319E+02  0.50504414465E+02  0.51100000000E-03 0.  1.
         22    1    1    0    0    0  0.14190046609E+02 -0.25260927106E+02 -0.10975198068E+02  0.30982686030E+02  0.00000000000E+00 0. -1.
</event>
<event>
 5    1  0.1111613E-009  0.9118800E+02  0.7818608E-02  0.1130116E+00
         25   -1    0    0    0    0  0.00000000000E+00  0.00000000000E+00  0.99999998245E-14  0.12500000000E+03  0.12500000000E+03 0.  0.
        -11    1    3    3    0    0 -0.83146221879E+01  0.22768996884E+02 -0.44661394202E+02  0.50815354900E+02  0.51100000000E-03 0.  1.
         23    2    1    0    0    0  0.72184008948E+00  0.32262244524E+02 -0.53052560339E+01  0.92296495350E+02  0.86308306886E+02 0.  0.
         11    1    3    3    0    0  0.90364622774E+01  0.94932476390E+01  0.39356138169E+02  0.41481140450E+02  0.51100000000E-03 0. -1.
         22    1    1    0    0    0 -0.72184008948E+00 -0.32262244524E+02  0.53052560339E+01  0.32703504650E+02  0.00000000000E+00 0.  1.
</event>
<event>
 5    1  0.1111613E-009  0.9118800E+02  0.7818608E-02  0.1130116E+00
         25   -1    0    0    0    0  0.00000000000E+00  0.00000000000E+00  0.99999998245E-14  0.12500000000E+03  0.12500000000E+03 0.  0.
        -11    1    3    3    0    0 -0.24109436381E+02 -0.23979729102E+02  0.17104110397E+02  0.38063669334E+02  0.51100000000E-03 0. -1.
         23    2    1    0    0    0 -0.89055770666E+01  0.27941827203E+02 -0.24034711524E+01  0.95574982007E+02  0.90932642663E+02 0.  0.
         11    1    3    3    0    0  0.15203859314E+02  0.51921556305E+02 -0.19507581549E+02  0.57511312673E+02  0.51100000000E-03 0.  1.
         22    1    1    0    0    0  0.89055770666E+01 -0.27941827203E+02  0.24034711524E+01  0.29425017993E+02  0.00000000000E+00 0.  1.
</event>
<event>
 5    1  0.1111613E-009  0.9118800E+02  0.7818608E-02  0.1130116E+00
         25   -1    0    0    0    0  0.00000000000E+00  0.00000000000E+00  0.99999998245E-14  0.12500000000E+03  0.12500000000E+03 0.  0.
        -11    1    3    3    0    0  0.25411138488E+02 -0.48464864525E+02 -0.57719342967E+01  0.55026214466E+02  0.51100000000E-03 0.  1.
         23    2    1    0    0    0  0.20470089940E+02 -0.16562625680E+02  0.16207014801E+02  0.94080548511E+02  0.88854584169E+02 0.  0.
         11    1    3    3    0    0 -0.49410485477E+01  0.31902238844E+02  0.21978949098E+02  0.39054334046E+02  0.51100000000E-03 0. -1.
         22    1    1    0    0    0 -0.20470089940E+02  0.16562625680E+02 -0.16207014801E+02  0.30919451489E+02  0.00000000000E+00 0.  1.
</event>
<event>
 5    1  0.1111613E-009  0.9118800E+02  0.7818608E-02  0.1130116E+00
         25   -1    0    0    0    0  0.00000000000E+00  0.00000000000E+00  0.99999998245E-14  0.12500000000E+03  0.12500000000E+03 0.  0.
        -11    1    3    3    0    0  0.37496754033E+02 -0.34774845824E+02 -0.27754024883E+02  0.58185757386E+02  0.51100000000E-03 0. -1.
         23    2    1    0    0    0  0.14357582086E+02 -0.27608944780E+02 -0.29029814908E+02  0.82442695705E+02  0.70609304814E+02 0.  0.
         11    1    3    3    0    0 -0.23139171947E+02  0.71659010448E+01 -0.12757900256E+01  0.24256938319E+02  0.51100000000E-03 0.  1.
         22    1    1    0    0    0 -0.14357582086E+02  0.27608944780E+02  0.29029814908E+02  0.42557304295E+02  0.00000000000E+00 0. -1.
</event>
<event>
 5    1  0.1111613E-009  0.9118800E+02  0.7818608E-02  0.1130116E+00
         25   -1    0    0    0    0  0.00000000000E+00  0.00000000000E+00  0.99999998245E-14  0.12500000000E+03  0.12500000000E+03 0.  0.
        -11    1    3    3    0    0  0.17906600700E+02  0.45289603236E+02 -0.36613958493E+02  0.60929274300E+02  0.51100000000E-03 0. -1.
         23    2    1    0    0    0  0.16075533535E+02  0.22936755318E+02 -0.11173063414E+02  0.94844488580E+02  0.89922867754E+02 0.  0.
         11    1    3    3    0    0 -0.18310671659E+01 -0.22352847918E+02  0.25440895078E+02  0.33915214280E+02  0.51100000000E-03 0.  1.
         22    1    1    0    0    0 -0.16075533535E+02 -0.22936755318E+02  0.11173063414E+02  0.30155511420E+02  0.00000000000E+00 0. -1.
</event>
<event>
 5    1  0.1111613E-009  0.9118800E+02  0.7818608E-02  0.1130116E+00
         25   -1    0    0    0    0  0.00000000000E+00  0.00000000000E+00  0.99999998245E-14  0.12500000000E+03  0.12500000000E+03 0.  0.
        -11    1    3    3    0    0  0.16299315382E+02 -0.65123474606E+01  0.39169140898E+02  0.42922021741E+02  0.51100000000E-03 0.  1.
         23    2    1    0    0    0 -0.66500440501E+01 -0.25983648118E+02 -0.62994230014E+01  0.97449032947E+02  0.93473302267E+02 0.  0.
         11    1    3    3    0    0 -0.22949359433E+02 -0.19471300658E+02 -0.45468563900E+02  0.54527011206E+02  0.51100000000E-03 0. -1.
         22    1    1    0    0    0  0.66500440501E+01  0.25983648118E+02  0.62994230014E+01  0.27550967053E+02  0.00000000000E+00 0. -1.
</event>
<event>
 5    1  0.1111613E-009  0.9118800E+02  0.7818608E-02  0.1130116E+00
         25   -1    0    0    0    0  0.00000000000E+00  0.00000000000E+00  0.99999998245E-14  0.12500000000E+03  0.12500000000E+03 0.  0.
        -11    1    3    3    0    0  0.54734862595E+02  0.11601795854E+02  0.18838991026E+02  0.59037398600E+02  0.51100000000E-03 0. -1.
         23    2    1    0    0    0  0.21547081790E+02  0.78816372970E+00  0.22136874675E+02  0.94097910166E+02  0.88879005065E+02 0.  0.
         11    1    3    3    0    0 -0.33187780804E+02 -0.10813632125E+02  0.32978836493E+01  0.35060511566E+02  0.51100000000E-03 0.  1.
         22    1    1    0    0    0 -0.21547081790E+02 -0.78816372970E+00 -0.22136874675E+02  0.30902089834E+02  0.00000000000E+00 0. -1.
</event>
<event>
 5    1  0.1111613E-009  0.9118800E+02  0.7818608E-02  0.1130116E+00
         25   -1    0    0    0    0  0.00000000000E+00  0.00000000000E+00  0.99999998245E-14  0.12500000000E+03  0.12500000000E+03 0.  0.
        -11    1    3    3    0    0  0.28566736650E+02  0.29648599068E+02  0.34120530113E+02  0.53472501765E+02  0.51100000000E-03 0.  1.
         23    2    1    0    0    0  0.29293277728E+02 -0.19339913003E+01  0.77141395140E+01  0.94646344687E+02  0.89647008716E+02 0.  0.
         11    1    3    3    0    0  0.72654107805E+00 -0.31582590368E+02 -0.26406390599E+02  0.41173842923E+02  0.51100000000E-03 0. -1.
         22    1    1    0    0    0 -0.29293277728E+02  0.19339913003E+01 -0.77141395140E+01  0.30353655313E+02  0.00000000000E+00 0. -1.
</event>
<event>
 5    1  0.1111613E-009  0.9118800E+02  0.7818608E-02  0.1130116E+00
         25   -1    0    0    0    0  0.00000000000E+00  0.00000000000E+00  0.99999998245E-14  0.12500000000E+03  0.12500000000E+03 0.  0.
        -11    1    3    3    0    0  0.26901095430E+02  0.18516098591E+02  0.16531546610E+02  0.36603372467E+02  0.51100000000E-03 0.  1.
         23    2    1    0    0    0  0.23512574153E+01 -0.27523034688E+02 -0.10601294085E+02  0.95412278119E+02  0.90708707023E+02 0.  0.
         11    1    3    3    0    0 -0.24549838014E+02 -0.46039133279E+02 -0.27132840695E+02  0.58808905652E+02  0.51100000000E-03 0. -1.
         22    1    1    0    0    0 -0.23512574153E+01  0.27523034688E+02  0.10601294085E+02  0.29587721881E+02  0.00000000000E+00 0. -1.
</event>
<event>
 5    1  0.1111613E-009  0.9118800E+02  0.7818608E-02  0.1130116E+00
         25   -1    0    0    0    0  0.00000000000E+00  0.00000000000E+00  0.99999998245E-14  0.12500000000E+03  0.12500000000E+03 0.  0.
        -11    1    3    3    0    0  0.24571997339E+02  0.23828843891E+02 -0.39575835300E+02  0.52324407253E+02  0.51100000000E-03 0.  1.
         23    2    1    0    0    0 -0.11692957249E+02  0.33491398502E+01 -0.26277372664E+02  0.96044131837E+02  0.91575285744E+02 0.  0.
         11    1    3    3    0    0 -0.36264954588E+02 -0.20479704041E+02  0.13298462636E+02  0.43719724583E+02  0.51100000000E-03 0. -1.
         22    1    1    0    0    0  0.11692957249E+02 -0.33491398502E+01  0.26277372664E+02  0.28955868163E+02  0.00000000000E+00 0. -1.
</event>
<event>
 5    1  0.1111613E-009  0.9118800E+02  0.7818608E-02  0.1130116E+00
         25   -1    0    0    0    0  0.00000000000E+00  0.00000000000E+00  0.99999998245E-14  0.12500000000E+03  0.12500000000E+03 0.  0.
        -11    1    3    3    0    0  0.29819602076E+02  0.12169304951E+02 -0.30358129062E+02  0.44259650375E+02  0.51100000000E-03 0. -1.
         23    2    1    0    0    0 -0.12152740261E+02 -0.16575070679E+02 -0.20292257335E+02  0.96117517912E+02  0.91675402797E+02 0.  0.
         11    1    3    3    0    0 -0.41972342337E+02 -0.28744375629E+02  0.10065871727E+02  0.51857867537E+02  0.51100000000E-03 0.  1.
         22    1    1    0    0    0  0.12152740261E+02  0.16575070679E+02  0.20292257335E+02  0.28882482088E+02  0.00000000000E+00 0.  1.
</event>
<event>
 5    1  0.1111613E-009  0.9118800E+02  0.7818608E-02  0.1130116E+00
         25   -1    0    0    0    0  0.00000000000E+00  0.00000000000E+00  0.99999998245E-14  0.12500000000E+03  0.12500000000E+03 0.  0.
        -11    1    3    3    0    0 -0.20430138265E+02  0.65310175127E+01 -0.27375245228E+02  0.34777130284E+02  0.51100000000E-03 0. -1.
         23    2    1    0    0    0 -0.16351035992E+02 -0.34586541312E+02  0.38240834185E+01  0.86552518523E+02  0.77544372012E+02 0.  0.
         11    1    3    3    0    0  0.40791022731E+01 -0.41117558824E+02  0.31199328646E+02  0.51775388239E+02  0.51100000000E-03 0.  1.
         22    1    1    0    0    0  0.16351035992E+02  0.34586541312E+02 -0.38240834185E+01  0.38447481477E+02  0.00000000000E+00 0.  1.
</event>
<event>
 5    1  0.1111613E-009  0.9118800E+02  0.7818608E-02  0.1130116E+00
         25   -1    0    0    0    0  0.00000000000E+00  0.00000000000E+00  0.99999998245E-14  0.12500000000E+03  0.12500000000E+03 0.  0.
        -11    1    3    3    0    0  0.44459564783E+02  0.18736259845E+02  0.21710334107E+00  0.48246735307E+02  0.51100000000E-03 0. -1.
         23    2    1    0    0    0  0.61999575453E+01  0.58984645450E+01 -0.26836747213E+02  0.96831891108E+02  0.92644334835E+02 0.  0.
         11    1    3    3    0    0 -0.38259607238E+02 -0.12837795300E+02 -0.27053850554E+02  0.48585155801E+02  0.51100000000E-03 0.  1.
         22    1    1    0    0    0 -0.61999575453E+01 -0.58984645450E+01  0.26836747213E+02  0.28168108892E+02  0.00000000000E+00 0.  1.
</event>
<event>
 5    1  0.1111613E-009  0.9118800E+02  0.7818608E-02  0.1130116E+00
         25   -1    0    0    0    0  0.00000000000E+00  0.00000000000E+00  0.99999998245E-14  0.12500000000E+03  0.12500000000E+03 0.  0.
        -11    1    3    3    0    0 -0.93290645062E+00  0.11267793671E+02  0.35456819348E+02  0.37215850483E+02  0.51100000000E-03 0.  1.
         23    2    1    0    0    0  0.19437496474E+02 -0.19699136018E+02 -0.97342165342E+01  0.95663551671E+02  0.91054313010E+02 0.  0.
         11    1    3    3    0    0  0.20370402925E+02 -0.30966929689E+02 -0.45191035882E+02  0.58447701187E+02  0.51100000000E-03 0. -1.
         22    1    1    0    0    0 -0.19437496474E+02  0.19699136018E+02  0.97342165342E+01  0.29336448329E+02  0.00000000000E+00 0. -1.
</event>
<event>
 5    1  0.1111613E-009  0.9118800E+02  0.7818608E-02  0.1130116E+00
         25   -1    0    0    0    0  0.00000000000E+00  0.00000000000E+00  0.99999998245E-14  0.12500000000E+03  0.12500000000E+03 0.  0.
        -11    1    3    3    0    0  0.17114111922E+02  0.68644566957E+01 -0.41878464716E+02  0.45758271382E+02  0.51100000000E-03 0. -1.
         23    2    1    0    0    0  0.20253640504E+02 -0.22063405978E+02 -0.21907797906E+01  0.94969959156E+02  0.90097113100E+02 0.  0.
         11    1    3    3    0    0  0.31395285813E+01 -0.28927862674E+02  0.39687684925E+02  0.49211687774E+02  0.51100000000E-03 0.  1.
         22    1    1    0    0    0 -0.20253640504E+02  0.22063405978E+02  0.21907797906E+01  0.30030040844E+02  0.00000000000E+00 0. -1.
</event>
<event>
 5    1  0.1111613E-009  0.9118800E+02  0.7818608E-02  0.1130116E+00
         25   -1    0    0    0    0  0.00000000000E+00  0.00000000000E+00  0.99999998245E-14  0.12500000000E+03  0.12500000000E+03 0.  0.
        -11    1    3    3    0    0  0.19156570350E+02 -0.22113001625E+02 -0.55146251847E+02  0.62426501756E+02  0.51100000000E-03 0. -1.
         23    2    1    0    0    0  0.73005055971E+01 -0.89930553659E+01 -0.26311188341E+02  0.96251938175E+02  0.91858502839E+02 0.  0.
         11    1    3    3    0    0 -0.11856064753E+02  0.13119946259E+02  0.28835063507E+02  0.33825436419E+02  0.51100000000E-03 0.  1.
         22    1    1    0    0    0 -0.73005055971E+01  0.89930553659E+01  0.26311188341E+02  0.28748061825E+02  0.00000000000E+00 0. -1.
</event>
<event>
 5    1  0.1111613E-009  0.9118800E+02  0.7818608E-02  0.1130116E+00
         25   -1    0    0    0    0  0.00000000000E+00  0.00000000000E+00  0.99999998245E-14  0.12500000000E+03  0.12500000000E+03 0.  0.
        -11    1    3    3    0    0 -0.20510267506E+02  0.18181541362E+01 -0.50508391715E+02  0.54544242515E+02  0.51100000000E-03 0.  1.
         23    2    1    0    0    0  0.10236300797E+02 -0.90497593963E+01 -0.26982795362E+02  0.94755145153E+02  0.89798587340E+02 0.  0.
         11    1    3    3    0    0  0.30746568303E+02 -0.10867913533E+02  0.23525596353E+02  0.40210902638E+02  0.51100000000E-03 0. -1.
         22    1    1    0    0    0 -0.10236300797E+02  0.90497593963E+01  0.26982795362E+02  0.30244854847E+02  0.00000000000E+00 0.  1.
</event>
<event>
 5    1  0.1111613E-009  0.9118800E+02  0.7818608E-02  0.1130116E+00
         25   -1    0    0    0    0  0.00000000000E+00  0.00000000000E+00  0.99999998245E-14  0.12500000000E+03  0.12500000000E+03 0.  0.
        -11    1    3    3    0    0 -0.46386180242E+01 -0.32324851548E+02 -0.22557370478E+02  0.39689391126E+02  0.51100000000E-03 0.  1.
         23    2    1    0    0    0  0.24510276565E+02 -0.41679668615E+01  0.15842228438E+02  0.95519467323E+02  0.90856297694E+02 0.  0.
         11    1    3    3    0    0  0.29148894589E+02  0.28156884687E+02  0.38399598916E+02  0.55830076197E+02  0.51100000000E-03 0. -1.
         22    1    1    0    0    0 -0.24510276565E+02  0.41679668615E+01 -0.15842228438E+02  0.29480532677E+02  0.00000000000E+00 0. -1.
</event>
<event>
 5    1  0.1111613E-009  0.9118800E+02  0.7818608E-02  0.1130116E+00
         25   -1    0    0    0    0  0.00000000000E+00  0.00000000000E+00  0.99999998245E-14  0.12500000000E+03  0.12500000000E+03 0.  0.
        -11    1    3    3    0    0  0.27179111636E+02 -0.13646711402E+02  0.31866196308E+02  0.44049872972E+02  0.51100000000E-03 0.  1.
         23    2    1    0    0    0  0.22835940277E+02  0.86633064108E+01 -0.15140950875E+02  0.96263586868E+02  0.91874352879E+02 0.  0.
         11    1    3    3    0    0 -0.43431713586E+01  0.22310017812E+02 -0.47007147183E+02  0.52213713896E+02  0.51100000000E-03 0. -1.
         22    1    1    0    0    0 -0.22835940277E+02 -0.86633064108E+01  0.15140950875E+02  0.28736413132E+02  0.00000000000E+00 0. -1.
</event>
<event>
 5    1  0.1111613E-009  0.9118800E+02  0.7818608E-02  0.1130116E+00
         25   -1    0    0    0    0  0.00000000000E+00  0.00000000000E+00  0.99999998245E-14  0.12500000000E+03  0.12500000000E+03 0.  0.
        -11    1    3    3    0    0 -0.18053331797E+02  0.82429670913E+00 -0.28656241046E+02  0.33878937486E+02  0.51100000000E-03 0. -1.
         23    2    1    0    0    0  0.19781893345E+02 -0.14069675194E+02  0.17262414883E+02  0.95212921729E+02  0.90433569166E+02 0.  0.
         11    1    3    3    0    0  0.37835225141E+02 -0.14893971903E+02  0.45918655929E+02  0.61333984243E+02  0.51100000000E-03 0.  1.
         22    1    1    0    0    0 -0.19781893345E+02  0.14069675194E+02 -0.17262414883E+02  0.29787078271E+02  0.00000000000E+00 0.  1.
</event>
<event>
 5    1  0.1111613E-009  0.9118800E+02  0.7818608E-02  0.1130116E+00
         25   -1    0    0    0    0  0.00000000000E+00  0.00000000000E+00  0.99999998245E-14  0.12500000000E+03  0.12500000000E+03 0.  0.
        -11    1    3    3    0    0 -0.50227503175E+02 -0.41609680803E+01  0.46793521656E+01  0.50616322146E+02  0.51100000000E-03 0.  1.
         23    2    1    0    0    0 -0.12598041123E+02  0.57495362732E+01 -0.22849179367E+02  0.98281976023E+02  0.94580621724E+02 0.  0.
         11    1    3    3    0    0  0.37629462053E+02  0.99105043536E+01 -0.27528531533E+02  0.47665653877E+02  0.51100000000E-03 0. -1.
         22    1    1    0    0    0  0.12598041123E+02 -0.57495362732E+01  0.22849179367E+02  0.26718023977E+02  0.00000000000E+00 0. -1.
</event>
<event>
 5    1  0.1111613E-009  0.9118800E+02  0.7818608E-02  0.1130116E+00
         25   -1    0    0    0    0  0.00000000000E+00  0.00000000000E+00  0.99999998245E-14  0.12500000000E+03  0.12500000000E+03 0.  0.
        -11    1    3    3    0    0  0.26524771308E+02 -0.10584381804E+02 -0.22515284662E+02  0.36366614838E+02  0.51100000000E-03 0.  1.
         23    2    1    0    0    0 -0.13715445762E+02 -0.16785989541E+02  0.20194554822E+02  0.95373948259E+02  0.90655871650E+02 0.  0.
         11    1    3    3    0    0 -0.40240217070E+02 -0.62016077366E+01  0.42709839484E+02  0.59007333420E+02  0.51100000000E-03 0. -1.
         22    1    1    0    0    0  0.13715445762E+02  0.16785989541E+02 -0.20194554822E+02  0.29626051741E+02  0.00000000000E+00 0. -1.
</event>
<event>
 5    1  0.1111613E-009  0.9118800E+02  0.7818608E-02  0.1130116E+00
         25   -1    0    0    0    0  0.00000000000E+00  0.00000000000E+00  0.99999998245E-14  0.12500000000E+03  0.12500000000E+03 0.  0.
        -11    1    3    3    0    0  0.19200853847E+01 -0.41027141176E+02  0.40213116611E+02  0.57480499204E+02  0.51100000000E-03 0.  1.
         23    2    1    0    0    0 -0.12870631807E+02 -0.99824449183E+01  0.25180367460E+02  0.95010780686E+02  0.90153730768E+02 0.  0.
         11    1    3    3    0    0 -0.14790717192E+02  0.31044696257E+02 -0.15032749151E+02  0.37530281481E+02  0.51100000000E-03 0. -1.
         22    1    1    0    0    0  0.12870631807E+02  0.99824449183E+01 -0.25180367460E+02  0.29989219314E+02  0.00000000000E+00 0.  1.
</event>
<event>
 5    1  0.1111613E-009  0.9118800E+02  0.7818608E-02  0.1130116E+00
         25   -1    0    0    0    0  0.00000000000E+00  0.00000000000E+00  0.99999998245E-14  0.12500000000E+03  0.12500000000E+03 0.  0.
        -11    1    3    3    0    0 -0.43843681510E+02 -0.19088925264E+02 -0.10318215948E+02  0.48919536554E+02  0.51100000000E-03 0. -1.
         23    2    1    0    0    0 -0.20597357212E+02  0.12024528728E+02  0.16395046603E+02  0.96058024111E+02  0.91594246695E+02 0.  0.
         11    1    3    3    0    0  0.23246324298E+02  0.31113453992E+02  0.26713262551E+02  0.47138487556E+02  0.51100000000E-03 0.  1.
         22    1    1    0    0    0  0.20597357212E+02 -0.12024528728E+02 -0.16395046603E+02  0.28941975889E+02  0.00000000000E+00 0. -1.
</event>
<event>
 5    1  0.1111613E-009  0.9118800E+02  0.7818608E-02  0.1130116E+00
         25   -1    0    0    0    0  0.00000000000E+00  0.00000000000E+00  0.99999998245E-14  0.12500000000E+03  0.12500000000E+03 0.  0.
        -11    1    3    3    0    0  0.14652788997E+02 -0.30179315427E+02 -0.47041994751E+02  0.57779274619E+02  0.51100000000E-03 0. -1.
         23    2    1    0    0    0 -0.10554946668E+02 -0.12834631988E+02 -0.22637718838E+02  0.96917959625E+02  0.92760389749E+02 0.  0.
         11    1    3    3    0    0 -0.25207735665E+02  0.17344683439E+02  0.24404275913E+02  0.39138685007E+02  0.51100000000E-03 0.  1.
         22    1    1    0    0    0  0.10554946668E+02  0.12834631988E+02  0.22637718838E+02  0.28082040375E+02  0.00000000000E+00 0. -1.
</event>
<event>
 5    1  0.1111613E-009  0.9118800E+02  0.7818608E-02  0.1130116E+00
         25   -1    0    0    0    0  0.00000000000E+00  0.00000000000E+00  0.99999998245E-14  0.12500000000E+03  0.12500000000E+03 0.  0.
        -11    1    3    3    0    0  0.11201698430E+02 -0.48392860226E+02 -0.69808838593E+01  0.50160539354E+02  0.51100000000E-03 0. -1.
         23    2    1    0    0    0 -0.54344686350E+01 -0.23568670349E+02  0.22375132158E+02  0.92050611380E+02  0.85951456328E+02 0.  0.
         11    1    3    3    0    0 -0.16636167065E+02  0.24824189877E+02  0.29356016017E+02  0.41890072026E+02  0.51100000000E-03 0.  1.
         22    1    1    0    0    0  0.54344686350E+01  0.23568670349E+02 -0.22375132158E+02  0.32949388620E+02  0.00000000000E+00 0. -1.
</event>
<event>
 5    1  0.1111613E-009  0.9118800E+02  0.7818608E-02  0.1130116E+00
         25   -1    0    0    0    0  0.00000000000E+00  0.00000000000E+00  0.99999998245E-14  0.12500000000E+03  0.12500000000E+03 0.  0.
        -11    1    3    3    0    0 -0.47512973088E+02  0.19171459426E+02  0.29918448587E+02  0.59330776451E+02  0.51100000000E-03 0.  1.
         23    2    1    0    0    0 -0.14654046326E+02  0.20865377001E+02  0.14519657501E+02  0.95658468257E+02  0.91047334196E+02 0.  0.
         11    1    3    3    0    0  0.32858926762E+02  0.16939175754E+01 -0.15398791086E+02  0.36327691805E+02  0.51100000000E-03 0. -1.
         22    1    1    0    0    0  0.14654046326E+02 -0.20865377001E+02 -0.14519657501E+02  0.29341531743E+02  0.00000000000E+00 0.  1.
</event>
<event>
 5    1  0.1111613E-009  0.9118800E+02  0.7818608E-02  0.1130116E+00
         25   -1    0    0    0    0  0.00000000000E+00  0.00000000000E+00  0.99999998245E-14  0.12500000000E+03  0.12500000000E+03 0.  0.
        -11    1    3    3    0    0  0.61463336588E+02  0.34000389875E+01 -0.16637701609E+01  0.61579786790E+02  0.51100000000E-03 0.  1.
         23    2    1    0    0    0  0.36178831972E+02  0.51695069077E+01  0.57865710919E+01  0.87998431256E+02  0.79841141111E+02 0.  0.
         11    1    3    3    0    0 -0.25284504616E+02  0.17694679202E+01  0.74503412527E+01  0.26418644466E+02  0.51100000000E-03 0. -1.
         22    1    1    0    0    0 -0.36178831972E+02 -0.51695069077E+01 -0.57865710919E+01  0.37001568744E+02  0.00000000000E+00 0.  1.
</event>
<event>
 5    1  0.1111613E-009  0.9118800E+02  0.7818608E-02  0.1130116E+00
         25   -1    0    0    0    0  0.00000000000E+00  0.00000000000E+00  0.99999998245E-14  0.12500000000E+03  0.12500000000E+03 0.  0.
        -11    1    3    3    0    0  0.29738797464E+02  0.15430967733E+02 -0.27570930774E+02  0.43389711497E+02  0.51100000000E-03 0.  1.
         23    2    1    0    0    0 -0.31546421900E+01 -0.22539005383E+02 -0.20961482546E+02  0.94059051702E+02  0.88824337462E+02 0.  0.
         11    1    3    3    0    0 -0.32893439654E+02 -0.37969973116E+02  0.66094482276E+01  0.50669340205E+02  0.51100000000E-03 0. -1.
         22    1    1    0    0    0  0.31546421900E+01  0.22539005383E+02  0.20961482546E+02  0.30940948298E+02  0.00000000000E+00 0.  1.
</event>
<event>
 5    1  0.1111613E-009  0.9118800E+02  0.7818608E-02  0.1130116E+00
         25   -1    0    0    0    0  0.00000000000E+00  0.00000000000E+00  0.99999998245E-14  0.12500000000E+03  0.12500000000E+03 0.  0.
        -11    1    3    3    0    0  0.14075872502E+02  0.48615584921E+02  0.18593587973E+02  0.53919632768E+02  0.51100000000E-03 0. -1.
         23    2    1    0    0    0  0.17493201627E+02  0.11949327499E+02 -0.10969822476E+02  0.10114343830E+03  0.98289671766E+02 0.  0.
         11    1    3    3    0    0  0.34173291252E+01 -0.36666257421E+02 -0.29563410448E+02  0.47223805535E+02  0.51100000000E-03 0.  1.
         22    1    1    0    0    0 -0.17493201627E+02 -0.11949327499E+02  0.10969822476E+02  0.23856561697E+02  0.00000000000E+00 0. -1.
</event>
<event>
 5    1  0.1111613E-009  0.9118800E+02  0.7818608E-02  0.1130116E+00
         25   -1    0    0    0    0  0.00000000000E+00  0.00000000000E+00  0.99999998245E-14  0.12500000000E+03  0.12500000000E+03 0.  0.
        -11    1    3    3    0    0  0.10097999957E+02  0.52071565809E+01  0.16227872513E+02  0.19809793774E+02  0.51100000000E-03 0.  1.
         23    2    1    0    0    0 -0.13899731266E+01  0.47898680487E+02 -0.15956721273E+02  0.74494232295E+02  0.54759091243E+02 0.  0.
         11    1    3    3    0    0 -0.11487973083E+02  0.42691523906E+02 -0.32184593787E+02  0.54684438522E+02  0.51100000000E-03 0. -1.
         22    1    1    0    0    0  0.13899731266E+01 -0.47898680487E+02  0.15956721273E+02  0.50505767705E+02  0.00000000000E+00 0. -1.
</event>
<event>
 5    1  0.1111613E-009  0.9118800E+02  0.7818608E-02  0.1130116E+00
         25   -1    0    0    0    0  0.00000000000E+00  0.00000000000E+00  0.99999998245E-14  0.12500000000E+03  0.12500000000E+03 0.  0.
        -11    1    3    3    0    0  0.25773703768E+02 -0.29679638011E+02 -0.44334452047E+02  0.59251230848E+02  0.51100000000E-03 0.  1.
         23    2    1    0    0    0 -0.14875271607E+01 -0.16580756352E+02 -0.24353874462E+02  0.95500077634E+02  0.90829617464E+02 0.  0.
         11    1    3    3    0    0 -0.27261230929E+02  0.13098881659E+02  0.19980577584E+02  0.36248846787E+02  0.51100000000E-03 0. -1.
         22    1    1    0    0    0  0.14875271607E+01  0.16580756352E+02  0.24353874462E+02  0.29499922366E+02  0.00000000000E+00 0.  1.
</event>
<event>
 5    1  0.1111613E-009  0.9118800E+02  0.7818608E-02  0.1130116E+00
         25   -1    0    0    0    0  0.00000000000E+00  0.00000000000E+00  0.99999998245E-14  0.12500000000E+03  0.12500000000E+03 0.  0.
        -11    1    3    3    0    0  0.17054330261E+02 -0.51722820619E+02  0.43129094044E+01  0.54632422070E+02  0.51100000000E-03 0. -1.
         23    2    1    0    0    0 -0.11494091610E+02 -0.26384659652E+02  0.12419728664E+02  0.93654919572E+02  0.88253781183E+02 0.  0.
         11    1    3    3    0    0 -0.28548421871E+02  0.25338160967E+02  0.81068192600E+01  0.39022497502E+02  0.51100000000E-03 0.  1.
         22    1    1    0    0    0  0.11494091610E+02  0.26384659652E+02 -0.12419728664E+02  0.31345080428E+02  0.00000000000E+00 0. -1.
</event>
<event>
 5    1  0.1111613E-009  0.9118800E+02  0.7818608E-02  0.1130116E+00
         25   -1    0    0    0    0  0.00000000000E+00  0.00000000000E+00  0.99999998245E-14  0.12500000000E+03  0.12500000000E+03 0.  0.
        -11    1    3    3    0    0  0.88633236323E+01 -0.35082117243E+02 -0.18999054137E+02  0.40869028792E+02  0.51100000000E-03 0. -1.
         23    2    1    0    0    0 -0.25705086488E+02  0.66631895083E+01  0.41765734048E+00  0.98442063269E+02  0.94791960720E+02 0.  0.
         11    1    3    3    0    0 -0.34568410120E+02  0.41745306751E+02  0.19416711477E+02  0.57573034477E+02  0.51100000000E-03 0.  1.
         22    1    1    0    0    0  0.25705086488E+02 -0.66631895083E+01 -0.41765734048E+00  0.26557936731E+02  0.00000000000E+00 0.  1.
</event>
<event>
 5    1  0.1111613E-009  0.9118800E+02  0.7818608E-02  0.1130116E+00
         25   -1    0    0    0    0  0.00000000000E+00  0.00000000000E+00  0.99999998245E-14  0.12500000000E+03  0.12500000000E+03 0.  0.
        -11    1    3    3    0    0  0.22210730995E+02 -0.12658860056E+00  0.60490272301E-01  0.22211174110E+02  0.51100000000E-03 0. -1.
         23    2    1    0    0    0 -0.23589247811E+01  0.40170096663E+02 -0.26930618396E+02  0.76580382083E+02  0.59330392892E+02 0.  0.
         11    1    3    3    0    0 -0.24569655776E+02  0.40296685264E+02 -0.26991108668E+02  0.54369207973E+02  0.51100000000E-03 0.  1.
         22    1    1    0    0    0  0.23589247811E+01 -0.40170096663E+02  0.26930618396E+02  0.48419617917E+02  0.00000000000E+00 0.  1.
</event>
<event>
 5    1  0.1111613E-009  0.9118800E+02  0.7818608E-02  0.1130116E+00
         25   -1    0    0    0    0  0.00000000000E+00  0.00000000000E+00  0.99999998245E-14  0.12500000000E+03  0.12500000000E+03 0.  0.
        -11    1    3    3    0    0 -0.18245544078E+02  0.42672723145E+01  0.45739979241E+02  0.49429294886E+02  0.51100000000E-03 0.  1.
         23    2    1    0    0    0  0.20461617713E+02 -0.24047858923E+01  0.19238711709E+02  0.96811548059E+02  0.92616882989E+02 0.  0.
         11    1    3    3    0    0  0.38707161791E+02 -0.66720582068E+01 -0.26501267532E+02  0.47382253172E+02  0.51100000000E-03 0. -1.
         22    1    1    0    0    0 -0.20461617713E+02  0.24047858923E+01 -0.19238711709E+02  0.28188451941E+02  0.00000000000E+00 0. -1.
</event>
<event>
 5    1  0.1111613E-009  0.9118800E+02  0.7818608E-02  0.1130116E+00
         25   -1    0    0    0    0  0.00000000000E+00  0.00000000000E+00  0.99999998245E-14  0.12500000000E+03  0.12500000000E+03 0.  0.
        -11    1    3    3    0    0  0.25406023755E+02  0.87170677140E+01  0.48786615098E+02  0.55691894612E+02  0.51100000000E-03 0.  1.
         23    2    1    0    0    0  0.24896676146E+02  0.13446106383E+02  0.96684850001E+01  0.95098129453E+02  0.90274760389E+02 0.  0.
         11    1    3    3    0    0 -0.50934760836E+00  0.47290386692E+01 -0.39118130098E+02  0.39406234841E+02  0.51100000000E-03 0. -1.
         22    1    1    0    0    0 -0.24896676146E+02 -0.13446106383E+02 -0.96684850001E+01  0.29901870547E+02  0.00000000000E+00 0.  1.
</event>
<event>
 5    1  0.1111613E-009  0.9118800E+02  0.7818608E-02  0.1130116E+00
         25   -1    0    0    0    0  0.00000000000E+00  0.00000000000E+00  0.99999998245E-14  0.12500000000E+03  0.12500000000E+03 0.  0.
        -11    1    3    3    0    0 -0.23096549774E+01 -0.19216904460E+02  0.53942272792E+02  0.57309621508E+02  0.51100000000E-03 0.  1.
         23    2    1    0    0    0  0.10726202162E+02  0.48101153518E+01  0.26334522825E+02  0.96160864872E+02  0.91734487615E+02 0.  0.
         11    1    3    3    0    0  0.13035857139E+02  0.24027019812E+02 -0.27607749967E+02  0.38851243364E+02  0.51100000000E-03 0. -1.
         22    1    1    0    0    0 -0.10726202162E+02 -0.48101153518E+01 -0.26334522825E+02  0.28839135128E+02  0.00000000000E+00 0.  1.
</event>
<event>
 5    1  0.1111613E-009  0.9118800E+02  0.7818608E-02  0.1130116E+00
         25   -1    0    0    0    0  0.00000000000E+00  0.00000000000E+00  0.99999998245E-14  0.12500000000E+03  0.12500000000E+03 0.  0.
        -11    1    3    3    0    0 -0.30636875213E+02 -0.14905960743E+02 -0.37183125676E+02  0.50432039655E+02  0.51100000000E-03 0.  1.
         23    2    1    0    0    0 -0.18158747481E+02  0.19393639818E+02 -0.77359916179E+01  0.97328734366E+02  0.93312290678E+02 0.  0.
         11    1    3    3    0    0  0.12478127731E+02  0.34299600561E+02  0.29447134058E+02  0.46896694711E+02  0.51100000000E-03 0. -1.
         22    1    1    0    0    0  0.18158747481E+02 -0.19393639818E+02  0.77359916179E+01  0.27671265634E+02  0.00000000000E+00 0.  1.
</event>
<event>
 5    1  0.1111613E-009  0.9118800E+02  0.7818608E-02  0.1130116E+00
         25   -1    0    0    0    0  0.00000000000E+00  0.00000000000E+00  0.99999998245E-14  0.12500000000E+03  0.12500000000E+03 0.  0.
        -11    1    3    3    0    0  0.44324927409E+02  0.37925912851E+02  0.17893390178E+02  0.61018419086E+02  0.51100000000E-03 0.  1.
         23    2    1    0    0    0  0.23260616142E+02  0.17214292555E+02 -0.93082909147E+00  0.96047373620E+02  0.91579710663E+02 0.  0.
         11    1    3    3    0    0 -0.21064311267E+02 -0.20711620296E+02 -0.18824219269E+02  0.35028954535E+02  0.51100000000E-03 0. -1.
         22    1    1    0    0    0 -0.23260616142E+02 -0.17214292555E+02  0.93082909147E+00  0.28952626380E+02  0.00000000000E+00 0.  1.
</event>
<event>
 5    1  0.1111613E-009  0.9118800E+02  0.7818608E-02  0.1130116E+00
         25   -1    0    0    0    0  0.00000000000E+00  0.00000000000E+00  0.99999998245E-14  0.12500000000E+03  0.12500000000E+03 0.  0.
        -11    1    3    3    0    0 -0.17869812807E+02 -0.10420819961E+02 -0.33853011292E+02  0.39673039614E+02  0.51100000000E-03 0.  1.
         23    2    1    0    0    0  0.15720576570E+02  0.23916312881E+02 -0.43337299555E+01  0.96053363497E+02  0.91587886067E+02 0.  0.
         11    1    3    3    0    0  0.33590389377E+02  0.34337132842E+02  0.29519281336E+02  0.56380323883E+02  0.51100000000E-03 0. -1.
         22    1    1    0    0    0 -0.15720576570E+02 -0.23916312881E+02  0.43337299555E+01  0.28946636503E+02  0.00000000000E+00 0. -1.
</event>
<event>
 5    1  0.1111613E-009  0.9118800E+02  0.7818608E-02  0.1130116E+00
         25   -1    0    0    0    0  0.00000000000E+00  0.00000000000E+00  0.99999998245E-14  0.12500000000E+03  0.12500000000E+03 0.  0.
        -11    1    3    3    0    0  0.26077798820E+02 -0.10271807861E+02  0.23271683399E+02  0.36429834977E+02  0.51100000000E-03 0.  1.
         23    2    1    0    0    0 -0.78440428853E+01  0.26130879826E+02 -0.96137366808E+01  0.96072922335E+02  0.91614576263E+02 0.  0.
         11    1    3    3    0    0 -0.33921841705E+02  0.36402687687E+02 -0.32885420079E+02  0.59643087358E+02  0.51100000000E-03 0. -1.
         22    1    1    0    0    0  0.78440428853E+01 -0.26130879826E+02  0.96137366808E+01  0.28927077665E+02  0.00000000000E+00 0. -1.
</event>
<event>
 5    1  0.1111613E-009  0.9118800E+02  0.7818608E-02  0.1130116E+00
         25   -1    0    0    0    0  0.00000000000E+00  0.00000000000E+00  0.99999998245E-14  0.12500000000E+03  0.12500000000E+03 0.  0.
        -11    1    3    3    0    0  0.25386800117E+01 -0.29294132282E+02  0.24279993684E+02  0.38132783479E+02  0.51100000000E-03 0.  1.
         23    2    1    0    0    0 -0.14764371857E+02 -0.21552124811E+01 -0.24345844191E+02  0.96445635246E+02  0.92121706516E+02 0.  0.
         11    1    3    3    0    0 -0.17303051868E+02  0.27138919801E+02 -0.48625837874E+02  0.58312851766E+02  0.51100000000E-03 0. -1.
         22    1    1    0    0    0  0.14764371857E+02  0.21552124811E+01  0.24345844191E+02  0.28554364754E+02  0.00000000000E+00 0. -1.
</event>
<event>
 5    1  0.1111613E-009  0.9118800E+02  0.7818608E-02  0.1130116E+00
         25   -1    0    0    0    0  0.00000000000E+00  0.00000000000E+00  0.99999998245E-14  0.12500000000E+03  0.12500000000E+03 0.  0.
        -11    1    3    3    0    0  0.24891227971E+02 -0.26936078255E+02 -0.46354760595E+01  0.36967731607E+02  0.51100000000E-03 0.  1.
         23    2    1    0    0    0  0.52707563491E+01  0.27421882905E+02 -0.10744623067E+02  0.95080316522E+02  0.90250092136E+02 0.  0.
         11    1    3    3    0    0 -0.19620471622E+02  0.54357961160E+02 -0.61091470077E+01  0.58112584915E+02  0.51100000000E-03 0. -1.
         22    1    1    0    0    0 -0.52707563491E+01 -0.27421882905E+02  0.10744623067E+02  0.29919683478E+02  0.00000000000E+00 0. -1.
</event>
<event>
 5    1  0.1111613E-009  0.9118800E+02  0.7818608E-02  0.1130116E+00
         25   -1    0    0    0    0  0.00000000000E+00  0.00000000000E+00  0.99999998245E-14  0.12500000000E+03  0.12500000000E+03 0.  0.
        -11    1    3    3    0    0  0.31882114371E+02  0.18248877265E+02  0.28265897859E+00  0.36736502753E+02  0.51100000000E-03 0. -1.
         23    2    1    0    0    0 -0.14372584691E+02  0.15013364499E+01 -0.28007445655E+02  0.93484254507E+02  0.88011724371E+02 0.  0.
         11    1    3    3    0    0 -0.46254699062E+02 -0.16747540815E+02 -0.28290104634E+02  0.56747751754E+02  0.51100000000E-03 0.  1.
         22    1    1    0    0    0  0.14372584691E+02 -0.15013364499E+01  0.28007445655E+02  0.31515745493E+02  0.00000000000E+00 0.  1.
</event>
<event>
 5    1  0.1111613E-009  0.9118800E+02  0.7818608E-02  0.1130116E+00
         25   -1    0    0    0    0  0.00000000000E+00  0.00000000000E+00  0.99999998245E-14  0.12500000000E+03  0.12500000000E+03 0.  0.
        -11    1    3    3    0    0  0.28954584876E+02 -0.30040141657E+02  0.41277540759E+02  0.58690829500E+02  0.51100000000E-03 0. -1.
         23    2    1    0    0    0  0.94250153213E+01 -0.98290424520E+00  0.26795501067E+02  0.96578249667E+02  0.92301475702E+02 0.  0.
         11    1    3    3    0    0 -0.19529569555E+02  0.29057237411E+02 -0.14482039691E+02  0.37887420166E+02  0.51100000000E-03 0.  1.
         22    1    1    0    0    0 -0.94250153213E+01  0.98290424520E+00 -0.26795501067E+02  0.28421750333E+02  0.00000000000E+00 0. -1.
</event>
<event>
 5    1  0.1111613E-009  0.9118800E+02  0.7818608E-02  0.1130116E+00
         25   -1    0    0    0    0  0.00000000000E+00  0.00000000000E+00  0.99999998245E-14  0.12500000000E+03  0.12500000000E+03 0.  0.
        -11    1    3    3    0    0  0.39722564903E+02  0.15050718908E+02  0.17700640626E+02  0.46018680782E+02  0.51100000000E-03 0. -1.
         23    2    1    0    0    0  0.20017009314E+02  0.25033872628E+02  0.37489461347E+02  0.75676221224E+02  0.57393861222E+02 0.  0.
         11    1    3    3    0    0 -0.19705555588E+02  0.99831537197E+01  0.19788820721E+02  0.29657540441E+02  0.51100000000E-03 0.  1.
         22    1    1    0    0    0 -0.20017009314E+02 -0.25033872628E+02 -0.37489461347E+02  0.49323778776E+02  0.00000000000E+00 0. -1.
</event>
<event>
 5    1  0.1111613E-009  0.9118800E+02  0.7818608E-02  0.1130116E+00
         25   -1    0    0    0    0  0.00000000000E+00  0.00000000000E+00  0.99999998245E-14  0.12500000000E+03  0.12500000000E+03 0.  0.
        -11    1    3    3    0    0 -0.28356250753E+02  0.40804955354E+02  0.26915319221E+01  0.49763095589E+02  0.51100000000E-03 0.  1.
         23    2    1    0    0    0  0.72560117151E+01  0.18012534846E+02  0.21490554800E+02  0.96035451614E+02  0.91563436499E+02 0.  0.
         11    1    3    3    0    0  0.35612262468E+02 -0.22792420508E+02  0.18799022878E+02  0.46272356025E+02  0.51100000000E-03 0. -1.
         22    1    1    0    0    0 -0.72560117151E+01 -0.18012534846E+02 -0.21490554800E+02  0.28964548386E+02  0.00000000000E+00 0.  1.
</event>
<event>
 5    1  0.1111613E-009  0.9118800E+02  0.7818608E-02  0.1130116E+00
         25   -1    0    0    0    0  0.00000000000E+00  0.00000000000E+00  0.99999998245E-14  0.12500000000E+03  0.12500000000E+03 0.  0.
        -11    1    3    3    0    0  0.49018979119E+02  0.15429796101E+02  0.17099712484E+02  0.54160309165E+02  0.51100000000E-03 0.  1.
         23    2    1    0    0    0  0.27451607191E+02 -0.11791712199E+02 -0.40904698898E+01  0.94844284822E+02  0.89922584514E+02 0.  0.
         11    1    3    3    0    0 -0.21567371928E+02 -0.27221508300E+02 -0.21190182373E+02  0.40683975657E+02  0.51100000000E-03 0. -1.
         22    1    1    0    0    0 -0.27451607191E+02  0.11791712199E+02  0.40904698898E+01  0.30155715178E+02  0.00000000000E+00 0. -1.
</event>
<event>
 5    1  0.1111613E-009  0.9118800E+02  0.7818608E-02  0.1130116E+00
         25   -1    0    0    0    0  0.00000000000E+00  0.00000000000E+00  0.99999998245E-14  0.12500000000E+03  0.12500000000E+03 0.  0.
        -11    1    3    3    0    0  0.26283451864E+02  0.33680673292E+02  0.38990024928E+02  0.57839689137E+02  0.51100000000E-03 0. -1.
         23    2    1    0    0    0  0.23798573048E+02  0.31818030583E+01  0.15424176513E+02  0.96462285114E+02  0.92144295963E+02 0.  0.
         11    1    3    3    0    0 -0.24848788167E+01 -0.30498870233E+02 -0.23565848415E+02  0.38622595977E+02  0.51100000000E-03 0.  1.
         22    1    1    0    0    0 -0.23798573048E+02 -0.31818030583E+01 -0.15424176513E+02  0.28537714886E+02  0.00000000000E+00 0. -1.
</event>
<event>
 5    1  0.1111613E-009  0.9118800E+02  0.7818608E-02  0.1130116E+00
         25   -1    0    0    0    0  0.00000000000E+00  0.00000000000E+00  0.99999998245E-14  0.12500000000E+03  0.12500000000E+03 0.  0.
        -11    1    3    3    0    0  0.19212742121E+01  0.31136741919E+02  0.91857191947E+01  0.32520231077E+02  0.51100000000E-03 0. -1.
         23    2    1    0    0    0  0.15279184120E+02 -0.27691028254E+02  0.14424119258E+01  0.93340450646E+02  0.87807247203E+02 0.  0.
         11    1    3    3    0    0  0.13357909908E+02 -0.58827770173E+02 -0.77433072689E+01  0.60820219569E+02  0.51100000000E-03 0.  1.
         22    1    1    0    0    0 -0.15279184120E+02  0.27691028254E+02 -0.14424119258E+01  0.31659549354E+02  0.00000000000E+00 0.  1.
</event>
<event>
 5    1  0.1111613E-009  0.9118800E+02  0.7818608E-02  0.1130116E+00
         25   -1    0    0    0    0  0.00000000000E+00  0.00000000000E+00  0.99999998245E-14  0.12500000000E+03  0.12500000000E+03 0.  0.
        -11    1    3    3    0    0 -0.35805436840E+02  0.28415791202E+02 -0.17559438509E+02  0.48967544128E+02  0.51100000000E-03 0.  1.
         23    2    1    0    0    0  0.28053546585E+01  0.27841512109E+02  0.87359767158E+01  0.95685547925E+02  0.91084504616E+02 0.  0.
         11    1    3    3    0    0  0.38610791498E+02 -0.57427909241E+00  0.26295415225E+02  0.46718003796E+02  0.51100000000E-03 0. -1.
         22    1    1    0    0    0 -0.28053546585E+01 -0.27841512109E+02 -0.87359767158E+01  0.29314452075E+02  0.00000000000E+00 0. -1.
</event>
<event>
 5    1  0.1111613E-009  0.9118800E+02  0.7818608E-02  0.1130116E+00
         25   -1    0    0    0    0  0.00000000000E+00  0.00000000000E+00  0.99999998245E-14  0.12500000000E+03  0.12500000000E+03 0.  0.
        -11    1    3    3    0    0 -0.27079743568E+02 -0.46821716501E+02 -0.27738871929E+02  0.60786763888E+02  0.51100000000E-03 0.  1.
         23    2    1    0    0    0 -0.16388773191E+02 -0.14362220721E+02 -0.19066904973E+02  0.96044652722E+02  0.91575996749E+02 0.  0.
         11    1    3    3    0    0  0.10690970376E+02  0.32459495780E+02  0.86719669565E+01  0.35257888834E+02  0.51100000000E-03 0. -1.
         22    1    1    0    0    0  0.16388773191E+02  0.14362220721E+02  0.19066904973E+02  0.28955347278E+02  0.00000000000E+00 0.  1.
</event>
<event>
 5    1  0.1111613E-009  0.9118800E+02  0.7818608E-02  0.1130116E+00
         25   -1    0    0    0    0  0.00000000000E+00  0.00000000000E+00  0.99999998245E-14  0.12500000000E+03  0.12500000000E+03 0.  0.
        -11    1    3    3    0    0  0.90812828704E+01  0.32696417604E+02 -0.24901171831E+02  0.42090305078E+02  0.51100000000E-03 0.  1.
         23    2    1    0    0    0 -0.24088023242E+01 -0.19858505234E+02 -0.20952875088E+02  0.96031300802E+02  0.91557769744E+02 0.  0.
         11    1    3    3    0    0 -0.11490085195E+02 -0.52554922838E+02  0.39482967434E+01  0.53940995724E+02  0.51100000000E-03 0. -1.
         22    1    1    0    0    0  0.24088023242E+01  0.19858505234E+02  0.20952875088E+02  0.28968699198E+02  0.00000000000E+00 0.  1.
</event>
<event>
 5    1  0.1111613E-009  0.9118800E+02  0.7818608E-02  0.1130116E+00
         25   -1    0    0    0    0  0.00000000000E+00  0.00000000000E+00  0.99999998245E-14  0.12500000000E+03  0.12500000000E+03 0.  0.
        -11    1    3    3    0    0  0.38700593600E+02 -0.40417649713E+00 -0.15508613004E+02  0.41694320731E+02  0.51100000000E-03 0. -1.
         23    2    1    0    0    0  0.12804021710E+02 -0.30726169806E+01  0.28939678796E+02  0.93205520041E+02  0.87614953121E+02 0.  0.
         11    1    3    3    0    0 -0.25896571890E+02 -0.26684404834E+01  0.44448291799E+02  0.51511199311E+02  0.51100000000E-03 0.  1.
         22    1    1    0    0    0 -0.12804021710E+02  0.30726169806E+01 -0.28939678796E+02  0.31794479959E+02  0.00000000000E+00 0.  1.
</event>
<event>
 5    1  0.1111613E-009  0.9118800E+02  0.7818608E-02  0.1130116E+00
         25   -1    0    0    0    0  0.00000000000E+00  0.00000000000E+00  0.99999998245E-14  0.12500000000E+03  0.12500000000E+03 0.  0.
        -11    1    3    3    0    0 -0.18966243807E+02  0.40446983202E+02  0.28536280529E+02  0.53009396912E+02  0.51100000000E-03 0. -1.
         23    2    1    0    0    0  0.15898351648E+02  0.20441276476E+02  0.11341988723E+02  0.96729094863E+02  0.92505533432E+02 0.  0.
         11    1    3    3    0    0  0.34864595455E+02 -0.20005706726E+02 -0.17194291806E+02  0.43719697950E+02  0.51100000000E-03 0.  1.
         22    1    1    0    0    0 -0.15898351648E+02 -0.20441276476E+02 -0.11341988723E+02  0.28270905137E+02  0.00000000000E+00 0. -1.
</event>
<event>
 5    1  0.1111613E-009  0.9118800E+02  0.7818608E-02  0.1130116E+00
         25   -1    0    0    0    0  0.00000000000E+00  0.00000000000E+00  0.99999998245E-14  0.12500000000E+03  0.12500000000E+03 0.  0.
        -11    1    3    3    0    0 -0.21920806024E+02  0.11753655235E+02 -0.21359454307E+02  0.32785613257E+02  0.51100000000E-03 0. -1.
         23    2    1    0    0    0  0.40644608851E+01 -0.23029570730E+02  0.21091766378E+02  0.93508039450E+02  0.88045498821E+02 0.  0.
         11    1    3    3    0    0  0.25985266909E+02 -0.34783225965E+02  0.42451220685E+02  0.60722426193E+02  0.51100000000E-03 0.  1.
         22    1    1    0    0    0 -0.40644608851E+01  0.23029570730E+02 -0.21091766378E+02  0.31491960550E+02  0.00000000000E+00 0.  1.
</event>
<event>
 5    1  0.1111613E-009  0.9118800E+02  0.7818608E-02  0.1130116E+00
         25   -1    0    0    0    0  0.00000000000E+00  0.00000000000E+00  0.99999998245E-14  0.12500000000E+03  0.12500000000E+03 0.  0.
        -11    1    3    3    0    0  0.19095540522E+02  0.33290235420E+02  0.12112264994E+02  0.40244085350E+02  0.51100000000E-03 0.  1.
         23    2    1    0    0    0 -0.22139771674E+02  0.77311910639E+01  0.25284454184E+02  0.90514576581E+02  0.83687777753E+02 0.  0.
         11    1    3    3    0    0 -0.41235312196E+02 -0.25559044356E+02  0.13172189190E+02  0.50270491231E+02  0.51100000000E-03 0. -1.
         22    1    1    0    0    0  0.22139771674E+02 -0.77311910639E+01 -0.25284454184E+02  0.34485423419E+02  0.00000000000E+00 0. -1.
</event>
<event>
 5    1  0.1111613E-009  0.9118800E+02  0.7818608E-02  0.1130116E+00
         25   -1    0    0    0    0  0.00000000000E+00  0.00000000000E+00  0.99999998245E-14  0.12500000000E+03  0.12500000000E+03 0.  0.
        -11    1    3    3    0    0  0.23503706055E+02  0.18298963219E+02 -0.11622588479E+02  0.31974377498E+02  0.51100000000E-03 0. -1.
         23    2    1    0    0    0 -0.18928139896E+02 -0.25201117947E+02 -0.32833267101E+01  0.93311657348E+02  0.87766248279E+02 0.  0.
         11    1    3    3    0    0 -0.42431845951E+02 -0.43500081166E+02  0.83392617684E+01  0.61337279850E+02  0.51100000000E-03 0.  1.
         22    1    1    0    0    0  0.18928139896E+02  0.25201117947E+02  0.32833267101E+01  0.31688342652E+02  0.00000000000E+00 0.  1.
</event>
<event>
 5    1  0.1111613E-009  0.9118800E+02  0.7818608E-02  0.1130116E+00
         25   -1    0    0    0    0  0.00000000000E+00  0.00000000000E+00  0.99999998245E-14  0.12500000000E+03  0.12500000000E+03 0.  0.
        -11    1    3    3    0    0  0.27230219456E+02 -0.42973171199E+02  0.29822042243E+02  0.58970607070E+02  0.51100000000E-03 0.  1.
         23    2    1    0    0    0  0.71009637707E+01 -0.29476353651E+02  0.39443358705E+01  0.94424897441E+02  0.89337698427E+02 0.  0.
         11    1    3    3    0    0 -0.20129255685E+02  0.13496817548E+02 -0.25877706372E+02  0.35454290371E+02  0.51100000000E-03 0. -1.
         22    1    1    0    0    0 -0.71009637707E+01  0.29476353651E+02 -0.39443358705E+01  0.30575102559E+02  0.00000000000E+00 0.  1.
</event>
<event>
 5    1  0.1111613E-009  0.9118800E+02  0.7818608E-02  0.1130116E+00
         25   -1    0    0    0    0  0.00000000000E+00  0.00000000000E+00  0.99999998245E-14  0.12500000000E+03  0.12500000000E+03 0.  0.
        -11    1    3    3    0    0 -0.37401035465E+02 -0.40166137286E+02 -0.29058232321E+02  0.62101021764E+02  0.51100000000E-03 0.  1.
         23    2    1    0    0    0 -0.18783160667E+02 -0.19887720214E+02 -0.88584922777E+01  0.96245845076E+02  0.91850211045E+02 0.  0.
         11    1    3    3    0    0  0.18617874798E+02  0.20278417071E+02  0.20199740043E+02  0.34144823312E+02  0.51100000000E-03 0. -1.
         22    1    1    0    0    0  0.18783160667E+02  0.19887720214E+02  0.88584922777E+01  0.28754154924E+02  0.00000000000E+00 0.  1.
</event>
<event>
 5    1  0.1111613E-009  0.9118800E+02  0.7818608E-02  0.1130116E+00
         25   -1    0    0    0    0  0.00000000000E+00  0.00000000000E+00  0.99999998245E-14  0.12500000000E+03  0.12500000000E+03 0.  0.
        -11    1    3    3    0    0 -0.74496284741E+01  0.25943983094E+02 -0.31921669528E+02  0.41804069287E+02  0.51100000000E-03 0. -1.
         23    2    1    0    0    0 -0.36009618375E+02  0.13913953303E+02  0.14073019340E+00  0.86395459891E+02  0.77290781940E+02 0.  0.
         11    1    3    3    0    0 -0.28559989901E+02 -0.12030029791E+02  0.32062399722E+02  0.44591390605E+02  0.51100000000E-03 0.  1.
         22    1    1    0    0    0  0.36009618375E+02 -0.13913953303E+02 -0.14073019340E+00  0.38604540109E+02  0.00000000000E+00 0.  1.
</event>
<event>
 5    1  0.1111613E-009  0.9118800E+02  0.7818608E-02  0.1130116E+00
         25   -1    0    0    0    0  0.00000000000E+00  0.00000000000E+00  0.99999998245E-14  0.12500000000E+03  0.12500000000E+03 0.  0.
        -11    1    3    3    0    0  0.71032211875E+00  0.28677631500E+01 -0.40672479516E+02  0.40779642142E+02  0.51100000000E-03 0. -1.
         23    2    1    0    0    0 -0.20004523803E+02 -0.21058005489E+02  0.41617657550E+01  0.95658206225E+02  0.91046974448E+02 0.  0.
         11    1    3    3    0    0 -0.20714845921E+02 -0.23925768639E+02  0.44834245271E+02  0.54878564083E+02  0.51100000000E-03 0.  1.
         22    1    1    0    0    0  0.20004523803E+02  0.21058005489E+02 -0.41617657550E+01  0.29341793775E+02  0.00000000000E+00 0.  1.
</event>
<event>
 5    1  0.1111613E-009  0.9118800E+02  0.7818608E-02  0.1130116E+00
         25   -1    0    0    0    0  0.00000000000E+00  0.00000000000E+00  0.99999998245E-14  0.12500000000E+03  0.12500000000E+03 0.  0.
        -11    1    3    3    0    0  0.10261608346E+02  0.46150742976E+02  0.26603386183E+02  0.54248795745E+02  0.51100000000E-03 0. -1.
         23    2    1    0    0    0  0.24644430685E+02  0.10003512141E+02  0.12270454457E+02  0.95708665590E+02  0.91116224666E+02 0.  0.
         11    1    3    3    0    0  0.14382822339E+02 -0.36147230834E+02 -0.14332931726E+02  0.41459869845E+02  0.51100000000E-03 0.  1.
         22    1    1    0    0    0 -0.24644430685E+02 -0.10003512141E+02 -0.12270454457E+02  0.29291334410E+02  0.00000000000E+00 0. -1.
</event>
<event>
 5    1  0.1111613E-009  0.9118800E+02  0.7818608E-02  0.1130116E+00
         25   -1    0    0    0    0  0.00000000000E+00  0.00000000000E+00  0.99999998245E-14  0.12500000000E+03  0.12500000000E+03 0.  0.
        -11    1    3    3    0    0 -0.73105695696E+01  0.32072017584E+02  0.66248033678E+01  0.33555130148E+02  0.51100000000E-03 0. -1.
         23    2    1    0    0    0  0.18781802970E+02 -0.23173341509E+02 -0.11743135733E+01  0.95148050451E+02  0.90343857637E+02 0.  0.
         11    1    3    3    0    0  0.26092372539E+02 -0.55245359093E+02 -0.77991169411E+01  0.61592920303E+02  0.51100000000E-03 0.  1.
         22    1    1    0    0    0 -0.18781802970E+02  0.23173341509E+02  0.11743135733E+01  0.29851949549E+02  0.00000000000E+00 0.  1.
</event>
<event>
 5    1  0.1111613E-009  0.9118800E+02  0.7818608E-02  0.1130116E+00
         25   -1    0    0    0    0  0.00000000000E+00  0.00000000000E+00  0.99999998245E-14  0.12500000000E+03  0.12500000000E+03 0.  0.
        -11    1    3    3    0    0  0.43727506458E+02 -0.12978060970E+01  0.24541943669E+02  0.50160603276E+02  0.51100000000E-03 0. -1.
         23    2    1    0    0    0  0.11864637283E+02  0.26079414134E+02  0.87096306599E+01  0.95053996499E+02  0.90213630482E+02 0.  0.
         11    1    3    3    0    0 -0.31862869175E+02  0.27377220231E+02 -0.15832313009E+02  0.44893393224E+02  0.51100000000E-03 0.  1.
         22    1    1    0    0    0 -0.11864637283E+02 -0.26079414134E+02 -0.87096306599E+01  0.29946003501E+02  0.00000000000E+00 0. -1.
</event>
<event>
 5    1  0.1111613E-009  0.9118800E+02  0.7818608E-02  0.1130116E+00
         25   -1    0    0    0    0  0.00000000000E+00  0.00000000000E+00  0.99999998245E-14  0.12500000000E+03  0.12500000000E+03 0.  0.
        -11    1    3    3    0    0  0.29387731986E+02 -0.13566568119E+02  0.44464629477E+02  0.54998125755E+02  0.51100000000E-03 0.  1.
         23    2    1    0    0    0  0.52018621488E+01 -0.25986485926E+02  0.17832743876E+02  0.93056869679E+02  0.87402616778E+02 0.  0.
         11    1    3    3    0    0 -0.24185869837E+02 -0.12419917807E+02 -0.26631885601E+02  0.38058743924E+02  0.51100000000E-03 0. -1.
         22    1    1    0    0    0 -0.52018621488E+01  0.25986485926E+02 -0.17832743876E+02  0.31943130321E+02  0.00000000000E+00 0. -1.
</event>
<event>
 5    1  0.1111613E-009  0.9118800E+02  0.7818608E-02  0.1130116E+00
         25   -1    0    0    0    0  0.00000000000E+00  0.00000000000E+00  0.99999998245E-14  0.12500000000E+03  0.12500000000E+03 0.  0.
        -11    1    3    3    0    0 -0.77178279880E+01 -0.18949945463E+02  0.38336376366E+02  0.43455069382E+02  0.51100000000E-03 0.  1.
         23    2    1    0    0    0  0.12472600041E+02  0.22561930860E+02  0.14870935782E+02  0.95238427345E+02  0.90468816927E+02 0.  0.
         11    1    3    3    0    0  0.20190428029E+02  0.41511876323E+02 -0.23465440583E+02  0.51783357962E+02  0.51100000000E-03 0. -1.
         22    1    1    0    0    0 -0.12472600041E+02 -0.22561930860E+02 -0.14870935782E+02  0.29761572655E+02  0.00000000000E+00 0. -1.
</event>
<event>
 5    1  0.1111613E-009  0.9118800E+02  0.7818608E-02  0.1130116E+00
         25   -1    0    0    0    0  0.00000000000E+00  0.00000000000E+00  0.99999998245E-14  0.12500000000E+03  0.12500000000E+03 0.  0.
        -11    1    3    3    0    0 -0.65726458485E+01  0.27853220716E+02 -0.51535930072E+02  0.58948737614E+02  0.51100000000E-03 0.  1.
         23    2    1    0    0    0 -0.13800178942E+02  0.26629739208E+01 -0.25460415022E+02  0.95917890344E+02  0.91402804038E+02 0.  0.
         11    1    3    3    0    0 -0.72275330935E+01 -0.25190246795E+02  0.26075515050E+02  0.36969152730E+02  0.51100000000E-03 0. -1.
         22    1    1    0    0    0  0.13800178942E+02 -0.26629739208E+01  0.25460415022E+02  0.29082109656E+02  0.00000000000E+00 0.  1.
</event>
<event>
 5    1  0.1111613E-009  0.9118800E+02  0.7818608E-02  0.1130116E+00
         25   -1    0    0    0    0  0.00000000000E+00  0.00000000000E+00  0.99999998245E-14  0.12500000000E+03  0.12500000000E+03 0.  0.
        -11    1    3    3    0    0 -0.50378288721E+00  0.35537339490E+02 -0.14048113447E+02  0.38216564300E+02  0.51100000000E-03 0.  1.
         23    2    1    0    0    0  0.34113925178E+00 -0.23279791981E+02  0.69937163130E+01  0.10068997823E+03  0.97711281627E+02 0.  0.
         11    1    3    3    0    0  0.84492213899E+00 -0.58817131471E+02  0.21041829760E+02  0.62473413928E+02  0.51100000000E-03 0. -1.
         22    1    1    0    0    0 -0.34113925178E+00  0.23279791981E+02 -0.69937163130E+01  0.24310021771E+02  0.00000000000E+00 0. -1.
</event>
<event>
 5    1  0.1111613E-009  0.9118800E+02  0.7818608E-02  0.1130116E+00
         25   -1    0    0    0    0  0.00000000000E+00  0.00000000000E+00  0.99999998245E-14  0.12500000000E+03  0.12500000000E+03 0.  0.
        -11    1    3    3    0    0  0.29786062721E+01 -0.27059794370E+01 -0.61243415913E+02  0.61375487070E+02  0.51100000000E-03 0.  1.
         23    2    1    0    0    0  0.92275658714E+01  0.13341750512E+01 -0.26475572702E+02  0.96930729528E+02  0.92777596336E+02 0.  0.
         11    1    3    3    0    0  0.62489595993E+01  0.40401544882E+01  0.34767843212E+02  0.35555242458E+02  0.51100000000E-03 0. -1.
         22    1    1    0    0    0 -0.92275658714E+01 -0.13341750512E+01  0.26475572702E+02  0.28069270472E+02  0.00000000000E+00 0.  1.
</event>
<event>
 5    1  0.1111613E-009  0.9118800E+02  0.7818608E-02  0.1130116E+00
         25   -1    0    0    0    0  0.00000000000E+00  0.00000000000E+00  0.99999998245E-14  0.12500000000E+03  0.12500000000E+03 0.  0.
        -11    1    3    3    0    0 -0.58314212137E+01 -0.18651168863E+02  0.29355826896E+02  0.35265225738E+02  0.51100000000E-03 0.  1.
         23    2    1    0    0    0  0.20564681068E+02  0.32148641292E+01 -0.20511985443E+02  0.95777012377E+02  0.91209939668E+02 0.  0.
         11    1    3    3    0    0  0.26396102282E+02  0.21866032992E+02 -0.49867812339E+02  0.60511786639E+02  0.51100000000E-03 0. -1.
         22    1    1    0    0    0 -0.20564681068E+02 -0.32148641292E+01  0.20511985443E+02  0.29222987623E+02  0.00000000000E+00 0. -1.
</event>
<event>
 5    1  0.1111613E-009  0.9118800E+02  0.7818608E-02  0.1130116E+00
         25   -1    0    0    0    0  0.00000000000E+00  0.00000000000E+00  0.99999998245E-14  0.12500000000E+03  0.12500000000E+03 0.  0.
        -11    1    3    3    0    0 -0.19312853373E+02 -0.17233878132E+02 -0.20661479723E+02  0.33119323747E+02  0.51100000000E-03 0. -1.
         23    2    1    0    0    0  0.20920041845E+02  0.18976569117E+02  0.96443513379E+01  0.95154198972E+02  0.90352364347E+02 0.  0.
         11    1    3    3    0    0  0.40232895218E+02  0.36210447249E+02  0.30305831061E+02  0.62034875225E+02  0.51100000000E-03 0.  1.
         22    1    1    0    0    0 -0.20920041845E+02 -0.18976569117E+02 -0.96443513379E+01  0.29845801028E+02  0.00000000000E+00 0.  1.
</event>
<event>
 5    1  0.1111613E-009  0.9118800E+02  0.7818608E-02  0.1130116E+00
         25   -1    0    0    0    0  0.00000000000E+00  0.00000000000E+00  0.99999998245E-14  0.12500000000E+03  0.12500000000E+03 0.  0.
        -11    1    3    3    0    0  0.92199855096E+01  0.35524311375E+02 -0.41204843084E+02  0.55179923208E+02  0.51100000000E-03 0. -1.
         23    2    1    0    0    0  0.25214676260E+02  0.12358221049E+02 -0.18177590567E+02  0.91549584080E+02  0.85219692677E+02 0.  0.
         11    1    3    3    0    0  0.15994690750E+02 -0.23166090326E+02  0.23027252517E+02  0.36369660871E+02  0.51100000000E-03 0.  1.
         22    1    1    0    0    0 -0.25214676260E+02 -0.12358221049E+02  0.18177590567E+02  0.33450415920E+02  0.00000000000E+00 0. -1.
</event>
<event>
 5    1  0.1111613E-009  0.9118800E+02  0.7818608E-02  0.1130116E+00
         25   -1    0    0    0    0  0.00000000000E+00  0.00000000000E+00  0.99999998245E-14  0.12500000000E+03  0.12500000000E+03 0.  0.
        -11    1    3    3    0    0  0.97628759191E+01  0.45731164716E+01  0.25397565403E+02  0.27591003409E+02  0.51100000000E-03 0.  1.
         23    2    1    0    0    0 -0.41073065671E+02  0.10123025912E+02  0.16980161567E+02  0.79417127514E+02  0.65032929186E+02 0.  0.
         11    1    3    3    0    0 -0.50835941590E+02  0.55499094404E+01 -0.84174038355E+01  0.51826124105E+02  0.51100000000E-03 0. -1.
         22    1    1    0    0    0  0.41073065671E+02 -0.10123025912E+02 -0.16980161567E+02  0.45582872486E+02  0.00000000000E+00 0. -1.
</event>
<event>
 5    1  0.1111613E-009  0.9118800E+02  0.7818608E-02  0.1130116E+00
         25   -1    0    0    0    0  0.00000000000E+00  0.00000000000E+00  0.99999998245E-14  0.12500000000E+03  0.12500000000E+03 0.  0.
        -11    1    3    3    0    0 -0.14507362246E+02 -0.27644594998E+02  0.16406132057E+02  0.35268234451E+02  0.51100000000E-03 0. -1.
         23    2    1    0    0    0  0.11705782593E+02  0.55444687114E+01 -0.26493626882E+02  0.95509683881E+02  0.90842836648E+02 0.  0.
         11    1    3    3    0    0  0.26213144840E+02  0.33189063709E+02 -0.42899758939E+02  0.60241449431E+02  0.51100000000E-03 0.  1.
         22    1    1    0    0    0 -0.11705782593E+02 -0.55444687114E+01  0.26493626882E+02  0.29490316119E+02  0.00000000000E+00 0.  1.
</event>
<event>
 5    1  0.1111613E-009  0.9118800E+02  0.7818608E-02  0.1130116E+00
         25   -1    0    0    0    0  0.00000000000E+00  0.00000000000E+00  0.99999998245E-14  0.12500000000E+03  0.12500000000E+03 0.  0.
        -11    1    3    3    0    0 -0.12430670240E+02 -0.39743266513E+02 -0.10375181249E+02  0.42914952895E+02  0.51100000000E-03 0. -1.
         23    2    1    0    0    0  0.74501392248E+01  0.17636179842E+02 -0.94536073560E+01  0.10364794844E+03  0.10142478548E+03 0.  0.
         11    1    3    3    0    0  0.19880809464E+02  0.57379446355E+02  0.92157389259E+00  0.60732995543E+02  0.51100000000E-03 0.  1.
         22    1    1    0    0    0 -0.74501392248E+01 -0.17636179842E+02  0.94536073560E+01  0.21352051562E+02  0.00000000000E+00 0.  1.
</event>
<event>
 5    1  0.1111613E-009  0.9118800E+02  0.7818608E-02  0.1130116E+00
         25   -1    0    0    0    0  0.00000000000E+00  0.00000000000E+00  0.99999998245E-14  0.12500000000E+03  0.12500000000E+03 0.  0.
        -11    1    3    3    0    0  0.57985643903E+01  0.27765750521E+02 -0.54319373635E+02  0.61279316276E+02  0.51100000000E-03 0.  1.
         23    2    1    0    0    0 -0.13893540924E+01  0.19354432712E+02 -0.20907461283E+02  0.96475513892E+02  0.92162239953E+02 0.  0.
         11    1    3    3    0    0 -0.71879184826E+01 -0.84113178087E+01  0.33411912351E+02  0.35196197616E+02  0.51100000000E-03 0. -1.
         22    1    1    0    0    0  0.13893540924E+01 -0.19354432712E+02  0.20907461283E+02  0.28524486108E+02  0.00000000000E+00 0.  1.
</event>
<event>
 5    1  0.1111613E-009  0.9118800E+02  0.7818608E-02  0.1130116E+00
         25   -1    0    0    0    0  0.00000000000E+00  0.00000000000E+00  0.99999998245E-14  0.12500000000E+03  0.12500000000E+03 0.  0.
        -11    1    3    3    0    0 -0.11729020646E+02 -0.29533419979E+02  0.20031552221E+00  0.31777868833E+02  0.51100000000E-03 0.  1.
         23    2    1    0    0    0  0.65224972107E+01  0.30061142319E+02  0.24214186570E+01  0.94144230431E+02  0.88944126325E+02 0.  0.
         11    1    3    3    0    0  0.18251517857E+02  0.59594562298E+02  0.22211031348E+01  0.62366361598E+02  0.51100000000E-03 0. -1.
         22    1    1    0    0    0 -0.65224972107E+01 -0.30061142319E+02 -0.24214186570E+01  0.30855769569E+02  0.00000000000E+00 0. -1.
</event>
<event>
 5    1  0.1111613E-009  0.9118800E+02  0.7818608E-02  0.1130116E+00
         25   -1    0    0    0    0  0.00000000000E+00  0.00000000000E+00  0.99999998245E-14  0.12500000000E+03  0.12500000000E+03 0.  0.
        -11    1    3    3    0    0 -0.74008389864E+00 -0.46622870488E+02  0.23899169144E+02  0.52396660798E+02  0.51100000000E-03 0.  1.
         23    2    1    0    0    0 -0.14698188721E+02 -0.23535209308E+02 -0.98066846123E+01  0.95570187022E+02  0.90926051028E+02 0.  0.
         11    1    3    3    0    0 -0.13958104822E+02  0.23087661180E+02 -0.33705853756E+02  0.43173526225E+02  0.51100000000E-03 0. -1.
         22    1    1    0    0    0  0.14698188721E+02  0.23535209308E+02  0.98066846123E+01  0.29429812978E+02  0.00000000000E+00 0.  1.
</event>
<event>
 5    1  0.1111613E-009  0.9118800E+02  0.7818608E-02  0.1130116E+00
         25   -1    0    0    0    0  0.00000000000E+00  0.00000000000E+00  0.99999998245E-14  0.12500000000E+03  0.12500000000E+03 0.  0.
        -11    1    3    3    0    0 -0.26585224893E+02 -0.41338744931E+02 -0.85536362112E+01  0.49888182045E+02  0.51100000000E-03 0.  1.
         23    2    1    0    0    0  0.15953006174E+02 -0.23184410102E+02 -0.61019358956E+01  0.96203317909E+02  0.91792317093E+02 0.  0.
         11    1    3    3    0    0  0.42538231067E+02  0.18154334829E+02  0.24517003155E+01  0.46315135864E+02  0.51100000000E-03 0. -1.
         22    1    1    0    0    0 -0.15953006174E+02  0.23184410102E+02  0.61019358956E+01  0.28796682091E+02  0.00000000000E+00 0.  1.
</event>
<event>
 5    1  0.1111613E-009  0.9118800E+02  0.7818608E-02  0.1130116E+00
         25   -1    0    0    0    0  0.00000000000E+00  0.00000000000E+00  0.99999998245E-14  0.12500000000E+03  0.12500000000E+03 0.  0.
        -11    1    3    3    0    0 -0.13124337751E+02 -0.50624228383E+02 -0.21436607610E+02  0.56520694324E+02  0.51100000000E-03 0.  1.
         23    2    1    0    0    0 -0.20956413103E+02 -0.13780372926E+02 -0.17551217127E+02  0.94387663422E+02  0.89285585934E+02 0.  0.
         11    1    3    3    0    0 -0.78320753517E+01  0.36843855457E+02  0.38853904824E+01  0.37866969099E+02  0.51100000000E-03 0. -1.
         22    1    1    0    0    0  0.20956413103E+02  0.13780372926E+02  0.17551217127E+02  0.30612336578E+02  0.00000000000E+00 0.  1.
</event>
<event>
 5    1  0.1111613E-009  0.9118800E+02  0.7818608E-02  0.1130116E+00
         25   -1    0    0    0    0  0.00000000000E+00  0.00000000000E+00  0.99999998245E-14  0.12500000000E+03  0.12500000000E+03 0.  0.
        -11    1    3    3    0    0 -0.11013677167E+02 -0.21965725976E+02 -0.39966896115E+02  0.46916382935E+02  0.51100000000E-03 0.  1.
         23    2    1    0    0    0 -0.23850402962E+02 -0.17544063843E+02  0.59513490749E+01  0.94799760706E+02  0.89860670911E+02 0.  0.
         11    1    3    3    0    0 -0.12836725795E+02  0.44216621328E+01  0.45918245190E+02  0.47883377771E+02  0.51100000000E-03 0. -1.
         22    1    1    0    0    0  0.23850402962E+02  0.17544063843E+02 -0.59513490749E+01  0.30200239294E+02  0.00000000000E+00 0. -1.
</event>
<event>
 5    1  0.1111613E-009  0.9118800E+02  0.7818608E-02  0.1130116E+00
         25   -1    0    0    0    0  0.00000000000E+00  0.00000000000E+00  0.99999998245E-14  0.12500000000E+03  0.12500000000E+03 0.  0.
        -11    1    3    3    0    0  0.53864726445E+01 -0.20586178201E+02 -0.34104236666E+02  0.40198305677E+02  0.51100000000E-03 0.  1.
         23    2    1    0    0    0  0.70120605264E+01 -0.15655657008E+02  0.22313635564E+02  0.96854539953E+02  0.92674888661E+02 0.  0.
         11    1    3    3    0    0  0.16255878819E+01  0.49305211932E+01  0.56417872230E+02  0.56656234276E+02  0.51100000000E-03 0. -1.
         22    1    1    0    0    0 -0.70120605264E+01  0.15655657008E+02 -0.22313635564E+02  0.28145460047E+02  0.00000000000E+00 0. -1.
</event>
<event>
 5    1  0.1111613E-009  0.9118800E+02  0.7818608E-02  0.1130116E+00
         25   -1    0    0    0    0  0.00000000000E+00  0.00000000000E+00  0.99999998245E-14  0.12500000000E+03  0.12500000000E+03 0.  0.
        -11    1    3    3    0    0  0.51446620595E+02 -0.43323081398E+01 -0.31883277726E+02  0.60680038425E+02  0.51100000000E-03 0. -1.
         23    2    1    0    0    0  0.28983714038E+02 -0.67557204413E+01 -0.67348349845E+01  0.94486831689E+02  0.89424313932E+02 0.  0.
         11    1    3    3    0    0 -0.22462906558E+02 -0.24234123015E+01  0.25148442741E+02  0.33806793264E+02  0.51100000000E-03 0.  1.
         22    1    1    0    0    0 -0.28983714038E+02  0.67557204413E+01  0.67348349845E+01  0.30513168311E+02  0.00000000000E+00 0. -1.
</event>
<event>
 5    1  0.1111613E-009  0.9118800E+02  0.7818608E-02  0.1130116E+00
         25   -1    0    0    0    0  0.00000000000E+00  0.00000000000E+00  0.99999998245E-14  0.12500000000E+03  0.12500000000E+03 0.  0.
        -11    1    3    3    0    0  0.50261790881E+01 -0.16490374003E+02 -0.40708587933E+02  0.44208415972E+02  0.51100000000E-03 0.  1.
         23    2    1    0    0    0  0.20350778160E+02 -0.21607084844E+02  0.69365324898E+01  0.94518271536E+02  0.89468250703E+02 0.  0.
         11    1    3    3    0    0  0.15324599072E+02 -0.51167108411E+01  0.47645120422E+02  0.50309855564E+02  0.51100000000E-03 0. -1.
         22    1    1    0    0    0 -0.20350778160E+02  0.21607084844E+02 -0.69365324898E+01  0.30481728464E+02  0.00000000000E+00 0. -1.
</event>
<event>
 5    1  0.1111613E-009  0.9118800E+02  0.7818608E-02  0.1130116E+00
         25   -1    0    0    0    0  0.00000000000E+00  0.00000000000E+00  0.99999998245E-14  0.12500000000E+03  0.12500000000E+03 0.  0.
        -11    1    3    3    0    0  0.20544540797E+02 -0.42226080166E+02 -0.38527709104E+02  0.60741290502E+02  0.51100000000E-03 0.  1.
         23    2    1    0    0    0  0.88008766527E+01 -0.13187282496E+02 -0.26144877020E+02  0.94423629322E+02  0.89335924075E+02 0.  0.
         11    1    3    3    0    0 -0.11743664144E+02  0.29038797670E+02  0.12382832084E+02  0.33682338820E+02  0.51100000000E-03 0. -1.
         22    1    1    0    0    0 -0.88008766527E+01  0.13187282496E+02  0.26144877020E+02  0.30576370678E+02  0.00000000000E+00 0.  1.
</event>
<event>
 5    1  0.1111613E-009  0.9118800E+02  0.7818608E-02  0.1130116E+00
         25   -1    0    0    0    0  0.00000000000E+00  0.00000000000E+00  0.99999998245E-14  0.12500000000E+03  0.12500000000E+03 0.  0.
        -11    1    3    3    0    0 -0.54017510833E+02  0.25811705903E+02 -0.59055247188E+01  0.60158215238E+02  0.51100000000E-03 0.  1.
         23    2    1    0    0    0 -0.23305998064E+02 -0.18978299742E+00 -0.77439344706E+01  0.10044039731E+03  0.97391474611E+02 0.  0.
         11    1    3    3    0    0  0.30711512769E+02 -0.26001488900E+02 -0.18384097518E+01  0.40282182069E+02  0.51100000000E-03 0. -1.
         22    1    1    0    0    0  0.23305998064E+02  0.18978299742E+00  0.77439344706E+01  0.24559602693E+02  0.00000000000E+00 0.  1.
</event>
<event>
 5    1  0.1111613E-009  0.9118800E+02  0.7818608E-02  0.1130116E+00
         25   -1    0    0    0    0  0.00000000000E+00  0.00000000000E+00  0.99999998245E-14  0.12500000000E+03  0.12500000000E+03 0.  0.
        -11    1    3    3    0    0 -0.15360583215E+02  0.30532232818E+02  0.41796789430E+02  0.53992002782E+02  0.51100000000E-03 0.  1.
         23    2    1    0    0    0  0.16167337339E+02  0.15435554501E+02  0.18308963394E+02  0.96106103067E+02  0.91659837261E+02 0.  0.
         11    1    3    3    0    0  0.31527920554E+02 -0.15096678317E+02 -0.23487826035E+02  0.42114100285E+02  0.51100000000E-03 0. -1.
         22    1    1    0    0    0 -0.16167337339E+02 -0.15435554501E+02 -0.18308963394E+02  0.28893896933E+02  0.00000000000E+00 0.  1.
</event>
<event>
 5    1  0.1111613E-009  0.9118800E+02  0.7818608E-02  0.1130116E+00
         25   -1    0    0    0    0  0.00000000000E+00  0.00000000000E+00  0.99999998245E-14  0.12500000000E+03  0.12500000000E+03 0.  0.
        -11    1    3    3    0    0 -0.36499033890E+02  0.86182838443E+01  0.18966280945E+01  0.37550652321E+02  0.51100000000E-03 0.  1.
         23    2    1    0    0    0  0.10179582584E+02 -0.15413214945E+02 -0.22871396994E+02  0.95601158237E+02  0.90968618541E+02 0.  0.
         11    1    3    3    0    0  0.46678616475E+02 -0.24031498789E+02 -0.24768025089E+02  0.58050505916E+02  0.51100000000E-03 0. -1.
         22    1    1    0    0    0 -0.10179582584E+02  0.15413214945E+02  0.22871396994E+02  0.29398841763E+02  0.00000000000E+00 0. -1.
</event>
<event>
 5    1  0.1111613E-009  0.9118800E+02  0.7818608E-02  0.1130116E+00
         25   -1    0    0    0    0  0.00000000000E+00  0.00000000000E+00  0.99999998245E-14  0.12500000000E+03  0.12500000000E+03 0.  0.
        -11    1    3    3    0    0  0.13337914040E+02  0.96653961635E+01 -0.33997782269E+02  0.37777890802E+02  0.51100000000E-03 0. -1.
         23    2    1    0    0    0 -0.30569172108E+02  0.81666281236E+01  0.48514365756E-01  0.93358722340E+02  0.87833254437E+02 0.  0.
         11    1    3    3    0    0 -0.43907086148E+02 -0.14987680398E+01  0.34046296635E+02  0.55580831538E+02  0.51100000000E-03 0.  1.
         22    1    1    0    0    0  0.30569172108E+02 -0.81666281236E+01 -0.48514365756E-01  0.31641277660E+02  0.00000000000E+00 0.  1.
</event>
<event>
 5    1  0.1111613E-009  0.9118800E+02  0.7818608E-02  0.1130116E+00
         25   -1    0    0    0    0  0.00000000000E+00  0.00000000000E+00  0.99999998245E-14  0.12500000000E+03  0.12500000000E+03 0.  0.
        -11    1    3    3    0    0  0.89552861622E+01 -0.44666586505E+02 -0.30499281220E+02  0.54822506833E+02  0.51100000000E-03 0. -1.
         23    2    1    0    0    0 -0.23793560726E+01 -0.54310816520E+01 -0.28691285241E+02  0.95702426175E+02  0.91107664572E+02 0.  0.
         11    1    3    3    0    0 -0.11334642235E+02  0.39235504853E+02  0.18079959791E+01  0.40879919342E+02  0.51100000000E-03 0.  1.
         22    1    1    0    0    0  0.23793560726E+01  0.54310816520E+01  0.28691285241E+02  0.29297573825E+02  0.00000000000E+00 0. -1.
</event>
<event>
 5    1  0.1111613E-009  0.9118800E+02  0.7818608E-02  0.1130116E+00
         25   -1    0    0    0    0  0.00000000000E+00  0.00000000000E+00  0.99999998245E-14  0.12500000000E+03  0.12500000000E+03 0.  0.
        -11    1    3    3    0    0  0.19848649366E+01  0.37296927976E+02  0.45929185240E+02  0.59198738013E+02  0.51100000000E-03 0.  1.
         23    2    1    0    0    0  0.76135505941E+01  0.63019944152E+01  0.27688283851E+02  0.95600640332E+02  0.90967906885E+02 0.  0.
         11    1    3    3    0    0  0.56286856575E+01 -0.30994933561E+02 -0.18240901389E+02  0.36401902319E+02  0.51100000000E-03 0. -1.
         22    1    1    0    0    0 -0.76135505941E+01 -0.63019944152E+01 -0.27688283851E+02  0.29399359668E+02  0.00000000000E+00 0.  1.
</event>
<event>
 5    1  0.1111613E-009  0.9118800E+02  0.7818608E-02  0.1130116E+00
         25   -1    0    0    0    0  0.00000000000E+00  0.00000000000E+00  0.99999998245E-14  0.12500000000E+03  0.12500000000E+03 0.  0.
        -11    1    3    3    0    0  0.38401417910E+01  0.35989402444E+02 -0.38923293453E+02  0.53150790687E+02  0.51100000000E-03 0. -1.
         23    2    1    0    0    0 -0.20955940033E+02  0.80660836025E+01 -0.19583094852E+02  0.95205525155E+02  0.90423344821E+02 0.  0.
         11    1    3    3    0    0 -0.24796081824E+02 -0.27923318841E+02  0.19340198601E+02  0.42054734467E+02  0.51100000000E-03 0.  1.
         22    1    1    0    0    0  0.20955940033E+02 -0.80660836025E+01  0.19583094852E+02  0.29794474845E+02  0.00000000000E+00 0.  1.
</event>
<event>
 5    1  0.1111613E-009  0.9118800E+02  0.7818608E-02  0.1130116E+00
         25   -1    0    0    0    0  0.00000000000E+00  0.00000000000E+00  0.99999998245E-14  0.12500000000E+03  0.12500000000E+03 0.  0.
        -11    1    3    3    0    0 -0.21987098628E+02 -0.43841574219E+02 -0.31821741904E+02  0.58464856060E+02  0.51100000000E-03 0. -1.
         23    2    1    0    0    0  0.42777462877E+01 -0.26521140150E+02 -0.12660711545E+02  0.95302127939E+02  0.90556788728E+02 0.  0.
         11    1    3    3    0    0  0.26264844915E+02  0.17320434070E+02  0.19161030359E+02  0.36837271879E+02  0.51100000000E-03 0.  1.
         22    1    1    0    0    0 -0.42777462877E+01  0.26521140150E+02  0.12660711545E+02  0.29697872061E+02  0.00000000000E+00 0. -1.
</event>
<event>
 5    1  0.1111613E-009  0.9118800E+02  0.7818608E-02  0.1130116E+00
         25   -1    0    0    0    0  0.00000000000E+00  0.00000000000E+00  0.99999998245E-14  0.12500000000E+03  0.12500000000E+03 0.  0.
        -11    1    3    3    0    0 -0.23568281722E+02 -0.55214678803E+02  0.14187348460E+02  0.61687968967E+02  0.51100000000E-03 0.  1.
         23    2    1    0    0    0 -0.91334880161E+01 -0.27391769911E+02 -0.76852333268E-01  0.96125520464E+02  0.91686313678E+02 0.  0.
         11    1    3    3    0    0  0.14434793706E+02  0.27822908892E+02 -0.14264200793E+02  0.34437551497E+02  0.51100000000E-03 0. -1.
         22    1    1    0    0    0  0.91334880161E+01  0.27391769911E+02  0.76852333268E-01  0.28874479536E+02  0.00000000000E+00 0.  1.
</event>
<event>
 5    1  0.1111613E-009  0.9118800E+02  0.7818608E-02  0.1130116E+00
         25   -1    0    0    0    0  0.00000000000E+00  0.00000000000E+00  0.99999998245E-14  0.12500000000E+03  0.12500000000E+03 0.  0.
        -11    1    3    3    0    0  0.10848096970E+02 -0.34848918561E+02 -0.30725368375E+02  0.47709292541E+02  0.51100000000E-03 0.  1.
         23    2    1    0    0    0  0.29163039107E+02 -0.59801500276E+00 -0.24965004577E+01  0.95724191106E+02  0.91137521232E+02 0.  0.
         11    1    3    3    0    0  0.18314942137E+02  0.34250903558E+02  0.28228867917E+02  0.48014898565E+02  0.51100000000E-03 0. -1.
         22    1    1    0    0    0 -0.29163039107E+02  0.59801500276E+00  0.24965004577E+01  0.29275808894E+02  0.00000000000E+00 0.  1.
</event>
<event>
 5    1  0.1111613E-009  0.9118800E+02  0.7818608E-02  0.1130116E+00
         25   -1    0    0    0    0  0.00000000000E+00  0.00000000000E+00  0.99999998245E-14  0.12500000000E+03  0.12500000000E+03 0.  0.
        -11    1    3    3    0    0  0.22330428009E+02 -0.36563332614E+02  0.24533467000E+02  0.49370196579E+02  0.51100000000E-03 0.  1.
         23    2    1    0    0    0 -0.78973016087E+01 -0.26843158961E+02 -0.90543601458E+01  0.95590749868E+02  0.90954315274E+02 0.  0.
         11    1    3    3    0    0 -0.30227729618E+02  0.97201736535E+01 -0.33587827146E+02  0.46220553289E+02  0.51100000000E-03 0. -1.
         22    1    1    0    0    0  0.78973016087E+01  0.26843158961E+02  0.90543601458E+01  0.29409250132E+02  0.00000000000E+00 0.  1.
</event>
<event>
 5    1  0.1111613E-009  0.9118800E+02  0.7818608E-02  0.1130116E+00
         25   -1    0    0    0    0  0.00000000000E+00  0.00000000000E+00  0.99999998245E-14  0.12500000000E+03  0.12500000000E+03 0.  0.
        -11    1    3    3    0    0  0.74454940294E+01 -0.29933800641E+02 -0.26545417821E+02  0.40695540415E+02  0.51100000000E-03 0.  1.
         23    2    1    0    0    0 -0.17007111306E+02 -0.10318971383E+02  0.19986109529E+02  0.96801284081E+02  0.92603029217E+02 0.  0.
         11    1    3    3    0    0 -0.24452605335E+02  0.19614829258E+02  0.46531527350E+02  0.56105743665E+02  0.51100000000E-03 0. -1.
         22    1    1    0    0    0  0.17007111306E+02  0.10318971383E+02 -0.19986109529E+02  0.28198715919E+02  0.00000000000E+00 0. -1.
</event>
<event>
 5    1  0.1111613E-009  0.9118800E+02  0.7818608E-02  0.1130116E+00
         25   -1    0    0    0    0  0.00000000000E+00  0.00000000000E+00  0.99999998245E-14  0.12500000000E+03  0.12500000000E+03 0.  0.
        -11    1    3    3    0    0 -0.49193920801E+01 -0.18429513137E+02  0.27466053951E+02  0.33439968493E+02  0.51100000000E-03 0.  1.
         23    2    1    0    0    0  0.10410606482E+02  0.15611347469E+02 -0.22429526832E+02  0.95756563624E+02  0.91181911069E+02 0.  0.
         11    1    3    3    0    0  0.15329998562E+02  0.34040860607E+02 -0.49895580784E+02  0.62316595131E+02  0.51100000000E-03 0. -1.
         22    1    1    0    0    0 -0.10410606482E+02 -0.15611347469E+02  0.22429526832E+02  0.29243436376E+02  0.00000000000E+00 0. -1.
</event>
<event>
 5    1  0.1111613E-009  0.9118800E+02  0.7818608E-02  0.1130116E+00
         25   -1    0    0    0    0  0.00000000000E+00  0.00000000000E+00  0.99999998245E-14  0.12500000000E+03  0.12500000000E+03 0.  0.
        -11    1    3    3    0    0  0.52548778309E+02  0.14163365449E+02 -0.10807365979E+02  0.55486702752E+02  0.51100000000E-03 0.  1.
         23    2    1    0    0    0  0.26944147755E+02 -0.69485696044E+01  0.10871296393E+02  0.95126017958E+02  0.90313368277E+02 0.  0.
         11    1    3    3    0    0 -0.25604630554E+02 -0.21111935053E+02  0.21678662372E+02  0.39639315206E+02  0.51100000000E-03 0. -1.
         22    1    1    0    0    0 -0.26944147755E+02  0.69485696044E+01 -0.10871296393E+02  0.29873982042E+02  0.00000000000E+00 0.  1.
</event>
<event>
 5    1  0.1111613E-009  0.9118800E+02  0.7818608E-02  0.1130116E+00
         25   -1    0    0    0    0  0.00000000000E+00  0.00000000000E+00  0.99999998245E-14  0.12500000000E+03  0.12500000000E+03 0.  0.
        -11    1    3    3    0    0  0.40416946372E+02 -0.19845430488E+02 -0.35340953445E+02  0.57239441436E+02  0.51100000000E-03 0. -1.
         23    2    1    0    0    0  0.16503515643E+02  0.44335266714E+01 -0.28151656850E+02  0.92067675899E+02  0.85976269835E+02 0.  0.
         11    1    3    3    0    0 -0.23913430729E+02  0.24278957159E+02  0.71892965951E+01  0.34828234462E+02  0.51100000000E-03 0.  1.
         22    1    1    0    0    0 -0.16503515643E+02 -0.44335266714E+01  0.28151656850E+02  0.32932324101E+02  0.00000000000E+00 0. -1.
</event>
<event>
 5    1  0.1111613E-009  0.9118800E+02  0.7818608E-02  0.1130116E+00
         25   -1    0    0    0    0  0.00000000000E+00  0.00000000000E+00  0.99999998245E-14  0.12500000000E+03  0.12500000000E+03 0.  0.
        -11    1    3    3    0    0 -0.11282929818E+02 -0.48583043450E+01  0.28047767008E+02  0.30620007524E+02  0.51100000000E-03 0.  1.
         23    2    1    0    0    0  0.34615201090E+02  0.14136495006E+02  0.11325281737E+00  0.87609286397E+02  0.79229550038E+02 0.  0.
         11    1    3    3    0    0  0.45898130907E+02  0.18994799351E+02 -0.27934514191E+02  0.56989278873E+02  0.51100000000E-03 0. -1.
         22    1    1    0    0    0 -0.34615201090E+02 -0.14136495006E+02 -0.11325281737E+00  0.37390713603E+02  0.00000000000E+00 0. -1.
</event>
<event>
 5    1  0.1111613E-009  0.9118800E+02  0.7818608E-02  0.1130116E+00
         25   -1    0    0    0    0  0.00000000000E+00  0.00000000000E+00  0.99999998245E-14  0.12500000000E+03  0.12500000000E+03 0.  0.
        -11    1    3    3    0    0  0.13837528826E+02 -0.28493274666E+02  0.25933498135E+02  0.40937638317E+02  0.51100000000E-03 0. -1.
         23    2    1    0    0    0 -0.12764345902E+02 -0.18131435407E+02 -0.20078236837E+02  0.95086573739E+02  0.90258758216E+02 0.  0.
         11    1    3    3    0    0 -0.26601874728E+02  0.10361839259E+02 -0.46011734972E+02  0.54148935421E+02  0.51100000000E-03 0.  1.
         22    1    1    0    0    0  0.12764345902E+02  0.18131435407E+02  0.20078236837E+02  0.29913426261E+02  0.00000000000E+00 0.  1.
</event>
<event>
 5    1  0.1111613E-009  0.9118800E+02  0.7818608E-02  0.1130116E+00
         25   -1    0    0    0    0  0.00000000000E+00  0.00000000000E+00  0.99999998245E-14  0.12500000000E+03  0.12500000000E+03 0.  0.
        -11    1    3    3    0    0  0.23360118441E+02  0.23826578499E+02 -0.78203838621E+01  0.34271845305E+02  0.51100000000E-03 0. -1.
         23    2    1    0    0    0 -0.25322848875E+02 -0.13654579747E+02 -0.51740313922E+01  0.95768769714E+02  0.91198642690E+02 0.  0.
         11    1    3    3    0    0 -0.48682967316E+02 -0.37481158246E+02  0.26463524700E+01  0.61496924409E+02  0.51100000000E-03 0.  1.
         22    1    1    0    0    0  0.25322848875E+02  0.13654579747E+02  0.51740313922E+01  0.29231230286E+02  0.00000000000E+00 0.  1.
</event>
<event>
 5    1  0.1111613E-009  0.9118800E+02  0.7818608E-02  0.1130116E+00
         25   -1    0    0    0    0  0.00000000000E+00  0.00000000000E+00  0.99999998245E-14  0.12500000000E+03  0.12500000000E+03 0.  0.
        -11    1    3    3    0    0 -0.37316879573E+02  0.19841913067E+01 -0.39818658475E+02  0.54607802366E+02  0.51100000000E-03 0. -1.
         23    2    1    0    0    0 -0.16855511005E+02  0.21642378110E+02 -0.99136409749E+01  0.95831848552E+02  0.91285059775E+02 0.  0.
         11    1    3    3    0    0  0.20461368568E+02  0.19658186803E+02  0.29905017500E+02  0.41224046187E+02  0.51100000000E-03 0.  1.
         22    1    1    0    0    0  0.16855511005E+02 -0.21642378110E+02  0.99136409749E+01  0.29168151448E+02  0.00000000000E+00 0. -1.
</event>
<event>
 5    1  0.1111613E-009  0.9118800E+02  0.7818608E-02  0.1130116E+00
         25   -1    0    0    0    0  0.00000000000E+00  0.00000000000E+00  0.99999998245E-14  0.12500000000E+03  0.12500000000E+03 0.  0.
        -11    1    3    3    0    0 -0.23438894255E+02  0.40982051238E+02 -0.20986984633E+02  0.51665886345E+02  0.51100000000E-03 0.  1.
         23    2    1    0    0    0 -0.17414514589E+02  0.17051078854E+02  0.15793503491E+02  0.95957972506E+02  0.91457602891E+02 0.  0.
         11    1    3    3    0    0  0.60243796663E+01 -0.23930972384E+02  0.36780488124E+02  0.44292086161E+02  0.51100000000E-03 0. -1.
         22    1    1    0    0    0  0.17414514589E+02 -0.17051078854E+02 -0.15793503491E+02  0.29042027494E+02  0.00000000000E+00 0.  1.
</event>
<event>
 5    1  0.1111613E-009  0.9118800E+02  0.7818608E-02  0.1130116E+00
         25   -1    0    0    0    0  0.00000000000E+00  0.00000000000E+00  0.99999998245E-14  0.12500000000E+03  0.12500000000E+03 0.  0.
        -11    1    3    3    0    0 -0.36852062246E+02  0.15337797073E+02 -0.22098482957E+02  0.45625272164E+02  0.51100000000E-03 0.  1.
         23    2    1    0    0    0 -0.35275386433E+01 -0.21645807690E+02 -0.19787287195E+02  0.95461529254E+02  0.90776551562E+02 0.  0.
         11    1    3    3    0    0  0.33324523602E+02 -0.36983604764E+02  0.23111957616E+01  0.49836257090E+02  0.51100000000E-03 0. -1.
         22    1    1    0    0    0  0.35275386433E+01  0.21645807690E+02  0.19787287195E+02  0.29538470746E+02  0.00000000000E+00 0.  1.
</event>
<event>
 5    1  0.1111613E-009  0.9118800E+02  0.7818608E-02  0.1130116E+00
         25   -1    0    0    0    0  0.00000000000E+00  0.00000000000E+00  0.99999998245E-14  0.12500000000E+03  0.12500000000E+03 0.  0.
        -11    1    3    3    0    0 -0.10327055868E+02  0.56027181237E+02 -0.22424630936E+02  0.61225461968E+02  0.51100000000E-03 0.  1.
         23    2    1    0    0    0 -0.66394221328E+01  0.28345127885E+02 -0.20095426409E+01  0.95818388278E+02  0.91266626264E+02 0.  0.
         11    1    3    3    0    0  0.36876337349E+01 -0.27682053352E+02  0.20415088296E+02  0.34592926311E+02  0.51100000000E-03 0. -1.
         22    1    1    0    0    0  0.66394221328E+01 -0.28345127885E+02  0.20095426409E+01  0.29181611722E+02  0.00000000000E+00 0.  1.
</event>
<event>
 5    1  0.1111613E-009  0.9118800E+02  0.7818608E-02  0.1130116E+00
         25   -1    0    0    0    0  0.00000000000E+00  0.00000000000E+00  0.99999998245E-14  0.12500000000E+03  0.12500000000E+03 0.  0.
        -11    1    3    3    0    0 -0.24949397328E+02  0.19631608421E+01 -0.23308978441E+02  0.34199925493E+02  0.51100000000E-03 0.  1.
         23    2    1    0    0    0  0.11326983456E+02 -0.12851572897E+02  0.23926640229E+02  0.95573012509E+02  0.90929935265E+02 0.  0.
         11    1    3    3    0    0  0.36276380784E+02 -0.14814733739E+02  0.47235618669E+02  0.61373087016E+02  0.51100000000E-03 0. -1.
         22    1    1    0    0    0 -0.11326983456E+02  0.12851572897E+02 -0.23926640229E+02  0.29426987491E+02  0.00000000000E+00 0. -1.
</event>
<event>
 5    1  0.1111613E-009  0.9118800E+02  0.7818608E-02  0.1130116E+00
         25   -1    0    0    0    0  0.00000000000E+00  0.00000000000E+00  0.99999998245E-14  0.12500000000E+03  0.12500000000E+03 0.  0.
        -11    1    3    3    0    0  0.11207450488E+02 -0.52268578774E+02 -0.67066680186E+01  0.53875696466E+02  0.51100000000E-03 0. -1.
         23    2    1    0    0    0 -0.49702343546E+01  0.21775310270E+01 -0.12894262168E+02  0.11101047292E+03  0.11012546586E+03 0.  0.
         11    1    3    3    0    0 -0.16177684843E+02  0.54446109801E+02 -0.61875941498E+01  0.57134776459E+02  0.51100000000E-03 0.  1.
         22    1    1    0    0    0  0.49702343546E+01 -0.21775310270E+01  0.12894262168E+02  0.13989527075E+02  0.00000000000E+00 0.  1.
</event>
<event>
 5    1  0.1111613E-009  0.9118800E+02  0.7818608E-02  0.1130116E+00
         25   -1    0    0    0    0  0.00000000000E+00  0.00000000000E+00  0.99999998245E-14  0.12500000000E+03  0.12500000000E+03 0.  0.
        -11    1    3    3    0    0 -0.22148099339E+02 -0.84486080773E+01  0.25276685086E+02  0.34652966568E+02  0.51100000000E-03 0.  1.
         23    2    1    0    0    0  0.24987991433E+02  0.12877910452E+02 -0.75095672150E+01  0.95903026047E+02  0.91382473767E+02 0.  0.
         11    1    3    3    0    0  0.47136090772E+02  0.21326518530E+02 -0.32786252301E+02  0.61250059478E+02  0.51100000000E-03 0. -1.
         22    1    1    0    0    0 -0.24987991433E+02 -0.12877910452E+02  0.75095672150E+01  0.29096973953E+02  0.00000000000E+00 0. -1.
</event>
<event>
 5    1  0.1111613E-009  0.9118800E+02  0.7818608E-02  0.1130116E+00
         25   -1    0    0    0    0  0.00000000000E+00  0.00000000000E+00  0.99999998245E-14  0.12500000000E+03  0.12500000000E+03 0.  0.
        -11    1    3    3    0    0  0.56757979801E+01  0.56869590346E+02  0.16983704575E+01  0.57177350859E+02  0.51100000000E-03 0.  1.
         23    2    1    0    0    0 -0.11621789232E+02  0.12584512939E+02  0.95854522936E+01  0.10537051079E+03  0.10352597596E+03 0.  0.
         11    1    3    3    0    0 -0.17297587212E+02 -0.44285077407E+02  0.78870818361E+01  0.48193159934E+02  0.51100000000E-03 0. -1.
         22    1    1    0    0    0  0.11621789232E+02 -0.12584512939E+02 -0.95854522936E+01  0.19629489207E+02  0.00000000000E+00 0.  1.
</event>
<event>
 5    1  0.1111613E-009  0.9118800E+02  0.7818608E-02  0.1130116E+00
         25   -1    0    0    0    0  0.00000000000E+00  0.00000000000E+00  0.99999998245E-14  0.12500000000E+03  0.12500000000E+03 0.  0.
        -11    1    3    3    0    0 -0.18253476532E+02  0.16431348209E+02 -0.56002724195E+02  0.61151318277E+02  0.51100000000E-03 0. -1.
         23    2    1    0    0    0 -0.10829357471E+02  0.15632631111E+02 -0.22203090448E+02  0.95765921186E+02  0.91194738315E+02 0.  0.
         11    1    3    3    0    0  0.74241190609E+01 -0.79871709876E+00  0.33799633747E+02  0.34614602909E+02  0.51100000000E-03 0.  1.
         22    1    1    0    0    0  0.10829357471E+02 -0.15632631111E+02  0.22203090448E+02  0.29234078814E+02  0.00000000000E+00 0. -1.
</event>
<event>
 5    1  0.1111613E-009  0.9118800E+02  0.7818608E-02  0.1130116E+00
         25   -1    0    0    0    0  0.00000000000E+00  0.00000000000E+00  0.99999998245E-14  0.12500000000E+03  0.12500000000E+03 0.  0.
        -11    1    3    3    0    0 -0.48513300794E+02 -0.23971225631E+02 -0.29910737806E+02  0.61828894932E+02  0.51100000000E-03 0.  1.
         23    2    1    0    0    0 -0.21364713879E+02 -0.17580600348E+02 -0.13177901806E+02  0.94353864783E+02  0.89238255225E+02 0.  0.
         11    1    3    3    0    0  0.27148586914E+02  0.63906252829E+01  0.16732835999E+02  0.32524969851E+02  0.51100000000E-03 0. -1.
         22    1    1    0    0    0  0.21364713879E+02  0.17580600348E+02  0.13177901806E+02  0.30646135217E+02  0.00000000000E+00 0.  1.
</event>
<event>
 5    1  0.1111613E-009  0.9118800E+02  0.7818608E-02  0.1130116E+00
         25   -1    0    0    0    0  0.00000000000E+00  0.00000000000E+00  0.99999998245E-14  0.12500000000E+03  0.12500000000E+03 0.  0.
        -11    1    3    3    0    0  0.10714517692E+01 -0.26172983943E+02  0.65237499133E+01  0.26995044185E+02  0.51100000000E-03 0. -1.
         23    2    1    0    0    0 -0.96830655614E+01  0.34534519483E+02 -0.10962755840E+01  0.89116903495E+02  0.81573438531E+02 0.  0.
         11    1    3    3    0    0 -0.10754517331E+02  0.60707503426E+02 -0.76200254973E+01  0.62121859310E+02  0.51100000000E-03 0.  1.
         22    1    1    0    0    0  0.96830655614E+01 -0.34534519483E+02  0.10962755840E+01  0.35883096505E+02  0.00000000000E+00 0.  1.
</event>
<event>
 5    1  0.1111613E-009  0.9118800E+02  0.7818608E-02  0.1130116E+00
         25   -1    0    0    0    0  0.00000000000E+00  0.00000000000E+00  0.99999998245E-14  0.12500000000E+03  0.12500000000E+03 0.  0.
        -11    1    3    3    0    0 -0.38922075077E+02 -0.30092073438E+02 -0.37370128623E+02  0.61781771791E+02  0.51100000000E-03 0. -1.
         23    2    1    0    0    0 -0.17425764456E+02 -0.91149063448E+01 -0.21896356401E+02  0.95568907459E+02  0.90924291939E+02 0.  0.
         11    1    3    3    0    0  0.21496310621E+02  0.20977167093E+02  0.15473772222E+02  0.33787135668E+02  0.51100000000E-03 0.  1.
         22    1    1    0    0    0  0.17425764456E+02  0.91149063448E+01  0.21896356401E+02  0.29431092541E+02  0.00000000000E+00 0. -1.
</event>
<event>
 5    1  0.1111613E-009  0.9118800E+02  0.7818608E-02  0.1130116E+00
         25   -1    0    0    0    0  0.00000000000E+00  0.00000000000E+00  0.99999998245E-14  0.12500000000E+03  0.12500000000E+03 0.  0.
        -11    1    3    3    0    0 -0.49018279267E+01  0.35701199034E+02  0.29915469131E+02  0.46835230576E+02  0.51100000000E-03 0.  1.
         23    2    1    0    0    0  0.25239212634E+02  0.16550214136E+00  0.14366586920E+02  0.95957891518E+02  0.91457492200E+02 0.  0.
         11    1    3    3    0    0  0.30141040561E+02 -0.35535696893E+02 -0.15548882211E+02  0.49122660942E+02  0.51100000000E-03 0. -1.
         22    1    1    0    0    0 -0.25239212634E+02 -0.16550214136E+00 -0.14366586920E+02  0.29042108482E+02  0.00000000000E+00 0.  1.
</event>
<event>
 5    1  0.1111613E-009  0.9118800E+02  0.7818608E-02  0.1130116E+00
         25   -1    0    0    0    0  0.00000000000E+00  0.00000000000E+00  0.99999998245E-14  0.12500000000E+03  0.12500000000E+03 0.  0.
        -11    1    3    3    0    0 -0.20728817695E+02 -0.17112703234E+02  0.55616021581E+02  0.61771112600E+02  0.51100000000E-03 0. -1.
         23    2    1    0    0    0 -0.68221791422E+01 -0.18087665140E+01  0.27102193727E+02  0.96993881572E+02  0.92862642613E+02 0.  0.
         11    1    3    3    0    0  0.13906638553E+02  0.15303936720E+02 -0.28513827854E+02  0.35222768973E+02  0.51100000000E-03 0.  1.
         22    1    1    0    0    0  0.68221791422E+01  0.18087665140E+01 -0.27102193727E+02  0.28006118428E+02  0.00000000000E+00 0. -1.
</event>
<event>
 5    1  0.1111613E-009  0.9118800E+02  0.7818608E-02  0.1130116E+00
         25   -1    0    0    0    0  0.00000000000E+00  0.00000000000E+00  0.99999998245E-14  0.12500000000E+03  0.12500000000E+03 0.  0.
        -11    1    3    3    0    0 -0.16020855907E+02  0.14784127178E+02  0.52445944841E+02  0.56796261945E+02  0.51100000000E-03 0.  1.
         23    2    1    0    0    0 -0.17572002549E+02 -0.89902514251E+01  0.22327566229E+02  0.95198655937E+02  0.90413848410E+02 0.  0.
         11    1    3    3    0    0 -0.15511466416E+01 -0.23774378603E+02 -0.30118378612E+02  0.38402393992E+02  0.51100000000E-03 0. -1.
         22    1    1    0    0    0  0.17572002549E+02  0.89902514251E+01 -0.22327566229E+02  0.29801344063E+02  0.00000000000E+00 0.  1.
</event>
<event>
 5    1  0.1111613E-009  0.9118800E+02  0.7818608E-02  0.1130116E+00
         25   -1    0    0    0    0  0.00000000000E+00  0.00000000000E+00  0.99999998245E-14  0.12500000000E+03  0.12500000000E+03 0.  0.
        -11    1    3    3    0    0  0.13233106693E+02  0.43402001366E+02 -0.35744873530E+02  0.57762832507E+02  0.51100000000E-03 0.  1.
         23    2    1    0    0    0  0.50360974946E+01  0.28101912867E+02 -0.11977841752E+01  0.96425282649E+02  0.92094085924E+02 0.  0.
         11    1    3    3    0    0 -0.81970091981E+01 -0.15300088499E+02  0.34547089354E+02  0.38662450142E+02  0.51100000000E-03 0. -1.
         22    1    1    0    0    0 -0.50360974946E+01 -0.28101912867E+02  0.11977841752E+01  0.28574717351E+02  0.00000000000E+00 0.  1.
</event>
<event>
 5    1  0.1111613E-009  0.9118800E+02  0.7818608E-02  0.1130116E+00
         25   -1    0    0    0    0  0.00000000000E+00  0.00000000000E+00  0.99999998245E-14  0.12500000000E+03  0.12500000000E+03 0.  0.
        -11    1    3    3    0    0  0.42996046061E+01 -0.37193811040E+02 -0.18550843113E+02  0.41785164352E+02  0.51100000000E-03 0.  1.
         23    2    1    0    0    0  0.27577339249E+02  0.70137128424E+01  0.33733520724E+01  0.96345483565E+02  0.91985710256E+02 0.  0.
         11    1    3    3    0    0  0.23277734643E+02  0.44207523882E+02  0.21924195185E+02  0.54560319214E+02  0.51100000000E-03 0. -1.
         22    1    1    0    0    0 -0.27577339249E+02 -0.70137128424E+01 -0.33733520724E+01  0.28654516435E+02  0.00000000000E+00 0. -1.
</event>
<event>
 5    1  0.1111613E-009  0.9118800E+02  0.7818608E-02  0.1130116E+00
         25   -1    0    0    0    0  0.00000000000E+00  0.00000000000E+00  0.99999998245E-14  0.12500000000E+03  0.12500000000E+03 0.  0.
        -11    1    3    3    0    0 -0.35120107206E+02  0.40882147677E+02 -0.21970178956E+02  0.58201895952E+02  0.51100000000E-03 0. -1.
         23    2    1    0    0    0 -0.24934880868E+02  0.15710056651E+02  0.33614783599E+01  0.95337672029E+02  0.90605838704E+02 0.  0.
         11    1    3    3    0    0  0.10185226337E+02 -0.25172091026E+02  0.25331657316E+02  0.37135776077E+02  0.51100000000E-03 0.  1.
         22    1    1    0    0    0  0.24934880868E+02 -0.15710056651E+02 -0.33614783599E+01  0.29662327971E+02  0.00000000000E+00 0. -1.
</event>
<event>
 5    1  0.1111613E-009  0.9118800E+02  0.7818608E-02  0.1130116E+00
         25   -1    0    0    0    0  0.00000000000E+00  0.00000000000E+00  0.99999998245E-14  0.12500000000E+03  0.12500000000E+03 0.  0.
        -11    1    3    3    0    0 -0.88972746887E+01  0.19116260073E+02  0.58423536311E+02  0.62112015676E+02  0.51100000000E-03 0.  1.
         23    2    1    0    0    0 -0.44177320585E+01  0.40059929738E+01  0.27962075103E+02  0.96409057723E+02  0.92072061075E+02 0.  0.
         11    1    3    3    0    0  0.44795426302E+01 -0.15110267099E+02 -0.30461461208E+02  0.34297042047E+02  0.51100000000E-03 0. -1.
         22    1    1    0    0    0  0.44177320585E+01 -0.40059929738E+01 -0.27962075103E+02  0.28590942277E+02  0.00000000000E+00 0.  1.
</event>
<event>
 5    1  0.1111613E-009  0.9118800E+02  0.7818608E-02  0.1130116E+00
         25   -1    0    0    0    0  0.00000000000E+00  0.00000000000E+00  0.99999998245E-14  0.12500000000E+03  0.12500000000E+03 0.  0.
        -11    1    3    3    0    0 -0.41747737077E+02 -0.22387363995E+02 -0.24657527359E+01  0.47435720238E+02  0.51100000000E-03 0.  1.
         23    2    1    0    0    0 -0.19404898144E+02  0.20785876505E+02 -0.50618753014E+01  0.96117041086E+02  0.91674752640E+02 0.  0.
         11    1    3    3    0    0  0.22342838933E+02  0.43173240500E+02 -0.25961225655E+01  0.48681320848E+02  0.51100000000E-03 0. -1.
         22    1    1    0    0    0  0.19404898144E+02 -0.20785876505E+02  0.50618753014E+01  0.28882958914E+02  0.00000000000E+00 0.  1.
</event>
<event>
 5    1  0.1111613E-009  0.9118800E+02  0.7818608E-02  0.1130116E+00
         25   -1    0    0    0    0  0.00000000000E+00  0.00000000000E+00  0.99999998245E-14  0.12500000000E+03  0.12500000000E+03 0.  0.
        -11    1    3    3    0    0  0.46271674799E+00 -0.58954826777E+00  0.44075789796E+02  0.44082161022E+02  0.51100000000E-03 0. -1.
         23    2    1    0    0    0 -0.27609465350E+02  0.29655901019E+01 -0.89805031660E+00  0.97217203238E+02  0.93162765145E+02 0.  0.
         11    1    3    3    0    0 -0.28072182098E+02  0.35551383697E+01 -0.44973840113E+02  0.53135042216E+02  0.51100000000E-03 0.  1.
         22    1    1    0    0    0  0.27609465350E+02 -0.29655901019E+01  0.89805031660E+00  0.27782796762E+02  0.00000000000E+00 0.  1.
</event>
<event>
 5    1  0.1111613E-009  0.9118800E+02  0.7818608E-02  0.1130116E+00
         25   -1    0    0    0    0  0.00000000000E+00  0.00000000000E+00  0.99999998245E-14  0.12500000000E+03  0.12500000000E+03 0.  0.
        -11    1    3    3    0    0  0.65034537096E+01 -0.30015329055E+02 -0.18369780660E+02  0.35786362349E+02  0.51100000000E-03 0. -1.
         23    2    1    0    0    0  0.27801243843E+01  0.28119653026E+02 -0.11684096928E+02  0.94422850052E+02  0.89334833705E+02 0.  0.
         11    1    3    3    0    0 -0.37233293253E+01  0.58134982082E+02  0.66856837322E+01  0.58636487703E+02  0.51100000000E-03 0.  1.
         22    1    1    0    0    0 -0.27801243843E+01 -0.28119653026E+02  0.11684096928E+02  0.30577149948E+02  0.00000000000E+00 0.  1.
</event>
<event>
 5    1  0.1111613E-009  0.9118800E+02  0.7818608E-02  0.1130116E+00
         25   -1    0    0    0    0  0.00000000000E+00  0.00000000000E+00  0.99999998245E-14  0.12500000000E+03  0.12500000000E+03 0.  0.
        -11    1    3    3    0    0 -0.28674599780E+02  0.66595254895E+00 -0.47528785034E+02  0.55512715412E+02  0.51100000000E-03 0. -1.
         23    2    1    0    0    0 -0.35984608655E+01 -0.18441223785E+02 -0.21920452515E+02  0.96129012941E+02  0.91691075003E+02 0.  0.
         11    1    3    3    0    0  0.25076138915E+02 -0.19107176334E+02  0.25608332518E+02  0.40616297529E+02  0.51100000000E-03 0.  1.
         22    1    1    0    0    0  0.35984608655E+01  0.18441223785E+02  0.21920452515E+02  0.28870987059E+02  0.00000000000E+00 0. -1.
</event>
<event>
 5    1  0.1111613E-009  0.9118800E+02  0.7818608E-02  0.1130116E+00
         25   -1    0    0    0    0  0.00000000000E+00  0.00000000000E+00  0.99999998245E-14  0.12500000000E+03  0.12500000000E+03 0.  0.
        -11    1    3    3    0    0  0.59568056136E+02 -0.12089763300E+02  0.11980690980E+02  0.61952018895E+02  0.51100000000E-03 0. -1.
         23    2    1    0    0    0  0.28915349963E+02 -0.63819472610E+01 -0.95585206186E-01  0.95388585801E+02  0.90676052242E+02 0.  0.
         11    1    3    3    0    0 -0.30652706173E+02  0.57078160391E+01 -0.12076276186E+02  0.33436566906E+02  0.51100000000E-03 0.  1.
         22    1    1    0    0    0 -0.28915349963E+02  0.63819472610E+01  0.95585206186E-01  0.29611414199E+02  0.00000000000E+00 0. -1.
</event>
<event>
 5    1  0.1111613E-009  0.9118800E+02  0.7818608E-02  0.1130116E+00
         25   -1    0    0    0    0  0.00000000000E+00  0.00000000000E+00  0.99999998245E-14  0.12500000000E+03  0.12500000000E+03 0.  0.
        -11    1    3    3    0    0 -0.18182718992E+02 -0.13796936667E+02 -0.24721249654E+02  0.33646796520E+02  0.51100000000E-03 0.  1.
         23    2    1    0    0    0  0.27183838748E+02  0.10590288623E+02  0.81015178717E+01  0.94722122036E+02  0.89752607254E+02 0.  0.
         11    1    3    3    0    0  0.45366557740E+02  0.24387225291E+02  0.32822767526E+02  0.61075325516E+02  0.51100000000E-03 0. -1.
         22    1    1    0    0    0 -0.27183838748E+02 -0.10590288623E+02 -0.81015178717E+01  0.30277877964E+02  0.00000000000E+00 0. -1.
</event>
<event>
 5    1  0.1111613E-009  0.9118800E+02  0.7818608E-02  0.1130116E+00
         25   -1    0    0    0    0  0.00000000000E+00  0.00000000000E+00  0.99999998245E-14  0.12500000000E+03  0.12500000000E+03 0.  0.
        -11    1    3    3    0    0  0.23873207078E+02  0.20367203040E+02  0.40180897768E+02  0.50982914016E+02  0.51100000000E-03 0.  1.
         23    2    1    0    0    0  0.23305587418E+02  0.17545216482E+02 -0.42617573947E+01  0.95518690627E+02  0.90855229110E+02 0.  0.
         11    1    3    3    0    0 -0.56761966026E+00 -0.28219865584E+01 -0.44442655162E+02  0.44535776611E+02  0.51100000000E-03 0. -1.
         22    1    1    0    0    0 -0.23305587418E+02 -0.17545216482E+02  0.42617573947E+01  0.29481309373E+02  0.00000000000E+00 0.  1.
</event>
<event>
 5    1  0.1111613E-009  0.9118800E+02  0.7818608E-02  0.1130116E+00
         25   -1    0    0    0    0  0.00000000000E+00  0.00000000000E+00  0.99999998245E-14  0.12500000000E+03  0.12500000000E+03 0.  0.
        -11    1    3    3    0    0 -0.31772695281E+02 -0.32449943345E+02  0.47898987537E+01  0.45666684999E+02  0.51100000000E-03 0.  1.
         23    2    1    0    0    0 -0.21641402827E+02  0.17379623863E+02  0.62988390078E+01  0.96538148079E+02  0.92247151824E+02 0.  0.
         11    1    3    3    0    0  0.10131292453E+02  0.49829567208E+02  0.15089402541E+01  0.50871463079E+02  0.51100000000E-03 0. -1.
         22    1    1    0    0    0  0.21641402827E+02 -0.17379623863E+02 -0.62988390078E+01  0.28461851921E+02  0.00000000000E+00 0. -1.
</event>
<event>
 5    1  0.1111613E-009  0.9118800E+02  0.7818608E-02  0.1130116E+00
         25   -1    0    0    0    0  0.00000000000E+00  0.00000000000E+00  0.99999998245E-14  0.12500000000E+03  0.12500000000E+03 0.  0.
        -11    1    3    3    0    0  0.65951399150E+01 -0.74462198883E+01  0.36641979631E+02  0.37968101515E+02  0.51100000000E-03 0.  1.
         23    2    1    0    0    0  0.23303919740E+02  0.15550118350E+02 -0.12171139873E+02  0.94454697550E+02  0.89379384578E+02 0.  0.
         11    1    3    3    0    0  0.16708779825E+02  0.22996338238E+02 -0.48813119504E+02  0.56486596035E+02  0.51100000000E-03 0. -1.
         22    1    1    0    0    0 -0.23303919740E+02 -0.15550118350E+02  0.12171139873E+02  0.30545302450E+02  0.00000000000E+00 0. -1.
</event>
<event>
 5    1  0.1111613E-009  0.9118800E+02  0.7818608E-02  0.1130116E+00
         25   -1    0    0    0    0  0.00000000000E+00  0.00000000000E+00  0.99999998245E-14  0.12500000000E+03  0.12500000000E+03 0.  0.
        -11    1    3    3    0    0  0.88687292529E+01  0.37660359517E+02 -0.10159119106E+02  0.40002059182E+02  0.51100000000E-03 0.  1.
         23    2    1    0    0    0 -0.21056427757E+02 -0.80232515592E+01 -0.19247376909E+02  0.95365438533E+02  0.90644137335E+02 0.  0.
         11    1    3    3    0    0 -0.29925157010E+02 -0.45683611076E+02 -0.90882578034E+01  0.55363379351E+02  0.51100000000E-03 0. -1.
         22    1    1    0    0    0  0.21056427757E+02  0.80232515592E+01  0.19247376909E+02  0.29634561467E+02  0.00000000000E+00 0. -1.
</event>
<event>
 5    1  0.1111613E-009  0.9118800E+02  0.7818608E-02  0.1130116E+00
         25   -1    0    0    0    0  0.00000000000E+00  0.00000000000E+00  0.99999998245E-14  0.12500000000E+03  0.12500000000E+03 0.  0.
        -11    1    3    3    0    0  0.13391301454E+02 -0.26810401141E+01 -0.28442718646E+02  0.31551595443E+02  0.51100000000E-03 0.  1.
         23    2    1    0    0    0  0.12477824224E+02  0.24992282509E+02  0.22232987354E+02  0.89298235211E+02  0.81850832633E+02 0.  0.
         11    1    3    3    0    0 -0.91347723007E+00  0.27673322624E+02  0.50675706000E+02  0.57746639768E+02  0.51100000000E-03 0. -1.
         22    1    1    0    0    0 -0.12477824224E+02 -0.24992282509E+02 -0.22232987354E+02  0.35701764789E+02  0.00000000000E+00 0. -1.
</event>
<event>
 5    1  0.1111613E-009  0.9118800E+02  0.7818608E-02  0.1130116E+00
         25   -1    0    0    0    0  0.00000000000E+00  0.00000000000E+00  0.99999998245E-14  0.12500000000E+03  0.12500000000E+03 0.  0.
        -11    1    3    3    0    0  0.23450575351E+02 -0.25364508482E+01 -0.45193086398E+02  0.50978212264E+02  0.51100000000E-03 0.  1.
         23    2    1    0    0    0  0.22239739118E+02 -0.20193665874E+02 -0.54693606884E+01  0.94466345718E+02  0.89395673438E+02 0.  0.
         11    1    3    3    0    0 -0.12108362331E+01 -0.17657215026E+02  0.39723725709E+02  0.43488133454E+02  0.51100000000E-03 0. -1.
         22    1    1    0    0    0 -0.22239739118E+02  0.20193665874E+02  0.54693606884E+01  0.30533654282E+02  0.00000000000E+00 0. -1.
</event>
<event>
 5    1  0.1111613E-009  0.9118800E+02  0.7818608E-02  0.1130116E+00
         25   -1    0    0    0    0  0.00000000000E+00  0.00000000000E+00  0.99999998245E-14  0.12500000000E+03  0.12500000000E+03 0.  0.
        -11    1    3    3    0    0 -0.36312598671E+02 -0.26644482565E+02  0.26511273930E+02  0.52262614927E+02  0.51100000000E-03 0. -1.
         23    2    1    0    0    0 -0.22546065073E+02  0.11995680866E+02  0.16847671518E+02  0.94404813364E+02  0.89309592659E+02 0.  0.
         11    1    3    3    0    0  0.13766533598E+02  0.38640163431E+02 -0.96636024117E+01  0.42142198437E+02  0.51100000000E-03 0.  1.
         22    1    1    0    0    0  0.22546065073E+02 -0.11995680866E+02 -0.16847671518E+02  0.30595186636E+02  0.00000000000E+00 0. -1.
</event>
<event>
 5    1  0.1111613E-009  0.9118800E+02  0.7818608E-02  0.1130116E+00
         25   -1    0    0    0    0  0.00000000000E+00  0.00000000000E+00  0.99999998245E-14  0.12500000000E+03  0.12500000000E+03 0.  0.
        -11    1    3    3    0    0  0.15033132137E+02  0.39372036770E+02  0.33420007537E+01  0.42276723035E+02  0.51100000000E-03 0.  1.
         23    2    1    0    0    0 -0.10963413935E+02 -0.30463636483E+01  0.25755230956E+02  0.96843141188E+02  0.92659512717E+02 0.  0.
         11    1    3    3    0    0 -0.25996546071E+02 -0.42418400418E+02  0.22413230202E+02  0.54566418153E+02  0.51100000000E-03 0. -1.
         22    1    1    0    0    0  0.10963413935E+02  0.30463636483E+01 -0.25755230956E+02  0.28156858812E+02  0.00000000000E+00 0. -1.
</event>
<event>
 5    1  0.1111613E-009  0.9118800E+02  0.7818608E-02  0.1130116E+00
         25   -1    0    0    0    0  0.00000000000E+00  0.00000000000E+00  0.99999998245E-14  0.12500000000E+03  0.12500000000E+03 0.  0.
        -11    1    3    3    0    0  0.15695391723E+02 -0.47310479641E+02 -0.26615800133E+02  0.56506881193E+02  0.51100000000E-03 0. -1.
         23    2    1    0    0    0 -0.12115505960E+02 -0.23729384542E+02 -0.11636978264E+02  0.95926155423E+02  0.91414106437E+02 0.  0.
         11    1    3    3    0    0 -0.27810897682E+02  0.23581095099E+02  0.14978821870E+02  0.39419274230E+02  0.51100000000E-03 0.  1.
         22    1    1    0    0    0  0.12115505960E+02  0.23729384542E+02  0.11636978264E+02  0.29073844577E+02  0.00000000000E+00 0. -1.
</event>
<event>
 5    1  0.1111613E-009  0.9118800E+02  0.7818608E-02  0.1130116E+00
         25   -1    0    0    0    0  0.00000000000E+00  0.00000000000E+00  0.99999998245E-14  0.12500000000E+03  0.12500000000E+03 0.  0.
        -11    1    3    3    0    0 -0.92076298300E+01 -0.86241129079E+01 -0.50336588565E+02  0.51893428478E+02  0.51100000000E-03 0.  1.
         23    2    1    0    0    0  0.55545286987E+00 -0.27305681102E+02 -0.13038033531E+02  0.94736175611E+02  0.89772177776E+02 0.  0.
         11    1    3    3    0    0  0.97630826999E+01 -0.18681568194E+02  0.37298555034E+02  0.42842747133E+02  0.51100000000E-03 0. -1.
         22    1    1    0    0    0 -0.55545286987E+00  0.27305681102E+02  0.13038033531E+02  0.30263824389E+02  0.00000000000E+00 0.  1.
</event>
<event>
 5    1  0.1111613E-009  0.9118800E+02  0.7818608E-02  0.1130116E+00
         25   -1    0    0    0    0  0.00000000000E+00  0.00000000000E+00  0.99999998245E-14  0.12500000000E+03  0.12500000000E+03 0.  0.
        -11    1    3    3    0    0  0.21526022464E+02 -0.34917098764E+02 -0.13377736803E+01  0.41040992530E+02  0.51100000000E-03 0.  1.
         23    2    1    0    0    0 -0.22883773154E+02 -0.11055911999E+02  0.16705371112E+02  0.94586685681E+02  0.89563784088E+02 0.  0.
         11    1    3    3    0    0 -0.44409795618E+02  0.23861186765E+02  0.18043144792E+02  0.53545693150E+02  0.51100000000E-03 0. -1.
         22    1    1    0    0    0  0.22883773154E+02  0.11055911999E+02 -0.16705371112E+02  0.30413314319E+02  0.00000000000E+00 0. -1.
</event>
<event>
 5    1  0.1111613E-009  0.9118800E+02  0.7818608E-02  0.1130116E+00
         25   -1    0    0    0    0  0.00000000000E+00  0.00000000000E+00  0.99999998245E-14  0.12500000000E+03  0.12500000000E+03 0.  0.
        -11    1    3    3    0    0  0.31336023519E+02 -0.34872798562E+01 -0.30968146902E+02  0.44194271276E+02  0.51100000000E-03 0.  1.
         23    2    1    0    0    0 -0.36840735392E+00 -0.29001318300E+02  0.10527668967E+01  0.95977241598E+02  0.91483935200E+02 0.  0.
         11    1    3    3    0    0 -0.31704430873E+02 -0.25514038443E+02  0.32020913799E+02  0.51782970323E+02  0.51100000000E-03 0. -1.
         22    1    1    0    0    0  0.36840735392E+00  0.29001318300E+02 -0.10527668967E+01  0.29022758402E+02  0.00000000000E+00 0.  1.
</event>
<event>
 5    1  0.1111613E-009  0.9118800E+02  0.7818608E-02  0.1130116E+00
         25   -1    0    0    0    0  0.00000000000E+00  0.00000000000E+00  0.99999998245E-14  0.12500000000E+03  0.12500000000E+03 0.  0.
        -11    1    3    3    0    0 -0.23518792900E+02  0.63448817474E+01  0.57185061194E+02  0.62157239063E+02  0.51100000000E-03 0.  1.
         23    2    1    0    0    0 -0.84844650779E+01  0.53881811696E+01  0.31512928029E+02  0.91923070321E+02  0.85765771613E+02 0.  0.
         11    1    3    3    0    0  0.15034327822E+02 -0.95670057778E+00 -0.25672133165E+02  0.29765831259E+02  0.51100000000E-03 0. -1.
         22    1    1    0    0    0  0.84844650779E+01 -0.53881811696E+01 -0.31512928029E+02  0.33076929679E+02  0.00000000000E+00 0.  1.
</event>
<event>
 5    1  0.1111613E-009  0.9118800E+02  0.7818608E-02  0.1130116E+00
         25   -1    0    0    0    0  0.00000000000E+00  0.00000000000E+00  0.99999998245E-14  0.12500000000E+03  0.12500000000E+03 0.  0.
        -11    1    3    3    0    0  0.48670990083E+02  0.92461660723E+01 -0.19377780753E+02  0.53196383804E+02  0.51100000000E-03 0. -1.
         23    2    1    0    0    0  0.27152152585E+02 -0.10694306049E+02  0.94488000401E+01  0.94326112178E+02  0.89199372445E+02 0.  0.
         11    1    3    3    0    0 -0.21518837497E+02 -0.19940472121E+02  0.28826580793E+02  0.41129728374E+02  0.51100000000E-03 0.  1.
         22    1    1    0    0    0 -0.27152152585E+02  0.10694306049E+02 -0.94488000401E+01  0.30673887822E+02  0.00000000000E+00 0. -1.
</event>
<event>
 5    1  0.1111613E-009  0.9118800E+02  0.7818608E-02  0.1130116E+00
         25   -1    0    0    0    0  0.00000000000E+00  0.00000000000E+00  0.99999998245E-14  0.12500000000E+03  0.12500000000E+03 0.  0.
        -11    1    3    3    0    0  0.26925816488E+02 -0.13954916681E+01 -0.27487009662E+02  0.38503021842E+02  0.51100000000E-03 0. -1.
         23    2    1    0    0    0  0.97419127149E+01 -0.76864505207E+01  0.26624879883E+02  0.95625340619E+02  0.91001841492E+02 0.  0.
         11    1    3    3    0    0 -0.17183903773E+02 -0.62909588525E+01  0.54111889545E+02  0.57122318778E+02  0.51100000000E-03 0.  1.
         22    1    1    0    0    0 -0.97419127149E+01  0.76864505207E+01 -0.26624879883E+02  0.29374659381E+02  0.00000000000E+00 0.  1.
</event>
<event>
 5    1  0.1111613E-009  0.9118800E+02  0.7818608E-02  0.1130116E+00
         25   -1    0    0    0    0  0.00000000000E+00  0.00000000000E+00  0.99999998245E-14  0.12500000000E+03  0.12500000000E+03 0.  0.
        -11    1    3    3    0    0 -0.27939077041E+02 -0.35002452517E+02  0.23917288110E+02  0.50772043281E+02  0.51100000000E-03 0.  1.
         23    2    1    0    0    0  0.13660769475E+02 -0.18614141546E+02  0.17685889399E+02  0.95915750448E+02  0.91399877527E+02 0.  0.
         11    1    3    3    0    0  0.41599846516E+02  0.16388310971E+02 -0.62313987103E+01  0.45143707167E+02  0.51100000000E-03 0. -1.
         22    1    1    0    0    0 -0.13660769475E+02  0.18614141546E+02 -0.17685889399E+02  0.29084249552E+02  0.00000000000E+00 0.  1.
</event>
<event>
 5    1  0.1111613E-009  0.9118800E+02  0.7818608E-02  0.1130116E+00
         25   -1    0    0    0    0  0.00000000000E+00  0.00000000000E+00  0.99999998245E-14  0.12500000000E+03  0.12500000000E+03 0.  0.
        -11    1    3    3    0    0 -0.58369954430E+01  0.57691158243E+02 -0.54386214892E+01  0.58240182513E+02  0.51100000000E-03 0.  1.
         23    2    1    0    0    0 -0.10319283131E+01  0.25822572354E+02  0.13727322341E+02  0.95737233595E+02  0.91155407952E+02 0.  0.
         11    1    3    3    0    0  0.48050671299E+01 -0.31868585889E+02  0.19165943830E+02  0.37497051082E+02  0.51100000000E-03 0. -1.
         22    1    1    0    0    0  0.10319283131E+01 -0.25822572354E+02 -0.13727322341E+02  0.29262766405E+02  0.00000000000E+00 0.  1.
</event>
<event>
 5    1  0.1111613E-009  0.9118800E+02  0.7818608E-02  0.1130116E+00
         25   -1    0    0    0    0  0.00000000000E+00  0.00000000000E+00  0.99999998245E-14  0.12500000000E+03  0.12500000000E+03 0.  0.
        -11    1    3    3    0    0  0.30230923148E+02 -0.10761105629E+02 -0.52791433822E+02  0.61779006094E+02  0.51100000000E-03 0.  1.
         23    2    1    0    0    0  0.10987166479E+02 -0.10826747464E+02 -0.26064839266E+02  0.94712838795E+02  0.89739677395E+02 0.  0.
         11    1    3    3    0    0 -0.19243756670E+02 -0.65641835068E-01  0.26726594556E+02  0.32933832702E+02  0.51100000000E-03 0. -1.
         22    1    1    0    0    0 -0.10987166479E+02  0.10826747464E+02  0.26064839266E+02  0.30287161205E+02  0.00000000000E+00 0.  1.
</event>
<event>
 5    1  0.1111613E-009  0.9118800E+02  0.7818608E-02  0.1130116E+00
         25   -1    0    0    0    0  0.00000000000E+00  0.00000000000E+00  0.99999998245E-14  0.12500000000E+03  0.12500000000E+03 0.  0.
        -11    1    3    3    0    0 -0.29427277215E+02  0.12576948494E+02  0.30814877913E+02  0.44426354552E+02  0.51100000000E-03 0.  1.
         23    2    1    0    0    0  0.20381838732E+02  0.11915264770E+02  0.16296831471E+02  0.96312378965E+02  0.91940713187E+02 0.  0.
         11    1    3    3    0    0  0.49809115947E+02 -0.66168372360E+00 -0.14518046442E+02  0.51886024414E+02  0.51100000000E-03 0. -1.
         22    1    1    0    0    0 -0.20381838732E+02 -0.11915264770E+02 -0.16296831471E+02  0.28687621035E+02  0.00000000000E+00 0.  1.
</event>
<event>
 5    1  0.1111613E-009  0.9118800E+02  0.7818608E-02  0.1130116E+00
         25   -1    0    0    0    0  0.00000000000E+00  0.00000000000E+00  0.99999998245E-14  0.12500000000E+03  0.12500000000E+03 0.  0.
        -11    1    3    3    0    0 -0.46441865598E+02 -0.33890330909E+02  0.14502554826E+01  0.57510908970E+02  0.51100000000E-03 0. -1.
         23    2    1    0    0    0 -0.28848116285E+02 -0.10627273078E+01  0.73276691933E+01  0.95216817861E+02  0.90438954357E+02 0.  0.
         11    1    3    3    0    0  0.17593749313E+02  0.32827603601E+02  0.58774137107E+01  0.37705908891E+02  0.51100000000E-03 0.  1.
         22    1    1    0    0    0  0.28848116285E+02  0.10627273078E+01 -0.73276691933E+01  0.29783182139E+02  0.00000000000E+00 0. -1.
</event>
<event>
 5    1  0.1111613E-009  0.9118800E+02  0.7818608E-02  0.1130116E+00
         25   -1    0    0    0    0  0.00000000000E+00  0.00000000000E+00  0.99999998245E-14  0.12500000000E+03  0.12500000000E+03 0.  0.
        -11    1    3    3    0    0  0.49652213375E+01  0.15442406920E+02 -0.40259531044E+02  0.43404506615E+02  0.51100000000E-03 0.  1.
         23    2    1    0    0    0  0.17558029809E+02  0.22189019875E+02  0.94828151704E+01  0.95157734715E+02  0.90357255817E+02 0.  0.
         11    1    3    3    0    0  0.12592808471E+02  0.67466129557E+01  0.49742346214E+02  0.51753228100E+02  0.51100000000E-03 0. -1.
         22    1    1    0    0    0 -0.17558029809E+02 -0.22189019875E+02 -0.94828151704E+01  0.29842265285E+02  0.00000000000E+00 0.  1.
</event>
<event>
 5    1  0.1111613E-009  0.9118800E+02  0.7818608E-02  0.1130116E+00
         25   -1    0    0    0    0  0.00000000000E+00  0.00000000000E+00  0.99999998245E-14  0.12500000000E+03  0.12500000000E+03 0.  0.
        -11    1    3    3    0    0  0.27157481810E+00 -0.19736156784E+01 -0.47821462478E+02  0.47862941673E+02  0.51100000000E-03 0.  1.
         23    2    1    0    0    0 -0.20166739762E+02 -0.16015370132E+02 -0.30173625471E+01  0.99071368146E+02  0.95618209754E+02 0.  0.
         11    1    3    3    0    0 -0.20438314580E+02 -0.14041754453E+02  0.44804099931E+02  0.51208426474E+02  0.51100000000E-03 0. -1.
         22    1    1    0    0    0  0.20166739762E+02  0.16015370132E+02  0.30173625471E+01  0.25928631854E+02  0.00000000000E+00 0. -1.
</event>
<event>
 5    1  0.1111613E-009  0.9118800E+02  0.7818608E-02  0.1130116E+00
         25   -1    0    0    0    0  0.00000000000E+00  0.00000000000E+00  0.99999998245E-14  0.12500000000E+03  0.12500000000E+03 0.  0.
        -11    1    3    3    0    0 -0.14332644567E+02 -0.35996866084E+02 -0.29028269918E+02  0.48413216407E+02  0.51100000000E-03 0. -1.
         23    2    1    0    0    0  0.21391337361E+02 -0.20188710950E+02 -0.28290499586E+01  0.95450433377E+02  0.90761271169E+02 0.  0.
         11    1    3    3    0    0  0.35723981928E+02  0.15808155134E+02  0.26199219960E+02  0.47037216970E+02  0.51100000000E-03 0.  1.
         22    1    1    0    0    0 -0.21391337361E+02  0.20188710950E+02  0.28290499586E+01  0.29549566623E+02  0.00000000000E+00 0.  1.
</event>
<event>
 5    1  0.1111613E-009  0.9118800E+02  0.7818608E-02  0.1130116E+00
         25   -1    0    0    0    0  0.00000000000E+00  0.00000000000E+00  0.99999998245E-14  0.12500000000E+03  0.12500000000E+03 0.  0.
        -11    1    3    3    0    0  0.34368689656E+02 -0.19780719120E+02 -0.56081415335E+01  0.40049156411E+02  0.51100000000E-03 0. -1.
         23    2    1    0    0    0 -0.20254194753E+02 -0.21161082436E+01  0.13515390490E+02  0.10055872141E+03  0.97543222992E+02 0.  0.
         11    1    3    3    0    0 -0.54622884409E+02  0.17664610876E+02  0.19123532023E+02  0.60509564995E+02  0.51100000000E-03 0.  1.
         22    1    1    0    0    0  0.20254194753E+02  0.21161082436E+01 -0.13515390490E+02  0.24441278594E+02  0.00000000000E+00 0.  1.
</event>
<event>
 5    1  0.1111613E-009  0.9118800E+02  0.7818608E-02  0.1130116E+00
         25   -1    0    0    0    0  0.00000000000E+00  0.00000000000E+00  0.99999998245E-14  0.12500000000E+03  0.12500000000E+03 0.  0.
        -11    1    3    3    0    0 -0.26390235688E+02  0.91193218737E+01 -0.39458329448E+02  0.48338042308E+02  0.51100000000E-03 0. -1.
         23    2    1    0    0    0  0.17360575336E+02 -0.26685643412E+01 -0.21886640467E+02  0.96936930984E+02  0.92785951232E+02 0.  0.
         11    1    3    3    0    0  0.43750811024E+02 -0.11787886215E+02  0.17571688981E+02  0.48598888676E+02  0.51100000000E-03 0.  1.
         22    1    1    0    0    0 -0.17360575336E+02  0.26685643412E+01  0.21886640467E+02  0.28063069016E+02  0.00000000000E+00 0. -1.
</event>
<event>
 5    1  0.1111613E-009  0.9118800E+02  0.7818608E-02  0.1130116E+00
         25   -1    0    0    0    0  0.00000000000E+00  0.00000000000E+00  0.99999998245E-14  0.12500000000E+03  0.12500000000E+03 0.  0.
        -11    1    3    3    0    0  0.22230536777E+02  0.34015441285E+01  0.22312676369E+02  0.31680006232E+02  0.51100000000E-03 0. -1.
         23    2    1    0    0    0 -0.19567018917E+02 -0.42747236106E+01 -0.23469784035E+02  0.94145952390E+02  0.88946546293E+02 0.  0.
         11    1    3    3    0    0 -0.41797555695E+02 -0.76762677392E+01 -0.45782460404E+02  0.62465946158E+02  0.51100000000E-03 0.  1.
         22    1    1    0    0    0  0.19567018917E+02  0.42747236106E+01  0.23469784035E+02  0.30854047610E+02  0.00000000000E+00 0.  1.
</event>
<event>
 5    1  0.1111613E-009  0.9118800E+02  0.7818608E-02  0.1130116E+00
         25   -1    0    0    0    0  0.00000000000E+00  0.00000000000E+00  0.99999998245E-14  0.12500000000E+03  0.12500000000E+03 0.  0.
        -11    1    3    3    0    0 -0.27840666082E+02 -0.41898228507E+01 -0.15945075198E+02  0.32355876232E+02  0.51100000000E-03 0. -1.
         23    2    1    0    0    0  0.28497961835E+02 -0.57208045646E+01  0.98119401203E+01  0.94322066521E+02  0.89193702862E+02 0.  0.
         11    1    3    3    0    0  0.56338627917E+02 -0.15309817140E+01  0.25757015318E+02  0.61966190289E+02  0.51100000000E-03 0.  1.
         22    1    1    0    0    0 -0.28497961835E+02  0.57208045646E+01 -0.98119401203E+01  0.30677933479E+02  0.00000000000E+00 0.  1.
</event>
<event>
 5    1  0.1111613E-009  0.9118800E+02  0.7818608E-02  0.1130116E+00
         25   -1    0    0    0    0  0.00000000000E+00  0.00000000000E+00  0.99999998245E-14  0.12500000000E+03  0.12500000000E+03 0.  0.
        -11    1    3    3    0    0  0.21089172541E+02  0.53657249158E+01 -0.42410678073E+02  0.47667702034E+02  0.51100000000E-03 0.  1.
         23    2    1    0    0    0  0.27393438349E+02  0.78127860028E+01  0.54447047098E+01  0.95998536259E+02  0.91513026750E+02 0.  0.
         11    1    3    3    0    0  0.63042658081E+01  0.24470610870E+01  0.47855382783E+02  0.48330834225E+02  0.51100000000E-03 0. -1.
         22    1    1    0    0    0 -0.27393438349E+02 -0.78127860028E+01 -0.54447047098E+01  0.29001463741E+02  0.00000000000E+00 0.  1.
</event>
<event>
 5    1  0.1111613E-009  0.9118800E+02  0.7818608E-02  0.1130116E+00
         25   -1    0    0    0    0  0.00000000000E+00  0.00000000000E+00  0.99999998245E-14  0.12500000000E+03  0.12500000000E+03 0.  0.
        -11    1    3    3    0    0 -0.17442354331E+02 -0.27295375124E+01  0.45035416719E+02  0.48372252986E+02  0.51100000000E-03 0. -1.
         23    2    1    0    0    0 -0.15518786219E+02  0.23027154279E+02  0.38789126970E+01  0.96962016413E+02  0.92819739837E+02 0.  0.
         11    1    3    3    0    0  0.19235681125E+01  0.25756691791E+02 -0.41156504022E+02  0.48589763427E+02  0.51100000000E-03 0.  1.
         22    1    1    0    0    0  0.15518786219E+02 -0.23027154279E+02 -0.38789126970E+01  0.28037983587E+02  0.00000000000E+00 0.  1.
</event>
<event>
 5    1  0.1111613E-009  0.9118800E+02  0.7818608E-02  0.1130116E+00
         25   -1    0    0    0    0  0.00000000000E+00  0.00000000000E+00  0.99999998245E-14  0.12500000000E+03  0.12500000000E+03 0.  0.
        -11    1    3    3    0    0 -0.52556091953E+02  0.21357102662E+02  0.42651070288E+01  0.56889891666E+02  0.51100000000E-03 0.  1.
         23    2    1    0    0    0 -0.21959596743E+02  0.82082218826E+01 -0.16677256542E+02  0.96229708354E+02  0.91828247771E+02 0.  0.
         11    1    3    3    0    0  0.30596495210E+02 -0.13148880780E+02 -0.20942363571E+02  0.39339816689E+02  0.51100000000E-03 0. -1.
         22    1    1    0    0    0  0.21959596743E+02 -0.82082218826E+01  0.16677256542E+02  0.28770291646E+02  0.00000000000E+00 0. -1.
</event>
<event>
 5    1  0.1111613E-009  0.9118800E+02  0.7818608E-02  0.1130116E+00
         25   -1    0    0    0    0  0.00000000000E+00  0.00000000000E+00  0.99999998245E-14  0.12500000000E+03  0.12500000000E+03 0.  0.
        -11    1    3    3    0    0  0.32141094624E+02 -0.36152096775E+02  0.26671405493E+02  0.55239369440E+02  0.51100000000E-03 0.  1.
         23    2    1    0    0    0  0.48456762661E+01 -0.74947148192E+01  0.28776167964E+02  0.94871621826E+02  0.89960577236E+02 0.  0.
         11    1    3    3    0    0 -0.27295418358E+02  0.28657381956E+02  0.21047624707E+01  0.39632252387E+02  0.51100000000E-03 0. -1.
         22    1    1    0    0    0 -0.48456762661E+01  0.74947148192E+01 -0.28776167964E+02  0.30128378174E+02  0.00000000000E+00 0.  1.
</event>
<event>
 5    1  0.1111613E-009  0.9118800E+02  0.7818608E-02  0.1130116E+00
         25   -1    0    0    0    0  0.00000000000E+00  0.00000000000E+00  0.99999998245E-14  0.12500000000E+03  0.12500000000E+03 0.  0.
        -11    1    3    3    0    0 -0.36332985070E+02 -0.18879290036E+02  0.25984412058E+02  0.48494361184E+02  0.51100000000E-03 0.  1.
         23    2    1    0    0    0 -0.30700955328E+02 -0.29170719129E+02 -0.56884791839E+01  0.82270170747E+02  0.70303219605E+02 0.  0.
         11    1    3    3    0    0  0.56320297425E+01 -0.10291429093E+02 -0.31672891242E+02  0.33775809564E+02  0.51100000000E-03 0. -1.
         22    1    1    0    0    0  0.30700955328E+02  0.29170719129E+02  0.56884791839E+01  0.42729829253E+02  0.00000000000E+00 0.  1.
</event>
<event>
 5    1  0.1111613E-009  0.9118800E+02  0.7818608E-02  0.1130116E+00
         25   -1    0    0    0    0  0.00000000000E+00  0.00000000000E+00  0.99999998245E-14  0.12500000000E+03  0.12500000000E+03 0.  0.
        -11    1    3    3    0    0  0.26216472920E+02  0.21552545228E+02  0.43281369074E+02  0.55000841515E+02  0.51100000000E-03 0. -1.
         23    2    1    0    0    0 -0.29907233325E+01  0.92375654361E+00  0.32501621463E+02  0.92347999296E+02  0.86382867654E+02 0.  0.
         11    1    3    3    0    0 -0.29207196252E+02 -0.20628788685E+02 -0.10779747611E+02  0.37347157781E+02  0.51100000000E-03 0.  1.
         22    1    1    0    0    0  0.29907233325E+01 -0.92375654361E+00 -0.32501621463E+02  0.32652000704E+02  0.00000000000E+00 0. -1.
</event>
<event>
 5    1  0.1111613E-009  0.9118800E+02  0.7818608E-02  0.1130116E+00
         25   -1    0    0    0    0  0.00000000000E+00  0.00000000000E+00  0.99999998245E-14  0.12500000000E+03  0.12500000000E+03 0.  0.
        -11    1    3    3    0    0 -0.15966384539E+02  0.32581707299E+02 -0.19549584180E+02  0.41215037639E+02  0.51100000000E-03 0. -1.
         23    2    1    0    0    0  0.13414340032E+02 -0.14579399408E+02 -0.20093514304E+02  0.96782049637E+02  0.92577062004E+02 0.  0.
         11    1    3    3    0    0  0.29380724571E+02 -0.47161106707E+02 -0.54393012405E+00  0.55567011998E+02  0.51100000000E-03 0.  1.
         22    1    1    0    0    0 -0.13414340032E+02  0.14579399408E+02  0.20093514304E+02  0.28217950363E+02  0.00000000000E+00 0.  1.
</event>
<event>
 5    1  0.1111613E-009  0.9118800E+02  0.7818608E-02  0.1130116E+00
         25   -1    0    0    0    0  0.00000000000E+00  0.00000000000E+00  0.99999998245E-14  0.12500000000E+03  0.12500000000E+03 0.  0.
        -11    1    3    3    0    0  0.23359025283E+02 -0.14299297059E+02 -0.38501732187E+02  0.47249310473E+02  0.51100000000E-03 0. -1.
         23    2    1    0    0    0 -0.10573183077E+02  0.15733194243E+02 -0.23119666391E+02  0.95102766424E+02  0.90281180796E+02 0.  0.
         11    1    3    3    0    0 -0.33932208360E+02  0.30032491302E+02  0.15382065796E+02  0.47853455951E+02  0.51100000000E-03 0.  1.
         22    1    1    0    0    0  0.10573183077E+02 -0.15733194243E+02  0.23119666391E+02  0.29897233576E+02  0.00000000000E+00 0.  1.
</event>
<event>
 5    1  0.1111613E-009  0.9118800E+02  0.7818608E-02  0.1130116E+00
         25   -1    0    0    0    0  0.00000000000E+00  0.00000000000E+00  0.99999998245E-14  0.12500000000E+03  0.12500000000E+03 0.  0.
        -11    1    3    3    0    0  0.21871290449E+02 -0.34238942941E+02  0.47028367591E+02  0.62147613938E+02  0.51100000000E-03 0.  1.
         23    2    1    0    0    0  0.65472646600E+01 -0.13268195113E+02  0.23709246187E+02  0.97052906576E+02  0.92942060683E+02 0.  0.
         11    1    3    3    0    0 -0.15324025789E+02  0.20970747829E+02 -0.23319121404E+02  0.34905292638E+02  0.51100000000E-03 0. -1.
         22    1    1    0    0    0 -0.65472646600E+01  0.13268195113E+02 -0.23709246187E+02  0.27947093424E+02  0.00000000000E+00 0.  1.
</event>
<event>
 5    1  0.1111613E-009  0.9118800E+02  0.7818608E-02  0.1130116E+00
         25   -1    0    0    0    0  0.00000000000E+00  0.00000000000E+00  0.99999998245E-14  0.12500000000E+03  0.12500000000E+03 0.  0.
        -11    1    3    3    0    0 -0.19651419201E+02  0.28382861542E+02 -0.15562802575E+02  0.37867742608E+02  0.51100000000E-03 0. -1.
         23    2    1    0    0    0  0.18880993705E+02  0.54380604309E+00  0.20192074994E+02  0.97350270510E+02  0.93341135774E+02 0.  0.
         11    1    3    3    0    0  0.38532412906E+02 -0.27839055499E+02  0.35754877569E+02  0.59482527903E+02  0.51100000000E-03 0.  1.
         22    1    1    0    0    0 -0.18880993705E+02 -0.54380604309E+00 -0.20192074994E+02  0.27649729490E+02  0.00000000000E+00 0.  1.
</event>
<event>
 5    1  0.1111613E-009  0.9118800E+02  0.7818608E-02  0.1130116E+00
         25   -1    0    0    0    0  0.00000000000E+00  0.00000000000E+00  0.99999998245E-14  0.12500000000E+03  0.12500000000E+03 0.  0.
        -11    1    3    3    0    0  0.48722577913E+02 -0.28992219875E+02 -0.15720574007E+02  0.58835149861E+02  0.51100000000E-03 0. -1.
         23    2    1    0    0    0  0.30020415682E+02 -0.89637777955E+01 -0.21707823643E+02  0.86884330290E+02  0.78077413972E+02 0.  0.
         11    1    3    3    0    0 -0.18702162231E+02  0.20028442080E+02 -0.59872496363E+01  0.28049180429E+02  0.51100000000E-03 0.  1.
         22    1    1    0    0    0 -0.30020415682E+02  0.89637777955E+01  0.21707823643E+02  0.38115669710E+02  0.00000000000E+00 0. -1.
</event>
<event>
 5    1  0.1111613E-009  0.9118800E+02  0.7818608E-02  0.1130116E+00
         25   -1    0    0    0    0  0.00000000000E+00  0.00000000000E+00  0.99999998245E-14  0.12500000000E+03  0.12500000000E+03 0.  0.
        -11    1    3    3    0    0  0.33225609458E+02  0.22940841595E+02  0.41973120129E+02  0.58240588515E+02  0.51100000000E-03 0. -1.
         23    2    1    0    0    0  0.17657071847E+02  0.21913657191E+02  0.78157396072E+01  0.95792700513E+02  0.91231437171E+02 0.  0.
         11    1    3    3    0    0 -0.15568537611E+02 -0.10271844045E+01 -0.34157380522E+02  0.37552111998E+02  0.51100000000E-03 0.  1.
         22    1    1    0    0    0 -0.17657071847E+02 -0.21913657191E+02 -0.78157396072E+01  0.29207299487E+02  0.00000000000E+00 0. -1.
</event>
<event>
 5    1  0.1111613E-009  0.9118800E+02  0.7818608E-02  0.1130116E+00
         25   -1    0    0    0    0  0.00000000000E+00  0.00000000000E+00  0.99999998245E-14  0.12500000000E+03  0.12500000000E+03 0.  0.
        -11    1    3    3    0    0  0.19156241955E+02 -0.26401394578E+02 -0.13201206862E+02  0.35189019657E+02  0.51100000000E-03 0. -1.
         23    2    1    0    0    0 -0.10888665050E+02  0.23600897216E+02 -0.17475087574E+02  0.93679973472E+02  0.88289259641E+02 0.  0.
         11    1    3    3    0    0 -0.30044907005E+02  0.50002291795E+02 -0.42738807119E+01  0.58490953816E+02  0.51100000000E-03 0.  1.
         22    1    1    0    0    0  0.10888665050E+02 -0.23600897216E+02  0.17475087574E+02  0.31320026528E+02  0.00000000000E+00 0.  1.
</event>
<event>
 5    1  0.1111613E-009  0.9118800E+02  0.7818608E-02  0.1130116E+00
         25   -1    0    0    0    0  0.00000000000E+00  0.00000000000E+00  0.99999998245E-14  0.12500000000E+03  0.12500000000E+03 0.  0.
        -11    1    3    3    0    0 -0.11920437556E+02 -0.41094628878E+01 -0.55928360746E+02  0.57332068275E+02  0.51100000000E-03 0. -1.
         23    2    1    0    0    0  0.11455771148E+02  0.34857933771E+01 -0.28065274257E+02  0.94486968896E+02  0.89424505723E+02 0.  0.
         11    1    3    3    0    0  0.23376208705E+02  0.75952562649E+01  0.27863086489E+02  0.37154900620E+02  0.51100000000E-03 0.  1.
         22    1    1    0    0    0 -0.11455771148E+02 -0.34857933771E+01  0.28065274257E+02  0.30513031104E+02  0.00000000000E+00 0. -1.
</event>
<event>
 5    1  0.1111613E-009  0.9118800E+02  0.7818608E-02  0.1130116E+00
         25   -1    0    0    0    0  0.00000000000E+00  0.00000000000E+00  0.99999998245E-14  0.12500000000E+03  0.12500000000E+03 0.  0.
        -11    1    3    3    0    0  0.27850491011E+02  0.22741114489E+02 -0.78337143167E+01  0.36799119799E+02  0.51100000000E-03 0.  1.
         23    2    1    0    0    0 -0.13377641415E+01 -0.27726658016E+02 -0.10894075161E+02  0.95179905244E+02  0.90387921268E+02 0.  0.
         11    1    3    3    0    0 -0.29188255152E+02 -0.50467772505E+02 -0.30603608441E+01  0.58380785445E+02  0.51100000000E-03 0. -1.
         22    1    1    0    0    0  0.13377641415E+01  0.27726658016E+02  0.10894075161E+02  0.29820094756E+02  0.00000000000E+00 0. -1.
</event>
<event>
 5    1  0.1111613E-009  0.9118800E+02  0.7818608E-02  0.1130116E+00
         25   -1    0    0    0    0  0.00000000000E+00  0.00000000000E+00  0.99999998245E-14  0.12500000000E+03  0.12500000000E+03 0.  0.
        -11    1    3    3    0    0 -0.33334380218E+02  0.31473092374E+02 -0.80828184453E+01  0.46551781947E+02  0.51100000000E-03 0.  1.
         23    2    1    0    0    0 -0.16798965501E+02 -0.78885713100E+01 -0.26168647329E+02  0.92918340095E+02  0.87204271821E+02 0.  0.
         11    1    3    3    0    0  0.16535414717E+02 -0.39361663684E+02 -0.18085828883E+02  0.46366558149E+02  0.51100000000E-03 0. -1.
         22    1    1    0    0    0  0.16798965501E+02  0.78885713100E+01  0.26168647329E+02  0.32081659905E+02  0.00000000000E+00 0. -1.
</event>
<event>
 5    1  0.1111613E-009  0.9118800E+02  0.7818608E-02  0.1130116E+00
         25   -1    0    0    0    0  0.00000000000E+00  0.00000000000E+00  0.99999998245E-14  0.12500000000E+03  0.12500000000E+03 0.  0.
        -11    1    3    3    0    0 -0.26711293600E+02 -0.14028113907E+02 -0.31857278073E+02  0.43876729049E+02  0.51100000000E-03 0.  1.
         23    2    1    0    0    0 -0.20985448098E+02  0.87417537917E+01  0.16011855464E+02  0.97193763171E+02  0.93131309411E+02 0.  0.
         11    1    3    3    0    0  0.57258455020E+01  0.22769867699E+02  0.47869133537E+02  0.53317034122E+02  0.51100000000E-03 0. -1.
         22    1    1    0    0    0  0.20985448098E+02 -0.87417537917E+01 -0.16011855464E+02  0.27806236829E+02  0.00000000000E+00 0. -1.
</event>
<event>
 5    1  0.1111613E-009  0.9118800E+02  0.7818608E-02  0.1130116E+00
         25   -1    0    0    0    0  0.00000000000E+00  0.00000000000E+00  0.99999998245E-14  0.12500000000E+03  0.12500000000E+03 0.  0.
        -11    1    3    3    0    0  0.62729082963E+01 -0.19912518085E+02 -0.28237496988E+02  0.35117146686E+02  0.51100000000E-03 0.  1.
         23    2    1    0    0    0  0.82953352377E+01  0.69677826334E+01  0.26631050386E+02  0.96249775197E+02  0.91855559436E+02 0.  0.
         11    1    3    3    0    0  0.20224269414E+01  0.26880300718E+02  0.54868547375E+02  0.61132628511E+02  0.51100000000E-03 0. -1.
         22    1    1    0    0    0 -0.82953352377E+01 -0.69677826334E+01 -0.26631050386E+02  0.28750224803E+02  0.00000000000E+00 0. -1.
</event>
<event>
 5    1  0.1111613E-009  0.9118800E+02  0.7818608E-02  0.1130116E+00
         25   -1    0    0    0    0  0.00000000000E+00  0.00000000000E+00  0.99999998245E-14  0.12500000000E+03  0.12500000000E+03 0.  0.
        -11    1    3    3    0    0 -0.29295848019E+02  0.45191487490E+02 -0.30408994412E+02  0.61848396860E+02  0.51100000000E-03 0.  1.
         23    2    1    0    0    0 -0.13881648300E+02  0.16628132630E+02 -0.58116024887E+01  0.10257301452E+03  0.10009122654E+03 0.  0.
         11    1    3    3    0    0  0.15414199720E+02 -0.28563354859E+02  0.24597391923E+02  0.40724617659E+02  0.51100000000E-03 0. -1.
         22    1    1    0    0    0  0.13881648300E+02 -0.16628132630E+02  0.58116024887E+01  0.22426985481E+02  0.00000000000E+00 0.  1.
</event>
<event>
 5    1  0.1111613E-009  0.9118800E+02  0.7818608E-02  0.1130116E+00
         25   -1    0    0    0    0  0.00000000000E+00  0.00000000000E+00  0.99999998245E-14  0.12500000000E+03  0.12500000000E+03 0.  0.
        -11    1    3    3    0    0 -0.36755222249E+02 -0.34631162295E+02 -0.27017524812E+02  0.57273121197E+02  0.51100000000E-03 0.  1.
         23    2    1    0    0    0 -0.22975441567E+02 -0.31902969246E+01  0.12915017718E+01  0.10176819235E+03  0.99081017801E+02 0.  0.
         11    1    3    3    0    0  0.13779780681E+02  0.31440865370E+02  0.28309026584E+02  0.44495071157E+02  0.51100000000E-03 0. -1.
         22    1    1    0    0    0  0.22975441567E+02  0.31902969246E+01 -0.12915017718E+01  0.23231807646E+02  0.00000000000E+00 0.  1.
</event>
<event>
 5    1  0.1111613E-009  0.9118800E+02  0.7818608E-02  0.1130116E+00
         25   -1    0    0    0    0  0.00000000000E+00  0.00000000000E+00  0.99999998245E-14  0.12500000000E+03  0.12500000000E+03 0.  0.
        -11    1    3    3    0    0 -0.33026039551E+02 -0.43916628705E+02  0.53618575016E+00  0.54951588337E+02  0.51100000000E-03 0.  1.
         23    2    1    0    0    0 -0.27297660018E+02 -0.28630860159E+01  0.64020883033E+01  0.96815851288E+02  0.92622690643E+02 0.  0.
         11    1    3    3    0    0  0.57283795335E+01  0.41053542689E+02  0.58659025531E+01  0.41864262951E+02  0.51100000000E-03 0. -1.
         22    1    1    0    0    0  0.27297660018E+02  0.28630860159E+01 -0.64020883033E+01  0.28184148712E+02  0.00000000000E+00 0.  1.
</event>
<event>
 5    1  0.1111613E-009  0.9118800E+02  0.7818608E-02  0.1130116E+00
         25   -1    0    0    0    0  0.00000000000E+00  0.00000000000E+00  0.99999998245E-14  0.12500000000E+03  0.12500000000E+03 0.  0.
        -11    1    3    3    0    0 -0.45138699411E+01  0.37427787241E+02  0.30262135545E+02  0.48342642953E+02  0.51100000000E-03 0.  1.
         23    2    1    0    0    0 -0.15849873212E+02  0.20590886677E+02 -0.12863149600E+02  0.96005798638E+02  0.91522946082E+02 0.  0.
         11    1    3    3    0    0 -0.11336003270E+02 -0.16836900565E+02 -0.43125285145E+02  0.47663155686E+02  0.51100000000E-03 0. -1.
         22    1    1    0    0    0  0.15849873212E+02 -0.20590886677E+02  0.12863149600E+02  0.28994201362E+02  0.00000000000E+00 0.  1.
</event>
<event>
 5    1  0.1111613E-009  0.9118800E+02  0.7818608E-02  0.1130116E+00
         25   -1    0    0    0    0  0.00000000000E+00  0.00000000000E+00  0.99999998245E-14  0.12500000000E+03  0.12500000000E+03 0.  0.
        -11    1    3    3    0    0 -0.32753385981E+01 -0.54345562618E+02 -0.69009543680E+01  0.54879788544E+02  0.51100000000E-03 0.  1.
         23    2    1    0    0    0 -0.11142957168E+02 -0.15716223953E+02 -0.20769905280E+02  0.96670613224E+02  0.92426475135E+02 0.  0.
         11    1    3    3    0    0 -0.78676185700E+01  0.38629338666E+02 -0.13868950912E+02  0.41790824679E+02  0.51100000000E-03 0. -1.
         22    1    1    0    0    0  0.11142957168E+02  0.15716223953E+02  0.20769905280E+02  0.28329386776E+02  0.00000000000E+00 0.  1.
</event>
<event>
 5    1  0.1111613E-009  0.9118800E+02  0.7818608E-02  0.1130116E+00
         25   -1    0    0    0    0  0.00000000000E+00  0.00000000000E+00  0.99999998245E-14  0.12500000000E+03  0.12500000000E+03 0.  0.
        -11    1    3    3    0    0 -0.30457281677E+02 -0.15466472445E+02 -0.11830241321E+02  0.36149860125E+02  0.51100000000E-03 0.  1.
         23    2    1    0    0    0  0.13791564756E+02  0.19829372911E+02 -0.20384052408E+02  0.93394290373E+02  0.87883858547E+02 0.  0.
         11    1    3    3    0    0  0.44248846433E+02  0.35295845356E+02 -0.85538110868E+01  0.57244430248E+02  0.51100000000E-03 0. -1.
         22    1    1    0    0    0 -0.13791564756E+02 -0.19829372911E+02  0.20384052408E+02  0.31605709627E+02  0.00000000000E+00 0. -1.
</event>
<event>
 5    1  0.1111613E-009  0.9118800E+02  0.7818608E-02  0.1130116E+00
         25   -1    0    0    0    0  0.00000000000E+00  0.00000000000E+00  0.99999998245E-14  0.12500000000E+03  0.12500000000E+03 0.  0.
        -11    1    3    3    0    0  0.46490002281E+01 -0.58157879794E+02 -0.19818885481E+02  0.61617695569E+02  0.51100000000E-03 0. -1.
         23    2    1    0    0    0  0.10096027618E+02 -0.36393976496E+02 -0.12311017867E+02  0.85275795039E+02  0.75458258394E+02 0.  0.
         11    1    3    3    0    0  0.54470273902E+01  0.21763903298E+02  0.75078676143E+01  0.23658099470E+02  0.51100000000E-03 0.  1.
         22    1    1    0    0    0 -0.10096027618E+02  0.36393976496E+02  0.12311017867E+02  0.39724204961E+02  0.00000000000E+00 0. -1.
</event>
<event>
 5    1  0.1111613E-009  0.9118800E+02  0.7818608E-02  0.1130116E+00
         25   -1    0    0    0    0  0.00000000000E+00  0.00000000000E+00  0.99999998245E-14  0.12500000000E+03  0.12500000000E+03 0.  0.
        -11    1    3    3    0    0  0.11524462134E+02  0.15404683858E+02  0.58299975773E+02  0.61392220090E+02  0.51100000000E-03 0.  1.
         23    2    1    0    0    0  0.11151723842E+02  0.12171660600E+02  0.23857573387E+02  0.95988035670E+02  0.91498682600E+02 0.  0.
         11    1    3    3    0    0 -0.37273829221E+00 -0.32330232583E+01 -0.34442402386E+02  0.34595815580E+02  0.51100000000E-03 0. -1.
         22    1    1    0    0    0 -0.11151723842E+02 -0.12171660600E+02 -0.23857573387E+02  0.29011964330E+02  0.00000000000E+00 0.  1.
</event>
<event>
 5    1  0.1111613E-009  0.9118800E+02  0.7818608E-02  0.1130116E+00
         25   -1    0    0    0    0  0.00000000000E+00  0.00000000000E+00  0.99999998245E-14  0.12500000000E+03  0.12500000000E+03 0.  0.
        -11    1    3    3    0    0 -0.20735882547E+02  0.15822444901E+00 -0.27972177589E+02  0.34820174889E+02  0.51100000000E-03 0.  1.
         23    2    1    0    0    0  0.26963385444E+02  0.60580856508E+01  0.95136198766E+01  0.95772726444E+02  0.91204065759E+02 0.  0.
         11    1    3    3    0    0  0.47699267992E+02  0.58998612018E+01  0.37485797466E+02  0.60952551555E+02  0.51100000000E-03 0. -1.
         22    1    1    0    0    0 -0.26963385444E+02 -0.60580856508E+01 -0.95136198766E+01  0.29227273556E+02  0.00000000000E+00 0. -1.
</event>
<event>
 5    1  0.1111613E-009  0.9118800E+02  0.7818608E-02  0.1130116E+00
         25   -1    0    0    0    0  0.00000000000E+00  0.00000000000E+00  0.99999998245E-14  0.12500000000E+03  0.12500000000E+03 0.  0.
        -11    1    3    3    0    0 -0.16455377342E+00  0.27324191464E+02  0.49096918800E+01  0.27762269211E+02  0.51100000000E-03 0. -1.
         23    2    1    0    0    0  0.25945509777E+01 -0.33846366930E+02 -0.74898775863E+01  0.90237858015E+02  0.83273432160E+02 0.  0.
         11    1    3    3    0    0  0.27591047511E+01 -0.61170558394E+02 -0.12399569466E+02  0.62475588804E+02  0.51100000000E-03 0.  1.
         22    1    1    0    0    0 -0.25945509777E+01  0.33846366930E+02  0.74898775863E+01  0.34762141985E+02  0.00000000000E+00 0.  1.
</event>
<event>
 5    1  0.1111613E-009  0.9118800E+02  0.7818608E-02  0.1130116E+00
         25   -1    0    0    0    0  0.00000000000E+00  0.00000000000E+00  0.99999998245E-14  0.12500000000E+03  0.12500000000E+03 0.  0.
        -11    1    3    3    0    0 -0.47984173919E+02  0.25137158099E+02 -0.13439273062E+02  0.55811931741E+02  0.51100000000E-03 0.  1.
         23    2    1    0    0    0 -0.83216074688E+01  0.26445546202E+02 -0.95109548127E+01  0.95690030259E+02  0.91090655749E+02 0.  0.
         11    1    3    3    0    0  0.39662566450E+02  0.13083881026E+01  0.39283182491E+01  0.39878098518E+02  0.51100000000E-03 0. -1.
         22    1    1    0    0    0  0.83216074688E+01 -0.26445546202E+02  0.95109548127E+01  0.29309969741E+02  0.00000000000E+00 0.  1.
</event>
<event>
 5    1  0.1111613E-009  0.9118800E+02  0.7818608E-02  0.1130116E+00
         25   -1    0    0    0    0  0.00000000000E+00  0.00000000000E+00  0.99999998245E-14  0.12500000000E+03  0.12500000000E+03 0.  0.
        -11    1    3    3    0    0  0.31284782243E+02  0.99887129101E+01 -0.87066829178E+01  0.33975260313E+02  0.51100000000E-03 0. -1.
         23    2    1    0    0    0 -0.25667677687E+02 -0.11325538041E+02  0.54708783944E+01  0.96416298347E+02  0.92081890656E+02 0.  0.
         11    1    3    3    0    0 -0.56952459931E+02 -0.21314250951E+02  0.14177561312E+02  0.62441038034E+02  0.51100000000E-03 0.  1.
         22    1    1    0    0    0  0.25667677687E+02  0.11325538041E+02 -0.54708783944E+01  0.28583701653E+02  0.00000000000E+00 0.  1.
</event>
<event>
 5    1  0.1111613E-009  0.9118800E+02  0.7818608E-02  0.1130116E+00
         25   -1    0    0    0    0  0.00000000000E+00  0.00000000000E+00  0.99999998245E-14  0.12500000000E+03  0.12500000000E+03 0.  0.
        -11    1    3    3    0    0  0.36394498835E+02 -0.51845088228E+01 -0.33248054694E+02  0.49566841924E+02  0.51100000000E-03 0.  1.
         23    2    1    0    0    0  0.27659216324E+02 -0.78324629914E+00  0.11252120191E+02  0.95129346656E+02  0.90317975309E+02 0.  0.
         11    1    3    3    0    0 -0.87352825114E+01  0.44012625237E+01  0.44500174885E+02  0.45562504732E+02  0.51100000000E-03 0. -1.
         22    1    1    0    0    0 -0.27659216324E+02  0.78324629914E+00 -0.11252120191E+02  0.29870653344E+02  0.00000000000E+00 0. -1.
</event>
<event>
 5    1  0.1111613E-009  0.9118800E+02  0.7818608E-02  0.1130116E+00
         25   -1    0    0    0    0  0.00000000000E+00  0.00000000000E+00  0.99999998245E-14  0.12500000000E+03  0.12500000000E+03 0.  0.
        -11    1    3    3    0    0  0.49710960831E+01  0.51242772973E+02 -0.12821760869E+02  0.53055924554E+02  0.51100000000E-03 0.  1.
         23    2    1    0    0    0  0.40757655758E+01  0.10760533835E+02 -0.26752894686E+02  0.95877528822E+02  0.91347590037E+02 0.  0.
         11    1    3    3    0    0 -0.89533050729E+00 -0.40482239139E+02 -0.13931133817E+02  0.42821604268E+02  0.51100000000E-03 0. -1.
         22    1    1    0    0    0 -0.40757655758E+01 -0.10760533835E+02  0.26752894686E+02  0.29122471178E+02  0.00000000000E+00 0.  1.
</event>
<event>
 5    1  0.1111613E-009  0.9118800E+02  0.7818608E-02  0.1130116E+00
         25   -1    0    0    0    0  0.00000000000E+00  0.00000000000E+00  0.99999998245E-14  0.12500000000E+03  0.12500000000E+03 0.  0.
        -11    1    3    3    0    0  0.28538265788E+02  0.12133876994E+02 -0.47238114239E+02  0.56507548365E+02  0.51100000000E-03 0. -1.
         23    2    1    0    0    0  0.20536568654E+02  0.19818514280E+02 -0.10986921917E+02  0.94418361496E+02  0.89328552961E+02 0.  0.
         11    1    3    3    0    0 -0.80016971340E+01  0.76846372861E+01  0.36251192322E+02  0.37910813131E+02  0.51100000000E-03 0.  1.
         22    1    1    0    0    0 -0.20536568654E+02 -0.19818514280E+02  0.10986921917E+02  0.30581638504E+02  0.00000000000E+00 0. -1.
</event>
<event>
 5    1  0.1111613E-009  0.9118800E+02  0.7818608E-02  0.1130116E+00
         25   -1    0    0    0    0  0.00000000000E+00  0.00000000000E+00  0.99999998245E-14  0.12500000000E+03  0.12500000000E+03 0.  0.
        -11    1    3    3    0    0 -0.36602832556E+01  0.26289523883E+02  0.27927855860E+02  0.38529234000E+02  0.51100000000E-03 0.  1.
         23    2    1    0    0    0 -0.26094953545E+01  0.14990323475E+02 -0.26670477884E+02  0.94294403532E+02  0.89154926297E+02 0.  0.
         11    1    3    3    0    0  0.10507879011E+01 -0.11299200407E+02 -0.54598333744E+02  0.55765169532E+02  0.51100000000E-03 0. -1.
         22    1    1    0    0    0  0.26094953545E+01 -0.14990323475E+02  0.26670477884E+02  0.30705596468E+02  0.00000000000E+00 0. -1.
</event>
<event>
 5    1  0.1111613E-009  0.9118800E+02  0.7818608E-02  0.1130116E+00
         25   -1    0    0    0    0  0.00000000000E+00  0.00000000000E+00  0.99999998245E-14  0.12500000000E+03  0.12500000000E+03 0.  0.
        -11    1    3    3    0    0 -0.18443320314E+02 -0.21796412651E+02 -0.20862426433E+02  0.35362133781E+02  0.51100000000E-03 0.  1.
         23    2    1    0    0    0  0.31576207006E+01  0.59813215633E+00  0.29914211430E+02  0.94913651334E+02  0.90018958189E+02 0.  0.
         11    1    3    3    0    0  0.21600941014E+02  0.22394544807E+02  0.50776637863E+02  0.59551517552E+02  0.51100000000E-03 0. -1.
         22    1    1    0    0    0 -0.31576207006E+01 -0.59813215633E+00 -0.29914211430E+02  0.30086348666E+02  0.00000000000E+00 0. -1.
</event>
<event>
 5    1  0.1111613E-009  0.9118800E+02  0.7818608E-02  0.1130116E+00
         25   -1    0    0    0    0  0.00000000000E+00  0.00000000000E+00  0.99999998245E-14  0.12500000000E+03  0.12500000000E+03 0.  0.
        -11    1    3    3    0    0  0.59859888398E+02  0.15069959113E+02  0.47251168120E+01  0.61908292141E+02  0.51100000000E-03 0.  1.
         23    2    1    0    0    0  0.30499510603E+02  0.14909867136E+01  0.32709113247E+01  0.94289382141E+02  0.89147885758E+02 0.  0.
         11    1    3    3    0    0 -0.29360377795E+02 -0.13578972400E+02 -0.14542054873E+01  0.32381089999E+02  0.51100000000E-03 0. -1.
         22    1    1    0    0    0 -0.30499510603E+02 -0.14909867136E+01 -0.32709113247E+01  0.30710617859E+02  0.00000000000E+00 0.  1.
</event>
<event>
 5    1  0.1111613E-009  0.9118800E+02  0.7818608E-02  0.1130116E+00
         25   -1    0    0    0    0  0.00000000000E+00  0.00000000000E+00  0.99999998245E-14  0.12500000000E+03  0.12500000000E+03 0.  0.
        -11    1    3    3    0    0  0.45152486642E+02 -0.76998387481E+01  0.17293957108E+01  0.45836943359E+02  0.51100000000E-03 0. -1.
         23    2    1    0    0    0  0.12310775462E+02  0.27995230740E+02 -0.79236818169E+00  0.94407256024E+02  0.89313011403E+02 0.  0.
         11    1    3    3    0    0 -0.32841711180E+02  0.35695069488E+02 -0.25217638925E+01  0.48570312665E+02  0.51100000000E-03 0.  1.
         22    1    1    0    0    0 -0.12310775462E+02 -0.27995230740E+02  0.79236818169E+00  0.30592743976E+02  0.00000000000E+00 0. -1.
</event>
<event>
 5    1  0.1111613E-009  0.9118800E+02  0.7818608E-02  0.1130116E+00
         25   -1    0    0    0    0  0.00000000000E+00  0.00000000000E+00  0.99999998245E-14  0.12500000000E+03  0.12500000000E+03 0.  0.
        -11    1    3    3    0    0 -0.39226038786E+02  0.42761235552E+00  0.43043616901E+02  0.58237598915E+02  0.51100000000E-03 0.  1.
         23    2    1    0    0    0 -0.17364637489E+02 -0.16008451199E+02  0.18265075873E+02  0.95143440561E+02  0.90337479156E+02 0.  0.
         11    1    3    3    0    0  0.21861401298E+02 -0.16436063554E+02 -0.24778541028E+02  0.36905841646E+02  0.51100000000E-03 0. -1.
         22    1    1    0    0    0  0.17364637489E+02  0.16008451199E+02 -0.18265075873E+02  0.29856559439E+02  0.00000000000E+00 0.  1.
</event>
<event>
 5    1  0.1111613E-009  0.9118800E+02  0.7818608E-02  0.1130116E+00
         25   -1    0    0    0    0  0.00000000000E+00  0.00000000000E+00  0.99999998245E-14  0.12500000000E+03  0.12500000000E+03 0.  0.
        -11    1    3    3    0    0 -0.76170124744E+01  0.36103650864E+02 -0.26327355338E+02  0.45327939773E+02  0.51100000000E-03 0.  1.
         23    2    1    0    0    0  0.19122893132E+02  0.12053042184E+02  0.13244518166E+02  0.98801180769E+02  0.95264343762E+02 0.  0.
         11    1    3    3    0    0  0.26739905607E+02 -0.24050608680E+02  0.39571873504E+02  0.53473240996E+02  0.51100000000E-03 0. -1.
         22    1    1    0    0    0 -0.19122893132E+02 -0.12053042184E+02 -0.13244518166E+02  0.26198819231E+02  0.00000000000E+00 0. -1.
</event>
<event>
 5    1  0.1111613E-009  0.9118800E+02  0.7818608E-02  0.1130116E+00
         25   -1    0    0    0    0  0.00000000000E+00  0.00000000000E+00  0.99999998245E-14  0.12500000000E+03  0.12500000000E+03 0.  0.
        -11    1    3    3    0    0  0.59515175235E+02 -0.94837276741E+01  0.58874769726E+01  0.60552948395E+02  0.51100000000E-03 0.  1.
         23    2    1    0    0    0  0.27180113758E+02 -0.11745757899E+02 -0.54510360248E+01  0.94892937602E+02  0.89990190579E+02 0.  0.
         11    1    3    3    0    0 -0.32335061478E+02 -0.22620302247E+01 -0.11338512997E+02  0.34339989208E+02  0.51100000000E-03 0. -1.
         22    1    1    0    0    0 -0.27180113758E+02  0.11745757899E+02  0.54510360248E+01  0.30107062398E+02  0.00000000000E+00 0.  1.
</event>
<event>
 5    1  0.1111613E-009  0.9118800E+02  0.7818608E-02  0.1130116E+00
         25   -1    0    0    0    0  0.00000000000E+00  0.00000000000E+00  0.99999998245E-14  0.12500000000E+03  0.12500000000E+03 0.  0.
        -11    1    3    3    0    0  0.33406288837E+02 -0.16091154089E+02  0.13726858783E+02  0.39538993742E+02  0.51100000000E-03 0. -1.
         23    2    1    0    0    0  0.20477998178E+01  0.28084182742E+02 -0.40421496577E+01  0.96552613859E+02  0.92266751676E+02 0.  0.
         11    1    3    3    0    0 -0.31358489019E+02  0.44175336831E+02 -0.17769008441E+02  0.57013620118E+02  0.51100000000E-03 0.  1.
         22    1    1    0    0    0 -0.20477998178E+01 -0.28084182742E+02  0.40421496577E+01  0.28447386141E+02  0.00000000000E+00 0.  1.
</event>
<event>
 5    1  0.1111613E-009  0.9118800E+02  0.7818608E-02  0.1130116E+00
         25   -1    0    0    0    0  0.00000000000E+00  0.00000000000E+00  0.99999998245E-14  0.12500000000E+03  0.12500000000E+03 0.  0.
        -11    1    3    3    0    0 -0.31058026550E+02 -0.99627830906E+01 -0.48521171652E+02  0.58465050747E+02  0.51100000000E-03 0. -1.
         23    2    1    0    0    0 -0.27030396026E+02  0.26034835167E+01 -0.16192282025E+02  0.93383383594E+02  0.87868344121E+02 0.  0.
         11    1    3    3    0    0  0.40276305235E+01  0.12566266607E+02  0.32328889627E+02  0.34918332848E+02  0.51100000000E-03 0.  1.
         22    1    1    0    0    0  0.27030396026E+02 -0.26034835167E+01  0.16192282025E+02  0.31616616406E+02  0.00000000000E+00 0. -1.
</event>
<event>
 4    1  0.1111613E-009  0.9118800E+02  0.7818608E-02  0.1130116E+00
         25   -1    0    0    0    0  0.00000000000E+00  0.00000000000E+00  0.99999998245E-14  0.12500000000E+03  0.12500000000E+03 0.  0.
        -11    1    1    0    0    0 -0.28742188654E+02  0.13134762871E+02  0.11816067670E+02  0.33738032838E+02  0.51100000000E-03 0. -1.
         11    1    1    0    0    0 -0.21937489956E+02  0.14532774016E+02 -0.19855190377E+02  0.32964883912E+02  0.51100000000E-03 0.  1.
         22    1    1    0    0    0  0.50679678611E+02 -0.27667536888E+02  0.80391227077E+01  0.58297083250E+02  0.00000000000E+00 0. -1.
</event>
<event>
 5    1  0.1111613E-009  0.9118800E+02  0.7818608E-02  0.1130116E+00
         25   -1    0    0    0    0  0.00000000000E+00  0.00000000000E+00  0.99999998245E-14  0.12500000000E+03  0.12500000000E+03 0.  0.
        -11    1    3    3    0    0 -0.39643552104E+02 -0.15201718724E+02  0.18819082562E+02  0.46442021320E+02  0.51100000000E-03 0.  1.
         23    2    1    0    0    0 -0.21054386687E+02  0.18916988156E+02 -0.10175372033E+02  0.94922137116E+02  0.90030740745E+02 0.  0.
         11    1    3    3    0    0  0.18589165417E+02  0.34118706880E+02 -0.28994454595E+02  0.48480115796E+02  0.51100000000E-03 0. -1.
         22    1    1    0    0    0  0.21054386687E+02 -0.18916988156E+02  0.10175372033E+02  0.30077862884E+02  0.00000000000E+00 0. -1.
</event>
<event>
 5    1  0.1111613E-009  0.9118800E+02  0.7818608E-02  0.1130116E+00
         25   -1    0    0    0    0  0.00000000000E+00  0.00000000000E+00  0.99999998245E-14  0.12500000000E+03  0.12500000000E+03 0.  0.
        -11    1    3    3    0    0  0.45126238895E+02 -0.74450852334E+00 -0.36373094851E+02  0.57964935599E+02  0.51100000000E-03 0.  1.
         23    2    1    0    0    0  0.23719604682E+02  0.14941234431E+02 -0.10395702946E+02  0.95101324906E+02  0.90279184902E+02 0.  0.
         11    1    3    3    0    0 -0.21406634213E+02  0.15685742955E+02  0.25977391904E+02  0.37136389307E+02  0.51100000000E-03 0. -1.
         22    1    1    0    0    0 -0.23719604682E+02 -0.14941234431E+02  0.10395702946E+02  0.29898675094E+02  0.00000000000E+00 0.  1.
</event>
<event>
 5    1  0.1111613E-009  0.9118800E+02  0.7818608E-02  0.1130116E+00
         25   -1    0    0    0    0  0.00000000000E+00  0.00000000000E+00  0.99999998245E-14  0.12500000000E+03  0.12500000000E+03 0.  0.
        -11    1    3    3    0    0  0.16229622778E+02  0.52856906726E+02 -0.22995697919E+01  0.55340231890E+02  0.51100000000E-03 0. -1.
         23    2    1    0    0    0 -0.11026609940E+02  0.20560036466E+02 -0.12094046682E+02  0.98721354841E+02  0.95159543453E+02 0.  0.
         11    1    3    3    0    0 -0.27256232719E+02 -0.32296870260E+02 -0.97944768905E+01  0.43381122950E+02  0.51100000000E-03 0.  1.
         22    1    1    0    0    0  0.11026609940E+02 -0.20560036466E+02  0.12094046682E+02  0.26278645159E+02  0.00000000000E+00 0. -1.
</event>
<event>
 5    1  0.1111613E-009  0.9118800E+02  0.7818608E-02  0.1130116E+00
         25   -1    0    0    0    0  0.00000000000E+00  0.00000000000E+00  0.99999998245E-14  0.12500000000E+03  0.12500000000E+03 0.  0.
        -11    1    3    3    0    0  0.38289130507E+02 -0.26500071480E+02 -0.40469508747E+02  0.61693536467E+02  0.51100000000E-03 0.  1.
         23    2    1    0    0    0  0.13477339648E+02 -0.17823209739E+02 -0.17147533059E+02  0.96833648099E+02  0.92646705418E+02 0.  0.
         11    1    3    3    0    0 -0.24811790859E+02  0.86768617416E+01  0.23321975687E+02  0.35140111632E+02  0.51100000000E-03 0. -1.
         22    1    1    0    0    0 -0.13477339648E+02  0.17823209739E+02  0.17147533059E+02  0.28166351901E+02  0.00000000000E+00 0.  1.
</event>
<event>
 5    1  0.1111613E-009  0.9118800E+02  0.7818608E-02  0.1130116E+00
         25   -1    0    0    0    0  0.00000000000E+00  0.00000000000E+00  0.99999998245E-14  0.12500000000E+03  0.12500000000E+03 0.  0.
        -11    1    3    3    0    0 -0.37935407508E+02  0.26390240988E+02 -0.24028883914E+02  0.52085767966E+02  0.51100000000E-03 0.  1.
         23    2    1    0    0    0  0.22588729797E-01  0.10662033016E+02 -0.29589767618E+02  0.93547912534E+02  0.88102089269E+02 0.  0.
         11    1    3    3    0    0  0.37957996238E+02 -0.15728207971E+02 -0.55608837041E+01  0.41462144568E+02  0.51100000000E-03 0. -1.
         22    1    1    0    0    0 -0.22588729797E-01 -0.10662033016E+02  0.29589767618E+02  0.31452087466E+02  0.00000000000E+00 0.  1.
</event>
<event>
 5    1  0.1111613E-009  0.9118800E+02  0.7818608E-02  0.1130116E+00
         25   -1    0    0    0    0  0.00000000000E+00  0.00000000000E+00  0.99999998245E-14  0.12500000000E+03  0.12500000000E+03 0.  0.
        -11    1    3    3    0    0 -0.57043766478E+01  0.31305745565E+02  0.29373427503E+02  0.43305748601E+02  0.51100000000E-03 0.  1.
         23    2    1    0    0    0  0.15507093646E+02 -0.15850846865E+02  0.18447609034E+02  0.96155007735E+02  0.91726506168E+02 0.  0.
         11    1    3    3    0    0  0.21211470294E+02 -0.47156592429E+02 -0.10925818469E+02  0.52849259135E+02  0.51100000000E-03 0. -1.
         22    1    1    0    0    0 -0.15507093646E+02  0.15850846865E+02 -0.18447609034E+02  0.28844992265E+02  0.00000000000E+00 0. -1.
</event>
<event>
 5    1  0.1111613E-009  0.9118800E+02  0.7818608E-02  0.1130116E+00
         25   -1    0    0    0    0  0.00000000000E+00  0.00000000000E+00  0.99999998245E-14  0.12500000000E+03  0.12500000000E+03 0.  0.
        -11    1    3    3    0    0  0.31723854245E+02  0.21301417440E+02 -0.20254226333E+02  0.43247971024E+02  0.51100000000E-03 0.  1.
         23    2    1    0    0    0  0.39077396174E+01 -0.22099942507E+02 -0.20210805556E+02  0.94798103554E+02  0.89858365712E+02 0.  0.
         11    1    3    3    0    0 -0.27816114628E+02 -0.43401359947E+02  0.43420776788E-01  0.51550132530E+02  0.51100000000E-03 0. -1.
         22    1    1    0    0    0 -0.39077396174E+01  0.22099942507E+02  0.20210805556E+02  0.30201896446E+02  0.00000000000E+00 0.  1.
</event>
<event>
 5    1  0.1111613E-009  0.9118800E+02  0.7818608E-02  0.1130116E+00
         25   -1    0    0    0    0  0.00000000000E+00  0.00000000000E+00  0.99999998245E-14  0.12500000000E+03  0.12500000000E+03 0.  0.
        -11    1    3    3    0    0  0.42505914169E+02 -0.49078167029E+00 -0.35595903499E+02  0.55444223795E+02  0.51100000000E-03 0.  1.
         23    2    1    0    0    0  0.24146441076E+02  0.17433885676E+02 -0.59908567045E+01  0.94621037700E+02  0.89611714775E+02 0.  0.
         11    1    3    3    0    0 -0.18359473094E+02  0.17924667347E+02  0.29605046794E+02  0.39176813905E+02  0.51100000000E-03 0. -1.
         22    1    1    0    0    0 -0.24146441076E+02 -0.17433885676E+02  0.59908567045E+01  0.30378962300E+02  0.00000000000E+00 0.  1.
</event>
<event>
 5    1  0.1111613E-009  0.9118800E+02  0.7818608E-02  0.1130116E+00
         25   -1    0    0    0    0  0.00000000000E+00  0.00000000000E+00  0.99999998245E-14  0.12500000000E+03  0.12500000000E+03 0.  0.
        -11    1    3    3    0    0 -0.28189776239E+02  0.15758031763E+01  0.26958204466E+02  0.39037051994E+02  0.51100000000E-03 0.  1.
         23    2    1    0    0    0  0.23543294526E+02  0.14985875363E+02  0.59254793393E+01  0.96469761954E+02  0.92154438247E+02 0.  0.
         11    1    3    3    0    0  0.51733070765E+02  0.13410072187E+02 -0.21032725127E+02  0.57432709960E+02  0.51100000000E-03 0. -1.
         22    1    1    0    0    0 -0.23543294526E+02 -0.14985875363E+02 -0.59254793393E+01  0.28530238046E+02  0.00000000000E+00 0. -1.
</event>
<event>
 5    1  0.1111613E-009  0.9118800E+02  0.7818608E-02  0.1130116E+00
         25   -1    0    0    0    0  0.00000000000E+00  0.00000000000E+00  0.99999998245E-14  0.12500000000E+03  0.12500000000E+03 0.  0.
        -11    1    3    3    0    0  0.21482405023E+02  0.55207927180E+02 -0.86232026838E+01  0.59864585306E+02  0.51100000000E-03 0. -1.
         23    2    1    0    0    0  0.20319367193E+02  0.19334194939E+02 -0.82675595994E+01  0.95758927537E+02  0.91185151666E+02 0.  0.
         11    1    3    3    0    0 -0.11630378304E+01 -0.35873732242E+02  0.35564308441E+00  0.35894342231E+02  0.51100000000E-03 0.  1.
         22    1    1    0    0    0 -0.20319367193E+02 -0.19334194939E+02  0.82675595994E+01  0.29241072463E+02  0.00000000000E+00 0. -1.
</event>
<event>
 5    1  0.1111613E-009  0.9118800E+02  0.7818608E-02  0.1130116E+00
         25   -1    0    0    0    0  0.00000000000E+00  0.00000000000E+00  0.99999998245E-14  0.12500000000E+03  0.12500000000E+03 0.  0.
        -11    1    3    3    0    0  0.21283678198E+02 -0.50931740167E+01  0.41060565879E+02  0.46528544462E+02  0.51100000000E-03 0. -1.
         23    2    1    0    0    0  0.20185590698E+01 -0.29833557149E+02  0.43896864057E+01  0.94777739006E+02  0.89830032569E+02 0.  0.
         11    1    3    3    0    0 -0.19265119128E+02 -0.24740383132E+02 -0.36670879473E+02  0.48249194544E+02  0.51100000000E-03 0.  1.
         22    1    1    0    0    0 -0.20185590698E+01  0.29833557149E+02 -0.43896864057E+01  0.30222260994E+02  0.00000000000E+00 0.  1.
</event>
<event>
 5    1  0.1111613E-009  0.9118800E+02  0.7818608E-02  0.1130116E+00
         25   -1    0    0    0    0  0.00000000000E+00  0.00000000000E+00  0.99999998245E-14  0.12500000000E+03  0.12500000000E+03 0.  0.
        -11    1    3    3    0    0  0.42057244626E+02  0.24770293452E+02  0.18802338338E+02  0.52305900150E+02  0.51100000000E-03 0.  1.
         23    2    1    0    0    0  0.26254141464E+02 -0.12293623604E+02  0.20637804628E+01  0.95936753190E+02  0.91428596717E+02 0.  0.
         11    1    3    3    0    0 -0.15803103162E+02 -0.37063917056E+02 -0.16738557875E+02  0.43630853041E+02  0.51100000000E-03 0. -1.
         22    1    1    0    0    0 -0.26254141464E+02  0.12293623604E+02 -0.20637804628E+01  0.29063246810E+02  0.00000000000E+00 0.  1.
</event>
<event>
 5    1  0.1111613E-009  0.9118800E+02  0.7818608E-02  0.1130116E+00
         25   -1    0    0    0    0  0.00000000000E+00  0.00000000000E+00  0.99999998245E-14  0.12500000000E+03  0.12500000000E+03 0.  0.
        -11    1    3    3    0    0 -0.18201884284E+02  0.90360443358E+01 -0.32409325281E+02  0.38253405785E+02  0.51100000000E-03 0.  1.
         23    2    1    0    0    0  0.28098672326E+02 -0.79586333361E+01 -0.30850787316E+01  0.95633472424E+02  0.91013010642E+02 0.  0.
         11    1    3    3    0    0  0.46300556610E+02 -0.16994677672E+02  0.29324246550E+02  0.57380066639E+02  0.51100000000E-03 0. -1.
         22    1    1    0    0    0 -0.28098672326E+02  0.79586333361E+01  0.30850787316E+01  0.29366527576E+02  0.00000000000E+00 0. -1.
</event>
<event>
 5    1  0.1111613E-009  0.9118800E+02  0.7818608E-02  0.1130116E+00
         25   -1    0    0    0    0  0.00000000000E+00  0.00000000000E+00  0.99999998245E-14  0.12500000000E+03  0.12500000000E+03 0.  0.
        -11    1    3    3    0    0  0.57749132644E+01  0.19449536737E+01 -0.46184632207E+02  0.46584897986E+02  0.51100000000E-03 0. -1.
         23    2    1    0    0    0  0.72470854920E+01  0.28209487862E+02 -0.50079388796E+01  0.95447082963E+02  0.90756656730E+02 0.  0.
         11    1    3    3    0    0  0.14721722276E+01  0.26264534188E+02  0.41176693327E+02  0.48862184978E+02  0.51100000000E-03 0.  1.
         22    1    1    0    0    0 -0.72470854920E+01 -0.28209487862E+02  0.50079388796E+01  0.29552917037E+02  0.00000000000E+00 0. -1.
</event>
<event>
 5    1  0.1111613E-009  0.9118800E+02  0.7818608E-02  0.1130116E+00
         25   -1    0    0    0    0  0.00000000000E+00  0.00000000000E+00  0.99999998245E-14  0.12500000000E+03  0.12500000000E+03 0.  0.
        -11    1    3    3    0    0 -0.14653715634E+02 -0.58770119176E+01  0.59562773078E+02  0.61619758097E+02  0.51100000000E-03 0.  1.
         23    2    1    0    0    0 -0.64152208140E+01 -0.10359149662E+02  0.30597134899E+02  0.92065949174E+02  0.85973759331E+02 0.  0.
         11    1    3    3    0    0  0.82384948196E+01 -0.44821377443E+01 -0.28965638179E+02  0.30446191076E+02  0.51100000000E-03 0. -1.
         22    1    1    0    0    0  0.64152208140E+01  0.10359149662E+02 -0.30597134899E+02  0.32934050826E+02  0.00000000000E+00 0.  1.
</event>
<event>
 5    1  0.1111613E-009  0.9118800E+02  0.7818608E-02  0.1130116E+00
         25   -1    0    0    0    0  0.00000000000E+00  0.00000000000E+00  0.99999998245E-14  0.12500000000E+03  0.12500000000E+03 0.  0.
        -11    1    3    3    0    0  0.24888128491E+02 -0.45598089671E+02  0.32914595394E+02  0.61497766721E+02  0.51100000000E-03 0.  1.
         23    2    1    0    0    0  0.51055499472E+01 -0.24946390839E+02  0.12505599245E+02  0.96631371753E+02  0.92373388691E+02 0.  0.
         11    1    3    3    0    0 -0.19782578544E+02  0.20651698832E+02 -0.20408996149E+02  0.35133605032E+02  0.51100000000E-03 0. -1.
         22    1    1    0    0    0 -0.51055499472E+01  0.24946390839E+02 -0.12505599245E+02  0.28368628247E+02  0.00000000000E+00 0.  1.
</event>
<event>
 5    1  0.1111613E-009  0.9118800E+02  0.7818608E-02  0.1130116E+00
         25   -1    0    0    0    0  0.00000000000E+00  0.00000000000E+00  0.99999998245E-14  0.12500000000E+03  0.12500000000E+03 0.  0.
        -11    1    3    3    0    0  0.36425749646E+02 -0.22020936004E+02  0.65135407935E+01  0.43060226122E+02  0.51100000000E-03 0.  1.
         23    2    1    0    0    0 -0.14133835041E+02 -0.17459999305E+02  0.19270242373E+02  0.95403393610E+02  0.90696463010E+02 0.  0.
         11    1    3    3    0    0 -0.50559584687E+02  0.45609366994E+01  0.12756701579E+02  0.52343167488E+02  0.51100000000E-03 0. -1.
         22    1    1    0    0    0  0.14133835041E+02  0.17459999305E+02 -0.19270242373E+02  0.29596606390E+02  0.00000000000E+00 0. -1.
</event>
<event>
 5    1  0.1111613E-009  0.9118800E+02  0.7818608E-02  0.1130116E+00
         25   -1    0    0    0    0  0.00000000000E+00  0.00000000000E+00  0.99999998245E-14  0.12500000000E+03  0.12500000000E+03 0.  0.
        -11    1    3    3    0    0 -0.30934036380E+02 -0.41331517963E+02  0.34687135688E+02  0.62196514102E+02  0.51100000000E-03 0. -1.
         23    2    1    0    0    0 -0.16534132285E+02 -0.16161267356E+02  0.18367384439E+02  0.95471625441E+02  0.90790453023E+02 0.  0.
         11    1    3    3    0    0  0.14399904096E+02  0.25170250607E+02 -0.16319751248E+02  0.33275111339E+02  0.51100000000E-03 0.  1.
         22    1    1    0    0    0  0.16534132285E+02  0.16161267356E+02 -0.18367384439E+02  0.29528374559E+02  0.00000000000E+00 0. -1.
</event>
<event>
 5    1  0.1111613E-009  0.9118800E+02  0.7818608E-02  0.1130116E+00
         25   -1    0    0    0    0  0.00000000000E+00  0.00000000000E+00  0.99999998245E-14  0.12500000000E+03  0.12500000000E+03 0.  0.
        -11    1    3    3    0    0  0.10353463591E+02 -0.42321513886E+02  0.29053360640E+02  0.52367953088E+02  0.51100000000E-03 0. -1.
         23    2    1    0    0    0  0.36810062573E+01 -0.27010154556E+02 -0.10876685210E+02  0.95650374153E+02  0.91036221024E+02 0.  0.
         11    1    3    3    0    0 -0.66724573333E+01  0.15311359330E+02 -0.39930045850E+02  0.43282421065E+02  0.51100000000E-03 0.  1.
         22    1    1    0    0    0 -0.36810062573E+01  0.27010154556E+02  0.10876685210E+02  0.29349625847E+02  0.00000000000E+00 0.  1.
</event>
<event>
 5    1  0.1111613E-009  0.9118800E+02  0.7818608E-02  0.1130116E+00
         25   -1    0    0    0    0  0.00000000000E+00  0.00000000000E+00  0.99999998245E-14  0.12500000000E+03  0.12500000000E+03 0.  0.
        -11    1    3    3    0    0  0.71079992131E+00  0.37114332969E+02  0.11358349317E+02  0.38819982583E+02  0.51100000000E-03 0.  1.
         23    2    1    0    0    0 -0.22395476004E+02 -0.15731982921E+02  0.74811296942E+01  0.96627126800E+02  0.92367644227E+02 0.  0.
         11    1    3    3    0    0 -0.23106275926E+02 -0.52846315890E+02 -0.38772196232E+01  0.57807144218E+02  0.51100000000E-03 0. -1.
         22    1    1    0    0    0  0.22395476004E+02  0.15731982921E+02 -0.74811296942E+01  0.28372873200E+02  0.00000000000E+00 0. -1.
</event>
<event>
 5    1  0.1111613E-009  0.9118800E+02  0.7818608E-02  0.1130116E+00
         25   -1    0    0    0    0  0.00000000000E+00  0.00000000000E+00  0.99999998245E-14  0.12500000000E+03  0.12500000000E+03 0.  0.
        -11    1    3    3    0    0  0.22113932014E+02 -0.26257351354E+02 -0.49260064976E+01  0.34680542521E+02  0.51100000000E-03 0.  1.
         23    2    1    0    0    0 -0.18542160251E+02  0.20880915353E+02 -0.21696766852E+01  0.96990504651E+02  0.92858096916E+02 0.  0.
         11    1    3    3    0    0 -0.40656092265E+02  0.47138266707E+02  0.27563298124E+01  0.62309962131E+02  0.51100000000E-03 0. -1.
         22    1    1    0    0    0  0.18542160251E+02 -0.20880915353E+02  0.21696766852E+01  0.28009495349E+02  0.00000000000E+00 0. -1.
</event>
<event>
 5    1  0.1111613E-009  0.9118800E+02  0.7818608E-02  0.1130116E+00
         25   -1    0    0    0    0  0.00000000000E+00  0.00000000000E+00  0.99999998245E-14  0.12500000000E+03  0.12500000000E+03 0.  0.
        -11    1    3    3    0    0 -0.43058521600E+02  0.14332623442E+02 -0.15375077026E+02  0.47915064134E+02  0.51100000000E-03 0.  1.
         23    2    1    0    0    0  0.50981002842E+01  0.23626617433E+02 -0.14184687406E+02  0.96974778598E+02  0.92836925033E+02 0.  0.
         11    1    3    3    0    0  0.48156621884E+02  0.92939939910E+01  0.11903896201E+01  0.49059714464E+02  0.51100000000E-03 0. -1.
         22    1    1    0    0    0 -0.50981002842E+01 -0.23626617433E+02  0.14184687406E+02  0.28025221402E+02  0.00000000000E+00 0.  1.
</event>
<event>
 5    1  0.1111613E-009  0.9118800E+02  0.7818608E-02  0.1130116E+00
         25   -1    0    0    0    0  0.00000000000E+00  0.00000000000E+00  0.99999998245E-14  0.12500000000E+03  0.12500000000E+03 0.  0.
        -11    1    3    3    0    0 -0.27146623826E+02 -0.92268323682E+01 -0.24746624008E+02  0.37874384757E+02  0.51100000000E-03 0. -1.
         23    2    1    0    0    0  0.27094771096E+02 -0.96848010589E+01 -0.40009000225E+01  0.95949540567E+02  0.91446077782E+02 0.  0.
         11    1    3    3    0    0  0.54241394922E+02 -0.45796869073E+00  0.20745723985E+02  0.58075155810E+02  0.51100000000E-03 0.  1.
         22    1    1    0    0    0 -0.27094771096E+02  0.96848010589E+01  0.40009000225E+01  0.29050459433E+02  0.00000000000E+00 0.  1.
</event>
<event>
 5    1  0.1111613E-009  0.9118800E+02  0.7818608E-02  0.1130116E+00
         25   -1    0    0    0    0  0.00000000000E+00  0.00000000000E+00  0.99999998245E-14  0.12500000000E+03  0.12500000000E+03 0.  0.
        -11    1    3    3    0    0  0.11181064593E+02 -0.17604928386E+02  0.84310077414E+01  0.22495146159E+02  0.51100000000E-03 0. -1.
         23    2    1    0    0    0 -0.45220459624E+01  0.22524867662E+02 -0.34647568928E+02  0.83427501933E+02  0.72331704551E+02 0.  0.
         11    1    3    3    0    0 -0.15703110555E+02  0.40129796049E+02 -0.43078576670E+02  0.60932355774E+02  0.51100000000E-03 0.  1.
         22    1    1    0    0    0  0.45220459624E+01 -0.22524867662E+02  0.34647568928E+02  0.41572498067E+02  0.00000000000E+00 0.  1.
</event>
<event>
 5    1  0.1111613E-009  0.9118800E+02  0.7818608E-02  0.1130116E+00
         25   -1    0    0    0    0  0.00000000000E+00  0.00000000000E+00  0.99999998245E-14  0.12500000000E+03  0.12500000000E+03 0.  0.
        -11    1    3    3    0    0  0.22663769902E+02 -0.11166409609E+02  0.28445324463E+02  0.38045652232E+02  0.51100000000E-03 0.  1.
         23    2    1    0    0    0 -0.28747796765E+02 -0.66614649759E+01  0.37672346128E+01  0.95251000166E+02  0.90486187021E+02 0.  0.
         11    1    3    3    0    0 -0.51411566667E+02  0.45049446335E+01 -0.24678089850E+02  0.57205347934E+02  0.51100000000E-03 0. -1.
         22    1    1    0    0    0  0.28747796765E+02  0.66614649759E+01 -0.37672346128E+01  0.29748999834E+02  0.00000000000E+00 0. -1.
</event>
<event>
 5    1  0.1111613E-009  0.9118800E+02  0.7818608E-02  0.1130116E+00
         25   -1    0    0    0    0  0.00000000000E+00  0.00000000000E+00  0.99999998245E-14  0.12500000000E+03  0.12500000000E+03 0.  0.
        -11    1    3    3    0    0 -0.24915123212E+02 -0.11653953028E+02 -0.26799880099E+02  0.38403275373E+02  0.51100000000E-03 0. -1.
         23    2    1    0    0    0  0.15711550769E+02  0.23345683599E+02 -0.43982825388E+01  0.96518099439E+02  0.92219980806E+02 0.  0.
         11    1    3    3    0    0  0.40626673981E+02  0.34999636626E+02  0.22401597560E+02  0.58114824066E+02  0.51100000000E-03 0.  1.
         22    1    1    0    0    0 -0.15711550769E+02 -0.23345683599E+02  0.43982825388E+01  0.28481900561E+02  0.00000000000E+00 0.  1.
</event>
<event>
 5    1  0.1111613E-009  0.9118800E+02  0.7818608E-02  0.1130116E+00
         25   -1    0    0    0    0  0.00000000000E+00  0.00000000000E+00  0.99999998245E-14  0.12500000000E+03  0.12500000000E+03 0.  0.
        -11    1    3    3    0    0 -0.33799794241E+02 -0.24898469262E+02  0.15547543752E+02  0.44767018879E+02  0.51100000000E-03 0. -1.
         23    2    1    0    0    0 -0.21130437175E+02  0.64259693383E+01 -0.20987985061E+02  0.94532246980E+02  0.89487774277E+02 0.  0.
         11    1    3    3    0    0  0.12669357066E+02  0.31324438601E+02 -0.36535528812E+02  0.49765228101E+02  0.51100000000E-03 0.  1.
         22    1    1    0    0    0  0.21130437175E+02 -0.64259693383E+01  0.20987985061E+02  0.30467753020E+02  0.00000000000E+00 0.  1.
</event>
<event>
 5    1  0.1111613E-009  0.9118800E+02  0.7818608E-02  0.1130116E+00
         25   -1    0    0    0    0  0.00000000000E+00  0.00000000000E+00  0.99999998245E-14  0.12500000000E+03  0.12500000000E+03 0.  0.
        -11    1    3    3    0    0 -0.18135901027E+02 -0.26794119130E+02  0.16246505764E+02  0.36204760403E+02  0.51100000000E-03 0.  1.
         23    2    1    0    0    0  0.23435678369E+02  0.15075672670E+02  0.93427874051E+01  0.95609617159E+02  0.90980241205E+02 0.  0.
         11    1    3    3    0    0  0.41571579396E+02  0.41869791799E+02 -0.69037183590E+01  0.59404856756E+02  0.51100000000E-03 0. -1.
         22    1    1    0    0    0 -0.23435678369E+02 -0.15075672670E+02 -0.93427874051E+01  0.29390382841E+02  0.00000000000E+00 0. -1.
</event>
<event>
 5    1  0.1111613E-009  0.9118800E+02  0.7818608E-02  0.1130116E+00
         25   -1    0    0    0    0  0.00000000000E+00  0.00000000000E+00  0.99999998245E-14  0.12500000000E+03  0.12500000000E+03 0.  0.
        -11    1    3    3    0    0 -0.38383376626E+02 -0.21744720872E+01  0.32207931512E+01  0.38579598739E+02  0.51100000000E-03 0. -1.
         23    2    1    0    0    0  0.17312780625E+02 -0.20235877566E+02 -0.55846504346E+01  0.97789497720E+02  0.93927495602E+02 0.  0.
         11    1    3    3    0    0  0.55696157251E+02 -0.18061405478E+02 -0.88054435857E+01  0.59209898982E+02  0.51100000000E-03 0.  1.
         22    1    1    0    0    0 -0.17312780625E+02  0.20235877566E+02  0.55846504346E+01  0.27210502280E+02  0.00000000000E+00 0.  1.
</event>
<event>
 5    1  0.1111613E-009  0.9118800E+02  0.7818608E-02  0.1130116E+00
         25   -1    0    0    0    0  0.00000000000E+00  0.00000000000E+00  0.99999998245E-14  0.12500000000E+03  0.12500000000E+03 0.  0.
        -11    1    3    3    0    0 -0.37663703743E+02 -0.30777199488E+01  0.23685972068E+02  0.44598791607E+02  0.51100000000E-03 0.  1.
         23    2    1    0    0    0  0.11115029628E+02  0.14396984975E+02  0.22019503607E+02  0.96439965001E+02  0.92114012237E+02 0.  0.
         11    1    3    3    0    0  0.48778733372E+02  0.17474704924E+02 -0.16664684610E+01  0.51841173394E+02  0.51100000000E-03 0. -1.
         22    1    1    0    0    0 -0.11115029628E+02 -0.14396984975E+02 -0.22019503607E+02  0.28560034999E+02  0.00000000000E+00 0. -1.
</event>
<event>
 5    1  0.1111613E-009  0.9118800E+02  0.7818608E-02  0.1130116E+00
         25   -1    0    0    0    0  0.00000000000E+00  0.00000000000E+00  0.99999998245E-14  0.12500000000E+03  0.12500000000E+03 0.  0.
        -11    1    3    3    0    0 -0.46496321715E+02  0.63499156851E+01  0.83366049830E+00  0.46935320946E+02  0.51100000000E-03 0.  1.
         23    2    1    0    0    0 -0.19568445782E+01  0.25067838863E+02  0.12911050631E+02  0.96734809140E+02  0.92513254645E+02 0.  0.
         11    1    3    3    0    0  0.44539477137E+02  0.18717923178E+02  0.12077390133E+02  0.49799488194E+02  0.51100000000E-03 0. -1.
         22    1    1    0    0    0  0.19568445782E+01 -0.25067838863E+02 -0.12911050631E+02  0.28265190860E+02  0.00000000000E+00 0. -1.
</event>
<event>
 5    1  0.1111613E-009  0.9118800E+02  0.7818608E-02  0.1130116E+00
         25   -1    0    0    0    0  0.00000000000E+00  0.00000000000E+00  0.99999998245E-14  0.12500000000E+03  0.12500000000E+03 0.  0.
        -11    1    3    3    0    0  0.61433330275E+01 -0.30110253458E+02 -0.10637036495E+02  0.32519447253E+02  0.51100000000E-03 0.  1.
         23    2    1    0    0    0 -0.73136156112E+01  0.25272721263E+02  0.14666655715E+02  0.94878409683E+02  0.89970008451E+02 0.  0.
         11    1    3    3    0    0 -0.13456948639E+02  0.55382974721E+02  0.25303692210E+02  0.62358962430E+02  0.51100000000E-03 0. -1.
         22    1    1    0    0    0  0.73136156112E+01 -0.25272721263E+02 -0.14666655715E+02  0.30121590317E+02  0.00000000000E+00 0. -1.
</event>
<event>
 5    1  0.1111613E-009  0.9118800E+02  0.7818608E-02  0.1130116E+00
         25   -1    0    0    0    0  0.00000000000E+00  0.00000000000E+00  0.99999998245E-14  0.12500000000E+03  0.12500000000E+03 0.  0.
        -11    1    3    3    0    0 -0.12107071677E+02 -0.13023387668E+02  0.54361112370E+02  0.57195457419E+02  0.51100000000E-03 0. -1.
         23    2    1    0    0    0  0.12443577002E+02 -0.52463200090E+01  0.27244089463E+02  0.94592650676E+02  0.89572108767E+02 0.  0.
         11    1    3    3    0    0  0.24550648679E+02  0.77770676585E+01 -0.27117022907E+02  0.37397193258E+02  0.51100000000E-03 0.  1.
         22    1    1    0    0    0 -0.12443577002E+02  0.52463200090E+01 -0.27244089463E+02  0.30407349324E+02  0.00000000000E+00 0. -1.
</event>
<event>
 5    1  0.1111613E-009  0.9118800E+02  0.7818608E-02  0.1130116E+00
         25   -1    0    0    0    0  0.00000000000E+00  0.00000000000E+00  0.99999998245E-14  0.12500000000E+03  0.12500000000E+03 0.  0.
        -11    1    3    3    0    0 -0.23487477666E+02  0.14383031909E+02 -0.45997618565E+02  0.53612630302E+02  0.51100000000E-03 0.  1.
         23    2    1    0    0    0 -0.76803712261E+01  0.25674583550E+02 -0.68120541399E+01  0.97349024896E+02  0.93339467664E+02 0.  0.
         11    1    3    3    0    0  0.15807106440E+02  0.11291551641E+02  0.39185564425E+02  0.43736394593E+02  0.51100000000E-03 0. -1.
         22    1    1    0    0    0  0.76803712261E+01 -0.25674583550E+02  0.68120541399E+01  0.27650975104E+02  0.00000000000E+00 0.  1.
</event>
<event>
 5    1  0.1111613E-009  0.9118800E+02  0.7818608E-02  0.1130116E+00
         25   -1    0    0    0    0  0.00000000000E+00  0.00000000000E+00  0.99999998245E-14  0.12500000000E+03  0.12500000000E+03 0.  0.
        -11    1    3    3    0    0 -0.43678121414E+01 -0.36688115831E+02  0.37113214777E+01  0.37133132557E+02  0.51100000000E-03 0.  1.
         23    2    1    0    0    0 -0.13403299689E+02  0.13230357653E+02 -0.23647009684E+02  0.94769686188E+02  0.89818826239E+02 0.  0.
         11    1    3    3    0    0 -0.90354875472E+01  0.49918473484E+02 -0.27358331162E+02  0.57636553631E+02  0.51100000000E-03 0. -1.
         22    1    1    0    0    0  0.13403299689E+02 -0.13230357653E+02  0.23647009684E+02  0.30230313812E+02  0.00000000000E+00 0. -1.
</event>
<event>
 5    1  0.1111613E-009  0.9118800E+02  0.7818608E-02  0.1130116E+00
         25   -1    0    0    0    0  0.00000000000E+00  0.00000000000E+00  0.99999998245E-14  0.12500000000E+03  0.12500000000E+03 0.  0.
        -11    1    3    3    0    0 -0.34111207613E+02 -0.18136189283E+02  0.46547484614E+02  0.60491025539E+02  0.51100000000E-03 0. -1.
         23    2    1    0    0    0 -0.17929421883E+02 -0.18097414767E+02  0.16412904959E+02  0.94695478233E+02  0.89715492298E+02 0.  0.
         11    1    3    3    0    0  0.16181785730E+02  0.38774516064E-01 -0.30134579655E+02  0.34204452695E+02  0.51100000000E-03 0.  1.
         22    1    1    0    0    0  0.17929421883E+02  0.18097414767E+02 -0.16412904959E+02  0.30304521767E+02  0.00000000000E+00 0. -1.
</event>
