<event>
 5    1  0.2377303E-009  0.9118800E+02  0.7815553E-02  0.1125453E+00
         25   -1    0    0    0    0  0.00000000000E+00  0.00000000000E+00  0.99999998245E-14  0.12509000000E+03  0.12509000000E+03 0.  0.
        -13    1    3    3    0    0 -0.53786021861E+02  0.11321105020E+02  0.29037656002E+02  0.62163495692E+02  0.10566000000E+00 0.  1.
         23    2    1    0    0    0 -0.24464562484E+02  0.99897670838E+00  0.15797203158E+02  0.95951290358E+02  0.91419832213E+02 0.  0.
         13    1    3    3    0    0  0.29321459377E+02 -0.10322128312E+02 -0.13240452844E+02  0.33787794667E+02  0.10566000000E+00 0. -1.
         22    1    1    0    0    0  0.24464562484E+02 -0.99897670838E+00 -0.15797203158E+02  0.29138709642E+02  0.00000000000E+00 0.  1.
</event>
<event>
 5    1  0.2377303E-009  0.9118800E+02  0.7815553E-02  0.1125453E+00
         25   -1    0    0    0    0  0.00000000000E+00  0.00000000000E+00  0.99999998245E-14  0.12509000000E+03  0.12509000000E+03 0.  0.
        -13    1    3    3    0    0 -0.39180576540E+01 -0.16370474708E+02  0.55199877474E+02  0.57709455509E+02  0.10566000000E+00 0.  1.
         23    2    1    0    0    0 -0.40169338019E+01 -0.23272516459E+02  0.18399035399E+02  0.95152226483E+02  0.90319853419E+02 0.  0.
         13    1    3    3    0    0 -0.98876147923E-01 -0.69020417512E+01 -0.36800842075E+02  0.37442770975E+02  0.10566000000E+00 0. -1.
         22    1    1    0    0    0  0.40169338019E+01  0.23272516459E+02 -0.18399035399E+02  0.29937773517E+02  0.00000000000E+00 0.  1.
</event>
<event>
 5    1  0.2377303E-009  0.9118800E+02  0.7815553E-02  0.1125453E+00
         25   -1    0    0    0    0  0.00000000000E+00  0.00000000000E+00  0.99999998245E-14  0.12509000000E+03  0.12509000000E+03 0.  0.
        -13    1    3    3    0    0 -0.30010894048E+02 -0.83453904634E+01  0.16093484200E+02  0.35061527367E+02  0.10566000000E+00 0.  1.
         23    2    1    0    0    0  0.34177719933E+01  0.30586248181E+02 -0.10131238899E+02  0.92688738530E+02  0.86841007050E+02 0.  0.
         13    1    3    3    0    0  0.33428666041E+02  0.38931638645E+02 -0.26224723099E+02  0.57627211164E+02  0.10566000000E+00 0. -1.
         22    1    1    0    0    0 -0.34177719933E+01 -0.30586248181E+02  0.10131238899E+02  0.32401261470E+02  0.00000000000E+00 0. -1.
</event>
<event>
 5    1  0.2377303E-009  0.9118800E+02  0.7815553E-02  0.1125453E+00
         25   -1    0    0    0    0  0.00000000000E+00  0.00000000000E+00  0.99999998245E-14  0.12509000000E+03  0.12509000000E+03 0.  0.
        -13    1    3    3    0    0  0.45204220185E+02 -0.33135757765E+01 -0.30832375171E+02  0.54818316553E+02  0.10566000000E+00 0.  1.
         23    2    1    0    0    0  0.11080919267E+02 -0.21541412002E+02 -0.14848699815E+02  0.96676920459E+02  0.92407379902E+02 0.  0.
         13    1    3    3    0    0 -0.34123300918E+02 -0.18227836225E+02  0.15983675356E+02  0.41858603906E+02  0.10566000000E+00 0. -1.
         22    1    1    0    0    0 -0.11080919267E+02  0.21541412002E+02  0.14848699815E+02  0.28413079541E+02  0.00000000000E+00 0.  1.
</event>
<event>
 5    1  0.2377303E-009  0.9118800E+02  0.7815553E-02  0.1125453E+00
         25   -1    0    0    0    0  0.00000000000E+00  0.00000000000E+00  0.99999998245E-14  0.12509000000E+03  0.12509000000E+03 0.  0.
        -13    1    3    3    0    0  0.47645958957E+02 -0.12239077286E+02  0.11021973057E+02  0.50412572557E+02  0.10566000000E+00 0. -1.
         23    2    1    0    0    0  0.32420661074E+01 -0.86417621922E+01  0.26069538941E+02  0.97434767095E+02  0.93427629381E+02 0.  0.
         13    1    3    3    0    0 -0.44403892849E+02  0.35973150934E+01  0.15047565884E+02  0.47022194538E+02  0.10566000000E+00 0.  1.
         22    1    1    0    0    0 -0.32420661074E+01  0.86417621922E+01 -0.26069538941E+02  0.27655232905E+02  0.00000000000E+00 0.  1.
</event>
<event>
 5    1  0.2377303E-009  0.9118800E+02  0.7815553E-02  0.1125453E+00
         25   -1    0    0    0    0  0.00000000000E+00  0.00000000000E+00  0.99999998245E-14  0.12509000000E+03  0.12509000000E+03 0.  0.
        -13    1    3    3    0    0  0.10518818983E+02 -0.36934512631E+02 -0.12578778256E+02  0.40410897077E+02  0.10566000000E+00 0.  1.
         23    2    1    0    0    0  0.23727167234E+02  0.44714658899E+01  0.19191933400E+02  0.94246803347E+02  0.89057044423E+02 0.  0.
         13    1    3    3    0    0  0.13208348251E+02  0.41405978521E+02  0.31770711656E+02  0.53835906270E+02  0.10566000000E+00 0. -1.
         22    1    1    0    0    0 -0.23727167234E+02 -0.44714658899E+01 -0.19191933400E+02  0.30843196653E+02  0.00000000000E+00 0. -1.
</event>
<event>
 5    1  0.2377303E-009  0.9118800E+02  0.7815553E-02  0.1125453E+00
         25   -1    0    0    0    0  0.00000000000E+00  0.00000000000E+00  0.99999998245E-14  0.12509000000E+03  0.12509000000E+03 0.  0.
        -13    1    3    3    0    0  0.10010044716E+00 -0.31212479792E+02  0.22729893823E+02  0.38612020824E+02  0.10566000000E+00 0. -1.
         23    2    1    0    0    0 -0.18781026353E+02  0.58787788368E+01 -0.19132037206E+02  0.97643290923E+02  0.93706405454E+02 0.  0.
         13    1    3    3    0    0 -0.18881126800E+02  0.37091258629E+02 -0.41861931029E+02  0.59031270099E+02  0.10566000000E+00 0.  1.
         22    1    1    0    0    0  0.18781026353E+02 -0.58787788368E+01  0.19132037206E+02  0.27446709077E+02  0.00000000000E+00 0.  1.
</event>
<event>
 5    1  0.2377303E-009  0.9118800E+02  0.7815553E-02  0.1125453E+00
         25   -1    0    0    0    0  0.00000000000E+00  0.00000000000E+00  0.99999998245E-14  0.12509000000E+03  0.12509000000E+03 0.  0.
        -13    1    3    3    0    0  0.26862705126E+02 -0.19465975167E+02  0.40252604855E+02  0.52161407932E+02  0.10566000000E+00 0. -1.
         23    2    1    0    0    0  0.10275188003E+02  0.16550860472E+02  0.21663515316E+02  0.95955512418E+02  0.91425609085E+02 0.  0.
         13    1    3    3    0    0 -0.16587517123E+02  0.36016835639E+02 -0.18589089539E+02  0.43794104485E+02  0.10566000000E+00 0.  1.
         22    1    1    0    0    0 -0.10275188003E+02 -0.16550860472E+02 -0.21663515316E+02  0.29134487582E+02  0.00000000000E+00 0. -1.
</event>
<event>
 5    1  0.2377303E-009  0.9118800E+02  0.7815553E-02  0.1125453E+00
         25   -1    0    0    0    0  0.00000000000E+00  0.00000000000E+00  0.99999998245E-14  0.12509000000E+03  0.12509000000E+03 0.  0.
        -13    1    3    3    0    0  0.21723324668E+02 -0.83772137004E+01  0.14208557893E+02  0.27275901918E+02  0.10566000000E+00 0. -1.
         23    2    1    0    0    0 -0.15136912291E+02  0.17105015300E+01 -0.33432487071E+02  0.88350605327E+02  0.80349526076E+02 0.  0.
         13    1    3    3    0    0 -0.36860236959E+02  0.10087715230E+02 -0.47641044964E+02  0.61074703409E+02  0.10566000000E+00 0.  1.
         22    1    1    0    0    0  0.15136912291E+02 -0.17105015300E+01  0.33432487071E+02  0.36739394673E+02  0.00000000000E+00 0.  1.
</event>
<event>
 5    1  0.2377303E-009  0.9118800E+02  0.7815553E-02  0.1125453E+00
         25   -1    0    0    0    0  0.00000000000E+00  0.00000000000E+00  0.99999998245E-14  0.12509000000E+03  0.12509000000E+03 0.  0.
        -13    1    3    3    0    0 -0.22655804388E+02 -0.28037037908E+02  0.14692073196E+02  0.38925944381E+02  0.10566000000E+00 0. -1.
         23    2    1    0    0    0 -0.20132701987E+02 -0.20777199829E+02 -0.29493757600E+02  0.83775360229E+02  0.72879431406E+02 0.  0.
         13    1    3    3    0    0  0.25231024008E+01  0.72598380796E+01 -0.44185830797E+02  0.44849415848E+02  0.10566000000E+00 0.  1.
         22    1    1    0    0    0  0.20132701987E+02  0.20777199829E+02  0.29493757600E+02  0.41314639771E+02  0.00000000000E+00 0.  1.
</event>
<event>
 5    1  0.2377303E-009  0.9118800E+02  0.7815553E-02  0.1125453E+00
         25   -1    0    0    0    0  0.00000000000E+00  0.00000000000E+00  0.99999998245E-14  0.12509000000E+03  0.12509000000E+03 0.  0.
        -13    1    3    3    0    0 -0.24851606890E+02  0.47229570268E+02  0.31929312589E+02  0.62191051117E+02  0.10566000000E+00 0.  1.
         23    2    1    0    0    0 -0.81682995938E+01  0.24367649560E+02  0.17827744912E+02  0.93811701581E+02  0.88443786676E+02 0.  0.
         13    1    3    3    0    0  0.16683307296E+02 -0.22861920708E+02 -0.14101567676E+02  0.31620650463E+02  0.10566000000E+00 0. -1.
         22    1    1    0    0    0  0.81682995938E+01 -0.24367649560E+02 -0.17827744912E+02  0.31278298419E+02  0.00000000000E+00 0.  1.
</event>
<event>
 5    1  0.2377303E-009  0.9118800E+02  0.7815553E-02  0.1125453E+00
         25   -1    0    0    0    0  0.00000000000E+00  0.00000000000E+00  0.99999998245E-14  0.12509000000E+03  0.12509000000E+03 0.  0.
        -13    1    3    3    0    0 -0.48775944553E+01  0.11948096042E+02 -0.31123494930E+02  0.33693189629E+02  0.10566000000E+00 0. -1.
         23    2    1    0    0    0  0.86768081376E+01 -0.11861436990E+02  0.24967834713E+02  0.96118057414E+02  0.91647735945E+02 0.  0.
         13    1    3    3    0    0  0.13554402593E+02 -0.23809533032E+02  0.56091329643E+02  0.62424867785E+02  0.10566000000E+00 0.  1.
         22    1    1    0    0    0 -0.86768081376E+01  0.11861436990E+02 -0.24967834713E+02  0.28971942586E+02  0.00000000000E+00 0.  1.
</event>
<event>
 5    1  0.2377303E-009  0.9118800E+02  0.7815553E-02  0.1125453E+00
         25   -1    0    0    0    0  0.00000000000E+00  0.00000000000E+00  0.99999998245E-14  0.12509000000E+03  0.12509000000E+03 0.  0.
        -13    1    3    3    0    0  0.83568584365E+01 -0.34467508519E+02  0.14802559900E+02  0.38431408641E+02  0.10566000000E+00 0. -1.
         23    2    1    0    0    0 -0.26648331920E+02  0.10190153745E+02  0.70580564369E+01  0.95699712690E+02  0.91074947274E+02 0.  0.
         13    1    3    3    0    0 -0.35005190357E+02  0.44657662264E+02 -0.77445034635E+01  0.57268304050E+02  0.10566000000E+00 0.  1.
         22    1    1    0    0    0  0.26648331920E+02 -0.10190153745E+02 -0.70580564369E+01  0.29390287310E+02  0.00000000000E+00 0.  1.
</event>
<event>
 5    1  0.2377303E-009  0.9118800E+02  0.7815553E-02  0.1125453E+00
         25   -1    0    0    0    0  0.00000000000E+00  0.00000000000E+00  0.99999998245E-14  0.12509000000E+03  0.12509000000E+03 0.  0.
        -13    1    3    3    0    0 -0.15493675844E+02 -0.39772711965E+02 -0.18836692945E+02  0.46655704617E+02  0.10566000000E+00 0.  1.
         23    2    1    0    0    0  0.24016956139E+02 -0.14583884637E+02 -0.45796924476E+00  0.96988156482E+02  0.92827737712E+02 0.  0.
         13    1    3    3    0    0  0.39510631983E+02  0.25188827328E+02  0.18378723701E+02  0.50332451865E+02  0.10566000000E+00 0. -1.
         22    1    1    0    0    0 -0.24016956139E+02  0.14583884637E+02  0.45796924476E+00  0.28101843518E+02  0.00000000000E+00 0. -1.
</event>
<event>
 5    1  0.2377303E-009  0.9118800E+02  0.7815553E-02  0.1125453E+00
         25   -1    0    0    0    0  0.00000000000E+00  0.00000000000E+00  0.99999998245E-14  0.12509000000E+03  0.12509000000E+03 0.  0.
        -13    1    3    3    0    0  0.50505195275E+02 -0.10387465618E+01 -0.23121173455E+02  0.55555859908E+02  0.10566000000E+00 0.  1.
         23    2    1    0    0    0  0.25273716611E+02  0.14637324487E+02  0.37907631368E+01  0.95638651905E+02  0.90991042601E+02 0.  0.
         13    1    3    3    0    0 -0.25231478664E+02  0.15676071049E+02  0.26911936592E+02  0.40082791997E+02  0.10566000000E+00 0. -1.
         22    1    1    0    0    0 -0.25273716611E+02 -0.14637324487E+02 -0.37907631368E+01  0.29451348095E+02  0.00000000000E+00 0.  1.
</event>
<event>
 5    1  0.2377303E-009  0.9118800E+02  0.7815553E-02  0.1125453E+00
         25   -1    0    0    0    0  0.00000000000E+00  0.00000000000E+00  0.99999998245E-14  0.12509000000E+03  0.12509000000E+03 0.  0.
        -13    1    3    3    0    0 -0.58178883322E+02  0.14290419843E+02  0.14389563514E+02  0.61612249318E+02  0.10566000000E+00 0. -1.
         23    2    1    0    0    0 -0.30134800342E+02  0.11271487786E+01  0.11826505203E+02  0.92697981210E+02  0.86854319634E+02 0.  0.
         13    1    3    3    0    0  0.28044082980E+02 -0.13163271065E+02 -0.25630583118E+01  0.31085731892E+02  0.10566000000E+00 0.  1.
         22    1    1    0    0    0  0.30134800342E+02 -0.11271487786E+01 -0.11826505203E+02  0.32392018790E+02  0.00000000000E+00 0. -1.
</event>
<event>
 5    1  0.2377303E-009  0.9118800E+02  0.7815553E-02  0.1125453E+00
         25   -1    0    0    0    0  0.00000000000E+00  0.00000000000E+00  0.99999998245E-14  0.12509000000E+03  0.12509000000E+03 0.  0.
        -13    1    3    3    0    0  0.39686867180E+02 -0.36858713140E+02 -0.18761334953E+02  0.57320249600E+02  0.10566000000E+00 0. -1.
         23    2    1    0    0    0  0.75146005481E+01 -0.28001569192E+02  0.96018527808E+00  0.96081741617E+02  0.91598155100E+02 0.  0.
         13    1    3    3    0    0 -0.32172266632E+02  0.88571439477E+01  0.19721520231E+02  0.38761492017E+02  0.10566000000E+00 0.  1.
         22    1    1    0    0    0 -0.75146005481E+01  0.28001569192E+02 -0.96018527808E+00  0.29008258383E+02  0.00000000000E+00 0. -1.
</event>
<event>
 5    1  0.2377303E-009  0.9118800E+02  0.7815553E-02  0.1125453E+00
         25   -1    0    0    0    0  0.00000000000E+00  0.00000000000E+00  0.99999998245E-14  0.12509000000E+03  0.12509000000E+03 0.  0.
        -13    1    3    3    0    0 -0.35418989399E+02  0.22949109075E+02 -0.33911419435E+02  0.54140206404E+02  0.10566000000E+00 0.  1.
         23    2    1    0    0    0 -0.93804309847E+01 -0.81167454033E+01 -0.27156644988E+02  0.95234390671E+02  0.90433576497E+02 0.  0.
         13    1    3    3    0    0  0.26038558414E+02 -0.31065854478E+02  0.67547744467E+01  0.41094184267E+02  0.10566000000E+00 0. -1.
         22    1    1    0    0    0  0.93804309847E+01  0.81167454033E+01  0.27156644988E+02  0.29855609329E+02  0.00000000000E+00 0.  1.
</event>
<event>
 5    1  0.2377303E-009  0.9118800E+02  0.7815553E-02  0.1125453E+00
         25   -1    0    0    0    0  0.00000000000E+00  0.00000000000E+00  0.99999998245E-14  0.12509000000E+03  0.12509000000E+03 0.  0.
        -13    1    3    3    0    0 -0.24371725341E+02 -0.39110776402E+02  0.38755015101E+02  0.60212923749E+02  0.10566000000E+00 0.  1.
         23    2    1    0    0    0 -0.20782249439E+02 -0.11523796084E+02  0.13652034017E+02  0.97684201330E+02  0.93761001428E+02 0.  0.
         13    1    3    3    0    0  0.35894759026E+01  0.27586980317E+02 -0.25102981084E+02  0.37471277582E+02  0.10566000000E+00 0. -1.
         22    1    1    0    0    0  0.20782249439E+02  0.11523796084E+02 -0.13652034017E+02  0.27405798670E+02  0.00000000000E+00 0.  1.
</event>
<event>
 5    1  0.2377303E-009  0.9118800E+02  0.7815553E-02  0.1125453E+00
         25   -1    0    0    0    0  0.00000000000E+00  0.00000000000E+00  0.99999998245E-14  0.12509000000E+03  0.12509000000E+03 0.  0.
        -13    1    3    3    0    0 -0.30760772250E+02  0.26351529590E+02  0.46782811967E+02  0.61881102776E+02  0.10566000000E+00 0.  1.
         23    2    1    0    0    0 -0.16112420485E+02  0.63832704488E+01  0.23649373856E+02  0.95770226479E+02  0.91171745407E+02 0.  0.
         13    1    3    3    0    0  0.14648351765E+02 -0.19968259141E+02 -0.23133438111E+02  0.33889123704E+02  0.10566000000E+00 0. -1.
         22    1    1    0    0    0  0.16112420485E+02 -0.63832704488E+01 -0.23649373856E+02  0.29319773521E+02  0.00000000000E+00 0.  1.
</event>
<event>
 5    1  0.2377303E-009  0.9118800E+02  0.7815553E-02  0.1125453E+00
         25   -1    0    0    0    0  0.00000000000E+00  0.00000000000E+00  0.99999998245E-14  0.12509000000E+03  0.12509000000E+03 0.  0.
        -13    1    3    3    0    0  0.54337383364E+01 -0.10589176065E+01  0.36062260828E+02  0.36484854925E+02  0.10566000000E+00 0.  1.
         23    2    1    0    0    0  0.80435750618E+01  0.29254999540E+02 -0.11245531504E+02  0.92732372202E+02  0.86903836380E+02 0.  0.
         13    1    3    3    0    0  0.26098367254E+01  0.30313917147E+02 -0.47307792332E+02  0.56247517278E+02  0.10566000000E+00 0. -1.
         22    1    1    0    0    0 -0.80435750618E+01 -0.29254999540E+02  0.11245531504E+02  0.32357627798E+02  0.00000000000E+00 0. -1.
</event>
<event>
 5    1  0.2377303E-009  0.9118800E+02  0.7815553E-02  0.1125453E+00
         25   -1    0    0    0    0  0.00000000000E+00  0.00000000000E+00  0.99999998245E-14  0.12509000000E+03  0.12509000000E+03 0.  0.
        -13    1    3    3    0    0  0.30806490761E+02 -0.88318222003E+01  0.13643243721E+02  0.34830880260E+02  0.10566000000E+00 0.  1.
         23    2    1    0    0    0 -0.25310727235E+02  0.10886198782E+02  0.13717362816E+02  0.94311626428E+02  0.89148048772E+02 0.  0.
         13    1    3    3    0    0 -0.56117217996E+02  0.19718020982E+02  0.74119094848E-01  0.59480746169E+02  0.10566000000E+00 0. -1.
         22    1    1    0    0    0  0.25310727235E+02 -0.10886198782E+02 -0.13717362816E+02  0.30778373572E+02  0.00000000000E+00 0. -1.
</event>
<event>
 5    1  0.2377303E-009  0.9118800E+02  0.7815553E-02  0.1125453E+00
         25   -1    0    0    0    0  0.00000000000E+00  0.00000000000E+00  0.99999998245E-14  0.12509000000E+03  0.12509000000E+03 0.  0.
        -13    1    3    3    0    0 -0.29715434352E+02  0.39686105562E+02 -0.54406530093E+01  0.49875904829E+02  0.10566000000E+00 0.  1.
         23    2    1    0    0    0 -0.23342928925E+02 -0.30724900223E+01 -0.18621694569E+02  0.95071671693E+02  0.90208218717E+02 0.  0.
         13    1    3    3    0    0  0.63725054266E+01 -0.42758595584E+02 -0.13181041560E+02  0.45195766863E+02  0.10566000000E+00 0. -1.
         22    1    1    0    0    0  0.23342928925E+02  0.30724900223E+01  0.18621694569E+02  0.30018328307E+02  0.00000000000E+00 0.  1.
</event>
<event>
 5    1  0.2377303E-009  0.9118800E+02  0.7815553E-02  0.1125453E+00
         25   -1    0    0    0    0  0.00000000000E+00  0.00000000000E+00  0.99999998245E-14  0.12509000000E+03  0.12509000000E+03 0.  0.
        -13    1    3    3    0    0 -0.10054096233E+02 -0.46342262524E+01 -0.51937752899E+02  0.53104634866E+02  0.10566000000E+00 0.  1.
         23    2    1    0    0    0 -0.25870638792E+02  0.36185153716E+01 -0.13050489125E+02  0.95888991946E+02  0.91334549350E+02 0.  0.
         13    1    3    3    0    0 -0.15816542559E+02  0.82527416240E+01  0.38887263774E+02  0.42784357080E+02  0.10566000000E+00 0. -1.
         22    1    1    0    0    0  0.25870638792E+02 -0.36185153716E+01  0.13050489125E+02  0.29201008054E+02  0.00000000000E+00 0. -1.
</event>
<event>
 5    1  0.2377303E-009  0.9118800E+02  0.7815553E-02  0.1125453E+00
         25   -1    0    0    0    0  0.00000000000E+00  0.00000000000E+00  0.99999998245E-14  0.12509000000E+03  0.12509000000E+03 0.  0.
        -13    1    3    3    0    0  0.25341344106E+02  0.81785124941E+00  0.35031989518E+02  0.43244699737E+02  0.10566000000E+00 0.  1.
         23    2    1    0    0    0 -0.14131840123E+02 -0.17268477035E+02 -0.49109106138E+01  0.10224210628E+03  0.99656520355E+02 0.  0.
         13    1    3    3    0    0 -0.39473184228E+02 -0.18086328284E+02 -0.39942900131E+02  0.58997406544E+02  0.10566000000E+00 0. -1.
         22    1    1    0    0    0  0.14131840123E+02  0.17268477035E+02  0.49109106138E+01  0.22847893719E+02  0.00000000000E+00 0. -1.
</event>
<event>
 5    1  0.2377303E-009  0.9118800E+02  0.7815553E-02  0.1125453E+00
         25   -1    0    0    0    0  0.00000000000E+00  0.00000000000E+00  0.99999998245E-14  0.12509000000E+03  0.12509000000E+03 0.  0.
        -13    1    3    3    0    0  0.32948392537E+02 -0.46282586716E+02 -0.22457668610E+00  0.56813167511E+02  0.10566000000E+00 0. -1.
         23    2    1    0    0    0  0.23666844677E+02 -0.15074491822E+02  0.15568440012E+02  0.93000497588E+02  0.87288924764E+02 0.  0.
         13    1    3    3    0    0 -0.92815478599E+01  0.31208094894E+02  0.15793016698E+02  0.36187330077E+02  0.10566000000E+00 0.  1.
         22    1    1    0    0    0 -0.23666844677E+02  0.15074491822E+02 -0.15568440012E+02  0.32089502412E+02  0.00000000000E+00 0. -1.
</event>
<event>
 5    1  0.2377303E-009  0.9118800E+02  0.7815553E-02  0.1125453E+00
         25   -1    0    0    0    0  0.00000000000E+00  0.00000000000E+00  0.99999998245E-14  0.12509000000E+03  0.12509000000E+03 0.  0.
        -13    1    3    3    0    0 -0.42698022620E+01  0.16533180466E+02 -0.33095888584E+02  0.37241459059E+02  0.10566000000E+00 0.  1.
         23    2    1    0    0    0 -0.12103959309E+02  0.57219169947E+01  0.24934745823E+02  0.96788273652E+02  0.92557993724E+02 0.  0.
         13    1    3    3    0    0 -0.78341570473E+01 -0.10811263472E+02  0.58030634406E+02  0.59546814593E+02  0.10566000000E+00 0. -1.
         22    1    1    0    0    0  0.12103959309E+02 -0.57219169947E+01 -0.24934745823E+02  0.28301726348E+02  0.00000000000E+00 0. -1.
</event>
<event>
 5    1  0.2377303E-009  0.9118800E+02  0.7815553E-02  0.1125453E+00
         25   -1    0    0    0    0  0.00000000000E+00  0.00000000000E+00  0.99999998245E-14  0.12509000000E+03  0.12509000000E+03 0.  0.
        -13    1    3    3    0    0  0.87304496152E+01 -0.36344672177E+01  0.32968931143E+02  0.34298566838E+02  0.10566000000E+00 0.  1.
         23    2    1    0    0    0 -0.27704817632E+01 -0.10777189633E+02 -0.27057918349E+02  0.95833302801E+02  0.91258246722E+02 0.  0.
         13    1    3    3    0    0 -0.11500931378E+02 -0.71427224155E+01 -0.60026849492E+02  0.61534735963E+02  0.10566000000E+00 0. -1.
         22    1    1    0    0    0  0.27704817632E+01  0.10777189633E+02  0.27057918349E+02  0.29256697199E+02  0.00000000000E+00 0. -1.
</event>
<event>
 5    1  0.2377303E-009  0.9118800E+02  0.7815553E-02  0.1125453E+00
         25   -1    0    0    0    0  0.00000000000E+00  0.00000000000E+00  0.99999998245E-14  0.12509000000E+03  0.12509000000E+03 0.  0.
        -13    1    3    3    0    0  0.45662114122E+02 -0.18547324088E+02  0.14895224042E+02  0.51486996031E+02  0.10566000000E+00 0. -1.
         23    2    1    0    0    0  0.30291240623E+01 -0.28196771726E+02  0.52762648388E+01  0.96244333098E+02  0.91819927872E+02 0.  0.
         13    1    3    3    0    0 -0.42632990060E+02 -0.96494476381E+01 -0.96189592033E+01  0.44757337067E+02  0.10566000000E+00 0.  1.
         22    1    1    0    0    0 -0.30291240623E+01  0.28196771726E+02 -0.52762648388E+01  0.28845666902E+02  0.00000000000E+00 0. -1.
</event>
<event>
 5    1  0.2377303E-009  0.9118800E+02  0.7815553E-02  0.1125453E+00
         25   -1    0    0    0    0  0.00000000000E+00  0.00000000000E+00  0.99999998245E-14  0.12509000000E+03  0.12509000000E+03 0.  0.
        -13    1    3    3    0    0  0.33318074971E+02 -0.10963945488E+02 -0.10303893602E+02  0.36557948628E+02  0.10566000000E+00 0.  1.
         23    2    1    0    0    0 -0.94250948004E+01  0.40021321921E+01  0.27623583198E+02  0.95629656778E+02  0.90978675703E+02 0.  0.
         13    1    3    3    0    0 -0.42743169772E+02  0.14966077680E+02  0.37927476800E+02  0.59071708150E+02  0.10566000000E+00 0. -1.
         22    1    1    0    0    0  0.94250948004E+01 -0.40021321921E+01 -0.27623583198E+02  0.29460343222E+02  0.00000000000E+00 0. -1.
</event>
<event>
 5    1  0.2377303E-009  0.9118800E+02  0.7815553E-02  0.1125453E+00
         25   -1    0    0    0    0  0.00000000000E+00  0.00000000000E+00  0.99999998245E-14  0.12509000000E+03  0.12509000000E+03 0.  0.
        -13    1    3    3    0    0 -0.39069881468E+02 -0.20929940380E+02 -0.16368882837E+02  0.47249016197E+02  0.10566000000E+00 0. -1.
         23    2    1    0    0    0  0.46662005045E+01 -0.30191621277E+01 -0.28508555921E+02  0.96044750340E+02  0.91547624437E+02 0.  0.
         13    1    3    3    0    0  0.43736081972E+02  0.17910778253E+02 -0.12139673085E+02  0.48795734143E+02  0.10566000000E+00 0.  1.
         22    1    1    0    0    0 -0.46662005045E+01  0.30191621277E+01  0.28508555921E+02  0.29045249660E+02  0.00000000000E+00 0. -1.
</event>
<event>
 5    1  0.2377303E-009  0.9118800E+02  0.7815553E-02  0.1125453E+00
         25   -1    0    0    0    0  0.00000000000E+00  0.00000000000E+00  0.99999998245E-14  0.12509000000E+03  0.12509000000E+03 0.  0.
        -13    1    3    3    0    0 -0.14327771911E+02  0.51021297892E+02  0.13535961391E+01  0.53012274739E+02  0.10566000000E+00 0.  1.
         23    2    1    0    0    0  0.18087523799E+02  0.20154277482E+02  0.32616052723E+01  0.97813792658E+02  0.93933734873E+02 0.  0.
         13    1    3    3    0    0  0.32415295710E+02 -0.30867020410E+02  0.19080091333E+01  0.44801517918E+02  0.10566000000E+00 0. -1.
         22    1    1    0    0    0 -0.18087523799E+02 -0.20154277482E+02 -0.32616052723E+01  0.27276207342E+02  0.00000000000E+00 0.  1.
</event>
<event>
 5    1  0.2377303E-009  0.9118800E+02  0.7815553E-02  0.1125453E+00
         25   -1    0    0    0    0  0.00000000000E+00  0.00000000000E+00  0.99999998245E-14  0.12509000000E+03  0.12509000000E+03 0.  0.
        -13    1    3    3    0    0  0.19778919658E+02  0.28656512947E+02  0.62246989364E+01  0.35371732189E+02  0.10566000000E+00 0. -1.
         23    2    1    0    0    0 -0.27281649751E+02 -0.42298417936E+01 -0.11089506612E+02  0.95338409594E+02  0.90577343814E+02 0.  0.
         13    1    3    3    0    0 -0.47060569410E+02 -0.32886354740E+02 -0.17314205548E+02  0.59966677406E+02  0.10566000000E+00 0.  1.
         22    1    1    0    0    0  0.27281649751E+02  0.42298417936E+01  0.11089506612E+02  0.29751590406E+02  0.00000000000E+00 0.  1.
</event>
<event>
 5    1  0.2377303E-009  0.9118800E+02  0.7815553E-02  0.1125453E+00
         25   -1    0    0    0    0  0.00000000000E+00  0.00000000000E+00  0.99999998245E-14  0.12509000000E+03  0.12509000000E+03 0.  0.
        -13    1    3    3    0    0  0.34754573753E+02 -0.14845100605E+02 -0.47445404459E+02  0.60657522016E+02  0.10566000000E+00 0.  1.
         23    2    1    0    0    0  0.81930556996E+01 -0.14037539357E+02 -0.24050651877E+02  0.96062211096E+02  0.91571479578E+02 0.  0.
         13    1    3    3    0    0 -0.26561518054E+02  0.80756124734E+00  0.23394752582E+02  0.35404689081E+02  0.10566000000E+00 0. -1.
         22    1    1    0    0    0 -0.81930556996E+01  0.14037539357E+02  0.24050651877E+02  0.29027788904E+02  0.00000000000E+00 0.  1.
</event>
<event>
 5    1  0.2377303E-009  0.9118800E+02  0.7815553E-02  0.1125453E+00
         25   -1    0    0    0    0  0.00000000000E+00  0.00000000000E+00  0.99999998245E-14  0.12509000000E+03  0.12509000000E+03 0.  0.
        -13    1    3    3    0    0 -0.19081278046E+02  0.39377343415E+02  0.64438145494E+01  0.44228997911E+02  0.10566000000E+00 0.  1.
         23    2    1    0    0    0 -0.11842074825E+02  0.15041328080E+02 -0.30514014433E+02  0.89068043316E+02  0.81458793121E+02 0.  0.
         13    1    3    3    0    0  0.72392032207E+01 -0.24336015335E+02 -0.36957828982E+02  0.44839045404E+02  0.10566000000E+00 0. -1.
         22    1    1    0    0    0  0.11842074825E+02 -0.15041328080E+02  0.30514014433E+02  0.36021956684E+02  0.00000000000E+00 0.  1.
</event>
<event>
 5    1  0.2377303E-009  0.9118800E+02  0.7815553E-02  0.1125453E+00
         25   -1    0    0    0    0  0.00000000000E+00  0.00000000000E+00  0.99999998245E-14  0.12509000000E+03  0.12509000000E+03 0.  0.
        -13    1    3    3    0    0  0.47727040138E+02  0.29058897799E+02  0.25934032858E+02  0.61602557787E+02  0.10566000000E+00 0.  1.
         23    2    1    0    0    0  0.21444928843E+02  0.16457632922E+02  0.47284265184E+01  0.97647393131E+02  0.93711881389E+02 0.  0.
         13    1    3    3    0    0 -0.26282111296E+02 -0.12601264877E+02 -0.21205606339E+02  0.36044835343E+02  0.10566000000E+00 0. -1.
         22    1    1    0    0    0 -0.21444928843E+02 -0.16457632922E+02 -0.47284265184E+01  0.27442606869E+02  0.00000000000E+00 0.  1.
</event>
<event>
 5    1  0.2377303E-009  0.9118800E+02  0.7815553E-02  0.1125453E+00
         25   -1    0    0    0    0  0.00000000000E+00  0.00000000000E+00  0.99999998245E-14  0.12509000000E+03  0.12509000000E+03 0.  0.
        -13    1    3    3    0    0 -0.28304934550E+02  0.21647691688E+02  0.43546518349E+02  0.56268128631E+02  0.10566000000E+00 0.  1.
         23    2    1    0    0    0 -0.28379580999E+02 -0.20311700871E+01  0.16563896040E+02  0.92167531660E+02  0.86086961676E+02 0.  0.
         13    1    3    3    0    0 -0.74646449593E-01 -0.23678861775E+02 -0.26982622310E+02  0.35899403029E+02  0.10566000000E+00 0. -1.
         22    1    1    0    0    0  0.28379580999E+02  0.20311700871E+01 -0.16563896040E+02  0.32922468340E+02  0.00000000000E+00 0.  1.
</event>
<event>
 5    1  0.2377303E-009  0.9118800E+02  0.7815553E-02  0.1125453E+00
         25   -1    0    0    0    0  0.00000000000E+00  0.00000000000E+00  0.99999998245E-14  0.12509000000E+03  0.12509000000E+03 0.  0.
        -13    1    3    3    0    0  0.15040420549E+02 -0.47996045869E+02 -0.21098303041E+02  0.54543415960E+02  0.10566000000E+00 0.  1.
         23    2    1    0    0    0  0.24596954281E+02 -0.15530457679E+02  0.26385966676E+01  0.95880969411E+02  0.91323561183E+02 0.  0.
         13    1    3    3    0    0  0.95565337315E+01  0.32465588190E+02  0.23736899708E+02  0.41337553451E+02  0.10566000000E+00 0. -1.
         22    1    1    0    0    0 -0.24596954281E+02  0.15530457679E+02 -0.26385966676E+01  0.29209030589E+02  0.00000000000E+00 0. -1.
</event>
<event>
 5    1  0.2377303E-009  0.9118800E+02  0.7815553E-02  0.1125453E+00
         25   -1    0    0    0    0  0.00000000000E+00  0.00000000000E+00  0.99999998245E-14  0.12509000000E+03  0.12509000000E+03 0.  0.
        -13    1    3    3    0    0 -0.35520840016E+02  0.79433334416E+01  0.40680814215E+02  0.54587236886E+02  0.10566000000E+00 0.  1.
         23    2    1    0    0    0  0.32739472970E+01 -0.49137975430E+00  0.28902055969E+02  0.95998952851E+02  0.91485025684E+02 0.  0.
         13    1    3    3    0    0  0.38794787313E+02 -0.84347131960E+01 -0.11778758246E+02  0.41411715965E+02  0.10566000000E+00 0. -1.
         22    1    1    0    0    0 -0.32739472970E+01  0.49137975430E+00 -0.28902055969E+02  0.29091047149E+02  0.00000000000E+00 0.  1.
</event>
<event>
 5    1  0.2377303E-009  0.9118800E+02  0.7815553E-02  0.1125453E+00
         25   -1    0    0    0    0  0.00000000000E+00  0.00000000000E+00  0.99999998245E-14  0.12509000000E+03  0.12509000000E+03 0.  0.
        -13    1    3    3    0    0  0.23726815091E+02 -0.42054790142E+02 -0.34010600193E+01  0.48406048192E+02  0.10566000000E+00 0. -1.
         23    2    1    0    0    0 -0.18901490056E+02 -0.21932692533E+02  0.30159038710E+01  0.95979778355E+02  0.91458804107E+02 0.  0.
         13    1    3    3    0    0 -0.42628305148E+02  0.20122097610E+02  0.64169638902E+01  0.47573730163E+02  0.10566000000E+00 0.  1.
         22    1    1    0    0    0  0.18901490056E+02  0.21932692533E+02 -0.30159038710E+01  0.29110221645E+02  0.00000000000E+00 0. -1.
</event>
<event>
 5    1  0.2377303E-009  0.9118800E+02  0.7815553E-02  0.1125453E+00
         25   -1    0    0    0    0  0.00000000000E+00  0.00000000000E+00  0.99999998245E-14  0.12509000000E+03  0.12509000000E+03 0.  0.
        -13    1    3    3    0    0  0.19340773028E+02 -0.13788739358E+02  0.24243521993E+02  0.33940453106E+02  0.10566000000E+00 0. -1.
         23    2    1    0    0    0 -0.14541191062E+02  0.26716973045E+02 -0.49362308941E+01  0.94274269250E+02  0.89095614825E+02 0.  0.
         13    1    3    3    0    0 -0.33881964090E+02  0.40505712403E+02 -0.29179752887E+02  0.60333816144E+02  0.10566000000E+00 0.  1.
         22    1    1    0    0    0  0.14541191062E+02 -0.26716973045E+02  0.49362308941E+01  0.30815730750E+02  0.00000000000E+00 0.  1.
</event>
<event>
 5    1  0.2377303E-009  0.9118800E+02  0.7815553E-02  0.1125453E+00
         25   -1    0    0    0    0  0.00000000000E+00  0.00000000000E+00  0.99999998245E-14  0.12509000000E+03  0.12509000000E+03 0.  0.
        -13    1    3    3    0    0 -0.12214412427E+02 -0.25146103895E+02 -0.21080302530E+02  0.35012979462E+02  0.10566000000E+00 0.  1.
         23    2    1    0    0    0 -0.75040898807E+01  0.25997467379E+02  0.11341532643E+02  0.95750435625E+02  0.91144587796E+02 0.  0.
         13    1    3    3    0    0  0.47103225458E+01  0.51143571274E+02  0.32421835172E+02  0.60737456163E+02  0.10566000000E+00 0. -1.
         22    1    1    0    0    0  0.75040898807E+01 -0.25997467379E+02 -0.11341532643E+02  0.29339564375E+02  0.00000000000E+00 0. -1.
</event>
<event>
 5    1  0.2377303E-009  0.9118800E+02  0.7815553E-02  0.1125453E+00
         25   -1    0    0    0    0  0.00000000000E+00  0.00000000000E+00  0.99999998245E-14  0.12509000000E+03  0.12509000000E+03 0.  0.
        -13    1    3    3    0    0 -0.10412883909E+02  0.47898154962E+01  0.37673306007E+02  0.39378415831E+02  0.10566000000E+00 0.  1.
         23    2    1    0    0    0  0.28033478469E+02 -0.95798765048E+01 -0.54326879363E+00  0.95459861798E+02  0.90744917900E+02 0.  0.
         13    1    3    3    0    0  0.38446362377E+02 -0.14369692001E+02 -0.38216574801E+02  0.56081445967E+02  0.10566000000E+00 0. -1.
         22    1    1    0    0    0 -0.28033478469E+02  0.95798765048E+01  0.54326879363E+00  0.29630138202E+02  0.00000000000E+00 0. -1.
</event>
<event>
 5    1  0.2377303E-009  0.9118800E+02  0.7815553E-02  0.1125453E+00
         25   -1    0    0    0    0  0.00000000000E+00  0.00000000000E+00  0.99999998245E-14  0.12509000000E+03  0.12509000000E+03 0.  0.
        -13    1    3    3    0    0  0.43684341887E+02 -0.14123986809E+01  0.23864461156E+02  0.49797994602E+02  0.10566000000E+00 0.  1.
         23    2    1    0    0    0  0.53746903283E+01 -0.25212487928E+02  0.13135231641E+02  0.96157472390E+02  0.91701517668E+02 0.  0.
         13    1    3    3    0    0 -0.38309651559E+02 -0.23800089247E+02 -0.10729229515E+02  0.46359477788E+02  0.10566000000E+00 0. -1.
         22    1    1    0    0    0 -0.53746903283E+01  0.25212487928E+02 -0.13135231641E+02  0.28932527610E+02  0.00000000000E+00 0. -1.
</event>
<event>
 5    1  0.2377303E-009  0.9118800E+02  0.7815553E-02  0.1125453E+00
         25   -1    0    0    0    0  0.00000000000E+00  0.00000000000E+00  0.99999998245E-14  0.12509000000E+03  0.12509000000E+03 0.  0.
        -13    1    3    3    0    0  0.27571367513E+02 -0.14855361071E+02  0.14333886354E+02  0.34443192668E+02  0.10566000000E+00 0.  1.
         23    2    1    0    0    0 -0.27648402275E+02  0.51341648230E-01 -0.87021898717E+01  0.96104401975E+02  0.91629095740E+02 0.  0.
         13    1    3    3    0    0 -0.55219769787E+02  0.14906702720E+02 -0.23036076226E+02  0.61661209307E+02  0.10566000000E+00 0. -1.
         22    1    1    0    0    0  0.27648402275E+02 -0.51341648230E-01  0.87021898717E+01  0.28985598025E+02  0.00000000000E+00 0. -1.
</event>
<event>
 5    1  0.2377303E-009  0.9118800E+02  0.7815553E-02  0.1125453E+00
         25   -1    0    0    0    0  0.00000000000E+00  0.00000000000E+00  0.99999998245E-14  0.12509000000E+03  0.12509000000E+03 0.  0.
        -13    1    3    3    0    0  0.49889285362E+02  0.17441741342E+02  0.22668236711E+02  0.57506654003E+02  0.10566000000E+00 0. -1.
         23    2    1    0    0    0  0.24705363111E+02  0.12492725850E+02 -0.67978166943E+01  0.96583273120E+02  0.92280524322E+02 0.  0.
         13    1    3    3    0    0 -0.25183922251E+02 -0.49490154925E+01 -0.29466053405E+02  0.39076619117E+02  0.10566000000E+00 0.  1.
         22    1    1    0    0    0 -0.24705363111E+02 -0.12492725850E+02  0.67978166943E+01  0.28506726880E+02  0.00000000000E+00 0. -1.
</event>
<event>
 5    1  0.2377303E-009  0.9118800E+02  0.7815553E-02  0.1125453E+00
         25   -1    0    0    0    0  0.00000000000E+00  0.00000000000E+00  0.99999998245E-14  0.12509000000E+03  0.12509000000E+03 0.  0.
        -13    1    3    3    0    0 -0.83804325878E+01  0.35381877554E+02 -0.26291127654E+02  0.44870296043E+02  0.10566000000E+00 0.  1.
         23    2    1    0    0    0  0.26762006588E+02  0.37148869493E+01 -0.17256776858E+02  0.93030653014E+02  0.87332128515E+02 0.  0.
         13    1    3    3    0    0  0.35142439176E+02 -0.31666990605E+02  0.90343507961E+01  0.48160356971E+02  0.10566000000E+00 0. -1.
         22    1    1    0    0    0 -0.26762006588E+02 -0.37148869493E+01  0.17256776858E+02  0.32059346986E+02  0.00000000000E+00 0. -1.
</event>
<event>
 5    1  0.2377303E-009  0.9118800E+02  0.7815553E-02  0.1125453E+00
         25   -1    0    0    0    0  0.00000000000E+00  0.00000000000E+00  0.99999998245E-14  0.12509000000E+03  0.12509000000E+03 0.  0.
        -13    1    3    3    0    0 -0.18276095581E+02  0.51313173724E+02 -0.15048407729E+02  0.56511266191E+02  0.10566000000E+00 0.  1.
         23    2    1    0    0    0  0.45709769436E+01  0.37166341040E+02  0.65923290279E+00  0.87637826171E+02  0.79232084735E+02 0.  0.
         13    1    3    3    0    0  0.22847072524E+02 -0.14146832684E+02  0.15707640632E+02  0.31126559980E+02  0.10566000000E+00 0. -1.
         22    1    1    0    0    0 -0.45709769436E+01 -0.37166341040E+02 -0.65923290279E+00  0.37452173829E+02  0.00000000000E+00 0.  1.
</event>
<event>
 5    1  0.2377303E-009  0.9118800E+02  0.7815553E-02  0.1125453E+00
         25   -1    0    0    0    0  0.00000000000E+00  0.00000000000E+00  0.99999998245E-14  0.12509000000E+03  0.12509000000E+03 0.  0.
        -13    1    3    3    0    0  0.52496981151E+02  0.24200163023E+02  0.22509137094E+02  0.62034291622E+02  0.10566000000E+00 0. -1.
         23    2    1    0    0    0  0.20700782216E+02  0.15615582968E+02  0.88172591342E+01  0.97701811407E+02  0.93784492736E+02 0.  0.
         13    1    3    3    0    0 -0.31796198936E+02 -0.85845800552E+01 -0.13691877959E+02  0.35667519784E+02  0.10566000000E+00 0.  1.
         22    1    1    0    0    0 -0.20700782216E+02 -0.15615582968E+02 -0.88172591342E+01  0.27388188593E+02  0.00000000000E+00 0. -1.
</event>
<event>
 5    1  0.2377303E-009  0.9118800E+02  0.7815553E-02  0.1125453E+00
         25   -1    0    0    0    0  0.00000000000E+00  0.00000000000E+00  0.99999998245E-14  0.12509000000E+03  0.12509000000E+03 0.  0.
        -13    1    3    3    0    0  0.39285912071E+02 -0.14385981197E+02  0.38298221775E+02  0.56719523071E+02  0.10566000000E+00 0.  1.
         23    2    1    0    0    0  0.56577488666E+01 -0.20599495859E+02  0.21355189269E+02  0.94884148571E+02  0.89947808141E+02 0.  0.
         13    1    3    3    0    0 -0.33628163205E+02 -0.62135146618E+01 -0.16943032506E+02  0.38164625499E+02  0.10566000000E+00 0. -1.
         22    1    1    0    0    0 -0.56577488666E+01  0.20599495859E+02 -0.21355189269E+02  0.30205851429E+02  0.00000000000E+00 0.  1.
</event>
<event>
 5    1  0.2377303E-009  0.9118800E+02  0.7815553E-02  0.1125453E+00
         25   -1    0    0    0    0  0.00000000000E+00  0.00000000000E+00  0.99999998245E-14  0.12509000000E+03  0.12509000000E+03 0.  0.
        -13    1    3    3    0    0 -0.45805310228E+02  0.35004752914E+02  0.44422932326E+01  0.57820448847E+02  0.10566000000E+00 0. -1.
         23    2    1    0    0    0 -0.17911010440E+02  0.17234602132E+02  0.18848271295E+02  0.93895559206E+02  0.88562310845E+02 0.  0.
         13    1    3    3    0    0  0.27894299788E+02 -0.17770150782E+02  0.14405978062E+02  0.36075110359E+02  0.10566000000E+00 0.  1.
         22    1    1    0    0    0  0.17911010440E+02 -0.17234602132E+02 -0.18848271295E+02  0.31194440794E+02  0.00000000000E+00 0. -1.
</event>
<event>
 5    1  0.2377303E-009  0.9118800E+02  0.7815553E-02  0.1125453E+00
         25   -1    0    0    0    0  0.00000000000E+00  0.00000000000E+00  0.99999998245E-14  0.12509000000E+03  0.12509000000E+03 0.  0.
        -13    1    3    3    0    0  0.21125270685E+02  0.27353689796E+02  0.47208453651E+02  0.58507697503E+02  0.10566000000E+00 0. -1.
         23    2    1    0    0    0 -0.22567646429E+01  0.11928054591E+02  0.33021908409E+02  0.89907363545E+02  0.82737634191E+02 0.  0.
         13    1    3    3    0    0 -0.23382035328E+02 -0.15425635205E+02 -0.14186545242E+02  0.31399666041E+02  0.10566000000E+00 0.  1.
         22    1    1    0    0    0  0.22567646429E+01 -0.11928054591E+02 -0.33021908409E+02  0.35182636455E+02  0.00000000000E+00 0. -1.
</event>
<event>
 5    1  0.2377303E-009  0.9118800E+02  0.7815553E-02  0.1125453E+00
         25   -1    0    0    0    0  0.00000000000E+00  0.00000000000E+00  0.99999998245E-14  0.12509000000E+03  0.12509000000E+03 0.  0.
        -13    1    3    3    0    0 -0.39202614835E+02 -0.20300778788E+02  0.19071688383E+02  0.48090613337E+02  0.10566000000E+00 0. -1.
         23    2    1    0    0    0  0.65448177906E+01 -0.21225849145E+02  0.21850846819E+02  0.93931841862E+02  0.88613543530E+02 0.  0.
         13    1    3    3    0    0  0.45747432626E+02 -0.92507035746E+00  0.27791584360E+01  0.45841228525E+02  0.10566000000E+00 0.  1.
         22    1    1    0    0    0 -0.65448177906E+01  0.21225849145E+02 -0.21850846819E+02  0.31158158138E+02  0.00000000000E+00 0. -1.
</event>
<event>
 5    1  0.2377303E-009  0.9118800E+02  0.7815553E-02  0.1125453E+00
         25   -1    0    0    0    0  0.00000000000E+00  0.00000000000E+00  0.99999998245E-14  0.12509000000E+03  0.12509000000E+03 0.  0.
        -13    1    3    3    0    0 -0.32391218576E+01 -0.31002093210E+02 -0.34334119573E+02  0.46373102384E+02  0.10566000000E+00 0.  1.
         23    2    1    0    0    0  0.28353418868E+02 -0.12971098135E+02 -0.41618544489E+01  0.93633891201E+02  0.88191942947E+02 0.  0.
         13    1    3    3    0    0  0.31592540725E+02  0.18030995075E+02  0.30172265124E+02  0.47260788817E+02  0.10566000000E+00 0. -1.
         22    1    1    0    0    0 -0.28353418868E+02  0.12971098135E+02  0.41618544489E+01  0.31456108799E+02  0.00000000000E+00 0. -1.
</event>
<event>
 5    1  0.2377303E-009  0.9118800E+02  0.7815553E-02  0.1125453E+00
         25   -1    0    0    0    0  0.00000000000E+00  0.00000000000E+00  0.99999998245E-14  0.12509000000E+03  0.12509000000E+03 0.  0.
        -13    1    3    3    0    0  0.29094141066E+02 -0.17535625408E+02 -0.13177635886E+02  0.36436636157E+02  0.10566000000E+00 0.  1.
         23    2    1    0    0    0 -0.48138135124E+01  0.14678608072E+02  0.24248793616E+02  0.96338681295E+02  0.91948372396E+02 0.  0.
         13    1    3    3    0    0 -0.33907954579E+02  0.32214233480E+02  0.37426429502E+02  0.59902045138E+02  0.10566000000E+00 0. -1.
         22    1    1    0    0    0  0.48138135124E+01 -0.14678608072E+02 -0.24248793616E+02  0.28751318705E+02  0.00000000000E+00 0. -1.
</event>
<event>
 5    1  0.2377303E-009  0.9118800E+02  0.7815553E-02  0.1125453E+00
         25   -1    0    0    0    0  0.00000000000E+00  0.00000000000E+00  0.99999998245E-14  0.12509000000E+03  0.12509000000E+03 0.  0.
        -13    1    3    3    0    0  0.39763070735E+02  0.26044936080E+02 -0.12695170103E+02  0.49199786561E+02  0.10566000000E+00 0.  1.
         23    2    1    0    0    0 -0.51409265833E+01  0.28348905855E+02 -0.11171158400E+02  0.94188796636E+02  0.88975530583E+02 0.  0.
         13    1    3    3    0    0 -0.44903997318E+02  0.23039697755E+01  0.15240117034E+01  0.44989010075E+02  0.10566000000E+00 0. -1.
         22    1    1    0    0    0  0.51409265833E+01 -0.28348905855E+02  0.11171158400E+02  0.30901203364E+02  0.00000000000E+00 0. -1.
</event>
<event>
 5    1  0.2377303E-009  0.9118800E+02  0.7815553E-02  0.1125453E+00
         25   -1    0    0    0    0  0.00000000000E+00  0.00000000000E+00  0.99999998245E-14  0.12509000000E+03  0.12509000000E+03 0.  0.
        -13    1    3    3    0    0 -0.43464398740E+02  0.77270368512E+01 -0.57148460315E+00  0.44149731766E+02  0.10566000000E+00 0.  1.
         23    2    1    0    0    0 -0.67675890017E+01 -0.24579699300E+02  0.15060451906E+02  0.95479544242E+02  0.90772045689E+02 0.  0.
         13    1    3    3    0    0  0.36696809739E+02 -0.32306736151E+02  0.15631936509E+02  0.51329812476E+02  0.10566000000E+00 0. -1.
         22    1    1    0    0    0  0.67675890017E+01  0.24579699300E+02 -0.15060451906E+02  0.29610455758E+02  0.00000000000E+00 0.  1.
</event>
<event>
 5    1  0.2377303E-009  0.9118800E+02  0.7815553E-02  0.1125453E+00
         25   -1    0    0    0    0  0.00000000000E+00  0.00000000000E+00  0.99999998245E-14  0.12509000000E+03  0.12509000000E+03 0.  0.
        -13    1    3    3    0    0  0.39916405566E+01  0.28682022822E+02  0.30304232100E+02  0.41915978751E+02  0.10566000000E+00 0.  1.
         23    2    1    0    0    0  0.48587836494E+01 -0.23776959258E+02  0.14964877368E+02  0.96578614121E+02  0.92274208644E+02 0.  0.
         13    1    3    3    0    0  0.86714309284E+00 -0.52458982079E+02 -0.15339354732E+02  0.54662635370E+02  0.10566000000E+00 0. -1.
         22    1    1    0    0    0 -0.48587836494E+01  0.23776959258E+02 -0.14964877368E+02  0.28511385879E+02  0.00000000000E+00 0.  1.
</event>
<event>
 5    1  0.2377303E-009  0.9118800E+02  0.7815553E-02  0.1125453E+00
         25   -1    0    0    0    0  0.00000000000E+00  0.00000000000E+00  0.99999998245E-14  0.12509000000E+03  0.12509000000E+03 0.  0.
        -13    1    3    3    0    0 -0.46871047666E+02 -0.14883991384E+02 -0.14663255457E+02  0.51317156326E+02  0.10566000000E+00 0.  1.
         23    2    1    0    0    0 -0.90482838279E+01 -0.29510106549E+02 -0.66788235227E+00  0.94216647483E+02  0.89014677258E+02 0.  0.
         13    1    3    3    0    0  0.37822763838E+02 -0.14626115165E+02  0.13995373105E+02  0.42899491157E+02  0.10566000000E+00 0. -1.
         22    1    1    0    0    0  0.90482838279E+01  0.29510106549E+02  0.66788235227E+00  0.30873352517E+02  0.00000000000E+00 0. -1.
</event>
<event>
 5    1  0.2377303E-009  0.9118800E+02  0.7815553E-02  0.1125453E+00
         25   -1    0    0    0    0  0.00000000000E+00  0.00000000000E+00  0.99999998245E-14  0.12509000000E+03  0.12509000000E+03 0.  0.
        -13    1    3    3    0    0  0.43188582011E+02 -0.37532157071E+01  0.11764724844E+02  0.44919485292E+02  0.10566000000E+00 0. -1.
         23    2    1    0    0    0  0.83211910695E+01  0.25781637678E+02 -0.10852761272E+02  0.95905800689E+02  0.91357567374E+02 0.  0.
         13    1    3    3    0    0 -0.34867390941E+02  0.29534853385E+02 -0.22617486116E+02  0.50986315397E+02  0.10566000000E+00 0.  1.
         22    1    1    0    0    0 -0.83211910695E+01 -0.25781637678E+02  0.10852761272E+02  0.29184199311E+02  0.00000000000E+00 0.  1.
</event>
<event>
 5    1  0.2377303E-009  0.9118800E+02  0.7815553E-02  0.1125453E+00
         25   -1    0    0    0    0  0.00000000000E+00  0.00000000000E+00  0.99999998245E-14  0.12509000000E+03  0.12509000000E+03 0.  0.
        -13    1    3    3    0    0 -0.38064371601E+02 -0.95456472765E+01  0.27294490247E+01  0.39337981942E+02  0.10566000000E+00 0. -1.
         23    2    1    0    0    0  0.21292282674E+02 -0.14467395557E+02 -0.30004407233E+01  0.99173413029E+02  0.95727197659E+02 0.  0.
         13    1    3    3    0    0  0.59356654275E+02 -0.49217482807E+01 -0.57298897480E+01  0.59835431087E+02  0.10566000000E+00 0.  1.
         22    1    1    0    0    0 -0.21292282674E+02  0.14467395557E+02  0.30004407233E+01  0.25916586971E+02  0.00000000000E+00 0.  1.
</event>
<event>
 5    1  0.2377303E-009  0.9118800E+02  0.7815553E-02  0.1125453E+00
         25   -1    0    0    0    0  0.00000000000E+00  0.00000000000E+00  0.99999998245E-14  0.12509000000E+03  0.12509000000E+03 0.  0.
        -13    1    3    3    0    0 -0.25520376782E+02 -0.11769534059E+02  0.35309198415E+02  0.45128286249E+02  0.10566000000E+00 0. -1.
         23    2    1    0    0    0  0.21860995672E+02 -0.82084799514E+01  0.17649665069E+02  0.95818974191E+02  0.91238604017E+02 0.  0.
         13    1    3    3    0    0  0.47381372453E+02  0.35610541073E+01 -0.17659533346E+02  0.50690687941E+02  0.10566000000E+00 0.  1.
         22    1    1    0    0    0 -0.21860995672E+02  0.82084799514E+01 -0.17649665069E+02  0.29271025809E+02  0.00000000000E+00 0.  1.
</event>
<event>
 5    1  0.2377303E-009  0.9118800E+02  0.7815553E-02  0.1125453E+00
         25   -1    0    0    0    0  0.00000000000E+00  0.00000000000E+00  0.99999998245E-14  0.12509000000E+03  0.12509000000E+03 0.  0.
        -13    1    3    3    0    0  0.20188253867E+02 -0.74718926290E+00  0.40950720652E+02  0.45662857685E+02  0.10566000000E+00 0. -1.
         23    2    1    0    0    0 -0.20037614294E+02 -0.15363932428E+02  0.14627364728E+02  0.95909249408E+02  0.91362289359E+02 0.  0.
         13    1    3    3    0    0 -0.40225868160E+02 -0.14616743165E+02 -0.26323355925E+02  0.50246391723E+02  0.10566000000E+00 0.  1.
         22    1    1    0    0    0  0.20037614294E+02  0.15363932428E+02 -0.14627364728E+02  0.29180750592E+02  0.00000000000E+00 0.  1.
</event>
<event>
 5    1  0.2377303E-009  0.9118800E+02  0.7815553E-02  0.1125453E+00
         25   -1    0    0    0    0  0.00000000000E+00  0.00000000000E+00  0.99999998245E-14  0.12509000000E+03  0.12509000000E+03 0.  0.
        -13    1    3    3    0    0  0.78002815267E+01 -0.20085465267E+02 -0.45779208796E+02  0.50596614797E+02  0.10566000000E+00 0.  1.
         23    2    1    0    0    0 -0.11421643076E+02  0.13913373666E+02 -0.23252588005E+02  0.95683899506E+02  0.91053225524E+02 0.  0.
         13    1    3    3    0    0 -0.19221924603E+02  0.33998838932E+02  0.22526620791E+02  0.45087284709E+02  0.10566000000E+00 0. -1.
         22    1    1    0    0    0  0.11421643076E+02 -0.13913373666E+02  0.23252588005E+02  0.29406100494E+02  0.00000000000E+00 0.  1.
</event>
<event>
 4    1  0.2377303E-009  0.9118800E+02  0.7815553E-02  0.1125453E+00
         25   -1    0    0    0    0  0.00000000000E+00  0.00000000000E+00  0.99999998245E-14  0.12509000000E+03  0.12509000000E+03 0.  0.
        -13    1    1    0    0    0  0.89729927488E+01 -0.48742150430E+01  0.35947959457E+02  0.37370302705E+02  0.10566000000E+00 0.  1.
         13    1    1    0    0    0 -0.20278295118E+02  0.28986259264E+02  0.80593721974E+01  0.36281911791E+02  0.10566000000E+00 0. -1.
         22    1    1    0    0    0  0.11305302369E+02 -0.24112044221E+02 -0.44007331654E+02  0.51437785503E+02  0.00000000000E+00 0.  1.
</event>
<event>
 5    1  0.2377303E-009  0.9118800E+02  0.7815553E-02  0.1125453E+00
         25   -1    0    0    0    0  0.00000000000E+00  0.00000000000E+00  0.99999998245E-14  0.12509000000E+03  0.12509000000E+03 0.  0.
        -13    1    3    3    0    0 -0.42646204340E+02  0.14325914136E+02 -0.25674926503E+02  0.51799069252E+02  0.10566000000E+00 0. -1.
         23    2    1    0    0    0 -0.93815319677E+01 -0.18841252681E+02 -0.34671233908E+01  0.10375864071E+03  0.10154225048E+03 0.  0.
         13    1    3    3    0    0  0.33264672372E+02 -0.33167166817E+02  0.22207803112E+02  0.51959571455E+02  0.10566000000E+00 0.  1.
         22    1    1    0    0    0  0.93815319677E+01  0.18841252681E+02  0.34671233908E+01  0.21331359292E+02  0.00000000000E+00 0.  1.
</event>
<event>
 5    1  0.2377303E-009  0.9118800E+02  0.7815553E-02  0.1125453E+00
         25   -1    0    0    0    0  0.00000000000E+00  0.00000000000E+00  0.99999998245E-14  0.12509000000E+03  0.12509000000E+03 0.  0.
        -13    1    3    3    0    0  0.35140804312E+02 -0.52884494028E+01 -0.46975849216E+02  0.58903186658E+02  0.10566000000E+00 0. -1.
         23    2    1    0    0    0  0.37713077305E+01  0.34673291613E+01 -0.28059200845E+02  0.96566958690E+02  0.92258406799E+02 0.  0.
         13    1    3    3    0    0 -0.31369496582E+02  0.87557785641E+01  0.18916648372E+02  0.37663772033E+02  0.10566000000E+00 0.  1.
         22    1    1    0    0    0 -0.37713077305E+01 -0.34673291613E+01  0.28059200845E+02  0.28523041310E+02  0.00000000000E+00 0. -1.
</event>
<event>
 5    1  0.2377303E-009  0.9118800E+02  0.7815553E-02  0.1125453E+00
         25   -1    0    0    0    0  0.00000000000E+00  0.00000000000E+00  0.99999998245E-14  0.12509000000E+03  0.12509000000E+03 0.  0.
        -13    1    3    3    0    0 -0.38907790967E+02 -0.25035254460E+02 -0.40705569471E+02  0.61624140674E+02  0.10566000000E+00 0. -1.
         23    2    1    0    0    0 -0.11831836221E+02 -0.95217095008E+01 -0.23074194988E+02  0.97466209990E+02  0.93469718708E+02 0.  0.
         13    1    3    3    0    0  0.27075954747E+02  0.15513544959E+02  0.17631374484E+02  0.35842069316E+02  0.10566000000E+00 0.  1.
         22    1    1    0    0    0  0.11831836221E+02  0.95217095008E+01  0.23074194988E+02  0.27623790010E+02  0.00000000000E+00 0. -1.
</event>
<event>
 5    1  0.2377303E-009  0.9118800E+02  0.7815553E-02  0.1125453E+00
         25   -1    0    0    0    0  0.00000000000E+00  0.00000000000E+00  0.99999998245E-14  0.12509000000E+03  0.12509000000E+03 0.  0.
        -13    1    3    3    0    0  0.27277456171E+02 -0.31795830625E+02  0.31462247151E+02  0.52391970951E+02  0.10566000000E+00 0. -1.
         23    2    1    0    0    0 -0.11567600871E+02 -0.20950018986E+02  0.18779135027E+02  0.94670128241E+02  0.89649676984E+02 0.  0.
         13    1    3    3    0    0 -0.38845057042E+02  0.10845811639E+02 -0.12683112123E+02  0.42278157290E+02  0.10566000000E+00 0.  1.
         22    1    1    0    0    0  0.11567600871E+02  0.20950018986E+02 -0.18779135027E+02  0.30419871759E+02  0.00000000000E+00 0. -1.
</event>
<event>
 5    1  0.2377303E-009  0.9118800E+02  0.7815553E-02  0.1125453E+00
         25   -1    0    0    0    0  0.00000000000E+00  0.00000000000E+00  0.99999998245E-14  0.12509000000E+03  0.12509000000E+03 0.  0.
        -13    1    3    3    0    0  0.81914569185E+01  0.16985110062E+02 -0.31314562609E+02  0.36554164273E+02  0.10566000000E+00 0.  1.
         23    2    1    0    0    0 -0.15927431489E+02  0.14978400884E+02  0.21360667276E+02  0.94523454998E+02  0.89444786720E+02 0.  0.
         13    1    3    3    0    0 -0.24118888408E+02 -0.20067091788E+01  0.52675229885E+02  0.57969290725E+02  0.10566000000E+00 0. -1.
         22    1    1    0    0    0  0.15927431489E+02 -0.14978400884E+02 -0.21360667276E+02  0.30566545002E+02  0.00000000000E+00 0. -1.
</event>
<event>
 5    1  0.2377303E-009  0.9118800E+02  0.7815553E-02  0.1125453E+00
         25   -1    0    0    0    0  0.00000000000E+00  0.00000000000E+00  0.99999998245E-14  0.12509000000E+03  0.12509000000E+03 0.  0.
        -13    1    3    3    0    0  0.86488675788E+01  0.36134816083E+02  0.42457985106E+02  0.56420027535E+02  0.10566000000E+00 0. -1.
         23    2    1    0    0    0 -0.22797496111E+01  0.86053235023E+00  0.29399834555E+02  0.95589355158E+02  0.90923246606E+02 0.  0.
         13    1    3    3    0    0 -0.10928617190E+02 -0.35274283733E+02 -0.13058150551E+02  0.39169327623E+02  0.10566000000E+00 0.  1.
         22    1    1    0    0    0  0.22797496111E+01 -0.86053235023E+00 -0.29399834555E+02  0.29500644842E+02  0.00000000000E+00 0. -1.
</event>
<event>
 5    1  0.2377303E-009  0.9118800E+02  0.7815553E-02  0.1125453E+00
         25   -1    0    0    0    0  0.00000000000E+00  0.00000000000E+00  0.99999998245E-14  0.12509000000E+03  0.12509000000E+03 0.  0.
        -13    1    3    3    0    0 -0.27924987035E+02  0.21906455011E+02  0.45088690562E+02  0.57382042946E+02  0.10566000000E+00 0.  1.
         23    2    1    0    0    0  0.30581698080E+01  0.17619281493E+02  0.24221178972E+02  0.94982575772E+02  0.90084586398E+02 0.  0.
         13    1    3    3    0    0  0.30983156843E+02 -0.42871735181E+01 -0.20867511591E+02  0.37600532825E+02  0.10566000000E+00 0. -1.
         22    1    1    0    0    0 -0.30581698080E+01 -0.17619281493E+02 -0.24221178972E+02  0.30107424228E+02  0.00000000000E+00 0.  1.
</event>
<event>
 5    1  0.2377303E-009  0.9118800E+02  0.7815553E-02  0.1125453E+00
         25   -1    0    0    0    0  0.00000000000E+00  0.00000000000E+00  0.99999998245E-14  0.12509000000E+03  0.12509000000E+03 0.  0.
        -13    1    3    3    0    0 -0.23324616519E+02 -0.19196859520E+02  0.33630876951E+02  0.45206240717E+02  0.10566000000E+00 0. -1.
         23    2    1    0    0    0  0.63467312399E+01 -0.26633146884E+02 -0.77217827337E+01  0.96643006504E+02  0.92361459858E+02 0.  0.
         13    1    3    3    0    0  0.29671347759E+02 -0.74362873638E+01 -0.41352659685E+02  0.51436765787E+02  0.10566000000E+00 0.  1.
         22    1    1    0    0    0 -0.63467312399E+01  0.26633146884E+02  0.77217827337E+01  0.28446993496E+02  0.00000000000E+00 0.  1.
</event>
<event>
 5    1  0.2377303E-009  0.9118800E+02  0.7815553E-02  0.1125453E+00
         25   -1    0    0    0    0  0.00000000000E+00  0.00000000000E+00  0.99999998245E-14  0.12509000000E+03  0.12509000000E+03 0.  0.
        -13    1    3    3    0    0  0.45326927495E+02  0.59781387310E+01 -0.85107161998E+01  0.46504966972E+02  0.10566000000E+00 0.  1.
         23    2    1    0    0    0  0.52244351344E+01 -0.10792724750E+02 -0.28366428859E+02  0.94293378169E+02  0.89122439656E+02 0.  0.
         13    1    3    3    0    0 -0.40102492361E+02 -0.16770863481E+02 -0.19855712659E+02  0.47788411196E+02  0.10566000000E+00 0. -1.
         22    1    1    0    0    0 -0.52244351344E+01  0.10792724750E+02  0.28366428859E+02  0.30796621831E+02  0.00000000000E+00 0. -1.
</event>
<event>
 5    1  0.2377303E-009  0.9118800E+02  0.7815553E-02  0.1125453E+00
         25   -1    0    0    0    0  0.00000000000E+00  0.00000000000E+00  0.99999998245E-14  0.12509000000E+03  0.12509000000E+03 0.  0.
        -13    1    3    3    0    0  0.78042015208E+01  0.30554950229E+02  0.12254008922E+02  0.33833155980E+02  0.10566000000E+00 0. -1.
         23    2    1    0    0    0 -0.15807373466E+02 -0.13764210023E+02 -0.22064958675E+02  0.94656647658E+02  0.89630865281E+02 0.  0.
         13    1    3    3    0    0 -0.23611574987E+02 -0.44319160252E+02 -0.34318967598E+02  0.60823491677E+02  0.10566000000E+00 0.  1.
         22    1    1    0    0    0  0.15807373466E+02  0.13764210023E+02  0.22064958675E+02  0.30433352342E+02  0.00000000000E+00 0.  1.
</event>
<event>
 5    1  0.2377303E-009  0.9118800E+02  0.7815553E-02  0.1125453E+00
         25   -1    0    0    0    0  0.00000000000E+00  0.00000000000E+00  0.99999998245E-14  0.12509000000E+03  0.12509000000E+03 0.  0.
        -13    1    3    3    0    0 -0.37419613088E+02 -0.18971355200E+02 -0.33010137409E+02  0.53383706293E+02  0.10566000000E+00 0. -1.
         23    2    1    0    0    0 -0.16479438737E+02  0.14758117593E+02 -0.20288819029E+02  0.95073169495E+02  0.90210295667E+02 0.  0.
         13    1    3    3    0    0  0.20940174351E+02  0.33729472793E+02  0.12721318381E+02  0.41689463202E+02  0.10566000000E+00 0.  1.
         22    1    1    0    0    0  0.16479438737E+02 -0.14758117593E+02  0.20288819029E+02  0.30016830505E+02  0.00000000000E+00 0.  1.
</event>
<event>
 5    1  0.2377303E-009  0.9118800E+02  0.7815553E-02  0.1125453E+00
         25   -1    0    0    0    0  0.00000000000E+00  0.00000000000E+00  0.99999998245E-14  0.12509000000E+03  0.12509000000E+03 0.  0.
        -13    1    3    3    0    0  0.61841428708E+02  0.67577553623E+00  0.11329149548E+01  0.61855586955E+02  0.10566000000E+00 0. -1.
         23    2    1    0    0    0  0.28826262206E+02 -0.29858207928E-01  0.70735084700E+01  0.95408544403E+02  0.90674150333E+02 0.  0.
         13    1    3    3    0    0 -0.33015166502E+02 -0.70563374416E+00  0.59405935152E+01  0.33552957447E+02  0.10566000000E+00 0.  1.
         22    1    1    0    0    0 -0.28826262206E+02  0.29858207928E-01 -0.70735084700E+01  0.29681455597E+02  0.00000000000E+00 0. -1.
</event>
<event>
 5    1  0.2377303E-009  0.9118800E+02  0.7815553E-02  0.1125453E+00
         25   -1    0    0    0    0  0.00000000000E+00  0.00000000000E+00  0.99999998245E-14  0.12509000000E+03  0.12509000000E+03 0.  0.
        -13    1    3    3    0    0  0.21518449927E+02  0.21750282945E+02 -0.71796198773E+01  0.31427322525E+02  0.10566000000E+00 0.  1.
         23    2    1    0    0    0 -0.27120910127E+02 -0.93636354685E+01  0.14298931098E+02  0.93032538063E+02  0.87334828520E+02 0.  0.
         13    1    3    3    0    0 -0.48639360054E+02 -0.31113918414E+02  0.21478550975E+02  0.61605215538E+02  0.10566000000E+00 0. -1.
         22    1    1    0    0    0  0.27120910127E+02  0.93636354685E+01 -0.14298931098E+02  0.32057461937E+02  0.00000000000E+00 0. -1.
</event>
<event>
 5    1  0.2377303E-009  0.9118800E+02  0.7815553E-02  0.1125453E+00
         25   -1    0    0    0    0  0.00000000000E+00  0.00000000000E+00  0.99999998245E-14  0.12509000000E+03  0.12509000000E+03 0.  0.
        -13    1    3    3    0    0 -0.24103145062E+02 -0.21285715535E+02 -0.24767247983E+02  0.40589050548E+02  0.10566000000E+00 0.  1.
         23    2    1    0    0    0 -0.15476799143E+02  0.23207944970E+02  0.74759784208E+01  0.96210417683E+02  0.91773711900E+02 0.  0.
         13    1    3    3    0    0  0.86263459186E+01  0.44493660505E+02  0.32243226404E+02  0.55621367135E+02  0.10566000000E+00 0. -1.
         22    1    1    0    0    0  0.15476799143E+02 -0.23207944970E+02 -0.74759784208E+01  0.28879582317E+02  0.00000000000E+00 0. -1.
</event>
<event>
 5    1  0.2377303E-009  0.9118800E+02  0.7815553E-02  0.1125453E+00
         25   -1    0    0    0    0  0.00000000000E+00  0.00000000000E+00  0.99999998245E-14  0.12509000000E+03  0.12509000000E+03 0.  0.
        -13    1    3    3    0    0  0.41005039392E+01  0.34245039527E+02  0.22834222005E+00  0.34490580873E+02  0.10566000000E+00 0.  1.
         23    2    1    0    0    0  0.84894173966E+01 -0.27457485091E+02 -0.92031617429E-01  0.96349920580E+02  0.91963661468E+02 0.  0.
         13    1    3    3    0    0  0.43889134574E+01 -0.61702524618E+02 -0.32037383748E+00  0.61859339707E+02  0.10566000000E+00 0. -1.
         22    1    1    0    0    0 -0.84894173966E+01  0.27457485091E+02  0.92031617429E-01  0.28740079420E+02  0.00000000000E+00 0. -1.
</event>
<event>
 5    1  0.2377303E-009  0.9118800E+02  0.7815553E-02  0.1125453E+00
         25   -1    0    0    0    0  0.00000000000E+00  0.00000000000E+00  0.99999998245E-14  0.12509000000E+03  0.12509000000E+03 0.  0.
        -13    1    3    3    0    0 -0.16587756978E+02  0.48731210296E+02 -0.46836918053E+01  0.51689773374E+02  0.10566000000E+00 0.  1.
         23    2    1    0    0    0 -0.23416248859E+02  0.13197654982E+02  0.16433611435E+02  0.93585041780E+02  0.88122628493E+02 0.  0.
         13    1    3    3    0    0 -0.68284918811E+01 -0.35533555314E+02  0.21117303240E+02  0.41895268406E+02  0.10566000000E+00 0. -1.
         22    1    1    0    0    0  0.23416248859E+02 -0.13197654982E+02 -0.16433611435E+02  0.31504958220E+02  0.00000000000E+00 0.  1.
</event>
<event>
 5    1  0.2377303E-009  0.9118800E+02  0.7815553E-02  0.1125453E+00
         25   -1    0    0    0    0  0.00000000000E+00  0.00000000000E+00  0.99999998245E-14  0.12509000000E+03  0.12509000000E+03 0.  0.
        -13    1    3    3    0    0  0.34563845539E+02 -0.31317189991E+00  0.12765563825E+02  0.36847364613E+02  0.10566000000E+00 0.  1.
         23    2    1    0    0    0 -0.78434639362E+01  0.27914480271E+01 -0.28076076439E+02  0.95805564257E+02  0.91220216870E+02 0.  0.
         13    1    3    3    0    0 -0.42407309475E+02  0.31046199270E+01 -0.40841640264E+02  0.58958199644E+02  0.10566000000E+00 0. -1.
         22    1    1    0    0    0  0.78434639362E+01 -0.27914480271E+01  0.28076076439E+02  0.29284435743E+02  0.00000000000E+00 0. -1.
</event>
<event>
 5    1  0.2377303E-009  0.9118800E+02  0.7815553E-02  0.1125453E+00
         25   -1    0    0    0    0  0.00000000000E+00  0.00000000000E+00  0.99999998245E-14  0.12509000000E+03  0.12509000000E+03 0.  0.
        -13    1    3    3    0    0 -0.16399762681E+02  0.41755588007E+02 -0.11436586478E+01  0.44875388187E+02  0.10566000000E+00 0. -1.
         23    2    1    0    0    0 -0.12177771362E+02  0.69108837016E+00 -0.28290089170E+02  0.94282454435E+02  0.89107106061E+02 0.  0.
         13    1    3    3    0    0  0.42219913195E+01 -0.41064499637E+02 -0.27146430523E+02  0.49407066248E+02  0.10566000000E+00 0.  1.
         22    1    1    0    0    0  0.12177771362E+02 -0.69108837016E+00  0.28290089170E+02  0.30807545565E+02  0.00000000000E+00 0.  1.
</event>
<event>
 5    1  0.2377303E-009  0.9118800E+02  0.7815553E-02  0.1125453E+00
         25   -1    0    0    0    0  0.00000000000E+00  0.00000000000E+00  0.99999998245E-14  0.12509000000E+03  0.12509000000E+03 0.  0.
        -13    1    3    3    0    0 -0.13377423841E+02 -0.25189802637E+02 -0.50082197849E+02  0.57634358944E+02  0.10566000000E+00 0. -1.
         23    2    1    0    0    0  0.87923736926E+01 -0.20479571294E+02 -0.21384511077E+02  0.94202850738E+02  0.88995286940E+02 0.  0.
         13    1    3    3    0    0  0.22169797534E+02  0.47102313430E+01  0.28697686771E+02  0.36568491793E+02  0.10566000000E+00 0.  1.
         22    1    1    0    0    0 -0.87923736926E+01  0.20479571294E+02  0.21384511077E+02  0.30887149262E+02  0.00000000000E+00 0. -1.
</event>
<event>
 5    1  0.2377303E-009  0.9118800E+02  0.7815553E-02  0.1125453E+00
         25   -1    0    0    0    0  0.00000000000E+00  0.00000000000E+00  0.99999998245E-14  0.12509000000E+03  0.12509000000E+03 0.  0.
        -13    1    3    3    0    0  0.28806551263E+01  0.66352828660E+01  0.39160211179E+02  0.39822838376E+02  0.10566000000E+00 0. -1.
         23    2    1    0    0    0 -0.75089260024E+01 -0.28184084462E+02 -0.33322466756E+01  0.95733051001E+02  0.91120725410E+02 0.  0.
         13    1    3    3    0    0 -0.10389581129E+02 -0.34819367328E+02 -0.42492457855E+02  0.55910212625E+02  0.10566000000E+00 0.  1.
         22    1    1    0    0    0  0.75089260024E+01  0.28184084462E+02  0.33322466756E+01  0.29356948999E+02  0.00000000000E+00 0.  1.
</event>
<event>
 5    1  0.2377303E-009  0.9118800E+02  0.7815553E-02  0.1125453E+00
         25   -1    0    0    0    0  0.00000000000E+00  0.00000000000E+00  0.99999998245E-14  0.12509000000E+03  0.12509000000E+03 0.  0.
        -13    1    3    3    0    0 -0.19711783172E+02 -0.32145248518E+02  0.11317590705E+02  0.39369663721E+02  0.10566000000E+00 0. -1.
         23    2    1    0    0    0 -0.57441807545E+01  0.21445402432E+02  0.19733160857E+02  0.95386489510E+02  0.90643719284E+02 0.  0.
         13    1    3    3    0    0  0.13967602417E+02  0.53590650950E+02  0.84155701520E+01  0.56016825789E+02  0.10566000000E+00 0.  1.
         22    1    1    0    0    0  0.57441807545E+01 -0.21445402432E+02 -0.19733160857E+02  0.29703510490E+02  0.00000000000E+00 0.  1.
</event>
<event>
 5    1  0.2377303E-009  0.9118800E+02  0.7815553E-02  0.1125453E+00
         25   -1    0    0    0    0  0.00000000000E+00  0.00000000000E+00  0.99999998245E-14  0.12509000000E+03  0.12509000000E+03 0.  0.
        -13    1    3    3    0    0  0.13865864935E+02 -0.53742794626E+01 -0.15227349814E+02  0.21284464676E+02  0.10566000000E+00 0. -1.
         23    2    1    0    0    0  0.31288755513E+02  0.36881838698E+02  0.13002774681E+02  0.75006785280E+02  0.55836273527E+02 0.  0.
         13    1    3    3    0    0  0.17422890577E+02  0.42256118161E+02  0.28230124495E+02  0.53722320604E+02  0.10566000000E+00 0.  1.
         22    1    1    0    0    0 -0.31288755513E+02 -0.36881838698E+02 -0.13002774681E+02  0.50083214720E+02  0.00000000000E+00 0.  1.
</event>
<event>
 5    1  0.2377303E-009  0.9118800E+02  0.7815553E-02  0.1125453E+00
         25   -1    0    0    0    0  0.00000000000E+00  0.00000000000E+00  0.99999998245E-14  0.12509000000E+03  0.12509000000E+03 0.  0.
        -13    1    3    3    0    0  0.74545436030E+01 -0.72887042495E+00  0.33862165462E+02  0.34680814382E+02  0.10566000000E+00 0.  1.
         23    2    1    0    0    0  0.99179668618E+01 -0.19709827341E+02 -0.22121298912E+02  0.93845876936E+02  0.88492109206E+02 0.  0.
         13    1    3    3    0    0  0.24634232587E+01 -0.18980956916E+02 -0.55983464374E+02  0.59165062553E+02  0.10566000000E+00 0. -1.
         22    1    1    0    0    0 -0.99179668618E+01  0.19709827341E+02  0.22121298912E+02  0.31244123064E+02  0.00000000000E+00 0. -1.
</event>
<event>
 5    1  0.2377303E-009  0.9118800E+02  0.7815553E-02  0.1125453E+00
         25   -1    0    0    0    0  0.00000000000E+00  0.00000000000E+00  0.99999998245E-14  0.12509000000E+03  0.12509000000E+03 0.  0.
        -13    1    3    3    0    0 -0.53816522533E+02  0.11231886867E+01  0.31564351561E+02  0.62400313332E+02  0.10566000000E+00 0.  1.
         23    2    1    0    0    0 -0.24049254729E+02  0.11967414073E+01  0.17501761893E+02  0.95322391557E+02  0.90555219727E+02 0.  0.
         13    1    3    3    0    0  0.29767267803E+02  0.73552720526E-01 -0.14062589669E+02  0.32922078226E+02  0.10566000000E+00 0. -1.
         22    1    1    0    0    0  0.24049254729E+02 -0.11967414073E+01 -0.17501761893E+02  0.29767608443E+02  0.00000000000E+00 0.  1.
</event>
<event>
 5    1  0.2377303E-009  0.9118800E+02  0.7815553E-02  0.1125453E+00
         25   -1    0    0    0    0  0.00000000000E+00  0.00000000000E+00  0.99999998245E-14  0.12509000000E+03  0.12509000000E+03 0.  0.
        -13    1    3    3    0    0 -0.30555072757E+02 -0.21808097376E+02  0.10933405285E+02  0.39099310704E+02  0.10566000000E+00 0.  1.
         23    2    1    0    0    0  0.86031761921E+01  0.16594433361E+02  0.23196106438E+02  0.95299914182E+02  0.90524164896E+02 0.  0.
         13    1    3    3    0    0  0.39158248949E+02  0.38402530737E+02  0.12262701153E+02  0.56200603479E+02  0.10566000000E+00 0. -1.
         22    1    1    0    0    0 -0.86031761921E+01 -0.16594433361E+02 -0.23196106438E+02  0.29790085818E+02  0.00000000000E+00 0. -1.
</event>
<event>
 5    1  0.2377303E-009  0.9118800E+02  0.7815553E-02  0.1125453E+00
         25   -1    0    0    0    0  0.00000000000E+00  0.00000000000E+00  0.99999998245E-14  0.12509000000E+03  0.12509000000E+03 0.  0.
        -13    1    3    3    0    0  0.38472580777E+02  0.12656566289E+02 -0.42602306459E+02  0.58781764362E+02  0.10566000000E+00 0. -1.
         23    2    1    0    0    0  0.24292530766E+02  0.14231540724E+02 -0.86073870884E+01  0.95649366262E+02  0.91005770979E+02 0.  0.
         13    1    3    3    0    0 -0.14180050011E+02  0.15749744344E+01  0.33994919370E+02  0.36867601899E+02  0.10566000000E+00 0.  1.
         22    1    1    0    0    0 -0.24292530766E+02 -0.14231540724E+02  0.86073870884E+01  0.29440633738E+02  0.00000000000E+00 0. -1.
</event>
<event>
 5    1  0.2377303E-009  0.9118800E+02  0.7815553E-02  0.1125453E+00
         25   -1    0    0    0    0  0.00000000000E+00  0.00000000000E+00  0.99999998245E-14  0.12509000000E+03  0.12509000000E+03 0.  0.
        -13    1    3    3    0    0  0.18371863025E+01 -0.75541102091E+01 -0.42244420692E+02  0.42953952998E+02  0.10566000000E+00 0.  1.
         23    2    1    0    0    0 -0.22289733987E+02 -0.19246865363E+02  0.29399458945E+01  0.95494099112E+02  0.90792101065E+02 0.  0.
         13    1    3    3    0    0 -0.24126920290E+02 -0.11692755154E+02  0.45184366586E+02  0.52540146113E+02  0.10566000000E+00 0. -1.
         22    1    1    0    0    0  0.22289733987E+02  0.19246865363E+02 -0.29399458945E+01  0.29595900888E+02  0.00000000000E+00 0. -1.
</event>
<event>
 5    1  0.2377303E-009  0.9118800E+02  0.7815553E-02  0.1125453E+00
         25   -1    0    0    0    0  0.00000000000E+00  0.00000000000E+00  0.99999998245E-14  0.12509000000E+03  0.12509000000E+03 0.  0.
        -13    1    3    3    0    0  0.33078512138E+02 -0.15831172021E+02  0.46454680016E+02  0.59184984855E+02  0.10566000000E+00 0.  1.
         23    2    1    0    0    0  0.39245734565E+01 -0.14676742727E+02  0.26536047114E+02  0.94512706949E+02  0.89429754134E+02 0.  0.
         13    1    3    3    0    0 -0.29153938682E+02  0.11544292944E+01 -0.19918632901E+02  0.35327722094E+02  0.10566000000E+00 0. -1.
         22    1    1    0    0    0 -0.39245734565E+01  0.14676742727E+02 -0.26536047114E+02  0.30577293051E+02  0.00000000000E+00 0.  1.
</event>
<event>
 5    1  0.2377303E-009  0.9118800E+02  0.7815553E-02  0.1125453E+00
         25   -1    0    0    0    0  0.00000000000E+00  0.00000000000E+00  0.99999998245E-14  0.12509000000E+03  0.12509000000E+03 0.  0.
        -13    1    3    3    0    0 -0.34673103268E+01  0.43642307345E+02 -0.59111479905E+01  0.44177212066E+02  0.10566000000E+00 0.  1.
         23    2    1    0    0    0  0.12927728535E+02 -0.99726956440E+00 -0.26182553685E+02  0.95872764861E+02  0.91312322350E+02 0.  0.
         13    1    3    3    0    0  0.16395038862E+02 -0.44639576910E+02 -0.20271405695E+02  0.51695552795E+02  0.10566000000E+00 0. -1.
         22    1    1    0    0    0 -0.12927728535E+02  0.99726956440E+00  0.26182553685E+02  0.29217235139E+02  0.00000000000E+00 0.  1.
</event>
<event>
 5    1  0.2377303E-009  0.9118800E+02  0.7815553E-02  0.1125453E+00
         25   -1    0    0    0    0  0.00000000000E+00  0.00000000000E+00  0.99999998245E-14  0.12509000000E+03  0.12509000000E+03 0.  0.
        -13    1    3    3    0    0 -0.10980417891E+02 -0.21780844662E+02  0.44765013856E+02  0.50979333076E+02  0.10566000000E+00 0.  1.
         23    2    1    0    0    0 -0.26746269745E+02  0.34029944013E+01  0.10960357979E+02  0.95985485518E+02  0.91466609574E+02 0.  0.
         13    1    3    3    0    0 -0.15765851854E+02  0.25183839063E+02 -0.33804655877E+02  0.45006152442E+02  0.10566000000E+00 0. -1.
         22    1    1    0    0    0  0.26746269745E+02 -0.34029944013E+01 -0.10960357979E+02  0.29104514482E+02  0.00000000000E+00 0.  1.
</event>
<event>
 5    1  0.2377303E-009  0.9118800E+02  0.7815553E-02  0.1125453E+00
         25   -1    0    0    0    0  0.00000000000E+00  0.00000000000E+00  0.99999998245E-14  0.12509000000E+03  0.12509000000E+03 0.  0.
        -13    1    3    3    0    0  0.12304109567E+02 -0.93302864176E+01  0.30992271946E+02  0.34626253642E+02  0.10566000000E+00 0.  1.
         23    2    1    0    0    0 -0.35157388306E+01 -0.19232206347E+02 -0.24830500110E+02  0.93486330653E+02  0.87982396550E+02 0.  0.
         13    1    3    3    0    0 -0.15819848397E+02 -0.99019199291E+01 -0.55822772056E+02  0.58860077011E+02  0.10566000000E+00 0. -1.
         22    1    1    0    0    0  0.35157388306E+01  0.19232206347E+02  0.24830500110E+02  0.31603669347E+02  0.00000000000E+00 0. -1.
</event>
<event>
 5    1  0.2377303E-009  0.9118800E+02  0.7815553E-02  0.1125453E+00
         25   -1    0    0    0    0  0.00000000000E+00  0.00000000000E+00  0.99999998245E-14  0.12509000000E+03  0.12509000000E+03 0.  0.
        -13    1    3    3    0    0 -0.37156636503E+02  0.17214386884E+02  0.31633852839E+02  0.51746135716E+02  0.10566000000E+00 0.  1.
         23    2    1    0    0    0 -0.13468490042E+02  0.26062418562E+02 -0.40433138291E+01  0.95475843385E+02  0.90766945515E+02 0.  0.
         13    1    3    3    0    0  0.23688146461E+02  0.88480316775E+01 -0.35677166668E+02  0.43729707669E+02  0.10566000000E+00 0. -1.
         22    1    1    0    0    0  0.13468490042E+02 -0.26062418562E+02  0.40433138291E+01  0.29614156615E+02  0.00000000000E+00 0. -1.
</event>
<event>
 5    1  0.2377303E-009  0.9118800E+02  0.7815553E-02  0.1125453E+00
         25   -1    0    0    0    0  0.00000000000E+00  0.00000000000E+00  0.99999998245E-14  0.12509000000E+03  0.12509000000E+03 0.  0.
        -13    1    3    3    0    0 -0.18664142137E+02  0.89875802477E+01 -0.32781955832E+02  0.38778790500E+02  0.10566000000E+00 0.  1.
         23    2    1    0    0    0 -0.27294205214E+01  0.23950978265E+02  0.18616385343E+02  0.94632342515E+02  0.89596938287E+02 0.  0.
         13    1    3    3    0    0  0.15934721616E+02  0.14963398017E+02  0.51398341175E+02  0.55853552015E+02  0.10566000000E+00 0. -1.
         22    1    1    0    0    0  0.27294205214E+01 -0.23950978265E+02 -0.18616385343E+02  0.30457657485E+02  0.00000000000E+00 0. -1.
</event>
<event>
 5    1  0.2377303E-009  0.9118800E+02  0.7815553E-02  0.1125453E+00
         25   -1    0    0    0    0  0.00000000000E+00  0.00000000000E+00  0.99999998245E-14  0.12509000000E+03  0.12509000000E+03 0.  0.
        -13    1    3    3    0    0  0.17553665241E+02 -0.32998787518E+02  0.18862690990E+02  0.41867211711E+02  0.10566000000E+00 0. -1.
         23    2    1    0    0    0 -0.82322490603E+01 -0.17450892032E+02 -0.24028956689E+02  0.94272889219E+02  0.89093677244E+02 0.  0.
         13    1    3    3    0    0 -0.25785914302E+02  0.15547895486E+02 -0.42891647679E+02  0.52405677508E+02  0.10566000000E+00 0.  1.
         22    1    1    0    0    0  0.82322490603E+01  0.17450892032E+02  0.24028956689E+02  0.30817110781E+02  0.00000000000E+00 0.  1.
</event>
<event>
 5    1  0.2377303E-009  0.9118800E+02  0.7815553E-02  0.1125453E+00
         25   -1    0    0    0    0  0.00000000000E+00  0.00000000000E+00  0.99999998245E-14  0.12509000000E+03  0.12509000000E+03 0.  0.
        -13    1    3    3    0    0 -0.36616021571E+02  0.34431532712E+02 -0.35995927907E+01  0.50390789961E+02  0.10566000000E+00 0. -1.
         23    2    1    0    0    0 -0.44088266636E+01  0.16441317714E+02  0.23433545404E+02  0.96126475854E+02  0.91659225554E+02 0.  0.
         13    1    3    3    0    0  0.32207194907E+02 -0.17990214998E+02  0.27033138195E+02  0.45735685894E+02  0.10566000000E+00 0.  1.
         22    1    1    0    0    0  0.44088266636E+01 -0.16441317714E+02 -0.23433545404E+02  0.28963524146E+02  0.00000000000E+00 0.  1.
</event>
<event>
 5    1  0.2377303E-009  0.9118800E+02  0.7815553E-02  0.1125453E+00
         25   -1    0    0    0    0  0.00000000000E+00  0.00000000000E+00  0.99999998245E-14  0.12509000000E+03  0.12509000000E+03 0.  0.
        -13    1    3    3    0    0 -0.10518441924E+02  0.55315583087E+02  0.28641182824E+01  0.56379656706E+02  0.10566000000E+00 0.  1.
         23    2    1    0    0    0 -0.22748642610E+02  0.18423622844E+02 -0.29083857594E+01  0.95672499647E+02  0.91037562916E+02 0.  0.
         13    1    3    3    0    0 -0.12230200686E+02 -0.36891960243E+02 -0.57725040418E+01  0.39292842940E+02  0.10566000000E+00 0. -1.
         22    1    1    0    0    0  0.22748642610E+02 -0.18423622844E+02  0.29083857594E+01  0.29417500353E+02  0.00000000000E+00 0.  1.
</event>
<event>
 5    1  0.2377303E-009  0.9118800E+02  0.7815553E-02  0.1125453E+00
         25   -1    0    0    0    0  0.00000000000E+00  0.00000000000E+00  0.99999998245E-14  0.12509000000E+03  0.12509000000E+03 0.  0.
        -13    1    3    3    0    0 -0.25183878843E+02  0.21972291764E+02 -0.47052204695E+02  0.57714213931E+02  0.10566000000E+00 0.  1.
         23    2    1    0    0    0 -0.14871846798E+02 -0.66117229765E+01 -0.24995669610E+02  0.95262660072E+02  0.90472670994E+02 0.  0.
         13    1    3    3    0    0  0.10312032045E+02 -0.28584014741E+02  0.22056535085E+02  0.37548446141E+02  0.10566000000E+00 0. -1.
         22    1    1    0    0    0  0.14871846798E+02  0.66117229765E+01  0.24995669610E+02  0.29827339928E+02  0.00000000000E+00 0.  1.
</event>
<event>
 5    1  0.2377303E-009  0.9118800E+02  0.7815553E-02  0.1125453E+00
         25   -1    0    0    0    0  0.00000000000E+00  0.00000000000E+00  0.99999998245E-14  0.12509000000E+03  0.12509000000E+03 0.  0.
        -13    1    3    3    0    0  0.60841404708E+02 -0.77905086630E+00 -0.82870395221E+00  0.60852127008E+02  0.10566000000E+00 0. -1.
         23    2    1    0    0    0  0.30824128955E+02 -0.72630610463E+01  0.72409800759E+01  0.92604452844E+02  0.86719512870E+02 0.  0.
         13    1    3    3    0    0 -0.30017275753E+02 -0.64840101800E+01  0.80696840281E+01  0.31752325836E+02  0.10566000000E+00 0.  1.
         22    1    1    0    0    0 -0.30824128955E+02  0.72630610463E+01 -0.72409800759E+01  0.32485547156E+02  0.00000000000E+00 0. -1.
</event>
<event>
 5    1  0.2377303E-009  0.9118800E+02  0.7815553E-02  0.1125453E+00
         25   -1    0    0    0    0  0.00000000000E+00  0.00000000000E+00  0.99999998245E-14  0.12509000000E+03  0.12509000000E+03 0.  0.
        -13    1    3    3    0    0  0.10370680848E+02 -0.45174916782E+02 -0.20170816177E+02  0.50548957624E+02  0.10566000000E+00 0. -1.
         23    2    1    0    0    0 -0.83299445370E+01 -0.25998016732E+02  0.14354303255E+02  0.94246347948E+02  0.89056404764E+02 0.  0.
         13    1    3    3    0    0 -0.18700625385E+02  0.19176900050E+02  0.34525119432E+02  0.43697390324E+02  0.10566000000E+00 0.  1.
         22    1    1    0    0    0  0.83299445370E+01  0.25998016732E+02 -0.14354303255E+02  0.30843652052E+02  0.00000000000E+00 0.  1.
</event>
<event>
 5    1  0.2377303E-009  0.9118800E+02  0.7815553E-02  0.1125453E+00
         25   -1    0    0    0    0  0.00000000000E+00  0.00000000000E+00  0.99999998245E-14  0.12509000000E+03  0.12509000000E+03 0.  0.
        -13    1    3    3    0    0  0.26275695645E+02 -0.89721724996E+01 -0.45193714799E+02  0.53041446836E+02  0.10566000000E+00 0.  1.
         23    2    1    0    0    0 -0.78378825297E+01 -0.16994718763E+02 -0.26170924508E+02  0.92915939672E+02  0.87167664229E+02 0.  0.
         13    1    3    3    0    0 -0.34113578175E+02 -0.80225462632E+01  0.19022790291E+02  0.39874492836E+02  0.10566000000E+00 0. -1.
         22    1    1    0    0    0  0.78378825297E+01  0.16994718763E+02  0.26170924508E+02  0.32174060328E+02  0.00000000000E+00 0.  1.
</event>
<event>
 5    1  0.2377303E-009  0.9118800E+02  0.7815553E-02  0.1125453E+00
         25   -1    0    0    0    0  0.00000000000E+00  0.00000000000E+00  0.99999998245E-14  0.12509000000E+03  0.12509000000E+03 0.  0.
        -13    1    3    3    0    0 -0.40058702198E+02 -0.75326048905E+01 -0.15228341324E+02  0.43512679781E+02  0.10566000000E+00 0. -1.
         23    2    1    0    0    0  0.50958705204E+01 -0.27025662651E+02  0.57683842942E+01  0.96989669122E+02  0.92829776047E+02 0.  0.
         13    1    3    3    0    0  0.45154572718E+02 -0.19493057760E+02  0.20996725618E+02  0.53476989341E+02  0.10566000000E+00 0.  1.
         22    1    1    0    0    0 -0.50958705204E+01  0.27025662651E+02 -0.57683842942E+01  0.28100330878E+02  0.00000000000E+00 0. -1.
</event>
<event>
 5    1  0.2377303E-009  0.9118800E+02  0.7815553E-02  0.1125453E+00
         25   -1    0    0    0    0  0.00000000000E+00  0.00000000000E+00  0.99999998245E-14  0.12509000000E+03  0.12509000000E+03 0.  0.
        -13    1    3    3    0    0 -0.45767748901E+02 -0.29194970271E+02  0.18770696200E+02  0.57440258778E+02  0.10566000000E+00 0. -1.
         23    2    1    0    0    0 -0.29322366171E+02  0.16138784633E+01  0.36473382778E+01  0.95497621960E+02  0.90796954585E+02 0.  0.
         13    1    3    3    0    0  0.16445382731E+02  0.30808848734E+02 -0.15123357922E+02  0.38057363182E+02  0.10566000000E+00 0.  1.
         22    1    1    0    0    0  0.29322366171E+02 -0.16138784633E+01 -0.36473382778E+01  0.29592378040E+02  0.00000000000E+00 0. -1.
</event>
<event>
 5    1  0.2377303E-009  0.9118800E+02  0.7815553E-02  0.1125453E+00
         25   -1    0    0    0    0  0.00000000000E+00  0.00000000000E+00  0.99999998245E-14  0.12509000000E+03  0.12509000000E+03 0.  0.
        -13    1    3    3    0    0 -0.13334832836E+02 -0.26359510320E+02 -0.20890757647E+02  0.36181161814E+02  0.10566000000E+00 0. -1.
         23    2    1    0    0    0  0.18810727625E+01  0.24958014987E+02  0.10178428963E+02  0.98070722383E+02  0.94275263063E+02 0.  0.
         13    1    3    3    0    0  0.15215905599E+02  0.51317525307E+02  0.31069186610E+02  0.61889560569E+02  0.10566000000E+00 0.  1.
         22    1    1    0    0    0 -0.18810727625E+01 -0.24958014987E+02 -0.10178428963E+02  0.27019277617E+02  0.00000000000E+00 0.  1.
</event>
<event>
 5    1  0.2377303E-009  0.9118800E+02  0.7815553E-02  0.1125453E+00
         25   -1    0    0    0    0  0.00000000000E+00  0.00000000000E+00  0.99999998245E-14  0.12509000000E+03  0.12509000000E+03 0.  0.
        -13    1    3    3    0    0 -0.18253588363E+02 -0.77400206885E+01  0.53493210786E+02  0.57049418688E+02  0.10566000000E+00 0. -1.
         23    2    1    0    0    0 -0.26492148998E+02  0.46037149426E+01  0.38350295793E+02  0.78252265883E+02  0.62686870864E+02 0.  0.
         13    1    3    3    0    0 -0.82385606348E+01  0.12343735631E+02 -0.15142914993E+02  0.21202847195E+02  0.10566000000E+00 0.  1.
         22    1    1    0    0    0  0.26492148998E+02 -0.46037149426E+01 -0.38350295793E+02  0.46837734117E+02  0.00000000000E+00 0. -1.
</event>
<event>
 5    1  0.2377303E-009  0.9118800E+02  0.7815553E-02  0.1125453E+00
         25   -1    0    0    0    0  0.00000000000E+00  0.00000000000E+00  0.99999998245E-14  0.12509000000E+03  0.12509000000E+03 0.  0.
        -13    1    3    3    0    0  0.54707924970E+01  0.36970425591E+02  0.25967153739E+02  0.45508748349E+02  0.10566000000E+00 0.  1.
         23    2    1    0    0    0 -0.20538301009E+02 -0.20397334212E+01  0.25352473676E+02  0.92398560107E+02  0.86422009162E+02 0.  0.
         13    1    3    3    0    0 -0.26009093506E+02 -0.39010159012E+02 -0.61468006275E+00  0.46889811759E+02  0.10566000000E+00 0. -1.
         22    1    1    0    0    0  0.20538301009E+02  0.20397334212E+01 -0.25352473676E+02  0.32691439893E+02  0.00000000000E+00 0. -1.
</event>
<event>
 5    1  0.2377303E-009  0.9118800E+02  0.7815553E-02  0.1125453E+00
         25   -1    0    0    0    0  0.00000000000E+00  0.00000000000E+00  0.99999998245E-14  0.12509000000E+03  0.12509000000E+03 0.  0.
        -13    1    3    3    0    0 -0.46267932668E+01 -0.37986725021E+02  0.16278876835E+02  0.41586193488E+02  0.10566000000E+00 0. -1.
         23    2    1    0    0    0 -0.22269587872E+02 -0.24366763551E+01 -0.19777454271E+02  0.95206565909E+02  0.90395080392E+02 0.  0.
         13    1    3    3    0    0 -0.17642794606E+02  0.35550048666E+02 -0.36056331106E+02  0.53620372421E+02  0.10566000000E+00 0.  1.
         22    1    1    0    0    0  0.22269587872E+02  0.24366763551E+01  0.19777454271E+02  0.29883434091E+02  0.00000000000E+00 0.  1.
</event>
<event>
 5    1  0.2377303E-009  0.9118800E+02  0.7815553E-02  0.1125453E+00
         25   -1    0    0    0    0  0.00000000000E+00  0.00000000000E+00  0.99999998245E-14  0.12509000000E+03  0.12509000000E+03 0.  0.
        -13    1    3    3    0    0  0.15243328845E+02 -0.30022158129E+02 -0.13113333183E+02  0.36133913768E+02  0.10566000000E+00 0.  1.
         23    2    1    0    0    0 -0.17098431775E+02 -0.36323065059E+01  0.26278678374E+02  0.93528647735E+02  0.88042540799E+02 0.  0.
         13    1    3    3    0    0 -0.32341760620E+02  0.26389851623E+02  0.39392011557E+02  0.57394733967E+02  0.10566000000E+00 0. -1.
         22    1    1    0    0    0  0.17098431775E+02  0.36323065059E+01 -0.26278678374E+02  0.31561352265E+02  0.00000000000E+00 0. -1.
</event>
<event>
 5    1  0.2377303E-009  0.9118800E+02  0.7815553E-02  0.1125453E+00
         25   -1    0    0    0    0  0.00000000000E+00  0.00000000000E+00  0.99999998245E-14  0.12509000000E+03  0.12509000000E+03 0.  0.
        -13    1    3    3    0    0  0.40992760018E+02 -0.25492203098E+02  0.35101936170E+02  0.59685977244E+02  0.10566000000E+00 0.  1.
         23    2    1    0    0    0  0.23603657724E+02 -0.16888983567E+02  0.47920368012E+01  0.95673439348E+02  0.91038854101E+02 0.  0.
         13    1    3    3    0    0 -0.17389102294E+02  0.86032195319E+01 -0.30309899368E+02  0.35987462104E+02  0.10566000000E+00 0. -1.
         22    1    1    0    0    0 -0.23603657724E+02  0.16888983567E+02 -0.47920368012E+01  0.29416560652E+02  0.00000000000E+00 0. -1.
</event>
<event>
 5    1  0.2377303E-009  0.9118800E+02  0.7815553E-02  0.1125453E+00
         25   -1    0    0    0    0  0.00000000000E+00  0.00000000000E+00  0.99999998245E-14  0.12509000000E+03  0.12509000000E+03 0.  0.
        -13    1    3    3    0    0 -0.40527299865E+02  0.57088198061E+01 -0.41994335227E+02  0.58639474871E+02  0.10566000000E+00 0. -1.
         23    2    1    0    0    0 -0.73838152325E+01  0.10696712853E+02 -0.26520054185E+02  0.95556059064E+02  0.90877427102E+02 0.  0.
         13    1    3    3    0    0  0.33143484633E+02  0.49878930465E+01  0.15474281042E+02  0.36916584193E+02  0.10566000000E+00 0.  1.
         22    1    1    0    0    0  0.73838152325E+01 -0.10696712853E+02  0.26520054185E+02  0.29533940936E+02  0.00000000000E+00 0. -1.
</event>
<event>
 5    1  0.2377303E-009  0.9118800E+02  0.7815553E-02  0.1125453E+00
         25   -1    0    0    0    0  0.00000000000E+00  0.00000000000E+00  0.99999998245E-14  0.12509000000E+03  0.12509000000E+03 0.  0.
        -13    1    3    3    0    0  0.26082094456E+02  0.42148567622E+02 -0.37868873519E+02  0.62376599374E+02  0.10566000000E+00 0. -1.
         23    2    1    0    0    0  0.13931801290E+02  0.16464388141E+02 -0.16898437362E+02  0.97690577574E+02  0.93769507823E+02 0.  0.
         13    1    3    3    0    0 -0.12150293166E+02 -0.25684179481E+02  0.20970436158E+02  0.35313978200E+02  0.10566000000E+00 0.  1.
         22    1    1    0    0    0 -0.13931801290E+02 -0.16464388141E+02  0.16898437362E+02  0.27399422426E+02  0.00000000000E+00 0. -1.
</event>
<event>
 5    1  0.2377303E-009  0.9118800E+02  0.7815553E-02  0.1125453E+00
         25   -1    0    0    0    0  0.00000000000E+00  0.00000000000E+00  0.99999998245E-14  0.12509000000E+03  0.12509000000E+03 0.  0.
        -13    1    3    3    0    0 -0.43944675227E+02  0.35767649498E+02  0.20776377615E+02  0.60350047740E+02  0.10566000000E+00 0.  1.
         23    2    1    0    0    0 -0.27107283476E+02  0.93035714717E+01  0.33413818375E+01  0.96236471755E+02  0.91809217422E+02 0.  0.
         13    1    3    3    0    0  0.16837391751E+02 -0.26464078026E+02 -0.17434995778E+02  0.35886424015E+02  0.10566000000E+00 0. -1.
         22    1    1    0    0    0  0.27107283476E+02 -0.93035714717E+01 -0.33413818375E+01  0.28853528245E+02  0.00000000000E+00 0.  1.
</event>
<event>
 5    1  0.2377303E-009  0.9118800E+02  0.7815553E-02  0.1125453E+00
         25   -1    0    0    0    0  0.00000000000E+00  0.00000000000E+00  0.99999998245E-14  0.12509000000E+03  0.12509000000E+03 0.  0.
        -13    1    3    3    0    0  0.58284527244E+01  0.10537233657E+02 -0.49960459150E+02  0.51391271602E+02  0.10566000000E+00 0.  1.
         23    2    1    0    0    0  0.28483886575E+02  0.41016276290E+01 -0.17804314561E+02  0.91249953301E+02  0.84743172095E+02 0.  0.
         13    1    3    3    0    0  0.22655433851E+02 -0.64356060281E+01  0.32156144589E+02  0.39858681699E+02  0.10566000000E+00 0. -1.
         22    1    1    0    0    0 -0.28483886575E+02 -0.41016276290E+01  0.17804314561E+02  0.33840046699E+02  0.00000000000E+00 0.  1.
</event>
<event>
 5    1  0.2377303E-009  0.9118800E+02  0.7815553E-02  0.1125453E+00
         25   -1    0    0    0    0  0.00000000000E+00  0.00000000000E+00  0.99999998245E-14  0.12509000000E+03  0.12509000000E+03 0.  0.
        -13    1    3    3    0    0  0.32910171980E+02 -0.62484542695E+01  0.21472815056E+02  0.39789641252E+02  0.10566000000E+00 0. -1.
         23    2    1    0    0    0  0.49353862154E+01  0.21739682542E+02 -0.18561998101E+02  0.96081042631E+02  0.91597200533E+02 0.  0.
         13    1    3    3    0    0 -0.27974785764E+02  0.27988136811E+02 -0.40034813157E+02  0.56291401380E+02  0.10566000000E+00 0.  1.
         22    1    1    0    0    0 -0.49353862154E+01 -0.21739682542E+02  0.18561998101E+02  0.29008957369E+02  0.00000000000E+00 0.  1.
</event>
<event>
 5    1  0.2377303E-009  0.9118800E+02  0.7815553E-02  0.1125453E+00
         25   -1    0    0    0    0  0.00000000000E+00  0.00000000000E+00  0.99999998245E-14  0.12509000000E+03  0.12509000000E+03 0.  0.
        -13    1    3    3    0    0 -0.42568737109E+02  0.13041655642E+02  0.46862583065E+01  0.44767782410E+02  0.10566000000E+00 0.  1.
         23    2    1    0    0    0 -0.92338200105E+01 -0.12659539503E+02 -0.24513247462E+02  0.95996587111E+02  0.91481790884E+02 0.  0.
         13    1    3    3    0    0  0.33334917099E+02 -0.25701195146E+02 -0.29199505768E+02  0.51228804701E+02  0.10566000000E+00 0. -1.
         22    1    1    0    0    0  0.92338200105E+01  0.12659539503E+02  0.24513247462E+02  0.29093412889E+02  0.00000000000E+00 0. -1.
</event>
<event>
 5    1  0.2377303E-009  0.9118800E+02  0.7815553E-02  0.1125453E+00
         25   -1    0    0    0    0  0.00000000000E+00  0.00000000000E+00  0.99999998245E-14  0.12509000000E+03  0.12509000000E+03 0.  0.
        -13    1    3    3    0    0  0.10917382424E+02  0.14478481957E+01  0.40490284783E+02  0.41961408809E+02  0.10566000000E+00 0.  1.
         23    2    1    0    0    0  0.23883510657E+02 -0.15394172892E+02 -0.85556832451E+01  0.95415055078E+02  0.90683131725E+02 0.  0.
         13    1    3    3    0    0  0.12966128233E+02 -0.16842021088E+02 -0.49045968028E+02  0.53453646270E+02  0.10566000000E+00 0. -1.
         22    1    1    0    0    0 -0.23883510657E+02  0.15394172892E+02  0.85556832451E+01  0.29674944922E+02  0.00000000000E+00 0. -1.
</event>
<event>
 5    1  0.2377303E-009  0.9118800E+02  0.7815553E-02  0.1125453E+00
         25   -1    0    0    0    0  0.00000000000E+00  0.00000000000E+00  0.99999998245E-14  0.12509000000E+03  0.12509000000E+03 0.  0.
        -13    1    3    3    0    0 -0.95699585302E+01 -0.42642505951E+01  0.31831344255E+02  0.33511394787E+02  0.10566000000E+00 0.  1.
         23    2    1    0    0    0  0.13725453738E+02 -0.79532322596E+00 -0.25847417843E+02  0.95813565304E+02  0.91231188021E+02 0.  0.
         13    1    3    3    0    0  0.23295412268E+02  0.34689273691E+01 -0.57678762099E+02  0.62302170517E+02  0.10566000000E+00 0. -1.
         22    1    1    0    0    0 -0.13725453738E+02  0.79532322596E+00  0.25847417843E+02  0.29276434696E+02  0.00000000000E+00 0. -1.
</event>
<event>
 5    1  0.2377303E-009  0.9118800E+02  0.7815553E-02  0.1125453E+00
         25   -1    0    0    0    0  0.00000000000E+00  0.00000000000E+00  0.99999998245E-14  0.12509000000E+03  0.12509000000E+03 0.  0.
        -13    1    3    3    0    0  0.35887949419E+02 -0.14764031709E+01  0.18633578195E+02  0.40464133256E+02  0.10566000000E+00 0. -1.
         23    2    1    0    0    0 -0.17245323018E+02 -0.16797101475E+02  0.16690527347E+02  0.95796357566E+02  0.91207590889E+02 0.  0.
         13    1    3    3    0    0 -0.53133272437E+02 -0.15320698304E+02 -0.19430508487E+01  0.55332224309E+02  0.10566000000E+00 0.  1.
         22    1    1    0    0    0  0.17245323018E+02  0.16797101475E+02 -0.16690527347E+02  0.29293642434E+02  0.00000000000E+00 0.  1.
</event>
<event>
 5    1  0.2377303E-009  0.9118800E+02  0.7815553E-02  0.1125453E+00
         25   -1    0    0    0    0  0.00000000000E+00  0.00000000000E+00  0.99999998245E-14  0.12509000000E+03  0.12509000000E+03 0.  0.
        -13    1    3    3    0    0 -0.10262010421E+02 -0.40188016830E+01  0.35173324052E+02  0.36859646143E+02  0.10566000000E+00 0.  1.
         23    2    1    0    0    0  0.23853051462E+02 -0.81168085884E+01 -0.13550952103E+02  0.96480928910E+02  0.92141688148E+02 0.  0.
         13    1    3    3    0    0  0.34115061884E+02 -0.40980069054E+01 -0.48724276155E+02  0.59621282767E+02  0.10566000000E+00 0. -1.
         22    1    1    0    0    0 -0.23853051462E+02  0.81168085884E+01  0.13550952103E+02  0.28609071090E+02  0.00000000000E+00 0. -1.
</event>
<event>
 5    1  0.2377303E-009  0.9118800E+02  0.7815553E-02  0.1125453E+00
         25   -1    0    0    0    0  0.00000000000E+00  0.00000000000E+00  0.99999998245E-14  0.12509000000E+03  0.12509000000E+03 0.  0.
        -13    1    3    3    0    0 -0.40144234842E+02 -0.36469357556E+02 -0.10320503216E+02  0.55209578718E+02  0.10566000000E+00 0. -1.
         23    2    1    0    0    0 -0.66088886331E+01 -0.17632349756E+02 -0.22681442104E+02  0.95610770315E+02  0.90952704289E+02 0.  0.
         13    1    3    3    0    0  0.33535346209E+02  0.18837007799E+02 -0.12360938888E+02  0.40401191597E+02  0.10566000000E+00 0.  1.
         22    1    1    0    0    0  0.66088886331E+01  0.17632349756E+02  0.22681442104E+02  0.29479229685E+02  0.00000000000E+00 0. -1.
</event>
<event>
 5    1  0.2377303E-009  0.9118800E+02  0.7815553E-02  0.1125453E+00
         25   -1    0    0    0    0  0.00000000000E+00  0.00000000000E+00  0.99999998245E-14  0.12509000000E+03  0.12509000000E+03 0.  0.
        -13    1    3    3    0    0 -0.20396610522E+02  0.12739666433E+02  0.29486914803E+02  0.38050100266E+02  0.10566000000E+00 0.  1.
         23    2    1    0    0    0  0.11660703845E+02 -0.26523800138E+02  0.12129482218E+01  0.96090771884E+02  0.91610486354E+02 0.  0.
         13    1    3    3    0    0  0.32057314367E+02 -0.39263466571E+02 -0.28273966581E+02  0.58040671618E+02  0.10566000000E+00 0. -1.
         22    1    1    0    0    0 -0.11660703845E+02  0.26523800138E+02 -0.12129482218E+01  0.28999228116E+02  0.00000000000E+00 0. -1.
</event>
<event>
 5    1  0.2377303E-009  0.9118800E+02  0.7815553E-02  0.1125453E+00
         25   -1    0    0    0    0  0.00000000000E+00  0.00000000000E+00  0.99999998245E-14  0.12509000000E+03  0.12509000000E+03 0.  0.
        -13    1    3    3    0    0  0.52470007823E+02 -0.35817451488E+01 -0.17785544247E+01  0.52622286525E+02  0.10566000000E+00 0.  1.
         23    2    1    0    0    0  0.17275093094E+02 -0.25552940149E+02  0.12274124818E+01  0.94221113835E+02  0.89020953484E+02 0.  0.
         13    1    3    3    0    0 -0.35194914728E+02 -0.21971195000E+02  0.30059669065E+01  0.41598827310E+02  0.10566000000E+00 0. -1.
         22    1    1    0    0    0 -0.17275093094E+02  0.25552940149E+02 -0.12274124818E+01  0.30868886165E+02  0.00000000000E+00 0.  1.
</event>
<event>
 5    1  0.2377303E-009  0.9118800E+02  0.7815553E-02  0.1125453E+00
         25   -1    0    0    0    0  0.00000000000E+00  0.00000000000E+00  0.99999998245E-14  0.12509000000E+03  0.12509000000E+03 0.  0.
        -13    1    3    3    0    0  0.38895005077E+02  0.62799382420E+01 -0.33712433233E+02  0.51853624394E+02  0.10566000000E+00 0.  1.
         23    2    1    0    0    0  0.15272618147E+02  0.23265832735E+02  0.11169490029E+01  0.97236824005E+02  0.93162226946E+02 0.  0.
         13    1    3    3    0    0 -0.23622386930E+02  0.16985894493E+02  0.34829382236E+02  0.45383199611E+02  0.10566000000E+00 0. -1.
         22    1    1    0    0    0 -0.15272618147E+02 -0.23265832735E+02 -0.11169490029E+01  0.27853175995E+02  0.00000000000E+00 0.  1.
</event>
<event>
 5    1  0.2377303E-009  0.9118800E+02  0.7815553E-02  0.1125453E+00
         25   -1    0    0    0    0  0.00000000000E+00  0.00000000000E+00  0.99999998245E-14  0.12509000000E+03  0.12509000000E+03 0.  0.
        -13    1    3    3    0    0  0.22410200690E+02  0.25063036393E+02  0.37070539818E+02  0.50046068523E+02  0.10566000000E+00 0.  1.
         23    2    1    0    0    0  0.10501596233E+02  0.25978233278E+02 -0.74131493955E+01  0.96105402166E+02  0.91630461168E+02 0.  0.
         13    1    3    3    0    0 -0.11908604457E+02  0.91519688509E+00 -0.44483689214E+02  0.46059333642E+02  0.10566000000E+00 0. -1.
         22    1    1    0    0    0 -0.10501596233E+02 -0.25978233278E+02  0.74131493955E+01  0.28984597834E+02  0.00000000000E+00 0.  1.
</event>
<event>
 5    1  0.2377303E-009  0.9118800E+02  0.7815553E-02  0.1125453E+00
         25   -1    0    0    0    0  0.00000000000E+00  0.00000000000E+00  0.99999998245E-14  0.12509000000E+03  0.12509000000E+03 0.  0.
        -13    1    3    3    0    0  0.53633393482E+02  0.13456083003E+02 -0.25920964848E+02  0.61069752324E+02  0.10566000000E+00 0.  1.
         23    2    1    0    0    0  0.29970499132E+02  0.11422721188E+01 -0.56573104640E+01  0.94568847245E+02  0.89508246010E+02 0.  0.
         13    1    3    3    0    0 -0.23662894351E+02 -0.12313810884E+02  0.20263654384E+02  0.33499094921E+02  0.10566000000E+00 0. -1.
         22    1    1    0    0    0 -0.29970499132E+02 -0.11422721188E+01  0.56573104640E+01  0.30521152755E+02  0.00000000000E+00 0.  1.
</event>
<event>
 5    1  0.2377303E-009  0.9118800E+02  0.7815553E-02  0.1125453E+00
         25   -1    0    0    0    0  0.00000000000E+00  0.00000000000E+00  0.99999998245E-14  0.12509000000E+03  0.12509000000E+03 0.  0.
        -13    1    3    3    0    0 -0.53208547118E+02 -0.20288507881E+02  0.87984738532E+01  0.57621153621E+02  0.10566000000E+00 0. -1.
         23    2    1    0    0    0 -0.15566330625E+02 -0.23623894084E+02  0.89678062856E+01  0.95411378563E+02  0.90678060130E+02 0.  0.
         13    1    3    3    0    0  0.37642216493E+02 -0.33353862028E+01  0.16933243235E+00  0.37790224942E+02  0.10566000000E+00 0.  1.
         22    1    1    0    0    0  0.15566330625E+02  0.23623894084E+02 -0.89678062856E+01  0.29678621437E+02  0.00000000000E+00 0. -1.
</event>
<event>
 5    1  0.2377303E-009  0.9118800E+02  0.7815553E-02  0.1125453E+00
         25   -1    0    0    0    0  0.00000000000E+00  0.00000000000E+00  0.99999998245E-14  0.12509000000E+03  0.12509000000E+03 0.  0.
        -13    1    3    3    0    0  0.49176710446E+01 -0.23951979477E+02  0.48656082114E+02  0.54454626067E+02  0.10566000000E+00 0. -1.
         23    2    1    0    0    0 -0.11833610892E+02  0.66388636358E+01  0.25149059994E+02  0.96514064745E+02  0.92186661822E+02 0.  0.
         13    1    3    3    0    0 -0.16751281937E+02  0.30590843113E+02 -0.23507022121E+02  0.42059438678E+02  0.10566000000E+00 0.  1.
         22    1    1    0    0    0  0.11833610892E+02 -0.66388636358E+01 -0.25149059994E+02  0.28575935255E+02  0.00000000000E+00 0. -1.
</event>
<event>
 5    1  0.2377303E-009  0.9118800E+02  0.7815553E-02  0.1125453E+00
         25   -1    0    0    0    0  0.00000000000E+00  0.00000000000E+00  0.99999998245E-14  0.12509000000E+03  0.12509000000E+03 0.  0.
        -13    1    3    3    0    0 -0.43151879092E+01 -0.40476524090E+02  0.16285438198E+02  0.43842861567E+02  0.10566000000E+00 0.  1.
         23    2    1    0    0    0 -0.41975045432E+01 -0.11041904201E+02 -0.26672976225E+02  0.95918261048E+02  0.91374626943E+02 0.  0.
         13    1    3    3    0    0  0.11768336600E+00  0.29434619889E+02 -0.42958414423E+02  0.52075399481E+02  0.10566000000E+00 0. -1.
         22    1    1    0    0    0  0.41975045432E+01  0.11041904201E+02  0.26672976225E+02  0.29171738952E+02  0.00000000000E+00 0.  1.
</event>
<event>
 5    1  0.2377303E-009  0.9118800E+02  0.7815553E-02  0.1125453E+00
         25   -1    0    0    0    0  0.00000000000E+00  0.00000000000E+00  0.99999998245E-14  0.12509000000E+03  0.12509000000E+03 0.  0.
        -13    1    3    3    0    0  0.38380085422E+02 -0.22523903651E+02  0.10217580168E+01  0.44513058153E+02  0.10566000000E+00 0.  1.
         23    2    1    0    0    0  0.96184879344E+01  0.10787852625E+02 -0.25414652692E+02  0.95853077353E+02  0.91285348179E+02 0.  0.
         13    1    3    3    0    0 -0.28761597488E+02  0.33311756276E+02 -0.26436410709E+02  0.51340019200E+02  0.10566000000E+00 0. -1.
         22    1    1    0    0    0 -0.96184879344E+01 -0.10787852625E+02  0.25414652692E+02  0.29236922647E+02  0.00000000000E+00 0. -1.
</event>
<event>
 5    1  0.2377303E-009  0.9118800E+02  0.7815553E-02  0.1125453E+00
         25   -1    0    0    0    0  0.00000000000E+00  0.00000000000E+00  0.99999998245E-14  0.12509000000E+03  0.12509000000E+03 0.  0.
        -13    1    3    3    0    0 -0.47636691634E+02  0.21784272671E+02  0.22017591283E+02  0.56820721710E+02  0.10566000000E+00 0. -1.
         23    2    1    0    0    0 -0.26014010513E+02 -0.85377278138E+01  0.93585363393E+01  0.96155526761E+02  0.91698863598E+02 0.  0.
         13    1    3    3    0    0  0.21622681122E+02 -0.30322000485E+02 -0.12659054944E+02  0.39334805051E+02  0.10566000000E+00 0.  1.
         22    1    1    0    0    0  0.26014010513E+02  0.85377278138E+01 -0.93585363393E+01  0.28934473239E+02  0.00000000000E+00 0. -1.
</event>
<event>
 5    1  0.2377303E-009  0.9118800E+02  0.7815553E-02  0.1125453E+00
         25   -1    0    0    0    0  0.00000000000E+00  0.00000000000E+00  0.99999998245E-14  0.12509000000E+03  0.12509000000E+03 0.  0.
        -13    1    3    3    0    0 -0.11414451106E+02  0.37701989765E+02  0.26391732237E+02  0.47415866762E+02  0.10566000000E+00 0.  1.
         23    2    1    0    0    0 -0.13951802888E+02 -0.12049619646E+02  0.20405054601E+02  0.97590683814E+02  0.93636153149E+02 0.  0.
         13    1    3    3    0    0 -0.25373517816E+01 -0.49751609411E+02 -0.59866776363E+01  0.50174817052E+02  0.10566000000E+00 0. -1.
         22    1    1    0    0    0  0.13951802888E+02  0.12049619646E+02 -0.20405054601E+02  0.27499316186E+02  0.00000000000E+00 0. -1.
</event>
<event>
 5    1  0.2377303E-009  0.9118800E+02  0.7815553E-02  0.1125453E+00
         25   -1    0    0    0    0  0.00000000000E+00  0.00000000000E+00  0.99999998245E-14  0.12509000000E+03  0.12509000000E+03 0.  0.
        -13    1    3    3    0    0 -0.50594401852E+02  0.21471518343E+01 -0.27041117469E+02  0.57407638497E+02  0.10566000000E+00 0.  1.
         23    2    1    0    0    0 -0.21145464464E+02 -0.16561487813E+02 -0.15060297170E+02  0.94296719940E+02  0.89127129959E+02 0.  0.
         13    1    3    3    0    0  0.29448937388E+02 -0.18708639647E+02  0.11980820299E+02  0.36889081444E+02  0.10566000000E+00 0. -1.
         22    1    1    0    0    0  0.21145464464E+02  0.16561487813E+02  0.15060297170E+02  0.30793280060E+02  0.00000000000E+00 0.  1.
</event>
<event>
 5    1  0.2377303E-009  0.9118800E+02  0.7815553E-02  0.1125453E+00
         25   -1    0    0    0    0  0.00000000000E+00  0.00000000000E+00  0.99999998245E-14  0.12509000000E+03  0.12509000000E+03 0.  0.
        -13    1    3    3    0    0 -0.35707929913E+01  0.33667697174E+02 -0.12917578482E+02  0.36237265259E+02  0.10566000000E+00 0. -1.
         23    2    1    0    0    0 -0.10726180215E+02 -0.10258545852E+02  0.25864677016E+02  0.95269365833E+02  0.90481942088E+02 0.  0.
         13    1    3    3    0    0 -0.71553872233E+01 -0.43926243026E+02  0.38782255498E+02  0.59032100574E+02  0.10566000000E+00 0.  1.
         22    1    1    0    0    0  0.10726180215E+02  0.10258545852E+02 -0.25864677016E+02  0.29820634167E+02  0.00000000000E+00 0.  1.
</event>
<event>
 5    1  0.2377303E-009  0.9118800E+02  0.7815553E-02  0.1125453E+00
         25   -1    0    0    0    0  0.00000000000E+00  0.00000000000E+00  0.99999998245E-14  0.12509000000E+03  0.12509000000E+03 0.  0.
        -13    1    3    3    0    0 -0.58568219353E+02 -0.94864377983E+01 -0.19722679256E+01  0.59364381789E+02  0.10566000000E+00 0.  1.
         23    2    1    0    0    0 -0.26117932921E+02  0.97339780833E+01 -0.26982173712E+01  0.97086837207E+02  0.92960619794E+02 0.  0.
         13    1    3    3    0    0  0.32450286432E+02  0.19220415882E+02 -0.72594944559E+00  0.37722455419E+02  0.10566000000E+00 0. -1.
         22    1    1    0    0    0  0.26117932921E+02 -0.97339780833E+01  0.26982173712E+01  0.28003162793E+02  0.00000000000E+00 0.  1.
</event>
<event>
 5    1  0.2377303E-009  0.9118800E+02  0.7815553E-02  0.1125453E+00
         25   -1    0    0    0    0  0.00000000000E+00  0.00000000000E+00  0.99999998245E-14  0.12509000000E+03  0.12509000000E+03 0.  0.
        -13    1    3    3    0    0  0.16243172330E+02 -0.43254214362E+02 -0.31874449451E+02  0.56131625660E+02  0.10566000000E+00 0. -1.
         23    2    1    0    0    0  0.17964918405E+02 -0.21846675451E+02  0.25334499891E+01  0.96692220326E+02  0.92428088702E+02 0.  0.
         13    1    3    3    0    0  0.17217460751E+01  0.21407538911E+02  0.34407899440E+02  0.40560594666E+02  0.10566000000E+00 0.  1.
         22    1    1    0    0    0 -0.17964918405E+02  0.21846675451E+02 -0.25334499891E+01  0.28397779674E+02  0.00000000000E+00 0. -1.
</event>
<event>
 5    1  0.2377303E-009  0.9118800E+02  0.7815553E-02  0.1125453E+00
         25   -1    0    0    0    0  0.00000000000E+00  0.00000000000E+00  0.99999998245E-14  0.12509000000E+03  0.12509000000E+03 0.  0.
        -13    1    3    3    0    0  0.15927487766E+02  0.10832810623E+02  0.54604939476E+02  0.57902894848E+02  0.10566000000E+00 0.  1.
         23    2    1    0    0    0  0.22277871386E+02 -0.22575169569E+01  0.21575665380E+02  0.93994835217E+02  0.88702422597E+02 0.  0.
         13    1    3    3    0    0  0.63503836201E+01 -0.13090327580E+02 -0.33029274096E+02  0.36091940369E+02  0.10566000000E+00 0. -1.
         22    1    1    0    0    0 -0.22277871386E+02  0.22575169569E+01 -0.21575665380E+02  0.31095164783E+02  0.00000000000E+00 0.  1.
</event>
<event>
 5    1  0.2377303E-009  0.9118800E+02  0.7815553E-02  0.1125453E+00
         25   -1    0    0    0    0  0.00000000000E+00  0.00000000000E+00  0.99999998245E-14  0.12509000000E+03  0.12509000000E+03 0.  0.
        -13    1    3    3    0    0  0.11366461852E+02  0.38352923897E+02  0.37459439312E+02  0.54802955979E+02  0.10566000000E+00 0.  1.
         23    2    1    0    0    0  0.16841924663E+02  0.22709292152E+02 -0.11228460649E+01  0.96794714886E+02  0.92566698495E+02 0.  0.
         13    1    3    3    0    0  0.54754628107E+01 -0.15643631745E+02 -0.38582285377E+02  0.41991758907E+02  0.10566000000E+00 0. -1.
         22    1    1    0    0    0 -0.16841924663E+02 -0.22709292152E+02  0.11228460649E+01  0.28295285114E+02  0.00000000000E+00 0.  1.
</event>
<event>
 5    1  0.2377303E-009  0.9118800E+02  0.7815553E-02  0.1125453E+00
         25   -1    0    0    0    0  0.00000000000E+00  0.00000000000E+00  0.99999998245E-14  0.12509000000E+03  0.12509000000E+03 0.  0.
        -13    1    3    3    0    0 -0.16204524733E+02  0.54545553115E+02 -0.89620762510E+01  0.57603246099E+02  0.10566000000E+00 0. -1.
         23    2    1    0    0    0  0.13816830295E+01  0.30949624670E+02  0.99097533211E+01  0.92563218326E+02  0.86660013044E+02 0.  0.
         13    1    3    3    0    0  0.17586207762E+02 -0.23595928445E+02  0.18871829572E+02  0.34959972227E+02  0.10566000000E+00 0.  1.
         22    1    1    0    0    0 -0.13816830295E+01 -0.30949624670E+02 -0.99097533211E+01  0.32526781674E+02  0.00000000000E+00 0. -1.
</event>
<event>
 5    1  0.2377303E-009  0.9118800E+02  0.7815553E-02  0.1125453E+00
         25   -1    0    0    0    0  0.00000000000E+00  0.00000000000E+00  0.99999998245E-14  0.12509000000E+03  0.12509000000E+03 0.  0.
        -13    1    3    3    0    0 -0.19082224825E+02  0.58011223415E+02 -0.59473895331E+00  0.61072074018E+02  0.10566000000E+00 0.  1.
         23    2    1    0    0    0 -0.65410437776E+01  0.28433673713E+02  0.89242728072E+01  0.94579318269E+02  0.89522878331E+02 0.  0.
         13    1    3    3    0    0  0.12541181048E+02 -0.29577549701E+02  0.95190117605E+01  0.33507244252E+02  0.10566000000E+00 0. -1.
         22    1    1    0    0    0  0.65410437776E+01 -0.28433673713E+02 -0.89242728072E+01  0.30510681731E+02  0.00000000000E+00 0.  1.
</event>
<event>
 5    1  0.2377303E-009  0.9118800E+02  0.7815553E-02  0.1125453E+00
         25   -1    0    0    0    0  0.00000000000E+00  0.00000000000E+00  0.99999998245E-14  0.12509000000E+03  0.12509000000E+03 0.  0.
        -13    1    3    3    0    0 -0.11362832054E+02 -0.13012094670E+02 -0.27347646959E+02  0.32347078974E+02  0.10566000000E+00 0.  1.
         23    2    1    0    0    0  0.19064489628E+02  0.23038628060E+02  0.11087166012E+02  0.93197079189E+02  0.87570184262E+02 0.  0.
         13    1    3    3    0    0  0.30427321682E+02  0.36050722730E+02  0.38434812971E+02  0.60850000215E+02  0.10566000000E+00 0. -1.
         22    1    1    0    0    0 -0.19064489628E+02 -0.23038628060E+02 -0.11087166012E+02  0.31892920811E+02  0.00000000000E+00 0. -1.
</event>
<event>
 5    1  0.2377303E-009  0.9118800E+02  0.7815553E-02  0.1125453E+00
         25   -1    0    0    0    0  0.00000000000E+00  0.00000000000E+00  0.99999998245E-14  0.12509000000E+03  0.12509000000E+03 0.  0.
        -13    1    3    3    0    0 -0.40320140110E+02  0.19711156532E+02 -0.41838568287E+02  0.61357317010E+02  0.10566000000E+00 0.  1.
         23    2    1    0    0    0 -0.16556584643E+02  0.17267070931E+02 -0.17588935982E+02  0.95397527847E+02  0.90658951113E+02 0.  0.
         13    1    3    3    0    0  0.23763555467E+02 -0.24440856008E+01  0.24249632306E+02  0.34040210837E+02  0.10566000000E+00 0. -1.
         22    1    1    0    0    0  0.16556584643E+02 -0.17267070931E+02  0.17588935982E+02  0.29692472153E+02  0.00000000000E+00 0.  1.
</event>
<event>
 5    1  0.2377303E-009  0.9118800E+02  0.7815553E-02  0.1125453E+00
         25   -1    0    0    0    0  0.00000000000E+00  0.00000000000E+00  0.99999998245E-14  0.12509000000E+03  0.12509000000E+03 0.  0.
        -13    1    3    3    0    0  0.16168243922E+02  0.12626412476E+02  0.56078372957E+02  0.59712925578E+02  0.10566000000E+00 0.  1.
         23    2    1    0    0    0 -0.30411776181E+01  0.13808989841E+02  0.27499616447E+02  0.94168068197E+02  0.88946383858E+02 0.  0.
         13    1    3    3    0    0 -0.19209421540E+02  0.11825773653E+01 -0.28578756511E+02  0.34455142619E+02  0.10566000000E+00 0. -1.
         22    1    1    0    0    0  0.30411776181E+01 -0.13808989841E+02 -0.27499616447E+02  0.30921931803E+02  0.00000000000E+00 0.  1.
</event>
<event>
 5    1  0.2377303E-009  0.9118800E+02  0.7815553E-02  0.1125453E+00
         25   -1    0    0    0    0  0.00000000000E+00  0.00000000000E+00  0.99999998245E-14  0.12509000000E+03  0.12509000000E+03 0.  0.
        -13    1    3    3    0    0 -0.30824886345E+02 -0.43844902362E+01 -0.93520895349E+01  0.32509538839E+02  0.10566000000E+00 0.  1.
         23    2    1    0    0    0  0.26501167556E+02 -0.10853924164E+02 -0.18608499061E+02  0.90937462922E+02  0.84280640563E+02 0.  0.
         13    1    3    3    0    0  0.57326053901E+02 -0.64694339277E+01 -0.92564095265E+01  0.58427924082E+02  0.10566000000E+00 0. -1.
         22    1    1    0    0    0 -0.26501167556E+02  0.10853924164E+02  0.18608499061E+02  0.34152537078E+02  0.00000000000E+00 0. -1.
</event>
<event>
 5    1  0.2377303E-009  0.9118800E+02  0.7815553E-02  0.1125453E+00
         25   -1    0    0    0    0  0.00000000000E+00  0.00000000000E+00  0.99999998245E-14  0.12509000000E+03  0.12509000000E+03 0.  0.
        -13    1    3    3    0    0 -0.11717117707E+02  0.26459926208E+02 -0.65064009358E+01  0.29660798362E+02  0.10566000000E+00 0. -1.
         23    2    1    0    0    0  0.15910786797E+02 -0.21775398419E+02  0.20261988034E+02  0.91357682085E+02  0.84902042402E+02 0.  0.
         13    1    3    3    0    0  0.27627904504E+02 -0.48235324627E+02  0.26768388970E+02  0.61696883724E+02  0.10566000000E+00 0.  1.
         22    1    1    0    0    0 -0.15910786797E+02  0.21775398419E+02 -0.20261988034E+02  0.33732317915E+02  0.00000000000E+00 0.  1.
</event>
<event>
 5    1  0.2377303E-009  0.9118800E+02  0.7815553E-02  0.1125453E+00
         25   -1    0    0    0    0  0.00000000000E+00  0.00000000000E+00  0.99999998245E-14  0.12509000000E+03  0.12509000000E+03 0.  0.
        -13    1    3    3    0    0 -0.10593057801E+02 -0.31950417680E+02  0.42535843463E+01  0.33928545612E+02  0.10566000000E+00 0.  1.
         23    2    1    0    0    0  0.16420660084E+02  0.19526378850E+02 -0.15392938291E+02  0.95293018646E+02  0.90514635859E+02 0.  0.
         13    1    3    3    0    0  0.27013717885E+02  0.51476796530E+02 -0.19646522637E+02  0.61364473034E+02  0.10566000000E+00 0. -1.
         22    1    1    0    0    0 -0.16420660084E+02 -0.19526378850E+02  0.15392938291E+02  0.29796981354E+02  0.00000000000E+00 0. -1.
</event>
<event>
 5    1  0.2377303E-009  0.9118800E+02  0.7815553E-02  0.1125453E+00
         25   -1    0    0    0    0  0.00000000000E+00  0.00000000000E+00  0.99999998245E-14  0.12509000000E+03  0.12509000000E+03 0.  0.
        -13    1    3    3    0    0 -0.12290568471E+02  0.30146174099E+02 -0.10126440854E+02  0.34094073598E+02  0.10566000000E+00 0. -1.
         23    2    1    0    0    0 -0.37607613696E+01 -0.29210261957E+02  0.30190721350E+01  0.95484299092E+02  0.90778597956E+02 0.  0.
         13    1    3    3    0    0  0.85298071011E+01 -0.59356436056E+02  0.13145512989E+02  0.61390225494E+02  0.10566000000E+00 0.  1.
         22    1    1    0    0    0  0.37607613696E+01  0.29210261957E+02 -0.30190721350E+01  0.29605700908E+02  0.00000000000E+00 0.  1.
</event>
<event>
 5    1  0.2377303E-009  0.9118800E+02  0.7815553E-02  0.1125453E+00
         25   -1    0    0    0    0  0.00000000000E+00  0.00000000000E+00  0.99999998245E-14  0.12509000000E+03  0.12509000000E+03 0.  0.
        -13    1    3    3    0    0  0.52654245858E+00 -0.75649681858E+01  0.46277770884E+02  0.46895087511E+02  0.10566000000E+00 0.  1.
         23    2    1    0    0    0 -0.13519274959E+01 -0.29894984851E+02  0.37964118489E+01  0.94924613046E+02  0.90004064307E+02 0.  0.
         13    1    3    3    0    0 -0.18784699545E+01 -0.22330016665E+02 -0.42481359035E+02  0.48029525535E+02  0.10566000000E+00 0. -1.
         22    1    1    0    0    0  0.13519274959E+01  0.29894984851E+02 -0.37964118489E+01  0.30165386954E+02  0.00000000000E+00 0.  1.
</event>
<event>
 5    1  0.2377303E-009  0.9118800E+02  0.7815553E-02  0.1125453E+00
         25   -1    0    0    0    0  0.00000000000E+00  0.00000000000E+00  0.99999998245E-14  0.12509000000E+03  0.12509000000E+03 0.  0.
        -13    1    3    3    0    0  0.36077522755E+02 -0.38418531807E+02  0.96789813401E+01  0.53584186829E+02  0.10566000000E+00 0.  1.
         23    2    1    0    0    0  0.11292111681E+01 -0.30905531978E+02  0.16593074964E+02  0.89993601873E+02  0.82867914277E+02 0.  0.
         13    1    3    3    0    0 -0.34948311587E+02  0.75129998291E+01  0.69140936234E+01  0.36409415044E+02  0.10566000000E+00 0. -1.
         22    1    1    0    0    0 -0.11292111681E+01  0.30905531978E+02 -0.16593074964E+02  0.35096398127E+02  0.00000000000E+00 0. -1.
</event>
<event>
 5    1  0.2377303E-009  0.9118800E+02  0.7815553E-02  0.1125453E+00
         25   -1    0    0    0    0  0.00000000000E+00  0.00000000000E+00  0.99999998245E-14  0.12509000000E+03  0.12509000000E+03 0.  0.
        -13    1    3    3    0    0 -0.70916193776E+01 -0.68080906290E+01  0.61237616702E+02  0.62021754464E+02  0.10566000000E+00 0. -1.
         23    2    1    0    0    0 -0.88641261499E+01 -0.38449645315E+01  0.27379248036E+02  0.96055887172E+02  0.91562840458E+02 0.  0.
         13    1    3    3    0    0 -0.17725067723E+01  0.29631260975E+01 -0.33858368665E+02  0.34034132709E+02  0.10566000000E+00 0.  1.
         22    1    1    0    0    0  0.88641261499E+01  0.38449645315E+01 -0.27379248036E+02  0.29034112828E+02  0.00000000000E+00 0. -1.
</event>
<event>
 5    1  0.2377303E-009  0.9118800E+02  0.7815553E-02  0.1125453E+00
         25   -1    0    0    0    0  0.00000000000E+00  0.00000000000E+00  0.99999998245E-14  0.12509000000E+03  0.12509000000E+03 0.  0.
        -13    1    3    3    0    0  0.21395511558E+02 -0.10448100058E+02 -0.37549153882E+02  0.44462128052E+02  0.10566000000E+00 0. -1.
         23    2    1    0    0    0  0.82577981510E+01  0.27326468642E+02 -0.48246759945E+01  0.96138236372E+02  0.91675274068E+02 0.  0.
         13    1    3    3    0    0 -0.13137713407E+02  0.37774568700E+02  0.32724477887E+02  0.51676108320E+02  0.10566000000E+00 0.  1.
         22    1    1    0    0    0 -0.82577981510E+01 -0.27326468642E+02  0.48246759945E+01  0.28951763628E+02  0.00000000000E+00 0.  1.
</event>
<event>
 5    1  0.2377303E-009  0.9118800E+02  0.7815553E-02  0.1125453E+00
         25   -1    0    0    0    0  0.00000000000E+00  0.00000000000E+00  0.99999998245E-14  0.12509000000E+03  0.12509000000E+03 0.  0.
        -13    1    3    3    0    0  0.60472746288E+01 -0.27217636448E+02 -0.27885828845E+02  0.39433486768E+02  0.10566000000E+00 0.  1.
         23    2    1    0    0    0  0.29103013670E+01 -0.12530020361E+02  0.26380740270E+02  0.95740132513E+02  0.91130446351E+02 0.  0.
         13    1    3    3    0    0 -0.31369732619E+01  0.14687616087E+02  0.54266569115E+02  0.56306645745E+02  0.10566000000E+00 0. -1.
         22    1    1    0    0    0 -0.29103013670E+01  0.12530020361E+02 -0.26380740270E+02  0.29349867487E+02  0.00000000000E+00 0. -1.
</event>
<event>
 5    1  0.2377303E-009  0.9118800E+02  0.7815553E-02  0.1125453E+00
         25   -1    0    0    0    0  0.00000000000E+00  0.00000000000E+00  0.99999998245E-14  0.12509000000E+03  0.12509000000E+03 0.  0.
        -13    1    3    3    0    0  0.20661633673E+02 -0.99099470413E+01  0.30788659890E+02  0.38380501538E+02  0.10566000000E+00 0.  1.
         23    2    1    0    0    0 -0.27090791740E+02 -0.12920680627E+02  0.37962189027E+00  0.95073352989E+02  0.90210550108E+02 0.  0.
         13    1    3    3    0    0 -0.47752425413E+02 -0.30107335861E+01 -0.30409038000E+02  0.56692851452E+02  0.10566000000E+00 0. -1.
         22    1    1    0    0    0  0.27090791740E+02  0.12920680627E+02 -0.37962189027E+00  0.30016647011E+02  0.00000000000E+00 0. -1.
</event>
<event>
 5    1  0.2377303E-009  0.9118800E+02  0.7815553E-02  0.1125453E+00
         25   -1    0    0    0    0  0.00000000000E+00  0.00000000000E+00  0.99999998245E-14  0.12509000000E+03  0.12509000000E+03 0.  0.
        -13    1    3    3    0    0  0.57635646373E+02 -0.22233537928E+02 -0.66452386967E+01  0.62131862221E+02  0.10566000000E+00 0. -1.
         23    2    1    0    0    0  0.26230486014E+02 -0.15175609045E+02 -0.13272294795E+01  0.94756865568E+02  0.89770621741E+02 0.  0.
         13    1    3    3    0    0 -0.31405160359E+02  0.70579288834E+01  0.53180092171E+01  0.32625003347E+02  0.10566000000E+00 0.  1.
         22    1    1    0    0    0 -0.26230486014E+02  0.15175609045E+02  0.13272294795E+01  0.30333134432E+02  0.00000000000E+00 0. -1.
</event>
<event>
 5    1  0.2377303E-009  0.9118800E+02  0.7815553E-02  0.1125453E+00
         25   -1    0    0    0    0  0.00000000000E+00  0.00000000000E+00  0.99999998245E-14  0.12509000000E+03  0.12509000000E+03 0.  0.
        -13    1    3    3    0    0 -0.30626389583E+02  0.48801860209E+02  0.11159431205E+02  0.58686807441E+02  0.10566000000E+00 0.  1.
         23    2    1    0    0    0 -0.76785590772E+01  0.19327132491E+02  0.19074197337E+02  0.96870798667E+02  0.92669457269E+02 0.  0.
         13    1    3    3    0    0  0.22947830506E+02 -0.29474727718E+02  0.79147661315E+01  0.38183991226E+02  0.10566000000E+00 0. -1.
         22    1    1    0    0    0  0.76785590772E+01 -0.19327132491E+02 -0.19074197337E+02  0.28219201333E+02  0.00000000000E+00 0.  1.
</event>
<event>
 5    1  0.2377303E-009  0.9118800E+02  0.7815553E-02  0.1125453E+00
         25   -1    0    0    0    0  0.00000000000E+00  0.00000000000E+00  0.99999998245E-14  0.12509000000E+03  0.12509000000E+03 0.  0.
        -13    1    3    3    0    0 -0.22907605932E+02 -0.27741441214E+02  0.37243353095E+02  0.51782472748E+02  0.10566000000E+00 0.  1.
         23    2    1    0    0    0 -0.36350885534E+01 -0.28095426172E+02 -0.31956899451E+01  0.96580715989E+02  0.92277057962E+02 0.  0.
         13    1    3    3    0    0  0.19272517379E+02 -0.35398495853E+00 -0.40439043040E+02  0.44798243241E+02  0.10566000000E+00 0. -1.
         22    1    1    0    0    0  0.36350885534E+01  0.28095426172E+02  0.31956899451E+01  0.28509284011E+02  0.00000000000E+00 0.  1.
</event>
<event>
 5    1  0.2377303E-009  0.9118800E+02  0.7815553E-02  0.1125453E+00
         25   -1    0    0    0    0  0.00000000000E+00  0.00000000000E+00  0.99999998245E-14  0.12509000000E+03  0.12509000000E+03 0.  0.
        -13    1    3    3    0    0  0.15096395148E+02 -0.28999381129E+02  0.15642590033E+02  0.36243165415E+02  0.10566000000E+00 0.  1.
         23    2    1    0    0    0 -0.21448127591E+02  0.22230012722E+01 -0.19683127523E+02  0.95894291053E+02  0.91341806615E+02 0.  0.
         13    1    3    3    0    0 -0.36544522738E+02  0.31222382402E+02 -0.35325717556E+02  0.59651125638E+02  0.10566000000E+00 0. -1.
         22    1    1    0    0    0  0.21448127591E+02 -0.22230012722E+01  0.19683127523E+02  0.29195708947E+02  0.00000000000E+00 0. -1.
</event>
<event>
 5    1  0.2377303E-009  0.9118800E+02  0.7815553E-02  0.1125453E+00
         25   -1    0    0    0    0  0.00000000000E+00  0.00000000000E+00  0.99999998245E-14  0.12509000000E+03  0.12509000000E+03 0.  0.
        -13    1    3    3    0    0 -0.31980678592E+02  0.16754827521E+02  0.22377372678E+02  0.42476417227E+02  0.10566000000E+00 0. -1.
         23    2    1    0    0    0 -0.29671830896E+02 -0.11869121742E+02 -0.15143723587E+02  0.89725809584E+02  0.82462688180E+02 0.  0.
         13    1    3    3    0    0  0.23088476963E+01 -0.28623949263E+02 -0.37521096265E+02  0.47249392357E+02  0.10566000000E+00 0.  1.
         22    1    1    0    0    0  0.29671830896E+02  0.11869121742E+02  0.15143723587E+02  0.35364190416E+02  0.00000000000E+00 0. -1.
</event>
<event>
 5    1  0.2377303E-009  0.9118800E+02  0.7815553E-02  0.1125453E+00
         25   -1    0    0    0    0  0.00000000000E+00  0.00000000000E+00  0.99999998245E-14  0.12509000000E+03  0.12509000000E+03 0.  0.
        -13    1    3    3    0    0  0.55459644912E+02  0.24788113806E+02 -0.11482436291E+02  0.61822975560E+02  0.10566000000E+00 0.  1.
         23    2    1    0    0    0  0.22665493689E+02  0.15882306142E+02 -0.93701299945E+01  0.95870629907E+02  0.91309397600E+02 0.  0.
         13    1    3    3    0    0 -0.32794151223E+02 -0.89058076648E+01  0.21123062961E+01  0.34047654347E+02  0.10566000000E+00 0. -1.
         22    1    1    0    0    0 -0.22665493689E+02 -0.15882306142E+02  0.93701299945E+01  0.29219370093E+02  0.00000000000E+00 0.  1.
</event>
<event>
 5    1  0.2377303E-009  0.9118800E+02  0.7815553E-02  0.1125453E+00
         25   -1    0    0    0    0  0.00000000000E+00  0.00000000000E+00  0.99999998245E-14  0.12509000000E+03  0.12509000000E+03 0.  0.
        -13    1    3    3    0    0  0.82553097104E+01  0.37651918239E+02  0.14856873605E+01  0.38575063402E+02  0.10566000000E+00 0.  1.
         23    2    1    0    0    0  0.20120362944E+02 -0.17095604560E+02  0.12837140275E+02  0.95732192338E+02  0.91119546636E+02 0.  0.
         13    1    3    3    0    0  0.11865053234E+02 -0.54747522799E+02  0.11351452915E+02  0.57157128936E+02  0.10566000000E+00 0. -1.
         22    1    1    0    0    0 -0.20120362944E+02  0.17095604560E+02 -0.12837140275E+02  0.29357807662E+02  0.00000000000E+00 0. -1.
</event>
<event>
 5    1  0.2377303E-009  0.9118800E+02  0.7815553E-02  0.1125453E+00
         25   -1    0    0    0    0  0.00000000000E+00  0.00000000000E+00  0.99999998245E-14  0.12509000000E+03  0.12509000000E+03 0.  0.
        -13    1    3    3    0    0 -0.31890855733E+02  0.26336979648E+01  0.27849469415E+02  0.42421305439E+02  0.10566000000E+00 0. -1.
         23    2    1    0    0    0  0.73974989237E+01 -0.27290996716E+02  0.74999208359E+01  0.95836448000E+02  0.91262557824E+02 0.  0.
         13    1    3    3    0    0  0.39288354657E+02 -0.29924694681E+02 -0.20349548579E+02  0.53415142561E+02  0.10566000000E+00 0.  1.
         22    1    1    0    0    0 -0.73974989237E+01  0.27290996716E+02 -0.74999208359E+01  0.29253552000E+02  0.00000000000E+00 0.  1.
</event>
<event>
 5    1  0.2377303E-009  0.9118800E+02  0.7815553E-02  0.1125453E+00
         25   -1    0    0    0    0  0.00000000000E+00  0.00000000000E+00  0.99999998245E-14  0.12509000000E+03  0.12509000000E+03 0.  0.
        -13    1    3    3    0    0 -0.57622856548E+02  0.13272196481E+02  0.11368311180E+02  0.60214570158E+02  0.10566000000E+00 0.  1.
         23    2    1    0    0    0 -0.21216269681E+02  0.16593088676E+02  0.13430292904E+01  0.98122159548E+02  0.94343488253E+02 0.  0.
         13    1    3    3    0    0  0.36406586868E+02  0.33208921949E+01 -0.10025281890E+02  0.37907589390E+02  0.10566000000E+00 0. -1.
         22    1    1    0    0    0  0.21216269681E+02 -0.16593088676E+02 -0.13430292904E+01  0.26967840452E+02  0.00000000000E+00 0.  1.
</event>
<event>
 5    1  0.2377303E-009  0.9118800E+02  0.7815553E-02  0.1125453E+00
         25   -1    0    0    0    0  0.00000000000E+00  0.00000000000E+00  0.99999998245E-14  0.12509000000E+03  0.12509000000E+03 0.  0.
        -13    1    3    3    0    0 -0.78088165846E+01  0.34272254204E+02 -0.28606181499E+01  0.35266972154E+02  0.10566000000E+00 0.  1.
         23    2    1    0    0    0 -0.27131205852E+01 -0.22821176347E+02 -0.19496041751E+02  0.94952602018E+02  0.90042955709E+02 0.  0.
         13    1    3    3    0    0  0.50956959994E+01 -0.57093430551E+02 -0.16635423601E+02  0.59685629864E+02  0.10566000000E+00 0. -1.
         22    1    1    0    0    0  0.27131205852E+01  0.22821176347E+02  0.19496041751E+02  0.30137397982E+02  0.00000000000E+00 0. -1.
</event>
<event>
 5    1  0.2377303E-009  0.9118800E+02  0.7815553E-02  0.1125453E+00
         25   -1    0    0    0    0  0.00000000000E+00  0.00000000000E+00  0.99999998245E-14  0.12509000000E+03  0.12509000000E+03 0.  0.
        -13    1    3    3    0    0  0.30240298070E+02 -0.10769571538E+02  0.57895863414E+01  0.32618856088E+02  0.10566000000E+00 0. -1.
         23    2    1    0    0    0 -0.21602952595E+02  0.22099617321E+02  0.20592205452E+01  0.94117091906E+02  0.88874664293E+02 0.  0.
         13    1    3    3    0    0 -0.51843250665E+02  0.32869188859E+02 -0.37303657962E+01  0.61498235818E+02  0.10566000000E+00 0.  1.
         22    1    1    0    0    0  0.21602952595E+02 -0.22099617321E+02 -0.20592205452E+01  0.30972908094E+02  0.00000000000E+00 0.  1.
</event>
<event>
 5    1  0.2377303E-009  0.9118800E+02  0.7815553E-02  0.1125453E+00
         25   -1    0    0    0    0  0.00000000000E+00  0.00000000000E+00  0.99999998245E-14  0.12509000000E+03  0.12509000000E+03 0.  0.
        -13    1    3    3    0    0  0.71956920462E+01 -0.26787179635E+02  0.22075047824E+02  0.35449257782E+02  0.10566000000E+00 0. -1.
         23    2    1    0    0    0 -0.21762817139E+02  0.18129853429E+02 -0.64665325962E+01  0.96036121791E+02  0.91535833692E+02 0.  0.
         13    1    3    3    0    0 -0.28958509185E+02  0.44917033064E+02 -0.28541580420E+02  0.60586864009E+02  0.10566000000E+00 0.  1.
         22    1    1    0    0    0  0.21762817139E+02 -0.18129853429E+02  0.64665325962E+01  0.29053878209E+02  0.00000000000E+00 0.  1.
</event>
<event>
 5    1  0.2377303E-009  0.9118800E+02  0.7815553E-02  0.1125453E+00
         25   -1    0    0    0    0  0.00000000000E+00  0.00000000000E+00  0.99999998245E-14  0.12509000000E+03  0.12509000000E+03 0.  0.
        -13    1    3    3    0    0 -0.47273156934E+02  0.23663613801E+02 -0.31502930854E+02  0.61539936635E+02  0.10566000000E+00 0. -1.
         23    2    1    0    0    0 -0.23981692536E+02  0.36915952977E+01 -0.16904496561E+02  0.95517860127E+02  0.90824832213E+02 0.  0.
         13    1    3    3    0    0  0.23291464399E+02 -0.19972018503E+02  0.14598434293E+02  0.33977923491E+02  0.10566000000E+00 0.  1.
         22    1    1    0    0    0  0.23981692536E+02 -0.36915952977E+01  0.16904496561E+02  0.29572139873E+02  0.00000000000E+00 0. -1.
</event>
<event>
 5    1  0.2377303E-009  0.9118800E+02  0.7815553E-02  0.1125453E+00
         25   -1    0    0    0    0  0.00000000000E+00  0.00000000000E+00  0.99999998245E-14  0.12509000000E+03  0.12509000000E+03 0.  0.
        -13    1    3    3    0    0 -0.29062354408E+02  0.83182559950E+01 -0.22616662740E+02  0.37753654447E+02  0.10566000000E+00 0.  1.
         23    2    1    0    0    0 -0.58697763901E+01 -0.45846377349E+01  0.28652607489E+02  0.95485184615E+02  0.90779818170E+02 0.  0.
         13    1    3    3    0    0  0.23192578018E+02 -0.12902893730E+02  0.51269270229E+02  0.57731530169E+02  0.10566000000E+00 0. -1.
         22    1    1    0    0    0  0.58697763901E+01  0.45846377349E+01 -0.28652607489E+02  0.29604815385E+02  0.00000000000E+00 0. -1.
</event>
<event>
 5    1  0.2377303E-009  0.9118800E+02  0.7815553E-02  0.1125453E+00
         25   -1    0    0    0    0  0.00000000000E+00  0.00000000000E+00  0.99999998245E-14  0.12509000000E+03  0.12509000000E+03 0.  0.
        -13    1    3    3    0    0 -0.47826532255E+02 -0.11987493501E+02  0.14402069475E+02  0.51366408841E+02  0.10566000000E+00 0.  1.
         23    2    1    0    0    0 -0.19794230535E+02  0.20052440773E+02 -0.16526837766E+01  0.96865129636E+02  0.92661804603E+02 0.  0.
         13    1    3    3    0    0  0.28032301720E+02  0.32039934274E+02 -0.16054753252E+02  0.45498720795E+02  0.10566000000E+00 0. -1.
         22    1    1    0    0    0  0.19794230535E+02 -0.20052440773E+02  0.16526837766E+01  0.28224870364E+02  0.00000000000E+00 0.  1.
</event>
<event>
 5    1  0.2377303E-009  0.9118800E+02  0.7815553E-02  0.1125453E+00
         25   -1    0    0    0    0  0.00000000000E+00  0.00000000000E+00  0.99999998245E-14  0.12509000000E+03  0.12509000000E+03 0.  0.
        -13    1    3    3    0    0 -0.39854506993E+02 -0.58011094834E+01 -0.30500631031E+02  0.50520631986E+02  0.10566000000E+00 0.  1.
         23    2    1    0    0    0  0.21361444147E+01 -0.18810005452E+02 -0.23304334786E+02  0.95065486051E+02  0.90199640799E+02 0.  0.
         13    1    3    3    0    0  0.41990651408E+02 -0.13008895968E+02  0.71962962453E+01  0.44544854065E+02  0.10566000000E+00 0. -1.
         22    1    1    0    0    0 -0.21361444147E+01  0.18810005452E+02  0.23304334786E+02  0.30024513949E+02  0.00000000000E+00 0.  1.
</event>
<event>
 5    1  0.2377303E-009  0.9118800E+02  0.7815553E-02  0.1125453E+00
         25   -1    0    0    0    0  0.00000000000E+00  0.00000000000E+00  0.99999998245E-14  0.12509000000E+03  0.12509000000E+03 0.  0.
        -13    1    3    3    0    0  0.19884416928E+02 -0.10197480103E+02 -0.57979582287E+02  0.62137120654E+02  0.10566000000E+00 0. -1.
         23    2    1    0    0    0  0.79008039230E+01 -0.22061264676E-01 -0.28102247171E+02  0.95898229149E+02  0.91347199566E+02 0.  0.
         13    1    3    3    0    0 -0.11983613005E+02  0.10175418838E+02  0.29877335115E+02  0.33761108495E+02  0.10566000000E+00 0.  1.
         22    1    1    0    0    0 -0.79008039230E+01  0.22061264676E-01  0.28102247171E+02  0.29191770851E+02  0.00000000000E+00 0. -1.
</event>
<event>
 5    1  0.2377303E-009  0.9118800E+02  0.7815553E-02  0.1125453E+00
         25   -1    0    0    0    0  0.00000000000E+00  0.00000000000E+00  0.99999998245E-14  0.12509000000E+03  0.12509000000E+03 0.  0.
        -13    1    3    3    0    0 -0.15318691956E+02 -0.43687511695E+02  0.14981066496E+02  0.48659064097E+02  0.10566000000E+00 0. -1.
         23    2    1    0    0    0 -0.21372311058E+02  0.38853267807E+01  0.18238363923E+02  0.96726125745E+02  0.92473964114E+02 0.  0.
         13    1    3    3    0    0 -0.60536191018E+01  0.47572838476E+02  0.32572974267E+01  0.48067061648E+02  0.10566000000E+00 0.  1.
         22    1    1    0    0    0  0.21372311058E+02 -0.38853267807E+01 -0.18238363923E+02  0.28363874255E+02  0.00000000000E+00 0.  1.
</event>
<event>
 5    1  0.2377303E-009  0.9118800E+02  0.7815553E-02  0.1125453E+00
         25   -1    0    0    0    0  0.00000000000E+00  0.00000000000E+00  0.99999998245E-14  0.12509000000E+03  0.12509000000E+03 0.  0.
        -13    1    3    3    0    0 -0.14891253289E+02 -0.30830950476E+02  0.92329228521E+01  0.35462021378E+02  0.10566000000E+00 0.  1.
         23    2    1    0    0    0 -0.29109528387E+01  0.16731601224E+02 -0.24707706028E+02  0.95108491314E+02  0.90259261336E+02 0.  0.
         13    1    3    3    0    0  0.11980300450E+02  0.47562551700E+02 -0.33940628880E+02  0.59646469936E+02  0.10566000000E+00 0. -1.
         22    1    1    0    0    0  0.29109528387E+01 -0.16731601224E+02  0.24707706028E+02  0.29981508686E+02  0.00000000000E+00 0. -1.
</event>
<event>
 5    1  0.2377303E-009  0.9118800E+02  0.7815553E-02  0.1125453E+00
         25   -1    0    0    0    0  0.00000000000E+00  0.00000000000E+00  0.99999998245E-14  0.12509000000E+03  0.12509000000E+03 0.  0.
        -13    1    3    3    0    0 -0.33650966602E+02 -0.46797695258E+02 -0.16584663813E+02  0.59978946911E+02  0.10566000000E+00 0. -1.
         23    2    1    0    0    0 -0.25723953043E+02 -0.27846128121E+02  0.12157601748E+01  0.87161031068E+02  0.78475720146E+02 0.  0.
         13    1    3    3    0    0  0.79270135592E+01  0.18951567137E+02  0.17800423988E+02  0.27182084157E+02  0.10566000000E+00 0.  1.
         22    1    1    0    0    0  0.25723953043E+02  0.27846128121E+02 -0.12157601748E+01  0.37928968932E+02  0.00000000000E+00 0. -1.
</event>
<event>
 5    1  0.2377303E-009  0.9118800E+02  0.7815553E-02  0.1125453E+00
         25   -1    0    0    0    0  0.00000000000E+00  0.00000000000E+00  0.99999998245E-14  0.12509000000E+03  0.12509000000E+03 0.  0.
        -13    1    3    3    0    0 -0.22626597978E+01  0.55029257449E+02 -0.14080227126E+02  0.56847187835E+02  0.10566000000E+00 0.  1.
         23    2    1    0    0    0  0.15400414522E+02  0.25264344449E+02  0.28265767610E+01  0.95367123220E+02  0.90616989506E+02 0.  0.
         13    1    3    3    0    0  0.17663074320E+02 -0.29764913000E+02  0.16906803887E+02  0.38519935385E+02  0.10566000000E+00 0. -1.
         22    1    1    0    0    0 -0.15400414522E+02 -0.25264344449E+02 -0.28265767610E+01  0.29722876780E+02  0.00000000000E+00 0.  1.
</event>
<event>
 5    1  0.2377303E-009  0.9118800E+02  0.7815553E-02  0.1125453E+00
         25   -1    0    0    0    0  0.00000000000E+00  0.00000000000E+00  0.99999998245E-14  0.12509000000E+03  0.12509000000E+03 0.  0.
        -13    1    3    3    0    0 -0.41436804448E+02 -0.19254105127E+02 -0.29112929765E+02  0.54178438245E+02  0.10566000000E+00 0. -1.
         23    2    1    0    0    0 -0.22866855052E+01  0.11416140024E+01 -0.26571423533E+02  0.98395941454E+02  0.94705799890E+02 0.  0.
         13    1    3    3    0    0  0.39150118943E+02  0.20395719130E+02  0.25415062329E+01  0.44217503209E+02  0.10566000000E+00 0.  1.
         22    1    1    0    0    0  0.22866855052E+01 -0.11416140024E+01  0.26571423533E+02  0.26694058546E+02  0.00000000000E+00 0.  1.
</event>
<event>
 5    1  0.2377303E-009  0.9118800E+02  0.7815553E-02  0.1125453E+00
         25   -1    0    0    0    0  0.00000000000E+00  0.00000000000E+00  0.99999998245E-14  0.12509000000E+03  0.12509000000E+03 0.  0.
        -13    1    3    3    0    0  0.37419115938E+02  0.41935032732E+02 -0.19736750045E+02  0.59567505187E+02  0.10566000000E+00 0. -1.
         23    2    1    0    0    0  0.34489712142E+02  0.21456922710E+02 -0.69693888016E+01  0.83876990451E+02  0.73053660900E+02 0.  0.
         13    1    3    3    0    0 -0.29294037960E+01 -0.20478110021E+02  0.12767361243E+02  0.24309485264E+02  0.10566000000E+00 0.  1.
         22    1    1    0    0    0 -0.34489712142E+02 -0.21456922710E+02  0.69693888016E+01  0.41213009549E+02  0.00000000000E+00 0. -1.
</event>
<event>
 5    1  0.2377303E-009  0.9118800E+02  0.7815553E-02  0.1125453E+00
         25   -1    0    0    0    0  0.00000000000E+00  0.00000000000E+00  0.99999998245E-14  0.12509000000E+03  0.12509000000E+03 0.  0.
        -13    1    3    3    0    0  0.14380766074E+02  0.41778182511E+02 -0.13521066936E+02  0.46206637855E+02  0.10566000000E+00 0.  1.
         23    2    1    0    0    0  0.26760878484E+02 -0.64025241183E+01 -0.89166156789E+01  0.96165218800E+02  0.91712083933E+02 0.  0.
         13    1    3    3    0    0  0.12380112411E+02 -0.48180706629E+02  0.46044512574E+01  0.49958580944E+02  0.10566000000E+00 0. -1.
         22    1    1    0    0    0 -0.26760878484E+02  0.64025241183E+01  0.89166156789E+01  0.28924781200E+02  0.00000000000E+00 0. -1.
</event>
<event>
 5    1  0.2377303E-009  0.9118800E+02  0.7815553E-02  0.1125453E+00
         25   -1    0    0    0    0  0.00000000000E+00  0.00000000000E+00  0.99999998245E-14  0.12509000000E+03  0.12509000000E+03 0.  0.
        -13    1    3    3    0    0 -0.96433025677E+01 -0.32546918547E+02 -0.48090990673E+02  0.58864673101E+02  0.10566000000E+00 0.  1.
         23    2    1    0    0    0 -0.29880530346E+01 -0.25790458178E+02 -0.11448104783E+02  0.96715093884E+02  0.92459040055E+02 0.  0.
         13    1    3    3    0    0  0.66552495331E+01  0.67564603692E+01  0.36642885890E+02  0.37850420783E+02  0.10566000000E+00 0. -1.
         22    1    1    0    0    0  0.29880530346E+01  0.25790458178E+02  0.11448104783E+02  0.28374906116E+02  0.00000000000E+00 0.  1.
</event>
<event>
 5    1  0.2377303E-009  0.9118800E+02  0.7815553E-02  0.1125453E+00
         25   -1    0    0    0    0  0.00000000000E+00  0.00000000000E+00  0.99999998245E-14  0.12509000000E+03  0.12509000000E+03 0.  0.
        -13    1    3    3    0    0  0.43398563240E+02  0.18432475537E+02  0.36420652136E+01  0.47291302042E+02  0.10566000000E+00 0. -1.
         23    2    1    0    0    0  0.95138471637E+01 -0.32275137834E+01 -0.25977275371E+02  0.97237729558E+02  0.93163442835E+02 0.  0.
         13    1    3    3    0    0 -0.33884716077E+02 -0.21659989321E+02 -0.29619340584E+02  0.49946427516E+02  0.10566000000E+00 0.  1.
         22    1    1    0    0    0 -0.95138471637E+01  0.32275137834E+01  0.25977275371E+02  0.27852270442E+02  0.00000000000E+00 0. -1.
</event>
<event>
 5    1  0.2377303E-009  0.9118800E+02  0.7815553E-02  0.1125453E+00
         25   -1    0    0    0    0  0.00000000000E+00  0.00000000000E+00  0.99999998245E-14  0.12509000000E+03  0.12509000000E+03 0.  0.
        -13    1    3    3    0    0 -0.13187374891E+02 -0.36451119264E+02 -0.20848334714E+02  0.44014261058E+02  0.10566000000E+00 0.  1.
         23    2    1    0    0    0  0.22333275680E+02  0.35436478882E+01  0.24221190957E+01  0.10234798373E+03  0.99789330444E+02 0.  0.
         13    1    3    3    0    0  0.35520650571E+02  0.39994767153E+02  0.23270453810E+02  0.58333722675E+02  0.10566000000E+00 0. -1.
         22    1    1    0    0    0 -0.22333275680E+02 -0.35436478882E+01 -0.24221190957E+01  0.22742016267E+02  0.00000000000E+00 0. -1.
</event>
<event>
 5    1  0.2377303E-009  0.9118800E+02  0.7815553E-02  0.1125453E+00
         25   -1    0    0    0    0  0.00000000000E+00  0.00000000000E+00  0.99999998245E-14  0.12509000000E+03  0.12509000000E+03 0.  0.
        -13    1    3    3    0    0  0.20263416799E+02 -0.21618848061E+02  0.31620806087E+02  0.43334365040E+02  0.10566000000E+00 0.  1.
         23    2    1    0    0    0  0.20900866904E+02  0.21155149786E+02  0.21667625449E+01  0.95272530964E+02  0.90486317731E+02 0.  0.
         13    1    3    3    0    0  0.63745010494E+00  0.42773997847E+02 -0.29454043542E+02  0.51938165923E+02  0.10566000000E+00 0. -1.
         22    1    1    0    0    0 -0.20900866904E+02 -0.21155149786E+02 -0.21667625449E+01  0.29817469036E+02  0.00000000000E+00 0. -1.
</event>
<event>
 5    1  0.2377303E-009  0.9118800E+02  0.7815553E-02  0.1125453E+00
         25   -1    0    0    0    0  0.00000000000E+00  0.00000000000E+00  0.99999998245E-14  0.12509000000E+03  0.12509000000E+03 0.  0.
        -13    1    3    3    0    0  0.24656847312E+02 -0.21450065956E+02  0.17928261551E+02  0.37275986575E+02  0.10566000000E+00 0.  1.
         23    2    1    0    0    0 -0.25729006323E+02 -0.67699925072E+01 -0.99298592778E+01  0.96692523525E+02  0.92428499043E+02 0.  0.
         13    1    3    3    0    0 -0.50385853635E+02  0.14680073448E+02 -0.27858120829E+02  0.59416536950E+02  0.10566000000E+00 0. -1.
         22    1    1    0    0    0  0.25729006323E+02  0.67699925072E+01  0.99298592778E+01  0.28397476475E+02  0.00000000000E+00 0. -1.
</event>
<event>
 5    1  0.2377303E-009  0.9118800E+02  0.7815553E-02  0.1125453E+00
         25   -1    0    0    0    0  0.00000000000E+00  0.00000000000E+00  0.99999998245E-14  0.12509000000E+03  0.12509000000E+03 0.  0.
        -13    1    3    3    0    0 -0.15002794805E+02 -0.18744659147E+02  0.45972348878E+02  0.51864382035E+02  0.10566000000E+00 0.  1.
         23    2    1    0    0    0  0.80754534240E+01 -0.28204358286E+02  0.13539720444E+02  0.92778658275E+02  0.86970435363E+02 0.  0.
         13    1    3    3    0    0  0.23078248229E+02 -0.94596991395E+01 -0.32432628434E+02  0.40914276240E+02  0.10566000000E+00 0. -1.
         22    1    1    0    0    0 -0.80754534240E+01  0.28204358286E+02 -0.13539720444E+02  0.32311341725E+02  0.00000000000E+00 0.  1.
</event>
<event>
 5    1  0.2377303E-009  0.9118800E+02  0.7815553E-02  0.1125453E+00
         25   -1    0    0    0    0  0.00000000000E+00  0.00000000000E+00  0.99999998245E-14  0.12509000000E+03  0.12509000000E+03 0.  0.
        -13    1    3    3    0    0  0.62048594536E+02 -0.39890597396E+01 -0.39414935455E+01  0.62301582780E+02  0.10566000000E+00 0.  1.
         23    2    1    0    0    0  0.29095814223E+02  0.56530908554E+00  0.12062566658E+01  0.95963705440E+02  0.91436818224E+02 0.  0.
         13    1    3    3    0    0 -0.32952780312E+02  0.45543688251E+01  0.51477502112E+01  0.33662122660E+02  0.10566000000E+00 0. -1.
         22    1    1    0    0    0 -0.29095814223E+02 -0.56530908554E+00 -0.12062566658E+01  0.29126294560E+02  0.00000000000E+00 0.  1.
</event>
<event>
 5    1  0.2377303E-009  0.9118800E+02  0.7815553E-02  0.1125453E+00
         25   -1    0    0    0    0  0.00000000000E+00  0.00000000000E+00  0.99999998245E-14  0.12509000000E+03  0.12509000000E+03 0.  0.
        -13    1    3    3    0    0 -0.19386844008E+02  0.29270599963E+02 -0.17230702202E+02  0.39109155005E+02  0.10566000000E+00 0. -1.
         23    2    1    0    0    0  0.28335028199E+02  0.10795069667E+02  0.39874662635E+01  0.94507206809E+02  0.89422060475E+02 0.  0.
         13    1    3    3    0    0  0.47721872207E+02 -0.18475530296E+02  0.21218168465E+02  0.55398051804E+02  0.10566000000E+00 0.  1.
         22    1    1    0    0    0 -0.28335028199E+02 -0.10795069667E+02 -0.39874662635E+01  0.30582793191E+02  0.00000000000E+00 0.  1.
</event>
<event>
 5    1  0.2377303E-009  0.9118800E+02  0.7815553E-02  0.1125453E+00
         25   -1    0    0    0    0  0.00000000000E+00  0.00000000000E+00  0.99999998245E-14  0.12509000000E+03  0.12509000000E+03 0.  0.
        -13    1    3    3    0    0  0.28602253756E+02  0.17898772109E+02  0.48836618940E+02  0.59358920783E+02  0.10566000000E+00 0. -1.
         23    2    1    0    0    0  0.36593711235E+01  0.18684445964E+02  0.21202756491E+02  0.96593396680E+02  0.92294246198E+02 0.  0.
         13    1    3    3    0    0 -0.24942882632E+02  0.78567385512E+00 -0.27633862450E+02  0.37234475897E+02  0.10566000000E+00 0.  1.
         22    1    1    0    0    0 -0.36593711235E+01 -0.18684445964E+02 -0.21202756491E+02  0.28496603320E+02  0.00000000000E+00 0. -1.
</event>
<event>
 5    1  0.2377303E-009  0.9118800E+02  0.7815553E-02  0.1125453E+00
         25   -1    0    0    0    0  0.00000000000E+00  0.00000000000E+00  0.99999998245E-14  0.12509000000E+03  0.12509000000E+03 0.  0.
        -13    1    3    3    0    0  0.27710641390E+02 -0.12843192943E+02 -0.50699991285E+02  0.59188913925E+02  0.10566000000E+00 0.  1.
         23    2    1    0    0    0  0.90462312976E+00  0.25245730922E+00 -0.28987103910E+02  0.96087685079E+02  0.91606271363E+02 0.  0.
         13    1    3    3    0    0 -0.26806018260E+02  0.13095650252E+02  0.21712887375E+02  0.36898771154E+02  0.10566000000E+00 0. -1.
         22    1    1    0    0    0 -0.90462312976E+00 -0.25245730922E+00  0.28987103910E+02  0.29002314921E+02  0.00000000000E+00 0.  1.
</event>
<event>
 5    1  0.2377303E-009  0.9118800E+02  0.7815553E-02  0.1125453E+00
         25   -1    0    0    0    0  0.00000000000E+00  0.00000000000E+00  0.99999998245E-14  0.12509000000E+03  0.12509000000E+03 0.  0.
        -13    1    3    3    0    0  0.38307082073E+02 -0.43656322356E+02 -0.94117001794E+01  0.58837898356E+02  0.10566000000E+00 0.  1.
         23    2    1    0    0    0  0.26677994395E+02 -0.96233145267E+01  0.22340430208E+01  0.96641546340E+02  0.92359482260E+02 0.  0.
         13    1    3    3    0    0 -0.11629087678E+02  0.34033007830E+02  0.11645743200E+02  0.37803647984E+02  0.10566000000E+00 0. -1.
         22    1    1    0    0    0 -0.26677994395E+02  0.96233145267E+01 -0.22340430208E+01  0.28448453660E+02  0.00000000000E+00 0.  1.
</event>
<event>
 5    1  0.2377303E-009  0.9118800E+02  0.7815553E-02  0.1125453E+00
         25   -1    0    0    0    0  0.00000000000E+00  0.00000000000E+00  0.99999998245E-14  0.12509000000E+03  0.12509000000E+03 0.  0.
        -13    1    3    3    0    0  0.33840300622E+02  0.74622691885E+01  0.28352705755E+02  0.44774306195E+02  0.10566000000E+00 0. -1.
         23    2    1    0    0    0 -0.13497364768E+01  0.30195492038E+02  0.92176870478E+00  0.94850304474E+02  0.89900728992E+02 0.  0.
         13    1    3    3    0    0 -0.35190037098E+02  0.22733222849E+02 -0.27430937050E+02  0.50075998279E+02  0.10566000000E+00 0.  1.
         22    1    1    0    0    0  0.13497364768E+01 -0.30195492038E+02 -0.92176870478E+00  0.30239695526E+02  0.00000000000E+00 0. -1.
</event>
<event>
 5    1  0.2377303E-009  0.9118800E+02  0.7815553E-02  0.1125453E+00
         25   -1    0    0    0    0  0.00000000000E+00  0.00000000000E+00  0.99999998245E-14  0.12509000000E+03  0.12509000000E+03 0.  0.
        -13    1    3    3    0    0  0.27213997348E+02  0.18603064555E+02  0.37916303169E+02  0.50242739501E+02  0.10566000000E+00 0.  1.
         23    2    1    0    0    0  0.19485895252E+02  0.19971171784E+02 -0.73912773808E+01  0.96225163303E+02  0.91793808371E+02 0.  0.
         13    1    3    3    0    0 -0.77281020965E+01  0.13681072290E+01 -0.45307580550E+02  0.45982423802E+02  0.10566000000E+00 0. -1.
         22    1    1    0    0    0 -0.19485895252E+02 -0.19971171784E+02  0.73912773808E+01  0.28864836697E+02  0.00000000000E+00 0.  1.
</event>
<event>
 5    1  0.2377303E-009  0.9118800E+02  0.7815553E-02  0.1125453E+00
         25   -1    0    0    0    0  0.00000000000E+00  0.00000000000E+00  0.99999998245E-14  0.12509000000E+03  0.12509000000E+03 0.  0.
        -13    1    3    3    0    0  0.33573739046E+01 -0.28482431744E+02  0.48849573195E+02  0.56646384201E+02  0.10566000000E+00 0.  1.
         23    2    1    0    0    0  0.18441168009E+02 -0.35332920528E+01  0.18497273933E+02  0.98732648592E+02  0.95149492510E+02 0.  0.
         13    1    3    3    0    0  0.15083794104E+02  0.24949139692E+02 -0.30352299262E+02  0.42086264392E+02  0.10566000000E+00 0. -1.
         22    1    1    0    0    0 -0.18441168009E+02  0.35332920528E+01 -0.18497273933E+02  0.26357351408E+02  0.00000000000E+00 0.  1.
</event>
<event>
 5    1  0.2377303E-009  0.9118800E+02  0.7815553E-02  0.1125453E+00
         25   -1    0    0    0    0  0.00000000000E+00  0.00000000000E+00  0.99999998245E-14  0.12509000000E+03  0.12509000000E+03 0.  0.
        -13    1    3    3    0    0 -0.33262559762E+02  0.30153577843E+02  0.17205412146E+02  0.48079865950E+02  0.10566000000E+00 0.  1.
         23    2    1    0    0    0 -0.25040751738E+02 -0.75193232761E+01 -0.11873155444E+02  0.96374998862E+02  0.91997766904E+02 0.  0.
         13    1    3    3    0    0  0.82218080234E+01 -0.37672901119E+02 -0.29078567590E+02  0.48295132912E+02  0.10566000000E+00 0. -1.
         22    1    1    0    0    0  0.25040751738E+02  0.75193232761E+01  0.11873155444E+02  0.28715001138E+02  0.00000000000E+00 0. -1.
</event>
<event>
 5    1  0.2377303E-009  0.9118800E+02  0.7815553E-02  0.1125453E+00
         25   -1    0    0    0    0  0.00000000000E+00  0.00000000000E+00  0.99999998245E-14  0.12509000000E+03  0.12509000000E+03 0.  0.
        -13    1    3    3    0    0 -0.33733353085E+02  0.27020279272E+02 -0.39857788372E+02  0.58793614111E+02  0.10566000000E+00 0. -1.
         23    2    1    0    0    0 -0.17430801505E+02 -0.13694654644E+01 -0.24592534932E+02  0.94915490043E+02  0.89991384026E+02 0.  0.
         13    1    3    3    0    0  0.16302551580E+02 -0.28389744736E+02  0.15265253440E+02  0.36121875932E+02  0.10566000000E+00 0.  1.
         22    1    1    0    0    0  0.17430801505E+02  0.13694654644E+01  0.24592534932E+02  0.30174509957E+02  0.00000000000E+00 0. -1.
</event>
<event>
 5    1  0.2377303E-009  0.9118800E+02  0.7815553E-02  0.1125453E+00
         25   -1    0    0    0    0  0.00000000000E+00  0.00000000000E+00  0.99999998245E-14  0.12509000000E+03  0.12509000000E+03 0.  0.
        -13    1    3    3    0    0 -0.46060488816E+02 -0.37703010736E+01 -0.21184930243E+02  0.50838924394E+02  0.10566000000E+00 0.  1.
         23    2    1    0    0    0 -0.22376850928E+02  0.98590240585E+01  0.15166898582E+02  0.96315729801E+02  0.91917143024E+02 0.  0.
         13    1    3    3    0    0  0.23683637887E+02  0.13629325132E+02  0.36351828825E+02  0.45476805407E+02  0.10566000000E+00 0. -1.
         22    1    1    0    0    0  0.22376850928E+02 -0.98590240585E+01 -0.15166898582E+02  0.28774270199E+02  0.00000000000E+00 0.  1.
</event>
<event>
 5    1  0.2377303E-009  0.9118800E+02  0.7815553E-02  0.1125453E+00
         25   -1    0    0    0    0  0.00000000000E+00  0.00000000000E+00  0.99999998245E-14  0.12509000000E+03  0.12509000000E+03 0.  0.
        -13    1    3    3    0    0  0.45164866597E+02  0.22310768802E+02 -0.96630809182E+00  0.50384327867E+02  0.10566000000E+00 0.  1.
         23    2    1    0    0    0  0.11111336166E+02  0.82680999436E+01 -0.26489526090E+02  0.95198224199E+02  0.90383536279E+02 0.  0.
         13    1    3    3    0    0 -0.34053530431E+02 -0.14042668858E+02 -0.25523217998E+02  0.44813896332E+02  0.10566000000E+00 0. -1.
         22    1    1    0    0    0 -0.11111336166E+02 -0.82680999436E+01  0.26489526090E+02  0.29891775801E+02  0.00000000000E+00 0.  1.
</event>
<event>
 5    1  0.2377303E-009  0.9118800E+02  0.7815553E-02  0.1125453E+00
         25   -1    0    0    0    0  0.00000000000E+00  0.00000000000E+00  0.99999998245E-14  0.12509000000E+03  0.12509000000E+03 0.  0.
        -13    1    3    3    0    0 -0.13707660310E+02  0.36180323653E+02 -0.98991401007E+01  0.39936448385E+02  0.10566000000E+00 0.  1.
         23    2    1    0    0    0  0.17825401406E+02 -0.80901710871E+01 -0.22022657369E+02  0.95624880942E+02  0.90972108990E+02 0.  0.
         13    1    3    3    0    0  0.31533061716E+02 -0.44270494740E+02 -0.12123517268E+02  0.55688432557E+02  0.10566000000E+00 0. -1.
         22    1    1    0    0    0 -0.17825401406E+02  0.80901710871E+01  0.22022657369E+02  0.29465119058E+02  0.00000000000E+00 0. -1.
</event>
<event>
 5    1  0.2377303E-009  0.9118800E+02  0.7815553E-02  0.1125453E+00
         25   -1    0    0    0    0  0.00000000000E+00  0.00000000000E+00  0.99999998245E-14  0.12509000000E+03  0.12509000000E+03 0.  0.
        -13    1    3    3    0    0  0.23386476933E+02 -0.51321071503E+01  0.25643074569E+02  0.35083390152E+02  0.10566000000E+00 0. -1.
         23    2    1    0    0    0 -0.12657226285E+02  0.21956869419E+02 -0.14875652886E+02  0.95703020899E+02  0.91079490932E+02 0.  0.
         13    1    3    3    0    0 -0.36043703219E+02  0.27088976569E+02 -0.40518727455E+02  0.60619630747E+02  0.10566000000E+00 0.  1.
         22    1    1    0    0    0  0.12657226285E+02 -0.21956869419E+02  0.14875652886E+02  0.29386979101E+02  0.00000000000E+00 0.  1.
</event>
<event>
 5    1  0.2377303E-009  0.9118800E+02  0.7815553E-02  0.1125453E+00
         25   -1    0    0    0    0  0.00000000000E+00  0.00000000000E+00  0.99999998245E-14  0.12509000000E+03  0.12509000000E+03 0.  0.
        -13    1    3    3    0    0  0.83517113739E+01 -0.14037013506E+02 -0.30326163618E+02  0.34445263751E+02  0.10566000000E+00 0. -1.
         23    2    1    0    0    0 -0.16531917164E+02  0.26359234887E+01  0.23613974124E+02  0.96143978655E+02  0.91683109022E+02 0.  0.
         13    1    3    3    0    0 -0.24883628538E+02  0.16672936995E+02  0.53940137742E+02  0.61698714905E+02  0.10566000000E+00 0.  1.
         22    1    1    0    0    0  0.16531917164E+02 -0.26359234887E+01 -0.23613974124E+02  0.28946021345E+02  0.00000000000E+00 0.  1.
</event>
<event>
 5    1  0.2377303E-009  0.9118800E+02  0.7815553E-02  0.1125453E+00
         25   -1    0    0    0    0  0.00000000000E+00  0.00000000000E+00  0.99999998245E-14  0.12509000000E+03  0.12509000000E+03 0.  0.
        -13    1    3    3    0    0  0.44955829862E+02  0.38820884417E+02  0.13955578145E+02  0.61015219666E+02  0.10566000000E+00 0.  1.
         23    2    1    0    0    0  0.22432213343E+02  0.19899008953E+02 -0.29751713761E+01  0.94956523641E+02  0.90048403564E+02 0.  0.
         13    1    3    3    0    0 -0.22523616519E+02 -0.18921875464E+02 -0.16930749521E+02  0.33941303975E+02  0.10566000000E+00 0. -1.
         22    1    1    0    0    0 -0.22432213343E+02 -0.19899008953E+02  0.29751713761E+01  0.30133476359E+02  0.00000000000E+00 0.  1.
</event>
<event>
 5    1  0.2377303E-009  0.9118800E+02  0.7815553E-02  0.1125453E+00
         25   -1    0    0    0    0  0.00000000000E+00  0.00000000000E+00  0.99999998245E-14  0.12509000000E+03  0.12509000000E+03 0.  0.
        -13    1    3    3    0    0 -0.25292262390E+02  0.25494664948E+02 -0.44522998772E+01  0.36187160926E+02  0.10566000000E+00 0.  1.
         23    2    1    0    0    0  0.98676941255E+01 -0.14195177294E+02  0.23333375447E+02  0.96050012818E+02  0.91554814766E+02 0.  0.
         13    1    3    3    0    0  0.35159956516E+02 -0.39689842242E+02  0.27785675324E+02  0.59862851892E+02  0.10566000000E+00 0. -1.
         22    1    1    0    0    0 -0.98676941255E+01  0.14195177294E+02 -0.23333375447E+02  0.29039987182E+02  0.00000000000E+00 0. -1.
</event>
<event>
 5    1  0.2377303E-009  0.9118800E+02  0.7815553E-02  0.1125453E+00
         25   -1    0    0    0    0  0.00000000000E+00  0.00000000000E+00  0.99999998245E-14  0.12509000000E+03  0.12509000000E+03 0.  0.
        -13    1    3    3    0    0 -0.38934193266E+02 -0.12487196889E+02  0.11440696249E+01  0.40903808512E+02  0.10566000000E+00 0.  1.
         23    2    1    0    0    0  0.14401793329E+02 -0.25270489108E+02  0.34562043559E+01  0.95799137612E+02  0.91211403606E+02 0.  0.
         13    1    3    3    0    0  0.53335986595E+02 -0.12783292219E+02  0.23121347310E+01  0.54895329101E+02  0.10566000000E+00 0. -1.
         22    1    1    0    0    0 -0.14401793329E+02  0.25270489108E+02 -0.34562043559E+01  0.29290862388E+02  0.00000000000E+00 0. -1.
</event>
<event>
 5    1  0.2377303E-009  0.9118800E+02  0.7815553E-02  0.1125453E+00
         25   -1    0    0    0    0  0.00000000000E+00  0.00000000000E+00  0.99999998245E-14  0.12509000000E+03  0.12509000000E+03 0.  0.
        -13    1    3    3    0    0  0.52008224437E+02  0.33136009125E+02  0.63222275998E+01  0.61990581830E+02  0.10566000000E+00 0. -1.
         23    2    1    0    0    0  0.19570676069E+02  0.19315855705E+02  0.36591394128E+01  0.97350083910E+02  0.93314178411E+02 0.  0.
         13    1    3    3    0    0 -0.32437548367E+02 -0.13820153420E+02 -0.26630881870E+01  0.35359502080E+02  0.10566000000E+00 0.  1.
         22    1    1    0    0    0 -0.19570676069E+02 -0.19315855705E+02 -0.36591394128E+01  0.27739916090E+02  0.00000000000E+00 0. -1.
</event>
<event>
 5    1  0.2377303E-009  0.9118800E+02  0.7815553E-02  0.1125453E+00
         25   -1    0    0    0    0  0.00000000000E+00  0.00000000000E+00  0.99999998245E-14  0.12509000000E+03  0.12509000000E+03 0.  0.
        -13    1    3    3    0    0  0.34497365229E+02 -0.12782309747E+02 -0.27449213925E+02  0.45901265335E+02  0.10566000000E+00 0. -1.
         23    2    1    0    0    0  0.22882412669E+02  0.20694068362E+02  0.48641385932E+01  0.93856858641E+02  0.88507631280E+02 0.  0.
         13    1    3    3    0    0 -0.11614952560E+02  0.33476378110E+02  0.32313352518E+02  0.47955593306E+02  0.10566000000E+00 0.  1.
         22    1    1    0    0    0 -0.22882412669E+02 -0.20694068362E+02 -0.48641385932E+01  0.31233141359E+02  0.00000000000E+00 0. -1.
</event>
<event>
 5    1  0.2377303E-009  0.9118800E+02  0.7815553E-02  0.1125453E+00
         25   -1    0    0    0    0  0.00000000000E+00  0.00000000000E+00  0.99999998245E-14  0.12509000000E+03  0.12509000000E+03 0.  0.
        -13    1    3    3    0    0  0.18585049277E+02  0.81184926257E+01  0.49460388582E+02  0.53457040527E+02  0.10566000000E+00 0.  1.
         23    2    1    0    0    0  0.31273513712E+02  0.72110867157E+01  0.16052044228E+02  0.89205455201E+02  0.81669533379E+02 0.  0.
         13    1    3    3    0    0  0.12688464435E+02 -0.90740591001E+00 -0.33408344355E+02  0.35748414675E+02  0.10566000000E+00 0. -1.
         22    1    1    0    0    0 -0.31273513712E+02 -0.72110867157E+01 -0.16052044228E+02  0.35884544799E+02  0.00000000000E+00 0. -1.
</event>
<event>
 5    1  0.2377303E-009  0.9118800E+02  0.7815553E-02  0.1125453E+00
         25   -1    0    0    0    0  0.00000000000E+00  0.00000000000E+00  0.99999998245E-14  0.12509000000E+03  0.12509000000E+03 0.  0.
        -13    1    3    3    0    0  0.50764682592E+02 -0.37555513697E+01  0.73792694695E+01  0.51435609714E+02  0.10566000000E+00 0. -1.
         23    2    1    0    0    0  0.86324205895E+01 -0.21693322104E+02  0.14245455032E+02  0.97739462561E+02  0.93834698505E+02 0.  0.
         13    1    3    3    0    0 -0.42132262002E+02 -0.17937770734E+02  0.68661855622E+01  0.46303852847E+02  0.10566000000E+00 0.  1.
         22    1    1    0    0    0 -0.86324205895E+01  0.21693322104E+02 -0.14245455032E+02  0.27350537439E+02  0.00000000000E+00 0.  1.
</event>
<event>
 5    1  0.2377303E-009  0.9118800E+02  0.7815553E-02  0.1125453E+00
         25   -1    0    0    0    0  0.00000000000E+00  0.00000000000E+00  0.99999998245E-14  0.12509000000E+03  0.12509000000E+03 0.  0.
        -13    1    3    3    0    0 -0.39554172001E+02  0.23468231608E+01 -0.12167532616E+02  0.41449971238E+02  0.10566000000E+00 0. -1.
         23    2    1    0    0    0 -0.37962865065E+01 -0.68803309651E+01  0.27996722540E+02  0.96011361476E+02  0.91501990765E+02 0.  0.
         13    1    3    3    0    0  0.35757885495E+02 -0.92271541259E+01  0.40164255156E+02  0.54561390237E+02  0.10566000000E+00 0.  1.
         22    1    1    0    0    0  0.37962865065E+01  0.68803309651E+01 -0.27996722540E+02  0.29078638524E+02  0.00000000000E+00 0.  1.
</event>
<event>
 5    1  0.2377303E-009  0.9118800E+02  0.7815553E-02  0.1125453E+00
         25   -1    0    0    0    0  0.00000000000E+00  0.00000000000E+00  0.99999998245E-14  0.12509000000E+03  0.12509000000E+03 0.  0.
        -13    1    3    3    0    0  0.32974795527E+02 -0.38415472806E+02  0.13725340549E+02  0.52454569183E+02  0.10566000000E+00 0. -1.
         23    2    1    0    0    0  0.29125127709E+02  0.25288475621E+01 -0.14275368853E+00  0.95854943772E+02  0.91287905732E+02 0.  0.
         13    1    3    3    0    0 -0.38496678184E+01  0.40944320368E+02 -0.13868094237E+02  0.43400374589E+02  0.10566000000E+00 0.  1.
         22    1    1    0    0    0 -0.29125127709E+02 -0.25288475621E+01  0.14275368853E+00  0.29235056228E+02  0.00000000000E+00 0. -1.
</event>
<event>
 5    1  0.2377303E-009  0.9118800E+02  0.7815553E-02  0.1125453E+00
         25   -1    0    0    0    0  0.00000000000E+00  0.00000000000E+00  0.99999998245E-14  0.12509000000E+03  0.12509000000E+03 0.  0.
        -13    1    3    3    0    0  0.19116074583E+02 -0.23277815984E+02  0.39214913448E+02  0.49447968868E+02  0.10566000000E+00 0.  1.
         23    2    1    0    0    0 -0.19668363525E+02 -0.69607231104E+01  0.21586725730E+02  0.95068625653E+02  0.90203994733E+02 0.  0.
         13    1    3    3    0    0 -0.38784438108E+02  0.16317092874E+02 -0.17628187718E+02  0.45620656785E+02  0.10566000000E+00 0. -1.
         22    1    1    0    0    0  0.19668363525E+02  0.69607231104E+01 -0.21586725730E+02  0.30021374347E+02  0.00000000000E+00 0.  1.
</event>
<event>
 5    1  0.2377303E-009  0.9118800E+02  0.7815553E-02  0.1125453E+00
         25   -1    0    0    0    0  0.00000000000E+00  0.00000000000E+00  0.99999998245E-14  0.12509000000E+03  0.12509000000E+03 0.  0.
        -13    1    3    3    0    0  0.20430998598E+02 -0.48127751128E+02 -0.32015170474E+02  0.61308143316E+02  0.10566000000E+00 0.  1.
         23    2    1    0    0    0  0.18060786373E+02 -0.20348070381E+02 -0.14131426368E+02  0.94431670238E+02  0.89316331990E+02 0.  0.
         13    1    3    3    0    0 -0.23702122254E+01  0.27779680748E+02  0.17883744106E+02  0.33123526922E+02  0.10566000000E+00 0. -1.
         22    1    1    0    0    0 -0.18060786373E+02  0.20348070381E+02  0.14131426368E+02  0.30658329762E+02  0.00000000000E+00 0.  1.
</event>
<event>
 5    1  0.2377303E-009  0.9118800E+02  0.7815553E-02  0.1125453E+00
         25   -1    0    0    0    0  0.00000000000E+00  0.00000000000E+00  0.99999998245E-14  0.12509000000E+03  0.12509000000E+03 0.  0.
        -13    1    3    3    0    0 -0.28261872264E+02 -0.26666834124E+02  0.36417196746E+02  0.53254829349E+02  0.10566000000E+00 0.  1.
         23    2    1    0    0    0  0.88824227362E+01 -0.90836323552E+01  0.26755576379E+02  0.95471244493E+02  0.90760607354E+02 0.  0.
         13    1    3    3    0    0  0.37144295000E+02  0.17583201769E+02 -0.96616203676E+01  0.42216415144E+02  0.10566000000E+00 0. -1.
         22    1    1    0    0    0 -0.88824227362E+01  0.90836323552E+01 -0.26755576379E+02  0.29618755507E+02  0.00000000000E+00 0.  1.
</event>
<event>
 5    1  0.2377303E-009  0.9118800E+02  0.7815553E-02  0.1125453E+00
         25   -1    0    0    0    0  0.00000000000E+00  0.00000000000E+00  0.99999998245E-14  0.12509000000E+03  0.12509000000E+03 0.  0.
        -13    1    3    3    0    0  0.62692611654E+00  0.20491338858E+02 -0.37979417313E+02  0.43159417373E+02  0.10566000000E+00 0.  1.
         23    2    1    0    0    0 -0.12688682858E+02 -0.23376058894E+02 -0.11391910271E+02  0.96155273084E+02  0.91698517546E+02 0.  0.
         13    1    3    3    0    0 -0.13315608974E+02 -0.43867397751E+02  0.26587507041E+02  0.52995855711E+02  0.10566000000E+00 0. -1.
         22    1    1    0    0    0  0.12688682858E+02  0.23376058894E+02  0.11391910271E+02  0.28934726916E+02  0.00000000000E+00 0. -1.
</event>
<event>
 5    1  0.2377303E-009  0.9118800E+02  0.7815553E-02  0.1125453E+00
         25   -1    0    0    0    0  0.00000000000E+00  0.00000000000E+00  0.99999998245E-14  0.12509000000E+03  0.12509000000E+03 0.  0.
        -13    1    3    3    0    0  0.19964414874E+02  0.36730062502E+02  0.43472584291E+02  0.60312122344E+02  0.10566000000E+00 0.  1.
         23    2    1    0    0    0  0.14921809782E+02  0.21398575997E+02  0.10603807794E+02  0.96929740740E+02  0.92748986185E+02 0.  0.
         13    1    3    3    0    0 -0.50426050918E+01 -0.15331486505E+02 -0.32868776497E+02  0.36617618396E+02  0.10566000000E+00 0. -1.
         22    1    1    0    0    0 -0.14921809782E+02 -0.21398575997E+02 -0.10603807794E+02  0.28160259260E+02  0.00000000000E+00 0.  1.
</event>
<event>
 5    1  0.2377303E-009  0.9118800E+02  0.7815553E-02  0.1125453E+00
         25   -1    0    0    0    0  0.00000000000E+00  0.00000000000E+00  0.99999998245E-14  0.12509000000E+03  0.12509000000E+03 0.  0.
        -13    1    3    3    0    0  0.29886231908E+02 -0.20627829582E+02  0.24218279642E+01  0.36394651058E+02  0.10566000000E+00 0.  1.
         23    2    1    0    0    0 -0.18713031482E+02  0.13236331616E+02 -0.14461752896E+02  0.97987964676E+02  0.94165391214E+02 0.  0.
         13    1    3    3    0    0 -0.48599263390E+02  0.33864161198E+02 -0.16883580860E+02  0.61593313618E+02  0.10566000000E+00 0. -1.
         22    1    1    0    0    0  0.18713031482E+02 -0.13236331616E+02  0.14461752896E+02  0.27102035324E+02  0.00000000000E+00 0. -1.
</event>
<event>
 5    1  0.2377303E-009  0.9118800E+02  0.7815553E-02  0.1125453E+00
         25   -1    0    0    0    0  0.00000000000E+00  0.00000000000E+00  0.99999998245E-14  0.12509000000E+03  0.12509000000E+03 0.  0.
        -13    1    3    3    0    0  0.13973587302E+02  0.11390460048E+02 -0.34404220990E+02  0.38841541011E+02  0.10566000000E+00 0.  1.
         23    2    1    0    0    0  0.13030423750E+02 -0.24082068858E+02  0.10227630216E+02  0.95860863793E+02  0.91296017458E+02 0.  0.
         13    1    3    3    0    0 -0.94316355222E+00 -0.35472528906E+02  0.44631851205E+02  0.57019322782E+02  0.10566000000E+00 0. -1.
         22    1    1    0    0    0 -0.13030423750E+02  0.24082068858E+02 -0.10227630216E+02  0.29229136207E+02  0.00000000000E+00 0. -1.
</event>
<event>
 5    1  0.2377303E-009  0.9118800E+02  0.7815553E-02  0.1125453E+00
         25   -1    0    0    0    0  0.00000000000E+00  0.00000000000E+00  0.99999998245E-14  0.12509000000E+03  0.12509000000E+03 0.  0.
        -13    1    3    3    0    0  0.38517816075E+02 -0.18041621546E+02  0.28160942898E+02  0.51011490197E+02  0.10566000000E+00 0.  1.
         23    2    1    0    0    0  0.15530715225E+02 -0.22465341903E+02 -0.10187928975E+02  0.95940581498E+02  0.91405178076E+02 0.  0.
         13    1    3    3    0    0 -0.22987100850E+02 -0.44237203570E+01 -0.38348871872E+02  0.44929091301E+02  0.10566000000E+00 0. -1.
         22    1    1    0    0    0 -0.15530715225E+02  0.22465341903E+02  0.10187928975E+02  0.29149418502E+02  0.00000000000E+00 0. -1.
</event>
<event>
 5    1  0.2377303E-009  0.9118800E+02  0.7815553E-02  0.1125453E+00
         25   -1    0    0    0    0  0.00000000000E+00  0.00000000000E+00  0.99999998245E-14  0.12509000000E+03  0.12509000000E+03 0.  0.
        -13    1    3    3    0    0  0.54093873504E+02 -0.12710340386E+02 -0.13999877307E+02  0.57303644143E+02  0.10566000000E+00 0.  1.
         23    2    1    0    0    0  0.28003294927E+02 -0.11883767048E+02  0.10305732809E+02  0.92971211499E+02  0.87246946037E+02 0.  0.
         13    1    3    3    0    0 -0.26090578577E+02  0.82657333786E+00  0.24305610117E+02  0.35667567357E+02  0.10566000000E+00 0. -1.
         22    1    1    0    0    0 -0.28003294927E+02  0.11883767048E+02 -0.10305732809E+02  0.32118788501E+02  0.00000000000E+00 0.  1.
</event>
<event>
 5    1  0.2377303E-009  0.9118800E+02  0.7815553E-02  0.1125453E+00
         25   -1    0    0    0    0  0.00000000000E+00  0.00000000000E+00  0.99999998245E-14  0.12509000000E+03  0.12509000000E+03 0.  0.
        -13    1    3    3    0    0 -0.79375279883E+01  0.38155562304E+02  0.33292319034E+02  0.51256618655E+02  0.10566000000E+00 0.  1.
         23    2    1    0    0    0 -0.30747766032E+02  0.23919828502E+02  0.21201084250E+02  0.80738345184E+02  0.67465629013E+02 0.  0.
         13    1    3    3    0    0 -0.22810238044E+02 -0.14235733801E+02 -0.12091234784E+02  0.29481726529E+02  0.10566000000E+00 0. -1.
         22    1    1    0    0    0  0.30747766032E+02 -0.23919828502E+02 -0.21201084250E+02  0.44351654816E+02  0.00000000000E+00 0.  1.
</event>
<event>
 5    1  0.2377303E-009  0.9118800E+02  0.7815553E-02  0.1125453E+00
         25   -1    0    0    0    0  0.00000000000E+00  0.00000000000E+00  0.99999998245E-14  0.12509000000E+03  0.12509000000E+03 0.  0.
        -13    1    3    3    0    0  0.42471833751E+02 -0.31884249101E+02  0.25351230935E+01  0.53168599907E+02  0.10566000000E+00 0.  1.
         23    2    1    0    0    0  0.76303862255E+01 -0.21710926406E+02 -0.18890363656E+02  0.95316975995E+02  0.90547738538E+02 0.  0.
         13    1    3    3    0    0 -0.34841447526E+02  0.10173322695E+02 -0.21425486749E+02  0.42148376088E+02  0.10566000000E+00 0. -1.
         22    1    1    0    0    0 -0.76303862255E+01  0.21710926406E+02  0.18890363656E+02  0.29773024005E+02  0.00000000000E+00 0.  1.
</event>
<event>
 5    1  0.2377303E-009  0.9118800E+02  0.7815553E-02  0.1125453E+00
         25   -1    0    0    0    0  0.00000000000E+00  0.00000000000E+00  0.99999998245E-14  0.12509000000E+03  0.12509000000E+03 0.  0.
        -13    1    3    3    0    0  0.23199863876E+02 -0.69148478599E+01 -0.28999521536E+02  0.37776079973E+02  0.10566000000E+00 0.  1.
         23    2    1    0    0    0 -0.27136351033E+02  0.10372438692E+02 -0.83623420852E+01  0.94859257420E+02  0.89913185470E+02 0.  0.
         13    1    3    3    0    0 -0.50336214909E+02  0.17287286552E+02  0.20637179451E+02  0.57083177447E+02  0.10566000000E+00 0. -1.
         22    1    1    0    0    0  0.27136351033E+02 -0.10372438692E+02  0.83623420852E+01  0.30230742580E+02  0.00000000000E+00 0. -1.
</event>
<event>
 5    1  0.2377303E-009  0.9118800E+02  0.7815553E-02  0.1125453E+00
         25   -1    0    0    0    0  0.00000000000E+00  0.00000000000E+00  0.99999998245E-14  0.12509000000E+03  0.12509000000E+03 0.  0.
        -13    1    3    3    0    0 -0.32739408947E+02  0.17811086592E+02 -0.43999342710E+01  0.37529645474E+02  0.10566000000E+00 0.  1.
         23    2    1    0    0    0  0.17998738013E+02  0.72304000022E+01  0.22053677949E+02  0.95719981864E+02  0.91102782409E+02 0.  0.
         13    1    3    3    0    0  0.50738146960E+02 -0.10580686590E+02  0.26453612220E+02  0.58190336390E+02  0.10566000000E+00 0. -1.
         22    1    1    0    0    0 -0.17998738013E+02 -0.72304000022E+01 -0.22053677949E+02  0.29370018136E+02  0.00000000000E+00 0. -1.
</event>
<event>
 5    1  0.2377303E-009  0.9118800E+02  0.7815553E-02  0.1125453E+00
         25   -1    0    0    0    0  0.00000000000E+00  0.00000000000E+00  0.99999998245E-14  0.12509000000E+03  0.12509000000E+03 0.  0.
        -13    1    3    3    0    0  0.15826428663E+02 -0.89132909808E+01  0.26188331336E+02  0.31871028577E+02  0.10566000000E+00 0. -1.
         23    2    1    0    0    0 -0.29918530855E+00 -0.91808388341E+00 -0.32151331939E+02  0.92924171310E+02  0.87179476245E+02 0.  0.
         13    1    3    3    0    0 -0.16125613971E+02  0.79952070974E+01 -0.58339663275E+02  0.61053142733E+02  0.10566000000E+00 0.  1.
         22    1    1    0    0    0  0.29918530855E+00  0.91808388341E+00  0.32151331939E+02  0.32165828690E+02  0.00000000000E+00 0.  1.
</event>
<event>
 5    1  0.2377303E-009  0.9118800E+02  0.7815553E-02  0.1125453E+00
         25   -1    0    0    0    0  0.00000000000E+00  0.00000000000E+00  0.99999998245E-14  0.12509000000E+03  0.12509000000E+03 0.  0.
        -13    1    3    3    0    0 -0.41025418131E+02 -0.22473590758E+02 -0.37171662240E+02  0.59748563598E+02  0.10566000000E+00 0. -1.
         23    2    1    0    0    0 -0.84993857907E+01 -0.60018766102E+01 -0.24710141812E+02  0.98278562328E+02  0.94550635235E+02 0.  0.
         13    1    3    3    0    0  0.32526032340E+02  0.16471714148E+02  0.12461520428E+02  0.38529998730E+02  0.10566000000E+00 0.  1.
         22    1    1    0    0    0  0.84993857907E+01  0.60018766102E+01  0.24710141812E+02  0.26811437672E+02  0.00000000000E+00 0. -1.
</event>
<event>
 5    1  0.2377303E-009  0.9118800E+02  0.7815553E-02  0.1125453E+00
         25   -1    0    0    0    0  0.00000000000E+00  0.00000000000E+00  0.99999998245E-14  0.12509000000E+03  0.12509000000E+03 0.  0.
        -13    1    3    3    0    0  0.37178181031E+02 -0.21048413541E+02  0.30462662379E+01  0.42831574328E+02  0.10566000000E+00 0.  1.
         23    2    1    0    0    0 -0.17805867016E+02 -0.20512090336E+02 -0.37976185813E+00  0.97924967896E+02  0.94081668608E+02 0.  0.
         13    1    3    3    0    0 -0.54984048047E+02  0.53632320500E+00 -0.34260280961E+01  0.55093393568E+02  0.10566000000E+00 0. -1.
         22    1    1    0    0    0  0.17805867016E+02  0.20512090336E+02  0.37976185813E+00  0.27165032104E+02  0.00000000000E+00 0. -1.
</event>
<event>
 5    1  0.2377303E-009  0.9118800E+02  0.7815553E-02  0.1125453E+00
         25   -1    0    0    0    0  0.00000000000E+00  0.00000000000E+00  0.99999998245E-14  0.12509000000E+03  0.12509000000E+03 0.  0.
        -13    1    3    3    0    0 -0.13137831284E+02  0.34134531614E+02 -0.21343161209E+02  0.42347497609E+02  0.10566000000E+00 0.  1.
         23    2    1    0    0    0  0.77071964706E+01 -0.19609928105E+02 -0.12284327934E+02  0.10070035321E+03  0.97702130306E+02 0.  0.
         13    1    3    3    0    0  0.20845027755E+02 -0.53744459719E+02  0.90588332746E+01  0.58352855602E+02  0.10566000000E+00 0. -1.
         22    1    1    0    0    0 -0.77071964706E+01  0.19609928105E+02  0.12284327934E+02  0.24389646789E+02  0.00000000000E+00 0. -1.
</event>
<event>
 5    1  0.2377303E-009  0.9118800E+02  0.7815553E-02  0.1125453E+00
         25   -1    0    0    0    0  0.00000000000E+00  0.00000000000E+00  0.99999998245E-14  0.12509000000E+03  0.12509000000E+03 0.  0.
        -13    1    3    3    0    0  0.39865568235E+02 -0.14579664678E+02 -0.31847947805E+02  0.53067250694E+02  0.10566000000E+00 0.  1.
         23    2    1    0    0    0  0.26328101362E+01 -0.21364623899E+02 -0.25955971926E+02  0.91369215279E+02  0.84919033076E+02 0.  0.
         13    1    3    3    0    0 -0.37232758099E+02 -0.67849592209E+01  0.58919758792E+01  0.38301964585E+02  0.10566000000E+00 0. -1.
         22    1    1    0    0    0 -0.26328101362E+01  0.21364623899E+02  0.25955971926E+02  0.33720784721E+02  0.00000000000E+00 0.  1.
</event>
<event>
 5    1  0.2377303E-009  0.9118800E+02  0.7815553E-02  0.1125453E+00
         25   -1    0    0    0    0  0.00000000000E+00  0.00000000000E+00  0.99999998245E-14  0.12509000000E+03  0.12509000000E+03 0.  0.
        -13    1    3    3    0    0  0.14670467847E+02 -0.41572689059E+02 -0.14977807026E+02  0.46560250963E+02  0.10566000000E+00 0.  1.
         23    2    1    0    0    0  0.17982526051E+02 -0.10730881800E+02  0.21926964451E+02  0.94769794898E+02  0.89788636183E+02 0.  0.
         13    1    3    3    0    0  0.33120582046E+01  0.30841807259E+02  0.36904771477E+02  0.48209543934E+02  0.10566000000E+00 0. -1.
         22    1    1    0    0    0 -0.17982526051E+02  0.10730881800E+02 -0.21926964451E+02  0.30320205102E+02  0.00000000000E+00 0. -1.
</event>
<event>
 5    1  0.2377303E-009  0.9118800E+02  0.7815553E-02  0.1125453E+00
         25   -1    0    0    0    0  0.00000000000E+00  0.00000000000E+00  0.99999998245E-14  0.12509000000E+03  0.12509000000E+03 0.  0.
        -13    1    3    3    0    0  0.30158839413E+02  0.34148716716E+02 -0.16016235791E+02  0.48293078397E+02  0.10566000000E+00 0.  1.
         23    2    1    0    0    0 -0.23783186225E+01  0.23770658414E+02  0.16979698448E+02  0.95781114653E+02  0.91186683040E+02 0.  0.
         13    1    3    3    0    0 -0.32537158035E+02 -0.10378058302E+02  0.32995934239E+02  0.47488036256E+02  0.10566000000E+00 0. -1.
         22    1    1    0    0    0  0.23783186225E+01 -0.23770658414E+02 -0.16979698448E+02  0.29308885347E+02  0.00000000000E+00 0. -1.
</event>
<event>
 5    1  0.2377303E-009  0.9118800E+02  0.7815553E-02  0.1125453E+00
         25   -1    0    0    0    0  0.00000000000E+00  0.00000000000E+00  0.99999998245E-14  0.12509000000E+03  0.12509000000E+03 0.  0.
        -13    1    3    3    0    0 -0.47290625123E+02  0.10796828054E+02  0.23775350595E+01  0.48565816760E+02  0.10566000000E+00 0.  1.
         23    2    1    0    0    0  0.33608650404E+01  0.23149006552E+02  0.63464289489E+01  0.10085265116E+03  0.97896926246E+02 0.  0.
         13    1    3    3    0    0  0.50651490163E+02  0.12352178497E+02  0.39688938894E+01  0.52286834405E+02  0.10566000000E+00 0. -1.
         22    1    1    0    0    0 -0.33608650404E+01 -0.23149006552E+02 -0.63464289489E+01  0.24237348835E+02  0.00000000000E+00 0.  1.
</event>
<event>
 5    1  0.2377303E-009  0.9118800E+02  0.7815553E-02  0.1125453E+00
         25   -1    0    0    0    0  0.00000000000E+00  0.00000000000E+00  0.99999998245E-14  0.12509000000E+03  0.12509000000E+03 0.  0.
        -13    1    3    3    0    0 -0.15027054097E+02  0.43804142764E+02  0.14364450208E+02  0.48486739135E+02  0.10566000000E+00 0.  1.
         23    2    1    0    0    0 -0.27151216851E+02  0.51513612174E+00  0.16181519635E+02  0.93478364176E+02  0.87971069390E+02 0.  0.
         13    1    3    3    0    0 -0.12124162754E+02 -0.43289006642E+02  0.18170694276E+01  0.44991625042E+02  0.10566000000E+00 0. -1.
         22    1    1    0    0    0  0.27151216851E+02 -0.51513612174E+00 -0.16181519635E+02  0.31611635824E+02  0.00000000000E+00 0.  1.
</event>
<event>
 5    1  0.2377303E-009  0.9118800E+02  0.7815553E-02  0.1125453E+00
         25   -1    0    0    0    0  0.00000000000E+00  0.00000000000E+00  0.99999998245E-14  0.12509000000E+03  0.12509000000E+03 0.  0.
        -13    1    3    3    0    0  0.41551874355E+02  0.26787516119E+02  0.10658306833E+02  0.50574103559E+02  0.10566000000E+00 0.  1.
         23    2    1    0    0    0  0.62805625933E+01  0.19088974965E+02 -0.19104352430E+02  0.97362563886E+02  0.93330906633E+02 0.  0.
         13    1    3    3    0    0 -0.35271311762E+02 -0.76985411537E+01 -0.29762659263E+02  0.46788460326E+02  0.10566000000E+00 0. -1.
         22    1    1    0    0    0 -0.62805625933E+01 -0.19088974965E+02  0.19104352430E+02  0.27727436114E+02  0.00000000000E+00 0.  1.
</event>
<event>
 5    1  0.2377303E-009  0.9118800E+02  0.7815553E-02  0.1125453E+00
         25   -1    0    0    0    0  0.00000000000E+00  0.00000000000E+00  0.99999998245E-14  0.12509000000E+03  0.12509000000E+03 0.  0.
        -13    1    3    3    0    0  0.23264387970E+02 -0.34874141353E+02  0.28632722803E+02  0.50766932761E+02  0.10566000000E+00 0.  1.
         23    2    1    0    0    0  0.12216211964E+02 -0.23460427859E+02 -0.13210491210E+02  0.95524063721E+02  0.90833375814E+02 0.  0.
         13    1    3    3    0    0 -0.11048176006E+02  0.11413713495E+02 -0.41843214013E+02  0.44757130960E+02  0.10566000000E+00 0. -1.
         22    1    1    0    0    0 -0.12216211964E+02  0.23460427859E+02  0.13210491210E+02  0.29565936279E+02  0.00000000000E+00 0.  1.
</event>
<event>
 5    1  0.2377303E-009  0.9118800E+02  0.7815553E-02  0.1125453E+00
         25   -1    0    0    0    0  0.00000000000E+00  0.00000000000E+00  0.99999998245E-14  0.12509000000E+03  0.12509000000E+03 0.  0.
        -13    1    3    3    0    0  0.22912634791E+02 -0.42625992436E+02  0.24379515321E+02  0.54187969103E+02  0.10566000000E+00 0. -1.
         23    2    1    0    0    0  0.21137695608E+02 -0.10128198586E+01  0.19833779838E+02  0.96086434661E+02  0.91604563879E+02 0.  0.
         13    1    3    3    0    0 -0.17749391827E+01  0.41613172577E+02 -0.45457354828E+01  0.41898465558E+02  0.10566000000E+00 0.  1.
         22    1    1    0    0    0 -0.21137695608E+02  0.10128198586E+01 -0.19833779838E+02  0.29003565339E+02  0.00000000000E+00 0. -1.
</event>
<event>
 5    1  0.2377303E-009  0.9118800E+02  0.7815553E-02  0.1125453E+00
         25   -1    0    0    0    0  0.00000000000E+00  0.00000000000E+00  0.99999998245E-14  0.12509000000E+03  0.12509000000E+03 0.  0.
        -13    1    3    3    0    0  0.26788687557E+02  0.35507329664E+02 -0.14206658449E+02  0.46693088881E+02  0.10566000000E+00 0.  1.
         23    2    1    0    0    0  0.25291950622E+02 -0.12969828759E+02 -0.78062814182E+01  0.95613954575E+02  0.90957083592E+02 0.  0.
         13    1    3    3    0    0 -0.14967369350E+01 -0.48477158422E+02  0.64003770311E+01  0.48920865695E+02  0.10566000000E+00 0. -1.
         22    1    1    0    0    0 -0.25291950622E+02  0.12969828759E+02  0.78062814182E+01  0.29476045425E+02  0.00000000000E+00 0.  1.
</event>
<event>
 5    1  0.2377303E-009  0.9118800E+02  0.7815553E-02  0.1125453E+00
         25   -1    0    0    0    0  0.00000000000E+00  0.00000000000E+00  0.99999998245E-14  0.12509000000E+03  0.12509000000E+03 0.  0.
        -13    1    3    3    0    0  0.24360890543E+01  0.65927816325E+01 -0.38920888260E+02  0.39550550015E+02  0.10566000000E+00 0.  1.
         23    2    1    0    0    0 -0.28989820224E+02  0.21709556492E+02 -0.44237946514E+01  0.88603228715E+02  0.80741858164E+02 0.  0.
         13    1    3    3    0    0 -0.31425909278E+02  0.15116774860E+02  0.34497093608E+02  0.49052678700E+02  0.10566000000E+00 0. -1.
         22    1    1    0    0    0  0.28989820224E+02 -0.21709556492E+02  0.44237946514E+01  0.36486771285E+02  0.00000000000E+00 0. -1.
</event>
<event>
 5    1  0.2377303E-009  0.9118800E+02  0.7815553E-02  0.1125453E+00
         25   -1    0    0    0    0  0.00000000000E+00  0.00000000000E+00  0.99999998245E-14  0.12509000000E+03  0.12509000000E+03 0.  0.
        -13    1    3    3    0    0  0.52513870559E+02 -0.91026171190E+01  0.27610066433E+02  0.60024088264E+02  0.10566000000E+00 0. -1.
         23    2    1    0    0    0  0.26749071330E+02  0.78590867217E+01  0.10499923415E+02  0.95298617809E+02  0.90522373497E+02 0.  0.
         13    1    3    3    0    0 -0.25764799228E+02  0.16961703841E+02 -0.17110143018E+02  0.35274529545E+02  0.10566000000E+00 0.  1.
         22    1    1    0    0    0 -0.26749071330E+02 -0.78590867217E+01 -0.10499923415E+02  0.29791382191E+02  0.00000000000E+00 0. -1.
</event>
<event>
 5    1  0.2377303E-009  0.9118800E+02  0.7815553E-02  0.1125453E+00
         25   -1    0    0    0    0  0.00000000000E+00  0.00000000000E+00  0.99999998245E-14  0.12509000000E+03  0.12509000000E+03 0.  0.
        -13    1    3    3    0    0 -0.63215280949E+01  0.15798075177E+02  0.31130945082E+02  0.35477990396E+02  0.10566000000E+00 0.  1.
         23    2    1    0    0    0 -0.15701208410E+02 -0.28483809761E+02 -0.33690341051E+01  0.92391288178E+02  0.86411482896E+02 0.  0.
         13    1    3    3    0    0 -0.93796803154E+01 -0.44281884938E+02 -0.34499979187E+02  0.56913297782E+02  0.10566000000E+00 0. -1.
         22    1    1    0    0    0  0.15701208410E+02  0.28483809761E+02  0.33690341051E+01  0.32698711822E+02  0.00000000000E+00 0. -1.
</event>
<event>
 5    1  0.2377303E-009  0.9118800E+02  0.7815553E-02  0.1125453E+00
         25   -1    0    0    0    0  0.00000000000E+00  0.00000000000E+00  0.99999998245E-14  0.12509000000E+03  0.12509000000E+03 0.  0.
        -13    1    3    3    0    0  0.11544355841E+02  0.20815794243E+02  0.50550333137E+02  0.55874115528E+02  0.10566000000E+00 0. -1.
         23    2    1    0    0    0 -0.14379226314E+02  0.51450104544E+01  0.26300175197E+02  0.94677297105E+02  0.89659679287E+02 0.  0.
         13    1    3    3    0    0 -0.25923582155E+02 -0.15670783789E+02 -0.24250157940E+02  0.38803181577E+02  0.10566000000E+00 0.  1.
         22    1    1    0    0    0  0.14379226314E+02 -0.51450104544E+01 -0.26300175197E+02  0.30412702895E+02  0.00000000000E+00 0. -1.
</event>
<event>
 5    1  0.2377303E-009  0.9118800E+02  0.7815553E-02  0.1125453E+00
         25   -1    0    0    0    0  0.00000000000E+00  0.00000000000E+00  0.99999998245E-14  0.12509000000E+03  0.12509000000E+03 0.  0.
        -13    1    3    3    0    0 -0.25856184705E+02  0.37281522538E+01 -0.37553109370E+02  0.45745913414E+02  0.10566000000E+00 0. -1.
         23    2    1    0    0    0 -0.32346398002E+01 -0.28013292959E+02 -0.51702159277E+01  0.96420528261E+02  0.92059652727E+02 0.  0.
         13    1    3    3    0    0  0.22621544905E+02 -0.31741445213E+02  0.32382893442E+02  0.50674614846E+02  0.10566000000E+00 0.  1.
         22    1    1    0    0    0  0.32346398002E+01  0.28013292959E+02  0.51702159277E+01  0.28669471739E+02  0.00000000000E+00 0.  1.
</event>
<event>
 5    1  0.2377303E-009  0.9118800E+02  0.7815553E-02  0.1125453E+00
         25   -1    0    0    0    0  0.00000000000E+00  0.00000000000E+00  0.99999998245E-14  0.12509000000E+03  0.12509000000E+03 0.  0.
        -13    1    3    3    0    0 -0.39083453952E+02  0.26748770467E+01  0.37987229642E+02  0.54568416873E+02  0.10566000000E+00 0.  1.
         23    2    1    0    0    0  0.12764267926E+01  0.35310194439E+01  0.28899301046E+02  0.95947814690E+02  0.91415076323E+02 0.  0.
         13    1    3    3    0    0  0.40359880745E+02  0.85614239722E+00 -0.90879285959E+01  0.41379397818E+02  0.10566000000E+00 0. -1.
         22    1    1    0    0    0 -0.12764267926E+01 -0.35310194439E+01 -0.28899301046E+02  0.29142185310E+02  0.00000000000E+00 0.  1.
</event>
<event>
 5    1  0.2377303E-009  0.9118800E+02  0.7815553E-02  0.1125453E+00
         25   -1    0    0    0    0  0.00000000000E+00  0.00000000000E+00  0.99999998245E-14  0.12509000000E+03  0.12509000000E+03 0.  0.
        -13    1    3    3    0    0  0.16049907504E+02  0.27204782916E+02  0.19302650696E+02  0.37017607058E+02  0.10566000000E+00 0.  1.
         23    2    1    0    0    0 -0.22148568270E+02 -0.13551951312E+02 -0.61556642072E+01  0.98404673271E+02  0.94717332410E+02 0.  0.
         13    1    3    3    0    0 -0.38198475774E+02 -0.40756734228E+02 -0.25458314904E+02  0.61387066213E+02  0.10566000000E+00 0. -1.
         22    1    1    0    0    0  0.22148568270E+02  0.13551951312E+02  0.61556642072E+01  0.26685326729E+02  0.00000000000E+00 0. -1.
</event>
<event>
 5    1  0.2377303E-009  0.9118800E+02  0.7815553E-02  0.1125453E+00
         25   -1    0    0    0    0  0.00000000000E+00  0.00000000000E+00  0.99999998245E-14  0.12509000000E+03  0.12509000000E+03 0.  0.
        -13    1    3    3    0    0  0.12970071556E+02  0.29413088581E+02  0.46460690155E+02  0.56497428523E+02  0.10566000000E+00 0. -1.
         23    2    1    0    0    0 -0.89956197312E+01  0.32129143662E+01  0.28321111251E+02  0.95201384516E+02  0.90387910022E+02 0.  0.
         13    1    3    3    0    0 -0.21965691288E+02 -0.26200174214E+02 -0.18139578904E+02  0.38703955992E+02  0.10566000000E+00 0.  1.
         22    1    1    0    0    0  0.89956197312E+01 -0.32129143662E+01 -0.28321111251E+02  0.29888615484E+02  0.00000000000E+00 0. -1.
</event>
<event>
 5    1  0.2377303E-009  0.9118800E+02  0.7815553E-02  0.1125453E+00
         25   -1    0    0    0    0  0.00000000000E+00  0.00000000000E+00  0.99999998245E-14  0.12509000000E+03  0.12509000000E+03 0.  0.
        -13    1    3    3    0    0  0.31835173968E+01 -0.54717175744E+02 -0.27697374151E+02  0.61410583805E+02  0.10566000000E+00 0. -1.
         23    2    1    0    0    0  0.55103345113E+01 -0.27900410583E+02 -0.59047610547E+01  0.96044124213E+02  0.91546768898E+02 0.  0.
         13    1    3    3    0    0  0.23268171145E+01  0.26816765161E+02  0.21792613096E+02  0.34633540408E+02  0.10566000000E+00 0.  1.
         22    1    1    0    0    0 -0.55103345113E+01  0.27900410583E+02  0.59047610547E+01  0.29045875787E+02  0.00000000000E+00 0. -1.
</event>
<event>
 5    1  0.2377303E-009  0.9118800E+02  0.7815553E-02  0.1125453E+00
         25   -1    0    0    0    0  0.00000000000E+00  0.00000000000E+00  0.99999998245E-14  0.12509000000E+03  0.12509000000E+03 0.  0.
        -13    1    3    3    0    0  0.11182074604E+02  0.34686828221E+02  0.31940420159E+02  0.48460462735E+02  0.10566000000E+00 0.  1.
         23    2    1    0    0    0 -0.24098282129E+02  0.14409266771E+02  0.71263623305E+01  0.96122100343E+02  0.91653253973E+02 0.  0.
         13    1    3    3    0    0 -0.35280356733E+02 -0.20277561450E+02 -0.24814057829E+02  0.47661637609E+02  0.10566000000E+00 0. -1.
         22    1    1    0    0    0  0.24098282129E+02 -0.14409266771E+02 -0.71263623305E+01  0.28967899657E+02  0.00000000000E+00 0.  1.
</event>
<event>
 5    1  0.2377303E-009  0.9118800E+02  0.7815553E-02  0.1125453E+00
         25   -1    0    0    0    0  0.00000000000E+00  0.00000000000E+00  0.99999998245E-14  0.12509000000E+03  0.12509000000E+03 0.  0.
        -13    1    3    3    0    0  0.32822526064E+02 -0.65690150701E+01  0.68747561976E+01  0.34172263797E+02  0.10566000000E+00 0.  1.
         23    2    1    0    0    0 -0.28513751629E+02 -0.65933244135E+01  0.74195043704E+00  0.95814473545E+02  0.91232433331E+02 0.  0.
         13    1    3    3    0    0 -0.61336277692E+02 -0.24309343395E-01 -0.61328057606E+01  0.61642209748E+02  0.10566000000E+00 0. -1.
         22    1    1    0    0    0  0.28513751629E+02  0.65933244135E+01 -0.74195043704E+00  0.29275526455E+02  0.00000000000E+00 0. -1.
</event>
<event>
 5    1  0.2377303E-009  0.9118800E+02  0.7815553E-02  0.1125453E+00
         25   -1    0    0    0    0  0.00000000000E+00  0.00000000000E+00  0.99999998245E-14  0.12509000000E+03  0.12509000000E+03 0.  0.
        -13    1    3    3    0    0 -0.18666066702E+02 -0.19087164903E+02 -0.22487322331E+02  0.34906055919E+02  0.10566000000E+00 0. -1.
         23    2    1    0    0    0  0.30651354851E+02  0.63080564405E+01 -0.32102515750E+01  0.93632046389E+02  0.88189326256E+02 0.  0.
         13    1    3    3    0    0  0.49317421553E+02  0.25395221343E+02  0.19277070756E+02  0.58725990470E+02  0.10566000000E+00 0.  1.
         22    1    1    0    0    0 -0.30651354851E+02 -0.63080564405E+01  0.32102515750E+01  0.31457953611E+02  0.00000000000E+00 0.  1.
</event>
<event>
 5    1  0.2377303E-009  0.9118800E+02  0.7815553E-02  0.1125453E+00
         25   -1    0    0    0    0  0.00000000000E+00  0.00000000000E+00  0.99999998245E-14  0.12509000000E+03  0.12509000000E+03 0.  0.
        -13    1    3    3    0    0 -0.53657662141E+01  0.24227548597E+02  0.30279387265E+02  0.39148665561E+02  0.10566000000E+00 0. -1.
         23    2    1    0    0    0  0.24396393066E+02  0.43431101300E+01 -0.14425129748E+02  0.96417173692E+02  0.92055094451E+02 0.  0.
         13    1    3    3    0    0  0.29762159280E+02 -0.19884438467E+02 -0.44704517013E+02  0.57268508131E+02  0.10566000000E+00 0.  1.
         22    1    1    0    0    0 -0.24396393066E+02 -0.43431101300E+01  0.14425129748E+02  0.28672826308E+02  0.00000000000E+00 0.  1.
</event>
<event>
 5    1  0.2377303E-009  0.9118800E+02  0.7815553E-02  0.1125453E+00
         25   -1    0    0    0    0  0.00000000000E+00  0.00000000000E+00  0.99999998245E-14  0.12509000000E+03  0.12509000000E+03 0.  0.
        -13    1    3    3    0    0  0.78605222431E+01  0.92636714507E+01  0.39718880636E+02  0.41535575856E+02  0.10566000000E+00 0.  1.
         23    2    1    0    0    0  0.10418325014E+02  0.24038143166E+02 -0.12641585776E+02  0.96000766358E+02  0.91487505307E+02 0.  0.
         13    1    3    3    0    0  0.25578027713E+01  0.14774471715E+02 -0.52360466412E+02  0.54465190502E+02  0.10566000000E+00 0. -1.
         22    1    1    0    0    0 -0.10418325014E+02 -0.24038143166E+02  0.12641585776E+02  0.29089233642E+02  0.00000000000E+00 0.  1.
</event>
<event>
 5    1  0.2377303E-009  0.9118800E+02  0.7815553E-02  0.1125453E+00
         25   -1    0    0    0    0  0.00000000000E+00  0.00000000000E+00  0.99999998245E-14  0.12509000000E+03  0.12509000000E+03 0.  0.
        -13    1    3    3    0    0  0.35138105419E+02  0.40592508780E+02  0.89145263610E+01  0.54423507474E+02  0.10566000000E+00 0.  1.
         23    2    1    0    0    0 -0.29474369688E+01  0.28378301505E+02 -0.36019864981E+01  0.96332571607E+02  0.91940060174E+02 0.  0.
         13    1    3    3    0    0 -0.38085542388E+02 -0.12214207275E+02 -0.12516512859E+02  0.41909064133E+02  0.10566000000E+00 0. -1.
         22    1    1    0    0    0  0.29474369688E+01 -0.28378301505E+02  0.36019864981E+01  0.28757428393E+02  0.00000000000E+00 0. -1.
</event>
<event>
 5    1  0.2377303E-009  0.9118800E+02  0.7815553E-02  0.1125453E+00
         25   -1    0    0    0    0  0.00000000000E+00  0.00000000000E+00  0.99999998245E-14  0.12509000000E+03  0.12509000000E+03 0.  0.
        -13    1    3    3    0    0 -0.53572774346E+02  0.11012871918E+02  0.11730324410E+01  0.54705691369E+02  0.10566000000E+00 0. -1.
         23    2    1    0    0    0 -0.21883883923E+02 -0.14939616606E+02 -0.93426147617E+01  0.96994075554E+02  0.92835713613E+02 0.  0.
         13    1    3    3    0    0  0.31688890423E+02 -0.25952488524E+02 -0.10515647203E+02  0.42288384185E+02  0.10566000000E+00 0.  1.
         22    1    1    0    0    0  0.21883883923E+02  0.14939616606E+02  0.93426147617E+01  0.28095924446E+02  0.00000000000E+00 0. -1.
</event>
<event>
 5    1  0.2377303E-009  0.9118800E+02  0.7815553E-02  0.1125453E+00
         25   -1    0    0    0    0  0.00000000000E+00  0.00000000000E+00  0.99999998245E-14  0.12509000000E+03  0.12509000000E+03 0.  0.
        -13    1    3    3    0    0  0.26063601572E+01 -0.50680497916E+01 -0.34868527496E+02  0.35331340418E+02  0.10566000000E+00 0.  1.
         23    2    1    0    0    0  0.90000515596E+00 -0.25842958991E+02  0.18940401902E+02  0.93036804170E+02  0.87340938667E+02 0.  0.
         13    1    3    3    0    0 -0.17063550013E+01 -0.20774909200E+02  0.53808929399E+02  0.57705463751E+02  0.10566000000E+00 0. -1.
         22    1    1    0    0    0 -0.90000515596E+00  0.25842958991E+02 -0.18940401902E+02  0.32053195830E+02  0.00000000000E+00 0.  1.
</event>
<event>
 5    1  0.2377303E-009  0.9118800E+02  0.7815553E-02  0.1125453E+00
         25   -1    0    0    0    0  0.00000000000E+00  0.00000000000E+00  0.99999998245E-14  0.12509000000E+03  0.12509000000E+03 0.  0.
        -13    1    3    3    0    0 -0.17996600885E+02 -0.14357799756E+02 -0.40101145288E+02  0.46239994319E+02  0.10566000000E+00 0. -1.
         23    2    1    0    0    0 -0.28356241596E+02  0.44064925044E+01  0.47999134877E+01  0.95994763567E+02  0.91479297380E+02 0.  0.
         13    1    3    3    0    0 -0.10359640710E+02  0.18764292261E+02  0.44901058775E+02  0.49754769247E+02  0.10566000000E+00 0.  1.
         22    1    1    0    0    0  0.28356241596E+02 -0.44064925044E+01 -0.47999134877E+01  0.29095236433E+02  0.00000000000E+00 0. -1.
</event>
<event>
 5    1  0.2377303E-009  0.9118800E+02  0.7815553E-02  0.1125453E+00
         25   -1    0    0    0    0  0.00000000000E+00  0.00000000000E+00  0.99999998245E-14  0.12509000000E+03  0.12509000000E+03 0.  0.
        -13    1    3    3    0    0 -0.70928782475E+01  0.11030508080E+02 -0.51502015989E+02  0.53145553391E+02  0.10566000000E+00 0. -1.
         23    2    1    0    0    0 -0.34905887440E+01  0.24363851802E+02 -0.73561872762E+01  0.99401578958E+02  0.96024887002E+02 0.  0.
         13    1    3    3    0    0  0.36022895035E+01  0.13333343722E+02  0.44145828712E+02  0.46256025567E+02  0.10566000000E+00 0.  1.
         22    1    1    0    0    0  0.34905887440E+01 -0.24363851802E+02  0.73561872762E+01  0.25688421042E+02  0.00000000000E+00 0.  1.
</event>
<event>
 5    1  0.2377303E-009  0.9118800E+02  0.7815553E-02  0.1125453E+00
         25   -1    0    0    0    0  0.00000000000E+00  0.00000000000E+00  0.99999998245E-14  0.12509000000E+03  0.12509000000E+03 0.  0.
        -13    1    3    3    0    0  0.80482072795E+01  0.21051318657E+02 -0.49342727902E+02  0.54246176072E+02  0.10566000000E+00 0.  1.
         23    2    1    0    0    0  0.27553415722E+01 -0.12573379494E+02 -0.27598368129E+02  0.94637550140E+02  0.89604208573E+02 0.  0.
         13    1    3    3    0    0 -0.52928657072E+01 -0.33624698151E+02  0.21744359773E+02  0.40391374068E+02  0.10566000000E+00 0. -1.
         22    1    1    0    0    0 -0.27553415722E+01  0.12573379494E+02  0.27598368129E+02  0.30452449860E+02  0.00000000000E+00 0.  1.
</event>
<event>
 5    1  0.2377303E-009  0.9118800E+02  0.7815553E-02  0.1125453E+00
         25   -1    0    0    0    0  0.00000000000E+00  0.00000000000E+00  0.99999998245E-14  0.12509000000E+03  0.12509000000E+03 0.  0.
        -13    1    3    3    0    0 -0.11746930992E+01  0.14629347385E+02 -0.43518603379E+02  0.45926873537E+02  0.10566000000E+00 0. -1.
         23    2    1    0    0    0 -0.28424610527E+02  0.25139388730E+01 -0.27729847048E+01  0.96420018897E+02  0.92058960606E+02 0.  0.
         13    1    3    3    0    0 -0.27249917427E+02 -0.12115408512E+02  0.40745618674E+02  0.50493145360E+02  0.10566000000E+00 0.  1.
         22    1    1    0    0    0  0.28424610527E+02 -0.25139388730E+01  0.27729847048E+01  0.28669981103E+02  0.00000000000E+00 0.  1.
</event>
<event>
 5    1  0.2377303E-009  0.9118800E+02  0.7815553E-02  0.1125453E+00
         25   -1    0    0    0    0  0.00000000000E+00  0.00000000000E+00  0.99999998245E-14  0.12509000000E+03  0.12509000000E+03 0.  0.
        -13    1    3    3    0    0 -0.32340914219E+02  0.14117497617E+02 -0.57742097550E+01  0.35757392715E+02  0.10566000000E+00 0.  1.
         23    2    1    0    0    0  0.91133082779E+01 -0.22299342573E+02  0.17161263649E+02  0.95512609362E+02  0.90817600222E+02 0.  0.
         13    1    3    3    0    0  0.41454222496E+02 -0.36416840190E+02  0.22935473404E+02  0.59755216647E+02  0.10566000000E+00 0. -1.
         22    1    1    0    0    0 -0.91133082779E+01  0.22299342573E+02 -0.17161263649E+02  0.29577390638E+02  0.00000000000E+00 0. -1.
</event>
<event>
 5    1  0.2377303E-009  0.9118800E+02  0.7815553E-02  0.1125453E+00
         25   -1    0    0    0    0  0.00000000000E+00  0.00000000000E+00  0.99999998245E-14  0.12509000000E+03  0.12509000000E+03 0.  0.
        -13    1    3    3    0    0 -0.52253551577E+02  0.39122060767E+01  0.76996464186E+01  0.52962578561E+02  0.10566000000E+00 0.  1.
         23    2    1    0    0    0 -0.22440816824E+02 -0.18921819572E+02  0.16338029311E+02  0.91496001765E+02  0.85105591012E+02 0.  0.
         13    1    3    3    0    0  0.29812734753E+02 -0.22834025649E+02  0.86383828925E+01  0.38533423204E+02  0.10566000000E+00 0. -1.
         22    1    1    0    0    0  0.22440816824E+02  0.18921819572E+02 -0.16338029311E+02  0.33593998235E+02  0.00000000000E+00 0.  1.
</event>
<event>
 5    1  0.2377303E-009  0.9118800E+02  0.7815553E-02  0.1125453E+00
         25   -1    0    0    0    0  0.00000000000E+00  0.00000000000E+00  0.99999998245E-14  0.12509000000E+03  0.12509000000E+03 0.  0.
        -13    1    3    3    0    0 -0.52384981495E+02  0.26317211350E+02  0.65613196148E+01  0.58990202394E+02  0.10566000000E+00 0. -1.
         23    2    1    0    0    0 -0.26421923752E+02  0.29356647332E+01  0.14482442700E+02  0.94816623433E+02  0.89853852174E+02 0.  0.
         13    1    3    3    0    0  0.25963057742E+02 -0.23381546616E+02  0.79211230849E+01  0.35826421039E+02  0.10566000000E+00 0.  1.
         22    1    1    0    0    0  0.26421923752E+02 -0.29356647332E+01 -0.14482442700E+02  0.30273376567E+02  0.00000000000E+00 0. -1.
</event>
<event>
 5    1  0.2377303E-009  0.9118800E+02  0.7815553E-02  0.1125453E+00
         25   -1    0    0    0    0  0.00000000000E+00  0.00000000000E+00  0.99999998245E-14  0.12509000000E+03  0.12509000000E+03 0.  0.
        -13    1    3    3    0    0 -0.25168663731E+02  0.24095289557E+02 -0.28997054063E+02  0.45330838523E+02  0.10566000000E+00 0. -1.
         23    2    1    0    0    0 -0.14233116516E+02  0.59840975992E+01  0.20654725606E+02  0.99302237016E+02  0.95895388610E+02 0.  0.
         13    1    3    3    0    0  0.10935547215E+02 -0.18111191958E+02  0.49651779669E+02  0.53971398493E+02  0.10566000000E+00 0.  1.
         22    1    1    0    0    0  0.14233116516E+02 -0.59840975992E+01 -0.20654725606E+02  0.25787762984E+02  0.00000000000E+00 0.  1.
</event>
<event>
 5    1  0.2377303E-009  0.9118800E+02  0.7815553E-02  0.1125453E+00
         25   -1    0    0    0    0  0.00000000000E+00  0.00000000000E+00  0.99999998245E-14  0.12509000000E+03  0.12509000000E+03 0.  0.
        -13    1    3    3    0    0 -0.81493744668E+01 -0.39559130523E+02 -0.30357546349E+02  0.50526516765E+02  0.10566000000E+00 0. -1.
         23    2    1    0    0    0  0.15106787962E+02 -0.14192493249E+02 -0.34142565175E+02  0.85148083873E+02  0.75198667032E+02 0.  0.
         13    1    3    3    0    0  0.23256162429E+02  0.25366637274E+02 -0.37850188257E+01  0.34621567109E+02  0.10566000000E+00 0.  1.
         22    1    1    0    0    0 -0.15106787962E+02  0.14192493249E+02  0.34142565175E+02  0.39941916127E+02  0.00000000000E+00 0. -1.
</event>
<event>
 5    1  0.2377303E-009  0.9118800E+02  0.7815553E-02  0.1125453E+00
         25   -1    0    0    0    0  0.00000000000E+00  0.00000000000E+00  0.99999998245E-14  0.12509000000E+03  0.12509000000E+03 0.  0.
        -13    1    3    3    0    0  0.18624553315E+02 -0.29505329917E+02 -0.16435807908E+02  0.38569228996E+02  0.10566000000E+00 0.  1.
         23    2    1    0    0    0  0.10105648196E+02  0.69048065723E+01  0.26737065956E+02  0.95684708381E+02  0.91054336759E+02 0.  0.
         13    1    3    3    0    0 -0.85189051195E+01  0.36410136489E+02  0.43172873864E+02  0.57115479385E+02  0.10566000000E+00 0. -1.
         22    1    1    0    0    0 -0.10105648196E+02 -0.69048065723E+01 -0.26737065956E+02  0.29405291619E+02  0.00000000000E+00 0. -1.
</event>
<event>
 5    1  0.2377303E-009  0.9118800E+02  0.7815553E-02  0.1125453E+00
         25   -1    0    0    0    0  0.00000000000E+00  0.00000000000E+00  0.99999998245E-14  0.12509000000E+03  0.12509000000E+03 0.  0.
        -13    1    3    3    0    0 -0.15803460488E-01  0.29377301482E+02 -0.66905837013E+01  0.30129738904E+02  0.10566000000E+00 0.  1.
         23    2    1    0    0    0 -0.63064236412E+01 -0.29981110940E+02 -0.15974423315E+02  0.90538296821E+02  0.83686098001E+02 0.  0.
         13    1    3    3    0    0 -0.62906201807E+01 -0.59358412422E+02 -0.92838396132E+01  0.60408557917E+02  0.10566000000E+00 0. -1.
         22    1    1    0    0    0  0.63064236412E+01  0.29981110940E+02  0.15974423315E+02  0.34551703179E+02  0.00000000000E+00 0. -1.
</event>
<event>
 4    1  0.2377303E-009  0.9118800E+02  0.7815553E-02  0.1125453E+00
         25   -1    0    0    0    0  0.00000000000E+00  0.00000000000E+00  0.99999998245E-14  0.12509000000E+03  0.12509000000E+03 0.  0.
        -13    1    1    0    0    0  0.18221861167E+02 -0.28650402317E+02 -0.12338499075E+02  0.36126603781E+02  0.10566000000E+00 0. -1.
         13    1    1    0    0    0  0.27303792701E+02 -0.63898715890E+01 -0.59645550983E+01  0.28669053635E+02  0.10566000000E+00 0.  1.
         22    1    1    0    0    0 -0.45525653868E+02  0.35040273906E+02  0.18303054173E+02  0.60294342584E+02  0.00000000000E+00 0. -1.
</event>
<event>
 5    1  0.2377303E-009  0.9118800E+02  0.7815553E-02  0.1125453E+00
         25   -1    0    0    0    0  0.00000000000E+00  0.00000000000E+00  0.99999998245E-14  0.12509000000E+03  0.12509000000E+03 0.  0.
        -13    1    3    3    0    0 -0.32829404065E+01  0.21157541104E+02 -0.38334371944E+02  0.43908478449E+02  0.10566000000E+00 0. -1.
         23    2    1    0    0    0 -0.79578724069E+01  0.24554204228E+02  0.13429368556E+02  0.95993872795E+02  0.91478079319E+02 0.  0.
         13    1    3    3    0    0 -0.46749320004E+01  0.33966631242E+01  0.51763740500E+02  0.52085394346E+02  0.10566000000E+00 0.  1.
         22    1    1    0    0    0  0.79578724069E+01 -0.24554204228E+02 -0.13429368556E+02  0.29096127205E+02  0.00000000000E+00 0.  1.
</event>
<event>
 5    1  0.2377303E-009  0.9118800E+02  0.7815553E-02  0.1125453E+00
         25   -1    0    0    0    0  0.00000000000E+00  0.00000000000E+00  0.99999998245E-14  0.12509000000E+03  0.12509000000E+03 0.  0.
        -13    1    3    3    0    0  0.17057060304E+02  0.31433370909E+02 -0.36034382903E+02  0.50768967176E+02  0.10566000000E+00 0.  1.
         23    2    1    0    0    0 -0.11339566154E+02  0.15543323682E+02  0.69076798345E+01  0.10464747784E+03  0.10263136901E+03 0.  0.
         13    1    3    3    0    0 -0.28396626457E+02 -0.15890047228E+02  0.42942062737E+02  0.53878510662E+02  0.10566000000E+00 0. -1.
         22    1    1    0    0    0  0.11339566154E+02 -0.15543323682E+02 -0.69076798345E+01  0.20442522161E+02  0.00000000000E+00 0. -1.
</event>
<event>
 5    1  0.2377303E-009  0.9118800E+02  0.7815553E-02  0.1125453E+00
         25   -1    0    0    0    0  0.00000000000E+00  0.00000000000E+00  0.99999998245E-14  0.12509000000E+03  0.12509000000E+03 0.  0.
        -13    1    3    3    0    0  0.13747027073E+02  0.30895766813E+02  0.74416451596E+01  0.34625401182E+02  0.10566000000E+00 0.  1.
         23    2    1    0    0    0 -0.10830725118E+02 -0.22913340655E+02 -0.12206440968E+02  0.96959536306E+02  0.92789162584E+02 0.  0.
         13    1    3    3    0    0 -0.24577752190E+02 -0.53809107467E+02 -0.19648086128E+02  0.62334135124E+02  0.10566000000E+00 0. -1.
         22    1    1    0    0    0  0.10830725118E+02  0.22913340655E+02  0.12206440968E+02  0.28130463694E+02  0.00000000000E+00 0. -1.
</event>
<event>
 5    1  0.2377303E-009  0.9118800E+02  0.7815553E-02  0.1125453E+00
         25   -1    0    0    0    0  0.00000000000E+00  0.00000000000E+00  0.99999998245E-14  0.12509000000E+03  0.12509000000E+03 0.  0.
        -13    1    3    3    0    0 -0.25994104542E+02 -0.25252154167E+02 -0.46737672606E+02  0.59142082865E+02  0.10566000000E+00 0. -1.
         23    2    1    0    0    0 -0.17869063981E+02 -0.20142806194E+02 -0.11245005700E+02  0.95909762816E+02  0.91362992296E+02 0.  0.
         13    1    3    3    0    0  0.81250405608E+01  0.51093479727E+01  0.35492666906E+02  0.36767679951E+02  0.10566000000E+00 0.  1.
         22    1    1    0    0    0  0.17869063981E+02  0.20142806194E+02  0.11245005700E+02  0.29180237184E+02  0.00000000000E+00 0. -1.
</event>
<event>
 5    1  0.2377303E-009  0.9118800E+02  0.7815553E-02  0.1125453E+00
         25   -1    0    0    0    0  0.00000000000E+00  0.00000000000E+00  0.99999998245E-14  0.12509000000E+03  0.12509000000E+03 0.  0.
        -13    1    3    3    0    0 -0.34520135670E+02  0.18558712812E+02 -0.15244772742E+02  0.42053297706E+02  0.10566000000E+00 0.  1.
         23    2    1    0    0    0 -0.12829496865E+02 -0.27479338286E+02 -0.97167549212E+01  0.93244665198E+02  0.87638132336E+02 0.  0.
         13    1    3    3    0    0  0.21690638806E+02 -0.46038051098E+02  0.55280178204E+01  0.51191367493E+02  0.10566000000E+00 0. -1.
         22    1    1    0    0    0  0.12829496865E+02  0.27479338286E+02  0.97167549212E+01  0.31845334802E+02  0.00000000000E+00 0. -1.
</event>
<event>
 5    1  0.2377303E-009  0.9118800E+02  0.7815553E-02  0.1125453E+00
         25   -1    0    0    0    0  0.00000000000E+00  0.00000000000E+00  0.99999998245E-14  0.12509000000E+03  0.12509000000E+03 0.  0.
        -13    1    3    3    0    0 -0.38087622349E+02 -0.73568050665E+01  0.38402084759E+01  0.38981379172E+02  0.10566000000E+00 0. -1.
         23    2    1    0    0    0  0.15266357046E+02 -0.19423396726E+02  0.16821306900E+02  0.95202103392E+02  0.90388904887E+02 0.  0.
         13    1    3    3    0    0  0.53353979395E+02 -0.12066591659E+02  0.12981098424E+02  0.56220724220E+02  0.10566000000E+00 0.  1.
         22    1    1    0    0    0 -0.15266357046E+02  0.19423396726E+02 -0.16821306900E+02  0.29887896608E+02  0.00000000000E+00 0.  1.
</event>
<event>
 5    1  0.2377303E-009  0.9118800E+02  0.7815553E-02  0.1125453E+00
         25   -1    0    0    0    0  0.00000000000E+00  0.00000000000E+00  0.99999998245E-14  0.12509000000E+03  0.12509000000E+03 0.  0.
        -13    1    3    3    0    0 -0.91038821453E+01  0.14292599962E+02 -0.41297030365E+02  0.44638715985E+02  0.10566000000E+00 0.  1.
         23    2    1    0    0    0  0.48919637519E+01 -0.25915160308E+02 -0.13746468317E+02  0.95349585841E+02  0.90592777227E+02 0.  0.
         13    1    3    3    0    0  0.13995845897E+02 -0.40207760270E+02  0.27550562048E+02  0.50710869856E+02  0.10566000000E+00 0. -1.
         22    1    1    0    0    0 -0.48919637519E+01  0.25915160308E+02  0.13746468317E+02  0.29740414159E+02  0.00000000000E+00 0. -1.
</event>
<event>
 5    1  0.2377303E-009  0.9118800E+02  0.7815553E-02  0.1125453E+00
         25   -1    0    0    0    0  0.00000000000E+00  0.00000000000E+00  0.99999998245E-14  0.12509000000E+03  0.12509000000E+03 0.  0.
        -13    1    3    3    0    0  0.47965589763E+02  0.30115411205E+02  0.19389726000E+02  0.59863247755E+02  0.10566000000E+00 0.  1.
         23    2    1    0    0    0  0.13544889656E+02  0.21587794533E+02  0.14796100704E+02  0.95621007743E+02  0.90966783042E+02 0.  0.
         13    1    3    3    0    0 -0.34420700107E+02 -0.85276166717E+01 -0.45936252964E+01  0.35757759988E+02  0.10566000000E+00 0. -1.
         22    1    1    0    0    0 -0.13544889656E+02 -0.21587794533E+02 -0.14796100704E+02  0.29468992257E+02  0.00000000000E+00 0.  1.
</event>
<event>
 5    1  0.2377303E-009  0.9118800E+02  0.7815553E-02  0.1125453E+00
         25   -1    0    0    0    0  0.00000000000E+00  0.00000000000E+00  0.99999998245E-14  0.12509000000E+03  0.12509000000E+03 0.  0.
        -13    1    3    3    0    0 -0.27426011918E+02 -0.15939227015E+02 -0.16770454549E+02  0.35881811512E+02  0.10566000000E+00 0. -1.
         23    2    1    0    0    0  0.25374428263E+02  0.10754376780E+02  0.53535652752E+00  0.97525442390E+02  0.93548955511E+02 0.  0.
         13    1    3    3    0    0  0.52800440181E+02  0.26693603795E+02  0.17305811077E+02  0.61643630879E+02  0.10566000000E+00 0.  1.
         22    1    1    0    0    0 -0.25374428263E+02 -0.10754376780E+02 -0.53535652752E+00  0.27564557610E+02  0.00000000000E+00 0.  1.
</event>
<event>
 5    1  0.2377303E-009  0.9118800E+02  0.7815553E-02  0.1125453E+00
         25   -1    0    0    0    0  0.00000000000E+00  0.00000000000E+00  0.99999998245E-14  0.12509000000E+03  0.12509000000E+03 0.  0.
        -13    1    3    3    0    0  0.38182496841E+02  0.40166817968E+00  0.26952886339E+02  0.46738994944E+02  0.10566000000E+00 0.  1.
         23    2    1    0    0    0  0.18569616603E+02 -0.19112058130E+02 -0.13082480481E+02  0.95404098931E+02  0.90668017353E+02 0.  0.
         13    1    3    3    0    0 -0.19612880238E+02 -0.19513726309E+02 -0.40035366820E+02  0.48665103987E+02  0.10566000000E+00 0. -1.
         22    1    1    0    0    0 -0.18569616603E+02  0.19112058130E+02  0.13082480481E+02  0.29685901069E+02  0.00000000000E+00 0. -1.
</event>
<event>
 5    1  0.2377303E-009  0.9118800E+02  0.7815553E-02  0.1125453E+00
         25   -1    0    0    0    0  0.00000000000E+00  0.00000000000E+00  0.99999998245E-14  0.12509000000E+03  0.12509000000E+03 0.  0.
        -13    1    3    3    0    0  0.41510978433E+02 -0.44035230296E+02  0.73812573936E+00  0.60521226287E+02  0.10566000000E+00 0. -1.
         23    2    1    0    0    0  0.25395347153E+02 -0.11440343698E+02  0.36478616693E+01  0.96998862328E+02  0.92842163252E+02 0.  0.
         13    1    3    3    0    0 -0.16115631281E+02  0.32594886598E+02  0.29097359300E+01  0.36477636041E+02  0.10566000000E+00 0.  1.
         22    1    1    0    0    0 -0.25395347153E+02  0.11440343698E+02 -0.36478616693E+01  0.28091137672E+02  0.00000000000E+00 0. -1.
</event>
<event>
 5    1  0.2377303E-009  0.9118800E+02  0.7815553E-02  0.1125453E+00
         25   -1    0    0    0    0  0.00000000000E+00  0.00000000000E+00  0.99999998245E-14  0.12509000000E+03  0.12509000000E+03 0.  0.
        -13    1    3    3    0    0  0.27900249414E+02  0.30375190638E+02  0.14006593161E+01  0.41268015875E+02  0.10566000000E+00 0.  1.
         23    2    1    0    0    0 -0.21977926981E+02  0.21923317396E+02  0.97722027868E+01  0.92545306618E+02  0.86634154406E+02 0.  0.
         13    1    3    3    0    0 -0.49878176395E+02 -0.84518732420E+01  0.83715434707E+01  0.51277290743E+02  0.10566000000E+00 0. -1.
         22    1    1    0    0    0  0.21977926981E+02 -0.21923317396E+02 -0.97722027868E+01  0.32544693382E+02  0.00000000000E+00 0. -1.
</event>
<event>
 5    1  0.2377303E-009  0.9118800E+02  0.7815553E-02  0.1125453E+00
         25   -1    0    0    0    0  0.00000000000E+00  0.00000000000E+00  0.99999998245E-14  0.12509000000E+03  0.12509000000E+03 0.  0.
        -13    1    3    3    0    0  0.13549071128E+02 -0.46189630388E+02  0.37949698998E+02  0.61296411819E+02  0.10566000000E+00 0.  1.
         23    2    1    0    0    0  0.11277421721E+02 -0.17243084695E+02  0.23845011925E+02  0.93576688461E+02  0.88110770165E+02 0.  0.
         13    1    3    3    0    0 -0.22716494066E+01  0.28946545693E+02 -0.14104687073E+02  0.32280276641E+02  0.10566000000E+00 0. -1.
         22    1    1    0    0    0 -0.11277421721E+02  0.17243084695E+02 -0.23845011925E+02  0.31513311539E+02  0.00000000000E+00 0.  1.
</event>
<event>
 5    1  0.2377303E-009  0.9118800E+02  0.7815553E-02  0.1125453E+00
         25   -1    0    0    0    0  0.00000000000E+00  0.00000000000E+00  0.99999998245E-14  0.12509000000E+03  0.12509000000E+03 0.  0.
        -13    1    3    3    0    0 -0.99674842253E+00 -0.24349212191E+02  0.36825434735E+02  0.44158820740E+02  0.10566000000E+00 0. -1.
         23    2    1    0    0    0 -0.21284945018E+01  0.23531296614E+02  0.16942259702E+02  0.96016084320E+02  0.91508447015E+02 0.  0.
         13    1    3    3    0    0 -0.11317460793E+01  0.47880508804E+02 -0.19883175033E+02  0.51857263580E+02  0.10566000000E+00 0.  1.
         22    1    1    0    0    0  0.21284945018E+01 -0.23531296614E+02 -0.16942259702E+02  0.29073915680E+02  0.00000000000E+00 0.  1.
</event>
<event>
 5    1  0.2377303E-009  0.9118800E+02  0.7815553E-02  0.1125453E+00
         25   -1    0    0    0    0  0.00000000000E+00  0.00000000000E+00  0.99999998245E-14  0.12509000000E+03  0.12509000000E+03 0.  0.
        -13    1    3    3    0    0  0.85427975058E+01 -0.28425074138E+02  0.53249469375E+02  0.60962950894E+02  0.10566000000E+00 0. -1.
         23    2    1    0    0    0 -0.10255254408E+00 -0.21683983360E+02  0.21492284289E+02  0.94559295204E+02  0.89494895799E+02 0.  0.
         13    1    3    3    0    0 -0.86453500499E+01  0.67410907782E+01 -0.31757185086E+02  0.33596344310E+02  0.10566000000E+00 0.  1.
         22    1    1    0    0    0  0.10255254408E+00  0.21683983360E+02 -0.21492284289E+02  0.30530704796E+02  0.00000000000E+00 0. -1.
</event>
<event>
 5    1  0.2377303E-009  0.9118800E+02  0.7815553E-02  0.1125453E+00
         25   -1    0    0    0    0  0.00000000000E+00  0.00000000000E+00  0.99999998245E-14  0.12509000000E+03  0.12509000000E+03 0.  0.
        -13    1    3    3    0    0  0.50151702706E+02  0.14528016001E+01 -0.25561114729E+02  0.56308841819E+02  0.10566000000E+00 0.  1.
         23    2    1    0    0    0  0.26866628066E+02  0.13560072318E+02  0.26971826642E+01  0.94874671783E+02  0.89934627851E+02 0.  0.
         13    1    3    3    0    0 -0.23285074640E+02  0.12107270718E+02  0.28258297393E+02  0.38565829964E+02  0.10566000000E+00 0. -1.
         22    1    1    0    0    0 -0.26866628066E+02 -0.13560072318E+02 -0.26971826642E+01  0.30215328217E+02  0.00000000000E+00 0.  1.
</event>
<event>
 5    1  0.2377303E-009  0.9118800E+02  0.7815553E-02  0.1125453E+00
         25   -1    0    0    0    0  0.00000000000E+00  0.00000000000E+00  0.99999998245E-14  0.12509000000E+03  0.12509000000E+03 0.  0.
        -13    1    3    3    0    0 -0.15905203052E+02  0.11544924427E+01  0.83255631584E+01  0.17989844437E+02  0.10566000000E+00 0. -1.
         23    2    1    0    0    0 -0.11911404064E+02 -0.22301617978E+02 -0.43364366366E+02  0.74893267222E+02  0.55581377220E+02 0.  0.
         13    1    3    3    0    0  0.39937989881E+01 -0.23456110421E+02 -0.51689929524E+02  0.56903422785E+02  0.10566000000E+00 0.  1.
         22    1    1    0    0    0  0.11911404064E+02  0.22301617978E+02  0.43364366366E+02  0.50196732778E+02  0.00000000000E+00 0.  1.
</event>
<event>
 5    1  0.2377303E-009  0.9118800E+02  0.7815553E-02  0.1125453E+00
         25   -1    0    0    0    0  0.00000000000E+00  0.00000000000E+00  0.99999998245E-14  0.12509000000E+03  0.12509000000E+03 0.  0.
        -13    1    3    3    0    0  0.19605256579E+02  0.27899977118E+02  0.17638528018E+02  0.38391452739E+02  0.10566000000E+00 0.  1.
         23    2    1    0    0    0 -0.27441266969E+01 -0.25781590760E+02  0.11030316884E+02  0.96913972174E+02  0.92727716777E+02 0.  0.
         13    1    3    3    0    0 -0.22349383276E+02 -0.53681567878E+02 -0.66082111339E+01  0.58522519436E+02  0.10566000000E+00 0. -1.
         22    1    1    0    0    0  0.27441266969E+01  0.25781590760E+02 -0.11030316884E+02  0.28176027826E+02  0.00000000000E+00 0. -1.
</event>
<event>
 5    1  0.2377303E-009  0.9118800E+02  0.7815553E-02  0.1125453E+00
         25   -1    0    0    0    0  0.00000000000E+00  0.00000000000E+00  0.99999998245E-14  0.12509000000E+03  0.12509000000E+03 0.  0.
        -13    1    3    3    0    0 -0.15568800885E+02  0.18452691422E+02  0.52039473961E+02  0.57367302498E+02  0.10566000000E+00 0. -1.
         23    2    1    0    0    0  0.71959481268E+01 -0.17753346441E+01  0.27884322180E+02  0.96237462746E+02  0.91810567637E+02 0.  0.
         13    1    3    3    0    0  0.22764749011E+02 -0.20228026066E+02 -0.24155151781E+02  0.38870160248E+02  0.10566000000E+00 0.  1.
         22    1    1    0    0    0 -0.71959481268E+01  0.17753346441E+01 -0.27884322180E+02  0.28852537254E+02  0.00000000000E+00 0. -1.
</event>
<event>
 5    1  0.2377303E-009  0.9118800E+02  0.7815553E-02  0.1125453E+00
         25   -1    0    0    0    0  0.00000000000E+00  0.00000000000E+00  0.99999998245E-14  0.12509000000E+03  0.12509000000E+03 0.  0.
        -13    1    3    3    0    0  0.20348219766E+02  0.26220890828E+02 -0.51813397405E+01  0.33592299847E+02  0.10566000000E+00 0.  1.
         23    2    1    0    0    0 -0.18934698099E+02 -0.19120402073E+02  0.11449055730E+02  0.95846309319E+02  0.91276073346E+02 0.  0.
         13    1    3    3    0    0 -0.39282917864E+02 -0.45341292901E+02  0.16630395470E+02  0.62254009473E+02  0.10566000000E+00 0. -1.
         22    1    1    0    0    0  0.18934698099E+02  0.19120402073E+02 -0.11449055730E+02  0.29243690681E+02  0.00000000000E+00 0. -1.
</event>
<event>
 5    1  0.2377303E-009  0.9118800E+02  0.7815553E-02  0.1125453E+00
         25   -1    0    0    0    0  0.00000000000E+00  0.00000000000E+00  0.99999998245E-14  0.12509000000E+03  0.12509000000E+03 0.  0.
        -13    1    3    3    0    0 -0.12844916825E+02 -0.39614339860E+02  0.30605657038E+02  0.51681768716E+02  0.10566000000E+00 0. -1.
         23    2    1    0    0    0 -0.72977465276E+01 -0.26445402624E+02 -0.10893588155E+02  0.95572434259E+02  0.90899964263E+02 0.  0.
         13    1    3    3    0    0  0.55471702977E+01  0.13168937236E+02 -0.41499245193E+02  0.43890665544E+02  0.10566000000E+00 0.  1.
         22    1    1    0    0    0  0.72977465276E+01  0.26445402624E+02  0.10893588155E+02  0.29517565741E+02  0.00000000000E+00 0. -1.
</event>
<event>
 5    1  0.2377303E-009  0.9118800E+02  0.7815553E-02  0.1125453E+00
         25   -1    0    0    0    0  0.00000000000E+00  0.00000000000E+00  0.99999998245E-14  0.12509000000E+03  0.12509000000E+03 0.  0.
        -13    1    3    3    0    0  0.16013164259E+02 -0.24916350599E+02  0.25762961527E+02  0.39255411187E+02  0.10566000000E+00 0.  1.
         23    2    1    0    0    0 -0.11752694907E+02 -0.13410873407E+02 -0.22664549732E+02  0.96251498346E+02  0.91829688860E+02 0.  0.
         13    1    3    3    0    0 -0.27765859166E+02  0.11505477192E+02 -0.48427511259E+02  0.56996087159E+02  0.10566000000E+00 0. -1.
         22    1    1    0    0    0  0.11752694907E+02  0.13410873407E+02  0.22664549732E+02  0.28838501654E+02  0.00000000000E+00 0. -1.
</event>
<event>
 5    1  0.2377303E-009  0.9118800E+02  0.7815553E-02  0.1125453E+00
         25   -1    0    0    0    0  0.00000000000E+00  0.00000000000E+00  0.99999998245E-14  0.12509000000E+03  0.12509000000E+03 0.  0.
        -13    1    3    3    0    0  0.20627324014E+02  0.22665548116E+02 -0.24612527568E+02  0.39306503847E+02  0.10566000000E+00 0.  1.
         23    2    1    0    0    0  0.12882851002E+02 -0.26853920162E+02  0.35766582821E+00  0.95303613800E+02  0.90529277035E+02 0.  0.
         13    1    3    3    0    0 -0.77444730122E+01 -0.49519468278E+02  0.24970193396E+02  0.55997109953E+02  0.10566000000E+00 0. -1.
         22    1    1    0    0    0 -0.12882851002E+02  0.26853920162E+02 -0.35766582821E+00  0.29786386200E+02  0.00000000000E+00 0. -1.
</event>
<event>
 5    1  0.2377303E-009  0.9118800E+02  0.7815553E-02  0.1125453E+00
         25   -1    0    0    0    0  0.00000000000E+00  0.00000000000E+00  0.99999998245E-14  0.12509000000E+03  0.12509000000E+03 0.  0.
        -13    1    3    3    0    0 -0.21218510941E+02 -0.50881365281E+02 -0.28301846976E+02  0.61968897406E+02  0.10566000000E+00 0.  1.
         23    2    1    0    0    0 -0.12539828971E+02 -0.24471003142E+02 -0.78089374316E+01  0.96505794410E+02  0.92175438950E+02 0.  0.
         13    1    3    3    0    0  0.86786819704E+01  0.26410362139E+02  0.20492909544E+02  0.34536897004E+02  0.10566000000E+00 0. -1.
         22    1    1    0    0    0  0.12539828971E+02  0.24471003142E+02  0.78089374316E+01  0.28584205590E+02  0.00000000000E+00 0.  1.
</event>
<event>
 5    1  0.2377303E-009  0.9118800E+02  0.7815553E-02  0.1125453E+00
         25   -1    0    0    0    0  0.00000000000E+00  0.00000000000E+00  0.99999998245E-14  0.12509000000E+03  0.12509000000E+03 0.  0.
        -13    1    3    3    0    0 -0.14183066299E+02 -0.20376330265E+02 -0.31073760419E+02  0.39773659064E+02  0.10566000000E+00 0. -1.
         23    2    1    0    0    0 -0.11961100882E+02 -0.10873108761E+02  0.24247002965E+02  0.95948799248E+02  0.91416423557E+02 0.  0.
         13    1    3    3    0    0  0.22219654163E+01  0.95032215036E+01  0.55320763384E+02  0.56175140184E+02  0.10566000000E+00 0.  1.
         22    1    1    0    0    0  0.11961100882E+02  0.10873108761E+02 -0.24247002965E+02  0.29141200752E+02  0.00000000000E+00 0.  1.
</event>
<event>
 5    1  0.2377303E-009  0.9118800E+02  0.7815553E-02  0.1125453E+00
         25   -1    0    0    0    0  0.00000000000E+00  0.00000000000E+00  0.99999998245E-14  0.12509000000E+03  0.12509000000E+03 0.  0.
        -13    1    3    3    0    0 -0.36528952461E+02  0.40928741769E+02  0.22119333874E+02  0.59150675108E+02  0.10566000000E+00 0.  1.
         23    2    1    0    0    0 -0.24919831456E+02  0.14956993612E+02 -0.12975200584E+01  0.95997162118E+02  0.91482577132E+02 0.  0.
         13    1    3    3    0    0  0.11609121004E+02 -0.25971748157E+02 -0.23416853932E+02  0.36846487010E+02  0.10566000000E+00 0. -1.
         22    1    1    0    0    0  0.24919831456E+02 -0.14956993612E+02  0.12975200584E+01  0.29092837882E+02  0.00000000000E+00 0.  1.
</event>
<event>
 5    1  0.2377303E-009  0.9118800E+02  0.7815553E-02  0.1125453E+00
         25   -1    0    0    0    0  0.00000000000E+00  0.00000000000E+00  0.99999998245E-14  0.12509000000E+03  0.12509000000E+03 0.  0.
        -13    1    3    3    0    0  0.47968160699E+02  0.38449666900E+02 -0.68074554038E+01  0.61852032616E+02  0.10566000000E+00 0.  1.
         23    2    1    0    0    0  0.28154920849E+02  0.28847460067E+02 -0.83530353487E+01  0.83923888697E+02  0.73133920818E+02 0.  0.
         13    1    3    3    0    0 -0.19813239851E+02 -0.96022068331E+01 -0.15455799450E+01  0.22071856081E+02  0.10566000000E+00 0. -1.
         22    1    1    0    0    0 -0.28154920849E+02 -0.28847460067E+02  0.83530353487E+01  0.41166111303E+02  0.00000000000E+00 0.  1.
</event>
<event>
 5    1  0.2377303E-009  0.9118800E+02  0.7815553E-02  0.1125453E+00
         25   -1    0    0    0    0  0.00000000000E+00  0.00000000000E+00  0.99999998245E-14  0.12509000000E+03  0.12509000000E+03 0.  0.
        -13    1    3    3    0    0  0.34981489464E+02 -0.39444193180E+00  0.22193219489E+01  0.35054197231E+02  0.10566000000E+00 0. -1.
         23    2    1    0    0    0 -0.23555133143E+02 -0.57835040054E+01  0.16757316806E+02  0.95609483001E+02  0.90950933790E+02 0.  0.
         13    1    3    3    0    0 -0.58536622607E+02 -0.53890620736E+01  0.14537994857E+02  0.60555285771E+02  0.10566000000E+00 0.  1.
         22    1    1    0    0    0  0.23555133143E+02  0.57835040054E+01 -0.16757316806E+02  0.29480516999E+02  0.00000000000E+00 0.  1.
</event>
<event>
 5    1  0.2377303E-009  0.9118800E+02  0.7815553E-02  0.1125453E+00
         25   -1    0    0    0    0  0.00000000000E+00  0.00000000000E+00  0.99999998245E-14  0.12509000000E+03  0.12509000000E+03 0.  0.
        -13    1    3    3    0    0 -0.21876413899E+02  0.46762296897E+02 -0.35239339252E+02  0.62506896348E+02  0.10566000000E+00 0. -1.
         23    2    1    0    0    0 -0.11219313882E+02  0.20374422870E+02 -0.16018654752E+02  0.96848409901E+02  0.92639230831E+02 0.  0.
         13    1    3    3    0    0  0.10657100017E+02 -0.26387874027E+02  0.19220684499E+02  0.34341513553E+02  0.10566000000E+00 0.  1.
         22    1    1    0    0    0  0.11219313882E+02 -0.20374422870E+02  0.16018654752E+02  0.28241590099E+02  0.00000000000E+00 0. -1.
</event>
<event>
 5    1  0.2377303E-009  0.9118800E+02  0.7815553E-02  0.1125453E+00
         25   -1    0    0    0    0  0.00000000000E+00  0.00000000000E+00  0.99999998245E-14  0.12509000000E+03  0.12509000000E+03 0.  0.
        -13    1    3    3    0    0  0.30961023101E+02  0.41247332198E+01  0.13939141062E+02  0.34203935347E+02  0.10566000000E+00 0.  1.
         23    2    1    0    0    0 -0.17104426451E+02 -0.16239289185E+02 -0.18017178376E+02  0.95410130828E+02  0.90676338868E+02 0.  0.
         13    1    3    3    0    0 -0.48065449552E+02 -0.20364022405E+02 -0.31956319438E+02  0.61206195481E+02  0.10566000000E+00 0. -1.
         22    1    1    0    0    0  0.17104426451E+02  0.16239289185E+02  0.18017178376E+02  0.29679869172E+02  0.00000000000E+00 0. -1.
</event>
<event>
 5    1  0.2377303E-009  0.9118800E+02  0.7815553E-02  0.1125453E+00
         25   -1    0    0    0    0  0.00000000000E+00  0.00000000000E+00  0.99999998245E-14  0.12509000000E+03  0.12509000000E+03 0.  0.
        -13    1    3    3    0    0 -0.21565794987E+02 -0.67631781118E+01  0.36239470468E+02  0.42709887327E+02  0.10566000000E+00 0. -1.
         23    2    1    0    0    0 -0.54230096213E+01  0.27574294292E+02 -0.24264871513E+01  0.96882933883E+02  0.92685836560E+02 0.  0.
         13    1    3    3    0    0  0.16142785366E+02  0.34337472404E+02 -0.38665957620E+02  0.54173046556E+02  0.10566000000E+00 0.  1.
         22    1    1    0    0    0  0.54230096213E+01 -0.27574294292E+02  0.24264871513E+01  0.28207066117E+02  0.00000000000E+00 0.  1.
</event>
<event>
 5    1  0.2377303E-009  0.9118800E+02  0.7815553E-02  0.1125453E+00
         25   -1    0    0    0    0  0.00000000000E+00  0.00000000000E+00  0.99999998245E-14  0.12509000000E+03  0.12509000000E+03 0.  0.
        -13    1    3    3    0    0 -0.11618700757E+02  0.26755461845E+02  0.41046577364E+02  0.50355552059E+02  0.10566000000E+00 0.  1.
         23    2    1    0    0    0 -0.23293186447E+02  0.24213637626E+02  0.17309299928E+01  0.91446740637E+02  0.85033155137E+02 0.  0.
         13    1    3    3    0    0 -0.11674485690E+02 -0.25418242188E+01 -0.39315647371E+02  0.41091188578E+02  0.10566000000E+00 0. -1.
         22    1    1    0    0    0  0.23293186447E+02 -0.24213637626E+02 -0.17309299928E+01  0.33643259363E+02  0.00000000000E+00 0.  1.
</event>
<event>
 5    1  0.2377303E-009  0.9118800E+02  0.7815553E-02  0.1125453E+00
         25   -1    0    0    0    0  0.00000000000E+00  0.00000000000E+00  0.99999998245E-14  0.12509000000E+03  0.12509000000E+03 0.  0.
        -13    1    3    3    0    0  0.14546707462E+02  0.30041075686E+02  0.22912971515E+02  0.40485656152E+02  0.10566000000E+00 0.  1.
         23    2    1    0    0    0 -0.23293873615E+02  0.98724895716E+01 -0.13206490227E+02  0.96550869276E+02  0.92236589137E+02 0.  0.
         13    1    3    3    0    0 -0.37840581077E+02 -0.20168586114E+02 -0.36119461742E+02  0.56065213125E+02  0.10566000000E+00 0. -1.
         22    1    1    0    0    0  0.23293873615E+02 -0.98724895716E+01  0.13206490227E+02  0.28539130724E+02  0.00000000000E+00 0. -1.
</event>
<event>
 5    1  0.2377303E-009  0.9118800E+02  0.7815553E-02  0.1125453E+00
         25   -1    0    0    0    0  0.00000000000E+00  0.00000000000E+00  0.99999998245E-14  0.12509000000E+03  0.12509000000E+03 0.  0.
        -13    1    3    3    0    0 -0.10589973784E+02  0.47078728959E+01  0.16158959648E+02  0.19885541303E+02  0.10566000000E+00 0. -1.
         23    2    1    0    0    0 -0.37652792478E+01 -0.34802259916E+02 -0.28534329466E+02  0.79928261979E+02  0.65946527443E+02 0.  0.
         13    1    3    3    0    0  0.68246945366E+01 -0.39510132812E+02 -0.44693289114E+02  0.60042720676E+02  0.10566000000E+00 0.  1.
         22    1    1    0    0    0  0.37652792478E+01  0.34802259916E+02  0.28534329466E+02  0.45161738021E+02  0.00000000000E+00 0.  1.
</event>
<event>
 5    1  0.2377303E-009  0.9118800E+02  0.7815553E-02  0.1125453E+00
         25   -1    0    0    0    0  0.00000000000E+00  0.00000000000E+00  0.99999998245E-14  0.12509000000E+03  0.12509000000E+03 0.  0.
        -13    1    3    3    0    0 -0.22840515737E+01  0.14949913717E+02  0.50253849898E+02  0.52480257291E+02  0.10566000000E+00 0.  1.
         23    2    1    0    0    0  0.22863621659E+02  0.18939318790E+01  0.15131386019E+02  0.97607441600E+02  0.93658537462E+02 0.  0.
         13    1    3    3    0    0  0.25147673233E+02 -0.13055981838E+02 -0.35122463878E+02  0.45127184310E+02  0.10566000000E+00 0. -1.
         22    1    1    0    0    0 -0.22863621659E+02 -0.18939318790E+01 -0.15131386019E+02  0.27482558400E+02  0.00000000000E+00 0.  1.
</event>
<event>
 5    1  0.2377303E-009  0.9118800E+02  0.7815553E-02  0.1125453E+00
         25   -1    0    0    0    0  0.00000000000E+00  0.00000000000E+00  0.99999998245E-14  0.12509000000E+03  0.12509000000E+03 0.  0.
        -13    1    3    3    0    0  0.47404290071E+02  0.51428873108E+01 -0.32176143712E+02  0.57523311755E+02  0.10566000000E+00 0. -1.
         23    2    1    0    0    0  0.27928014091E+02  0.73893750784E+01  0.11381745038E+01  0.96178544202E+02  0.91730257214E+02 0.  0.
         13    1    3    3    0    0 -0.19476275979E+02  0.22464877676E+01  0.33314318216E+02  0.38655232447E+02  0.10566000000E+00 0.  1.
         22    1    1    0    0    0 -0.27928014091E+02 -0.73893750784E+01 -0.11381745038E+01  0.28911455798E+02  0.00000000000E+00 0. -1.
</event>
<event>
 5    1  0.2377303E-009  0.9118800E+02  0.7815553E-02  0.1125453E+00
         25   -1    0    0    0    0  0.00000000000E+00  0.00000000000E+00  0.99999998245E-14  0.12509000000E+03  0.12509000000E+03 0.  0.
        -13    1    3    3    0    0  0.90340446116E+01  0.39845170682E+02 -0.50747626964E+01  0.41170571641E+02  0.10566000000E+00 0.  1.
         23    2    1    0    0    0  0.20447739774E+02 -0.94109564842E+01 -0.21126986777E+02  0.94218885117E+02  0.89017821691E+02 0.  0.
         13    1    3    3    0    0  0.11413695162E+02 -0.49256127167E+02 -0.16052224081E+02  0.53048313476E+02  0.10566000000E+00 0. -1.
         22    1    1    0    0    0 -0.20447739774E+02  0.94109564842E+01  0.21126986777E+02  0.30871114883E+02  0.00000000000E+00 0. -1.
</event>
<event>
 5    1  0.2377303E-009  0.9118800E+02  0.7815553E-02  0.1125453E+00
         25   -1    0    0    0    0  0.00000000000E+00  0.00000000000E+00  0.99999998245E-14  0.12509000000E+03  0.12509000000E+03 0.  0.
        -13    1    3    3    0    0 -0.84674949034E+01 -0.26702413214E+01 -0.42263344607E+02  0.43185994490E+02  0.10566000000E+00 0. -1.
         23    2    1    0    0    0  0.23665193189E+01  0.29016381081E+02 -0.15031003600E+01  0.95938497544E+02  0.91402326096E+02 0.  0.
         13    1    3    3    0    0  0.10834014222E+02  0.31686622402E+02  0.40760244247E+02  0.52752503055E+02  0.10566000000E+00 0.  1.
         22    1    1    0    0    0 -0.23665193189E+01 -0.29016381081E+02  0.15031003600E+01  0.29151502456E+02  0.00000000000E+00 0.  1.
</event>
<event>
 5    1  0.2377303E-009  0.9118800E+02  0.7815553E-02  0.1125453E+00
         25   -1    0    0    0    0  0.00000000000E+00  0.00000000000E+00  0.99999998245E-14  0.12509000000E+03  0.12509000000E+03 0.  0.
        -13    1    3    3    0    0  0.18089404306E+02  0.19699467672E+02 -0.48498451155E+02  0.55384171955E+02  0.10566000000E+00 0.  1.
         23    2    1    0    0    0 -0.12551121124E+02  0.13677917708E+02 -0.21694574207E+02  0.96537055768E+02  0.92217853542E+02 0.  0.
         13    1    3    3    0    0 -0.30640525431E+02 -0.60215499637E+01  0.26803876948E+02  0.41152883813E+02  0.10566000000E+00 0. -1.
         22    1    1    0    0    0  0.12551121124E+02 -0.13677917708E+02  0.21694574207E+02  0.28552944232E+02  0.00000000000E+00 0.  1.
</event>
<event>
 5    1  0.2377303E-009  0.9118800E+02  0.7815553E-02  0.1125453E+00
         25   -1    0    0    0    0  0.00000000000E+00  0.00000000000E+00  0.99999998245E-14  0.12509000000E+03  0.12509000000E+03 0.  0.
        -13    1    3    3    0    0  0.37912384082E+02  0.29182323578E+02  0.80695941991E-01  0.47843228905E+02  0.10566000000E+00 0. -1.
         23    2    1    0    0    0  0.18691462762E+02 -0.68161756200E+01 -0.22961704032E+02  0.94707918400E+02  0.89702390857E+02 0.  0.
         13    1    3    3    0    0 -0.19220921320E+02 -0.35998499198E+02 -0.23042399974E+02  0.46864689495E+02  0.10566000000E+00 0.  1.
         22    1    1    0    0    0 -0.18691462762E+02  0.68161756200E+01  0.22961704032E+02  0.30382081600E+02  0.00000000000E+00 0. -1.
</event>
<event>
 5    1  0.2377303E-009  0.9118800E+02  0.7815553E-02  0.1125453E+00
         25   -1    0    0    0    0  0.00000000000E+00  0.00000000000E+00  0.99999998245E-14  0.12509000000E+03  0.12509000000E+03 0.  0.
        -13    1    3    3    0    0  0.29649163347E+01  0.58596610538E+01  0.35864988965E+02  0.36461417334E+02  0.10566000000E+00 0.  1.
         23    2    1    0    0    0 -0.16196003805E+02 -0.22802879763E+02 -0.11333820600E+02  0.94911574691E+02  0.89985941436E+02 0.  0.
         13    1    3    3    0    0 -0.19160920140E+02 -0.28662540817E+02 -0.47198809565E+02  0.58450157357E+02  0.10566000000E+00 0. -1.
         22    1    1    0    0    0  0.16196003805E+02  0.22802879763E+02  0.11333820600E+02  0.30178425309E+02  0.00000000000E+00 0. -1.
</event>
<event>
 5    1  0.2377303E-009  0.9118800E+02  0.7815553E-02  0.1125453E+00
         25   -1    0    0    0    0  0.00000000000E+00  0.00000000000E+00  0.99999998245E-14  0.12509000000E+03  0.12509000000E+03 0.  0.
        -13    1    3    3    0    0 -0.53843058320E+02  0.22387825529E+01 -0.19357048186E+02  0.57260750563E+02  0.10566000000E+00 0.  1.
         23    2    1    0    0    0 -0.17336976750E+02  0.11716656984E+02 -0.21564832887E+02  0.95041824829E+02  0.90166821146E+02 0.  0.
         13    1    3    3    0    0  0.36506081570E+02  0.94778744307E+01 -0.22077847002E+01  0.37781074265E+02  0.10566000000E+00 0. -1.
         22    1    1    0    0    0  0.17336976750E+02 -0.11716656984E+02  0.21564832887E+02  0.30048175171E+02  0.00000000000E+00 0.  1.
</event>
<event>
 5    1  0.2377303E-009  0.9118800E+02  0.7815553E-02  0.1125453E+00
         25   -1    0    0    0    0  0.00000000000E+00  0.00000000000E+00  0.99999998245E-14  0.12509000000E+03  0.12509000000E+03 0.  0.
        -13    1    3    3    0    0 -0.28025816221E+02 -0.13803727703E+01  0.23043923929E+02  0.36309577220E+02  0.10566000000E+00 0.  1.
         23    2    1    0    0    0  0.25679261650E+02 -0.15262403937E+02  0.40367525918E+01  0.94945998535E+02  0.90033781513E+02 0.  0.
         13    1    3    3    0    0  0.53705077870E+02 -0.13882031167E+02 -0.19007171338E+02  0.58636421315E+02  0.10566000000E+00 0. -1.
         22    1    1    0    0    0 -0.25679261650E+02  0.15262403937E+02 -0.40367525918E+01  0.30144001465E+02  0.00000000000E+00 0. -1.
</event>
<event>
 5    1  0.2377303E-009  0.9118800E+02  0.7815553E-02  0.1125453E+00
         25   -1    0    0    0    0  0.00000000000E+00  0.00000000000E+00  0.99999998245E-14  0.12509000000E+03  0.12509000000E+03 0.  0.
        -13    1    3    3    0    0 -0.30629049378E+02 -0.21548796373E+02  0.36507778914E+02  0.52300271283E+02  0.10566000000E+00 0.  1.
         23    2    1    0    0    0 -0.24974788937E+02  0.12043436999E+02  0.94726342184E+01  0.95789569010E+02  0.91198280000E+02 0.  0.
         13    1    3    3    0    0  0.56542604418E+01  0.33592233372E+02 -0.27035144696E+02  0.43489297727E+02  0.10566000000E+00 0. -1.
         22    1    1    0    0    0  0.24974788937E+02 -0.12043436999E+02 -0.94726342184E+01  0.29300430990E+02  0.00000000000E+00 0.  1.
</event>
<event>
 5    1  0.2377303E-009  0.9118800E+02  0.7815553E-02  0.1125453E+00
         25   -1    0    0    0    0  0.00000000000E+00  0.00000000000E+00  0.99999998245E-14  0.12509000000E+03  0.12509000000E+03 0.  0.
        -13    1    3    3    0    0  0.24997840287E+02  0.37676967910E+02 -0.42736930185E+02  0.62216575730E+02  0.10566000000E+00 0.  1.
         23    2    1    0    0    0  0.16171012181E+02  0.17543903654E+02 -0.18824838225E+02  0.94698147069E+02  0.89688763698E+02 0.  0.
         13    1    3    3    0    0 -0.88268281061E+01 -0.20133064256E+02  0.23912091959E+02  0.32481571339E+02  0.10566000000E+00 0. -1.
         22    1    1    0    0    0 -0.16171012181E+02 -0.17543903654E+02  0.18824838225E+02  0.30391852931E+02  0.00000000000E+00 0.  1.
</event>
<event>
 5    1  0.2377303E-009  0.9118800E+02  0.7815553E-02  0.1125453E+00
         25   -1    0    0    0    0  0.00000000000E+00  0.00000000000E+00  0.99999998245E-14  0.12509000000E+03  0.12509000000E+03 0.  0.
        -13    1    3    3    0    0 -0.15942614458E+02  0.32153247119E+02 -0.89714030459E+01  0.36993181705E+02  0.10566000000E+00 0.  1.
         23    2    1    0    0    0  0.13479245902E+02 -0.17572992971E+02 -0.19330828832E+02  0.95693042754E+02  0.91065785760E+02 0.  0.
         13    1    3    3    0    0  0.29421860360E+02 -0.49726240089E+02 -0.10359425786E+02  0.58699861048E+02  0.10566000000E+00 0. -1.
         22    1    1    0    0    0 -0.13479245902E+02  0.17572992971E+02  0.19330828832E+02  0.29396957246E+02  0.00000000000E+00 0. -1.
</event>
<event>
 5    1  0.2377303E-009  0.9118800E+02  0.7815553E-02  0.1125453E+00
         25   -1    0    0    0    0  0.00000000000E+00  0.00000000000E+00  0.99999998245E-14  0.12509000000E+03  0.12509000000E+03 0.  0.
        -13    1    3    3    0    0 -0.19550074661E+02 -0.21987953285E+02  0.20749505970E+02  0.36003175845E+02  0.10566000000E+00 0. -1.
         23    2    1    0    0    0 -0.11624712643E+01  0.27652781739E+02 -0.80485061499E+01  0.96266292247E+02  0.91849838837E+02 0.  0.
         13    1    3    3    0    0  0.18387603397E+02  0.49640735024E+02 -0.28798012119E+02  0.60263116402E+02  0.10566000000E+00 0.  1.
         22    1    1    0    0    0  0.11624712643E+01 -0.27652781739E+02  0.80485061499E+01  0.28823707753E+02  0.00000000000E+00 0.  1.
</event>
<event>
 5    1  0.2377303E-009  0.9118800E+02  0.7815553E-02  0.1125453E+00
         25   -1    0    0    0    0  0.00000000000E+00  0.00000000000E+00  0.99999998245E-14  0.12509000000E+03  0.12509000000E+03 0.  0.
        -13    1    3    3    0    0 -0.15583776457E+02  0.22216219119E+02  0.53981086414E+02  0.60418402288E+02  0.10566000000E+00 0.  1.
         23    2    1    0    0    0 -0.11359173976E+02  0.67412858483E-01  0.28309573584E+02  0.94586437349E+02  0.89532825242E+02 0.  0.
         13    1    3    3    0    0  0.42246024811E+01 -0.22148806260E+02 -0.25671512830E+02  0.34168035060E+02  0.10566000000E+00 0. -1.
         22    1    1    0    0    0  0.11359173976E+02 -0.67412858483E-01 -0.28309573584E+02  0.30503562651E+02  0.00000000000E+00 0.  1.
</event>
<event>
 5    1  0.2377303E-009  0.9118800E+02  0.7815553E-02  0.1125453E+00
         25   -1    0    0    0    0  0.00000000000E+00  0.00000000000E+00  0.99999998245E-14  0.12509000000E+03  0.12509000000E+03 0.  0.
        -13    1    3    3    0    0 -0.47056652650E+02  0.31338556649E+02  0.10962152832E+02  0.57590048188E+02  0.10566000000E+00 0.  1.
         23    2    1    0    0    0 -0.89704479485E+01  0.26553303082E+02  0.71506378715E+01  0.96164605225E+02  0.91711247048E+02 0.  0.
         13    1    3    3    0    0  0.38086204702E+02 -0.47852535676E+01 -0.38115149603E+01  0.38574557037E+02  0.10566000000E+00 0. -1.
         22    1    1    0    0    0  0.89704479485E+01 -0.26553303082E+02 -0.71506378715E+01  0.28925394775E+02  0.00000000000E+00 0.  1.
</event>
<event>
 5    1  0.2377303E-009  0.9118800E+02  0.7815553E-02  0.1125453E+00
         25   -1    0    0    0    0  0.00000000000E+00  0.00000000000E+00  0.99999998245E-14  0.12509000000E+03  0.12509000000E+03 0.  0.
        -13    1    3    3    0    0  0.68445891900E+01 -0.50175468261E+02  0.33708493009E+02  0.60833376377E+02  0.10566000000E+00 0. -1.
         23    2    1    0    0    0 -0.61097618278E+01 -0.25925447170E+02  0.11943210191E+02  0.95899277669E+02  0.91348635388E+02 0.  0.
         13    1    3    3    0    0 -0.12954351018E+02  0.24250021092E+02 -0.21765282818E+02  0.35065901292E+02  0.10566000000E+00 0.  1.
         22    1    1    0    0    0  0.61097618278E+01  0.25925447170E+02 -0.11943210191E+02  0.29190722331E+02  0.00000000000E+00 0. -1.
</event>
<event>
 5    1  0.2377303E-009  0.9118800E+02  0.7815553E-02  0.1125453E+00
         25   -1    0    0    0    0  0.00000000000E+00  0.00000000000E+00  0.99999998245E-14  0.12509000000E+03  0.12509000000E+03 0.  0.
        -13    1    3    3    0    0 -0.10658210830E+02  0.61110521067E+02  0.11827812935E+01  0.62044366213E+02  0.10566000000E+00 0. -1.
         23    2    1    0    0    0 -0.99648857976E+01  0.30496849621E+02  0.38218389453E+01  0.92779580029E+02  0.86971761116E+02 0.  0.
         13    1    3    3    0    0  0.69332503279E+00 -0.30613671446E+02  0.26390576519E+01  0.30735213816E+02  0.10566000000E+00 0.  1.
         22    1    1    0    0    0  0.99648857976E+01 -0.30496849621E+02 -0.38218389453E+01  0.32310419971E+02  0.00000000000E+00 0. -1.
</event>
<event>
 5    1  0.2377303E-009  0.9118800E+02  0.7815553E-02  0.1125453E+00
         25   -1    0    0    0    0  0.00000000000E+00  0.00000000000E+00  0.99999998245E-14  0.12509000000E+03  0.12509000000E+03 0.  0.
        -13    1    3    3    0    0  0.22574241502E+02 -0.25068785024E+01 -0.36143684231E+02  0.42687912727E+02  0.10566000000E+00 0.  1.
         23    2    1    0    0    0 -0.76966353785E+00 -0.25420409807E+02  0.87149623705E+01  0.98206172411E+02  0.94454815196E+02 0.  0.
         13    1    3    3    0    0 -0.23343905040E+02 -0.22913531305E+02  0.44858646601E+02  0.55518259684E+02  0.10566000000E+00 0. -1.
         22    1    1    0    0    0  0.76966353785E+00  0.25420409807E+02 -0.87149623705E+01  0.26883827589E+02  0.00000000000E+00 0. -1.
</event>
<event>
 5    1  0.2377303E-009  0.9118800E+02  0.7815553E-02  0.1125453E+00
         25   -1    0    0    0    0  0.00000000000E+00  0.00000000000E+00  0.99999998245E-14  0.12509000000E+03  0.12509000000E+03 0.  0.
        -13    1    3    3    0    0  0.15669026773E+02  0.25956735360E+02 -0.12095190582E+02  0.32643151040E+02  0.10566000000E+00 0.  1.
         23    2    1    0    0    0  0.28808755413E+00 -0.23125938850E+02  0.21036236737E+02  0.93826358207E+02  0.88464513768E+02 0.  0.
         13    1    3    3    0    0 -0.15380939219E+02 -0.49082674210E+02  0.33131427319E+02  0.61183207166E+02  0.10566000000E+00 0. -1.
         22    1    1    0    0    0 -0.28808755413E+00  0.23125938850E+02 -0.21036236737E+02  0.31263641793E+02  0.00000000000E+00 0. -1.
</event>
<event>
 5    1  0.2377303E-009  0.9118800E+02  0.7815553E-02  0.1125453E+00
         25   -1    0    0    0    0  0.00000000000E+00  0.00000000000E+00  0.99999998245E-14  0.12509000000E+03  0.12509000000E+03 0.  0.
        -13    1    3    3    0    0  0.18852904920E+02  0.15354655455E+02  0.44957351402E+02  0.51111369353E+02  0.10566000000E+00 0.  1.
         23    2    1    0    0    0  0.28896110931E+02 -0.22695774807E+01  0.53442025823E+01  0.95616338705E+02  0.90960362341E+02 0.  0.
         13    1    3    3    0    0  0.10043206011E+02 -0.17624232936E+02 -0.39613148819E+02  0.44504969352E+02  0.10566000000E+00 0. -1.
         22    1    1    0    0    0 -0.28896110931E+02  0.22695774807E+01 -0.53442025823E+01  0.29473661295E+02  0.00000000000E+00 0. -1.
</event>
<event>
 5    1  0.2377303E-009  0.9118800E+02  0.7815553E-02  0.1125453E+00
         25   -1    0    0    0    0  0.00000000000E+00  0.00000000000E+00  0.99999998245E-14  0.12509000000E+03  0.12509000000E+03 0.  0.
        -13    1    3    3    0    0 -0.22526326065E+02 -0.90258522381E+01 -0.31870536476E+02  0.40058003369E+02  0.10566000000E+00 0. -1.
         23    2    1    0    0    0 -0.16085082022E+02  0.64043060157E+01  0.22361691957E+02  0.96809436597E+02  0.92586590541E+02 0.  0.
         13    1    3    3    0    0  0.64412440431E+01  0.15430158254E+02  0.54232228433E+02  0.56751433228E+02  0.10566000000E+00 0.  1.
         22    1    1    0    0    0  0.16085082022E+02 -0.64043060157E+01 -0.22361691957E+02  0.28280563403E+02  0.00000000000E+00 0.  1.
</event>
<event>
 5    1  0.2377303E-009  0.9118800E+02  0.7815553E-02  0.1125453E+00
         25   -1    0    0    0    0  0.00000000000E+00  0.00000000000E+00  0.99999998245E-14  0.12509000000E+03  0.12509000000E+03 0.  0.
        -13    1    3    3    0    0 -0.34209244766E+02 -0.57914174556E+01  0.30994596675E+02  0.46524070444E+02  0.10566000000E+00 0. -1.
         23    2    1    0    0    0  0.12803197963E+02 -0.95318966960E+01  0.26832914486E+02  0.93868465244E+02  0.88524033656E+02 0.  0.
         13    1    3    3    0    0  0.47012442729E+02 -0.37404792404E+01 -0.41616821892E+01  0.47344394800E+02  0.10566000000E+00 0.  1.
         22    1    1    0    0    0 -0.12803197963E+02  0.95318966960E+01 -0.26832914486E+02  0.31221534756E+02  0.00000000000E+00 0.  1.
</event>
<event>
 5    1  0.2377303E-009  0.9118800E+02  0.7815553E-02  0.1125453E+00
         25   -1    0    0    0    0  0.00000000000E+00  0.00000000000E+00  0.99999998245E-14  0.12509000000E+03  0.12509000000E+03 0.  0.
        -13    1    3    3    0    0 -0.55054526412E+02  0.12115588105E+02  0.12544176772E+02  0.57750808553E+02  0.10566000000E+00 0.  1.
         23    2    1    0    0    0 -0.15868589806E+02  0.14706237269E+02  0.17405868577E+02  0.97322216185E+02  0.93276813546E+02 0.  0.
         13    1    3    3    0    0  0.39185936606E+02  0.25906491644E+01  0.48616918051E+01  0.39571407632E+02  0.10566000000E+00 0. -1.
         22    1    1    0    0    0  0.15868589806E+02 -0.14706237269E+02 -0.17405868577E+02  0.27767783815E+02  0.00000000000E+00 0.  1.
</event>
<event>
 5    1  0.2377303E-009  0.9118800E+02  0.7815553E-02  0.1125453E+00
         25   -1    0    0    0    0  0.00000000000E+00  0.00000000000E+00  0.99999998245E-14  0.12509000000E+03  0.12509000000E+03 0.  0.
        -13    1    3    3    0    0 -0.29249413245E+02 -0.93239169065E+01 -0.31506188056E+02  0.43989938072E+02  0.10566000000E+00 0.  1.
         23    2    1    0    0    0 -0.36649585476E+02  0.14288767308E+02  0.20694151353E+01  0.85699094124E+02  0.76109731755E+02 0.  0.
         13    1    3    3    0    0 -0.74001722305E+01  0.23612684215E+02  0.33575603191E+02  0.41709156052E+02  0.10566000000E+00 0. -1.
         22    1    1    0    0    0  0.36649585476E+02 -0.14288767308E+02 -0.20694151353E+01  0.39390905876E+02  0.00000000000E+00 0.  1.
</event>
<event>
 5    1  0.2377303E-009  0.9118800E+02  0.7815553E-02  0.1125453E+00
         25   -1    0    0    0    0  0.00000000000E+00  0.00000000000E+00  0.99999998245E-14  0.12509000000E+03  0.12509000000E+03 0.  0.
        -13    1    3    3    0    0 -0.31586148294E+02 -0.93648104811E+01  0.36328912394E+00  0.32947345605E+02  0.10566000000E+00 0.  1.
         23    2    1    0    0    0  0.26710410304E+02  0.96923864618E+01 -0.96284554545E+01  0.95088407903E+02  0.90231423513E+02 0.  0.
         13    1    3    3    0    0  0.58296558598E+02  0.19057196943E+02 -0.99917445784E+01  0.62141062298E+02  0.10566000000E+00 0. -1.
         22    1    1    0    0    0 -0.26710410304E+02 -0.96923864618E+01  0.96284554545E+01  0.30001592097E+02  0.00000000000E+00 0. -1.
</event>
<event>
 5    1  0.2377303E-009  0.9118800E+02  0.7815553E-02  0.1125453E+00
         25   -1    0    0    0    0  0.00000000000E+00  0.00000000000E+00  0.99999998245E-14  0.12509000000E+03  0.12509000000E+03 0.  0.
        -13    1    3    3    0    0 -0.70053610607E+01 -0.12622027193E+02 -0.59294150107E+02  0.61026207935E+02  0.10566000000E+00 0. -1.
         23    2    1    0    0    0 -0.12650619535E+02 -0.58798668579E+01 -0.24678556165E+02  0.96741417262E+02  0.92494646713E+02 0.  0.
         13    1    3    3    0    0 -0.56452584741E+01  0.67421603347E+01  0.34615593942E+02  0.35715209326E+02  0.10566000000E+00 0.  1.
         22    1    1    0    0    0  0.12650619535E+02  0.58798668579E+01  0.24678556165E+02  0.28348582738E+02  0.00000000000E+00 0. -1.
</event>
<event>
 5    1  0.2377303E-009  0.9118800E+02  0.7815553E-02  0.1125453E+00
         25   -1    0    0    0    0  0.00000000000E+00  0.00000000000E+00  0.99999998245E-14  0.12509000000E+03  0.12509000000E+03 0.  0.
        -13    1    3    3    0    0 -0.20301419986E+02 -0.40197780488E+02 -0.22646409608E+02  0.50407144750E+02  0.10566000000E+00 0.  1.
         23    2    1    0    0    0  0.17703200142E+02 -0.23539837928E+02 -0.65380446808E+01  0.94919264292E+02  0.89996630162E+02 0.  0.
         13    1    3    3    0    0  0.38004620129E+02  0.16657942560E+02  0.16108364928E+02  0.44512119542E+02  0.10566000000E+00 0. -1.
         22    1    1    0    0    0 -0.17703200142E+02  0.23539837928E+02  0.65380446808E+01  0.30170735708E+02  0.00000000000E+00 0.  1.
</event>
<event>
 5    1  0.2377303E-009  0.9118800E+02  0.7815553E-02  0.1125453E+00
         25   -1    0    0    0    0  0.00000000000E+00  0.00000000000E+00  0.99999998245E-14  0.12509000000E+03  0.12509000000E+03 0.  0.
        -13    1    3    3    0    0  0.32666867646E+02  0.14227700553E+02 -0.23267942553E+02  0.42555375918E+02  0.10566000000E+00 0. -1.
         23    2    1    0    0    0  0.13041892671E+02 -0.23425350377E+02  0.99772429357E+01  0.96482599186E+02  0.92143955658E+02 0.  0.
         13    1    3    3    0    0 -0.19624974975E+02 -0.37653050930E+02  0.33245185489E+02  0.53927223268E+02  0.10566000000E+00 0.  1.
         22    1    1    0    0    0 -0.13041892671E+02  0.23425350377E+02 -0.99772429357E+01  0.28607400814E+02  0.00000000000E+00 0. -1.
</event>
<event>
 5    1  0.2377303E-009  0.9118800E+02  0.7815553E-02  0.1125453E+00
         25   -1    0    0    0    0  0.00000000000E+00  0.00000000000E+00  0.99999998245E-14  0.12509000000E+03  0.12509000000E+03 0.  0.
        -13    1    3    3    0    0 -0.16498694501E+02 -0.16221418624E+01 -0.38016205785E+02  0.41473863225E+02  0.10566000000E+00 0.  1.
         23    2    1    0    0    0  0.25721175355E+02 -0.12244975168E+02 -0.48749367602E+01  0.96188732088E+02  0.91744149098E+02 0.  0.
         13    1    3    3    0    0  0.42219869856E+02 -0.10622833305E+02  0.33141269025E+02  0.54714868863E+02  0.10566000000E+00 0. -1.
         22    1    1    0    0    0 -0.25721175355E+02  0.12244975168E+02  0.48749367602E+01  0.28901267912E+02  0.00000000000E+00 0. -1.
</event>
<event>
 5    1  0.2377303E-009  0.9118800E+02  0.7815553E-02  0.1125453E+00
         25   -1    0    0    0    0  0.00000000000E+00  0.00000000000E+00  0.99999998245E-14  0.12509000000E+03  0.12509000000E+03 0.  0.
        -13    1    3    3    0    0  0.29640665547E+02  0.37044622366E+02  0.31970230783E+02  0.57209963474E+02  0.10566000000E+00 0. -1.
         23    2    1    0    0    0  0.15901992387E+02  0.22999313923E+02 -0.26358439740E+01  0.97004603861E+02  0.92849898729E+02 0.  0.
         13    1    3    3    0    0 -0.13738673160E+02 -0.14045308443E+02 -0.34606074757E+02  0.39794640388E+02  0.10566000000E+00 0.  1.
         22    1    1    0    0    0 -0.15901992387E+02 -0.22999313923E+02  0.26358439740E+01  0.28085396139E+02  0.00000000000E+00 0. -1.
</event>
<event>
 5    1  0.2377303E-009  0.9118800E+02  0.7815553E-02  0.1125453E+00
         25   -1    0    0    0    0  0.00000000000E+00  0.00000000000E+00  0.99999998245E-14  0.12509000000E+03  0.12509000000E+03 0.  0.
        -13    1    3    3    0    0 -0.49237603056E+02 -0.93480244389E+01 -0.17411794646E+02  0.53055714795E+02  0.10566000000E+00 0.  1.
         23    2    1    0    0    0 -0.23862028181E+02  0.12458587815E+02  0.10065796247E+02  0.96350948984E+02  0.91965060304E+02 0.  0.
         13    1    3    3    0    0  0.25375574875E+02  0.21806612253E+02  0.27477590892E+02  0.43295234189E+02  0.10566000000E+00 0. -1.
         22    1    1    0    0    0  0.23862028181E+02 -0.12458587815E+02 -0.10065796247E+02  0.28739051016E+02  0.00000000000E+00 0. -1.
</event>
<event>
 5    1  0.2377303E-009  0.9118800E+02  0.7815553E-02  0.1125453E+00
         25   -1    0    0    0    0  0.00000000000E+00  0.00000000000E+00  0.99999998245E-14  0.12509000000E+03  0.12509000000E+03 0.  0.
        -13    1    3    3    0    0  0.24259321595E+02 -0.34940814218E+02 -0.32470110726E+02  0.53513497710E+02  0.10566000000E+00 0.  1.
         23    2    1    0    0    0 -0.42792738463E+01 -0.41711899223E+01 -0.28840155373E+02  0.95637231506E+02  0.90989089886E+02 0.  0.
         13    1    3    3    0    0 -0.28538595442E+02  0.30769624296E+02  0.36299553538E+01  0.42123733797E+02  0.10566000000E+00 0. -1.
         22    1    1    0    0    0  0.42792738463E+01  0.41711899223E+01  0.28840155373E+02  0.29452768494E+02  0.00000000000E+00 0.  1.
</event>
<event>
 5    1  0.2377303E-009  0.9118800E+02  0.7815553E-02  0.1125453E+00
         25   -1    0    0    0    0  0.00000000000E+00  0.00000000000E+00  0.99999998245E-14  0.12509000000E+03  0.12509000000E+03 0.  0.
        -13    1    3    3    0    0  0.54001632941E+01 -0.30848537749E+02  0.22762758621E+02  0.38716254841E+02  0.10566000000E+00 0. -1.
         23    2    1    0    0    0 -0.70682257961E+01  0.22758505989E+02  0.20259669321E+02  0.93811195487E+02  0.88443070882E+02 0.  0.
         13    1    3    3    0    0 -0.12468389090E+02  0.53607043737E+02 -0.25030893000E+01  0.55094940647E+02  0.10566000000E+00 0.  1.
         22    1    1    0    0    0  0.70682257961E+01 -0.22758505989E+02 -0.20259669321E+02  0.31278804513E+02  0.00000000000E+00 0.  1.
</event>
<event>
 5    1  0.2377303E-009  0.9118800E+02  0.7815553E-02  0.1125453E+00
         25   -1    0    0    0    0  0.00000000000E+00  0.00000000000E+00  0.99999998245E-14  0.12509000000E+03  0.12509000000E+03 0.  0.
        -13    1    3    3    0    0 -0.43764562672E+02  0.20030745733E+02  0.15359188238E+01  0.48155352051E+02  0.10566000000E+00 0. -1.
         23    2    1    0    0    0 -0.55334229623E+01  0.58931996153E+01  0.27461705966E+02  0.96463196722E+02  0.92117612083E+02 0.  0.
         13    1    3    3    0    0  0.38231139710E+02 -0.14137546118E+02  0.25925787142E+02  0.48307844671E+02  0.10566000000E+00 0.  1.
         22    1    1    0    0    0  0.55334229623E+01 -0.58931996153E+01 -0.27461705966E+02  0.28626803278E+02  0.00000000000E+00 0. -1.
</event>
<event>
 5    1  0.2377303E-009  0.9118800E+02  0.7815553E-02  0.1125453E+00
         25   -1    0    0    0    0  0.00000000000E+00  0.00000000000E+00  0.99999998245E-14  0.12509000000E+03  0.12509000000E+03 0.  0.
        -13    1    3    3    0    0 -0.94438694498E+01  0.52003281718E+01  0.39273777240E+02  0.40726782662E+02  0.10566000000E+00 0.  1.
         23    2    1    0    0    0  0.22050781781E+02  0.19321421031E+02 -0.33589766946E+01  0.95580052317E+02  0.90910447082E+02 0.  0.
         13    1    3    3    0    0  0.31494651231E+02  0.14121092860E+02 -0.42632753935E+02  0.54853269655E+02  0.10566000000E+00 0. -1.
         22    1    1    0    0    0 -0.22050781781E+02 -0.19321421031E+02  0.33589766946E+01  0.29509947683E+02  0.00000000000E+00 0. -1.
</event>
<event>
 5    1  0.2377303E-009  0.9118800E+02  0.7815553E-02  0.1125453E+00
         25   -1    0    0    0    0  0.00000000000E+00  0.00000000000E+00  0.99999998245E-14  0.12509000000E+03  0.12509000000E+03 0.  0.
        -13    1    3    3    0    0 -0.38722284499E+02  0.27420370906E+02 -0.18164627173E+02  0.50806071506E+02  0.10566000000E+00 0. -1.
         23    2    1    0    0    0  0.10306179202E+02  0.13596558215E+02  0.57573365503E+01  0.10708359422E+03  0.10555882484E+03 0.  0.
         13    1    3    3    0    0  0.49028463701E+02 -0.13823812691E+02  0.23921963723E+02  0.56277522712E+02  0.10566000000E+00 0.  1.
         22    1    1    0    0    0 -0.10306179202E+02 -0.13596558215E+02 -0.57573365503E+01  0.18006405782E+02  0.00000000000E+00 0.  1.
</event>
<event>
 5    1  0.2377303E-009  0.9118800E+02  0.7815553E-02  0.1125453E+00
         25   -1    0    0    0    0  0.00000000000E+00  0.00000000000E+00  0.99999998245E-14  0.12509000000E+03  0.12509000000E+03 0.  0.
        -13    1    3    3    0    0 -0.44773066873E+01  0.50095829647E+02  0.31961484229E+02  0.59591828814E+02  0.10566000000E+00 0.  1.
         23    2    1    0    0    0 -0.11292267043E+02  0.17164544796E+02  0.22698999615E+02  0.94473313757E+02  0.89374635863E+02 0.  0.
         13    1    3    3    0    0 -0.68149603552E+01 -0.32931284851E+02 -0.92624846148E+01  0.34881484943E+02  0.10566000000E+00 0. -1.
         22    1    1    0    0    0  0.11292267043E+02 -0.17164544796E+02 -0.22698999615E+02  0.30616686243E+02  0.00000000000E+00 0.  1.
</event>
<event>
 5    1  0.2377303E-009  0.9118800E+02  0.7815553E-02  0.1125453E+00
         25   -1    0    0    0    0  0.00000000000E+00  0.00000000000E+00  0.99999998245E-14  0.12509000000E+03  0.12509000000E+03 0.  0.
        -13    1    3    3    0    0  0.31083224047E+02  0.66028066496E+00  0.19338691623E+02  0.36614190492E+02  0.10566000000E+00 0.  1.
         23    2    1    0    0    0 -0.20000297539E+02 -0.55967598267E+01 -0.15854040755E+02  0.98961735027E+02  0.95450189990E+02 0.  0.
         13    1    3    3    0    0 -0.51083521586E+02 -0.62570404917E+01 -0.35192732378E+02  0.62347544535E+02  0.10566000000E+00 0. -1.
         22    1    1    0    0    0  0.20000297539E+02  0.55967598267E+01  0.15854040755E+02  0.26128264973E+02  0.00000000000E+00 0. -1.
</event>
<event>
 5    1  0.2377303E-009  0.9118800E+02  0.7815553E-02  0.1125453E+00
         25   -1    0    0    0    0  0.00000000000E+00  0.00000000000E+00  0.99999998245E-14  0.12509000000E+03  0.12509000000E+03 0.  0.
        -13    1    3    3    0    0 -0.27097205869E+02 -0.26946876104E+02 -0.32789457318E+02  0.50354268666E+02  0.10566000000E+00 0.  1.
         23    2    1    0    0    0  0.14703260236E+02 -0.11776860797E+02 -0.22026500418E+02  0.96106435132E+02  0.91631871318E+02 0.  0.
         13    1    3    3    0    0  0.41800466105E+02  0.15170015307E+02  0.10762956900E+02  0.45752166465E+02  0.10566000000E+00 0. -1.
         22    1    1    0    0    0 -0.14703260236E+02  0.11776860797E+02  0.22026500418E+02  0.28983564868E+02  0.00000000000E+00 0. -1.
</event>
<event>
 5    1  0.2377303E-009  0.9118800E+02  0.7815553E-02  0.1125453E+00
         25   -1    0    0    0    0  0.00000000000E+00  0.00000000000E+00  0.99999998245E-14  0.12509000000E+03  0.12509000000E+03 0.  0.
        -13    1    3    3    0    0  0.65578210600E+01 -0.24296314709E+02 -0.28179770828E+02  0.37781299256E+02  0.10566000000E+00 0. -1.
         23    2    1    0    0    0  0.14606905684E+01  0.28596317181E+02 -0.39403019618E+01  0.96186558115E+02  0.91741184913E+02 0.  0.
         13    1    3    3    0    0 -0.50971304916E+01  0.52892631890E+02  0.24239468867E+02  0.58405258859E+02  0.10566000000E+00 0.  1.
         22    1    1    0    0    0 -0.14606905684E+01 -0.28596317181E+02  0.39403019618E+01  0.28903441885E+02  0.00000000000E+00 0.  1.
</event>
<event>
 5    1  0.2377303E-009  0.9118800E+02  0.7815553E-02  0.1125453E+00
         25   -1    0    0    0    0  0.00000000000E+00  0.00000000000E+00  0.99999998245E-14  0.12509000000E+03  0.12509000000E+03 0.  0.
        -13    1    3    3    0    0 -0.33231131309E+02  0.33044119732E+02 -0.19049343071E+01  0.46902685165E+02  0.10566000000E+00 0.  1.
         23    2    1    0    0    0  0.14761184488E+02  0.25655668151E+02 -0.20702446591E+00  0.95490190290E+02  0.90786715475E+02 0.  0.
         13    1    3    3    0    0  0.47992315797E+02 -0.73884515813E+01  0.16979098412E+01  0.48587505124E+02  0.10566000000E+00 0. -1.
         22    1    1    0    0    0 -0.14761184488E+02 -0.25655668151E+02  0.20702446591E+00  0.29599809710E+02  0.00000000000E+00 0. -1.
</event>
<event>
 5    1  0.2377303E-009  0.9118800E+02  0.7815553E-02  0.1125453E+00
         25   -1    0    0    0    0  0.00000000000E+00  0.00000000000E+00  0.99999998245E-14  0.12509000000E+03  0.12509000000E+03 0.  0.
        -13    1    3    3    0    0  0.23316300636E+02 -0.26144822010E+02 -0.20399038157E+02  0.40538050213E+02  0.10566000000E+00 0.  1.
         23    2    1    0    0    0  0.32119803526E+01 -0.86292052918E+01  0.27900718779E+02  0.95709222098E+02  0.91088007358E+02 0.  0.
         13    1    3    3    0    0 -0.20104320283E+02  0.17515616718E+02  0.48299756936E+02  0.55171171885E+02  0.10566000000E+00 0. -1.
         22    1    1    0    0    0 -0.32119803526E+01  0.86292052918E+01 -0.27900718779E+02  0.29380777902E+02  0.00000000000E+00 0. -1.
</event>
<event>
 5    1  0.2377303E-009  0.9118800E+02  0.7815553E-02  0.1125453E+00
         25   -1    0    0    0    0  0.00000000000E+00  0.00000000000E+00  0.99999998245E-14  0.12509000000E+03  0.12509000000E+03 0.  0.
        -13    1    3    3    0    0 -0.15119178668E+02  0.33444146397E+01  0.32098704730E+02  0.35638640298E+02  0.10566000000E+00 0.  1.
         23    2    1    0    0    0  0.47281023318E+01 -0.21048033009E+02 -0.19464165232E+02  0.96034391706E+02  0.91533469381E+02 0.  0.
         13    1    3    3    0    0  0.19847281000E+02 -0.24392447648E+02 -0.51562869962E+02  0.60395751408E+02  0.10566000000E+00 0. -1.
         22    1    1    0    0    0 -0.47281023318E+01  0.21048033009E+02  0.19464165232E+02  0.29055608294E+02  0.00000000000E+00 0. -1.
</event>
<event>
 5    1  0.2377303E-009  0.9118800E+02  0.7815553E-02  0.1125453E+00
         25   -1    0    0    0    0  0.00000000000E+00  0.00000000000E+00  0.99999998245E-14  0.12509000000E+03  0.12509000000E+03 0.  0.
        -13    1    3    3    0    0 -0.48098274439E+02  0.12919793948E+02 -0.20432777573E+02  0.53831911011E+02  0.10566000000E+00 0. -1.
         23    2    1    0    0    0 -0.21125845501E+02  0.16873553650E+02  0.11404587170E+02  0.95745788144E+02  0.91138209210E+02 0.  0.
         13    1    3    3    0    0  0.26972428938E+02  0.39537597013E+01  0.31837364743E+02  0.41913877134E+02  0.10566000000E+00 0.  1.
         22    1    1    0    0    0  0.21125845501E+02 -0.16873553650E+02 -0.11404587170E+02  0.29344211856E+02  0.00000000000E+00 0. -1.
</event>
<event>
 5    1  0.2377303E-009  0.9118800E+02  0.7815553E-02  0.1125453E+00
         25   -1    0    0    0    0  0.00000000000E+00  0.00000000000E+00  0.99999998245E-14  0.12509000000E+03  0.12509000000E+03 0.  0.
        -13    1    3    3    0    0  0.27533864721E+02 -0.10581425685E+02 -0.29966235613E+02  0.42048385425E+02  0.10566000000E+00 0.  1.
         23    2    1    0    0    0  0.11368931886E+02 -0.25999932561E+02  0.15535947275E+02  0.92738574017E+02  0.86912762858E+02 0.  0.
         13    1    3    3    0    0 -0.16164932835E+02 -0.15418506876E+02  0.45502182889E+02  0.50690188592E+02  0.10566000000E+00 0. -1.
         22    1    1    0    0    0 -0.11368931886E+02  0.25999932561E+02 -0.15535947275E+02  0.32351425983E+02  0.00000000000E+00 0. -1.
</event>
<event>
 5    1  0.2377303E-009  0.9118800E+02  0.7815553E-02  0.1125453E+00
         25   -1    0    0    0    0  0.00000000000E+00  0.00000000000E+00  0.99999998245E-14  0.12509000000E+03  0.12509000000E+03 0.  0.
        -13    1    3    3    0    0 -0.22709989498E+02  0.51625393050E+02  0.11425584131E+02  0.57545460006E+02  0.10566000000E+00 0. -1.
         23    2    1    0    0    0 -0.11079806860E+02  0.23764185904E+02 -0.12476287681E+02  0.96052844388E+02  0.91558683416E+02 0.  0.
         13    1    3    3    0    0  0.11630182638E+02 -0.27861207145E+02 -0.23901871812E+02  0.38507384382E+02  0.10566000000E+00 0.  1.
         22    1    1    0    0    0  0.11079806860E+02 -0.23764185904E+02  0.12476287681E+02  0.29037155612E+02  0.00000000000E+00 0. -1.
</event>
<event>
 5    1  0.2377303E-009  0.9118800E+02  0.7815553E-02  0.1125453E+00
         25   -1    0    0    0    0  0.00000000000E+00  0.00000000000E+00  0.99999998245E-14  0.12509000000E+03  0.12509000000E+03 0.  0.
        -13    1    3    3    0    0  0.35335648747E+02 -0.67194589853E+01  0.10821687711E+02  0.37561673157E+02  0.10566000000E+00 0.  1.
         23    2    1    0    0    0 -0.14008788970E+02  0.20415907297E+02 -0.11053570053E+02  0.97974748755E+02  0.94147833450E+02 0.  0.
         13    1    3    3    0    0 -0.49344437717E+02  0.27135366282E+02 -0.21875257764E+02  0.60413075598E+02  0.10566000000E+00 0. -1.
         22    1    1    0    0    0  0.14008788970E+02 -0.20415907297E+02  0.11053570053E+02  0.27115251245E+02  0.00000000000E+00 0. -1.
</event>
<event>
 5    1  0.2377303E-009  0.9118800E+02  0.7815553E-02  0.1125453E+00
         25   -1    0    0    0    0  0.00000000000E+00  0.00000000000E+00  0.99999998245E-14  0.12509000000E+03  0.12509000000E+03 0.  0.
        -13    1    3    3    0    0 -0.54624221277E+02  0.88331218017E+01  0.18256268098E+02  0.58267761925E+02  0.10566000000E+00 0. -1.
         23    2    1    0    0    0 -0.16621189905E+02  0.70610447710E+00  0.22220504461E+02  0.97331877659E+02  0.93289769283E+02 0.  0.
         13    1    3    3    0    0  0.38003031372E+02 -0.81270173245E+01  0.39642363634E+01  0.39064115734E+02  0.10566000000E+00 0.  1.
         22    1    1    0    0    0  0.16621189905E+02 -0.70610447710E+00 -0.22220504461E+02  0.27758122341E+02  0.00000000000E+00 0. -1.
</event>
<event>
 5    1  0.2377303E-009  0.9118800E+02  0.7815553E-02  0.1125453E+00
         25   -1    0    0    0    0  0.00000000000E+00  0.00000000000E+00  0.99999998245E-14  0.12509000000E+03  0.12509000000E+03 0.  0.
        -13    1    3    3    0    0  0.23792379266E+02 -0.25002643168E+02 -0.13462151318E+02  0.37046594427E+02  0.10566000000E+00 0.  1.
         23    2    1    0    0    0  0.33358148620E-01  0.28457784131E+02 -0.57802739428E+01  0.96051092354E+02  0.91556289708E+02 0.  0.
         13    1    3    3    0    0 -0.23759021117E+02  0.53460427300E+02  0.76818773754E+01  0.59004497926E+02  0.10566000000E+00 0. -1.
         22    1    1    0    0    0 -0.33358148620E-01 -0.28457784131E+02  0.57802739428E+01  0.29038907646E+02  0.00000000000E+00 0. -1.
</event>
<event>
 5    1  0.2377303E-009  0.9118800E+02  0.7815553E-02  0.1125453E+00
         25   -1    0    0    0    0  0.00000000000E+00  0.00000000000E+00  0.99999998245E-14  0.12509000000E+03  0.12509000000E+03 0.  0.
        -13    1    3    3    0    0  0.36644557158E+02 -0.33703995713E+01 -0.30880428217E+02  0.48039516791E+02  0.10566000000E+00 0. -1.
         23    2    1    0    0    0  0.78328706788E+01  0.62468672683E+01 -0.43145202757E+02  0.80796820676E+02  0.67573963156E+02 0.  0.
         13    1    3    3    0    0 -0.28811686479E+02  0.96172668397E+01 -0.12264774539E+02  0.32757303885E+02  0.10566000000E+00 0.  1.
         22    1    1    0    0    0 -0.78328706788E+01 -0.62468672683E+01  0.43145202757E+02  0.44293179324E+02  0.00000000000E+00 0. -1.
</event>
<event>
 5    1  0.2377303E-009  0.9118800E+02  0.7815553E-02  0.1125453E+00
         25   -1    0    0    0    0  0.00000000000E+00  0.00000000000E+00  0.99999998245E-14  0.12509000000E+03  0.12509000000E+03 0.  0.
        -13    1    3    3    0    0  0.29045072083E+02 -0.13958772665E+02  0.94596894283E+01  0.33585122223E+02  0.10566000000E+00 0.  1.
         23    2    1    0    0    0 -0.82156628558E+01  0.28096872783E+02 -0.11617011984E+02  0.93595772850E+02  0.88137859922E+02 0.  0.
         13    1    3    3    0    0 -0.37260734939E+02  0.42055645447E+02 -0.21076701413E+02  0.60010650627E+02  0.10566000000E+00 0. -1.
         22    1    1    0    0    0  0.82156628558E+01 -0.28096872783E+02  0.11617011984E+02  0.31494227150E+02  0.00000000000E+00 0. -1.
</event>
<event>
 5    1  0.2377303E-009  0.9118800E+02  0.7815553E-02  0.1125453E+00
         25   -1    0    0    0    0  0.00000000000E+00  0.00000000000E+00  0.99999998245E-14  0.12509000000E+03  0.12509000000E+03 0.  0.
        -13    1    3    3    0    0  0.25483236221E+02  0.10930747468E+01  0.31344497209E+02  0.40411369811E+02  0.10566000000E+00 0.  1.
         23    2    1    0    0    0 -0.24791472624E+01 -0.26465805168E+02 -0.93067689619E+01  0.96926176345E+02  0.92744178782E+02 0.  0.
         13    1    3    3    0    0 -0.27962383484E+02 -0.27558879915E+02 -0.40651266171E+02  0.56514806534E+02  0.10566000000E+00 0. -1.
         22    1    1    0    0    0  0.24791472624E+01  0.26465805168E+02  0.93067689619E+01  0.28163823655E+02  0.00000000000E+00 0. -1.
</event>
<event>
 5    1  0.2377303E-009  0.9118800E+02  0.7815553E-02  0.1125453E+00
         25   -1    0    0    0    0  0.00000000000E+00  0.00000000000E+00  0.99999998245E-14  0.12509000000E+03  0.12509000000E+03 0.  0.
        -13    1    3    3    0    0  0.52754980152E+02 -0.22044714596E+02 -0.21689959813E+02  0.61151638516E+02  0.10566000000E+00 0.  1.
         23    2    1    0    0    0  0.21853871798E+02 -0.74760568601E+01 -0.18562957156E+02  0.95457812819E+02  0.90742093381E+02 0.  0.
         13    1    3    3    0    0 -0.30901108353E+02  0.14568657736E+02  0.31270026574E+01  0.34306174303E+02  0.10566000000E+00 0. -1.
         22    1    1    0    0    0 -0.21853871798E+02  0.74760568601E+01  0.18562957156E+02  0.29632187181E+02  0.00000000000E+00 0.  1.
</event>
<event>
 5    1  0.2377303E-009  0.9118800E+02  0.7815553E-02  0.1125453E+00
         25   -1    0    0    0    0  0.00000000000E+00  0.00000000000E+00  0.99999998245E-14  0.12509000000E+03  0.12509000000E+03 0.  0.
        -13    1    3    3    0    0  0.25528232999E+02  0.42799546566E+02  0.96962633530E+01  0.50769287501E+02  0.10566000000E+00 0.  1.
         23    2    1    0    0    0 -0.33572945771E+01  0.15172121946E+02  0.26692772244E+02  0.94203614629E+02  0.88996360644E+02 0.  0.
         13    1    3    3    0    0 -0.28885527576E+02 -0.27627424620E+02  0.16996508891E+02  0.43434327128E+02  0.10566000000E+00 0. -1.
         22    1    1    0    0    0  0.33572945771E+01 -0.15172121946E+02 -0.26692772244E+02  0.30886385371E+02  0.00000000000E+00 0. -1.
</event>
<event>
 5    1  0.2377303E-009  0.9118800E+02  0.7815553E-02  0.1125453E+00
         25   -1    0    0    0    0  0.00000000000E+00  0.00000000000E+00  0.99999998245E-14  0.12509000000E+03  0.12509000000E+03 0.  0.
        -13    1    3    3    0    0  0.35481327771E+02  0.19258015500E+02  0.15665673730E+02  0.43303813675E+02  0.10566000000E+00 0.  1.
         23    2    1    0    0    0 -0.17737158007E+02  0.20404801762E+02  0.56891533537E+01  0.97461587541E+02  0.93463532305E+02 0.  0.
         13    1    3    3    0    0 -0.53218485778E+02  0.11467862624E+01 -0.99765203760E+01  0.54157773866E+02  0.10566000000E+00 0. -1.
         22    1    1    0    0    0  0.17737158007E+02 -0.20404801762E+02 -0.56891533537E+01  0.27628412459E+02  0.00000000000E+00 0. -1.
</event>
<event>
 5    1  0.2377303E-009  0.9118800E+02  0.7815553E-02  0.1125453E+00
         25   -1    0    0    0    0  0.00000000000E+00  0.00000000000E+00  0.99999998245E-14  0.12509000000E+03  0.12509000000E+03 0.  0.
        -13    1    3    3    0    0  0.42306204995E+01 -0.31137756808E+02  0.33794326463E+02  0.46146784438E+02  0.10566000000E+00 0. -1.
         23    2    1    0    0    0  0.13885707812E+02  0.14989482454E+02  0.22673480351E+02  0.94568136084E+02  0.89507252139E+02 0.  0.
         13    1    3    3    0    0  0.96550873126E+01  0.46127239262E+02 -0.11120846112E+02  0.48421351646E+02  0.10566000000E+00 0.  1.
         22    1    1    0    0    0 -0.13885707812E+02 -0.14989482454E+02 -0.22673480351E+02  0.30521863916E+02  0.00000000000E+00 0.  1.
</event>
<event>
 5    1  0.2377303E-009  0.9118800E+02  0.7815553E-02  0.1125453E+00
         25   -1    0    0    0    0  0.00000000000E+00  0.00000000000E+00  0.99999998245E-14  0.12509000000E+03  0.12509000000E+03 0.  0.
        -13    1    3    3    0    0  0.22158990990E+02 -0.27883728537E+02  0.13278442796E+02  0.38011201059E+02  0.10566000000E+00 0. -1.
         23    2    1    0    0    0  0.41284572429E+00  0.23445497521E+02  0.20141849044E+02  0.94177933125E+02  0.88960256347E+02 0.  0.
         13    1    3    3    0    0 -0.21746145266E+02  0.51329226058E+02  0.68634062472E+01  0.56166732066E+02  0.10566000000E+00 0.  1.
         22    1    1    0    0    0 -0.41284572429E+00 -0.23445497521E+02 -0.20141849044E+02  0.30912066875E+02  0.00000000000E+00 0.  1.
</event>
<event>
 5    1  0.2377303E-009  0.9118800E+02  0.7815553E-02  0.1125453E+00
         25   -1    0    0    0    0  0.00000000000E+00  0.00000000000E+00  0.99999998245E-14  0.12509000000E+03  0.12509000000E+03 0.  0.
        -13    1    3    3    0    0  0.99890550137E+00 -0.15955210374E+02 -0.30745916034E+02  0.34653846353E+02  0.10566000000E+00 0.  1.
         23    2    1    0    0    0  0.14518827731E+02  0.21469261752E+02  0.14888400570E+02  0.95200369183E+02  0.90386504868E+02 0.  0.
         13    1    3    3    0    0  0.13519922230E+02  0.37424472125E+02  0.45634316603E+02  0.60546522830E+02  0.10566000000E+00 0. -1.
         22    1    1    0    0    0 -0.14518827731E+02 -0.21469261752E+02 -0.14888400570E+02  0.29889630817E+02  0.00000000000E+00 0. -1.
</event>
<event>
 5    1  0.2377303E-009  0.9118800E+02  0.7815553E-02  0.1125453E+00
         25   -1    0    0    0    0  0.00000000000E+00  0.00000000000E+00  0.99999998245E-14  0.12509000000E+03  0.12509000000E+03 0.  0.
        -13    1    3    3    0    0 -0.38748238518E+02 -0.11552838723E+02 -0.35857712148E+02  0.54043322949E+02  0.10566000000E+00 0.  1.
         23    2    1    0    0    0 -0.82816662413E+00 -0.97408470806E+01 -0.31323243802E+02  0.92276655701E+02  0.86245380301E+02 0.  0.
         13    1    3    3    0    0  0.37920071894E+02  0.18119916427E+01  0.45344683458E+01  0.38233332752E+02  0.10566000000E+00 0. -1.
         22    1    1    0    0    0  0.82816662413E+00  0.97408470806E+01  0.31323243802E+02  0.32813344299E+02  0.00000000000E+00 0.  1.
</event>
<event>
 5    1  0.2377303E-009  0.9118800E+02  0.7815553E-02  0.1125453E+00
         25   -1    0    0    0    0  0.00000000000E+00  0.00000000000E+00  0.99999998245E-14  0.12509000000E+03  0.12509000000E+03 0.  0.
        -13    1    3    3    0    0 -0.25019711197E+02 -0.42451113028E+02  0.37582337104E+02  0.61971978926E+02  0.10566000000E+00 0. -1.
         23    2    1    0    0    0 -0.89891880527E+01 -0.17616156276E+02  0.22421026809E+02  0.95192894672E+02  0.90376159960E+02 0.  0.
         13    1    3    3    0    0  0.16030523145E+02  0.24834956752E+02 -0.15161310295E+02  0.33220915747E+02  0.10566000000E+00 0.  1.
         22    1    1    0    0    0  0.89891880527E+01  0.17616156276E+02 -0.22421026809E+02  0.29897105328E+02  0.00000000000E+00 0. -1.
</event>
<event>
 5    1  0.2377303E-009  0.9118800E+02  0.7815553E-02  0.1125453E+00
         25   -1    0    0    0    0  0.00000000000E+00  0.00000000000E+00  0.99999998245E-14  0.12509000000E+03  0.12509000000E+03 0.  0.
        -13    1    3    3    0    0  0.46353433119E+02  0.18044870739E+02 -0.13076852073E+02  0.51432220894E+02  0.10566000000E+00 0. -1.
         23    2    1    0    0    0  0.33763720957E+01  0.21975777488E+02 -0.20053109105E+02  0.95149026911E+02  0.90315422009E+02 0.  0.
         13    1    3    3    0    0 -0.42977061024E+02  0.39309067486E+01 -0.69762570323E+01  0.43716806017E+02  0.10566000000E+00 0.  1.
         22    1    1    0    0    0 -0.33763720957E+01 -0.21975777488E+02  0.20053109105E+02  0.29940973089E+02  0.00000000000E+00 0. -1.
</event>
<event>
 5    1  0.2377303E-009  0.9118800E+02  0.7815553E-02  0.1125453E+00
         25   -1    0    0    0    0  0.00000000000E+00  0.00000000000E+00  0.99999998245E-14  0.12509000000E+03  0.12509000000E+03 0.  0.
        -13    1    3    3    0    0 -0.27963675046E+02 -0.24592010313E+02  0.13018020944E+02  0.39448879917E+02  0.10566000000E+00 0.  1.
         23    2    1    0    0    0  0.18600909985E+02 -0.13996847242E+02 -0.17363300317E+02  0.96048826076E+02  0.91553193324E+02 0.  0.
         13    1    3    3    0    0  0.46564585031E+02  0.10595163071E+02 -0.30381321261E+02  0.56599946159E+02  0.10566000000E+00 0. -1.
         22    1    1    0    0    0 -0.18600909985E+02  0.13996847242E+02  0.17363300317E+02  0.29041173924E+02  0.00000000000E+00 0. -1.
</event>
<event>
 5    1  0.2377303E-009  0.9118800E+02  0.7815553E-02  0.1125453E+00
         25   -1    0    0    0    0  0.00000000000E+00  0.00000000000E+00  0.99999998245E-14  0.12509000000E+03  0.12509000000E+03 0.  0.
        -13    1    3    3    0    0  0.30663353425E+02 -0.41676737102E+02 -0.23570414418E+02  0.56857429230E+02  0.10566000000E+00 0.  1.
         23    2    1    0    0    0 -0.37270206782E+01 -0.24810251606E+02 -0.14083895132E+02  0.96318566772E+02  0.91921003775E+02 0.  0.
         13    1    3    3    0    0 -0.34390374103E+02  0.16866485496E+02  0.94865192866E+01  0.39461137542E+02  0.10566000000E+00 0. -1.
         22    1    1    0    0    0  0.37270206782E+01  0.24810251606E+02  0.14083895132E+02  0.28771433228E+02  0.00000000000E+00 0.  1.
</event>
<event>
 5    1  0.2377303E-009  0.9118800E+02  0.7815553E-02  0.1125453E+00
         25   -1    0    0    0    0  0.00000000000E+00  0.00000000000E+00  0.99999998245E-14  0.12509000000E+03  0.12509000000E+03 0.  0.
        -13    1    3    3    0    0  0.48396693330E+02  0.37234926667E+02 -0.10496261721E+02  0.61958553592E+02  0.10566000000E+00 0. -1.
         23    2    1    0    0    0  0.23680925825E+02  0.12871362428E+02 -0.28268358987E+00  0.98135628764E+02  0.94361345392E+02 0.  0.
         13    1    3    3    0    0 -0.24715767504E+02 -0.24363564238E+02  0.10213578131E+02  0.36177075172E+02  0.10566000000E+00 0.  1.
         22    1    1    0    0    0 -0.23680925825E+02 -0.12871362428E+02  0.28268358987E+00  0.26954371236E+02  0.00000000000E+00 0. -1.
</event>
<event>
 5    1  0.2377303E-009  0.9118800E+02  0.7815553E-02  0.1125453E+00
         25   -1    0    0    0    0  0.00000000000E+00  0.00000000000E+00  0.99999998245E-14  0.12509000000E+03  0.12509000000E+03 0.  0.
        -13    1    3    3    0    0  0.44197973254E+01  0.13658415594E+02 -0.32859673936E+02  0.35858837965E+02  0.10566000000E+00 0. -1.
         23    2    1    0    0    0 -0.17965191892E+02 -0.22032181013E+02  0.90223189527E+01  0.95264384177E+02  0.90475054758E+02 0.  0.
         13    1    3    3    0    0 -0.22384989217E+02 -0.35690596607E+02  0.41881992889E+02  0.59405546213E+02  0.10566000000E+00 0.  1.
         22    1    1    0    0    0  0.17965191892E+02  0.22032181013E+02 -0.90223189527E+01  0.29825615823E+02  0.00000000000E+00 0.  1.
</event>
<event>
 5    1  0.2377303E-009  0.9118800E+02  0.7815553E-02  0.1125453E+00
         25   -1    0    0    0    0  0.00000000000E+00  0.00000000000E+00  0.99999998245E-14  0.12509000000E+03  0.12509000000E+03 0.  0.
        -13    1    3    3    0    0 -0.10104463408E+02  0.44286933110E+01  0.31306022663E+02  0.33193248172E+02  0.10566000000E+00 0. -1.
         23    2    1    0    0    0  0.89533283653E+01 -0.17473550862E+02 -0.23046586984E+02  0.94814065000E+02  0.89850290382E+02 0.  0.
         13    1    3    3    0    0  0.19057791774E+02 -0.21902244173E+02 -0.54352609647E+02  0.61620816828E+02  0.10566000000E+00 0.  1.
         22    1    1    0    0    0 -0.89533283653E+01  0.17473550862E+02  0.23046586984E+02  0.30275935000E+02  0.00000000000E+00 0.  1.
</event>
<event>
 5    1  0.2377303E-009  0.9118800E+02  0.7815553E-02  0.1125453E+00
         25   -1    0    0    0    0  0.00000000000E+00  0.00000000000E+00  0.99999998245E-14  0.12509000000E+03  0.12509000000E+03 0.  0.
        -13    1    3    3    0    0 -0.15040340769E+02  0.43796891194E+02 -0.38396704618E+02  0.60155611694E+02  0.10566000000E+00 0.  1.
         23    2    1    0    0    0  0.46572047847E+01  0.23408347024E+02 -0.15121007286E+02  0.96836059953E+02  0.92622553296E+02 0.  0.
         13    1    3    3    0    0  0.19697545554E+02 -0.20388544170E+02  0.23275697332E+02  0.36680448260E+02  0.10566000000E+00 0. -1.
         22    1    1    0    0    0 -0.46572047847E+01 -0.23408347024E+02  0.15121007286E+02  0.28253940047E+02  0.00000000000E+00 0.  1.
</event>
<event>
 5    1  0.2377303E-009  0.9118800E+02  0.7815553E-02  0.1125453E+00
         25   -1    0    0    0    0  0.00000000000E+00  0.00000000000E+00  0.99999998245E-14  0.12509000000E+03  0.12509000000E+03 0.  0.
        -13    1    3    3    0    0  0.54147137467E+01  0.27913675887E+02  0.21210973117E+02  0.35474060539E+02  0.10566000000E+00 0.  1.
         23    2    1    0    0    0  0.12628280163E+02 -0.11198208733E+02 -0.24038573486E+02  0.95717796236E+02  0.91099781352E+02 0.  0.
         13    1    3    3    0    0  0.72135664160E+01 -0.39111884620E+02 -0.45249546603E+02  0.60243735698E+02  0.10566000000E+00 0. -1.
         22    1    1    0    0    0 -0.12628280163E+02  0.11198208733E+02  0.24038573486E+02  0.29372203764E+02  0.00000000000E+00 0. -1.
</event>
<event>
 5    1  0.2377303E-009  0.9118800E+02  0.7815553E-02  0.1125453E+00
         25   -1    0    0    0    0  0.00000000000E+00  0.00000000000E+00  0.99999998245E-14  0.12509000000E+03  0.12509000000E+03 0.  0.
        -13    1    3    3    0    0  0.15775793683E+02 -0.32538943127E+01  0.42996059477E+02  0.45914439876E+02  0.10566000000E+00 0.  1.
         23    2    1    0    0    0 -0.24362629352E+02  0.63126055916E+01  0.17843635107E+02  0.94239035475E+02  0.89046132960E+02 0.  0.
         13    1    3    3    0    0 -0.40138423034E+02  0.95664999043E+01 -0.25152424370E+02  0.48324595599E+02  0.10566000000E+00 0. -1.
         22    1    1    0    0    0  0.24362629352E+02 -0.63126055916E+01 -0.17843635107E+02  0.30850964525E+02  0.00000000000E+00 0. -1.
</event>
<event>
 5    1  0.2377303E-009  0.9118800E+02  0.7815553E-02  0.1125453E+00
         25   -1    0    0    0    0  0.00000000000E+00  0.00000000000E+00  0.99999998245E-14  0.12509000000E+03  0.12509000000E+03 0.  0.
        -13    1    3    3    0    0 -0.19562899278E+02 -0.11278916930E+01  0.31827640996E+02  0.37376316876E+02  0.10566000000E+00 0.  1.
         23    2    1    0    0    0  0.17911420146E+02  0.15003207454E+02 -0.13293831347E+02  0.98208014258E+02  0.94457254391E+02 0.  0.
         13    1    3    3    0    0  0.37474319424E+02  0.16131099147E+02 -0.45121472343E+02  0.60831697382E+02  0.10566000000E+00 0. -1.
         22    1    1    0    0    0 -0.17911420146E+02 -0.15003207454E+02  0.13293831347E+02  0.26881985742E+02  0.00000000000E+00 0. -1.
</event>
<event>
 5    1  0.2377303E-009  0.9118800E+02  0.7815553E-02  0.1125453E+00
         25   -1    0    0    0    0  0.00000000000E+00  0.00000000000E+00  0.99999998245E-14  0.12509000000E+03  0.12509000000E+03 0.  0.
        -13    1    3    3    0    0 -0.31249081233E+02  0.29228899522E+02 -0.36067347945E+02  0.55961579651E+02  0.10566000000E+00 0.  1.
         23    2    1    0    0    0 -0.28484074374E+02 -0.76215130371E+00 -0.13723461380E+02  0.93463163930E+02  0.87949452823E+02 0.  0.
         13    1    3    3    0    0  0.27650068583E+01 -0.29991050826E+02  0.22343886565E+02  0.37501584279E+02  0.10566000000E+00 0. -1.
         22    1    1    0    0    0  0.28484074374E+02  0.76215130371E+00  0.13723461380E+02  0.31626836070E+02  0.00000000000E+00 0.  1.
</event>
<event>
 5    1  0.2377303E-009  0.9118800E+02  0.7815553E-02  0.1125453E+00
         25   -1    0    0    0    0  0.00000000000E+00  0.00000000000E+00  0.99999998245E-14  0.12509000000E+03  0.12509000000E+03 0.  0.
        -13    1    3    3    0    0  0.24356747356E+02  0.27986758198E+02  0.10717957277E+02  0.38618590710E+02  0.10566000000E+00 0.  1.
         23    2    1    0    0    0 -0.11741459228E+02  0.14130891389E+02 -0.26867098457E+02  0.92541805953E+02  0.86629099691E+02 0.  0.
         13    1    3    3    0    0 -0.36098206584E+02 -0.13855866809E+02 -0.37585055734E+02  0.53923215243E+02  0.10566000000E+00 0. -1.
         22    1    1    0    0    0  0.11741459228E+02 -0.14130891389E+02  0.26867098457E+02  0.32548194047E+02  0.00000000000E+00 0. -1.
</event>
<event>
 5    1  0.2377303E-009  0.9118800E+02  0.7815553E-02  0.1125453E+00
         25   -1    0    0    0    0  0.00000000000E+00  0.00000000000E+00  0.99999998245E-14  0.12509000000E+03  0.12509000000E+03 0.  0.
        -13    1    3    3    0    0 -0.23484892775E+02 -0.27422704941E+02  0.34855605445E+02  0.50184353437E+02  0.10566000000E+00 0. -1.
         23    2    1    0    0    0 -0.16781291046E+02  0.13126206133E+02  0.45607966495E+00  0.10377997829E+03  0.10156853287E+03 0.  0.
         13    1    3    3    0    0  0.67036017286E+01  0.40548911074E+02 -0.34399525780E+02  0.53595624853E+02  0.10566000000E+00 0.  1.
         22    1    1    0    0    0  0.16781291046E+02 -0.13126206133E+02 -0.45607966495E+00  0.21310021710E+02  0.00000000000E+00 0. -1.
</event>
<event>
 5    1  0.2377303E-009  0.9118800E+02  0.7815553E-02  0.1125453E+00
         25   -1    0    0    0    0  0.00000000000E+00  0.00000000000E+00  0.99999998245E-14  0.12509000000E+03  0.12509000000E+03 0.  0.
        -13    1    3    3    0    0  0.40477152068E+02 -0.18204330873E+02 -0.14331355277E+02  0.46639000956E+02  0.10566000000E+00 0. -1.
         23    2    1    0    0    0  0.11301547802E+02 -0.17855511935E+02  0.22892379058E+02  0.93935460875E+02  0.88618652109E+02 0.  0.
         13    1    3    3    0    0 -0.29175604266E+02  0.34881893841E+00  0.37223734335E+02  0.47296459919E+02  0.10566000000E+00 0.  1.
         22    1    1    0    0    0 -0.11301547802E+02  0.17855511935E+02 -0.22892379058E+02  0.31154539125E+02  0.00000000000E+00 0. -1.
</event>
<event>
 5    1  0.2377303E-009  0.9118800E+02  0.7815553E-02  0.1125453E+00
         25   -1    0    0    0    0  0.00000000000E+00  0.00000000000E+00  0.99999998245E-14  0.12509000000E+03  0.12509000000E+03 0.  0.
        -13    1    3    3    0    0 -0.20715869125E+02 -0.42857014085E+01 -0.11063583154E+02  0.23873175458E+02  0.10566000000E+00 0.  1.
         23    2    1    0    0    0 -0.24740823613E+02 -0.19761078104E+01  0.41550201519E+02  0.76691316119E+02  0.59490548549E+02 0.  0.
         13    1    3    3    0    0 -0.40249544876E+01  0.23095935981E+01  0.52613784674E+02  0.52818140661E+02  0.10566000000E+00 0. -1.
         22    1    1    0    0    0  0.24740823613E+02  0.19761078104E+01 -0.41550201519E+02  0.48398683881E+02  0.00000000000E+00 0. -1.
</event>
<event>
 5    1  0.2377303E-009  0.9118800E+02  0.7815553E-02  0.1125453E+00
         25   -1    0    0    0    0  0.00000000000E+00  0.00000000000E+00  0.99999998245E-14  0.12509000000E+03  0.12509000000E+03 0.  0.
        -13    1    3    3    0    0 -0.44821640712E+02  0.17271317192E+02  0.21414971864E+02  0.52591729936E+02  0.10566000000E+00 0.  1.
         23    2    1    0    0    0 -0.38662517596E+01  0.28796600764E+01  0.28157520250E+02  0.96522775923E+02  0.92198481444E+02 0.  0.
         13    1    3    3    0    0  0.40955388953E+02 -0.14391657115E+02  0.67425483858E+01  0.43931045988E+02  0.10566000000E+00 0. -1.
         22    1    1    0    0    0  0.38662517596E+01 -0.28796600764E+01 -0.28157520250E+02  0.28567224077E+02  0.00000000000E+00 0. -1.
</event>
<event>
 5    1  0.2377303E-009  0.9118800E+02  0.7815553E-02  0.1125453E+00
         25   -1    0    0    0    0  0.00000000000E+00  0.00000000000E+00  0.99999998245E-14  0.12509000000E+03  0.12509000000E+03 0.  0.
        -13    1    3    3    0    0 -0.36871528336E+02  0.36413132221E+02  0.94961517862E+00  0.51829901920E+02  0.10566000000E+00 0. -1.
         23    2    1    0    0    0 -0.18355079046E+02  0.19759956184E+01  0.22108225446E+02  0.96287445984E+02  0.91878643527E+02 0.  0.
         13    1    3    3    0    0  0.18516449290E+02 -0.34437136603E+02  0.21158610268E+02  0.44457544064E+02  0.10566000000E+00 0.  1.
         22    1    1    0    0    0  0.18355079046E+02 -0.19759956184E+01 -0.22108225446E+02  0.28802554016E+02  0.00000000000E+00 0.  1.
</event>
<event>
 5    1  0.2377303E-009  0.9118800E+02  0.7815553E-02  0.1125453E+00
         25   -1    0    0    0    0  0.00000000000E+00  0.00000000000E+00  0.99999998245E-14  0.12509000000E+03  0.12509000000E+03 0.  0.
        -13    1    3    3    0    0  0.32421293701E+02  0.62414229322E+01  0.43565353534E+02  0.54663029901E+02  0.10566000000E+00 0.  1.
         23    2    1    0    0    0 -0.17888251008E+01 -0.98020806345E+01  0.27715058701E+02  0.95638257118E+02  0.90990499865E+02 0.  0.
         13    1    3    3    0    0 -0.34210118802E+02 -0.16043503567E+02 -0.15850294833E+02  0.40975227216E+02  0.10566000000E+00 0. -1.
         22    1    1    0    0    0  0.17888251008E+01  0.98020806345E+01 -0.27715058701E+02  0.29451742882E+02  0.00000000000E+00 0.  1.
</event>
<event>
 5    1  0.2377303E-009  0.9118800E+02  0.7815553E-02  0.1125453E+00
         25   -1    0    0    0    0  0.00000000000E+00  0.00000000000E+00  0.99999998245E-14  0.12509000000E+03  0.12509000000E+03 0.  0.
        -13    1    3    3    0    0  0.16750425781E+02 -0.32867371509E+02 -0.69445523409E+01  0.37537698984E+02  0.10566000000E+00 0.  1.
         23    2    1    0    0    0 -0.12991104210E+01  0.93527547201E+01  0.28193968242E+02  0.95356827381E+02  0.90602775753E+02 0.  0.
         13    1    3    3    0    0 -0.18049536202E+02  0.42220126229E+02  0.35138520583E+02  0.57819128398E+02  0.10566000000E+00 0. -1.
         22    1    1    0    0    0  0.12991104210E+01 -0.93527547201E+01 -0.28193968242E+02  0.29733172619E+02  0.00000000000E+00 0. -1.
</event>
<event>
 5    1  0.2377303E-009  0.9118800E+02  0.7815553E-02  0.1125453E+00
         25   -1    0    0    0    0  0.00000000000E+00  0.00000000000E+00  0.99999998245E-14  0.12509000000E+03  0.12509000000E+03 0.  0.
        -13    1    3    3    0    0  0.33222338125E+02  0.11098572084E+01 -0.22530735835E+02  0.40157200535E+02  0.10566000000E+00 0.  1.
         23    2    1    0    0    0  0.71040983952E+01  0.31781438543E+01  0.27433366158E+02  0.96574067767E+02  0.92268045248E+02 0.  0.
         13    1    3    3    0    0 -0.26118239730E+02  0.20682866459E+01  0.49964101993E+02  0.56416867232E+02  0.10566000000E+00 0. -1.
         22    1    1    0    0    0 -0.71040983952E+01 -0.31781438543E+01 -0.27433366158E+02  0.28515932233E+02  0.00000000000E+00 0. -1.
</event>
<event>
 5    1  0.2377303E-009  0.9118800E+02  0.7815553E-02  0.1125453E+00
         25   -1    0    0    0    0  0.00000000000E+00  0.00000000000E+00  0.99999998245E-14  0.12509000000E+03  0.12509000000E+03 0.  0.
        -13    1    3    3    0    0  0.29257826161E+02 -0.14270421849E+01 -0.45128068695E+02  0.53801585379E+02  0.10566000000E+00 0. -1.
         23    2    1    0    0    0  0.11697018778E+02 -0.23183283588E+02 -0.14200801436E+02  0.95493587250E+02  0.90791395838E+02 0.  0.
         13    1    3    3    0    0 -0.17560807383E+02 -0.21756241403E+02  0.30927267259E+02  0.41692001872E+02  0.10566000000E+00 0.  1.
         22    1    1    0    0    0 -0.11697018778E+02  0.23183283588E+02  0.14200801436E+02  0.29596412750E+02  0.00000000000E+00 0. -1.
</event>
<event>
 5    1  0.2377303E-009  0.9118800E+02  0.7815553E-02  0.1125453E+00
         25   -1    0    0    0    0  0.00000000000E+00  0.00000000000E+00  0.99999998245E-14  0.12509000000E+03  0.12509000000E+03 0.  0.
        -13    1    3    3    0    0 -0.31269753230E+02 -0.27817385324E+02 -0.33445459253E+02  0.53574381023E+02  0.10566000000E+00 0. -1.
         23    2    1    0    0    0 -0.22698352251E+02  0.96861189101E+01 -0.14643761363E+02  0.96393731230E+02  0.92023233909E+02 0.  0.
         13    1    3    3    0    0  0.85714009783E+01  0.37503504234E+02  0.18801697890E+02  0.42819350207E+02  0.10566000000E+00 0.  1.
         22    1    1    0    0    0  0.22698352251E+02 -0.96861189101E+01  0.14643761363E+02  0.28696268770E+02  0.00000000000E+00 0. -1.
</event>
<event>
 5    1  0.2377303E-009  0.9118800E+02  0.7815553E-02  0.1125453E+00
         25   -1    0    0    0    0  0.00000000000E+00  0.00000000000E+00  0.99999998245E-14  0.12509000000E+03  0.12509000000E+03 0.  0.
        -13    1    3    3    0    0  0.18525049015E+02  0.26533559075E+02 -0.65929492338E+01  0.33025525610E+02  0.10566000000E+00 0. -1.
         23    2    1    0    0    0 -0.90487878110E+01 -0.28263446219E+02  0.35490946149E+01  0.95201891569E+02  0.90388611742E+02 0.  0.
         13    1    3    3    0    0 -0.27573836826E+02 -0.54797005293E+02  0.10142043849E+02  0.62176365959E+02  0.10566000000E+00 0.  1.
         22    1    1    0    0    0  0.90487878110E+01  0.28263446219E+02 -0.35490946149E+01  0.29888108431E+02  0.00000000000E+00 0.  1.
</event>
<event>
 5    1  0.2377303E-009  0.9118800E+02  0.7815553E-02  0.1125453E+00
         25   -1    0    0    0    0  0.00000000000E+00  0.00000000000E+00  0.99999998245E-14  0.12509000000E+03  0.12509000000E+03 0.  0.
        -13    1    3    3    0    0 -0.12663546914E+02  0.52484824167E+02 -0.27567191196E+02  0.60621641207E+02  0.10566000000E+00 0.  1.
         23    2    1    0    0    0 -0.17299085867E+02  0.25737301945E+02 -0.12633668090E+02  0.91604530723E+02  0.85264959956E+02 0.  0.
         13    1    3    3    0    0 -0.46355389537E+01 -0.26747522221E+02  0.14933523106E+02  0.30982889516E+02  0.10566000000E+00 0. -1.
         22    1    1    0    0    0  0.17299085867E+02 -0.25737301945E+02  0.12633668090E+02  0.33485469277E+02  0.00000000000E+00 0.  1.
</event>
<event>
 5    1  0.2377303E-009  0.9118800E+02  0.7815553E-02  0.1125453E+00
         25   -1    0    0    0    0  0.00000000000E+00  0.00000000000E+00  0.99999998245E-14  0.12509000000E+03  0.12509000000E+03 0.  0.
        -13    1    3    3    0    0 -0.50461351857E+02  0.29214296818E+02  0.10940189939E+02  0.59325560172E+02  0.10566000000E+00 0. -1.
         23    2    1    0    0    0 -0.25591498751E+02  0.18184571427E+01  0.12890608517E+02  0.96377644077E+02  0.92001363551E+02 0.  0.
         13    1    3    3    0    0  0.24869853106E+02 -0.27395839675E+02  0.19504185783E+01  0.37052083905E+02  0.10566000000E+00 0.  1.
         22    1    1    0    0    0  0.25591498751E+02 -0.18184571427E+01 -0.12890608517E+02  0.28712355923E+02  0.00000000000E+00 0. -1.
</event>
<event>
 5    1  0.2377303E-009  0.9118800E+02  0.7815553E-02  0.1125453E+00
         25   -1    0    0    0    0  0.00000000000E+00  0.00000000000E+00  0.99999998245E-14  0.12509000000E+03  0.12509000000E+03 0.  0.
        -13    1    3    3    0    0  0.18401364412E+02  0.31208371729E+01  0.35995816940E+02  0.40547007757E+02  0.10566000000E+00 0. -1.
         23    2    1    0    0    0 -0.24436746019E+02 -0.15257629493E+02  0.70024945317E+01  0.95442323136E+02  0.90720737995E+02 0.  0.
         13    1    3    3    0    0 -0.42838110431E+02 -0.18378466666E+02 -0.28993322408E+02  0.54895315379E+02  0.10566000000E+00 0.  1.
         22    1    1    0    0    0  0.24436746019E+02  0.15257629493E+02 -0.70024945317E+01  0.29647676864E+02  0.00000000000E+00 0.  1.
</event>
<event>
 5    1  0.2377303E-009  0.9118800E+02  0.7815553E-02  0.1125453E+00
         25   -1    0    0    0    0  0.00000000000E+00  0.00000000000E+00  0.99999998245E-14  0.12509000000E+03  0.12509000000E+03 0.  0.
        -13    1    3    3    0    0 -0.52645650956E+01  0.50758999288E+02 -0.56570123921E+01  0.51343983169E+02  0.10566000000E+00 0.  1.
         23    2    1    0    0    0 -0.26885512993E+02  0.12673742480E+02 -0.16555650718E+01  0.95320964861E+02  0.90553248915E+02 0.  0.
         13    1    3    3    0    0 -0.21620947898E+02 -0.38085256808E+02  0.40014473202E+01  0.43976981693E+02  0.10566000000E+00 0. -1.
         22    1    1    0    0    0  0.26885512993E+02 -0.12673742480E+02  0.16555650718E+01  0.29769035139E+02  0.00000000000E+00 0.  1.
</event>
<event>
 5    1  0.2377303E-009  0.9118800E+02  0.7815553E-02  0.1125453E+00
         25   -1    0    0    0    0  0.00000000000E+00  0.00000000000E+00  0.99999998245E-14  0.12509000000E+03  0.12509000000E+03 0.  0.
        -13    1    3    3    0    0 -0.38530247697E+02  0.15225127876E+02  0.24550037919E+02  0.48157035127E+02  0.10566000000E+00 0. -1.
         23    2    1    0    0    0 -0.15201949636E+02 -0.23324856850E+02  0.10000915367E+02  0.95506786382E+02  0.90809579434E+02 0.  0.
         13    1    3    3    0    0  0.23328298060E+02 -0.38549984726E+02 -0.14549122552E+02  0.47349751254E+02  0.10566000000E+00 0.  1.
         22    1    1    0    0    0  0.15201949636E+02  0.23324856850E+02 -0.10000915367E+02  0.29583213618E+02  0.00000000000E+00 0.  1.
</event>
<event>
 5    1  0.2377303E-009  0.9118800E+02  0.7815553E-02  0.1125453E+00
         25   -1    0    0    0    0  0.00000000000E+00  0.00000000000E+00  0.99999998245E-14  0.12509000000E+03  0.12509000000E+03 0.  0.
        -13    1    3    3    0    0 -0.12458876463E+02 -0.12762090797E+02 -0.26352759329E+02  0.31820962470E+02  0.10566000000E+00 0. -1.
         23    2    1    0    0    0  0.83683430484E+01  0.36970613016E+01  0.29791924877E+02  0.93925016195E+02  0.88603907655E+02 0.  0.
         13    1    3    3    0    0  0.20827219511E+02  0.16459152098E+02  0.56144684207E+02  0.62104053725E+02  0.10566000000E+00 0.  1.
         22    1    1    0    0    0 -0.83683430484E+01 -0.36970613016E+01 -0.29791924877E+02  0.31164983805E+02  0.00000000000E+00 0.  1.
</event>
<event>
 5    1  0.2377303E-009  0.9118800E+02  0.7815553E-02  0.1125453E+00
         25   -1    0    0    0    0  0.00000000000E+00  0.00000000000E+00  0.99999998245E-14  0.12509000000E+03  0.12509000000E+03 0.  0.
        -13    1    3    3    0    0  0.26958391177E+02  0.19438999359E+02 -0.48963022922E+02  0.59177853363E+02  0.10566000000E+00 0. -1.
         23    2    1    0    0    0  0.23140712581E+02  0.13829746600E+02 -0.14154626930E+02  0.94641552859E+02  0.89609796308E+02 0.  0.
         13    1    3    3    0    0 -0.38176785958E+01 -0.56092527595E+01  0.34808395992E+02  0.35463699496E+02  0.10566000000E+00 0.  1.
         22    1    1    0    0    0 -0.23140712581E+02 -0.13829746600E+02  0.14154626930E+02  0.30448447141E+02  0.00000000000E+00 0. -1.
</event>
<event>
 5    1  0.2377303E-009  0.9118800E+02  0.7815553E-02  0.1125453E+00
         25   -1    0    0    0    0  0.00000000000E+00  0.00000000000E+00  0.99999998245E-14  0.12509000000E+03  0.12509000000E+03 0.  0.
        -13    1    3    3    0    0  0.18050248608E+02  0.36447011467E+02  0.27686866680E+02  0.49201319802E+02  0.10566000000E+00 0.  1.
         23    2    1    0    0    0  0.28317633130E+02  0.52721321621E+00 -0.16757903170E+01  0.96717926176E+02  0.92462871850E+02 0.  0.
         13    1    3    3    0    0  0.10267384523E+02 -0.35919798251E+02 -0.29362656997E+02  0.47516606374E+02  0.10566000000E+00 0. -1.
         22    1    1    0    0    0 -0.28317633130E+02 -0.52721321621E+00  0.16757903170E+01  0.28372073824E+02  0.00000000000E+00 0. -1.
</event>
<event>
 5    1  0.2377303E-009  0.9118800E+02  0.7815553E-02  0.1125453E+00
         25   -1    0    0    0    0  0.00000000000E+00  0.00000000000E+00  0.99999998245E-14  0.12509000000E+03  0.12509000000E+03 0.  0.
        -13    1    3    3    0    0 -0.95771288638E+01  0.69834783851E+01  0.38666055079E+02  0.40442123424E+02  0.10566000000E+00 0.  1.
         23    2    1    0    0    0  0.24995924327E+02  0.13098862316E+02 -0.49555024328E+01  0.96438064092E+02  0.92083477207E+02 0.  0.
         13    1    3    3    0    0  0.34573053190E+02  0.61153839307E+01 -0.43621557512E+02  0.55995940668E+02  0.10566000000E+00 0. -1.
         22    1    1    0    0    0 -0.24995924327E+02 -0.13098862316E+02  0.49555024328E+01  0.28651935908E+02  0.00000000000E+00 0. -1.
</event>
<event>
 5    1  0.2377303E-009  0.9118800E+02  0.7815553E-02  0.1125453E+00
         25   -1    0    0    0    0  0.00000000000E+00  0.00000000000E+00  0.99999998245E-14  0.12509000000E+03  0.12509000000E+03 0.  0.
        -13    1    3    3    0    0 -0.46963964180E+02  0.31014022721E+01  0.84365048089E+01  0.47816507661E+02  0.10566000000E+00 0. -1.
         23    2    1    0    0    0 -0.55636728840E+01  0.94265790004E+01  0.28723043939E+02  0.94351943771E+02  0.89204602979E+02 0.  0.
         13    1    3    3    0    0  0.41400291296E+02  0.63251767283E+01  0.20286539130E+02  0.46535436110E+02  0.10566000000E+00 0.  1.
         22    1    1    0    0    0  0.55636728840E+01 -0.94265790004E+01 -0.28723043939E+02  0.30738056229E+02  0.00000000000E+00 0. -1.
</event>
<event>
 5    1  0.2377303E-009  0.9118800E+02  0.7815553E-02  0.1125453E+00
         25   -1    0    0    0    0  0.00000000000E+00  0.00000000000E+00  0.99999998245E-14  0.12509000000E+03  0.12509000000E+03 0.  0.
        -13    1    3    3    0    0  0.31857977017E+02 -0.37266733764E+02 -0.27963179704E+02  0.56441923499E+02  0.10566000000E+00 0. -1.
         23    2    1    0    0    0  0.19093131059E+02 -0.21707403872E+02  0.56632912311E+01  0.95631013187E+02  0.90980540662E+02 0.  0.
         13    1    3    3    0    0 -0.12764845958E+02  0.15559329892E+02  0.33626470935E+02  0.39189089689E+02  0.10566000000E+00 0.  1.
         22    1    1    0    0    0 -0.19093131059E+02  0.21707403872E+02 -0.56632912311E+01  0.29458986813E+02  0.00000000000E+00 0. -1.
</event>
<event>
 5    1  0.2377303E-009  0.9118800E+02  0.7815553E-02  0.1125453E+00
         25   -1    0    0    0    0  0.00000000000E+00  0.00000000000E+00  0.99999998245E-14  0.12509000000E+03  0.12509000000E+03 0.  0.
        -13    1    3    3    0    0  0.98243264988E+01 -0.35792908195E+02 -0.12780542108E+02  0.39255612195E+02  0.10566000000E+00 0.  1.
         23    2    1    0    0    0  0.82870013501E+00  0.18195667082E+02 -0.23833280334E+02  0.95093428597E+02  0.90238383553E+02 0.  0.
         13    1    3    3    0    0 -0.89956263638E+01  0.53988575277E+02 -0.11052738226E+02  0.55837816401E+02  0.10566000000E+00 0. -1.
         22    1    1    0    0    0 -0.82870013501E+00 -0.18195667082E+02  0.23833280334E+02  0.29996571403E+02  0.00000000000E+00 0. -1.
</event>
<event>
 5    1  0.2377303E-009  0.9118800E+02  0.7815553E-02  0.1125453E+00
         25   -1    0    0    0    0  0.00000000000E+00  0.00000000000E+00  0.99999998245E-14  0.12509000000E+03  0.12509000000E+03 0.  0.
        -13    1    3    3    0    0  0.23876046387E+02 -0.21460201493E+02 -0.15227896545E+02  0.35531758139E+02  0.10566000000E+00 0.  1.
         23    2    1    0    0    0 -0.30588823758E+02 -0.31749994046E+01 -0.38965477635E+01  0.94090970263E+02  0.88837890793E+02 0.  0.
         13    1    3    3    0    0 -0.54464870145E+02  0.18285202089E+02  0.11331348782E+02  0.58559212124E+02  0.10566000000E+00 0. -1.
         22    1    1    0    0    0  0.30588823758E+02  0.31749994046E+01  0.38965477635E+01  0.30999029737E+02  0.00000000000E+00 0. -1.
</event>
<event>
 5    1  0.2377303E-009  0.9118800E+02  0.7815553E-02  0.1125453E+00
         25   -1    0    0    0    0  0.00000000000E+00  0.00000000000E+00  0.99999998245E-14  0.12509000000E+03  0.12509000000E+03 0.  0.
        -13    1    3    3    0    0 -0.11708126888E+02  0.22844641632E+02 -0.33673498261E+02  0.42342337390E+02  0.10566000000E+00 0.  1.
         23    2    1    0    0    0  0.22605071011E+02 -0.12862481175E+02 -0.13117693133E+02  0.95960864576E+02  0.91432931703E+02 0.  0.
         13    1    3    3    0    0  0.34313197899E+02 -0.35707122806E+02  0.20555805128E+02  0.53618527186E+02  0.10566000000E+00 0. -1.
         22    1    1    0    0    0 -0.22605071011E+02  0.12862481175E+02  0.13117693133E+02  0.29129135424E+02  0.00000000000E+00 0. -1.
</event>
<event>
 5    1  0.2377303E-009  0.9118800E+02  0.7815553E-02  0.1125453E+00
         25   -1    0    0    0    0  0.00000000000E+00  0.00000000000E+00  0.99999998245E-14  0.12509000000E+03  0.12509000000E+03 0.  0.
        -13    1    3    3    0    0 -0.45976629044E+02  0.37102037497E+01  0.48919836325E+01  0.46384897305E+02  0.10566000000E+00 0.  1.
         23    2    1    0    0    0 -0.80705967845E+01 -0.27813000041E+02  0.50872089904E+01  0.95686306370E+02  0.91056532043E+02 0.  0.
         13    1    3    3    0    0  0.37906032259E+02 -0.31523203791E+02  0.19522535790E+00  0.49301409066E+02  0.10566000000E+00 0. -1.
         22    1    1    0    0    0  0.80705967845E+01  0.27813000041E+02 -0.50872089904E+01  0.29403693630E+02  0.00000000000E+00 0. -1.
</event>
<event>
 5    1  0.2377303E-009  0.9118800E+02  0.7815553E-02  0.1125453E+00
         25   -1    0    0    0    0  0.00000000000E+00  0.00000000000E+00  0.99999998245E-14  0.12509000000E+03  0.12509000000E+03 0.  0.
        -13    1    3    3    0    0 -0.18389312740E+02  0.67523237877E+01 -0.36109677622E+02  0.41081390941E+02  0.10566000000E+00 0.  1.
         23    2    1    0    0    0 -0.19942696104E+02 -0.99311579367E+01  0.17188465637E+02  0.96951372158E+02  0.92778155762E+02 0.  0.
         13    1    3    3    0    0 -0.15533833633E+01 -0.16683481724E+02  0.53298143259E+02  0.55869981218E+02  0.10566000000E+00 0. -1.
         22    1    1    0    0    0  0.19942696104E+02  0.99311579367E+01 -0.17188465637E+02  0.28138627842E+02  0.00000000000E+00 0. -1.
</event>
<event>
 5    1  0.2377303E-009  0.9118800E+02  0.7815553E-02  0.1125453E+00
         25   -1    0    0    0    0  0.00000000000E+00  0.00000000000E+00  0.99999998245E-14  0.12509000000E+03  0.12509000000E+03 0.  0.
        -13    1    3    3    0    0 -0.22795472873E+02 -0.51713212237E+02  0.77147780027E+01  0.57038748821E+02  0.10566000000E+00 0. -1.
         23    2    1    0    0    0 -0.24888780784E+02 -0.12184083337E+02  0.64220415900E+01  0.96644509780E+02  0.92363495802E+02 0.  0.
         13    1    3    3    0    0 -0.20933079112E+01  0.39529128901E+02 -0.12927364127E+01  0.39605760959E+02  0.10566000000E+00 0.  1.
         22    1    1    0    0    0  0.24888780784E+02  0.12184083337E+02 -0.64220415900E+01  0.28445490220E+02  0.00000000000E+00 0. -1.
</event>
<event>
 5    1  0.2377303E-009  0.9118800E+02  0.7815553E-02  0.1125453E+00
         25   -1    0    0    0    0  0.00000000000E+00  0.00000000000E+00  0.99999998245E-14  0.12509000000E+03  0.12509000000E+03 0.  0.
        -13    1    3    3    0    0  0.76285671243E+01 -0.32853216589E+02 -0.43422849035E+01  0.34005815368E+02  0.10566000000E+00 0.  1.
         23    2    1    0    0    0 -0.18684997147E+02  0.21388155326E+02 -0.10945262410E+02  0.94653491070E+02  0.89626459797E+02 0.  0.
         13    1    3    3    0    0 -0.26313564271E+02  0.54241371916E+02 -0.66029775066E+01  0.60647675701E+02  0.10566000000E+00 0. -1.
         22    1    1    0    0    0  0.18684997147E+02 -0.21388155326E+02  0.10945262410E+02  0.30436508930E+02  0.00000000000E+00 0. -1.
</event>
<event>
 5    1  0.2377303E-009  0.9118800E+02  0.7815553E-02  0.1125453E+00
         25   -1    0    0    0    0  0.00000000000E+00  0.00000000000E+00  0.99999998245E-14  0.12509000000E+03  0.12509000000E+03 0.  0.
        -13    1    3    3    0    0 -0.29809686555E+02 -0.50293572417E+01 -0.22118753476E+02  0.37458807591E+02  0.10566000000E+00 0.  1.
         23    2    1    0    0    0  0.97912150853E+00 -0.49574653823E+01  0.28195084554E+02  0.96445664871E+02  0.92093801841E+02 0.  0.
         13    1    3    3    0    0  0.30788808063E+02  0.71891859325E-01  0.50313838031E+02  0.58986857280E+02  0.10566000000E+00 0. -1.
         22    1    1    0    0    0 -0.97912150853E+00  0.49574653823E+01 -0.28195084554E+02  0.28644335129E+02  0.00000000000E+00 0. -1.
</event>
<event>
 5    1  0.2377303E-009  0.9118800E+02  0.7815553E-02  0.1125453E+00
         25   -1    0    0    0    0  0.00000000000E+00  0.00000000000E+00  0.99999998245E-14  0.12509000000E+03  0.12509000000E+03 0.  0.
        -13    1    3    3    0    0 -0.33690924036E+02 -0.80182340307E+01 -0.43884014629E+02  0.55903384007E+02  0.10566000000E+00 0.  1.
         23    2    1    0    0    0 -0.17812990869E+02 -0.24426109336E+02 -0.20648169904E+02  0.88480105417E+02  0.80550882510E+02 0.  0.
         13    1    3    3    0    0  0.15877933167E+02 -0.16407875306E+02  0.23235844725E+02  0.32576721410E+02  0.10566000000E+00 0. -1.
         22    1    1    0    0    0  0.17812990869E+02  0.24426109336E+02  0.20648169904E+02  0.36609894583E+02  0.00000000000E+00 0.  1.
</event>
<event>
 5    1  0.2377303E-009  0.9118800E+02  0.7815553E-02  0.1125453E+00
         25   -1    0    0    0    0  0.00000000000E+00  0.00000000000E+00  0.99999998245E-14  0.12509000000E+03  0.12509000000E+03 0.  0.
        -13    1    3    3    0    0  0.29800693062E+02  0.19965378848E+02 -0.36782081576E+02  0.51377333024E+02  0.10566000000E+00 0.  1.
         23    2    1    0    0    0  0.87503661519E+01 -0.16335297970E+02 -0.23017268557E+02  0.95539948910E+02  0.90855249262E+02 0.  0.
         13    1    3    3    0    0 -0.21050326911E+02 -0.36300676818E+02  0.13764813019E+02  0.44162615886E+02  0.10566000000E+00 0. -1.
         22    1    1    0    0    0 -0.87503661519E+01  0.16335297970E+02  0.23017268557E+02  0.29550051090E+02  0.00000000000E+00 0.  1.
</event>
<event>
 5    1  0.2377303E-009  0.9118800E+02  0.7815553E-02  0.1125453E+00
         25   -1    0    0    0    0  0.00000000000E+00  0.00000000000E+00  0.99999998245E-14  0.12509000000E+03  0.12509000000E+03 0.  0.
        -13    1    3    3    0    0  0.22115153031E+02  0.34037148969E+02 -0.37923275822E+02  0.55549919141E+02  0.10566000000E+00 0.  1.
         23    2    1    0    0    0  0.17871343832E+02  0.24182925114E+02  0.60453429937E-01  0.95020040704E+02  0.90136594585E+02 0.  0.
         13    1    3    3    0    0 -0.42438091991E+01 -0.98542238556E+01  0.37983729252E+02  0.39470121563E+02  0.10566000000E+00 0. -1.
         22    1    1    0    0    0 -0.17871343832E+02 -0.24182925114E+02 -0.60453429937E-01  0.30069959296E+02  0.00000000000E+00 0.  1.
</event>
<event>
 5    1  0.2377303E-009  0.9118800E+02  0.7815553E-02  0.1125453E+00
         25   -1    0    0    0    0  0.00000000000E+00  0.00000000000E+00  0.99999998245E-14  0.12509000000E+03  0.12509000000E+03 0.  0.
        -13    1    3    3    0    0  0.44213627863E+02 -0.43697951855E+01 -0.23647156465E+00  0.44429799477E+02  0.10566000000E+00 0.  1.
         23    2    1    0    0    0  0.39621909757E+01  0.16516958702E+02  0.23875006265E+02  0.95789406043E+02  0.91198056469E+02 0.  0.
         13    1    3    3    0    0 -0.40251436887E+02  0.20886753887E+02  0.24111477830E+02  0.51359606566E+02  0.10566000000E+00 0. -1.
         22    1    1    0    0    0 -0.39621909757E+01 -0.16516958702E+02 -0.23875006265E+02  0.29300593957E+02  0.00000000000E+00 0. -1.
</event>
<event>
 5    1  0.2377303E-009  0.9118800E+02  0.7815553E-02  0.1125453E+00
         25   -1    0    0    0    0  0.00000000000E+00  0.00000000000E+00  0.99999998245E-14  0.12509000000E+03  0.12509000000E+03 0.  0.
        -13    1    3    3    0    0  0.34031824610E+02  0.16747737837E+01 -0.14756012258E+02  0.37131132696E+02  0.10566000000E+00 0. -1.
         23    2    1    0    0    0 -0.53226552034E+01  0.21411361713E+02  0.21589230963E+02  0.94221375761E+02  0.89021321536E+02 0.  0.
         13    1    3    3    0    0 -0.39354479813E+02  0.19736587929E+02  0.36345243221E+02  0.57090243065E+02  0.10566000000E+00 0.  1.
         22    1    1    0    0    0  0.53226552034E+01 -0.21411361713E+02 -0.21589230963E+02  0.30868624239E+02  0.00000000000E+00 0.  1.
</event>
<event>
 5    1  0.2377303E-009  0.9118800E+02  0.7815553E-02  0.1125453E+00
         25   -1    0    0    0    0  0.00000000000E+00  0.00000000000E+00  0.99999998245E-14  0.12509000000E+03  0.12509000000E+03 0.  0.
        -13    1    3    3    0    0  0.11844664824E+00 -0.33674296055E+02 -0.62130256841E+01  0.34243029898E+02  0.10566000000E+00 0.  1.
         23    2    1    0    0    0 -0.16768987961E+02  0.24326497731E+02  0.31604050349E+01  0.95375262763E+02  0.90628224842E+02 0.  0.
         13    1    3    3    0    0 -0.16887434609E+02  0.58000793786E+02  0.93734307190E+01  0.61132232864E+02  0.10566000000E+00 0. -1.
         22    1    1    0    0    0  0.16768987961E+02 -0.24326497731E+02 -0.31604050349E+01  0.29714737237E+02  0.00000000000E+00 0. -1.
</event>
<event>
 5    1  0.2377303E-009  0.9118800E+02  0.7815553E-02  0.1125453E+00
         25   -1    0    0    0    0  0.00000000000E+00  0.00000000000E+00  0.99999998245E-14  0.12509000000E+03  0.12509000000E+03 0.  0.
        -13    1    3    3    0    0  0.48070941059E+02 -0.33165832008E+02  0.16550048599E+02  0.60701754997E+02  0.10566000000E+00 0.  1.
         23    2    1    0    0    0  0.16567776705E+02 -0.17478765960E+02  0.16503462326E+02  0.95894747763E+02  0.91342432064E+02 0.  0.
         13    1    3    3    0    0 -0.31503164354E+02  0.15687066048E+02 -0.46586273164E-01  0.35192992766E+02  0.10566000000E+00 0. -1.
         22    1    1    0    0    0 -0.16567776705E+02  0.17478765960E+02 -0.16503462326E+02  0.29195252237E+02  0.00000000000E+00 0.  1.
</event>
<event>
 5    1  0.2377303E-009  0.9118800E+02  0.7815553E-02  0.1125453E+00
         25   -1    0    0    0    0  0.00000000000E+00  0.00000000000E+00  0.99999998245E-14  0.12509000000E+03  0.12509000000E+03 0.  0.
        -13    1    3    3    0    0  0.54551805080E+02 -0.68619110080E+01 -0.88051768119E+01  0.55682381082E+02  0.10566000000E+00 0. -1.
         23    2    1    0    0    0  0.24555268680E+02  0.16804586864E+01  0.16171514761E+02  0.95639990644E+02  0.90992883015E+02 0.  0.
         13    1    3    3    0    0 -0.29996536400E+02  0.85423696945E+01  0.24976691573E+02  0.39957609563E+02  0.10566000000E+00 0.  1.
         22    1    1    0    0    0 -0.24555268680E+02 -0.16804586864E+01 -0.16171514761E+02  0.29450009356E+02  0.00000000000E+00 0. -1.
</event>
<event>
 5    1  0.2377303E-009  0.9118800E+02  0.7815553E-02  0.1125453E+00
         25   -1    0    0    0    0  0.00000000000E+00  0.00000000000E+00  0.99999998245E-14  0.12509000000E+03  0.12509000000E+03 0.  0.
        -13    1    3    3    0    0  0.13734669910E+02 -0.17587942664E+02 -0.25879146746E+02  0.34171893203E+02  0.10566000000E+00 0.  1.
         23    2    1    0    0    0 -0.11592112263E+02  0.11254221049E+02  0.23411306873E+02  0.96644897652E+02  0.92364021104E+02 0.  0.
         13    1    3    3    0    0 -0.25326782173E+02  0.28842163713E+02  0.49290453619E+02  0.62473004449E+02  0.10566000000E+00 0. -1.
         22    1    1    0    0    0  0.11592112263E+02 -0.11254221049E+02 -0.23411306873E+02  0.28445102348E+02  0.00000000000E+00 0. -1.
</event>
<event>
 5    1  0.2377303E-009  0.9118800E+02  0.7815553E-02  0.1125453E+00
         25   -1    0    0    0    0  0.00000000000E+00  0.00000000000E+00  0.99999998245E-14  0.12509000000E+03  0.12509000000E+03 0.  0.
        -13    1    3    3    0    0  0.29545750845E+01 -0.59198302286E+02 -0.13468408997E+02  0.60783038032E+02  0.10566000000E+00 0. -1.
         23    2    1    0    0    0  0.11561490483E+02 -0.27231250203E+02 -0.38567462878E+01  0.95255732090E+02  0.90463091668E+02 0.  0.
         13    1    3    3    0    0  0.86069153985E+01  0.31967052083E+02  0.96116627092E+01  0.34472694058E+02  0.10566000000E+00 0.  1.
         22    1    1    0    0    0 -0.11561490483E+02  0.27231250203E+02  0.38567462878E+01  0.29834267910E+02  0.00000000000E+00 0. -1.
</event>
<event>
 5    1  0.2377303E-009  0.9118800E+02  0.7815553E-02  0.1125453E+00
         25   -1    0    0    0    0  0.00000000000E+00  0.00000000000E+00  0.99999998245E-14  0.12509000000E+03  0.12509000000E+03 0.  0.
        -13    1    3    3    0    0 -0.28786318297E+02 -0.42466890458E+02 -0.30073854515E+02  0.59468788416E+02  0.10566000000E+00 0.  1.
         23    2    1    0    0    0 -0.22901165536E+02 -0.96787788251E+01 -0.15186429301E+02  0.95956346309E+02  0.91426750022E+02 0.  0.
         13    1    3    3    0    0  0.58851527605E+01  0.32788111633E+02  0.14887425214E+02  0.36487557893E+02  0.10566000000E+00 0. -1.
         22    1    1    0    0    0  0.22901165536E+02  0.96787788251E+01  0.15186429301E+02  0.29133653691E+02  0.00000000000E+00 0.  1.
</event>
<event>
 5    1  0.2377303E-009  0.9118800E+02  0.7815553E-02  0.1125453E+00
         25   -1    0    0    0    0  0.00000000000E+00  0.00000000000E+00  0.99999998245E-14  0.12509000000E+03  0.12509000000E+03 0.  0.
        -13    1    3    3    0    0 -0.54913222441E+01 -0.30379969233E+02 -0.54394341772E+02  0.62544805791E+02  0.10566000000E+00 0.  1.
         23    2    1    0    0    0 -0.25989545592E+01 -0.13827097669E+02 -0.24765952511E+02  0.96606748807E+02  0.92312341085E+02 0.  0.
         13    1    3    3    0    0  0.28923676849E+01  0.16552871564E+02  0.29628389261E+02  0.34061943017E+02  0.10566000000E+00 0. -1.
         22    1    1    0    0    0  0.25989545592E+01  0.13827097669E+02  0.24765952511E+02  0.28483251193E+02  0.00000000000E+00 0.  1.
</event>
<event>
 5    1  0.2377303E-009  0.9118800E+02  0.7815553E-02  0.1125453E+00
         25   -1    0    0    0    0  0.00000000000E+00  0.00000000000E+00  0.99999998245E-14  0.12509000000E+03  0.12509000000E+03 0.  0.
        -13    1    3    3    0    0 -0.46535797388E+02  0.24798617893E+02 -0.25161023919E+02  0.58426365424E+02  0.10566000000E+00 0. -1.
         23    2    1    0    0    0 -0.11284921423E+02  0.12782820358E+02 -0.23951829496E+02  0.95688638059E+02  0.91059735172E+02 0.  0.
         13    1    3    3    0    0  0.35250875965E+02 -0.12015797535E+02  0.12091944234E+01  0.37262272635E+02  0.10566000000E+00 0.  1.
         22    1    1    0    0    0  0.11284921423E+02 -0.12782820358E+02  0.23951829496E+02  0.29401361941E+02  0.00000000000E+00 0. -1.
</event>
<event>
 5    1  0.2377303E-009  0.9118800E+02  0.7815553E-02  0.1125453E+00
         25   -1    0    0    0    0  0.00000000000E+00  0.00000000000E+00  0.99999998245E-14  0.12509000000E+03  0.12509000000E+03 0.  0.
        -13    1    3    3    0    0 -0.13316599977E+01  0.25205135278E+02  0.53718308528E+02  0.59352674733E+02  0.10566000000E+00 0.  1.
         23    2    1    0    0    0 -0.74663836849E+01 -0.34470750644E+00  0.27958997078E+02  0.96149177168E+02  0.91690201460E+02 0.  0.
         13    1    3    3    0    0 -0.61347236873E+01 -0.25549842784E+02 -0.25759311450E+02  0.36796502435E+02  0.10566000000E+00 0. -1.
         22    1    1    0    0    0  0.74663836849E+01  0.34470750644E+00 -0.27958997078E+02  0.28940822832E+02  0.00000000000E+00 0.  1.
</event>
<event>
 5    1  0.2377303E-009  0.9118800E+02  0.7815553E-02  0.1125453E+00
         25   -1    0    0    0    0  0.00000000000E+00  0.00000000000E+00  0.99999998245E-14  0.12509000000E+03  0.12509000000E+03 0.  0.
        -13    1    3    3    0    0 -0.13564841786E+02  0.34901868803E+02 -0.46338766091E+01  0.37731013174E+02  0.10566000000E+00 0.  1.
         23    2    1    0    0    0  0.17981666798E+02 -0.17627700709E+01  0.24841516016E+02  0.94372763518E+02  0.89233793357E+02 0.  0.
         13    1    3    3    0    0  0.31546508584E+02 -0.36664638874E+02  0.29475392625E+02  0.56641750344E+02  0.10566000000E+00 0. -1.
         22    1    1    0    0    0 -0.17981666798E+02  0.17627700709E+01 -0.24841516016E+02  0.30717236482E+02  0.00000000000E+00 0. -1.
</event>
<event>
 5    1  0.2377303E-009  0.9118800E+02  0.7815553E-02  0.1125453E+00
         25   -1    0    0    0    0  0.00000000000E+00  0.00000000000E+00  0.99999998245E-14  0.12509000000E+03  0.12509000000E+03 0.  0.
        -13    1    3    3    0    0  0.40951451127E+02  0.24295648468E+02  0.36179117066E+02  0.59801668535E+02  0.10566000000E+00 0.  1.
         23    2    1    0    0    0  0.14323523119E+02  0.16198333760E+01  0.24479582624E+02  0.96681600887E+02  0.92413715486E+02 0.  0.
         13    1    3    3    0    0 -0.26627928008E+02 -0.22675815092E+02 -0.11699534442E+02  0.36879932352E+02  0.10566000000E+00 0. -1.
         22    1    1    0    0    0 -0.14323523119E+02 -0.16198333760E+01 -0.24479582624E+02  0.28408399113E+02  0.00000000000E+00 0.  1.
</event>
<event>
 5    1  0.2377303E-009  0.9118800E+02  0.7815553E-02  0.1125453E+00
         25   -1    0    0    0    0  0.00000000000E+00  0.00000000000E+00  0.99999998245E-14  0.12509000000E+03  0.12509000000E+03 0.  0.
        -13    1    3    3    0    0 -0.31619738899E+02  0.29520645758E+02  0.33331233776E+02  0.54610060640E+02  0.10566000000E+00 0.  1.
         23    2    1    0    0    0 -0.15983900023E+01  0.28417770878E+01  0.30002762542E+02  0.94910597955E+02  0.89984583660E+02 0.  0.
         13    1    3    3    0    0  0.30021348897E+02 -0.26678868671E+02 -0.33284712333E+01  0.40300537315E+02  0.10566000000E+00 0. -1.
         22    1    1    0    0    0  0.15983900023E+01 -0.28417770878E+01 -0.30002762542E+02  0.30179402045E+02  0.00000000000E+00 0.  1.
</event>
<event>
 5    1  0.2377303E-009  0.9118800E+02  0.7815553E-02  0.1125453E+00
         25   -1    0    0    0    0  0.00000000000E+00  0.00000000000E+00  0.99999998245E-14  0.12509000000E+03  0.12509000000E+03 0.  0.
        -13    1    3    3    0    0 -0.26031617312E+02  0.33448578558E+02  0.79437281693E+01  0.43122691112E+02  0.10566000000E+00 0.  1.
         23    2    1    0    0    0  0.22820614852E+02  0.56323531292E+01 -0.55549573561E+01  0.10093712408E+03  0.98004803976E+02 0.  0.
         13    1    3    3    0    0  0.48852232164E+02 -0.27816225429E+02 -0.13498685525E+02  0.57814432968E+02  0.10566000000E+00 0. -1.
         22    1    1    0    0    0 -0.22820614852E+02 -0.56323531292E+01  0.55549573561E+01  0.24152875920E+02  0.00000000000E+00 0.  1.
</event>
<event>
 5    1  0.2377303E-009  0.9118800E+02  0.7815553E-02  0.1125453E+00
         25   -1    0    0    0    0  0.00000000000E+00  0.00000000000E+00  0.99999998245E-14  0.12509000000E+03  0.12509000000E+03 0.  0.
        -13    1    3    3    0    0 -0.19474156760E+02 -0.13394439875E+02 -0.55969246437E+02  0.60755423723E+02  0.10566000000E+00 0.  1.
         23    2    1    0    0    0  0.10834090616E+00 -0.11058793870E+02 -0.28057700365E+02  0.94931365923E+02  0.90013449143E+02 0.  0.
         13    1    3    3    0    0  0.19582497666E+02  0.23356460050E+01  0.27911546072E+02  0.34175942200E+02  0.10566000000E+00 0. -1.
         22    1    1    0    0    0 -0.10834090616E+00  0.11058793870E+02  0.28057700365E+02  0.30158634077E+02  0.00000000000E+00 0.  1.
</event>
<event>
 5    1  0.2377303E-009  0.9118800E+02  0.7815553E-02  0.1125453E+00
         25   -1    0    0    0    0  0.00000000000E+00  0.00000000000E+00  0.99999998245E-14  0.12509000000E+03  0.12509000000E+03 0.  0.
        -13    1    3    3    0    0  0.23496244853E+02  0.96143712552E+01  0.23305192135E+02  0.34462338883E+02  0.10566000000E+00 0. -1.
         23    2    1    0    0    0 -0.55006932184E+01 -0.12346591115E+02 -0.26031484707E+02  0.95758547017E+02  0.91155719473E+02 0.  0.
         13    1    3    3    0    0 -0.28996938071E+02 -0.21960962370E+02 -0.49336676842E+02  0.61296208134E+02  0.10566000000E+00 0.  1.
         22    1    1    0    0    0  0.55006932184E+01  0.12346591115E+02  0.26031484707E+02  0.29331452983E+02  0.00000000000E+00 0.  1.
</event>
<event>
 5    1  0.2377303E-009  0.9118800E+02  0.7815553E-02  0.1125453E+00
         25   -1    0    0    0    0  0.00000000000E+00  0.00000000000E+00  0.99999998245E-14  0.12509000000E+03  0.12509000000E+03 0.  0.
        -13    1    3    3    0    0 -0.58528127764E+01  0.59910472139E+02 -0.56679674588E+01  0.60462030304E+02  0.10566000000E+00 0. -1.
         23    2    1    0    0    0 -0.29110894940E+01  0.28001406510E+02 -0.14109511059E+02  0.93599818818E+02  0.88143601990E+02 0.  0.
         13    1    3    3    0    0  0.29417232824E+01 -0.31909065629E+02 -0.84415436000E+01  0.33137788514E+02  0.10566000000E+00 0.  1.
         22    1    1    0    0    0  0.29110894940E+01 -0.28001406510E+02  0.14109511059E+02  0.31490181182E+02  0.00000000000E+00 0. -1.
</event>
<event>
 5    1  0.2377303E-009  0.9118800E+02  0.7815553E-02  0.1125453E+00
         25   -1    0    0    0    0  0.00000000000E+00  0.00000000000E+00  0.99999998245E-14  0.12509000000E+03  0.12509000000E+03 0.  0.
        -13    1    3    3    0    0  0.16715038155E+02 -0.26425486636E+02 -0.29252629003E+02  0.42818527673E+02  0.10566000000E+00 0.  1.
         23    2    1    0    0    0 -0.16939415797E+02 -0.22229197862E+02  0.10645257788E+02  0.95183436197E+02  0.90363067499E+02 0.  0.
         13    1    3    3    0    0 -0.33654453952E+02  0.41962887737E+01  0.39897886791E+02  0.52364908524E+02  0.10566000000E+00 0. -1.
         22    1    1    0    0    0  0.16939415797E+02  0.22229197862E+02 -0.10645257788E+02  0.29906563803E+02  0.00000000000E+00 0.  1.
</event>
<event>
 5    1  0.2377303E-009  0.9118800E+02  0.7815553E-02  0.1125453E+00
         25   -1    0    0    0    0  0.00000000000E+00  0.00000000000E+00  0.99999998245E-14  0.12509000000E+03  0.12509000000E+03 0.  0.
        -13    1    3    3    0    0  0.25525759198E+02 -0.32202760750E+02 -0.25298874923E+02  0.48255843366E+02  0.10566000000E+00 0. -1.
         23    2    1    0    0    0  0.27949046042E+02  0.75674294195E+01  0.12044591374E+01  0.96109560312E+02  0.91636137516E+02 0.  0.
         13    1    3    3    0    0  0.24232868437E+01  0.39770190170E+02  0.26503334060E+02  0.47853716946E+02  0.10566000000E+00 0.  1.
         22    1    1    0    0    0 -0.27949046042E+02 -0.75674294195E+01 -0.12044591374E+01  0.28980439688E+02  0.00000000000E+00 0. -1.
</event>
<event>
 5    1  0.2377303E-009  0.9118800E+02  0.7815553E-02  0.1125453E+00
         25   -1    0    0    0    0  0.00000000000E+00  0.00000000000E+00  0.99999998245E-14  0.12509000000E+03  0.12509000000E+03 0.  0.
        -13    1    3    3    0    0  0.19987803312E+02  0.14089340152E+02  0.26150160422E+02  0.35803126139E+02  0.10566000000E+00 0. -1.
         23    2    1    0    0    0 -0.25487423715E+02 -0.57311015335E+01 -0.99290607576E+01  0.97142897468E+02  0.93036025219E+02 0.  0.
         13    1    3    3    0    0 -0.45475227027E+02 -0.19820441686E+02 -0.36079221180E+02  0.61339771329E+02  0.10566000000E+00 0.  1.
         22    1    1    0    0    0  0.25487423715E+02  0.57311015335E+01  0.99290607576E+01  0.27947102532E+02  0.00000000000E+00 0.  1.
</event>
<event>
 5    1  0.2377303E-009  0.9118800E+02  0.7815553E-02  0.1125453E+00
         25   -1    0    0    0    0  0.00000000000E+00  0.00000000000E+00  0.99999998245E-14  0.12509000000E+03  0.12509000000E+03 0.  0.
        -13    1    3    3    0    0 -0.33387101711E+01  0.56641680889E+02 -0.63091752883E+01  0.57089787672E+02  0.10566000000E+00 0. -1.
         23    2    1    0    0    0  0.11275420284E+02  0.28638622797E+02  0.10115385577E+02  0.92692054947E+02  0.86845784046E+02 0.  0.
         13    1    3    3    0    0  0.14614130455E+02 -0.28003058092E+02  0.16424560865E+02  0.35602267275E+02  0.10566000000E+00 0.  1.
         22    1    1    0    0    0 -0.11275420284E+02 -0.28638622797E+02 -0.10115385577E+02  0.32397945053E+02  0.00000000000E+00 0. -1.
</event>
<event>
 5    1  0.2377303E-009  0.9118800E+02  0.7815553E-02  0.1125453E+00
         25   -1    0    0    0    0  0.00000000000E+00  0.00000000000E+00  0.99999998245E-14  0.12509000000E+03  0.12509000000E+03 0.  0.
        -13    1    3    3    0    0 -0.10262732121E+02  0.49676541621E+02  0.33816769767E+02  0.60964477686E+02  0.10566000000E+00 0.  1.
         23    2    1    0    0    0 -0.13672860355E+02  0.19345771535E+02  0.17974279354E+02  0.95353142316E+02  0.90597687855E+02 0.  0.
         13    1    3    3    0    0 -0.34101282343E+01 -0.30330770085E+02 -0.15842490413E+02  0.34388664630E+02  0.10566000000E+00 0. -1.
         22    1    1    0    0    0  0.13672860355E+02 -0.19345771535E+02 -0.17974279354E+02  0.29736857684E+02  0.00000000000E+00 0.  1.
</event>
<event>
 5    1  0.2377303E-009  0.9118800E+02  0.7815553E-02  0.1125453E+00
         25   -1    0    0    0    0  0.00000000000E+00  0.00000000000E+00  0.99999998245E-14  0.12509000000E+03  0.12509000000E+03 0.  0.
        -13    1    3    3    0    0 -0.42238696961E+02 -0.40385799020E+01 -0.44228792137E+02  0.61291229932E+02  0.10566000000E+00 0.  1.
         23    2    1    0    0    0 -0.13977193687E+02 -0.64692799680E+01 -0.25556480902E+02  0.95251312985E+02  0.90456980840E+02 0.  0.
         13    1    3    3    0    0  0.28261503273E+02 -0.24307000660E+01  0.18672311236E+02  0.33960083054E+02  0.10566000000E+00 0. -1.
         22    1    1    0    0    0  0.13977193687E+02  0.64692799680E+01  0.25556480902E+02  0.29838687015E+02  0.00000000000E+00 0.  1.
</event>
<event>
 5    1  0.2377303E-009  0.9118800E+02  0.7815553E-02  0.1125453E+00
         25   -1    0    0    0    0  0.00000000000E+00  0.00000000000E+00  0.99999998245E-14  0.12509000000E+03  0.12509000000E+03 0.  0.
        -13    1    3    3    0    0 -0.38144067817E+02  0.27558297133E+02 -0.28226120847E+02  0.54873989399E+02  0.10566000000E+00 0.  1.
         23    2    1    0    0    0 -0.18160842533E+02 -0.63553474316E+01  0.36263494000E+01  0.10551049407E+03  0.10367790173E+03 0.  0.
         13    1    3    3    0    0  0.19983225284E+02 -0.33913644565E+02  0.31852470247E+02  0.50636504671E+02  0.10566000000E+00 0. -1.
         22    1    1    0    0    0  0.18160842533E+02  0.63553474316E+01 -0.36263494000E+01  0.19579505930E+02  0.00000000000E+00 0.  1.
</event>
<event>
 5    1  0.2377303E-009  0.9118800E+02  0.7815553E-02  0.1125453E+00
         25   -1    0    0    0    0  0.00000000000E+00  0.00000000000E+00  0.99999998245E-14  0.12509000000E+03  0.12509000000E+03 0.  0.
        -13    1    3    3    0    0  0.14061320041E+02 -0.12666643339E+02 -0.31846109229E+02  0.37045248168E+02  0.10566000000E+00 0. -1.
         23    2    1    0    0    0  0.74459522955E+01 -0.15569561869E+01  0.26867768062E+02  0.97166116338E+02  0.93067238518E+02 0.  0.
         13    1    3    3    0    0 -0.66153677455E+01  0.11109687152E+02  0.58713877290E+02  0.60120868170E+02  0.10566000000E+00 0.  1.
         22    1    1    0    0    0 -0.74459522955E+01  0.15569561869E+01 -0.26867768062E+02  0.27923883662E+02  0.00000000000E+00 0.  1.
</event>
<event>
 5    1  0.2377303E-009  0.9118800E+02  0.7815553E-02  0.1125453E+00
         25   -1    0    0    0    0  0.00000000000E+00  0.00000000000E+00  0.99999998245E-14  0.12509000000E+03  0.12509000000E+03 0.  0.
        -13    1    3    3    0    0  0.13144968091E+02  0.48397209154E+02  0.14926636337E+02  0.52324904935E+02  0.10566000000E+00 0. -1.
         23    2    1    0    0    0 -0.18981829326E+02  0.20179665508E+02  0.11062725962E+02  0.95258596240E+02  0.90467052054E+02 0.  0.
         13    1    3    3    0    0 -0.32126797417E+02 -0.28217543646E+02 -0.38639103751E+01  0.42933691306E+02  0.10566000000E+00 0.  1.
         22    1    1    0    0    0  0.18981829326E+02 -0.20179665508E+02 -0.11062725962E+02  0.29831403760E+02  0.00000000000E+00 0. -1.
</event>
<event>
 5    1  0.2377303E-009  0.9118800E+02  0.7815553E-02  0.1125453E+00
         25   -1    0    0    0    0  0.00000000000E+00  0.00000000000E+00  0.99999998245E-14  0.12509000000E+03  0.12509000000E+03 0.  0.
        -13    1    3    3    0    0 -0.34920232262E+02  0.70915959209E+01  0.34339741515E+02  0.49486789806E+02  0.10566000000E+00 0. -1.
         23    2    1    0    0    0 -0.12392213671E+02  0.26642055530E+02 -0.94688940282E+00  0.95691655113E+02  0.91063879646E+02 0.  0.
         13    1    3    3    0    0  0.22528018591E+02  0.19550459609E+02 -0.35286630917E+02  0.46204865308E+02  0.10566000000E+00 0.  1.
         22    1    1    0    0    0  0.12392213671E+02 -0.26642055530E+02  0.94688940282E+00  0.29398344887E+02  0.00000000000E+00 0. -1.
</event>
<event>
 5    1  0.2377303E-009  0.9118800E+02  0.7815553E-02  0.1125453E+00
         25   -1    0    0    0    0  0.00000000000E+00  0.00000000000E+00  0.99999998245E-14  0.12509000000E+03  0.12509000000E+03 0.  0.
        -13    1    3    3    0    0  0.56595708813E+02 -0.39947279694E+01  0.41455859930E+00  0.56738127661E+02  0.10566000000E+00 0.  1.
         23    2    1    0    0    0  0.20521089591E+02 -0.18413951293E+02  0.81262561903E+01  0.96345874341E+02  0.91958157564E+02 0.  0.
         13    1    3    3    0    0 -0.36074619222E+02 -0.14419223324E+02  0.77116975910E+01  0.39607746680E+02  0.10566000000E+00 0. -1.
         22    1    1    0    0    0 -0.20521089591E+02  0.18413951293E+02 -0.81262561903E+01  0.28744125659E+02  0.00000000000E+00 0.  1.
</event>
<event>
 5    1  0.2377303E-009  0.9118800E+02  0.7815553E-02  0.1125453E+00
         25   -1    0    0    0    0  0.00000000000E+00  0.00000000000E+00  0.99999998245E-14  0.12509000000E+03  0.12509000000E+03 0.  0.
        -13    1    3    3    0    0 -0.54401901305E+01  0.17398919706E+00  0.62154272725E+02  0.62392232873E+02  0.10566000000E+00 0. -1.
         23    2    1    0    0    0 -0.27426116184E+01  0.28860324257E+01  0.41619005682E+02  0.83280996955E+02  0.72025910048E+02 0.  0.
         13    1    3    3    0    0  0.26975785121E+01  0.27120432286E+01 -0.20535267043E+02  0.20888764082E+02  0.10566000000E+00 0.  1.
         22    1    1    0    0    0  0.27426116184E+01 -0.28860324257E+01 -0.41619005682E+02  0.41809003045E+02  0.00000000000E+00 0. -1.
</event>
<event>
 5    1  0.2377303E-009  0.9118800E+02  0.7815553E-02  0.1125453E+00
         25   -1    0    0    0    0  0.00000000000E+00  0.00000000000E+00  0.99999998245E-14  0.12509000000E+03  0.12509000000E+03 0.  0.
        -13    1    3    3    0    0 -0.43918521537E+01 -0.21595049409E+02  0.33664715353E+02  0.40236286460E+02  0.10566000000E+00 0.  1.
         23    2    1    0    0    0  0.23624369303E+02  0.10546966959E+02 -0.60663387156E+01  0.98516520694E+02  0.94864930545E+02 0.  0.
         13    1    3    3    0    0  0.28016221457E+02  0.32142016368E+02 -0.39731054068E+02  0.58280234234E+02  0.10566000000E+00 0. -1.
         22    1    1    0    0    0 -0.23624369303E+02 -0.10546966959E+02  0.60663387156E+01  0.26573479306E+02  0.00000000000E+00 0. -1.
</event>
<event>
 5    1  0.2377303E-009  0.9118800E+02  0.7815553E-02  0.1125453E+00
         25   -1    0    0    0    0  0.00000000000E+00  0.00000000000E+00  0.99999998245E-14  0.12509000000E+03  0.12509000000E+03 0.  0.
        -13    1    3    3    0    0  0.59938104484E+02 -0.60703056206E+01 -0.46826388370E+01  0.60426511152E+02  0.10566000000E+00 0. -1.
         23    2    1    0    0    0  0.29754497736E+02 -0.17446523905E+01  0.91528023188E+01  0.93910716208E+02  0.88583716793E+02 0.  0.
         13    1    3    3    0    0 -0.30183606748E+02  0.43256532300E+01  0.13835441156E+02  0.33484205056E+02  0.10566000000E+00 0.  1.
         22    1    1    0    0    0 -0.29754497736E+02  0.17446523905E+01 -0.91528023188E+01  0.31179283792E+02  0.00000000000E+00 0. -1.
</event>
<event>
 5    1  0.2377303E-009  0.9118800E+02  0.7815553E-02  0.1125453E+00
         25   -1    0    0    0    0  0.00000000000E+00  0.00000000000E+00  0.99999998245E-14  0.12509000000E+03  0.12509000000E+03 0.  0.
        -13    1    3    3    0    0 -0.25342103193E+02 -0.38076877037E+02  0.30090321137E+02  0.54749514603E+02  0.10566000000E+00 0.  1.
         23    2    1    0    0    0 -0.18132430294E+02  0.19065153508E+01  0.22583053400E+02  0.96065628688E+02  0.91576148015E+02 0.  0.
         13    1    3    3    0    0  0.72096728987E+01  0.39983392388E+02 -0.75072677367E+01  0.41316114085E+02  0.10566000000E+00 0. -1.
         22    1    1    0    0    0  0.18132430294E+02 -0.19065153508E+01 -0.22583053400E+02  0.29024371312E+02  0.00000000000E+00 0.  1.
</event>
<event>
 5    1  0.2377303E-009  0.9118800E+02  0.7815553E-02  0.1125453E+00
         25   -1    0    0    0    0  0.00000000000E+00  0.00000000000E+00  0.99999998245E-14  0.12509000000E+03  0.12509000000E+03 0.  0.
        -13    1    3    3    0    0  0.22832595711E+02 -0.32791664934E+02 -0.19254520186E+02  0.44355027084E+02  0.10566000000E+00 0.  1.
         23    2    1    0    0    0  0.17435307382E+02 -0.47783474217E+01  0.23307111106E+02  0.95593492144E+02  0.90928937993E+02 0.  0.
         13    1    3    3    0    0 -0.53972883281E+01  0.28013317512E+02  0.42561631292E+02  0.51238465059E+02  0.10566000000E+00 0. -1.
         22    1    1    0    0    0 -0.17435307382E+02  0.47783474217E+01 -0.23307111106E+02  0.29496507856E+02  0.00000000000E+00 0.  1.
</event>
<event>
 5    1  0.2377303E-009  0.9118800E+02  0.7815553E-02  0.1125453E+00
         25   -1    0    0    0    0  0.00000000000E+00  0.00000000000E+00  0.99999998245E-14  0.12509000000E+03  0.12509000000E+03 0.  0.
        -13    1    3    3    0    0  0.32984897879E+02 -0.26545567967E+02 -0.35800059041E+02  0.55446605470E+02  0.10566000000E+00 0.  1.
         23    2    1    0    0    0  0.20642720951E+01 -0.40967395060E-02 -0.28096005293E+02  0.96918263286E+02  0.92733505320E+02 0.  0.
         13    1    3    3    0    0 -0.30920625784E+02  0.26541471227E+02  0.77040537486E+01  0.41471657816E+02  0.10566000000E+00 0. -1.
         22    1    1    0    0    0 -0.20642720951E+01  0.40967395060E-02  0.28096005293E+02  0.28171736714E+02  0.00000000000E+00 0.  1.
</event>
<event>
 5    1  0.2377303E-009  0.9118800E+02  0.7815553E-02  0.1125453E+00
         25   -1    0    0    0    0  0.00000000000E+00  0.00000000000E+00  0.99999998245E-14  0.12509000000E+03  0.12509000000E+03 0.  0.
        -13    1    3    3    0    0 -0.20273969494E+02 -0.26532352604E+02 -0.18721650085E+02  0.38281992107E+02  0.10566000000E+00 0. -1.
         23    2    1    0    0    0  0.28559178273E+02 -0.92602245893E+01  0.39201142800E+01  0.94812190980E+02  0.89847681325E+02 0.  0.
         13    1    3    3    0    0  0.48833147767E+02  0.17272128015E+02  0.22641764365E+02  0.56530198873E+02  0.10566000000E+00 0.  1.
         22    1    1    0    0    0 -0.28559178273E+02  0.92602245893E+01 -0.39201142800E+01  0.30277809020E+02  0.00000000000E+00 0.  1.
</event>
<event>
 5    1  0.2377303E-009  0.9118800E+02  0.7815553E-02  0.1125453E+00
         25   -1    0    0    0    0  0.00000000000E+00  0.00000000000E+00  0.99999998245E-14  0.12509000000E+03  0.12509000000E+03 0.  0.
        -13    1    3    3    0    0 -0.26069680693E+02  0.21205250310E+02  0.16005994619E+02  0.37222223468E+02  0.10566000000E+00 0. -1.
         23    2    1    0    0    0  0.22949240980E+02 -0.12984743428E+02  0.80896912397E+01  0.97508949843E+02  0.93526899722E+02 0.  0.
         13    1    3    3    0    0  0.49018921672E+02 -0.34189993738E+02 -0.79163033794E+01  0.60286726374E+02  0.10566000000E+00 0.  1.
         22    1    1    0    0    0 -0.22949240980E+02  0.12984743428E+02 -0.80896912397E+01  0.27581050157E+02  0.00000000000E+00 0.  1.
</event>
<event>
 5    1  0.2377303E-009  0.9118800E+02  0.7815553E-02  0.1125453E+00
         25   -1    0    0    0    0  0.00000000000E+00  0.00000000000E+00  0.99999998245E-14  0.12509000000E+03  0.12509000000E+03 0.  0.
        -13    1    3    3    0    0 -0.20992874959E+02 -0.41255184039E+02 -0.50106586882E+01  0.46559734468E+02  0.10566000000E+00 0.  1.
         23    2    1    0    0    0 -0.95390457792E+01  0.94372752696E+01 -0.20320987651E+02  0.10073844773E+03  0.97750891315E+02 0.  0.
         13    1    3    3    0    0  0.11453829180E+02  0.50692459309E+02 -0.15310328963E+02  0.54178713261E+02  0.10566000000E+00 0. -1.
         22    1    1    0    0    0  0.95390457792E+01 -0.94372752696E+01  0.20320987651E+02  0.24351552271E+02  0.00000000000E+00 0. -1.
</event>
<event>
 5    1  0.2377303E-009  0.9118800E+02  0.7815553E-02  0.1125453E+00
         25   -1    0    0    0    0  0.00000000000E+00  0.00000000000E+00  0.99999998245E-14  0.12509000000E+03  0.12509000000E+03 0.  0.
        -13    1    3    3    0    0  0.11501010543E+02 -0.30144228819E+02 -0.31593618757E+02  0.45156568567E+02  0.10566000000E+00 0. -1.
         23    2    1    0    0    0  0.24810331179E+02  0.12574889573E+02 -0.62451223468E+01  0.96582423215E+02  0.92279372235E+02 0.  0.
         13    1    3    3    0    0  0.13309320636E+02  0.42719118392E+02  0.25348496410E+02  0.51425854648E+02  0.10566000000E+00 0.  1.
         22    1    1    0    0    0 -0.24810331179E+02 -0.12574889573E+02  0.62451223468E+01  0.28507576785E+02  0.00000000000E+00 0.  1.
</event>
<event>
 5    1  0.2377303E-009  0.9118800E+02  0.7815553E-02  0.1125453E+00
         25   -1    0    0    0    0  0.00000000000E+00  0.00000000000E+00  0.99999998245E-14  0.12509000000E+03  0.12509000000E+03 0.  0.
        -13    1    3    3    0    0 -0.11675048039E+02  0.40030583213E+02 -0.39519175801E+02  0.57450245945E+02  0.10566000000E+00 0.  1.
         23    2    1    0    0    0 -0.58724712328E+01  0.36556078588E+01 -0.28301339122E+02  0.95955567050E+02  0.91425683835E+02 0.  0.
         13    1    3    3    0    0  0.58025768066E+01 -0.36374975354E+02  0.11217836679E+02  0.38505321105E+02  0.10566000000E+00 0. -1.
         22    1    1    0    0    0  0.58724712328E+01 -0.36556078588E+01  0.28301339122E+02  0.29134432950E+02  0.00000000000E+00 0.  1.
</event>
<event>
 5    1  0.2377303E-009  0.9118800E+02  0.7815553E-02  0.1125453E+00
         25   -1    0    0    0    0  0.00000000000E+00  0.00000000000E+00  0.99999998245E-14  0.12509000000E+03  0.12509000000E+03 0.  0.
        -13    1    3    3    0    0 -0.76114661663E+01  0.33871775002E+02  0.49261601649E+02  0.60265646268E+02  0.10566000000E+00 0. -1.
         23    2    1    0    0    0  0.31400135775E+00  0.23915009326E+02  0.14892441532E+02  0.96915346804E+02  0.92729571138E+02 0.  0.
         13    1    3    3    0    0  0.79254675240E+01 -0.99567656760E+01 -0.34369160117E+02  0.36649700536E+02  0.10566000000E+00 0.  1.
         22    1    1    0    0    0 -0.31400135775E+00 -0.23915009326E+02 -0.14892441532E+02  0.28174653196E+02  0.00000000000E+00 0. -1.
</event>
<event>
 5    1  0.2377303E-009  0.9118800E+02  0.7815553E-02  0.1125453E+00
         25   -1    0    0    0    0  0.00000000000E+00  0.00000000000E+00  0.99999998245E-14  0.12509000000E+03  0.12509000000E+03 0.  0.
        -13    1    3    3    0    0  0.76666370916E+01  0.21186462375E+02  0.32527415769E+02  0.39568768655E+02  0.10566000000E+00 0. -1.
         23    2    1    0    0    0  0.19258024692E+02 -0.19822455758E+02 -0.57616296849E+01  0.96858853301E+02  0.92653331396E+02 0.  0.
         13    1    3    3    0    0  0.11591387600E+02 -0.41008918133E+02 -0.38289045454E+02  0.57290084646E+02  0.10566000000E+00 0.  1.
         22    1    1    0    0    0 -0.19258024692E+02  0.19822455758E+02  0.57616296849E+01  0.28231146699E+02  0.00000000000E+00 0.  1.
</event>
<event>
 5    1  0.2377303E-009  0.9118800E+02  0.7815553E-02  0.1125453E+00
         25   -1    0    0    0    0  0.00000000000E+00  0.00000000000E+00  0.99999998245E-14  0.12509000000E+03  0.12509000000E+03 0.  0.
        -13    1    3    3    0    0 -0.57833730075E+01 -0.50387308461E+02 -0.18480805022E+01  0.50751894771E+02  0.10566000000E+00 0. -1.
         23    2    1    0    0    0  0.61058441677E+01 -0.13102991411E+02 -0.24992610890E+02  0.96217862635E+02  0.91783859006E+02 0.  0.
         13    1    3    3    0    0  0.11889217175E+02  0.37284317049E+02 -0.23144530388E+02  0.45465967864E+02  0.10566000000E+00 0.  1.
         22    1    1    0    0    0 -0.61058441677E+01  0.13102991411E+02  0.24992610890E+02  0.28872137365E+02  0.00000000000E+00 0. -1.
</event>
<event>
 5    1  0.2377303E-009  0.9118800E+02  0.7815553E-02  0.1125453E+00
         25   -1    0    0    0    0  0.00000000000E+00  0.00000000000E+00  0.99999998245E-14  0.12509000000E+03  0.12509000000E+03 0.  0.
        -13    1    3    3    0    0 -0.45496459965E+02  0.13261298961E+02  0.20934824462E+02  0.51807991264E+02  0.10566000000E+00 0.  1.
         23    2    1    0    0    0 -0.14975359285E+02 -0.12655969451E+02  0.26384578633E+02  0.92217809046E+02  0.86159987043E+02 0.  0.
         13    1    3    3    0    0  0.30521100680E+02 -0.25917268412E+02  0.54497541702E+01  0.40409817782E+02  0.10566000000E+00 0. -1.
         22    1    1    0    0    0  0.14975359285E+02  0.12655969451E+02 -0.26384578633E+02  0.32872190954E+02  0.00000000000E+00 0.  1.
</event>
<event>
 5    1  0.2377303E-009  0.9118800E+02  0.7815553E-02  0.1125453E+00
         25   -1    0    0    0    0  0.00000000000E+00  0.00000000000E+00  0.99999998245E-14  0.12509000000E+03  0.12509000000E+03 0.  0.
        -13    1    3    3    0    0  0.35966764014E+02 -0.15127326693E+02 -0.13529769397E+02  0.41297820166E+02  0.10566000000E+00 0.  1.
         23    2    1    0    0    0  0.46889147012E+01  0.27920493239E+02  0.19400578589E+01  0.96712126784E+02  0.92455025709E+02 0.  0.
         13    1    3    3    0    0 -0.31277849313E+02  0.43047819932E+02  0.15469827256E+02  0.55414306617E+02  0.10566000000E+00 0. -1.
         22    1    1    0    0    0 -0.46889147012E+01 -0.27920493239E+02 -0.19400578589E+01  0.28377873216E+02  0.00000000000E+00 0. -1.
</event>
<event>
 5    1  0.2377303E-009  0.9118800E+02  0.7815553E-02  0.1125453E+00
         25   -1    0    0    0    0  0.00000000000E+00  0.00000000000E+00  0.99999998245E-14  0.12509000000E+03  0.12509000000E+03 0.  0.
        -13    1    3    3    0    0  0.15164281633E+02  0.11115284141E+02  0.39981202233E+02  0.44181587511E+02  0.10566000000E+00 0.  1.
         23    2    1    0    0    0  0.34071277480E+01 -0.21154319109E+02 -0.71523128078E+01  0.10250085847E+03  0.99980781516E+02 0.  0.
         13    1    3    3    0    0 -0.11757153885E+02 -0.32269603250E+02 -0.47133515040E+02  0.58319270962E+02  0.10566000000E+00 0. -1.
         22    1    1    0    0    0 -0.34071277480E+01  0.21154319109E+02  0.71523128078E+01  0.22589141528E+02  0.00000000000E+00 0. -1.
</event>
<event>
 5    1  0.2377303E-009  0.9118800E+02  0.7815553E-02  0.1125453E+00
         25   -1    0    0    0    0  0.00000000000E+00  0.00000000000E+00  0.99999998245E-14  0.12509000000E+03  0.12509000000E+03 0.  0.
        -13    1    3    3    0    0  0.26168862258E+02  0.43659822226E+02 -0.11010706031E+00  0.50901991280E+02  0.10566000000E+00 0. -1.
         23    2    1    0    0    0  0.14878145622E+02  0.87471489124E+01 -0.24616326248E+02  0.95026145470E+02  0.90145066274E+02 0.  0.
         13    1    3    3    0    0 -0.11290716636E+02 -0.34912673313E+02 -0.24506219188E+02  0.44124154190E+02  0.10566000000E+00 0.  1.
         22    1    1    0    0    0 -0.14878145622E+02 -0.87471489124E+01  0.24616326248E+02  0.30063854530E+02  0.00000000000E+00 0. -1.
</event>
<event>
 5    1  0.2377303E-009  0.9118800E+02  0.7815553E-02  0.1125453E+00
         25   -1    0    0    0    0  0.00000000000E+00  0.00000000000E+00  0.99999998245E-14  0.12509000000E+03  0.12509000000E+03 0.  0.
        -13    1    3    3    0    0 -0.18071232351E+02  0.48566731628E+01 -0.21628566187E+02  0.28600048116E+02  0.10566000000E+00 0.  1.
         23    2    1    0    0    0 -0.13989474815E+02 -0.17910420077E+02  0.31327531940E+02  0.86387250609E+02  0.77232468933E+02 0.  0.
         13    1    3    3    0    0  0.40817575354E+01 -0.22767093239E+02  0.52956098127E+02  0.57787202494E+02  0.10566000000E+00 0. -1.
         22    1    1    0    0    0  0.13989474815E+02  0.17910420077E+02 -0.31327531940E+02  0.38702749391E+02  0.00000000000E+00 0. -1.
</event>
<event>
 5    1  0.2377303E-009  0.9118800E+02  0.7815553E-02  0.1125453E+00
         25   -1    0    0    0    0  0.00000000000E+00  0.00000000000E+00  0.99999998245E-14  0.12509000000E+03  0.12509000000E+03 0.  0.
        -13    1    3    3    0    0  0.35110240431E+02 -0.30300161318E+02  0.30792989138E+02  0.55669094686E+02  0.10566000000E+00 0. -1.
         23    2    1    0    0    0 -0.21668661780E+01 -0.22498511902E+02  0.19069757431E+02  0.95517479050E+02  0.90824307367E+02 0.  0.
         13    1    3    3    0    0 -0.37277106609E+02  0.78016494152E+01 -0.11723231706E+02  0.39848384364E+02  0.10566000000E+00 0.  1.
         22    1    1    0    0    0  0.21668661780E+01  0.22498511902E+02 -0.19069757431E+02  0.29572520950E+02  0.00000000000E+00 0.  1.
</event>
<event>
 5    1  0.2377303E-009  0.9118800E+02  0.7815553E-02  0.1125453E+00
         25   -1    0    0    0    0  0.00000000000E+00  0.00000000000E+00  0.99999998245E-14  0.12509000000E+03  0.12509000000E+03 0.  0.
        -13    1    3    3    0    0 -0.44603055605E+02 -0.48231621620E+01 -0.44046474289E+01  0.45078903554E+02  0.10566000000E+00 0. -1.
         23    2    1    0    0    0 -0.27725507738E+00 -0.25886716964E+02  0.11631906530E+02  0.96708663966E+02  0.92450340459E+02 0.  0.
         13    1    3    3    0    0  0.44325800528E+02 -0.21063554802E+02  0.16036553959E+02  0.51629760413E+02  0.10566000000E+00 0.  1.
         22    1    1    0    0    0  0.27725507738E+00  0.25886716964E+02 -0.11631906530E+02  0.28381336034E+02  0.00000000000E+00 0.  1.
</event>
<event>
 5    1  0.2377303E-009  0.9118800E+02  0.7815553E-02  0.1125453E+00
         25   -1    0    0    0    0  0.00000000000E+00  0.00000000000E+00  0.99999998245E-14  0.12509000000E+03  0.12509000000E+03 0.  0.
        -13    1    3    3    0    0  0.16597607055E+02 -0.21246164783E+01  0.42439390992E+02  0.45619158552E+02  0.10566000000E+00 0.  1.
         23    2    1    0    0    0  0.17473761429E+01 -0.28896239675E+02  0.23719365493E+01  0.96043966299E+02  0.91546553123E+02 0.  0.
         13    1    3    3    0    0 -0.14850230912E+02 -0.26771623197E+02 -0.40067454443E+02  0.50424807747E+02  0.10566000000E+00 0. -1.
         22    1    1    0    0    0 -0.17473761429E+01  0.28896239675E+02 -0.23719365493E+01  0.29046033701E+02  0.00000000000E+00 0.  1.
</event>
<event>
 5    1  0.2377303E-009  0.9118800E+02  0.7815553E-02  0.1125453E+00
         25   -1    0    0    0    0  0.00000000000E+00  0.00000000000E+00  0.99999998245E-14  0.12509000000E+03  0.12509000000E+03 0.  0.
        -13    1    3    3    0    0 -0.25447275716E+01 -0.40806060408E+02 -0.98955376869E+01  0.42065936749E+02  0.10566000000E+00 0.  1.
         23    2    1    0    0    0  0.26011156177E+01  0.12834314709E+02 -0.23983949612E+02  0.97763908521E+02  0.93867281487E+02 0.  0.
         13    1    3    3    0    0  0.51458431893E+01  0.53640375118E+02 -0.14088411925E+02  0.55697971772E+02  0.10566000000E+00 0. -1.
         22    1    1    0    0    0 -0.26011156177E+01 -0.12834314709E+02  0.23983949612E+02  0.27326091479E+02  0.00000000000E+00 0. -1.
</event>
<event>
 5    1  0.2377303E-009  0.9118800E+02  0.7815553E-02  0.1125453E+00
         25   -1    0    0    0    0  0.00000000000E+00  0.00000000000E+00  0.99999998245E-14  0.12509000000E+03  0.12509000000E+03 0.  0.
        -13    1    3    3    0    0 -0.15192778584E+02  0.12858552159E+02 -0.22951449655E+02  0.30379978440E+02  0.10566000000E+00 0.  1.
         23    2    1    0    0    0  0.76998306411E+01 -0.14806885927E+01  0.32284261759E+02  0.91867215831E+02  0.85649471432E+02 0.  0.
         13    1    3    3    0    0  0.22892609225E+02 -0.14339240752E+02  0.55235711414E+02  0.61487237391E+02  0.10566000000E+00 0. -1.
         22    1    1    0    0    0 -0.76998306411E+01  0.14806885927E+01 -0.32284261759E+02  0.33222784169E+02  0.00000000000E+00 0. -1.
</event>
<event>
 5    1  0.2377303E-009  0.9118800E+02  0.7815553E-02  0.1125453E+00
         25   -1    0    0    0    0  0.00000000000E+00  0.00000000000E+00  0.99999998245E-14  0.12509000000E+03  0.12509000000E+03 0.  0.
        -13    1    3    3    0    0 -0.35617365608E+02 -0.44092641985E+02  0.20317536083E+02  0.60212716651E+02  0.10566000000E+00 0. -1.
         23    2    1    0    0    0 -0.24721187258E+02 -0.23500571568E+02  0.22074478100E+00  0.90980431082E+02  0.84344390141E+02 0.  0.
         13    1    3    3    0    0  0.10896178350E+02  0.20592070416E+02 -0.20096791302E+02  0.30767714431E+02  0.10566000000E+00 0.  1.
         22    1    1    0    0    0  0.24721187258E+02  0.23500571568E+02 -0.22074478100E+00  0.34109568918E+02  0.00000000000E+00 0. -1.
</event>
<event>
 5    1  0.2377303E-009  0.9118800E+02  0.7815553E-02  0.1125453E+00
         25   -1    0    0    0    0  0.00000000000E+00  0.00000000000E+00  0.99999998245E-14  0.12509000000E+03  0.12509000000E+03 0.  0.
        -13    1    3    3    0    0  0.40963400788E+02 -0.33046309352E+02  0.22137039499E+02  0.57097446946E+02  0.10566000000E+00 0.  1.
         23    2    1    0    0    0  0.59199121671E+01 -0.20635339526E+02  0.22108100101E+02  0.94273921607E+02  0.89095126734E+02 0.  0.
         13    1    3    3    0    0 -0.35043488621E+02  0.12410969826E+02 -0.28939398202E-01  0.37176474662E+02  0.10566000000E+00 0. -1.
         22    1    1    0    0    0 -0.59199121671E+01  0.20635339526E+02 -0.22108100101E+02  0.30816078393E+02  0.00000000000E+00 0. -1.
</event>
<event>
 5    1  0.2377303E-009  0.9118800E+02  0.7815553E-02  0.1125453E+00
         25   -1    0    0    0    0  0.00000000000E+00  0.00000000000E+00  0.99999998245E-14  0.12509000000E+03  0.12509000000E+03 0.  0.
        -13    1    3    3    0    0 -0.46145858675E+02  0.31779596848E+02 -0.11367977507E+02  0.57171891042E+02  0.10566000000E+00 0.  1.
         23    2    1    0    0    0 -0.28702597808E+02  0.44802033928E+01  0.80537871799E+01  0.94944107555E+02  0.90031154208E+02 0.  0.
         13    1    3    3    0    0  0.17443260867E+02 -0.27299393455E+02  0.19421764687E+02  0.37772216512E+02  0.10566000000E+00 0. -1.
         22    1    1    0    0    0  0.28702597808E+02 -0.44802033928E+01 -0.80537871799E+01  0.30145892445E+02  0.00000000000E+00 0.  1.
</event>
<event>
 5    1  0.2377303E-009  0.9118800E+02  0.7815553E-02  0.1125453E+00
         25   -1    0    0    0    0  0.00000000000E+00  0.00000000000E+00  0.99999998245E-14  0.12509000000E+03  0.12509000000E+03 0.  0.
        -13    1    3    3    0    0 -0.31590599944E+02  0.45483695961E+02  0.13259430300E+02  0.56943447902E+02  0.10566000000E+00 0. -1.
         23    2    1    0    0    0  0.36121626720E+01  0.26506645134E+02  0.71477198102E+01  0.97399932216E+02  0.93380977408E+02 0.  0.
         13    1    3    3    0    0  0.35202762616E+02 -0.18977050827E+02 -0.61117104894E+01  0.40456484313E+02  0.10566000000E+00 0.  1.
         22    1    1    0    0    0 -0.36121626720E+01 -0.26506645134E+02 -0.71477198102E+01  0.27690067784E+02  0.00000000000E+00 0. -1.
</event>
<event>
 5    1  0.2377303E-009  0.9118800E+02  0.7815553E-02  0.1125453E+00
         25   -1    0    0    0    0  0.00000000000E+00  0.00000000000E+00  0.99999998245E-14  0.12509000000E+03  0.12509000000E+03 0.  0.
        -13    1    3    3    0    0 -0.20329220950E+02 -0.17167975955E+02 -0.21772893816E+02  0.34381487635E+02  0.10566000000E+00 0.  1.
         23    2    1    0    0    0  0.12131079208E+02  0.16850218604E+02  0.19246029331E+02  0.96779178840E+02  0.92545701478E+02 0.  0.
         13    1    3    3    0    0  0.32460300158E+02  0.34018194560E+02  0.41018923147E+02  0.62397691204E+02  0.10566000000E+00 0. -1.
         22    1    1    0    0    0 -0.12131079208E+02 -0.16850218604E+02 -0.19246029331E+02  0.28310821160E+02  0.00000000000E+00 0. -1.
</event>
<event>
 5    1  0.2377303E-009  0.9118800E+02  0.7815553E-02  0.1125453E+00
         25   -1    0    0    0    0  0.00000000000E+00  0.00000000000E+00  0.99999998245E-14  0.12509000000E+03  0.12509000000E+03 0.  0.
        -13    1    3    3    0    0 -0.27597231092E+02  0.27711080305E+02 -0.47596402047E+02  0.61603082613E+02  0.10566000000E+00 0.  1.
         23    2    1    0    0    0 -0.20143337561E+02  0.12091182339E+02 -0.19711854423E+02  0.94422298044E+02  0.89303205008E+02 0.  0.
         13    1    3    3    0    0  0.74538935303E+01 -0.15619897966E+02  0.27884547624E+02  0.32819215431E+02  0.10566000000E+00 0. -1.
         22    1    1    0    0    0  0.20143337561E+02 -0.12091182339E+02  0.19711854423E+02  0.30667701956E+02  0.00000000000E+00 0.  1.
</event>
<event>
 5    1  0.2377303E-009  0.9118800E+02  0.7815553E-02  0.1125453E+00
         25   -1    0    0    0    0  0.00000000000E+00  0.00000000000E+00  0.99999998245E-14  0.12509000000E+03  0.12509000000E+03 0.  0.
        -13    1    3    3    0    0 -0.73065831513E+01  0.31432523248E+02  0.35869008452E+02  0.48249213532E+02  0.10566000000E+00 0. -1.
         23    2    1    0    0    0 -0.87190230357E+01 -0.14399715694E+02  0.24280197162E+02  0.95545099442E+02  0.90862340265E+02 0.  0.
         13    1    3    3    0    0 -0.14124398845E+01 -0.45832238942E+02 -0.11588811291E+02  0.47295885910E+02  0.10566000000E+00 0.  1.
         22    1    1    0    0    0  0.87190230357E+01  0.14399715694E+02 -0.24280197162E+02  0.29544900558E+02  0.00000000000E+00 0.  1.
</event>
<event>
 5    1  0.2377303E-009  0.9118800E+02  0.7815553E-02  0.1125453E+00
         25   -1    0    0    0    0  0.00000000000E+00  0.00000000000E+00  0.99999998245E-14  0.12509000000E+03  0.12509000000E+03 0.  0.
        -13    1    3    3    0    0 -0.18580513420E+02 -0.13092617435E+02  0.35335395825E+02  0.42014919640E+02  0.10566000000E+00 0. -1.
         23    2    1    0    0    0 -0.17405230907E+02  0.22329797385E+02 -0.56716377711E+01  0.96215627467E+02  0.91780812699E+02 0.  0.
         13    1    3    3    0    0  0.11752825133E+01  0.35422414819E+02 -0.41007033596E+02  0.54200707827E+02  0.10566000000E+00 0.  1.
         22    1    1    0    0    0  0.17405230907E+02 -0.22329797385E+02  0.56716377711E+01  0.28874372533E+02  0.00000000000E+00 0.  1.
</event>
<event>
 5    1  0.2377303E-009  0.9118800E+02  0.7815553E-02  0.1125453E+00
         25   -1    0    0    0    0  0.00000000000E+00  0.00000000000E+00  0.99999998245E-14  0.12509000000E+03  0.12509000000E+03 0.  0.
        -13    1    3    3    0    0  0.86858456993E+01 -0.22356342971E+02 -0.54478019758E+02  0.59524077375E+02  0.10566000000E+00 0.  1.
         23    2    1    0    0    0  0.90841742689E+01 -0.21346594260E+02 -0.18770537769E+02  0.95248210563E+02  0.90452690500E+02 0.  0.
         13    1    3    3    0    0  0.39832856957E+00  0.10097487115E+01  0.35707481988E+02  0.35724133189E+02  0.10566000000E+00 0. -1.
         22    1    1    0    0    0 -0.90841742689E+01  0.21346594260E+02  0.18770537769E+02  0.29841789437E+02  0.00000000000E+00 0.  1.
</event>
<event>
 5    1  0.2377303E-009  0.9118800E+02  0.7815553E-02  0.1125453E+00
         25   -1    0    0    0    0  0.00000000000E+00  0.00000000000E+00  0.99999998245E-14  0.12509000000E+03  0.12509000000E+03 0.  0.
        -13    1    3    3    0    0 -0.39926453529E+01 -0.13724341097E+02 -0.51622180436E+02  0.53564535212E+02  0.10566000000E+00 0. -1.
         23    2    1    0    0    0 -0.24008306465E+02 -0.52254298620E+01 -0.14575826291E+02  0.96521510215E+02  0.92196764182E+02 0.  0.
         13    1    3    3    0    0 -0.20015661112E+02  0.84989112350E+01  0.37046354145E+02  0.42956975003E+02  0.10566000000E+00 0.  1.
         22    1    1    0    0    0  0.24008306465E+02  0.52254298620E+01  0.14575826291E+02  0.28568489785E+02  0.00000000000E+00 0.  1.
</event>
<event>
 5    1  0.2377303E-009  0.9118800E+02  0.7815553E-02  0.1125453E+00
         25   -1    0    0    0    0  0.00000000000E+00  0.00000000000E+00  0.99999998245E-14  0.12509000000E+03  0.12509000000E+03 0.  0.
        -13    1    3    3    0    0 -0.24459658554E+02  0.13491625925E+02  0.51128520516E+02  0.58261785425E+02  0.10566000000E+00 0. -1.
         23    2    1    0    0    0 -0.14295988568E+02  0.17409393637E+02  0.10664809280E+02  0.10016610719E+03  0.97015713141E+02 0.  0.
         13    1    3    3    0    0  0.10163669986E+02  0.39177677121E+01 -0.40463711236E+02  0.41904321763E+02  0.10566000000E+00 0.  1.
         22    1    1    0    0    0  0.14295988568E+02 -0.17409393637E+02 -0.10664809280E+02  0.24923892812E+02  0.00000000000E+00 0. -1.
</event>
<event>
 5    1  0.2377303E-009  0.9118800E+02  0.7815553E-02  0.1125453E+00
         25   -1    0    0    0    0  0.00000000000E+00  0.00000000000E+00  0.99999998245E-14  0.12509000000E+03  0.12509000000E+03 0.  0.
        -13    1    3    3    0    0  0.99946854687E+01 -0.58584765577E+02  0.13755690663E+02  0.61002448188E+02  0.10566000000E+00 0.  1.
         23    2    1    0    0    0  0.78989766603E+01 -0.23661514136E+02  0.14948035147E+02  0.96008995233E+02  0.91498755879E+02 0.  0.
         13    1    3    3    0    0 -0.20957088085E+01  0.34923251441E+02  0.11923444848E+01  0.35006547045E+02  0.10566000000E+00 0. -1.
         22    1    1    0    0    0 -0.78989766603E+01  0.23661514136E+02 -0.14948035147E+02  0.29081004767E+02  0.00000000000E+00 0.  1.
</event>
<event>
 5    1  0.2377303E-009  0.9118800E+02  0.7815553E-02  0.1125453E+00
         25   -1    0    0    0    0  0.00000000000E+00  0.00000000000E+00  0.99999998245E-14  0.12509000000E+03  0.12509000000E+03 0.  0.
        -13    1    3    3    0    0 -0.15671686626E+02 -0.29622544407E+02  0.57780305843E+01  0.34007259524E+02  0.10566000000E+00 0. -1.
         23    2    1    0    0    0  0.90878907440E+01  0.24906615039E+02  0.15042953203E+02  0.94606895303E+02  0.89561403333E+02 0.  0.
         13    1    3    3    0    0  0.24759577370E+02  0.54529159446E+02  0.92649226184E+01  0.60599635780E+02  0.10566000000E+00 0.  1.
         22    1    1    0    0    0 -0.90878907440E+01 -0.24906615039E+02 -0.15042953203E+02  0.30483104697E+02  0.00000000000E+00 0.  1.
</event>
<event>
 5    1  0.2377303E-009  0.9118800E+02  0.7815553E-02  0.1125453E+00
         25   -1    0    0    0    0  0.00000000000E+00  0.00000000000E+00  0.99999998245E-14  0.12509000000E+03  0.12509000000E+03 0.  0.
        -13    1    3    3    0    0  0.14345950441E+02  0.29442293124E+02 -0.39858507102E+02  0.51588435437E+02  0.10566000000E+00 0. -1.
         23    2    1    0    0    0  0.23546121389E+02  0.18240368939E+02  0.13524238179E+01  0.95274568732E+02  0.90489134736E+02 0.  0.
         13    1    3    3    0    0  0.92001709484E+01 -0.11201924185E+02  0.41210930920E+02  0.43686133295E+02  0.10566000000E+00 0.  1.
         22    1    1    0    0    0 -0.23546121389E+02 -0.18240368939E+02 -0.13524238179E+01  0.29815431268E+02  0.00000000000E+00 0. -1.
</event>
<event>
 5    1  0.2377303E-009  0.9118800E+02  0.7815553E-02  0.1125453E+00
         25   -1    0    0    0    0  0.00000000000E+00  0.00000000000E+00  0.99999998245E-14  0.12509000000E+03  0.12509000000E+03 0.  0.
        -13    1    3    3    0    0 -0.39783049195E+02  0.10477897670E+01  0.14417039357E+02  0.42327899245E+02  0.10566000000E+00 0. -1.
         23    2    1    0    0    0  0.64627975989E+01 -0.26621764519E+02  0.20620097107E+01  0.97617504974E+02  0.93671977103E+02 0.  0.
         13    1    3    3    0    0  0.46245846794E+02 -0.27669554286E+02 -0.12355029647E+02  0.55289605729E+02  0.10566000000E+00 0.  1.
         22    1    1    0    0    0 -0.64627975989E+01  0.26621764519E+02 -0.20620097107E+01  0.27472495026E+02  0.00000000000E+00 0.  1.
</event>
<event>
 5    1  0.2377303E-009  0.9118800E+02  0.7815553E-02  0.1125453E+00
         25   -1    0    0    0    0  0.00000000000E+00  0.00000000000E+00  0.99999998245E-14  0.12509000000E+03  0.12509000000E+03 0.  0.
        -13    1    3    3    0    0 -0.21832521423E+02 -0.46411058033E+01 -0.28839730026E+02  0.36468343077E+02  0.10566000000E+00 0.  1.
         23    2    1    0    0    0  0.99081718385E+00  0.10740329252E+02  0.25512155716E+02  0.97391507615E+02  0.93369691416E+02 0.  0.
         13    1    3    3    0    0  0.22823338607E+02  0.15381435055E+02  0.54351885742E+02  0.60923164538E+02  0.10566000000E+00 0. -1.
         22    1    1    0    0    0 -0.99081718385E+00 -0.10740329252E+02 -0.25512155716E+02  0.27698492385E+02  0.00000000000E+00 0. -1.
</event>
<event>
 5    1  0.2377303E-009  0.9118800E+02  0.7815553E-02  0.1125453E+00
         25   -1    0    0    0    0  0.00000000000E+00  0.00000000000E+00  0.99999998245E-14  0.12509000000E+03  0.12509000000E+03 0.  0.
        -13    1    3    3    0    0  0.10601714051E+02 -0.11018269751E+02 -0.37349819117E+02  0.40358626850E+02  0.10566000000E+00 0.  1.
         23    2    1    0    0    0  0.10957195135E+02  0.26918282762E+02  0.31553648742E+01  0.95856279751E+02  0.91289736379E+02 0.  0.
         13    1    3    3    0    0  0.35548108427E+00  0.37936552513E+02  0.40505183991E+02  0.55497652901E+02  0.10566000000E+00 0. -1.
         22    1    1    0    0    0 -0.10957195135E+02 -0.26918282762E+02 -0.31553648742E+01  0.29233720249E+02  0.00000000000E+00 0. -1.
</event>
<event>
 5    1  0.2377303E-009  0.9118800E+02  0.7815553E-02  0.1125453E+00
         25   -1    0    0    0    0  0.00000000000E+00  0.00000000000E+00  0.99999998245E-14  0.12509000000E+03  0.12509000000E+03 0.  0.
        -13    1    3    3    0    0 -0.20837944437E+02 -0.12241480442E+02 -0.34527601834E+02  0.42145465049E+02  0.10566000000E+00 0. -1.
         23    2    1    0    0    0 -0.16120637266E+02 -0.21604435459E+02  0.15995777244E+02  0.93745280078E+02  0.88349793831E+02 0.  0.
         13    1    3    3    0    0  0.47173071715E+01 -0.93629550161E+01  0.50523379078E+02  0.51599815029E+02  0.10566000000E+00 0.  1.
         22    1    1    0    0    0  0.16120637266E+02  0.21604435459E+02 -0.15995777244E+02  0.31344719922E+02  0.00000000000E+00 0.  1.
</event>
<event>
 5    1  0.2377303E-009  0.9118800E+02  0.7815553E-02  0.1125453E+00
         25   -1    0    0    0    0  0.00000000000E+00  0.00000000000E+00  0.99999998245E-14  0.12509000000E+03  0.12509000000E+03 0.  0.
        -13    1    3    3    0    0 -0.61334384634E+01 -0.58828347439E+02 -0.22770901342E+00  0.59147751819E+02  0.10566000000E+00 0.  1.
         23    2    1    0    0    0 -0.12975711196E+02 -0.21094096977E+02 -0.94364521923E+01  0.98587610705E+02  0.94958624391E+02 0.  0.
         13    1    3    3    0    0 -0.68422727329E+01  0.37734250462E+02 -0.92087431789E+01  0.39439858887E+02  0.10566000000E+00 0. -1.
         22    1    1    0    0    0  0.12975711196E+02  0.21094096977E+02  0.94364521923E+01  0.26502389295E+02  0.00000000000E+00 0.  1.
</event>
<event>
 4    1  0.2377303E-009  0.9118800E+02  0.7815553E-02  0.1125453E+00
         25   -1    0    0    0    0  0.00000000000E+00  0.00000000000E+00  0.99999998245E-14  0.12509000000E+03  0.12509000000E+03 0.  0.
        -13    1    1    0    0    0  0.47934046411E+02  0.15244009903E+02 -0.24339709329E+02  0.55879202370E+02  0.10566000000E+00 0.  1.
         13    1    1    0    0    0 -0.76272629930E+01  0.10921400527E+02 -0.33673893802E+01  0.13740546041E+02  0.10566000000E+00 0. -1.
         22    1    1    0    0    0 -0.40306783418E+02 -0.26165410430E+02  0.27707098709E+02  0.55470251589E+02  0.00000000000E+00 0.  1.
</event>
<event>
 5    1  0.2377303E-009  0.9118800E+02  0.7815553E-02  0.1125453E+00
         25   -1    0    0    0    0  0.00000000000E+00  0.00000000000E+00  0.99999998245E-14  0.12509000000E+03  0.12509000000E+03 0.  0.
        -13    1    3    3    0    0  0.21125700021E+02  0.18009261173E+02  0.25630003746E+02  0.37782759897E+02  0.10566000000E+00 0. -1.
         23    2    1    0    0    0  0.54787449775E+01  0.85759121627E+01 -0.28454703266E+02  0.94870253907E+02  0.89928482821E+02 0.  0.
         13    1    3    3    0    0 -0.15646955043E+02 -0.94333490099E+01 -0.54084707013E+02  0.57087494010E+02  0.10566000000E+00 0.  1.
         22    1    1    0    0    0 -0.54787449775E+01 -0.85759121627E+01  0.28454703266E+02  0.30219746093E+02  0.00000000000E+00 0. -1.
</event>
<event>
 5    1  0.2377303E-009  0.9118800E+02  0.7815553E-02  0.1125453E+00
         25   -1    0    0    0    0  0.00000000000E+00  0.00000000000E+00  0.99999998245E-14  0.12509000000E+03  0.12509000000E+03 0.  0.
        -13    1    3    3    0    0 -0.26191703903E+01  0.30410141056E+02  0.22054694691E+02  0.37657103640E+02  0.10566000000E+00 0.  1.
         23    2    1    0    0    0  0.15099810403E+02 -0.18950780999E+02 -0.97261145803E+01  0.98979969753E+02  0.95474084090E+02 0.  0.
         13    1    3    3    0    0  0.17718980793E+02 -0.49360922054E+02 -0.31780809272E+02  0.61322866114E+02  0.10566000000E+00 0. -1.
         22    1    1    0    0    0 -0.15099810403E+02  0.18950780999E+02  0.97261145803E+01  0.26110030247E+02  0.00000000000E+00 0. -1.
</event>
<event>
 5    1  0.2377303E-009  0.9118800E+02  0.7815553E-02  0.1125453E+00
         25   -1    0    0    0    0  0.00000000000E+00  0.00000000000E+00  0.99999998245E-14  0.12509000000E+03  0.12509000000E+03 0.  0.
        -13    1    3    3    0    0 -0.57293260564E+01 -0.41373228784E+02 -0.14737689265E+02  0.44291984444E+02  0.10566000000E+00 0.  1.
         23    2    1    0    0    0 -0.25374424112E+02  0.54510264228E+01 -0.15084023583E+02  0.95071624702E+02  0.90208153555E+02 0.  0.
         13    1    3    3    0    0 -0.19645098056E+02  0.46824255206E+02 -0.34633431836E+00  0.50779640258E+02  0.10566000000E+00 0. -1.
         22    1    1    0    0    0  0.25374424112E+02 -0.54510264228E+01  0.15084023583E+02  0.30018375298E+02  0.00000000000E+00 0. -1.
</event>
<event>
 5    1  0.2377303E-009  0.9118800E+02  0.7815553E-02  0.1125453E+00
         25   -1    0    0    0    0  0.00000000000E+00  0.00000000000E+00  0.99999998245E-14  0.12509000000E+03  0.12509000000E+03 0.  0.
        -13    1    3    3    0    0  0.22783416983E+02 -0.15899550934E+02 -0.26404197406E+02  0.38328483064E+02  0.10566000000E+00 0.  1.
         23    2    1    0    0    0 -0.19918752610E+01 -0.92206767784E+01  0.26409775692E+02  0.97046022047E+02  0.92905681719E+02 0.  0.
         13    1    3    3    0    0 -0.24775292244E+02  0.66788741552E+01  0.52813973098E+02  0.58717538983E+02  0.10566000000E+00 0. -1.
         22    1    1    0    0    0  0.19918752610E+01  0.92206767784E+01 -0.26409775692E+02  0.28043977953E+02  0.00000000000E+00 0. -1.
</event>
<event>
 5    1  0.2377303E-009  0.9118800E+02  0.7815553E-02  0.1125453E+00
         25   -1    0    0    0    0  0.00000000000E+00  0.00000000000E+00  0.99999998245E-14  0.12509000000E+03  0.12509000000E+03 0.  0.
        -13    1    3    3    0    0 -0.20048074169E+02 -0.13659944226E+02  0.42140210595E+02  0.48624354671E+02  0.10566000000E+00 0.  1.
         23    2    1    0    0    0 -0.17203343278E+00 -0.29462873106E+02  0.27385553211E+01  0.95499627032E+02  0.90799716910E+02 0.  0.
         13    1    3    3    0    0  0.19876040736E+02 -0.15802928879E+02 -0.39401655274E+02  0.46875272361E+02  0.10566000000E+00 0. -1.
         22    1    1    0    0    0  0.17203343278E+00  0.29462873106E+02 -0.27385553211E+01  0.29590372968E+02  0.00000000000E+00 0.  1.
</event>
<event>
 5    1  0.2377303E-009  0.9118800E+02  0.7815553E-02  0.1125453E+00
         25   -1    0    0    0    0  0.00000000000E+00  0.00000000000E+00  0.99999998245E-14  0.12509000000E+03  0.12509000000E+03 0.  0.
        -13    1    3    3    0    0  0.13926458249E+02 -0.30583542481E+02 -0.48590058598E+02  0.59078797116E+02  0.10566000000E+00 0.  1.
         23    2    1    0    0    0  0.10415825539E+02 -0.24860133456E+02 -0.13242248070E+02  0.95058803037E+02  0.90190372234E+02 0.  0.
         13    1    3    3    0    0 -0.35106327107E+01  0.57234090254E+01  0.35347810528E+02  0.35980005921E+02  0.10566000000E+00 0. -1.
         22    1    1    0    0    0 -0.10415825539E+02  0.24860133456E+02  0.13242248070E+02  0.30031196963E+02  0.00000000000E+00 0.  1.
</event>
<event>
 5    1  0.2377303E-009  0.9118800E+02  0.7815553E-02  0.1125453E+00
         25   -1    0    0    0    0  0.00000000000E+00  0.00000000000E+00  0.99999998245E-14  0.12509000000E+03  0.12509000000E+03 0.  0.
        -13    1    3    3    0    0  0.13854416746E+02 -0.30597816488E+02  0.12668440035E+02  0.35898074798E+02  0.10566000000E+00 0. -1.
         23    2    1    0    0    0 -0.55365018143E+01  0.25569624873E+02  0.14168622624E+02  0.95337547402E+02  0.90576153093E+02 0.  0.
         13    1    3    3    0    0 -0.19390918561E+02  0.56167441361E+02  0.15001825890E+01  0.59439472605E+02  0.10566000000E+00 0.  1.
         22    1    1    0    0    0  0.55365018143E+01 -0.25569624873E+02 -0.14168622624E+02  0.29752452598E+02  0.00000000000E+00 0.  1.
</event>
<event>
 5    1  0.2377303E-009  0.9118800E+02  0.7815553E-02  0.1125453E+00
         25   -1    0    0    0    0  0.00000000000E+00  0.00000000000E+00  0.99999998245E-14  0.12509000000E+03  0.12509000000E+03 0.  0.
        -13    1    3    3    0    0  0.10939270266E+02  0.43551523582E+02 -0.16496622182E+02  0.47838818419E+02  0.10566000000E+00 0. -1.
         23    2    1    0    0    0  0.20883708263E+02  0.11125303816E+02  0.17345014996E+02  0.95751438327E+02  0.91145963929E+02 0.  0.
         13    1    3    3    0    0  0.99444379974E+01 -0.32426219766E+02  0.33841637179E+02  0.47912619907E+02  0.10566000000E+00 0.  1.
         22    1    1    0    0    0 -0.20883708263E+02 -0.11125303816E+02 -0.17345014996E+02  0.29338561673E+02  0.00000000000E+00 0.  1.
</event>
<event>
 5    1  0.2377303E-009  0.9118800E+02  0.7815553E-02  0.1125453E+00
         25   -1    0    0    0    0  0.00000000000E+00  0.00000000000E+00  0.99999998245E-14  0.12509000000E+03  0.12509000000E+03 0.  0.
        -13    1    3    3    0    0  0.31781859415E+02 -0.41067131104E+02 -0.24539710088E+02  0.57435218988E+02  0.10566000000E+00 0. -1.
         23    2    1    0    0    0 -0.10855370613E+01 -0.27383657237E+02 -0.94803731996E+01  0.96091369853E+02  0.91611302850E+02 0.  0.
         13    1    3    3    0    0 -0.32867396476E+02  0.13683473867E+02  0.15059336888E+02  0.38656150866E+02  0.10566000000E+00 0.  1.
         22    1    1    0    0    0  0.10855370613E+01  0.27383657237E+02  0.94803731996E+01  0.28998630147E+02  0.00000000000E+00 0. -1.
</event>
<event>
 5    1  0.2377303E-009  0.9118800E+02  0.7815553E-02  0.1125453E+00
         25   -1    0    0    0    0  0.00000000000E+00  0.00000000000E+00  0.99999998245E-14  0.12509000000E+03  0.12509000000E+03 0.  0.
        -13    1    3    3    0    0  0.35158532593E+02 -0.15009738158E+02 -0.18996675958E+02  0.42688400241E+02  0.10566000000E+00 0. -1.
         23    2    1    0    0    0 -0.52291543562E+01 -0.26738772628E+02  0.12384119825E+02  0.95162212898E+02  0.90333683213E+02 0.  0.
         13    1    3    3    0    0 -0.40387686949E+02 -0.11729034470E+02  0.31380795784E+02  0.52473812657E+02  0.10566000000E+00 0.  1.
         22    1    1    0    0    0  0.52291543562E+01  0.26738772628E+02 -0.12384119825E+02  0.29927787102E+02  0.00000000000E+00 0. -1.
</event>
<event>
 5    1  0.2377303E-009  0.9118800E+02  0.7815553E-02  0.1125453E+00
         25   -1    0    0    0    0  0.00000000000E+00  0.00000000000E+00  0.99999998245E-14  0.12509000000E+03  0.12509000000E+03 0.  0.
        -13    1    3    3    0    0 -0.91562189307E+01  0.29173048223E+01 -0.33065390271E+02  0.34433678432E+02  0.10566000000E+00 0.  1.
         23    2    1    0    0    0  0.93009271923E+01 -0.82472272828E+01  0.25432503651E+02  0.96782116885E+02  0.92549672621E+02 0.  0.
         13    1    3    3    0    0  0.18457146123E+02 -0.11164532105E+02  0.58497893922E+02  0.62348438453E+02  0.10566000000E+00 0. -1.
         22    1    1    0    0    0 -0.93009271923E+01  0.82472272828E+01 -0.25432503651E+02  0.28307883115E+02  0.00000000000E+00 0. -1.
</event>
<event>
 5    1  0.2377303E-009  0.9118800E+02  0.7815553E-02  0.1125453E+00
         25   -1    0    0    0    0  0.00000000000E+00  0.00000000000E+00  0.99999998245E-14  0.12509000000E+03  0.12509000000E+03 0.  0.
        -13    1    3    3    0    0 -0.24519429855E+02 -0.31995164875E+02  0.34286482508E+02  0.52919439364E+02  0.10566000000E+00 0. -1.
         23    2    1    0    0    0 -0.17540134146E+02  0.82323169042E+01  0.22461865202E+02  0.95425834146E+02  0.90697999353E+02 0.  0.
         13    1    3    3    0    0  0.69792957091E+01  0.40227481779E+02 -0.11824617306E+02  0.42506394782E+02  0.10566000000E+00 0.  1.
         22    1    1    0    0    0  0.17540134146E+02 -0.82323169042E+01 -0.22461865202E+02  0.29664165854E+02  0.00000000000E+00 0. -1.
</event>
<event>
 5    1  0.2377303E-009  0.9118800E+02  0.7815553E-02  0.1125453E+00
         25   -1    0    0    0    0  0.00000000000E+00  0.00000000000E+00  0.99999998245E-14  0.12509000000E+03  0.12509000000E+03 0.  0.
        -13    1    3    3    0    0 -0.24572792062E+02 -0.22419361215E+02 -0.12224411973E+02  0.35438641045E+02  0.10566000000E+00 0.  1.
         23    2    1    0    0    0  0.19077887709E+02  0.18899324204E+02 -0.12321715665E+02  0.95543850814E+02  0.90860621264E+02 0.  0.
         13    1    3    3    0    0  0.43650679771E+02  0.41318685419E+02 -0.97303692359E-01  0.60105209768E+02  0.10566000000E+00 0. -1.
         22    1    1    0    0    0 -0.19077887709E+02 -0.18899324204E+02  0.12321715665E+02  0.29546149186E+02  0.00000000000E+00 0. -1.
</event>
<event>
 5    1  0.2377303E-009  0.9118800E+02  0.7815553E-02  0.1125453E+00
         25   -1    0    0    0    0  0.00000000000E+00  0.00000000000E+00  0.99999998245E-14  0.12509000000E+03  0.12509000000E+03 0.  0.
        -13    1    3    3    0    0  0.18862555188E+01  0.31925916190E+02  0.33258595224E+01  0.32154231293E+02  0.10566000000E+00 0.  1.
         23    2    1    0    0    0  0.60201966418E+01 -0.28184494890E+02 -0.11261890189E+02  0.94147493792E+02  0.88917444277E+02 0.  0.
         13    1    3    3    0    0  0.41339411230E+01 -0.60110411081E+02 -0.14587749711E+02  0.61993262498E+02  0.10566000000E+00 0. -1.
         22    1    1    0    0    0 -0.60201966418E+01  0.28184494890E+02  0.11261890189E+02  0.30942506208E+02  0.00000000000E+00 0. -1.
</event>
<event>
 5    1  0.2377303E-009  0.9118800E+02  0.7815553E-02  0.1125453E+00
         25   -1    0    0    0    0  0.00000000000E+00  0.00000000000E+00  0.99999998245E-14  0.12509000000E+03  0.12509000000E+03 0.  0.
        -13    1    3    3    0    0  0.36178346549E+02 -0.19871920070E+02 -0.54607701965E+01  0.41636488102E+02  0.10566000000E+00 0.  1.
         23    2    1    0    0    0 -0.92056874898E+01 -0.35842065134E+00 -0.27762709682E+02  0.95838654793E+02  0.91265582539E+02 0.  0.
         13    1    3    3    0    0 -0.45384034038E+02  0.19513499419E+02 -0.22301939486E+02  0.54202166691E+02  0.10566000000E+00 0. -1.
         22    1    1    0    0    0  0.92056874898E+01  0.35842065134E+00  0.27762709682E+02  0.29251345207E+02  0.00000000000E+00 0. -1.
</event>
<event>
 5    1  0.2377303E-009  0.9118800E+02  0.7815553E-02  0.1125453E+00
         25   -1    0    0    0    0  0.00000000000E+00  0.00000000000E+00  0.99999998245E-14  0.12509000000E+03  0.12509000000E+03 0.  0.
        -13    1    3    3    0    0  0.15287897205E+02 -0.52206476515E+02  0.22801453266E+02  0.58984348993E+02  0.10566000000E+00 0. -1.
         23    2    1    0    0    0  0.20931473117E+02 -0.18810854440E+02  0.92058658560E+01  0.95480495145E+02  0.90773356087E+02 0.  0.
         13    1    3    3    0    0  0.56435759117E+01  0.33395622075E+02 -0.13595587410E+02  0.36496146151E+02  0.10566000000E+00 0.  1.
         22    1    1    0    0    0 -0.20931473117E+02  0.18810854440E+02 -0.92058658560E+01  0.29609504855E+02  0.00000000000E+00 0. -1.
</event>
<event>
 5    1  0.2377303E-009  0.9118800E+02  0.7815553E-02  0.1125453E+00
         25   -1    0    0    0    0  0.00000000000E+00  0.00000000000E+00  0.99999998245E-14  0.12509000000E+03  0.12509000000E+03 0.  0.
        -13    1    3    3    0    0 -0.23083491500E+01 -0.24395106233E+02  0.23590368074E+02  0.34014207529E+02  0.10566000000E+00 0. -1.
         23    2    1    0    0    0  0.42573090017E+01  0.28310218513E+02 -0.74178344557E+01  0.95516068571E+02  0.90822364729E+02 0.  0.
         13    1    3    3    0    0  0.65656581517E+01  0.52705324746E+02 -0.31008202529E+02  0.61501861042E+02  0.10566000000E+00 0.  1.
         22    1    1    0    0    0 -0.42573090017E+01 -0.28310218513E+02  0.74178344557E+01  0.29573931429E+02  0.00000000000E+00 0.  1.
</event>
<event>
 5    1  0.2377303E-009  0.9118800E+02  0.7815553E-02  0.1125453E+00
         25   -1    0    0    0    0  0.00000000000E+00  0.00000000000E+00  0.99999998245E-14  0.12509000000E+03  0.12509000000E+03 0.  0.
        -13    1    3    3    0    0  0.43444468279E+01  0.33005792807E+02  0.33314907146E+02  0.47097248107E+02  0.10566000000E+00 0.  1.
         23    2    1    0    0    0 -0.23275445035E+02  0.18496071222E+02 -0.32723564321E+01  0.95180815644E+02  0.90359439783E+02 0.  0.
         13    1    3    3    0    0 -0.27619891863E+02 -0.14509721585E+02 -0.36587263578E+02  0.48083567537E+02  0.10566000000E+00 0. -1.
         22    1    1    0    0    0  0.23275445035E+02 -0.18496071222E+02  0.32723564321E+01  0.29909184356E+02  0.00000000000E+00 0.  1.
</event>
<event>
 5    1  0.2377303E-009  0.9118800E+02  0.7815553E-02  0.1125453E+00
         25   -1    0    0    0    0  0.00000000000E+00  0.00000000000E+00  0.99999998245E-14  0.12509000000E+03  0.12509000000E+03 0.  0.
        -13    1    3    3    0    0  0.94760807959E+01 -0.11398519829E+02 -0.58547254578E+02  0.60394656586E+02  0.10566000000E+00 0. -1.
         23    2    1    0    0    0 -0.38365067553E+01  0.23866443362E+01 -0.29833204289E+02  0.94916585652E+02  0.89992906934E+02 0.  0.
         13    1    3    3    0    0 -0.13312587551E+02  0.13785164165E+02  0.28714050289E+02  0.34521929066E+02  0.10566000000E+00 0.  1.
         22    1    1    0    0    0  0.38365067553E+01 -0.23866443362E+01  0.29833204289E+02  0.30173414348E+02  0.00000000000E+00 0. -1.
</event>
<event>
 5    1  0.2377303E-009  0.9118800E+02  0.7815553E-02  0.1125453E+00
         25   -1    0    0    0    0  0.00000000000E+00  0.00000000000E+00  0.99999998245E-14  0.12509000000E+03  0.12509000000E+03 0.  0.
        -13    1    3    3    0    0  0.72675697439E+00 -0.29779839766E+02  0.22820559916E+02  0.37525406742E+02  0.10566000000E+00 0.  1.
         23    2    1    0    0    0  0.26094337025E+02  0.54205926814E+01 -0.14493616438E+02  0.94752528661E+02  0.89764578317E+02 0.  0.
         13    1    3    3    0    0  0.25367580051E+02  0.35200432448E+02 -0.37314176354E+02  0.57227121919E+02  0.10566000000E+00 0. -1.
         22    1    1    0    0    0 -0.26094337025E+02 -0.54205926814E+01  0.14493616438E+02  0.30337471339E+02  0.00000000000E+00 0. -1.
</event>
<event>
 5    1  0.2377303E-009  0.9118800E+02  0.7815553E-02  0.1125453E+00
         25   -1    0    0    0    0  0.00000000000E+00  0.00000000000E+00  0.99999998245E-14  0.12509000000E+03  0.12509000000E+03 0.  0.
        -13    1    3    3    0    0  0.28736194163E+02 -0.46781335683E+02 -0.58522367464E+01  0.55213422845E+02  0.10566000000E+00 0. -1.
         23    2    1    0    0    0  0.65241363377E+01 -0.17806297860E+02 -0.22774318345E+02  0.95453904196E+02  0.90736705096E+02 0.  0.
         13    1    3    3    0    0 -0.22212057825E+02  0.28975037823E+02 -0.16922081599E+02  0.40240481351E+02  0.10566000000E+00 0.  1.
         22    1    1    0    0    0 -0.65241363377E+01  0.17806297860E+02  0.22774318345E+02  0.29636095804E+02  0.00000000000E+00 0. -1.
</event>
<event>
 5    1  0.2377303E-009  0.9118800E+02  0.7815553E-02  0.1125453E+00
         25   -1    0    0    0    0  0.00000000000E+00  0.00000000000E+00  0.99999998245E-14  0.12509000000E+03  0.12509000000E+03 0.  0.
        -13    1    3    3    0    0  0.13708520484E+02  0.14558060996E+01  0.37241803055E+02  0.39711534396E+02  0.10566000000E+00 0.  1.
         23    2    1    0    0    0 -0.15678609470E+02 -0.24232644562E+02 -0.33605395119E+01  0.96032589875E+02  0.91531006958E+02 0.  0.
         13    1    3    3    0    0 -0.29387129953E+02 -0.25688450662E+02 -0.40602342567E+02  0.56321055479E+02  0.10566000000E+00 0. -1.
         22    1    1    0    0    0  0.15678609470E+02  0.24232644562E+02  0.33605395119E+01  0.29057410125E+02  0.00000000000E+00 0. -1.
</event>
<event>
 5    1  0.2377303E-009  0.9118800E+02  0.7815553E-02  0.1125453E+00
         25   -1    0    0    0    0  0.00000000000E+00  0.00000000000E+00  0.99999998245E-14  0.12509000000E+03  0.12509000000E+03 0.  0.
        -13    1    3    3    0    0 -0.31664113583E+02  0.18373126717E+02  0.16044164229E+02  0.39970166927E+02  0.10566000000E+00 0.  1.
         23    2    1    0    0    0 -0.25184661151E+02 -0.18630688601E+02 -0.16509124055E+02  0.89679254567E+02  0.82392037283E+02 0.  0.
         13    1    3    3    0    0  0.64794524319E+01 -0.37003815318E+02 -0.32553288283E+02  0.49709087640E+02  0.10566000000E+00 0. -1.
         22    1    1    0    0    0  0.25184661151E+02  0.18630688601E+02  0.16509124055E+02  0.35410745433E+02  0.00000000000E+00 0.  1.
</event>
<event>
 5    1  0.2377303E-009  0.9118800E+02  0.7815553E-02  0.1125453E+00
         25   -1    0    0    0    0  0.00000000000E+00  0.00000000000E+00  0.99999998245E-14  0.12509000000E+03  0.12509000000E+03 0.  0.
        -13    1    3    3    0    0  0.94069299041E+01 -0.35680641128E+02 -0.49548772275E+02  0.61779369368E+02  0.10566000000E+00 0.  1.
         23    2    1    0    0    0  0.10562411272E+02 -0.18424280882E+02 -0.20587475154E+02  0.95511920429E+02  0.90816651297E+02 0.  0.
         13    1    3    3    0    0  0.11554813680E+01  0.17256360245E+02  0.28961297121E+02  0.33732551061E+02  0.10566000000E+00 0. -1.
         22    1    1    0    0    0 -0.10562411272E+02  0.18424280882E+02  0.20587475154E+02  0.29578079571E+02  0.00000000000E+00 0.  1.
</event>
<event>
 5    1  0.2377303E-009  0.9118800E+02  0.7815553E-02  0.1125453E+00
         25   -1    0    0    0    0  0.00000000000E+00  0.00000000000E+00  0.99999998245E-14  0.12509000000E+03  0.12509000000E+03 0.  0.
        -13    1    3    3    0    0 -0.27470357007E+02 -0.99352441401E+00 -0.27133342002E+02  0.38624306040E+02  0.10566000000E+00 0.  1.
         23    2    1    0    0    0  0.18788395054E+02 -0.16691663642E+02  0.79087101881E+01  0.98743024449E+02  0.95163132340E+02 0.  0.
         13    1    3    3    0    0  0.46258752061E+02 -0.15698139228E+02  0.35042052190E+02  0.60118718409E+02  0.10566000000E+00 0. -1.
         22    1    1    0    0    0 -0.18788395054E+02  0.16691663642E+02 -0.79087101881E+01  0.26346975551E+02  0.00000000000E+00 0. -1.
</event>
<event>
 5    1  0.2377303E-009  0.9118800E+02  0.7815553E-02  0.1125453E+00
         25   -1    0    0    0    0  0.00000000000E+00  0.00000000000E+00  0.99999998245E-14  0.12509000000E+03  0.12509000000E+03 0.  0.
        -13    1    3    3    0    0 -0.27935936277E+02  0.48556094446E+02 -0.24309517037E+02  0.61066149594E+02  0.10566000000E+00 0.  1.
         23    2    1    0    0    0 -0.13446905221E+02  0.15078887626E+02 -0.17887947930E+02  0.98105360050E+02  0.94321211174E+02 0.  0.
         13    1    3    3    0    0  0.14489031056E+02 -0.33477206820E+02  0.64215691069E+01  0.37039210457E+02  0.10566000000E+00 0. -1.
         22    1    1    0    0    0  0.13446905221E+02 -0.15078887626E+02  0.17887947930E+02  0.26984639950E+02  0.00000000000E+00 0.  1.
</event>
<event>
 5    1  0.2377303E-009  0.9118800E+02  0.7815553E-02  0.1125453E+00
         25   -1    0    0    0    0  0.00000000000E+00  0.00000000000E+00  0.99999998245E-14  0.12509000000E+03  0.12509000000E+03 0.  0.
        -13    1    3    3    0    0 -0.30507519944E+02 -0.41415206283E+02 -0.23276257519E+00  0.51439220708E+02  0.10566000000E+00 0.  1.
         23    2    1    0    0    0  0.99167413515E+01 -0.24096327392E+02 -0.11142666302E+02  0.96750385233E+02  0.92506774225E+02 0.  0.
         13    1    3    3    0    0  0.40424261295E+02  0.17318878891E+02 -0.10909903727E+02  0.45311164525E+02  0.10566000000E+00 0. -1.
         22    1    1    0    0    0 -0.99167413515E+01  0.24096327392E+02  0.11142666302E+02  0.28339614767E+02  0.00000000000E+00 0. -1.
</event>
<event>
 5    1  0.2377303E-009  0.9118800E+02  0.7815553E-02  0.1125453E+00
         25   -1    0    0    0    0  0.00000000000E+00  0.00000000000E+00  0.99999998245E-14  0.12509000000E+03  0.12509000000E+03 0.  0.
        -13    1    3    3    0    0 -0.58411785708E+01  0.33668381836E+02 -0.49390766528E+02  0.60059456248E+02  0.10566000000E+00 0.  1.
         23    2    1    0    0    0 -0.12686190793E+02  0.20558223243E+02 -0.17353924751E+02  0.95345442784E+02  0.90587056336E+02 0.  0.
         13    1    3    3    0    0 -0.68450122218E+01 -0.13110158593E+02  0.32036841778E+02  0.35285986536E+02  0.10566000000E+00 0. -1.
         22    1    1    0    0    0  0.12686190793E+02 -0.20558223243E+02  0.17353924751E+02  0.29744557216E+02  0.00000000000E+00 0.  1.
</event>
<event>
 5    1  0.2377303E-009  0.9118800E+02  0.7815553E-02  0.1125453E+00
         25   -1    0    0    0    0  0.00000000000E+00  0.00000000000E+00  0.99999998245E-14  0.12509000000E+03  0.12509000000E+03 0.  0.
        -13    1    3    3    0    0 -0.35580255648E+02 -0.12303185099E+02  0.31582527855E+02  0.49140514703E+02  0.10566000000E+00 0. -1.
         23    2    1    0    0    0  0.48956828159E+01  0.24456646695E+01  0.32403310760E+02  0.92227809961E+02  0.86174505488E+02 0.  0.
         13    1    3    3    0    0  0.40475938464E+02  0.14748849769E+02  0.82078290545E+00  0.43087295258E+02  0.10566000000E+00 0.  1.
         22    1    1    0    0    0 -0.48956828159E+01 -0.24456646695E+01 -0.32403310760E+02  0.32862190039E+02  0.00000000000E+00 0. -1.
</event>
<event>
 5    1  0.2377303E-009  0.9118800E+02  0.7815553E-02  0.1125453E+00
         25   -1    0    0    0    0  0.00000000000E+00  0.00000000000E+00  0.99999998245E-14  0.12509000000E+03  0.12509000000E+03 0.  0.
        -13    1    3    3    0    0 -0.28510835520E+02  0.24418133577E+02 -0.28591740737E+02  0.47186987526E+02  0.10566000000E+00 0. -1.
         23    2    1    0    0    0 -0.36913706275E+02 -0.82296773720E+01 -0.21321159642E+02  0.81674091060E+02  0.69178869617E+02 0.  0.
         13    1    3    3    0    0 -0.84028707547E+01 -0.32647810949E+02  0.72705810951E+01  0.34487103534E+02  0.10566000000E+00 0.  1.
         22    1    1    0    0    0  0.36913706275E+02  0.82296773720E+01  0.21321159642E+02  0.43415908940E+02  0.00000000000E+00 0. -1.
</event>
<event>
 5    1  0.2377303E-009  0.9118800E+02  0.7815553E-02  0.1125453E+00
         25   -1    0    0    0    0  0.00000000000E+00  0.00000000000E+00  0.99999998245E-14  0.12509000000E+03  0.12509000000E+03 0.  0.
        -13    1    3    3    0    0  0.13613812756E+02  0.63469842255E+00 -0.27475232369E+02  0.30669827153E+02  0.10566000000E+00 0. -1.
         23    2    1    0    0    0 -0.86038363522E+01 -0.14222254473E+02  0.28158839945E+02  0.92391088866E+02  0.86411194371E+02 0.  0.
         13    1    3    3    0    0 -0.22217649108E+02 -0.14856952895E+02  0.55634072314E+02  0.61721261713E+02  0.10566000000E+00 0.  1.
         22    1    1    0    0    0  0.86038363522E+01  0.14222254473E+02 -0.28158839945E+02  0.32698911134E+02  0.00000000000E+00 0.  1.
</event>
<event>
 5    1  0.2377303E-009  0.9118800E+02  0.7815553E-02  0.1125453E+00
         25   -1    0    0    0    0  0.00000000000E+00  0.00000000000E+00  0.99999998245E-14  0.12509000000E+03  0.12509000000E+03 0.  0.
        -13    1    3    3    0    0  0.93960531177E+01 -0.23028619728E+02  0.29857051688E+02  0.38859462687E+02  0.10566000000E+00 0. -1.
         23    2    1    0    0    0 -0.13877927712E+02  0.23302975194E+02  0.15711805249E+01  0.97922111994E+02  0.94077871355E+02 0.  0.
         13    1    3    3    0    0 -0.23273980830E+02  0.46331594922E+02 -0.28285871163E+02  0.59062649307E+02  0.10566000000E+00 0.  1.
         22    1    1    0    0    0  0.13877927712E+02 -0.23302975194E+02 -0.15711805249E+01  0.27167888006E+02  0.00000000000E+00 0.  1.
</event>
<event>
 5    1  0.2377303E-009  0.9118800E+02  0.7815553E-02  0.1125453E+00
         25   -1    0    0    0    0  0.00000000000E+00  0.00000000000E+00  0.99999998245E-14  0.12509000000E+03  0.12509000000E+03 0.  0.
        -13    1    3    3    0    0 -0.18294726988E+02 -0.12889718788E+02  0.29755664524E+02  0.37232413585E+02  0.10566000000E+00 0. -1.
         23    2    1    0    0    0 -0.53255044676E+01 -0.84600890757E+01 -0.27355564537E+02  0.95965079122E+02  0.91438697469E+02 0.  0.
         13    1    3    3    0    0  0.12969222520E+02  0.44296297125E+01 -0.57111229062E+02  0.58732665537E+02  0.10566000000E+00 0.  1.
         22    1    1    0    0    0  0.53255044676E+01  0.84600890757E+01  0.27355564537E+02  0.29124920878E+02  0.00000000000E+00 0. -1.
</event>
<event>
 5    1  0.2377303E-009  0.9118800E+02  0.7815553E-02  0.1125453E+00
         25   -1    0    0    0    0  0.00000000000E+00  0.00000000000E+00  0.99999998245E-14  0.12509000000E+03  0.12509000000E+03 0.  0.
        -13    1    3    3    0    0 -0.23883994555E+02 -0.13018055282E+02 -0.17756536240E+02  0.32484160795E+02  0.10566000000E+00 0. -1.
         23    2    1    0    0    0  0.14753015087E+02 -0.55137429067E+01  0.28076433840E+02  0.92897781186E+02  0.87141601988E+02 0.  0.
         13    1    3    3    0    0  0.38637009642E+02  0.75043123754E+01  0.45832970081E+02  0.60413620391E+02  0.10566000000E+00 0.  1.
         22    1    1    0    0    0 -0.14753015087E+02  0.55137429067E+01 -0.28076433840E+02  0.32192218814E+02  0.00000000000E+00 0.  1.
</event>
<event>
 5    1  0.2377303E-009  0.9118800E+02  0.7815553E-02  0.1125453E+00
         25   -1    0    0    0    0  0.00000000000E+00  0.00000000000E+00  0.99999998245E-14  0.12509000000E+03  0.12509000000E+03 0.  0.
        -13    1    3    3    0    0  0.32139884351E+02  0.65277071418E+01  0.16236640867E+02  0.36595393116E+02  0.10566000000E+00 0. -1.
         23    2    1    0    0    0 -0.10780802562E+02 -0.28449632549E+02 -0.11955623052E+01  0.94642723187E+02  0.89611430002E+02 0.  0.
         13    1    3    3    0    0 -0.42920686913E+02 -0.34977339691E+02 -0.17432203172E+02  0.58047330072E+02  0.10566000000E+00 0.  1.
         22    1    1    0    0    0  0.10780802562E+02  0.28449632549E+02  0.11955623052E+01  0.30447276813E+02  0.00000000000E+00 0.  1.
</event>
<event>
 5    1  0.2377303E-009  0.9118800E+02  0.7815553E-02  0.1125453E+00
         25   -1    0    0    0    0  0.00000000000E+00  0.00000000000E+00  0.99999998245E-14  0.12509000000E+03  0.12509000000E+03 0.  0.
        -13    1    3    3    0    0 -0.27974023804E+02 -0.53069473380E+02 -0.74197269469E+01  0.60448147404E+02  0.10566000000E+00 0.  1.
         23    2    1    0    0    0 -0.16042394822E+02 -0.22278505257E+02  0.74201790533E+01  0.96651482365E+02  0.92372938450E+02 0.  0.
         13    1    3    3    0    0  0.11931628982E+02  0.30790968123E+02  0.14839906000E+02  0.36203334960E+02  0.10566000000E+00 0. -1.
         22    1    1    0    0    0  0.16042394822E+02  0.22278505257E+02 -0.74201790533E+01  0.28438517635E+02  0.00000000000E+00 0.  1.
</event>
<event>
 5    1  0.2377303E-009  0.9118800E+02  0.7815553E-02  0.1125453E+00
         25   -1    0    0    0    0  0.00000000000E+00  0.00000000000E+00  0.99999998245E-14  0.12509000000E+03  0.12509000000E+03 0.  0.
        -13    1    3    3    0    0  0.11024026304E+02  0.10813490044E+02 -0.35251793440E+02  0.38485852306E+02  0.10566000000E+00 0.  1.
         23    2    1    0    0    0  0.72436665018E+01  0.22980517055E+02  0.19119941152E+02  0.94330497108E+02  0.89174523641E+02 0.  0.
         13    1    3    3    0    0 -0.37803598023E+01  0.12167027010E+02  0.54371734593E+02  0.55844644803E+02  0.10566000000E+00 0. -1.
         22    1    1    0    0    0 -0.72436665018E+01 -0.22980517055E+02 -0.19119941152E+02  0.30759502892E+02  0.00000000000E+00 0. -1.
</event>
<event>
 5    1  0.2377303E-009  0.9118800E+02  0.7815553E-02  0.1125453E+00
         25   -1    0    0    0    0  0.00000000000E+00  0.00000000000E+00  0.99999998245E-14  0.12509000000E+03  0.12509000000E+03 0.  0.
        -13    1    3    3    0    0 -0.49134957613E+02  0.79968465240E+01 -0.25216408700E+02  0.55803871243E+02  0.10566000000E+00 0. -1.
         23    2    1    0    0    0 -0.11557918111E+02  0.16427817722E+02 -0.23249506615E+02  0.94365445911E+02  0.89223534776E+02 0.  0.
         13    1    3    3    0    0  0.37577039501E+02  0.84309711976E+01  0.19669020856E+01  0.38561574668E+02  0.10566000000E+00 0.  1.
         22    1    1    0    0    0  0.11557918111E+02 -0.16427817722E+02  0.23249506615E+02  0.30724554089E+02  0.00000000000E+00 0. -1.
</event>
<event>
 5    1  0.2377303E-009  0.9118800E+02  0.7815553E-02  0.1125453E+00
         25   -1    0    0    0    0  0.00000000000E+00  0.00000000000E+00  0.99999998245E-14  0.12509000000E+03  0.12509000000E+03 0.  0.
        -13    1    3    3    0    0 -0.33884107037E+02  0.45549008628E+02 -0.82982398561E+01  0.57373485561E+02  0.10566000000E+00 0. -1.
         23    2    1    0    0    0 -0.20549065605E+01  0.28292046449E+02  0.56363081983E+01  0.96168891734E+02  0.91717093467E+02 0.  0.
         13    1    3    3    0    0  0.31829200476E+02 -0.17256962179E+02  0.13934548054E+02  0.38795406173E+02  0.10566000000E+00 0.  1.
         22    1    1    0    0    0  0.20549065605E+01 -0.28292046449E+02 -0.56363081983E+01  0.28921108266E+02  0.00000000000E+00 0. -1.
</event>
<event>
 5    1  0.2377303E-009  0.9118800E+02  0.7815553E-02  0.1125453E+00
         25   -1    0    0    0    0  0.00000000000E+00  0.00000000000E+00  0.99999998245E-14  0.12509000000E+03  0.12509000000E+03 0.  0.
        -13    1    3    3    0    0  0.15354796320E+02 -0.32491077385E+02  0.10004393254E+02  0.37303336688E+02  0.10566000000E+00 0. -1.
         23    2    1    0    0    0 -0.21596538173E+02  0.89207051417E+01  0.20756184572E+02  0.93836062020E+02  0.88478234024E+02 0.  0.
         13    1    3    3    0    0 -0.36951334493E+02  0.41411782527E+02  0.10751791318E+02  0.56532725331E+02  0.10566000000E+00 0.  1.
         22    1    1    0    0    0  0.21596538173E+02 -0.89207051417E+01 -0.20756184572E+02  0.31253937980E+02  0.00000000000E+00 0.  1.
</event>
<event>
 5    1  0.2377303E-009  0.9118800E+02  0.7815553E-02  0.1125453E+00
         25   -1    0    0    0    0  0.00000000000E+00  0.00000000000E+00  0.99999998245E-14  0.12509000000E+03  0.12509000000E+03 0.  0.
        -13    1    3    3    0    0  0.52478421094E+02  0.25350311249E+02  0.67329592683E+00  0.58284538707E+02  0.10566000000E+00 0.  1.
         23    2    1    0    0    0  0.22270964057E+02  0.14675014524E+02 -0.15571383868E+02  0.94206025404E+02  0.88999749075E+02 0.  0.
         13    1    3    3    0    0 -0.30207457037E+02 -0.10675296725E+02 -0.16244679795E+02  0.35921486696E+02  0.10566000000E+00 0. -1.
         22    1    1    0    0    0 -0.22270964057E+02 -0.14675014524E+02  0.15571383868E+02  0.30883974596E+02  0.00000000000E+00 0.  1.
</event>
<event>
 5    1  0.2377303E-009  0.9118800E+02  0.7815553E-02  0.1125453E+00
         25   -1    0    0    0    0  0.00000000000E+00  0.00000000000E+00  0.99999998245E-14  0.12509000000E+03  0.12509000000E+03 0.  0.
        -13    1    3    3    0    0  0.22233888585E+02 -0.21251483201E+02  0.39049726588E+02  0.49707782595E+02  0.10566000000E+00 0. -1.
         23    2    1    0    0    0  0.26716086347E+02 -0.92268708884E+01 -0.56957971022E+01  0.96257266506E+02  0.91837545887E+02 0.  0.
         13    1    3    3    0    0  0.44821977622E+01  0.12024612313E+02 -0.44745523690E+02  0.46549483911E+02  0.10566000000E+00 0.  1.
         22    1    1    0    0    0 -0.26716086347E+02  0.92268708884E+01  0.56957971022E+01  0.28832733494E+02  0.00000000000E+00 0.  1.
</event>
<event>
 5    1  0.2377303E-009  0.9118800E+02  0.7815553E-02  0.1125453E+00
         25   -1    0    0    0    0  0.00000000000E+00  0.00000000000E+00  0.99999998245E-14  0.12509000000E+03  0.12509000000E+03 0.  0.
        -13    1    3    3    0    0  0.22948769730E+02  0.12219844460E+02 -0.53921883189E+02  0.59862770412E+02  0.10566000000E+00 0. -1.
         23    2    1    0    0    0  0.84404589503E+01  0.16516993234E+02 -0.16362255958E+02  0.10035589737E+03  0.97260116721E+02 0.  0.
         13    1    3    3    0    0 -0.14508310780E+02  0.42971487736E+01  0.37559627231E+02  0.40493126960E+02  0.10566000000E+00 0.  1.
         22    1    1    0    0    0 -0.84404589503E+01 -0.16516993234E+02  0.16362255958E+02  0.24734102628E+02  0.00000000000E+00 0. -1.
</event>
<event>
 5    1  0.2377303E-009  0.9118800E+02  0.7815553E-02  0.1125453E+00
         25   -1    0    0    0    0  0.00000000000E+00  0.00000000000E+00  0.99999998245E-14  0.12509000000E+03  0.12509000000E+03 0.  0.
        -13    1    3    3    0    0 -0.36181787710E+02 -0.38379378585E+02  0.10835777259E+02  0.53847225512E+02  0.10566000000E+00 0.  1.
         23    2    1    0    0    0 -0.25009059460E+02 -0.54118292964E+01 -0.13344903016E+02  0.96231251103E+02  0.91802104011E+02 0.  0.
         13    1    3    3    0    0  0.11172728251E+02  0.32967549289E+02 -0.24180680275E+02  0.42384025591E+02  0.10566000000E+00 0. -1.
         22    1    1    0    0    0  0.25009059460E+02  0.54118292964E+01  0.13344903016E+02  0.28858748897E+02  0.00000000000E+00 0. -1.
</event>
<event>
 5    1  0.2377303E-009  0.9118800E+02  0.7815553E-02  0.1125453E+00
         25   -1    0    0    0    0  0.00000000000E+00  0.00000000000E+00  0.99999998245E-14  0.12509000000E+03  0.12509000000E+03 0.  0.
        -13    1    3    3    0    0 -0.55323020096E+02  0.36618040096E+01  0.16585913336E+02  0.57871832927E+02  0.10566000000E+00 0.  1.
         23    2    1    0    0    0 -0.19621741419E+02  0.49415038558E+01  0.23309203077E+02  0.94223348987E+02  0.89024094208E+02 0.  0.
         13    1    3    3    0    0  0.35701278677E+02  0.12796998462E+01  0.67232897412E+01  0.36351516060E+02  0.10566000000E+00 0. -1.
         22    1    1    0    0    0  0.19621741419E+02 -0.49415038558E+01 -0.23309203077E+02  0.30866651013E+02  0.00000000000E+00 0.  1.
</event>
<event>
 5    1  0.2377303E-009  0.9118800E+02  0.7815553E-02  0.1125453E+00
         25   -1    0    0    0    0  0.00000000000E+00  0.00000000000E+00  0.99999998245E-14  0.12509000000E+03  0.12509000000E+03 0.  0.
        -13    1    3    3    0    0  0.49109013737E+02 -0.19387113117E+02 -0.59829657947E+01  0.53135321858E+02  0.10566000000E+00 0.  1.
         23    2    1    0    0    0  0.21848216816E+02 -0.27691929918E+00  0.20079084336E+02  0.95415248273E+02  0.90683398221E+02 0.  0.
         13    1    3    3    0    0 -0.27260796921E+02  0.19110193818E+02  0.26062050131E+02  0.42279926414E+02  0.10566000000E+00 0. -1.
         22    1    1    0    0    0 -0.21848216816E+02  0.27691929918E+00 -0.20079084336E+02  0.29674751727E+02  0.00000000000E+00 0.  1.
</event>
<event>
 5    1  0.2377303E-009  0.9118800E+02  0.7815553E-02  0.1125453E+00
         25   -1    0    0    0    0  0.00000000000E+00  0.00000000000E+00  0.99999998245E-14  0.12509000000E+03  0.12509000000E+03 0.  0.
        -13    1    3    3    0    0 -0.36674513558E+02 -0.86176034982E+00  0.44864253953E+01  0.36958108075E+02  0.10566000000E+00 0.  1.
         23    2    1    0    0    0  0.15889623265E+02 -0.22941890562E+02 -0.94070939933E+01  0.95639976443E+02  0.90992863493E+02 0.  0.
         13    1    3    3    0    0  0.52564136823E+02 -0.22080130212E+02 -0.13893519389E+02  0.58681868369E+02  0.10566000000E+00 0. -1.
         22    1    1    0    0    0 -0.15889623265E+02  0.22941890562E+02  0.94070939933E+01  0.29450023557E+02  0.00000000000E+00 0. -1.
</event>
<event>
 5    1  0.2377303E-009  0.9118800E+02  0.7815553E-02  0.1125453E+00
         25   -1    0    0    0    0  0.00000000000E+00  0.00000000000E+00  0.99999998245E-14  0.12509000000E+03  0.12509000000E+03 0.  0.
        -13    1    3    3    0    0  0.44724842988E+02 -0.31416029756E+02 -0.17972317670E+02  0.57535153362E+02  0.10566000000E+00 0. -1.
         23    2    1    0    0    0  0.12232538290E+02 -0.67495233694E+01 -0.22526083028E+02  0.98583105137E+02  0.94952688972E+02 0.  0.
         13    1    3    3    0    0 -0.32492304698E+02  0.24666506387E+02 -0.45537653582E+01  0.41047951775E+02  0.10566000000E+00 0.  1.
         22    1    1    0    0    0 -0.12232538290E+02  0.67495233694E+01  0.22526083028E+02  0.26506894863E+02  0.00000000000E+00 0. -1.
</event>
<event>
 5    1  0.2377303E-009  0.9118800E+02  0.7815553E-02  0.1125453E+00
         25   -1    0    0    0    0  0.00000000000E+00  0.00000000000E+00  0.99999998245E-14  0.12509000000E+03  0.12509000000E+03 0.  0.
        -13    1    3    3    0    0 -0.23246305459E+02  0.35166627499E+02 -0.12179192582E+01  0.42173177477E+02  0.10566000000E+00 0. -1.
         23    2    1    0    0    0  0.23586261374E+02  0.16097851287E+02 -0.12395153136E+02  0.93959751641E+02  0.88652933203E+02 0.  0.
         13    1    3    3    0    0  0.46832566833E+02 -0.19068776212E+02 -0.11177233878E+02  0.51786574164E+02  0.10566000000E+00 0.  1.
         22    1    1    0    0    0 -0.23586261374E+02 -0.16097851287E+02  0.12395153136E+02  0.31130248359E+02  0.00000000000E+00 0. -1.
</event>
<event>
 5    1  0.2377303E-009  0.9118800E+02  0.7815553E-02  0.1125453E+00
         25   -1    0    0    0    0  0.00000000000E+00  0.00000000000E+00  0.99999998245E-14  0.12509000000E+03  0.12509000000E+03 0.  0.
        -13    1    3    3    0    0  0.35525674661E+02 -0.10413665809E+02 -0.52461401701E+01  0.37390522147E+02  0.10566000000E+00 0. -1.
         23    2    1    0    0    0  0.26129109029E+02  0.41062585258E+01  0.35014103772E+02  0.81208578411E+02  0.68331940165E+02 0.  0.
         13    1    3    3    0    0 -0.93965656319E+01  0.14519924335E+02  0.40260243942E+02  0.43818056263E+02  0.10566000000E+00 0.  1.
         22    1    1    0    0    0 -0.26129109029E+02 -0.41062585258E+01 -0.35014103772E+02  0.43881421589E+02  0.00000000000E+00 0.  1.
</event>
<event>
 5    1  0.2377303E-009  0.9118800E+02  0.7815553E-02  0.1125453E+00
         25   -1    0    0    0    0  0.00000000000E+00  0.00000000000E+00  0.99999998245E-14  0.12509000000E+03  0.12509000000E+03 0.  0.
        -13    1    3    3    0    0 -0.70924072989E+00 -0.20446157002E+02 -0.42057148072E+02  0.46769255142E+02  0.10566000000E+00 0. -1.
         23    2    1    0    0    0 -0.26567578584E+02 -0.25653874813E+01 -0.11335015272E+01  0.98374793273E+02  0.94677862677E+02 0.  0.
         13    1    3    3    0    0 -0.25858337854E+02  0.17880769521E+02  0.40923646545E+02  0.51605538131E+02  0.10566000000E+00 0.  1.
         22    1    1    0    0    0  0.26567578584E+02  0.25653874813E+01  0.11335015272E+01  0.26715206727E+02  0.00000000000E+00 0. -1.
</event>
<event>
 5    1  0.2377303E-009  0.9118800E+02  0.7815553E-02  0.1125453E+00
         25   -1    0    0    0    0  0.00000000000E+00  0.00000000000E+00  0.99999998245E-14  0.12509000000E+03  0.12509000000E+03 0.  0.
        -13    1    3    3    0    0 -0.38681957532E+02  0.31246933203E+02  0.34114624872E+02  0.60303262493E+02  0.10566000000E+00 0. -1.
         23    2    1    0    0    0 -0.15550809551E+02  0.31637907727E+01  0.20534442263E+02  0.99138110496E+02  0.95681055512E+02 0.  0.
         13    1    3    3    0    0  0.23131147981E+02 -0.28083142431E+02 -0.13580182609E+02  0.38834848003E+02  0.10566000000E+00 0.  1.
         22    1    1    0    0    0  0.15550809551E+02 -0.31637907727E+01 -0.20534442263E+02  0.25951889504E+02  0.00000000000E+00 0. -1.
</event>
<event>
 5    1  0.2377303E-009  0.9118800E+02  0.7815553E-02  0.1125453E+00
         25   -1    0    0    0    0  0.00000000000E+00  0.00000000000E+00  0.99999998245E-14  0.12509000000E+03  0.12509000000E+03 0.  0.
        -13    1    3    3    0    0  0.34924464963E+02  0.38765282034E+01  0.12580148513E+02  0.37323143283E+02  0.10566000000E+00 0. -1.
         23    2    1    0    0    0 -0.19735966577E+02  0.18447021231E+02 -0.69963332403E+01  0.97183913785E+02  0.93091156673E+02 0.  0.
         13    1    3    3    0    0 -0.54660431540E+02  0.14570493027E+02 -0.19576481753E+02  0.59860770502E+02  0.10566000000E+00 0.  1.
         22    1    1    0    0    0  0.19735966577E+02 -0.18447021231E+02  0.69963332403E+01  0.27906086215E+02  0.00000000000E+00 0.  1.
</event>
<event>
 5    1  0.2377303E-009  0.9118800E+02  0.7815553E-02  0.1125453E+00
         25   -1    0    0    0    0  0.00000000000E+00  0.00000000000E+00  0.99999998245E-14  0.12509000000E+03  0.12509000000E+03 0.  0.
        -13    1    3    3    0    0  0.30289291215E+02 -0.11824539327E+02  0.33421480014E+00  0.32517437725E+02  0.10566000000E+00 0. -1.
         23    2    1    0    0    0 -0.23561017892E+02  0.18588020279E+02 -0.52869395377E+01  0.94617261500E+02  0.89575880582E+02 0.  0.
         13    1    3    3    0    0 -0.53850309108E+02  0.30412559606E+02 -0.56211543378E+01  0.62099823775E+02  0.10566000000E+00 0.  1.
         22    1    1    0    0    0  0.23561017892E+02 -0.18588020279E+02  0.52869395377E+01  0.30472738500E+02  0.00000000000E+00 0.  1.
</event>
<event>
 5    1  0.2377303E-009  0.9118800E+02  0.7815553E-02  0.1125453E+00
         25   -1    0    0    0    0  0.00000000000E+00  0.00000000000E+00  0.99999998245E-14  0.12509000000E+03  0.12509000000E+03 0.  0.
        -13    1    3    3    0    0  0.15802619596E+02  0.13922157570E+02  0.56485585812E+02  0.60284175586E+02  0.10566000000E+00 0.  1.
         23    2    1    0    0    0  0.18656289953E+02  0.60451119839E+01  0.22706437521E+02  0.95086952845E+02  0.90229406308E+02 0.  0.
         13    1    3    3    0    0  0.28536703571E+01 -0.78770455863E+01 -0.33779148290E+02  0.34802777259E+02  0.10566000000E+00 0. -1.
         22    1    1    0    0    0 -0.18656289953E+02 -0.60451119839E+01 -0.22706437521E+02  0.30003047155E+02  0.00000000000E+00 0.  1.
</event>
<event>
 5    1  0.2377303E-009  0.9118800E+02  0.7815553E-02  0.1125453E+00
         25   -1    0    0    0    0  0.00000000000E+00  0.00000000000E+00  0.99999998245E-14  0.12509000000E+03  0.12509000000E+03 0.  0.
        -13    1    3    3    0    0  0.14779604583E+02  0.17979460213E+01  0.60320463171E+02  0.62130819749E+02  0.10566000000E+00 0. -1.
         23    2    1    0    0    0  0.34635230979E+01 -0.32749720084E+01  0.26747362412E+02  0.97921215892E+02  0.94076679851E+02 0.  0.
         13    1    3    3    0    0 -0.11316081485E+02 -0.50729180297E+01 -0.33573100758E+02  0.35790396143E+02  0.10566000000E+00 0.  1.
         22    1    1    0    0    0 -0.34635230979E+01  0.32749720084E+01 -0.26747362412E+02  0.27168784108E+02  0.00000000000E+00 0. -1.
</event>
<event>
 5    1  0.2377303E-009  0.9118800E+02  0.7815553E-02  0.1125453E+00
         25   -1    0    0    0    0  0.00000000000E+00  0.00000000000E+00  0.99999998245E-14  0.12509000000E+03  0.12509000000E+03 0.  0.
        -13    1    3    3    0    0  0.12632332205E+02  0.15389479684E+02  0.29513774954E+02  0.35601769309E+02  0.10566000000E+00 0. -1.
         23    2    1    0    0    0 -0.33220961405E+02 -0.12352089928E+00  0.85081759704E+00  0.91857915734E+02  0.85635887677E+02 0.  0.
         13    1    3    3    0    0 -0.45853293610E+02 -0.15513000583E+02 -0.28662957357E+02  0.56256146424E+02  0.10566000000E+00 0.  1.
         22    1    1    0    0    0  0.33220961405E+02  0.12352089928E+00 -0.85081759704E+00  0.33232084266E+02  0.00000000000E+00 0.  1.
</event>
<event>
 5    1  0.2377303E-009  0.9118800E+02  0.7815553E-02  0.1125453E+00
         25   -1    0    0    0    0  0.00000000000E+00  0.00000000000E+00  0.99999998245E-14  0.12509000000E+03  0.12509000000E+03 0.  0.
        -13    1    3    3    0    0 -0.22975464073E+02 -0.23268083329E+02  0.28907495937E+02  0.43645505342E+02  0.10566000000E+00 0. -1.
         23    2    1    0    0    0  0.10035905895E+02  0.14915928222E+02  0.25034009487E+02  0.94269455669E+02  0.89088856313E+02 0.  0.
         13    1    3    3    0    0  0.33011369968E+02  0.38184011551E+02 -0.38734864500E+01  0.50623950326E+02  0.10566000000E+00 0.  1.
         22    1    1    0    0    0 -0.10035905895E+02 -0.14915928222E+02 -0.25034009487E+02  0.30820544331E+02  0.00000000000E+00 0.  1.
</event>
<event>
 5    1  0.2377303E-009  0.9118800E+02  0.7815553E-02  0.1125453E+00
         25   -1    0    0    0    0  0.00000000000E+00  0.00000000000E+00  0.99999998245E-14  0.12509000000E+03  0.12509000000E+03 0.  0.
        -13    1    3    3    0    0 -0.44323168389E+01  0.29031035826E+02  0.18398177630E+02  0.34654733844E+02  0.10566000000E+00 0.  1.
         23    2    1    0    0    0  0.17840546167E+02 -0.24575652347E+02  0.86158977238E+01  0.93522905275E+02  0.88034381588E+02 0.  0.
         13    1    3    3    0    0  0.22272863005E+02 -0.53606688173E+02 -0.97822799059E+01  0.58868171430E+02  0.10566000000E+00 0. -1.
         22    1    1    0    0    0 -0.17840546167E+02  0.24575652347E+02 -0.86158977238E+01  0.31567094725E+02  0.00000000000E+00 0. -1.
</event>
<event>
 5    1  0.2377303E-009  0.9118800E+02  0.7815553E-02  0.1125453E+00
         25   -1    0    0    0    0  0.00000000000E+00  0.00000000000E+00  0.99999998245E-14  0.12509000000E+03  0.12509000000E+03 0.  0.
        -13    1    3    3    0    0  0.51902787856E+02  0.55633214520E+01  0.18543075502E+02  0.55395909108E+02  0.10566000000E+00 0.  1.
         23    2    1    0    0    0  0.14173177235E+02 -0.16836218735E+02  0.12753112541E+02  0.99654216275E+02  0.96353431323E+02 0.  0.
         13    1    3    3    0    0 -0.37729610621E+02 -0.22399540187E+02 -0.57899629611E+01  0.44258307167E+02  0.10566000000E+00 0. -1.
         22    1    1    0    0    0 -0.14173177235E+02  0.16836218735E+02 -0.12753112541E+02  0.25435783725E+02  0.00000000000E+00 0.  1.
</event>
<event>
 5    1  0.2377303E-009  0.9118800E+02  0.7815553E-02  0.1125453E+00
         25   -1    0    0    0    0  0.00000000000E+00  0.00000000000E+00  0.99999998245E-14  0.12509000000E+03  0.12509000000E+03 0.  0.
        -13    1    3    3    0    0  0.38594350928E+02 -0.67261657719E+01 -0.10007356281E+02  0.40434188174E+02  0.10566000000E+00 0. -1.
         23    2    1    0    0    0  0.81425510934E+01  0.13516134725E+02  0.27858237244E+02  0.93073310313E+02  0.87393207253E+02 0.  0.
         13    1    3    3    0    0 -0.30451799834E+02  0.20242300497E+02  0.37865593525E+02  0.52639122139E+02  0.10566000000E+00 0.  1.
         22    1    1    0    0    0 -0.81425510934E+01 -0.13516134725E+02 -0.27858237244E+02  0.32016689687E+02  0.00000000000E+00 0.  1.
</event>
<event>
 5    1  0.2377303E-009  0.9118800E+02  0.7815553E-02  0.1125453E+00
         25   -1    0    0    0    0  0.00000000000E+00  0.00000000000E+00  0.99999998245E-14  0.12509000000E+03  0.12509000000E+03 0.  0.
        -13    1    3    3    0    0  0.13829824861E+02  0.47223453305E+02 -0.67827308789E+01  0.49672277982E+02  0.10566000000E+00 0. -1.
         23    2    1    0    0    0  0.31827504225E+02  0.11809211979E+02  0.41889234533E+01  0.90884816293E+02  0.84202465761E+02 0.  0.
         13    1    3    3    0    0  0.17997679364E+02 -0.35414241326E+02  0.10971654332E+02  0.41212538311E+02  0.10566000000E+00 0.  1.
         22    1    1    0    0    0 -0.31827504225E+02 -0.11809211979E+02 -0.41889234533E+01  0.34205183707E+02  0.00000000000E+00 0. -1.
</event>
<event>
 5    1  0.2377303E-009  0.9118800E+02  0.7815553E-02  0.1125453E+00
         25   -1    0    0    0    0  0.00000000000E+00  0.00000000000E+00  0.99999998245E-14  0.12509000000E+03  0.12509000000E+03 0.  0.
        -13    1    3    3    0    0  0.11973815319E+02  0.14781892874E+02  0.31000440467E+02  0.36371899640E+02  0.10566000000E+00 0.  1.
         23    2    1    0    0    0  0.13066193471E+02 -0.12336630271E+02 -0.22459267162E+02  0.96326541590E+02  0.91931855605E+02 0.  0.
         13    1    3    3    0    0  0.10923781523E+01 -0.27118523145E+02 -0.53459707629E+02  0.59954641950E+02  0.10566000000E+00 0. -1.
         22    1    1    0    0    0 -0.13066193471E+02  0.12336630271E+02  0.22459267162E+02  0.28763458410E+02  0.00000000000E+00 0. -1.
</event>
<event>
 5    1  0.2377303E-009  0.9118800E+02  0.7815553E-02  0.1125453E+00
         25   -1    0    0    0    0  0.00000000000E+00  0.00000000000E+00  0.99999998245E-14  0.12509000000E+03  0.12509000000E+03 0.  0.
        -13    1    3    3    0    0  0.41138196782E+02  0.31360648399E+02 -0.12350215223E+02  0.53182520461E+02  0.10566000000E+00 0. -1.
         23    2    1    0    0    0  0.50269460042E+01  0.11335148906E+02 -0.25679980943E+02  0.96573036486E+02  0.92266647105E+02 0.  0.
         13    1    3    3    0    0 -0.36111250778E+02 -0.20025499494E+02 -0.13329765720E+02  0.43390516025E+02  0.10566000000E+00 0.  1.
         22    1    1    0    0    0 -0.50269460042E+01 -0.11335148906E+02  0.25679980943E+02  0.28516963514E+02  0.00000000000E+00 0. -1.
</event>
<event>
 5    1  0.2377303E-009  0.9118800E+02  0.7815553E-02  0.1125453E+00
         25   -1    0    0    0    0  0.00000000000E+00  0.00000000000E+00  0.99999998245E-14  0.12509000000E+03  0.12509000000E+03 0.  0.
        -13    1    3    3    0    0 -0.35230930079E+02  0.68991907976E+01 -0.27578201597E+02  0.45270140658E+02  0.10566000000E+00 0.  1.
         23    2    1    0    0    0 -0.13378188727E+02  0.24607905897E+02  0.12650093482E+02  0.94356470568E+02  0.89210950599E+02 0.  0.
         13    1    3    3    0    0  0.21852741352E+02  0.17708715099E+02  0.40228295079E+02  0.49086329910E+02  0.10566000000E+00 0. -1.
         22    1    1    0    0    0  0.13378188727E+02 -0.24607905897E+02 -0.12650093482E+02  0.30733529432E+02  0.00000000000E+00 0.  1.
</event>
<event>
 5    1  0.2377303E-009  0.9118800E+02  0.7815553E-02  0.1125453E+00
         25   -1    0    0    0    0  0.00000000000E+00  0.00000000000E+00  0.99999998245E-14  0.12509000000E+03  0.12509000000E+03 0.  0.
        -13    1    3    3    0    0 -0.32601374503E+02  0.43470754858E+02 -0.28010208638E+02  0.61132144567E+02  0.10566000000E+00 0. -1.
         23    2    1    0    0    0 -0.10957772740E+02  0.20283643791E+02 -0.21611268984E+02  0.93490222533E+02  0.87987929702E+02 0.  0.
         13    1    3    3    0    0  0.21643601763E+02 -0.23187111067E+02  0.63989396536E+01  0.32358077966E+02  0.10566000000E+00 0.  1.
         22    1    1    0    0    0  0.10957772740E+02 -0.20283643791E+02  0.21611268984E+02  0.31599777467E+02  0.00000000000E+00 0. -1.
</event>
<event>
 5    1  0.2377303E-009  0.9118800E+02  0.7815553E-02  0.1125453E+00
         25   -1    0    0    0    0  0.00000000000E+00  0.00000000000E+00  0.99999998245E-14  0.12509000000E+03  0.12509000000E+03 0.  0.
        -13    1    3    3    0    0  0.36647613162E+02  0.15156514761E+01 -0.44959373821E+01  0.36953611013E+02  0.10566000000E+00 0. -1.
         23    2    1    0    0    0 -0.22094958895E+02 -0.12070040769E+02 -0.11036234411E+02  0.97600519054E+02  0.93649291278E+02 0.  0.
         13    1    3    3    0    0 -0.58742572057E+02 -0.13585692245E+02 -0.65402970291E+01  0.60646908041E+02  0.10566000000E+00 0.  1.
         22    1    1    0    0    0  0.22094958895E+02  0.12070040769E+02  0.11036234411E+02  0.27489480946E+02  0.00000000000E+00 0.  1.
</event>
<event>
 5    1  0.2377303E-009  0.9118800E+02  0.7815553E-02  0.1125453E+00
         25   -1    0    0    0    0  0.00000000000E+00  0.00000000000E+00  0.99999998245E-14  0.12509000000E+03  0.12509000000E+03 0.  0.
        -13    1    3    3    0    0  0.23905535733E+02 -0.20357344149E+02  0.12903925089E+02  0.33947290705E+02  0.10566000000E+00 0. -1.
         23    2    1    0    0    0 -0.16807828132E+02  0.13133483180E+02 -0.19800362100E+02  0.95985948628E+02  0.91467242923E+02 0.  0.
         13    1    3    3    0    0 -0.40713363865E+02  0.33490827329E+02 -0.32704287189E+02  0.62038657923E+02  0.10566000000E+00 0.  1.
         22    1    1    0    0    0  0.16807828132E+02 -0.13133483180E+02  0.19800362100E+02  0.29104051372E+02  0.00000000000E+00 0.  1.
</event>
<event>
 5    1  0.2377303E-009  0.9118800E+02  0.7815553E-02  0.1125453E+00
         25   -1    0    0    0    0  0.00000000000E+00  0.00000000000E+00  0.99999998245E-14  0.12509000000E+03  0.12509000000E+03 0.  0.
        -13    1    3    3    0    0 -0.64134814408E+01 -0.35703695113E+02 -0.32373773261E+02  0.48620560961E+02  0.10566000000E+00 0.  1.
         23    2    1    0    0    0  0.63814784248E+01  0.96140169028E+01 -0.26640549323E+02  0.96057751445E+02  0.91565387328E+02 0.  0.
         13    1    3    3    0    0  0.12794959866E+02  0.45317712016E+02  0.57332239377E+01  0.47437190485E+02  0.10566000000E+00 0. -1.
         22    1    1    0    0    0 -0.63814784248E+01 -0.96140169028E+01  0.26640549323E+02  0.29032248555E+02  0.00000000000E+00 0. -1.
</event>
<event>
 5    1  0.2377303E-009  0.9118800E+02  0.7815553E-02  0.1125453E+00
         25   -1    0    0    0    0  0.00000000000E+00  0.00000000000E+00  0.99999998245E-14  0.12509000000E+03  0.12509000000E+03 0.  0.
        -13    1    3    3    0    0  0.21995430193E+02  0.42181594782E+01 -0.12780918700E+02  0.25786718783E+02  0.10566000000E+00 0. -1.
         23    2    1    0    0    0 -0.36805075209E+02 -0.39975681530E+01 -0.14866325353E+02  0.85195116346E+02  0.75276863028E+02 0.  0.
         13    1    3    3    0    0 -0.58800505402E+02 -0.82157276312E+01 -0.20854066535E+01  0.59408397563E+02  0.10566000000E+00 0.  1.
         22    1    1    0    0    0  0.36805075209E+02  0.39975681530E+01  0.14866325353E+02  0.39894883654E+02  0.00000000000E+00 0.  1.
</event>
<event>
 5    1  0.2377303E-009  0.9118800E+02  0.7815553E-02  0.1125453E+00
         25   -1    0    0    0    0  0.00000000000E+00  0.00000000000E+00  0.99999998245E-14  0.12509000000E+03  0.12509000000E+03 0.  0.
        -13    1    3    3    0    0 -0.59996890594E+01 -0.40181900704E+02  0.70427508324E+01  0.41233395644E+02  0.10566000000E+00 0.  1.
         23    2    1    0    0    0  0.22311981774E+02 -0.36420488063E+01 -0.20101208462E+02  0.94838592895E+02  0.89884431747E+02 0.  0.
         13    1    3    3    0    0  0.28311670834E+02  0.36539851898E+02 -0.27143959294E+02  0.53605197251E+02  0.10566000000E+00 0. -1.
         22    1    1    0    0    0 -0.22311981774E+02  0.36420488063E+01  0.20101208462E+02  0.30251407105E+02  0.00000000000E+00 0. -1.
</event>
<event>
 5    1  0.2377303E-009  0.9118800E+02  0.7815553E-02  0.1125453E+00
         25   -1    0    0    0    0  0.00000000000E+00  0.00000000000E+00  0.99999998245E-14  0.12509000000E+03  0.12509000000E+03 0.  0.
        -13    1    3    3    0    0  0.21975543410E+02 -0.19847492928E+02 -0.24800810819E+02  0.38625624461E+02  0.10566000000E+00 0.  1.
         23    2    1    0    0    0 -0.13934594780E+02  0.16344528065E+02  0.11033539946E+02  0.10094345712E+03  0.98012886918E+02 0.  0.
         13    1    3    3    0    0 -0.35910138191E+02  0.36192020993E+02  0.35834350765E+02  0.62317832658E+02  0.10566000000E+00 0. -1.
         22    1    1    0    0    0  0.13934594780E+02 -0.16344528065E+02 -0.11033539946E+02  0.24146542881E+02  0.00000000000E+00 0. -1.
</event>
<event>
 5    1  0.2377303E-009  0.9118800E+02  0.7815553E-02  0.1125453E+00
         25   -1    0    0    0    0  0.00000000000E+00  0.00000000000E+00  0.99999998245E-14  0.12509000000E+03  0.12509000000E+03 0.  0.
        -13    1    3    3    0    0 -0.26095500638E+01  0.16609521317E+02 -0.35411984693E+02  0.39200838943E+02  0.10566000000E+00 0. -1.
         23    2    1    0    0    0 -0.19483614777E+02 -0.21916507808E+02  0.22780460002E+01  0.95676838782E+02  0.91043524901E+02 0.  0.
         13    1    3    3    0    0 -0.16874064713E+02 -0.38526029126E+02  0.37690030693E+02  0.56475999839E+02  0.10566000000E+00 0.  1.
         22    1    1    0    0    0  0.19483614777E+02  0.21916507808E+02 -0.22780460002E+01  0.29413161218E+02  0.00000000000E+00 0.  1.
</event>
<event>
 5    1  0.2377303E-009  0.9118800E+02  0.7815553E-02  0.1125453E+00
         25   -1    0    0    0    0  0.00000000000E+00  0.00000000000E+00  0.99999998245E-14  0.12509000000E+03  0.12509000000E+03 0.  0.
        -13    1    3    3    0    0 -0.87744348638E+01 -0.35901058211E+01 -0.52579888202E+02  0.53427852047E+02  0.10566000000E+00 0.  1.
         23    2    1    0    0    0  0.15213156649E+02 -0.15191152433E+02 -0.18220678650E+02  0.96908368075E+02  0.92720156520E+02 0.  0.
         13    1    3    3    0    0  0.23987591513E+02 -0.11601046611E+02  0.34359209552E+02  0.43480516028E+02  0.10566000000E+00 0. -1.
         22    1    1    0    0    0 -0.15213156649E+02  0.15191152433E+02  0.18220678650E+02  0.28181631925E+02  0.00000000000E+00 0. -1.
</event>
<event>
 5    1  0.2377303E-009  0.9118800E+02  0.7815553E-02  0.1125453E+00
         25   -1    0    0    0    0  0.00000000000E+00  0.00000000000E+00  0.99999998245E-14  0.12509000000E+03  0.12509000000E+03 0.  0.
        -13    1    3    3    0    0 -0.12554731098E+02  0.33622787713E+02 -0.45322467540E+01  0.36175482736E+02  0.10566000000E+00 0.  1.
         23    2    1    0    0    0  0.23727081677E+01 -0.16641836958E+02  0.23936926840E+02  0.95840094907E+02  0.91267556360E+02 0.  0.
         13    1    3    3    0    0  0.14927439266E+02 -0.50264624671E+02  0.28469173594E+02  0.59664612171E+02  0.10566000000E+00 0. -1.
         22    1    1    0    0    0 -0.23727081677E+01  0.16641836958E+02 -0.23936926840E+02  0.29249905093E+02  0.00000000000E+00 0. -1.
</event>
<event>
 5    1  0.2377303E-009  0.9118800E+02  0.7815553E-02  0.1125453E+00
         25   -1    0    0    0    0  0.00000000000E+00  0.00000000000E+00  0.99999998245E-14  0.12509000000E+03  0.12509000000E+03 0.  0.
        -13    1    3    3    0    0 -0.26724401170E+02 -0.20116495979E+02 -0.29159696723E+02  0.44375287102E+02  0.10566000000E+00 0.  1.
         23    2    1    0    0    0  0.15354283150E+02  0.88616130006E+01 -0.23315574993E+02  0.95800100149E+02  0.91212723648E+02 0.  0.
         13    1    3    3    0    0  0.42078684320E+02  0.28978108980E+02  0.58441217300E+01  0.51424813047E+02  0.10566000000E+00 0. -1.
         22    1    1    0    0    0 -0.15354283150E+02 -0.88616130006E+01  0.23315574993E+02  0.29289899851E+02  0.00000000000E+00 0.  1.
</event>
<event>
 5    1  0.2377303E-009  0.9118800E+02  0.7815553E-02  0.1125453E+00
         25   -1    0    0    0    0  0.00000000000E+00  0.00000000000E+00  0.99999998245E-14  0.12509000000E+03  0.12509000000E+03 0.  0.
        -13    1    3    3    0    0 -0.30282303164E+02 -0.32430793470E+02 -0.19487649205E+01  0.44413771499E+02  0.10566000000E+00 0.  1.
         23    2    1    0    0    0  0.56387662982E+01 -0.25240968102E+02  0.24395705037E+02  0.89536482869E+02  0.82174991234E+02 0.  0.
         13    1    3    3    0    0  0.35921069462E+02  0.71898253673E+01  0.26344469957E+02  0.45122711371E+02  0.10566000000E+00 0. -1.
         22    1    1    0    0    0 -0.56387662982E+01  0.25240968102E+02 -0.24395705037E+02  0.35553517131E+02  0.00000000000E+00 0. -1.
</event>
<event>
 5    1  0.2377303E-009  0.9118800E+02  0.7815553E-02  0.1125453E+00
         25   -1    0    0    0    0  0.00000000000E+00  0.00000000000E+00  0.99999998245E-14  0.12509000000E+03  0.12509000000E+03 0.  0.
        -13    1    3    3    0    0 -0.61083838666E+01 -0.40231477322E+02  0.24622509174E+02  0.47562203933E+02  0.10566000000E+00 0.  1.
         23    2    1    0    0    0 -0.16208544463E+00  0.58885852258E+01  0.30130355537E+02  0.94389185151E+02  0.89256810614E+02 0.  0.
         13    1    3    3    0    0  0.59462984220E+01  0.46120062548E+02  0.55078463628E+01  0.46826981217E+02  0.10566000000E+00 0. -1.
         22    1    1    0    0    0  0.16208544463E+00 -0.58885852258E+01 -0.30130355537E+02  0.30700814849E+02  0.00000000000E+00 0. -1.
</event>
<event>
 5    1  0.2377303E-009  0.9118800E+02  0.7815553E-02  0.1125453E+00
         25   -1    0    0    0    0  0.00000000000E+00  0.00000000000E+00  0.99999998245E-14  0.12509000000E+03  0.12509000000E+03 0.  0.
        -13    1    3    3    0    0 -0.47776688567E+02 -0.30288495477E+02 -0.18181950019E+02  0.59418847172E+02  0.10566000000E+00 0.  1.
         23    2    1    0    0    0 -0.16956819079E+02 -0.22848030682E+02  0.12576213338E+01  0.96609342866E+02  0.92315856159E+02 0.  0.
         13    1    3    3    0    0  0.30819869488E+02  0.74404647943E+01  0.19439571353E+02  0.37190495695E+02  0.10566000000E+00 0. -1.
         22    1    1    0    0    0  0.16956819079E+02  0.22848030682E+02 -0.12576213338E+01  0.28480657134E+02  0.00000000000E+00 0.  1.
</event>
<event>
 5    1  0.2377303E-009  0.9118800E+02  0.7815553E-02  0.1125453E+00
         25   -1    0    0    0    0  0.00000000000E+00  0.00000000000E+00  0.99999998245E-14  0.12509000000E+03  0.12509000000E+03 0.  0.
        -13    1    3    3    0    0 -0.15106345887E+02  0.82969298239E+01 -0.47795072033E+02  0.50807684509E+02  0.10566000000E+00 0. -1.
         23    2    1    0    0    0 -0.10398663427E+02 -0.22559684146E+02 -0.15053760378E+02  0.96043705032E+02  0.91546196125E+02 0.  0.
         13    1    3    3    0    0  0.47076824599E+01 -0.30856613970E+02  0.32741311655E+02  0.45236020523E+02  0.10566000000E+00 0.  1.
         22    1    1    0    0    0  0.10398663427E+02  0.22559684146E+02  0.15053760378E+02  0.29046294968E+02  0.00000000000E+00 0.  1.
</event>
<event>
 5    1  0.2377303E-009  0.9118800E+02  0.7815553E-02  0.1125453E+00
         25   -1    0    0    0    0  0.00000000000E+00  0.00000000000E+00  0.99999998245E-14  0.12509000000E+03  0.12509000000E+03 0.  0.
        -13    1    3    3    0    0  0.64757994115E+01 -0.24987644448E+01  0.25273294714E+02  0.26209356946E+02  0.10566000000E+00 0.  1.
         23    2    1    0    0    0 -0.11151703398E+02  0.41106169803E+02 -0.50944045633E+01  0.82194421645E+02  0.70113424587E+02 0.  0.
         13    1    3    3    0    0 -0.17627502809E+02  0.43604934247E+02 -0.30367699277E+02  0.55985064700E+02  0.10566000000E+00 0. -1.
         22    1    1    0    0    0  0.11151703398E+02 -0.41106169803E+02  0.50944045633E+01  0.42895578355E+02  0.00000000000E+00 0. -1.
</event>
<event>
 5    1  0.2377303E-009  0.9118800E+02  0.7815553E-02  0.1125453E+00
         25   -1    0    0    0    0  0.00000000000E+00  0.00000000000E+00  0.99999998245E-14  0.12509000000E+03  0.12509000000E+03 0.  0.
        -13    1    3    3    0    0  0.25977820835E+01 -0.30119052582E+02 -0.25624415028E+02  0.39629882788E+02  0.10566000000E+00 0.  1.
         23    2    1    0    0    0  0.17155419881E+02  0.16934142952E+02  0.84776493389E+01  0.99537227800E+02  0.96201432166E+02 0.  0.
         13    1    3    3    0    0  0.14557637798E+02  0.47053195534E+02  0.34102064367E+02  0.59907345012E+02  0.10566000000E+00 0. -1.
         22    1    1    0    0    0 -0.17155419881E+02 -0.16934142952E+02 -0.84776493389E+01  0.25552772200E+02  0.00000000000E+00 0. -1.
</event>
<event>
 5    1  0.2377303E-009  0.9118800E+02  0.7815553E-02  0.1125453E+00
         25   -1    0    0    0    0  0.00000000000E+00  0.00000000000E+00  0.99999998245E-14  0.12509000000E+03  0.12509000000E+03 0.  0.
        -13    1    3    3    0    0 -0.38626758450E+02  0.34673676902E+02 -0.29101076730E+02  0.59507765621E+02  0.10566000000E+00 0.  1.
         23    2    1    0    0    0 -0.28195232701E+02  0.84157705399E+01 -0.85404872162E+01  0.94451196780E+02  0.89343675269E+02 0.  0.
         13    1    3    3    0    0  0.10431525749E+02 -0.26257906362E+02  0.20560589514E+02  0.34943431160E+02  0.10566000000E+00 0. -1.
         22    1    1    0    0    0  0.28195232701E+02 -0.84157705399E+01  0.85404872162E+01  0.30638803220E+02  0.00000000000E+00 0.  1.
</event>
<event>
 5    1  0.2377303E-009  0.9118800E+02  0.7815553E-02  0.1125453E+00
         25   -1    0    0    0    0  0.00000000000E+00  0.00000000000E+00  0.99999998245E-14  0.12509000000E+03  0.12509000000E+03 0.  0.
        -13    1    3    3    0    0 -0.48254777479E+02  0.19433347450E+02  0.14612199005E+02  0.54034304534E+02  0.10566000000E+00 0. -1.
         23    2    1    0    0    0 -0.20302306806E+02 -0.11715848184E+02 -0.62963800388E+01  0.10081884094E+03  0.97853714940E+02 0.  0.
         13    1    3    3    0    0  0.27952470674E+02 -0.31149195635E+02 -0.20908579044E+02  0.46784536410E+02  0.10566000000E+00 0.  1.
         22    1    1    0    0    0  0.20302306806E+02  0.11715848184E+02  0.62963800388E+01  0.24271159055E+02  0.00000000000E+00 0.  1.
</event>
<event>
 5    1  0.2377303E-009  0.9118800E+02  0.7815553E-02  0.1125453E+00
         25   -1    0    0    0    0  0.00000000000E+00  0.00000000000E+00  0.99999998245E-14  0.12509000000E+03  0.12509000000E+03 0.  0.
        -13    1    3    3    0    0  0.28254539991E+02  0.11396520428E+02 -0.52896751743E+02  0.61043240551E+02  0.10566000000E+00 0. -1.
         23    2    1    0    0    0  0.80195990401E+01  0.12479891117E+02 -0.30022467858E+02  0.91602536266E+02  0.85262033889E+02 0.  0.
         13    1    3    3    0    0 -0.20234940951E+02  0.10833706890E+01  0.22874283884E+02  0.30559295715E+02  0.10566000000E+00 0.  1.
         22    1    1    0    0    0 -0.80195990401E+01 -0.12479891117E+02  0.30022467858E+02  0.33487463734E+02  0.00000000000E+00 0. -1.
</event>
<event>
 5    1  0.2377303E-009  0.9118800E+02  0.7815553E-02  0.1125453E+00
         25   -1    0    0    0    0  0.00000000000E+00  0.00000000000E+00  0.99999998245E-14  0.12509000000E+03  0.12509000000E+03 0.  0.
        -13    1    3    3    0    0 -0.21539042506E+02  0.22847055425E+02 -0.20736300744E+02  0.37628760626E+02  0.10566000000E+00 0. -1.
         23    2    1    0    0    0 -0.10056005539E+01  0.63562943718E+01  0.29793288485E+02  0.94609616974E+02  0.89565204598E+02 0.  0.
         13    1    3    3    0    0  0.20533441952E+02 -0.16490761053E+02  0.50529589229E+02  0.56980856349E+02  0.10566000000E+00 0.  1.
         22    1    1    0    0    0  0.10056005539E+01 -0.63562943718E+01 -0.29793288485E+02  0.30480383026E+02  0.00000000000E+00 0.  1.
</event>
<event>
 5    1  0.2377303E-009  0.9118800E+02  0.7815553E-02  0.1125453E+00
         25   -1    0    0    0    0  0.00000000000E+00  0.00000000000E+00  0.99999998245E-14  0.12509000000E+03  0.12509000000E+03 0.  0.
        -13    1    3    3    0    0 -0.17046857401E+02 -0.20843366882E+02 -0.15387531749E+02  0.31013361437E+02  0.10566000000E+00 0. -1.
         23    2    1    0    0    0 -0.12940665598E+02  0.32114037057E+02 -0.21271041540E+02  0.84454677799E+02  0.74036228914E+02 0.  0.
         13    1    3    3    0    0  0.41061918026E+01  0.52957403939E+02 -0.58835097902E+01  0.53441316362E+02  0.10566000000E+00 0.  1.
         22    1    1    0    0    0  0.12940665598E+02 -0.32114037057E+02  0.21271041540E+02  0.40635322201E+02  0.00000000000E+00 0.  1.
</event>
<event>
 5    1  0.2377303E-009  0.9118800E+02  0.7815553E-02  0.1125453E+00
         25   -1    0    0    0    0  0.00000000000E+00  0.00000000000E+00  0.99999998245E-14  0.12509000000E+03  0.12509000000E+03 0.  0.
        -13    1    3    3    0    0 -0.26197048846E+02  0.20188743833E+02  0.50210595511E+02  0.60124752069E+02  0.10566000000E+00 0.  1.
         23    2    1    0    0    0 -0.13074753058E+01  0.77448572998E+01  0.28807441050E+02  0.95230981829E+02  0.90428861178E+02 0.  0.
         13    1    3    3    0    0  0.24889573540E+02 -0.12443886533E+02 -0.21403154460E+02  0.35106229760E+02  0.10566000000E+00 0. -1.
         22    1    1    0    0    0  0.13074753058E+01 -0.77448572998E+01 -0.28807441050E+02  0.29859018171E+02  0.00000000000E+00 0.  1.
</event>
<event>
 5    1  0.2377303E-009  0.9118800E+02  0.7815553E-02  0.1125453E+00
         25   -1    0    0    0    0  0.00000000000E+00  0.00000000000E+00  0.99999998245E-14  0.12509000000E+03  0.12509000000E+03 0.  0.
        -13    1    3    3    0    0  0.14221633964E+02  0.52962305215E+02 -0.18511014042E+02  0.57878575061E+02  0.10566000000E+00 0. -1.
         23    2    1    0    0    0 -0.11154376402E+02  0.20149126933E+02 -0.48195360917E+01  0.10156054278E+03  0.98797310146E+02 0.  0.
         13    1    3    3    0    0 -0.25376010365E+02 -0.32813178282E+02  0.13691477950E+02  0.43681967716E+02  0.10566000000E+00 0.  1.
         22    1    1    0    0    0  0.11154376402E+02 -0.20149126933E+02  0.48195360917E+01  0.23529457223E+02  0.00000000000E+00 0. -1.
</event>
<event>
 5    1  0.2377303E-009  0.9118800E+02  0.7815553E-02  0.1125453E+00
         25   -1    0    0    0    0  0.00000000000E+00  0.00000000000E+00  0.99999998245E-14  0.12509000000E+03  0.12509000000E+03 0.  0.
        -13    1    3    3    0    0 -0.25640523999E+02 -0.22490760232E+02 -0.17960928572E+02  0.38547073637E+02  0.10566000000E+00 0. -1.
         23    2    1    0    0    0  0.21182759548E+01  0.27163689824E+02 -0.10364905601E+02  0.95938938167E+02  0.91402929114E+02 0.  0.
         13    1    3    3    0    0  0.27758799954E+02  0.49654450056E+02  0.75960229710E+01  0.57391864530E+02  0.10566000000E+00 0.  1.
         22    1    1    0    0    0 -0.21182759548E+01 -0.27163689824E+02  0.10364905601E+02  0.29151061833E+02  0.00000000000E+00 0.  1.
</event>
<event>
 5    1  0.2377303E-009  0.9118800E+02  0.7815553E-02  0.1125453E+00
         25   -1    0    0    0    0  0.00000000000E+00  0.00000000000E+00  0.99999998245E-14  0.12509000000E+03  0.12509000000E+03 0.  0.
        -13    1    3    3    0    0 -0.29724908924E+02  0.38435058160E+02 -0.32164344517E+02  0.58269890411E+02  0.10566000000E+00 0.  1.
         23    2    1    0    0    0 -0.22110284018E+02  0.20603755186E+02 -0.11505006036E+01  0.94845942092E+02  0.89894658865E+02 0.  0.
         13    1    3    3    0    0  0.76146249066E+01 -0.17831302974E+02  0.31013843913E+02  0.36576051680E+02  0.10566000000E+00 0. -1.
         22    1    1    0    0    0  0.22110284018E+02 -0.20603755186E+02  0.11505006036E+01  0.30244057908E+02  0.00000000000E+00 0.  1.
</event>
<event>
 5    1  0.2377303E-009  0.9118800E+02  0.7815553E-02  0.1125453E+00
         25   -1    0    0    0    0  0.00000000000E+00  0.00000000000E+00  0.99999998245E-14  0.12509000000E+03  0.12509000000E+03 0.  0.
        -13    1    3    3    0    0 -0.24348944391E+02  0.18566132495E+01 -0.48406819730E+02  0.54217612139E+02  0.10566000000E+00 0.  1.
         23    2    1    0    0    0 -0.38328669922E+01  0.22344160145E+02 -0.19057405126E+02  0.95473500340E+02  0.90763716402E+02 0.  0.
         13    1    3    3    0    0  0.20516077399E+02  0.20487546895E+02  0.29349414604E+02  0.41255888201E+02  0.10566000000E+00 0. -1.
         22    1    1    0    0    0  0.38328669922E+01 -0.22344160145E+02  0.19057405126E+02  0.29616499660E+02  0.00000000000E+00 0.  1.
</event>
<event>
 5    1  0.2377303E-009  0.9118800E+02  0.7815553E-02  0.1125453E+00
         25   -1    0    0    0    0  0.00000000000E+00  0.00000000000E+00  0.99999998245E-14  0.12509000000E+03  0.12509000000E+03 0.  0.
        -13    1    3    3    0    0  0.65280114768E+01  0.25771783550E+02  0.21657524754E+02  0.34290804944E+02  0.10566000000E+00 0.  1.
         23    2    1    0    0    0 -0.16741775238E+02 -0.22101567641E+02 -0.92725463889E+01  0.95853952954E+02  0.91286548024E+02 0.  0.
         13    1    3    3    0    0 -0.23269786715E+02 -0.47873351191E+02 -0.30930071143E+02  0.61563148011E+02  0.10566000000E+00 0. -1.
         22    1    1    0    0    0  0.16741775238E+02  0.22101567641E+02  0.92725463889E+01  0.29236047046E+02  0.00000000000E+00 0. -1.
</event>
<event>
 5    1  0.2377303E-009  0.9118800E+02  0.7815553E-02  0.1125453E+00
         25   -1    0    0    0    0  0.00000000000E+00  0.00000000000E+00  0.99999998245E-14  0.12509000000E+03  0.12509000000E+03 0.  0.
        -13    1    3    3    0    0  0.47392949167E+02  0.20111001195E+02 -0.19678671899E+02  0.55116288804E+02  0.10566000000E+00 0.  1.
         23    2    1    0    0    0  0.70104860185E+01  0.16798028946E+02 -0.22986503851E+02  0.95769357954E+02  0.91170553760E+02 0.  0.
         13    1    3    3    0    0 -0.40382463148E+02 -0.33129722490E+01 -0.33078319515E+01  0.40653069150E+02  0.10566000000E+00 0. -1.
         22    1    1    0    0    0 -0.70104860185E+01 -0.16798028946E+02  0.22986503851E+02  0.29320642046E+02  0.00000000000E+00 0.  1.
</event>
<event>
 5    1  0.2377303E-009  0.9118800E+02  0.7815553E-02  0.1125453E+00
         25   -1    0    0    0    0  0.00000000000E+00  0.00000000000E+00  0.99999998245E-14  0.12509000000E+03  0.12509000000E+03 0.  0.
        -13    1    3    3    0    0 -0.39122274573E+02 -0.25748105224E+02  0.24648945907E+02  0.52925409670E+02  0.10566000000E+00 0.  1.
         23    2    1    0    0    0 -0.23924050082E+02 -0.18587802536E+02 -0.11418009733E+02  0.92713503560E+02  0.86876672477E+02 0.  0.
         13    1    3    3    0    0  0.15198224491E+02  0.71603026873E+01 -0.36066955640E+02  0.39788093890E+02  0.10566000000E+00 0. -1.
         22    1    1    0    0    0  0.23924050082E+02  0.18587802536E+02  0.11418009733E+02  0.32376496440E+02  0.00000000000E+00 0.  1.
</event>
<event>
 5    1  0.2377303E-009  0.9118800E+02  0.7815553E-02  0.1125453E+00
         25   -1    0    0    0    0  0.00000000000E+00  0.00000000000E+00  0.99999998245E-14  0.12509000000E+03  0.12509000000E+03 0.  0.
        -13    1    3    3    0    0 -0.57935306539E+02 -0.13426037275E+01 -0.90994580136E+01  0.58661006032E+02  0.10566000000E+00 0.  1.
         23    2    1    0    0    0 -0.18398705104E+02 -0.13745303557E+02 -0.98411798086E+01  0.10010411320E+03  0.96935746448E+02 0.  0.
         13    1    3    3    0    0  0.39536601436E+02 -0.12402699829E+02 -0.74172179500E+00  0.41443107164E+02  0.10566000000E+00 0. -1.
         22    1    1    0    0    0  0.18398705104E+02  0.13745303557E+02  0.98411798086E+01  0.24985886804E+02  0.00000000000E+00 0.  1.
</event>
<event>
 5    1  0.2377303E-009  0.9118800E+02  0.7815553E-02  0.1125453E+00
         25   -1    0    0    0    0  0.00000000000E+00  0.00000000000E+00  0.99999998245E-14  0.12509000000E+03  0.12509000000E+03 0.  0.
        -13    1    3    3    0    0 -0.29250535481E+01  0.24306565612E+02  0.23314221893E+02  0.33807235566E+02  0.10566000000E+00 0. -1.
         23    2    1    0    0    0 -0.75065000005E+01 -0.15565184022E+02 -0.23787090971E+02  0.95688500161E+02  0.91059545740E+02 0.  0.
         13    1    3    3    0    0 -0.45814464525E+01 -0.39871749634E+02 -0.47101312864E+02  0.61881264596E+02  0.10566000000E+00 0.  1.
         22    1    1    0    0    0  0.75065000005E+01  0.15565184022E+02  0.23787090971E+02  0.29401499839E+02  0.00000000000E+00 0.  1.
</event>
<event>
 5    1  0.2377303E-009  0.9118800E+02  0.7815553E-02  0.1125453E+00
         25   -1    0    0    0    0  0.00000000000E+00  0.00000000000E+00  0.99999998245E-14  0.12509000000E+03  0.12509000000E+03 0.  0.
        -13    1    3    3    0    0 -0.16761080278E+02 -0.38457994864E+02 -0.34740211287E+02  0.54468749071E+02  0.10566000000E+00 0.  1.
         23    2    1    0    0    0 -0.34510946665E+00 -0.40651971503E+00 -0.28742959398E+02  0.96342094446E+02  0.91953015657E+02 0.  0.
         13    1    3    3    0    0  0.16415970811E+02  0.38051475148E+02  0.59972518895E+01  0.41873345375E+02  0.10566000000E+00 0. -1.
         22    1    1    0    0    0  0.34510946665E+00  0.40651971503E+00  0.28742959398E+02  0.28747905554E+02  0.00000000000E+00 0. -1.
</event>
<event>
 5    1  0.2377303E-009  0.9118800E+02  0.7815553E-02  0.1125453E+00
         25   -1    0    0    0    0  0.00000000000E+00  0.00000000000E+00  0.99999998245E-14  0.12509000000E+03  0.12509000000E+03 0.  0.
        -13    1    3    3    0    0  0.37552222020E+02 -0.46194075631E+02  0.17942922957E+02  0.62177340328E+02  0.10566000000E+00 0.  1.
         23    2    1    0    0    0  0.21739241355E+02 -0.19200611898E+02  0.80337118039E+01  0.94993511213E+02  0.90099769896E+02 0.  0.
         13    1    3    3    0    0 -0.15812980665E+02  0.26993463733E+02 -0.99092111530E+01  0.32816170885E+02  0.10566000000E+00 0. -1.
         22    1    1    0    0    0 -0.21739241355E+02  0.19200611898E+02 -0.80337118039E+01  0.30096488787E+02  0.00000000000E+00 0.  1.
</event>
<event>
 5    1  0.2377303E-009  0.9118800E+02  0.7815553E-02  0.1125453E+00
         25   -1    0    0    0    0  0.00000000000E+00  0.00000000000E+00  0.99999998245E-14  0.12509000000E+03  0.12509000000E+03 0.  0.
        -13    1    3    3    0    0  0.10429345969E+02  0.14423282382E+02  0.37989539165E+02  0.41952575392E+02  0.10566000000E+00 0.  1.
         23    2    1    0    0    0 -0.25659969936E+02 -0.64941281321E+01 -0.36457779345E+00  0.98618493162E+02  0.94999297467E+02 0.  0.
         13    1    3    3    0    0 -0.36089315905E+02 -0.20917410514E+02 -0.38354116958E+02  0.56665917770E+02  0.10566000000E+00 0. -1.
         22    1    1    0    0    0  0.25659969936E+02  0.64941281321E+01  0.36457779345E+00  0.26471506838E+02  0.00000000000E+00 0. -1.
</event>
<event>
 5    1  0.2377303E-009  0.9118800E+02  0.7815553E-02  0.1125453E+00
         25   -1    0    0    0    0  0.00000000000E+00  0.00000000000E+00  0.99999998245E-14  0.12509000000E+03  0.12509000000E+03 0.  0.
        -13    1    3    3    0    0  0.54921379847E+01 -0.13587169994E+02 -0.30441665894E+02  0.33785809958E+02  0.10566000000E+00 0.  1.
         23    2    1    0    0    0  0.10848400946E+02  0.79676848417E-01  0.28535221888E+02  0.94562094083E+02  0.89498807800E+02 0.  0.
         13    1    3    3    0    0  0.53562629616E+01  0.13666846842E+02  0.58976887782E+02  0.60776284125E+02  0.10566000000E+00 0. -1.
         22    1    1    0    0    0 -0.10848400946E+02 -0.79676848417E-01 -0.28535221888E+02  0.30527905917E+02  0.00000000000E+00 0. -1.
</event>
<event>
 5    1  0.2377303E-009  0.9118800E+02  0.7815553E-02  0.1125453E+00
         25   -1    0    0    0    0  0.00000000000E+00  0.00000000000E+00  0.99999998245E-14  0.12509000000E+03  0.12509000000E+03 0.  0.
        -13    1    3    3    0    0 -0.37653436785E+01  0.42632063726E+02  0.33592127851E+02  0.54406919487E+02  0.10566000000E+00 0. -1.
         23    2    1    0    0    0 -0.15158061565E+02  0.27485438877E+02 -0.81759836564E+00  0.93691199899E+02  0.88273191235E+02 0.  0.
         13    1    3    3    0    0 -0.11392717887E+02 -0.15146624848E+02 -0.34409726216E+02  0.39284280412E+02  0.10566000000E+00 0.  1.
         22    1    1    0    0    0  0.15158061565E+02 -0.27485438877E+02  0.81759836564E+00  0.31398800101E+02  0.00000000000E+00 0.  1.
</event>
<event>
 5    1  0.2377303E-009  0.9118800E+02  0.7815553E-02  0.1125453E+00
         25   -1    0    0    0    0  0.00000000000E+00  0.00000000000E+00  0.99999998245E-14  0.12509000000E+03  0.12509000000E+03 0.  0.
        -13    1    3    3    0    0  0.51634835498E+02  0.27709753652E+02  0.43978031776E+01  0.58765113130E+02  0.10566000000E+00 0.  1.
         23    2    1    0    0    0  0.27109134576E+02  0.38672434882E+01 -0.10082856945E+02  0.95909102929E+02  0.91362088805E+02 0.  0.
         13    1    3    3    0    0 -0.24525700922E+02 -0.23842510163E+02 -0.14480660123E+02  0.37143989799E+02  0.10566000000E+00 0. -1.
         22    1    1    0    0    0 -0.27109134576E+02 -0.38672434882E+01  0.10082856945E+02  0.29180897071E+02  0.00000000000E+00 0.  1.
</event>
<event>
 5    1  0.2377303E-009  0.9118800E+02  0.7815553E-02  0.1125453E+00
         25   -1    0    0    0    0  0.00000000000E+00  0.00000000000E+00  0.99999998245E-14  0.12509000000E+03  0.12509000000E+03 0.  0.
        -13    1    3    3    0    0 -0.44168580645E+02  0.15514780027E+01  0.41542848342E+02  0.60655502740E+02  0.10566000000E+00 0.  1.
         23    2    1    0    0    0 -0.12816172555E+02 -0.84146935090E+01  0.19623397353E+02  0.10018740838E+03  0.97043174557E+02 0.  0.
         13    1    3    3    0    0  0.31352408091E+02 -0.99661715117E+01 -0.21919450989E+02  0.39531905638E+02  0.10566000000E+00 0. -1.
         22    1    1    0    0    0  0.12816172555E+02  0.84146935090E+01 -0.19623397353E+02  0.24902591622E+02  0.00000000000E+00 0.  1.
</event>
<event>
 5    1  0.2377303E-009  0.9118800E+02  0.7815553E-02  0.1125453E+00
         25   -1    0    0    0    0  0.00000000000E+00  0.00000000000E+00  0.99999998245E-14  0.12509000000E+03  0.12509000000E+03 0.  0.
        -13    1    3    3    0    0 -0.18147052323E+01 -0.33035914929E+02 -0.52153840341E+02  0.61763250050E+02  0.10566000000E+00 0.  1.
         23    2    1    0    0    0 -0.32523064323E+00 -0.21137994340E+02 -0.20375274382E+02  0.95728930778E+02  0.91115069017E+02 0.  0.
         13    1    3    3    0    0  0.14894745890E+01  0.11897920589E+02  0.31778565959E+02  0.33965680728E+02  0.10566000000E+00 0. -1.
         22    1    1    0    0    0  0.32523064323E+00  0.21137994340E+02  0.20375274382E+02  0.29361069222E+02  0.00000000000E+00 0.  1.
</event>
<event>
 5    1  0.2377303E-009  0.9118800E+02  0.7815553E-02  0.1125453E+00
         25   -1    0    0    0    0  0.00000000000E+00  0.00000000000E+00  0.99999998245E-14  0.12509000000E+03  0.12509000000E+03 0.  0.
        -13    1    3    3    0    0 -0.14417951163E+02  0.30363466500E+02 -0.19647818404E+02  0.38934115448E+02  0.10566000000E+00 0. -1.
         23    2    1    0    0    0 -0.76254716314E+01  0.16386808047E+01  0.28572892728E+02  0.95471706814E+02  0.90761244542E+02 0.  0.
         13    1    3    3    0    0  0.67924795315E+01 -0.28724785695E+02  0.48220711132E+02  0.56537591367E+02  0.10566000000E+00 0.  1.
         22    1    1    0    0    0  0.76254716314E+01 -0.16386808047E+01 -0.28572892728E+02  0.29618293186E+02  0.00000000000E+00 0.  1.
</event>
<event>
 5    1  0.2377303E-009  0.9118800E+02  0.7815553E-02  0.1125453E+00
         25   -1    0    0    0    0  0.00000000000E+00  0.00000000000E+00  0.99999998245E-14  0.12509000000E+03  0.12509000000E+03 0.  0.
        -13    1    3    3    0    0  0.42699330857E+02 -0.37717759594E+01 -0.22316477611E+01  0.42923776224E+02  0.10566000000E+00 0.  1.
         23    2    1    0    0    0  0.52856223763E+01  0.30290223781E+02  0.46718349255E+01  0.93989172001E+02  0.88694435853E+02 0.  0.
         13    1    3    3    0    0 -0.37413708481E+02  0.34061999741E+02  0.69034826866E+01  0.51065395777E+02  0.10566000000E+00 0. -1.
         22    1    1    0    0    0 -0.52856223763E+01 -0.30290223781E+02 -0.46718349255E+01  0.31100827999E+02  0.00000000000E+00 0.  1.
</event>
<event>
 5    1  0.2377303E-009  0.9118800E+02  0.7815553E-02  0.1125453E+00
         25   -1    0    0    0    0  0.00000000000E+00  0.00000000000E+00  0.99999998245E-14  0.12509000000E+03  0.12509000000E+03 0.  0.
        -13    1    3    3    0    0  0.76748174804E+01  0.15665492574E+02  0.56001827256E+02  0.58655999702E+02  0.10566000000E+00 0. -1.
         23    2    1    0    0    0 -0.11719627468E+02  0.76391292877E+01  0.29312316445E+02  0.92610500933E+02  0.86728236599E+02 0.  0.
         13    1    3    3    0    0 -0.19394444949E+02 -0.80263632864E+01 -0.26689510812E+02  0.33954501231E+02  0.10566000000E+00 0.  1.
         22    1    1    0    0    0  0.11719627468E+02 -0.76391292877E+01 -0.29312316445E+02  0.32479499067E+02  0.00000000000E+00 0.  1.
</event>
<event>
 5    1  0.2377303E-009  0.9118800E+02  0.7815553E-02  0.1125453E+00
         25   -1    0    0    0    0  0.00000000000E+00  0.00000000000E+00  0.99999998245E-14  0.12509000000E+03  0.12509000000E+03 0.  0.
        -13    1    3    3    0    0  0.24811798447E+02  0.21778415900E+02  0.48082307556E+02  0.58325330734E+02  0.10566000000E+00 0.  1.
         23    2    1    0    0    0  0.24093331882E+02  0.14558394914E+02  0.13120475672E+02  0.94032273336E+02  0.88755202908E+02 0.  0.
         13    1    3    3    0    0 -0.71846656537E+00 -0.72200209856E+01 -0.34961831884E+02  0.35706942602E+02  0.10566000000E+00 0. -1.
         22    1    1    0    0    0 -0.24093331882E+02 -0.14558394914E+02 -0.13120475672E+02  0.31057726664E+02  0.00000000000E+00 0.  1.
</event>
<event>
 5    1  0.2377303E-009  0.9118800E+02  0.7815553E-02  0.1125453E+00
         25   -1    0    0    0    0  0.00000000000E+00  0.00000000000E+00  0.99999998245E-14  0.12509000000E+03  0.12509000000E+03 0.  0.
        -13    1    3    3    0    0 -0.12743118305E+02  0.30559281283E+02  0.88564959144E+01  0.34273975851E+02  0.10566000000E+00 0.  1.
         23    2    1    0    0    0  0.61619656658E+01 -0.16212808133E+02 -0.24732942980E+02  0.94881666102E+02  0.89944355718E+02 0.  0.
         13    1    3    3    0    0  0.18905083971E+02 -0.46772089416E+02 -0.33589438894E+02  0.60607690251E+02  0.10566000000E+00 0. -1.
         22    1    1    0    0    0 -0.61619656658E+01  0.16212808133E+02  0.24732942980E+02  0.30208333898E+02  0.00000000000E+00 0. -1.
</event>
<event>
 5    1  0.2377303E-009  0.9118800E+02  0.7815553E-02  0.1125453E+00
         25   -1    0    0    0    0  0.00000000000E+00  0.00000000000E+00  0.99999998245E-14  0.12509000000E+03  0.12509000000E+03 0.  0.
        -13    1    3    3    0    0  0.41436981551E+02  0.31276335199E+02  0.34518971025E+02  0.62344230753E+02  0.10566000000E+00 0.  1.
         23    2    1    0    0    0  0.18584801214E+02  0.18357821765E+02  0.18151985880E+02  0.93279639306E+02  0.87688038303E+02 0.  0.
         13    1    3    3    0    0 -0.22852180337E+02 -0.12918513434E+02 -0.16366985145E+02  0.30935408552E+02  0.10566000000E+00 0. -1.
         22    1    1    0    0    0 -0.18584801214E+02 -0.18357821765E+02 -0.18151985880E+02  0.31810360694E+02  0.00000000000E+00 0.  1.
</event>
<event>
 5    1  0.2377303E-009  0.9118800E+02  0.7815553E-02  0.1125453E+00
         25   -1    0    0    0    0  0.00000000000E+00  0.00000000000E+00  0.99999998245E-14  0.12509000000E+03  0.12509000000E+03 0.  0.
        -13    1    3    3    0    0 -0.16169273466E+02 -0.49634678468E+02 -0.30759883054E+02  0.60590661662E+02  0.10566000000E+00 0. -1.
         23    2    1    0    0    0 -0.19267837126E+02 -0.28223031403E+02 -0.13195174766E+02  0.88458023720E+02  0.80516583846E+02 0.  0.
         13    1    3    3    0    0 -0.30985636601E+01  0.21411647065E+02  0.17564708288E+02  0.27867362058E+02  0.10566000000E+00 0.  1.
         22    1    1    0    0    0  0.19267837126E+02  0.28223031403E+02  0.13195174766E+02  0.36631976280E+02  0.00000000000E+00 0. -1.
</event>
<event>
 5    1  0.2377303E-009  0.9118800E+02  0.7815553E-02  0.1125453E+00
         25   -1    0    0    0    0  0.00000000000E+00  0.00000000000E+00  0.99999998245E-14  0.12509000000E+03  0.12509000000E+03 0.  0.
        -13    1    3    3    0    0 -0.12263884702E+02 -0.21414952568E+02 -0.25845844569E+02  0.35735443288E+02  0.10566000000E+00 0. -1.
         23    2    1    0    0    0  0.16767698784E+02  0.16847527681E+02  0.13438279202E+02  0.97784647788E+02  0.93894915111E+02 0.  0.
         13    1    3    3    0    0  0.29031583487E+02  0.38262480250E+02  0.39284123771E+02  0.62049204500E+02  0.10566000000E+00 0.  1.
         22    1    1    0    0    0 -0.16767698784E+02 -0.16847527681E+02 -0.13438279202E+02  0.27305352212E+02  0.00000000000E+00 0.  1.
</event>
<event>
 5    1  0.2377303E-009  0.9118800E+02  0.7815553E-02  0.1125453E+00
         25   -1    0    0    0    0  0.00000000000E+00  0.00000000000E+00  0.99999998245E-14  0.12509000000E+03  0.12509000000E+03 0.  0.
        -13    1    3    3    0    0  0.15392312275E+02 -0.22023306935E+01  0.59152370488E+02  0.61161978680E+02  0.10566000000E+00 0.  1.
         23    2    1    0    0    0  0.96365694804E+01  0.78475829056E+01  0.26163464923E+02  0.96124936120E+02  0.91657124210E+02 0.  0.
         13    1    3    3    0    0 -0.57557427949E+01  0.10049913599E+02 -0.32988905565E+02  0.34962957439E+02  0.10566000000E+00 0. -1.
         22    1    1    0    0    0 -0.96365694804E+01 -0.78475829056E+01 -0.26163464923E+02  0.28965063880E+02  0.00000000000E+00 0.  1.
</event>
<event>
 5    1  0.2377303E-009  0.9118800E+02  0.7815553E-02  0.1125453E+00
         25   -1    0    0    0    0  0.00000000000E+00  0.00000000000E+00  0.99999998245E-14  0.12509000000E+03  0.12509000000E+03 0.  0.
        -13    1    3    3    0    0 -0.47700761504E+02  0.23350446210E+02 -0.29916264093E+02  0.60955721697E+02  0.10566000000E+00 0. -1.
         23    2    1    0    0    0 -0.16930825257E+02  0.18664969689E+02 -0.17209577183E+02  0.94574373115E+02  0.89515968217E+02 0.  0.
         13    1    3    3    0    0  0.30769936247E+02 -0.46854765213E+01  0.12706686910E+02  0.33618651418E+02  0.10566000000E+00 0.  1.
         22    1    1    0    0    0  0.16930825257E+02 -0.18664969689E+02  0.17209577183E+02  0.30515626885E+02  0.00000000000E+00 0. -1.
</event>
<event>
 5    1  0.2377303E-009  0.9118800E+02  0.7815553E-02  0.1125453E+00
         25   -1    0    0    0    0  0.00000000000E+00  0.00000000000E+00  0.99999998245E-14  0.12509000000E+03  0.12509000000E+03 0.  0.
        -13    1    3    3    0    0  0.15513146627E+02 -0.56270405830E+02  0.16979329291E+01  0.58394438355E+02  0.10566000000E+00 0. -1.
         23    2    1    0    0    0  0.73054729791E+01 -0.23914275530E+02 -0.15219070547E+02  0.95817442581E+02  0.91236504125E+02 0.  0.
         13    1    3    3    0    0 -0.82076736475E+01  0.32356130300E+02 -0.16917003476E+02  0.37423004226E+02  0.10566000000E+00 0.  1.
         22    1    1    0    0    0 -0.73054729791E+01  0.23914275530E+02  0.15219070547E+02  0.29272557419E+02  0.00000000000E+00 0. -1.
</event>
<event>
 5    1  0.2377303E-009  0.9118800E+02  0.7815553E-02  0.1125453E+00
         25   -1    0    0    0    0  0.00000000000E+00  0.00000000000E+00  0.99999998245E-14  0.12509000000E+03  0.12509000000E+03 0.  0.
        -13    1    3    3    0    0 -0.76825052923E+01  0.26418283209E+02  0.23908371240E+02  0.36449526124E+02  0.10566000000E+00 0.  1.
         23    2    1    0    0    0 -0.13024008531E+02 -0.16344812036E+02 -0.18695364715E+02  0.97049059564E+02  0.92909771400E+02 0.  0.
         13    1    3    3    0    0 -0.53415032388E+01 -0.42763095244E+02 -0.42603735956E+02  0.60599533440E+02  0.10566000000E+00 0. -1.
         22    1    1    0    0    0  0.13024008531E+02  0.16344812036E+02  0.18695364715E+02  0.28040940436E+02  0.00000000000E+00 0. -1.
</event>
<event>
 5    1  0.2377303E-009  0.9118800E+02  0.7815553E-02  0.1125453E+00
         25   -1    0    0    0    0  0.00000000000E+00  0.00000000000E+00  0.99999998245E-14  0.12509000000E+03  0.12509000000E+03 0.  0.
        -13    1    3    3    0    0 -0.22969173333E+02  0.13946765263E+02 -0.21665972993E+02  0.34518411532E+02  0.10566000000E+00 0. -1.
         23    2    1    0    0    0  0.19103181850E+02 -0.17550601171E+02  0.11552309236E+02  0.96692623238E+02  0.92428633992E+02 0.  0.
         13    1    3    3    0    0  0.42072355184E+02 -0.31497366434E+02  0.33218282229E+02  0.62174211706E+02  0.10566000000E+00 0.  1.
         22    1    1    0    0    0 -0.19103181850E+02  0.17550601171E+02 -0.11552309236E+02  0.28397376762E+02  0.00000000000E+00 0.  1.
</event>
<event>
 5    1  0.2377303E-009  0.9118800E+02  0.7815553E-02  0.1125453E+00
         25   -1    0    0    0    0  0.00000000000E+00  0.00000000000E+00  0.99999998245E-14  0.12509000000E+03  0.12509000000E+03 0.  0.
        -13    1    3    3    0    0 -0.98681599122E+01  0.21789369224E+01 -0.11722383293E+02  0.15477525005E+02  0.10566000000E+00 0.  1.
         23    2    1    0    0    0  0.48947207044E+02 -0.55679443196E+01 -0.66530326020E+00  0.75822630375E+02  0.57635037669E+02 0.  0.
         13    1    3    3    0    0  0.58815366956E+02 -0.77468812420E+01  0.11057080033E+02  0.60345105370E+02  0.10566000000E+00 0. -1.
         22    1    1    0    0    0 -0.48947207044E+02  0.55679443196E+01  0.66530326020E+00  0.49267369625E+02  0.00000000000E+00 0. -1.
</event>
<event>
 5    1  0.2377303E-009  0.9118800E+02  0.7815553E-02  0.1125453E+00
         25   -1    0    0    0    0  0.00000000000E+00  0.00000000000E+00  0.99999998245E-14  0.12509000000E+03  0.12509000000E+03 0.  0.
        -13    1    3    3    0    0  0.13187762298E+02 -0.18671191853E+02  0.25606087738E+02  0.34325112861E+02  0.10566000000E+00 0.  1.
         23    2    1    0    0    0 -0.98044822196E+01  0.25502267634E+02 -0.10482803096E+02  0.95825983071E+02  0.91248212830E+02 0.  0.
         13    1    3    3    0    0 -0.22992244517E+02  0.44173459487E+02 -0.36088890834E+02  0.61500870210E+02  0.10566000000E+00 0. -1.
         22    1    1    0    0    0  0.98044822196E+01 -0.25502267634E+02  0.10482803096E+02  0.29264016929E+02  0.00000000000E+00 0. -1.
</event>
<event>
 5    1  0.2377303E-009  0.9118800E+02  0.7815553E-02  0.1125453E+00
         25   -1    0    0    0    0  0.00000000000E+00  0.00000000000E+00  0.99999998245E-14  0.12509000000E+03  0.12509000000E+03 0.  0.
        -13    1    3    3    0    0  0.60337845630E+02 -0.32492629139E+01 -0.13924280205E+02  0.62008951516E+02  0.10566000000E+00 0. -1.
         23    2    1    0    0    0  0.27289076144E+02 -0.12317109135E+01 -0.12223334660E+02  0.95163077359E+02  0.90334880271E+02 0.  0.
         13    1    3    3    0    0 -0.33048769486E+02  0.20175520004E+01  0.17009455450E+01  0.33154125843E+02  0.10566000000E+00 0.  1.
         22    1    1    0    0    0 -0.27289076144E+02  0.12317109135E+01  0.12223334660E+02  0.29926922641E+02  0.00000000000E+00 0. -1.
</event>
<event>
 5    1  0.2377303E-009  0.9118800E+02  0.7815553E-02  0.1125453E+00
         25   -1    0    0    0    0  0.00000000000E+00  0.00000000000E+00  0.99999998245E-14  0.12509000000E+03  0.12509000000E+03 0.  0.
        -13    1    3    3    0    0 -0.38830028103E+02 -0.25562327578E+02  0.94671677126E+01  0.47443040609E+02  0.10566000000E+00 0.  1.
         23    2    1    0    0    0 -0.10151303739E+02 -0.14997339232E+02 -0.25454764062E+02  0.93850375081E+02  0.88498467431E+02 0.  0.
         13    1    3    3    0    0  0.28678724364E+02  0.10564988345E+02 -0.34921931775E+02  0.46407334472E+02  0.10566000000E+00 0. -1.
         22    1    1    0    0    0  0.10151303739E+02  0.14997339232E+02  0.25454764062E+02  0.31239624919E+02  0.00000000000E+00 0.  1.
</event>
<event>
 5    1  0.2377303E-009  0.9118800E+02  0.7815553E-02  0.1125453E+00
         25   -1    0    0    0    0  0.00000000000E+00  0.00000000000E+00  0.99999998245E-14  0.12509000000E+03  0.12509000000E+03 0.  0.
        -13    1    3    3    0    0 -0.15450809516E+02 -0.58464287008E+02  0.93601340651E+01  0.61191695873E+02  0.10566000000E+00 0.  1.
         23    2    1    0    0    0 -0.11600626081E+02 -0.12712213900E+02  0.10786289685E+01  0.10784649838E+03  0.10645904783E+03 0.  0.
         13    1    3    3    0    0  0.38501834347E+01  0.45752073108E+02 -0.82815050966E+01  0.46654802506E+02  0.10566000000E+00 0. -1.
         22    1    1    0    0    0  0.11600626081E+02  0.12712213900E+02 -0.10786289685E+01  0.17243501621E+02  0.00000000000E+00 0.  1.
</event>
<event>
 5    1  0.2377303E-009  0.9118800E+02  0.7815553E-02  0.1125453E+00
         25   -1    0    0    0    0  0.00000000000E+00  0.00000000000E+00  0.99999998245E-14  0.12509000000E+03  0.12509000000E+03 0.  0.
        -13    1    3    3    0    0 -0.13119573576E+02 -0.13156226999E+02 -0.46148209104E+02  0.49748144561E+02  0.10566000000E+00 0. -1.
         23    2    1    0    0    0 -0.31861641875E+01 -0.28712260152E+02 -0.37888406619E+01  0.95954097082E+02  0.91423672580E+02 0.  0.
         13    1    3    3    0    0  0.99334093881E+01 -0.15556033153E+02  0.42359368443E+02  0.46205952521E+02  0.10566000000E+00 0.  1.
         22    1    1    0    0    0  0.31861641875E+01  0.28712260152E+02  0.37888406619E+01  0.29135902918E+02  0.00000000000E+00 0. -1.
</event>
<event>
 5    1  0.2377303E-009  0.9118800E+02  0.7815553E-02  0.1125453E+00
         25   -1    0    0    0    0  0.00000000000E+00  0.00000000000E+00  0.99999998245E-14  0.12509000000E+03  0.12509000000E+03 0.  0.
        -13    1    3    3    0    0 -0.36117527028E+02  0.30398521741E+02  0.85981091059E+01  0.47984211225E+02  0.10566000000E+00 0.  1.
         23    2    1    0    0    0 -0.32696292734E+02  0.23285628336E+01 -0.18753303381E+02  0.87325517332E+02  0.78737474091E+02 0.  0.
         13    1    3    3    0    0  0.34212342935E+01 -0.28069958908E+02 -0.27351412487E+02  0.39341306107E+02  0.10566000000E+00 0. -1.
         22    1    1    0    0    0  0.32696292734E+02 -0.23285628336E+01  0.18753303381E+02  0.37764482668E+02  0.00000000000E+00 0.  1.
</event>
<event>
 5    1  0.2377303E-009  0.9118800E+02  0.7815553E-02  0.1125453E+00
         25   -1    0    0    0    0  0.00000000000E+00  0.00000000000E+00  0.99999998245E-14  0.12509000000E+03  0.12509000000E+03 0.  0.
        -13    1    3    3    0    0 -0.31103960679E+02 -0.41069439188E+02 -0.23816034638E+02  0.56757112991E+02  0.10566000000E+00 0. -1.
         23    2    1    0    0    0  0.35812614159E+01 -0.25974666097E+02 -0.96530195695E+01  0.97149178627E+02  0.93044470061E+02 0.  0.
         13    1    3    3    0    0  0.34685222095E+02  0.15094773091E+02  0.14163015069E+02  0.40392065636E+02  0.10566000000E+00 0.  1.
         22    1    1    0    0    0 -0.35812614159E+01  0.25974666097E+02  0.96530195695E+01  0.27940821373E+02  0.00000000000E+00 0. -1.
</event>
<event>
 5    1  0.2377303E-009  0.9118800E+02  0.7815553E-02  0.1125453E+00
         25   -1    0    0    0    0  0.00000000000E+00  0.00000000000E+00  0.99999998245E-14  0.12509000000E+03  0.12509000000E+03 0.  0.
        -13    1    3    3    0    0 -0.18418910954E+02  0.13370135172E+02  0.44981332980E+02  0.50411787073E+02  0.10566000000E+00 0.  1.
         23    2    1    0    0    0  0.18825567079E+02 -0.14113251575E+01  0.19772080427E+02  0.97752681570E+02  0.93852318965E+02 0.  0.
         13    1    3    3    0    0  0.37244478033E+02 -0.14781460329E+02 -0.25209252553E+02  0.47340894497E+02  0.10566000000E+00 0. -1.
         22    1    1    0    0    0 -0.18825567079E+02  0.14113251575E+01 -0.19772080427E+02  0.27337318430E+02  0.00000000000E+00 0. -1.
</event>
<event>
 5    1  0.2377303E-009  0.9118800E+02  0.7815553E-02  0.1125453E+00
         25   -1    0    0    0    0  0.00000000000E+00  0.00000000000E+00  0.99999998245E-14  0.12509000000E+03  0.12509000000E+03 0.  0.
        -13    1    3    3    0    0  0.20301028663E+02 -0.34677680784E+02  0.82835314042E+01  0.41028055838E+02  0.10566000000E+00 0. -1.
         23    2    1    0    0    0 -0.27524576016E+02 -0.73164465455E+01  0.44902814029E+01  0.96257807888E+02  0.91838283289E+02 0.  0.
         13    1    3    3    0    0 -0.47825604678E+02  0.27361234238E+02 -0.37932500013E+01  0.55229752050E+02  0.10566000000E+00 0.  1.
         22    1    1    0    0    0  0.27524576016E+02  0.73164465455E+01 -0.44902814029E+01  0.28832192112E+02  0.00000000000E+00 0.  1.
</event>
<event>
 5    1  0.2377303E-009  0.9118800E+02  0.7815553E-02  0.1125453E+00
         25   -1    0    0    0    0  0.00000000000E+00  0.00000000000E+00  0.99999998245E-14  0.12509000000E+03  0.12509000000E+03 0.  0.
        -13    1    3    3    0    0 -0.15416275327E+02 -0.87640636889E+00  0.36917628760E+02  0.40016897811E+02  0.10566000000E+00 0.  1.
         23    2    1    0    0    0 -0.91868141164E+01 -0.21269368408E+02 -0.15909260513E+02  0.96985051038E+02  0.92823552877E+02 0.  0.
         13    1    3    3    0    0  0.62294612110E+01 -0.20392962039E+02 -0.52826889273E+02  0.56968153227E+02  0.10566000000E+00 0. -1.
         22    1    1    0    0    0  0.91868141164E+01  0.21269368408E+02  0.15909260513E+02  0.28104948962E+02  0.00000000000E+00 0. -1.
</event>
<event>
 5    1  0.2377303E-009  0.9118800E+02  0.7815553E-02  0.1125453E+00
         25   -1    0    0    0    0  0.00000000000E+00  0.00000000000E+00  0.99999998245E-14  0.12509000000E+03  0.12509000000E+03 0.  0.
        -13    1    3    3    0    0  0.27385170392E+02  0.85879282573E+01  0.13766762949E+02  0.31831352395E+02  0.10566000000E+00 0. -1.
         23    2    1    0    0    0 -0.23160856069E+02 -0.13523539696E+01 -0.20851025990E+02  0.93896741113E+02  0.88563980216E+02 0.  0.
         13    1    3    3    0    0 -0.50546026461E+02 -0.99402822269E+01 -0.34617788940E+02  0.62065388719E+02  0.10566000000E+00 0.  1.
         22    1    1    0    0    0  0.23160856069E+02  0.13523539696E+01  0.20851025990E+02  0.31193258887E+02  0.00000000000E+00 0.  1.
</event>
<event>
 5    1  0.2377303E-009  0.9118800E+02  0.7815553E-02  0.1125453E+00
         25   -1    0    0    0    0  0.00000000000E+00  0.00000000000E+00  0.99999998245E-14  0.12509000000E+03  0.12509000000E+03 0.  0.
        -13    1    3    3    0    0 -0.46753750201E+02 -0.15023526240E+02  0.17278894502E+02  0.52059493445E+02  0.10566000000E+00 0.  1.
         23    2    1    0    0    0 -0.36278707236E+01 -0.23293185740E+02  0.17092284431E+02  0.95971618607E+02  0.91447643180E+02 0.  0.
         13    1    3    3    0    0  0.43125879477E+02 -0.82696594992E+01 -0.18661007136E+00  0.43912125162E+02  0.10566000000E+00 0. -1.
         22    1    1    0    0    0  0.36278707236E+01  0.23293185740E+02 -0.17092284431E+02  0.29118381393E+02  0.00000000000E+00 0.  1.
</event>
<event>
 5    1  0.2377303E-009  0.9118800E+02  0.7815553E-02  0.1125453E+00
         25   -1    0    0    0    0  0.00000000000E+00  0.00000000000E+00  0.99999998245E-14  0.12509000000E+03  0.12509000000E+03 0.  0.
        -13    1    3    3    0    0  0.44565276399E+02 -0.41283119864E+02  0.15596438945E+01  0.60768441640E+02  0.10566000000E+00 0. -1.
         23    2    1    0    0    0  0.13462391399E+02 -0.23775019049E+02 -0.56711079449E+01  0.97185717563E+02  0.93093580445E+02 0.  0.
         13    1    3    3    0    0 -0.31102885000E+02  0.17508100815E+02 -0.72307518394E+01  0.36417275923E+02  0.10566000000E+00 0.  1.
         22    1    1    0    0    0 -0.13462391399E+02  0.23775019049E+02  0.56711079449E+01  0.27904282437E+02  0.00000000000E+00 0. -1.
</event>
<event>
 5    1  0.2377303E-009  0.9118800E+02  0.7815553E-02  0.1125453E+00
         25   -1    0    0    0    0  0.00000000000E+00  0.00000000000E+00  0.99999998245E-14  0.12509000000E+03  0.12509000000E+03 0.  0.
        -13    1    3    3    0    0  0.44933256531E+02  0.29901980469E+02 -0.13886772193E+02  0.55731316011E+02  0.10566000000E+00 0.  1.
         23    2    1    0    0    0  0.98290038647E+01  0.23495644091E+02  0.89467486087E+01  0.98095576152E+02  0.94308234750E+02 0.  0.
         13    1    3    3    0    0 -0.35104252666E+02 -0.64063363776E+01  0.22833520801E+02  0.42364260140E+02  0.10566000000E+00 0. -1.
         22    1    1    0    0    0 -0.98290038647E+01 -0.23495644091E+02 -0.89467486087E+01  0.26994423848E+02  0.00000000000E+00 0.  1.
</event>
<event>
 5    1  0.2377303E-009  0.9118800E+02  0.7815553E-02  0.1125453E+00
         25   -1    0    0    0    0  0.00000000000E+00  0.00000000000E+00  0.99999998245E-14  0.12509000000E+03  0.12509000000E+03 0.  0.
        -13    1    3    3    0    0  0.51934094563E+01 -0.17395140830E+02  0.40681393330E+02  0.44548281152E+02  0.10566000000E+00 0.  1.
         23    2    1    0    0    0 -0.23453118062E+02 -0.17124357003E+02 -0.20323022107E+01  0.95979476098E+02  0.91458390704E+02 0.  0.
         13    1    3    3    0    0 -0.28646527518E+02  0.27078382712E+00 -0.42713695541E+02  0.51431194946E+02  0.10566000000E+00 0. -1.
         22    1    1    0    0    0  0.23453118062E+02  0.17124357003E+02  0.20323022107E+01  0.29110523902E+02  0.00000000000E+00 0. -1.
</event>
<event>
 5    1  0.2377303E-009  0.9118800E+02  0.7815553E-02  0.1125453E+00
         25   -1    0    0    0    0  0.00000000000E+00  0.00000000000E+00  0.99999998245E-14  0.12509000000E+03  0.12509000000E+03 0.  0.
        -13    1    3    3    0    0 -0.24184759566E+02 -0.15484989077E+02  0.51944366817E+02  0.59354156469E+02  0.10566000000E+00 0.  1.
         23    2    1    0    0    0  0.15620774176E-01 -0.19689705994E+01  0.30825162328E+02  0.94202013309E+02  0.88994109860E+02 0.  0.
         13    1    3    3    0    0  0.24200380340E+02  0.13516018478E+02 -0.21119204489E+02  0.34847856841E+02  0.10566000000E+00 0. -1.
         22    1    1    0    0    0 -0.15620774176E-01  0.19689705994E+01 -0.30825162328E+02  0.30887986691E+02  0.00000000000E+00 0.  1.
</event>
<event>
 5    1  0.2377303E-009  0.9118800E+02  0.7815553E-02  0.1125453E+00
         25   -1    0    0    0    0  0.00000000000E+00  0.00000000000E+00  0.99999998245E-14  0.12509000000E+03  0.12509000000E+03 0.  0.
        -13    1    3    3    0    0  0.22644270526E+02  0.99254683965E+01 -0.27537651774E+02  0.37008260426E+02  0.10566000000E+00 0.  1.
         23    2    1    0    0    0  0.32850134809E+01 -0.16873067640E+01  0.27941914074E+02  0.96905094824E+02  0.92715740428E+02 0.  0.
         13    1    3    3    0    0 -0.19359257045E+02 -0.11612775161E+02  0.55479565847E+02  0.59896834398E+02  0.10566000000E+00 0. -1.
         22    1    1    0    0    0 -0.32850134809E+01  0.16873067640E+01 -0.27941914074E+02  0.28184905176E+02  0.00000000000E+00 0.  1.
</event>
<event>
 5    1  0.2377303E-009  0.9118800E+02  0.7815553E-02  0.1125453E+00
         25   -1    0    0    0    0  0.00000000000E+00  0.00000000000E+00  0.99999998245E-14  0.12509000000E+03  0.12509000000E+03 0.  0.
        -13    1    3    3    0    0 -0.26519045101E+02  0.23338757951E+02 -0.40812397258E+02  0.53977961334E+02  0.10566000000E+00 0.  1.
         23    2    1    0    0    0  0.78422694675E+01  0.15450068002E+02 -0.29272691887E+02  0.91073882027E+02  0.84482872261E+02 0.  0.
         13    1    3    3    0    0  0.34361314569E+02 -0.78886899488E+01  0.11539705371E+02  0.37095920693E+02  0.10566000000E+00 0. -1.
         22    1    1    0    0    0 -0.78422694675E+01 -0.15450068002E+02  0.29272691887E+02  0.34016117973E+02  0.00000000000E+00 0.  1.
</event>
<event>
 5    1  0.2377303E-009  0.9118800E+02  0.7815553E-02  0.1125453E+00
         25   -1    0    0    0    0  0.00000000000E+00  0.00000000000E+00  0.99999998245E-14  0.12509000000E+03  0.12509000000E+03 0.  0.
        -13    1    3    3    0    0 -0.25431423571E+01  0.37330275584E+02 -0.15812338130E+02  0.40620909017E+02  0.10566000000E+00 0.  1.
         23    2    1    0    0    0 -0.25955791333E+02 -0.11830209756E+02 -0.55153583555E+01  0.96037011438E+02  0.91537049447E+02 0.  0.
         13    1    3    3    0    0 -0.23412648976E+02 -0.49160485340E+02  0.10296979774E+02  0.55416102420E+02  0.10566000000E+00 0. -1.
         22    1    1    0    0    0  0.25955791333E+02  0.11830209756E+02  0.55153583555E+01  0.29052988562E+02  0.00000000000E+00 0. -1.
</event>
<event>
 5    1  0.2377303E-009  0.9118800E+02  0.7815553E-02  0.1125453E+00
         25   -1    0    0    0    0  0.00000000000E+00  0.00000000000E+00  0.99999998245E-14  0.12509000000E+03  0.12509000000E+03 0.  0.
        -13    1    3    3    0    0 -0.14193809661E+02 -0.45117495374E+02 -0.26494394159E+02  0.54212698765E+02  0.10566000000E+00 0. -1.
         23    2    1    0    0    0 -0.12232953465E+02 -0.40374929726E+01 -0.26815382794E+02  0.95340861283E+02  0.90580729605E+02 0.  0.
         13    1    3    3    0    0  0.19608561963E+01  0.41080002402E+02 -0.32098863546E+00  0.41128162518E+02  0.10566000000E+00 0.  1.
         22    1    1    0    0    0  0.12232953465E+02  0.40374929726E+01  0.26815382794E+02  0.29749138717E+02  0.00000000000E+00 0. -1.
</event>
<event>
 5    1  0.2377303E-009  0.9118800E+02  0.7815553E-02  0.1125453E+00
         25   -1    0    0    0    0  0.00000000000E+00  0.00000000000E+00  0.99999998245E-14  0.12509000000E+03  0.12509000000E+03 0.  0.
        -13    1    3    3    0    0 -0.42018474404E+02  0.13803456925E+02 -0.20558073832E+02  0.48772258283E+02  0.10566000000E+00 0. -1.
         23    2    1    0    0    0 -0.39211925578E+01 -0.18956362649E+02 -0.17308198558E+02  0.99122844336E+02  0.95661094997E+02 0.  0.
         13    1    3    3    0    0  0.38097281846E+02 -0.32759819574E+02  0.32498752733E+01  0.50350586053E+02  0.10566000000E+00 0.  1.
         22    1    1    0    0    0  0.39211925578E+01  0.18956362649E+02  0.17308198558E+02  0.25967155664E+02  0.00000000000E+00 0. -1.
</event>
<event>
 5    1  0.2377303E-009  0.9118800E+02  0.7815553E-02  0.1125453E+00
         25   -1    0    0    0    0  0.00000000000E+00  0.00000000000E+00  0.99999998245E-14  0.12509000000E+03  0.12509000000E+03 0.  0.
        -13    1    3    3    0    0  0.21573481203E+02  0.11323167498E+02 -0.28218043325E+02  0.37281340461E+02  0.10566000000E+00 0.  1.
         23    2    1    0    0    0 -0.29537033759E+02  0.82106641674E+01 -0.18137581473E+02  0.89469454930E+02  0.82072895249E+02 0.  0.
         13    1    3    3    0    0 -0.51110514962E+02 -0.31125033311E+01  0.10080461852E+02  0.52188114470E+02  0.10566000000E+00 0. -1.
         22    1    1    0    0    0  0.29537033759E+02 -0.82106641674E+01  0.18137581473E+02  0.35620545070E+02  0.00000000000E+00 0. -1.
</event>
<event>
 5    1  0.2377303E-009  0.9118800E+02  0.7815553E-02  0.1125453E+00
         25   -1    0    0    0    0  0.00000000000E+00  0.00000000000E+00  0.99999998245E-14  0.12509000000E+03  0.12509000000E+03 0.  0.
        -13    1    3    3    0    0  0.32618236443E+02  0.39591405329E+01  0.40901260427E+02  0.52464734927E+02  0.10566000000E+00 0. -1.
         23    2    1    0    0    0 -0.57385084846E+01  0.14226827067E+02  0.26050142371E+02  0.94858509703E+02  0.89912145217E+02 0.  0.
         13    1    3    3    0    0 -0.38356744927E+02  0.10267686534E+02 -0.14851118056E+02  0.42393774776E+02  0.10566000000E+00 0.  1.
         22    1    1    0    0    0  0.57385084846E+01 -0.14226827067E+02 -0.26050142371E+02  0.30231490297E+02  0.00000000000E+00 0. -1.
</event>
<event>
 5    1  0.2377303E-009  0.9118800E+02  0.7815553E-02  0.1125453E+00
         25   -1    0    0    0    0  0.00000000000E+00  0.00000000000E+00  0.99999998245E-14  0.12509000000E+03  0.12509000000E+03 0.  0.
        -13    1    3    3    0    0  0.33288557152E+02  0.84101977696E+01 -0.16849864506E+02  0.38246418939E+02  0.10566000000E+00 0.  1.
         23    2    1    0    0    0 -0.36528325361E+01 -0.28877462744E+02  0.57945798283E+01  0.95411250103E+02  0.90677882919E+02 0.  0.
         13    1    3    3    0    0 -0.36941389688E+02 -0.37287660514E+02  0.22644444334E+02  0.57164831163E+02  0.10566000000E+00 0. -1.
         22    1    1    0    0    0  0.36528325361E+01  0.28877462744E+02 -0.57945798283E+01  0.29678749897E+02  0.00000000000E+00 0. -1.
</event>
<event>
 5    1  0.2377303E-009  0.9118800E+02  0.7815553E-02  0.1125453E+00
         25   -1    0    0    0    0  0.00000000000E+00  0.00000000000E+00  0.99999998245E-14  0.12509000000E+03  0.12509000000E+03 0.  0.
        -13    1    3    3    0    0 -0.58881286330E+01 -0.33693370637E+02  0.19702696755E+02  0.39473037724E+02  0.10566000000E+00 0.  1.
         23    2    1    0    0    0 -0.10142146483E+02 -0.16684610994E+01 -0.26965272981E+02  0.96232196122E+02  0.91803391690E+02 0.  0.
         13    1    3    3    0    0 -0.42540178502E+01  0.32024909538E+02 -0.46667969736E+02  0.56759158398E+02  0.10566000000E+00 0. -1.
         22    1    1    0    0    0  0.10142146483E+02  0.16684610994E+01  0.26965272981E+02  0.28857803878E+02  0.00000000000E+00 0. -1.
</event>
<event>
 5    1  0.2377303E-009  0.9118800E+02  0.7815553E-02  0.1125453E+00
         25   -1    0    0    0    0  0.00000000000E+00  0.00000000000E+00  0.99999998245E-14  0.12509000000E+03  0.12509000000E+03 0.  0.
        -13    1    3    3    0    0  0.31674781104E+02 -0.10767429979E+01 -0.25765323435E+02  0.40845002010E+02  0.10566000000E+00 0.  1.
         23    2    1    0    0    0 -0.60589749154E+01  0.24870519520E+02  0.85852865833E+01  0.98090721047E+02  0.94301794742E+02 0.  0.
         13    1    3    3    0    0 -0.37733756019E+02  0.25947262518E+02  0.34350610018E+02  0.57245719038E+02  0.10566000000E+00 0. -1.
         22    1    1    0    0    0  0.60589749154E+01 -0.24870519520E+02 -0.85852865833E+01  0.26999278953E+02  0.00000000000E+00 0. -1.
</event>
<event>
 5    1  0.2377303E-009  0.9118800E+02  0.7815553E-02  0.1125453E+00
         25   -1    0    0    0    0  0.00000000000E+00  0.00000000000E+00  0.99999998245E-14  0.12509000000E+03  0.12509000000E+03 0.  0.
        -13    1    3    3    0    0 -0.20390752659E+02  0.53759175400E+02 -0.10495917375E+01  0.57506039165E+02  0.10566000000E+00 0. -1.
         23    2    1    0    0    0  0.36478460495E+01  0.25509837959E+02  0.11780937815E+02  0.96755407904E+02  0.92513565758E+02 0.  0.
         13    1    3    3    0    0  0.24038598708E+02 -0.28249337441E+02  0.12830529552E+02  0.39249368738E+02  0.10566000000E+00 0.  1.
         22    1    1    0    0    0 -0.36478460495E+01 -0.25509837959E+02 -0.11780937815E+02  0.28334592096E+02  0.00000000000E+00 0. -1.
</event>
<event>
 5    1  0.2377303E-009  0.9118800E+02  0.7815553E-02  0.1125453E+00
         25   -1    0    0    0    0  0.00000000000E+00  0.00000000000E+00  0.99999998245E-14  0.12509000000E+03  0.12509000000E+03 0.  0.
        -13    1    3    3    0    0 -0.28947516885E+02 -0.28895234640E+02  0.83050107986E+01  0.41735808212E+02  0.10566000000E+00 0. -1.
         23    2    1    0    0    0 -0.21269529585E+02  0.21207494385E+02 -0.61218198694E+01  0.94436657844E+02  0.89323316997E+02 0.  0.
         13    1    3    3    0    0  0.76779873006E+01  0.50102729025E+02 -0.14426830668E+02  0.52700849632E+02  0.10566000000E+00 0.  1.
         22    1    1    0    0    0  0.21269529585E+02 -0.21207494385E+02  0.61218198694E+01  0.30653342156E+02  0.00000000000E+00 0.  1.
</event>
<event>
 5    1  0.2377303E-009  0.9118800E+02  0.7815553E-02  0.1125453E+00
         25   -1    0    0    0    0  0.00000000000E+00  0.00000000000E+00  0.99999998245E-14  0.12509000000E+03  0.12509000000E+03 0.  0.
        -13    1    3    3    0    0  0.48987549404E+02 -0.35374046980E+02  0.82546131738E+01  0.60985678638E+02  0.10566000000E+00 0.  1.
         23    2    1    0    0    0  0.25177411886E+02 -0.11244574419E+02 -0.43937976317E+01  0.97167822779E+02  0.93069532087E+02 0.  0.
         13    1    3    3    0    0 -0.23810137518E+02  0.24129472561E+02 -0.12648410806E+02  0.36182144140E+02  0.10566000000E+00 0. -1.
         22    1    1    0    0    0 -0.25177411886E+02  0.11244574419E+02  0.43937976317E+01  0.27922177221E+02  0.00000000000E+00 0.  1.
</event>
<event>
 5    1  0.2377303E-009  0.9118800E+02  0.7815553E-02  0.1125453E+00
         25   -1    0    0    0    0  0.00000000000E+00  0.00000000000E+00  0.99999998245E-14  0.12509000000E+03  0.12509000000E+03 0.  0.
        -13    1    3    3    0    0  0.15750123221E+01  0.19797836846E+02 -0.54179054742E+02  0.57704559130E+02  0.10566000000E+00 0. -1.
         23    2    1    0    0    0  0.69210720350E+01  0.22943758293E+02 -0.16255701102E+02  0.96132011447E+02  0.91666779826E+02 0.  0.
         13    1    3    3    0    0  0.53460597129E+01  0.31459214469E+01  0.37923353640E+02  0.38427452316E+02  0.10566000000E+00 0.  1.
         22    1    1    0    0    0 -0.69210720350E+01 -0.22943758293E+02  0.16255701102E+02  0.28957988553E+02  0.00000000000E+00 0. -1.
</event>
<event>
 5    1  0.2377303E-009  0.9118800E+02  0.7815553E-02  0.1125453E+00
         25   -1    0    0    0    0  0.00000000000E+00  0.00000000000E+00  0.99999998245E-14  0.12509000000E+03  0.12509000000E+03 0.  0.
        -13    1    3    3    0    0  0.15072579704E+01  0.24821960921E+02 -0.29642887012E+02  0.38692550769E+02  0.10566000000E+00 0.  1.
         23    2    1    0    0    0 -0.55183684497E+01  0.11985646590E+02  0.25841711874E+02  0.96074449219E+02  0.91588195777E+02 0.  0.
         13    1    3    3    0    0 -0.70256264201E+01 -0.12836314331E+02  0.55484598886E+02  0.57381898451E+02  0.10566000000E+00 0. -1.
         22    1    1    0    0    0  0.55183684497E+01 -0.11985646590E+02 -0.25841711874E+02  0.29015550781E+02  0.00000000000E+00 0. -1.
</event>
<event>
 5    1  0.2377303E-009  0.9118800E+02  0.7815553E-02  0.1125453E+00
         25   -1    0    0    0    0  0.00000000000E+00  0.00000000000E+00  0.99999998245E-14  0.12509000000E+03  0.12509000000E+03 0.  0.
        -13    1    3    3    0    0 -0.76445276250E+01  0.27127836528E+01 -0.29955762687E+02  0.31034768888E+02  0.10566000000E+00 0. -1.
         23    2    1    0    0    0 -0.24909534118E+02 -0.53682728429E+01  0.25115259152E+02  0.89311801532E+02  0.81832257743E+02 0.  0.
         13    1    3    3    0    0 -0.17265006493E+02 -0.80810564957E+01  0.55071021839E+02  0.58277032644E+02  0.10566000000E+00 0.  1.
         22    1    1    0    0    0  0.24909534118E+02  0.53682728429E+01 -0.25115259152E+02  0.35778198468E+02  0.00000000000E+00 0.  1.
</event>
<event>
 5    1  0.2377303E-009  0.9118800E+02  0.7815553E-02  0.1125453E+00
         25   -1    0    0    0    0  0.00000000000E+00  0.00000000000E+00  0.99999998245E-14  0.12509000000E+03  0.12509000000E+03 0.  0.
        -13    1    3    3    0    0  0.11453838525E+02  0.32415025218E+02 -0.97009092386E+00  0.34392971917E+02  0.10566000000E+00 0.  1.
         23    2    1    0    0    0 -0.87695082007E-01 -0.27835595629E+02  0.73485454151E+01  0.96300606221E+02  0.91896559045E+02 0.  0.
         13    1    3    3    0    0 -0.11541533607E+02 -0.60250620847E+02  0.83186363390E+01  0.61907634304E+02  0.10566000000E+00 0. -1.
         22    1    1    0    0    0  0.87695082007E-01  0.27835595629E+02 -0.73485454151E+01  0.28789393779E+02  0.00000000000E+00 0. -1.
</event>
<event>
 5    1  0.2377303E-009  0.9118800E+02  0.7815553E-02  0.1125453E+00
         25   -1    0    0    0    0  0.00000000000E+00  0.00000000000E+00  0.99999998245E-14  0.12509000000E+03  0.12509000000E+03 0.  0.
        -13    1    3    3    0    0  0.11532975533E+02  0.16536459271E+02 -0.50909433458E+02  0.54756237900E+02  0.10566000000E+00 0.  1.
         23    2    1    0    0    0  0.71602255218E+01 -0.14336014893E+02 -0.25470937049E+02  0.94997496171E+02  0.90105302242E+02 0.  0.
         13    1    3    3    0    0 -0.43727500114E+01 -0.30872474164E+02  0.25438496409E+02  0.40241258271E+02  0.10566000000E+00 0. -1.
         22    1    1    0    0    0 -0.71602255218E+01  0.14336014893E+02  0.25470937049E+02  0.30092503829E+02  0.00000000000E+00 0.  1.
</event>
<event>
 5    1  0.2377303E-009  0.9118800E+02  0.7815553E-02  0.1125453E+00
         25   -1    0    0    0    0  0.00000000000E+00  0.00000000000E+00  0.99999998245E-14  0.12509000000E+03  0.12509000000E+03 0.  0.
        -13    1    3    3    0    0  0.21602346145E+02  0.45360242836E+02  0.46378202745E+01  0.50455262659E+02  0.10566000000E+00 0.  1.
         23    2    1    0    0    0  0.19142895170E+02  0.43290386268E+01  0.22464794347E+02  0.95259512308E+02  0.90468318704E+02 0.  0.
         13    1    3    3    0    0 -0.24594509755E+01 -0.41031204209E+02  0.17826974073E+02  0.44804249648E+02  0.10566000000E+00 0. -1.
         22    1    1    0    0    0 -0.19142895170E+02 -0.43290386268E+01 -0.22464794347E+02  0.29830487692E+02  0.00000000000E+00 0. -1.
</event>
<event>
 5    1  0.2377303E-009  0.9118800E+02  0.7815553E-02  0.1125453E+00
         25   -1    0    0    0    0  0.00000000000E+00  0.00000000000E+00  0.99999998245E-14  0.12509000000E+03  0.12509000000E+03 0.  0.
        -13    1    3    3    0    0 -0.50079860146E+02  0.20670797387E+02 -0.13420087450E+02  0.55815626558E+02  0.10566000000E+00 0. -1.
         23    2    1    0    0    0 -0.27520159363E+02 -0.17484365401E+01  0.10469714135E+02  0.95593710136E+02  0.90929237881E+02 0.  0.
         13    1    3    3    0    0  0.22559700783E+02 -0.22419233927E+02  0.23889801585E+02  0.39778083578E+02  0.10566000000E+00 0.  1.
         22    1    1    0    0    0  0.27520159363E+02  0.17484365401E+01 -0.10469714135E+02  0.29496289864E+02  0.00000000000E+00 0. -1.
</event>
<event>
 5    1  0.2377303E-009  0.9118800E+02  0.7815553E-02  0.1125453E+00
         25   -1    0    0    0    0  0.00000000000E+00  0.00000000000E+00  0.99999998245E-14  0.12509000000E+03  0.12509000000E+03 0.  0.
        -13    1    3    3    0    0  0.40287815656E+02  0.28592906037E+02  0.27322771965E+02  0.56455357565E+02  0.10566000000E+00 0.  1.
         23    2    1    0    0    0  0.39162522301E+01  0.14079629584E+02  0.25549852633E+02  0.95655870654E+02  0.91014711010E+02 0.  0.
         13    1    3    3    0    0 -0.36371563426E+02 -0.14513276453E+02 -0.17729193317E+01  0.39200513089E+02  0.10566000000E+00 0. -1.
         22    1    1    0    0    0 -0.39162522301E+01 -0.14079629584E+02 -0.25549852633E+02  0.29434129346E+02  0.00000000000E+00 0.  1.
</event>
<event>
 5    1  0.2377303E-009  0.9118800E+02  0.7815553E-02  0.1125453E+00
         25   -1    0    0    0    0  0.00000000000E+00  0.00000000000E+00  0.99999998245E-14  0.12509000000E+03  0.12509000000E+03 0.  0.
        -13    1    3    3    0    0  0.57049651829E+01 -0.51470344320E+02  0.21467522235E+02  0.56058974724E+02  0.10566000000E+00 0. -1.
         23    2    1    0    0    0 -0.14302742434E+02 -0.12338680404E+02  0.15975429113E+02  0.10035084459E+03  0.97253617920E+02 0.  0.
         13    1    3    3    0    0 -0.20007707617E+02  0.39131663916E+02 -0.54920931216E+01  0.44291869862E+02  0.10566000000E+00 0.  1.
         22    1    1    0    0    0  0.14302742434E+02  0.12338680404E+02 -0.15975429113E+02  0.24739155414E+02  0.00000000000E+00 0. -1.
</event>
<event>
 5    1  0.2377303E-009  0.9118800E+02  0.7815553E-02  0.1125453E+00
         25   -1    0    0    0    0  0.00000000000E+00  0.00000000000E+00  0.99999998245E-14  0.12509000000E+03  0.12509000000E+03 0.  0.
        -13    1    3    3    0    0  0.29067524436E+02  0.53731731361E+02  0.10243232819E+02  0.61943158738E+02  0.10566000000E+00 0. -1.
         23    2    1    0    0    0  0.84171140836E+01  0.24955209415E+02  0.85398094227E+01  0.97403565932E+02  0.93385844884E+02 0.  0.
         13    1    3    3    0    0 -0.20650410353E+02 -0.28776521946E+02 -0.17034233960E+01  0.35460407193E+02  0.10566000000E+00 0.  1.
         22    1    1    0    0    0 -0.84171140836E+01 -0.24955209415E+02 -0.85398094227E+01  0.27686434068E+02  0.00000000000E+00 0. -1.
</event>
<event>
 5    1  0.2377303E-009  0.9118800E+02  0.7815553E-02  0.1125453E+00
         25   -1    0    0    0    0  0.00000000000E+00  0.00000000000E+00  0.99999998245E-14  0.12509000000E+03  0.12509000000E+03 0.  0.
        -13    1    3    3    0    0  0.70281046068E+01 -0.27911021509E+02 -0.45826438221E+02  0.54115552109E+02  0.10566000000E+00 0. -1.
         23    2    1    0    0    0  0.14770443433E+02 -0.36227532596E+02 -0.22761596224E+02  0.79827538955E+02  0.65755194439E+02 0.  0.
         13    1    3    3    0    0  0.77423388261E+01 -0.83165110870E+01  0.23064841997E+02  0.25711986845E+02  0.10566000000E+00 0.  1.
         22    1    1    0    0    0 -0.14770443433E+02  0.36227532596E+02  0.22761596224E+02  0.45262461045E+02  0.00000000000E+00 0. -1.
</event>
<event>
 5    1  0.2377303E-009  0.9118800E+02  0.7815553E-02  0.1125453E+00
         25   -1    0    0    0    0  0.00000000000E+00  0.00000000000E+00  0.99999998245E-14  0.12509000000E+03  0.12509000000E+03 0.  0.
        -13    1    3    3    0    0  0.64686905405E+00 -0.32278285332E+02  0.11824038432E+02  0.34382047531E+02  0.10566000000E+00 0.  1.
         23    2    1    0    0    0 -0.83098605282E+01  0.27880016817E+02  0.29224634524E+01  0.95851499485E+02  0.91283185972E+02 0.  0.
         13    1    3    3    0    0 -0.89567295822E+01  0.60158302150E+02 -0.89015749800E+01  0.61469451954E+02  0.10566000000E+00 0. -1.
         22    1    1    0    0    0  0.83098605282E+01 -0.27880016817E+02 -0.29224634524E+01  0.29238500515E+02  0.00000000000E+00 0. -1.
</event>
<event>
 5    1  0.2377303E-009  0.9118800E+02  0.7815553E-02  0.1125453E+00
         25   -1    0    0    0    0  0.00000000000E+00  0.00000000000E+00  0.99999998245E-14  0.12509000000E+03  0.12509000000E+03 0.  0.
        -13    1    3    3    0    0  0.63247909109E+01  0.11647478125E+01 -0.28530630943E+02  0.29246669615E+02  0.10566000000E+00 0.  1.
         23    2    1    0    0    0 -0.15964489365E+02  0.15847526495E+02  0.26452709371E+02  0.90366019097E+02  0.83428188029E+02 0.  0.
         13    1    3    3    0    0 -0.22289280276E+02  0.14682778682E+02  0.54983340314E+02  0.61119349482E+02  0.10566000000E+00 0. -1.
         22    1    1    0    0    0  0.15964489365E+02 -0.15847526495E+02 -0.26452709371E+02  0.34723980903E+02  0.00000000000E+00 0. -1.
</event>
<event>
 5    1  0.2377303E-009  0.9118800E+02  0.7815553E-02  0.1125453E+00
         25   -1    0    0    0    0  0.00000000000E+00  0.00000000000E+00  0.99999998245E-14  0.12509000000E+03  0.12509000000E+03 0.  0.
        -13    1    3    3    0    0 -0.63540924115E+01 -0.56524119702E+02  0.22162980660E+01  0.56923402390E+02  0.10566000000E+00 0. -1.
         23    2    1    0    0    0  0.15325824501E+02 -0.26215890856E+02 -0.31012413673E+01  0.94565067109E+02  0.89502963019E+02 0.  0.
         13    1    3    3    0    0  0.21679916913E+02  0.30308228846E+02 -0.53175394333E+01  0.37641664719E+02  0.10566000000E+00 0.  1.
         22    1    1    0    0    0 -0.15325824501E+02  0.26215890856E+02  0.31012413673E+01  0.30524932891E+02  0.00000000000E+00 0. -1.
</event>
<event>
 5    1  0.2377303E-009  0.9118800E+02  0.7815553E-02  0.1125453E+00
         25   -1    0    0    0    0  0.00000000000E+00  0.00000000000E+00  0.99999998245E-14  0.12509000000E+03  0.12509000000E+03 0.  0.
        -13    1    3    3    0    0 -0.25938827158E+02  0.37964384317E+02  0.14460003887E+02  0.48199793645E+02  0.10566000000E+00 0. -1.
         23    2    1    0    0    0 -0.14863592982E+02  0.12068934751E+02 -0.23061879001E+02  0.95116080580E+02  0.90269778660E+02 0.  0.
         13    1    3    3    0    0  0.11075234177E+02 -0.25895449566E+02 -0.37521882888E+02  0.46916286935E+02  0.10566000000E+00 0.  1.
         22    1    1    0    0    0  0.14863592982E+02 -0.12068934751E+02  0.23061879001E+02  0.29973919420E+02  0.00000000000E+00 0.  1.
</event>
<event>
 5    1  0.2377303E-009  0.9118800E+02  0.7815553E-02  0.1125453E+00
         25   -1    0    0    0    0  0.00000000000E+00  0.00000000000E+00  0.99999998245E-14  0.12509000000E+03  0.12509000000E+03 0.  0.
        -13    1    3    3    0    0  0.25963601060E+02 -0.27615716505E+02  0.90451983116E+01  0.38968745869E+02  0.10566000000E+00 0. -1.
         23    2    1    0    0    0  0.12346702149E+02  0.22715382417E+02 -0.13672250899E+02  0.95843460086E+02  0.91272168509E+02 0.  0.
         13    1    3    3    0    0 -0.13616898911E+02  0.50331098922E+02 -0.22717449210E+02  0.56874714217E+02  0.10566000000E+00 0.  1.
         22    1    1    0    0    0 -0.12346702149E+02 -0.22715382417E+02  0.13672250899E+02  0.29246539914E+02  0.00000000000E+00 0.  1.
</event>
<event>
 5    1  0.2377303E-009  0.9118800E+02  0.7815553E-02  0.1125453E+00
         25   -1    0    0    0    0  0.00000000000E+00  0.00000000000E+00  0.99999998245E-14  0.12509000000E+03  0.12509000000E+03 0.  0.
        -13    1    3    3    0    0  0.16466107215E+02 -0.36880308136E+02 -0.44480337423E+02  0.60081622784E+02  0.10566000000E+00 0.  1.
         23    2    1    0    0    0 -0.20496160716E+01 -0.23422250261E+02 -0.15863126533E+02  0.96727321764E+02  0.92475581960E+02 0.  0.
         13    1    3    3    0    0 -0.18515723287E+02  0.13458057875E+02  0.28617210889E+02  0.36645698980E+02  0.10566000000E+00 0. -1.
         22    1    1    0    0    0  0.20496160716E+01  0.23422250261E+02  0.15863126533E+02  0.28362678236E+02  0.00000000000E+00 0.  1.
</event>
<event>
 5    1  0.2377303E-009  0.9118800E+02  0.7815553E-02  0.1125453E+00
         25   -1    0    0    0    0  0.00000000000E+00  0.00000000000E+00  0.99999998245E-14  0.12509000000E+03  0.12509000000E+03 0.  0.
        -13    1    3    3    0    0  0.84715460487E+01 -0.18964840866E+02 -0.37260785979E+02  0.42659226638E+02  0.10566000000E+00 0.  1.
         23    2    1    0    0    0 -0.14001598365E+02  0.22319058171E+02 -0.10666954112E+02  0.96665204057E+02  0.92391518284E+02 0.  0.
         13    1    3    3    0    0 -0.22473144414E+02  0.41283899037E+02  0.26593831867E+02  0.54005977419E+02  0.10566000000E+00 0. -1.
         22    1    1    0    0    0  0.14001598365E+02 -0.22319058171E+02  0.10666954112E+02  0.28424795943E+02  0.00000000000E+00 0. -1.
</event>
<event>
 5    1  0.2377303E-009  0.9118800E+02  0.7815553E-02  0.1125453E+00
         25   -1    0    0    0    0  0.00000000000E+00  0.00000000000E+00  0.99999998245E-14  0.12509000000E+03  0.12509000000E+03 0.  0.
        -13    1    3    3    0    0  0.18233694996E+02 -0.85720846996E+01 -0.48557798129E+02  0.52572038124E+02  0.10566000000E+00 0. -1.
         23    2    1    0    0    0  0.23301416924E+02 -0.15395989948E+02 -0.52923607979E+01  0.96664630698E+02  0.92390742004E+02 0.  0.
         13    1    3    3    0    0  0.50677219281E+01 -0.68239052479E+01  0.43265437331E+02  0.44092592574E+02  0.10566000000E+00 0.  1.
         22    1    1    0    0    0 -0.23301416924E+02  0.15395989948E+02  0.52923607979E+01  0.28425369302E+02  0.00000000000E+00 0.  1.
</event>
<event>
 5    1  0.2377303E-009  0.9118800E+02  0.7815553E-02  0.1125453E+00
         25   -1    0    0    0    0  0.00000000000E+00  0.00000000000E+00  0.99999998245E-14  0.12509000000E+03  0.12509000000E+03 0.  0.
        -13    1    3    3    0    0  0.38020924877E+02  0.15235886388E+02  0.24073176517E+02  0.47510545715E+02  0.10566000000E+00 0.  1.
         23    2    1    0    0    0 -0.97661892622E+01 -0.53087114205E+01  0.23007695541E+02  0.99537800022E+02  0.96202176220E+02 0.  0.
         13    1    3    3    0    0 -0.47787114139E+02 -0.20544597809E+02 -0.10654809760E+01  0.52027254306E+02  0.10566000000E+00 0. -1.
         22    1    1    0    0    0  0.97661892622E+01  0.53087114205E+01 -0.23007695541E+02  0.25552199978E+02  0.00000000000E+00 0.  1.
</event>
<event>
 5    1  0.2377303E-009  0.9118800E+02  0.7815553E-02  0.1125453E+00
         25   -1    0    0    0    0  0.00000000000E+00  0.00000000000E+00  0.99999998245E-14  0.12509000000E+03  0.12509000000E+03 0.  0.
        -13    1    3    3    0    0  0.40806426877E+02  0.10986617489E+01 -0.33386214355E+02  0.52735396131E+02  0.10566000000E+00 0.  1.
         23    2    1    0    0    0  0.94372407403E+01  0.23358732910E+02 -0.17824492411E+02  0.94228949375E+02  0.89031963107E+02 0.  0.
         13    1    3    3    0    0 -0.31369186136E+02  0.22260071161E+02  0.15561721944E+02  0.41493553244E+02  0.10566000000E+00 0. -1.
         22    1    1    0    0    0 -0.94372407403E+01 -0.23358732910E+02  0.17824492411E+02  0.30861050625E+02  0.00000000000E+00 0.  1.
</event>
<event>
 5    1  0.2377303E-009  0.9118800E+02  0.7815553E-02  0.1125453E+00
         25   -1    0    0    0    0  0.00000000000E+00  0.00000000000E+00  0.99999998245E-14  0.12509000000E+03  0.12509000000E+03 0.  0.
        -13    1    3    3    0    0 -0.59954240573E+01 -0.29432050988E+02  0.13599396374E+02  0.32971889251E+02  0.10566000000E+00 0.  1.
         23    2    1    0    0    0 -0.25649526181E+01  0.29472638453E+02 -0.55170660568E+01  0.94995923885E+02  0.90103119466E+02 0.  0.
         13    1    3    3    0    0  0.34304714391E+01  0.58904689441E+02 -0.19116462431E+02  0.62024034635E+02  0.10566000000E+00 0. -1.
         22    1    1    0    0    0  0.25649526181E+01 -0.29472638453E+02  0.55170660568E+01  0.30094076115E+02  0.00000000000E+00 0. -1.
</event>
<event>
 5    1  0.2377303E-009  0.9118800E+02  0.7815553E-02  0.1125453E+00
         25   -1    0    0    0    0  0.00000000000E+00  0.00000000000E+00  0.99999998245E-14  0.12509000000E+03  0.12509000000E+03 0.  0.
        -13    1    3    3    0    0  0.28685074937E+02 -0.24747554846E+01 -0.28364274889E+02  0.40416595513E+02  0.10566000000E+00 0.  1.
         23    2    1    0    0    0 -0.12087725854E+02  0.25984859579E+02 -0.28886273851E+01  0.96286003544E+02  0.91876679667E+02 0.  0.
         13    1    3    3    0    0 -0.40772800791E+02  0.28459615064E+02  0.25475647504E+02  0.55869408031E+02  0.10566000000E+00 0. -1.
         22    1    1    0    0    0  0.12087725854E+02 -0.25984859579E+02  0.28886273851E+01  0.28803996456E+02  0.00000000000E+00 0. -1.
</event>
<event>
 5    1  0.2377303E-009  0.9118800E+02  0.7815553E-02  0.1125453E+00
         25   -1    0    0    0    0  0.00000000000E+00  0.00000000000E+00  0.99999998245E-14  0.12509000000E+03  0.12509000000E+03 0.  0.
        -13    1    3    3    0    0 -0.29387824673E+01  0.34098008315E+02 -0.14701456766E+02  0.37248551764E+02  0.10566000000E+00 0.  1.
         23    2    1    0    0    0  0.14263259781E+02 -0.20158353230E+02 -0.18411806451E+02  0.94287493587E+02  0.89114179824E+02 0.  0.
         13    1    3    3    0    0  0.17202042248E+02 -0.54256361544E+02 -0.37103496853E+01  0.57038941823E+02  0.10566000000E+00 0. -1.
         22    1    1    0    0    0 -0.14263259781E+02  0.20158353230E+02  0.18411806451E+02  0.30802506413E+02  0.00000000000E+00 0. -1.
</event>
<event>
 5    1  0.2377303E-009  0.9118800E+02  0.7815553E-02  0.1125453E+00
         25   -1    0    0    0    0  0.00000000000E+00  0.00000000000E+00  0.99999998245E-14  0.12509000000E+03  0.12509000000E+03 0.  0.
        -13    1    3    3    0    0  0.36609607861E+01 -0.87452429810E+01 -0.33278776366E+02  0.34603034970E+02  0.10566000000E+00 0.  1.
         23    2    1    0    0    0 -0.16353752715E+02  0.19146301737E+02  0.16437125437E+02  0.95019995167E+02  0.90136531389E+02 0.  0.
         13    1    3    3    0    0 -0.20014713501E+02  0.27891544718E+02  0.49715901803E+02  0.60416960197E+02  0.10566000000E+00 0. -1.
         22    1    1    0    0    0  0.16353752715E+02 -0.19146301737E+02 -0.16437125437E+02  0.30070004833E+02  0.00000000000E+00 0. -1.
</event>
<event>
 5    1  0.2377303E-009  0.9118800E+02  0.7815553E-02  0.1125453E+00
         25   -1    0    0    0    0  0.00000000000E+00  0.00000000000E+00  0.99999998245E-14  0.12509000000E+03  0.12509000000E+03 0.  0.
        -13    1    3    3    0    0 -0.24464361760E+01  0.19325375686E+02 -0.27404696503E+02  0.33622667203E+02  0.10566000000E+00 0.  1.
         23    2    1    0    0    0  0.19332989490E+02 -0.16661040402E+02  0.16715645900E+02  0.94581516462E+02  0.89525949805E+02 0.  0.
         13    1    3    3    0    0  0.21779425666E+02 -0.35986416088E+02  0.44120342403E+02  0.60958849259E+02  0.10566000000E+00 0. -1.
         22    1    1    0    0    0 -0.19332989490E+02  0.16661040402E+02 -0.16715645900E+02  0.30508483538E+02  0.00000000000E+00 0. -1.
</event>
<event>
 5    1  0.2377303E-009  0.9118800E+02  0.7815553E-02  0.1125453E+00
         25   -1    0    0    0    0  0.00000000000E+00  0.00000000000E+00  0.99999998245E-14  0.12509000000E+03  0.12509000000E+03 0.  0.
        -13    1    3    3    0    0 -0.23711710186E+02 -0.94399284219E+01 -0.29327123372E+02  0.38877355593E+02  0.10566000000E+00 0.  1.
         23    2    1    0    0    0 -0.77979236727E+00  0.30272689324E+02  0.25096111806E+01  0.94703457858E+02  0.89696170414E+02 0.  0.
         13    1    3    3    0    0  0.22931917819E+02  0.39712617746E+02  0.31836734553E+02  0.55826102265E+02  0.10566000000E+00 0. -1.
         22    1    1    0    0    0  0.77979236727E+00 -0.30272689324E+02 -0.25096111806E+01  0.30386542142E+02  0.00000000000E+00 0.  1.
</event>
<event>
 5    1  0.2377303E-009  0.9118800E+02  0.7815553E-02  0.1125453E+00
         25   -1    0    0    0    0  0.00000000000E+00  0.00000000000E+00  0.99999998245E-14  0.12509000000E+03  0.12509000000E+03 0.  0.
        -13    1    3    3    0    0  0.24982201813E+02  0.12152774822E+02  0.28117074795E+02  0.39526970570E+02  0.10566000000E+00 0. -1.
         23    2    1    0    0    0  0.12205279965E+02 -0.23387900490E+02 -0.13272583750E+02  0.95558250513E+02  0.90880443515E+02 0.  0.
         13    1    3    3    0    0 -0.12776921849E+02 -0.35540675312E+02 -0.41389658546E+02  0.56031279944E+02  0.10566000000E+00 0.  1.
         22    1    1    0    0    0 -0.12205279965E+02  0.23387900490E+02  0.13272583750E+02  0.29531749487E+02  0.00000000000E+00 0.  1.
</event>
<event>
 5    1  0.2377303E-009  0.9118800E+02  0.7815553E-02  0.1125453E+00
         25   -1    0    0    0    0  0.00000000000E+00  0.00000000000E+00  0.99999998245E-14  0.12509000000E+03  0.12509000000E+03 0.  0.
        -13    1    3    3    0    0 -0.52377494923E+02 -0.82190725360E+01 -0.20099843936E+02  0.56700705622E+02  0.10566000000E+00 0. -1.
         23    2    1    0    0    0 -0.19230158611E+02 -0.20741941121E+02 -0.16567014951E+02  0.92310538350E+02  0.86294509584E+02 0.  0.
         13    1    3    3    0    0  0.33147336312E+02 -0.12522868585E+02  0.35328289849E+01  0.35609832727E+02  0.10566000000E+00 0.  1.
         22    1    1    0    0    0  0.19230158611E+02  0.20741941121E+02  0.16567014951E+02  0.32779461650E+02  0.00000000000E+00 0. -1.
</event>
<event>
 5    1  0.2377303E-009  0.9118800E+02  0.7815553E-02  0.1125453E+00
         25   -1    0    0    0    0  0.00000000000E+00  0.00000000000E+00  0.99999998245E-14  0.12509000000E+03  0.12509000000E+03 0.  0.
        -13    1    3    3    0    0  0.89252203107E+01  0.38954362882E+02  0.38069616037E+02  0.55194282081E+02  0.10566000000E+00 0.  1.
         23    2    1    0    0    0 -0.77181924200E+01  0.69369395544E+01  0.31567594728E+02  0.91860424897E+02  0.85639552782E+02 0.  0.
         13    1    3    3    0    0 -0.16643412731E+02 -0.32017423328E+02 -0.65020213088E+01  0.36666142816E+02  0.10566000000E+00 0. -1.
         22    1    1    0    0    0  0.77181924200E+01 -0.69369395544E+01 -0.31567594728E+02  0.33229575103E+02  0.00000000000E+00 0.  1.
</event>
<event>
 5    1  0.2377303E-009  0.9118800E+02  0.7815553E-02  0.1125453E+00
         25   -1    0    0    0    0  0.00000000000E+00  0.00000000000E+00  0.99999998245E-14  0.12509000000E+03  0.12509000000E+03 0.  0.
        -13    1    3    3    0    0 -0.87983710483E+01 -0.22920576174E+02 -0.25027195474E+02  0.35059033395E+02  0.10566000000E+00 0.  1.
         23    2    1    0    0    0  0.17506040291E+02  0.49381212488E+01  0.22532260400E+02  0.96132285193E+02  0.91667153384E+02 0.  0.
         13    1    3    3    0    0  0.26304411340E+02  0.27858697423E+02  0.47559455874E+02  0.61073251797E+02  0.10566000000E+00 0. -1.
         22    1    1    0    0    0 -0.17506040291E+02 -0.49381212488E+01 -0.22532260400E+02  0.28957714807E+02  0.00000000000E+00 0. -1.
</event>
<event>
 5    1  0.2377303E-009  0.9118800E+02  0.7815553E-02  0.1125453E+00
         25   -1    0    0    0    0  0.00000000000E+00  0.00000000000E+00  0.99999998245E-14  0.12509000000E+03  0.12509000000E+03 0.  0.
        -13    1    3    3    0    0 -0.32305778128E+02  0.29681888260E+02 -0.11722953641E+02  0.45410533989E+02  0.10566000000E+00 0.  1.
         23    2    1    0    0    0  0.14521261264E+01 -0.29021936935E+01 -0.29372529388E+02  0.95538741462E+02  0.90853586825E+02 0.  0.
         13    1    3    3    0    0  0.33757904254E+02 -0.32584081953E+02 -0.17649575747E+02  0.50128207473E+02  0.10566000000E+00 0. -1.
         22    1    1    0    0    0 -0.14521261264E+01  0.29021936935E+01  0.29372529388E+02  0.29551258538E+02  0.00000000000E+00 0.  1.
</event>
<event>
 5    1  0.2377303E-009  0.9118800E+02  0.7815553E-02  0.1125453E+00
         25   -1    0    0    0    0  0.00000000000E+00  0.00000000000E+00  0.99999998245E-14  0.12509000000E+03  0.12509000000E+03 0.  0.
        -13    1    3    3    0    0 -0.37900708643E+02  0.88671605987E+01 -0.17463185364E+02  0.42662211145E+02  0.10566000000E+00 0. -1.
         23    2    1    0    0    0  0.14121884563E+02  0.11994079276E+02 -0.23541323529E+02  0.95132038207E+02  0.90291888997E+02 0.  0.
         13    1    3    3    0    0  0.52022593206E+02  0.31269186776E+01 -0.60781381649E+01  0.52469827061E+02  0.10566000000E+00 0.  1.
         22    1    1    0    0    0 -0.14121884563E+02 -0.11994079276E+02  0.23541323529E+02  0.29957961793E+02  0.00000000000E+00 0. -1.
</event>
<event>
 5    1  0.2377303E-009  0.9118800E+02  0.7815553E-02  0.1125453E+00
         25   -1    0    0    0    0  0.00000000000E+00  0.00000000000E+00  0.99999998245E-14  0.12509000000E+03  0.12509000000E+03 0.  0.
        -13    1    3    3    0    0 -0.14572444458E+02 -0.26775583323E+01  0.32202171091E+02  0.35447375687E+02  0.10566000000E+00 0. -1.
         23    2    1    0    0    0  0.25136370548E+02 -0.10571074297E+02 -0.11920196222E+02  0.95329693985E+02  0.90565306499E+02 0.  0.
         13    1    3    3    0    0  0.39708815006E+02 -0.78935159648E+01 -0.44122367313E+02  0.59882318298E+02  0.10566000000E+00 0.  1.
         22    1    1    0    0    0 -0.25136370548E+02  0.10571074297E+02  0.11920196222E+02  0.29760306015E+02  0.00000000000E+00 0.  1.
</event>
<event>
 5    1  0.2377303E-009  0.9118800E+02  0.7815553E-02  0.1125453E+00
         25   -1    0    0    0    0  0.00000000000E+00  0.00000000000E+00  0.99999998245E-14  0.12509000000E+03  0.12509000000E+03 0.  0.
        -13    1    3    3    0    0 -0.22790737645E+02 -0.20152828165E+02  0.26987581764E+02  0.40668107148E+02  0.10566000000E+00 0. -1.
         23    2    1    0    0    0  0.19579684308E+02  0.82882383746E+01 -0.78157769404E+01  0.10243728930E+03  0.99901215891E+02 0.  0.
         13    1    3    3    0    0  0.42370421953E+02  0.28441066540E+02 -0.34803358705E+02  0.61769182151E+02  0.10566000000E+00 0.  1.
         22    1    1    0    0    0 -0.19579684308E+02 -0.82882383746E+01  0.78157769404E+01  0.22652710702E+02  0.00000000000E+00 0.  1.
</event>
<event>
 5    1  0.2377303E-009  0.9118800E+02  0.7815553E-02  0.1125453E+00
         25   -1    0    0    0    0  0.00000000000E+00  0.00000000000E+00  0.99999998245E-14  0.12509000000E+03  0.12509000000E+03 0.  0.
        -13    1    3    3    0    0  0.15598320092E+02 -0.34658830318E+02  0.10074351862E+02  0.39319789396E+02  0.10566000000E+00 0. -1.
         23    2    1    0    0    0 -0.28320915758E+02 -0.44292629916E+01 -0.75018458012E+01  0.95459435874E+02  0.90744330770E+02 0.  0.
         13    1    3    3    0    0 -0.43919235849E+02  0.30229567326E+02 -0.17576197663E+02  0.56139646478E+02  0.10566000000E+00 0.  1.
         22    1    1    0    0    0  0.28320915758E+02  0.44292629916E+01  0.75018458012E+01  0.29630564126E+02  0.00000000000E+00 0.  1.
</event>
<event>
 5    1  0.2377303E-009  0.9118800E+02  0.7815553E-02  0.1125453E+00
         25   -1    0    0    0    0  0.00000000000E+00  0.00000000000E+00  0.99999998245E-14  0.12509000000E+03  0.12509000000E+03 0.  0.
        -13    1    3    3    0    0 -0.43779455546E+02  0.11449975389E+02 -0.53829337861E+01  0.45571151011E+02  0.10566000000E+00 0.  1.
         23    2    1    0    0    0 -0.15142096957E+01  0.20388419193E+02  0.20668285271E+02  0.96018390409E+02  0.91511599333E+02 0.  0.
         13    1    3    3    0    0  0.42265245850E+02  0.89384438043E+01  0.26051219057E+02  0.50447239397E+02  0.10566000000E+00 0. -1.
         22    1    1    0    0    0  0.15142096957E+01 -0.20388419193E+02 -0.20668285271E+02  0.29071609591E+02  0.00000000000E+00 0.  1.
</event>
<event>
 5    1  0.2377303E-009  0.9118800E+02  0.7815553E-02  0.1125453E+00
         25   -1    0    0    0    0  0.00000000000E+00  0.00000000000E+00  0.99999998245E-14  0.12509000000E+03  0.12509000000E+03 0.  0.
        -13    1    3    3    0    0  0.63809147611E+01  0.31534818249E+01 -0.35309968090E+02  0.36020348851E+02  0.10566000000E+00 0.  1.
         23    2    1    0    0    0 -0.22099259151E+01 -0.23407271964E+02  0.17517632976E+02  0.95770183861E+02  0.91171686934E+02 0.  0.
         13    1    3    3    0    0 -0.85908406762E+01 -0.26560753789E+02  0.52827601066E+02  0.59749835010E+02  0.10566000000E+00 0. -1.
         22    1    1    0    0    0  0.22099259151E+01  0.23407271964E+02 -0.17517632976E+02  0.29319816139E+02  0.00000000000E+00 0. -1.
</event>
<event>
 5    1  0.2377303E-009  0.9118800E+02  0.7815553E-02  0.1125453E+00
         25   -1    0    0    0    0  0.00000000000E+00  0.00000000000E+00  0.99999998245E-14  0.12509000000E+03  0.12509000000E+03 0.  0.
        -13    1    3    3    0    0 -0.53867849618E+02 -0.17385541115E+02  0.28805623079E+01  0.56677253511E+02  0.10566000000E+00 0.  1.
         23    2    1    0    0    0 -0.15633001922E+02 -0.19110948835E+02  0.14222311094E+02  0.96596259507E+02  0.92298126218E+02 0.  0.
         13    1    3    3    0    0  0.38234847696E+02 -0.17254077191E+01  0.11341748786E+02  0.39919005996E+02  0.10566000000E+00 0. -1.
         22    1    1    0    0    0  0.15633001922E+02  0.19110948835E+02 -0.14222311094E+02  0.28493740493E+02  0.00000000000E+00 0.  1.
</event>
<event>
 5    1  0.2377303E-009  0.9118800E+02  0.7815553E-02  0.1125453E+00
         25   -1    0    0    0    0  0.00000000000E+00  0.00000000000E+00  0.99999998245E-14  0.12509000000E+03  0.12509000000E+03 0.  0.
        -13    1    3    3    0    0  0.39496428986E+02  0.93075505681E+00 -0.24193649430E+02  0.46326860938E+02  0.10566000000E+00 0.  1.
         23    2    1    0    0    0  0.32097042829E+02 -0.29509740160E+02 -0.15124708247E+02  0.78940225112E+02  0.64044964037E+02 0.  0.
         13    1    3    3    0    0 -0.73993861572E+01 -0.30440495216E+02  0.90689411826E+01  0.32613364174E+02  0.10566000000E+00 0. -1.
         22    1    1    0    0    0 -0.32097042829E+02  0.29509740160E+02  0.15124708247E+02  0.46149774888E+02  0.00000000000E+00 0.  1.
</event>
<event>
 5    1  0.2377303E-009  0.9118800E+02  0.7815553E-02  0.1125453E+00
         25   -1    0    0    0    0  0.00000000000E+00  0.00000000000E+00  0.99999998245E-14  0.12509000000E+03  0.12509000000E+03 0.  0.
        -13    1    3    3    0    0 -0.22303225306E+02 -0.17327985422E+02 -0.28682627478E+02  0.40254157809E+02  0.10566000000E+00 0. -1.
         23    2    1    0    0    0  0.27519237005E+02 -0.54280823013E+01 -0.53809419427E+01  0.96529064809E+02  0.92207013474E+02 0.  0.
         13    1    3    3    0    0  0.49822462311E+02  0.11899903121E+02  0.23301685535E+02  0.56274907000E+02  0.10566000000E+00 0.  1.
         22    1    1    0    0    0 -0.27519237005E+02  0.54280823013E+01  0.53809419427E+01  0.28560935191E+02  0.00000000000E+00 0.  1.
</event>
<event>
 5    1  0.2377303E-009  0.9118800E+02  0.7815553E-02  0.1125453E+00
         25   -1    0    0    0    0  0.00000000000E+00  0.00000000000E+00  0.99999998245E-14  0.12509000000E+03  0.12509000000E+03 0.  0.
        -13    1    3    3    0    0  0.16045300208E+02 -0.21458372296E+02 -0.49741792442E+02  0.56499296276E+02  0.10566000000E+00 0.  1.
         23    2    1    0    0    0 -0.65938000187E+01 -0.22281441940E+02 -0.17068151824E+02  0.96258373957E+02  0.91839054310E+02 0.  0.
         13    1    3    3    0    0 -0.22639100227E+02 -0.82306964419E+00  0.32673640618E+02  0.39759077681E+02  0.10566000000E+00 0. -1.
         22    1    1    0    0    0  0.65938000187E+01  0.22281441940E+02  0.17068151824E+02  0.28831626043E+02  0.00000000000E+00 0.  1.
</event>
<event>
 5    1  0.2377303E-009  0.9118800E+02  0.7815553E-02  0.1125453E+00
         25   -1    0    0    0    0  0.00000000000E+00  0.00000000000E+00  0.99999998245E-14  0.12509000000E+03  0.12509000000E+03 0.  0.
        -13    1    3    3    0    0  0.32126869985E+02 -0.26363213246E+02 -0.16798877777E+02  0.44825977360E+02  0.10566000000E+00 0.  1.
         23    2    1    0    0    0 -0.17655311689E+02 -0.22434311200E+02 -0.59222304477E+01  0.95933848619E+02  0.91395963519E+02 0.  0.
         13    1    3    3    0    0 -0.49782181674E+02  0.39289020460E+01  0.10876647329E+02  0.51107871259E+02  0.10566000000E+00 0. -1.
         22    1    1    0    0    0  0.17655311689E+02  0.22434311200E+02  0.59222304477E+01  0.29156151381E+02  0.00000000000E+00 0.  1.
</event>
<event>
 5    1  0.2377303E-009  0.9118800E+02  0.7815553E-02  0.1125453E+00
         25   -1    0    0    0    0  0.00000000000E+00  0.00000000000E+00  0.99999998245E-14  0.12509000000E+03  0.12509000000E+03 0.  0.
        -13    1    3    3    0    0  0.16947577775E+02 -0.22758110699E+02 -0.55007216648E+01  0.28903651982E+02  0.10566000000E+00 0.  1.
         23    2    1    0    0    0  0.17734098733E+02  0.32506594445E+02 -0.15278765092E+02  0.85032321547E+02  0.75005853803E+02 0.  0.
         13    1    3    3    0    0  0.78652095814E+00  0.55264705144E+02 -0.97780434275E+01  0.56128669565E+02  0.10566000000E+00 0. -1.
         22    1    1    0    0    0 -0.17734098733E+02 -0.32506594445E+02  0.15278765092E+02  0.40057678453E+02  0.00000000000E+00 0. -1.
</event>
<event>
 5    1  0.2377303E-009  0.9118800E+02  0.7815553E-02  0.1125453E+00
         25   -1    0    0    0    0  0.00000000000E+00  0.00000000000E+00  0.99999998245E-14  0.12509000000E+03  0.12509000000E+03 0.  0.
        -13    1    3    3    0    0 -0.14107216480E+02 -0.39470241244E+02  0.11404254049E+02  0.43439402334E+02  0.10566000000E+00 0.  1.
         23    2    1    0    0    0  0.26784687290E+02 -0.81090493025E+01  0.11127869206E+02  0.94973465889E+02  0.90071935674E+02 0.  0.
         13    1    3    3    0    0  0.40891903769E+02  0.31361191942E+02 -0.27638484275E+00  0.51534063555E+02  0.10566000000E+00 0. -1.
         22    1    1    0    0    0 -0.26784687290E+02  0.81090493025E+01 -0.11127869206E+02  0.30116534111E+02  0.00000000000E+00 0. -1.
</event>
<event>
 5    1  0.2377303E-009  0.9118800E+02  0.7815553E-02  0.1125453E+00
         25   -1    0    0    0    0  0.00000000000E+00  0.00000000000E+00  0.99999998245E-14  0.12509000000E+03  0.12509000000E+03 0.  0.
        -13    1    3    3    0    0 -0.19336670558E+02  0.34855454692E+02 -0.65364329192E+00  0.39865372990E+02  0.10566000000E+00 0.  1.
         23    2    1    0    0    0 -0.22334409001E+02 -0.19109501259E+02  0.80590202332E+01  0.94611373540E+02  0.89567657847E+02 0.  0.
         13    1    3    3    0    0 -0.29977384435E+01 -0.53964955950E+02  0.87126635252E+01  0.54746000550E+02  0.10566000000E+00 0. -1.
         22    1    1    0    0    0  0.22334409001E+02  0.19109501259E+02 -0.80590202332E+01  0.30478626460E+02  0.00000000000E+00 0. -1.
</event>
<event>
 5    1  0.2377303E-009  0.9118800E+02  0.7815553E-02  0.1125453E+00
         25   -1    0    0    0    0  0.00000000000E+00  0.00000000000E+00  0.99999998245E-14  0.12509000000E+03  0.12509000000E+03 0.  0.
        -13    1    3    3    0    0 -0.38297142842E+02 -0.26996640015E+02 -0.71496697273E+01  0.47398509082E+02  0.10566000000E+00 0. -1.
         23    2    1    0    0    0 -0.21454359973E+02  0.16972785160E+02 -0.12920740561E+02  0.94835900533E+02  0.89880684773E+02 0.  0.
         13    1    3    3    0    0  0.16842782869E+02  0.43969425176E+02 -0.57710708333E+01  0.47437391451E+02  0.10566000000E+00 0.  1.
         22    1    1    0    0    0  0.21454359973E+02 -0.16972785160E+02  0.12920740561E+02  0.30254099467E+02  0.00000000000E+00 0.  1.
</event>
<event>
 5    1  0.2377303E-009  0.9118800E+02  0.7815553E-02  0.1125453E+00
         25   -1    0    0    0    0  0.00000000000E+00  0.00000000000E+00  0.99999998245E-14  0.12509000000E+03  0.12509000000E+03 0.  0.
        -13    1    3    3    0    0  0.13436029710E+02  0.11755545328E+02 -0.45326191235E+02  0.48715444329E+02  0.10566000000E+00 0.  1.
         23    2    1    0    0    0  0.69215580053E+00  0.28445896548E+02 -0.23610734354E+01  0.96537893635E+02  0.92218990071E+02 0.  0.
         13    1    3    3    0    0 -0.12743873910E+02  0.16690351220E+02  0.42965117799E+02  0.47822449306E+02  0.10566000000E+00 0. -1.
         22    1    1    0    0    0 -0.69215580053E+00 -0.28445896548E+02  0.23610734354E+01  0.28552106365E+02  0.00000000000E+00 0. -1.
</event>
<event>
 5    1  0.2377303E-009  0.9118800E+02  0.7815553E-02  0.1125453E+00
         25   -1    0    0    0    0  0.00000000000E+00  0.00000000000E+00  0.99999998245E-14  0.12509000000E+03  0.12509000000E+03 0.  0.
        -13    1    3    3    0    0 -0.10164437539E+02 -0.42388949436E+02  0.43569581154E+02  0.61631634659E+02  0.10566000000E+00 0. -1.
         23    2    1    0    0    0  0.63993901303E+00 -0.15645153272E+02  0.23802500416E+02  0.96598959849E+02  0.92301785871E+02 0.  0.
         13    1    3    3    0    0  0.10804376552E+02  0.26743796165E+02 -0.19767080738E+02  0.34967325190E+02  0.10566000000E+00 0.  1.
         22    1    1    0    0    0 -0.63993901303E+00  0.15645153272E+02 -0.23802500416E+02  0.28491040151E+02  0.00000000000E+00 0. -1.
</event>
<event>
 5    1  0.2377303E-009  0.9118800E+02  0.7815553E-02  0.1125453E+00
         25   -1    0    0    0    0  0.00000000000E+00  0.00000000000E+00  0.99999998245E-14  0.12509000000E+03  0.12509000000E+03 0.  0.
        -13    1    3    3    0    0 -0.29766755176E+02  0.16651073484E+02  0.52001633414E+02  0.62189219352E+02  0.10566000000E+00 0.  1.
         23    2    1    0    0    0 -0.97815450969E+01  0.10591803317E+02  0.19094215894E+02  0.10116398899E+03  0.98293940132E+02 0.  0.
         13    1    3    3    0    0  0.19985210080E+02 -0.60592701664E+01 -0.32907417519E+02  0.38974769643E+02  0.10566000000E+00 0. -1.
         22    1    1    0    0    0  0.97815450969E+01 -0.10591803317E+02 -0.19094215894E+02  0.23926011005E+02  0.00000000000E+00 0.  1.
</event>
<event>
 5    1  0.2377303E-009  0.9118800E+02  0.7815553E-02  0.1125453E+00
         25   -1    0    0    0    0  0.00000000000E+00  0.00000000000E+00  0.99999998245E-14  0.12509000000E+03  0.12509000000E+03 0.  0.
        -13    1    3    3    0    0 -0.22244043507E+02  0.24621353977E+02 -0.10786364305E+02  0.34890763278E+02  0.10566000000E+00 0. -1.
         23    2    1    0    0    0  0.26409824884E+02 -0.11649522780E+02 -0.32800253800E+01  0.96039203145E+02  0.91540044477E+02 0.  0.
         13    1    3    3    0    0  0.48653868391E+02 -0.36270876756E+02  0.75063389252E+01  0.61148439867E+02  0.10566000000E+00 0.  1.
         22    1    1    0    0    0 -0.26409824884E+02  0.11649522780E+02  0.32800253800E+01  0.29050796855E+02  0.00000000000E+00 0.  1.
</event>
<event>
 5    1  0.2377303E-009  0.9118800E+02  0.7815553E-02  0.1125453E+00
         25   -1    0    0    0    0  0.00000000000E+00  0.00000000000E+00  0.99999998245E-14  0.12509000000E+03  0.12509000000E+03 0.  0.
        -13    1    3    3    0    0 -0.84996731100E+01  0.30461039274E+02 -0.19371502121E+02  0.37086191704E+02  0.10566000000E+00 0. -1.
         23    2    1    0    0    0 -0.87517708728E+01 -0.26977526685E+02 -0.77392591065E+01  0.95691418896E+02  0.91063555165E+02 0.  0.
         13    1    3    3    0    0 -0.25209776274E+00 -0.57438565958E+02  0.11632243015E+02  0.58605227192E+02  0.10566000000E+00 0.  1.
         22    1    1    0    0    0  0.87517708728E+01  0.26977526685E+02  0.77392591065E+01  0.29398581104E+02  0.00000000000E+00 0.  1.
</event>
<event>
 5    1  0.2377303E-009  0.9118800E+02  0.7815553E-02  0.1125453E+00
         25   -1    0    0    0    0  0.00000000000E+00  0.00000000000E+00  0.99999998245E-14  0.12509000000E+03  0.12509000000E+03 0.  0.
        -13    1    3    3    0    0 -0.19518661214E+02  0.20225005467E+02  0.32276080600E+02  0.42799363601E+02  0.10566000000E+00 0. -1.
         23    2    1    0    0    0 -0.26840181901E+02 -0.74241639947E+01 -0.11392910532E+02  0.95001597152E+02  0.90110995309E+02 0.  0.
         13    1    3    3    0    0 -0.73215206874E+01 -0.27649169462E+02 -0.43668991133E+02  0.52202233551E+02  0.10566000000E+00 0.  1.
         22    1    1    0    0    0  0.26840181901E+02  0.74241639947E+01  0.11392910532E+02  0.30088402848E+02  0.00000000000E+00 0.  1.
</event>
<event>
 5    1  0.2377303E-009  0.9118800E+02  0.7815553E-02  0.1125453E+00
         25   -1    0    0    0    0  0.00000000000E+00  0.00000000000E+00  0.99999998245E-14  0.12509000000E+03  0.12509000000E+03 0.  0.
        -13    1    3    3    0    0  0.11370846535E+02  0.39664834695E+02 -0.31889519118E+02  0.52149284328E+02  0.10566000000E+00 0.  1.
         23    2    1    0    0    0  0.27625115761E+02  0.95627361762E+01 -0.55271839730E+01  0.95338652020E+02  0.90577678610E+02 0.  0.
         13    1    3    3    0    0  0.16254269225E+02 -0.30102098519E+02  0.26362335145E+02  0.43189367692E+02  0.10566000000E+00 0. -1.
         22    1    1    0    0    0 -0.27625115761E+02 -0.95627361762E+01  0.55271839730E+01  0.29751347980E+02  0.00000000000E+00 0.  1.
</event>
<event>
 5    1  0.2377303E-009  0.9118800E+02  0.7815553E-02  0.1125453E+00
         25   -1    0    0    0    0  0.00000000000E+00  0.00000000000E+00  0.99999998245E-14  0.12509000000E+03  0.12509000000E+03 0.  0.
        -13    1    3    3    0    0  0.25791905967E+02 -0.19058325301E+02 -0.17670775835E+02  0.36615702361E+02  0.10566000000E+00 0.  1.
         23    2    1    0    0    0 -0.21499860428E+02 -0.83235344186E+01  0.17182962483E+02  0.96336227668E+02  0.91945034330E+02 0.  0.
         13    1    3    3    0    0 -0.47291766395E+02  0.10734790883E+02  0.34853738319E+02  0.59720525307E+02  0.10566000000E+00 0. -1.
         22    1    1    0    0    0  0.21499860428E+02  0.83235344186E+01 -0.17182962483E+02  0.28753772332E+02  0.00000000000E+00 0. -1.
</event>
<event>
 5    1  0.2377303E-009  0.9118800E+02  0.7815553E-02  0.1125453E+00
         25   -1    0    0    0    0  0.00000000000E+00  0.00000000000E+00  0.99999998245E-14  0.12509000000E+03  0.12509000000E+03 0.  0.
        -13    1    3    3    0    0  0.28836478472E+02 -0.63534213202E+01 -0.42678427578E+02  0.51897666592E+02  0.10566000000E+00 0.  1.
         23    2    1    0    0    0  0.17245473895E+02  0.20882737407E+02 -0.31523768306E+02  0.83529886193E+02  0.72456875642E+02 0.  0.
         13    1    3    3    0    0 -0.11591004577E+02  0.27236158727E+02  0.11154659273E+02  0.31632219601E+02  0.10566000000E+00 0. -1.
         22    1    1    0    0    0 -0.17245473895E+02 -0.20882737407E+02  0.31523768306E+02  0.41560113807E+02  0.00000000000E+00 0.  1.
</event>
<event>
 5    1  0.2377303E-009  0.9118800E+02  0.7815553E-02  0.1125453E+00
         25   -1    0    0    0    0  0.00000000000E+00  0.00000000000E+00  0.99999998245E-14  0.12509000000E+03  0.12509000000E+03 0.  0.
        -13    1    3    3    0    0 -0.28957343346E+02  0.30493687066E+02  0.12093776105E+02  0.43756865394E+02  0.10566000000E+00 0.  1.
         23    2    1    0    0    0  0.16304404225E+01  0.14902039539E+02 -0.26024130806E+02  0.95056943169E+02  0.90187792645E+02 0.  0.
         13    1    3    3    0    0  0.30587783769E+02 -0.15591647528E+02 -0.38117906911E+02  0.51300077776E+02  0.10566000000E+00 0. -1.
         22    1    1    0    0    0 -0.16304404225E+01 -0.14902039539E+02  0.26024130806E+02  0.30033056831E+02  0.00000000000E+00 0. -1.
</event>
<event>
 5    1  0.2377303E-009  0.9118800E+02  0.7815553E-02  0.1125453E+00
         25   -1    0    0    0    0  0.00000000000E+00  0.00000000000E+00  0.99999998245E-14  0.12509000000E+03  0.12509000000E+03 0.  0.
        -13    1    3    3    0    0  0.29293681100E+02  0.17967767864E+01  0.16380448733E+02  0.33610689132E+02  0.10566000000E+00 0.  1.
         23    2    1    0    0    0 -0.19133694602E+02 -0.19061397753E+02 -0.14211684633E+02  0.94571036493E+02  0.89511305487E+02 0.  0.
         13    1    3    3    0    0 -0.48427375702E+02 -0.20858174539E+02 -0.30592133366E+02  0.60960347361E+02  0.10566000000E+00 0. -1.
         22    1    1    0    0    0  0.19133694602E+02  0.19061397753E+02  0.14211684633E+02  0.30518963507E+02  0.00000000000E+00 0. -1.
</event>
<event>
 5    1  0.2377303E-009  0.9118800E+02  0.7815553E-02  0.1125453E+00
         25   -1    0    0    0    0  0.00000000000E+00  0.00000000000E+00  0.99999998245E-14  0.12509000000E+03  0.12509000000E+03 0.  0.
        -13    1    3    3    0    0  0.11709868289E+02  0.31060808814E+02 -0.30535116643E+01  0.33335115974E+02  0.10566000000E+00 0.  1.
         23    2    1    0    0    0 -0.11151067034E+02 -0.25905937440E+02  0.81503685508E+01  0.95731996012E+02  0.91119277117E+02 0.  0.
         13    1    3    3    0    0 -0.22860935323E+02 -0.56966746254E+02  0.11203880215E+02  0.62396880038E+02  0.10566000000E+00 0. -1.
         22    1    1    0    0    0  0.11151067034E+02  0.25905937440E+02 -0.81503685508E+01  0.29358003988E+02  0.00000000000E+00 0. -1.
</event>
<event>
 5    1  0.2377303E-009  0.9118800E+02  0.7815553E-02  0.1125453E+00
         25   -1    0    0    0    0  0.00000000000E+00  0.00000000000E+00  0.99999998245E-14  0.12509000000E+03  0.12509000000E+03 0.  0.
        -13    1    3    3    0    0 -0.33212944715E+02  0.20458250512E+02  0.38704788796E+02  0.54951902155E+02  0.10566000000E+00 0. -1.
         23    2    1    0    0    0  0.34458605274E+00  0.18870881383E+01  0.30948591471E+02  0.94082014653E+02  0.88825279769E+02 0.  0.
         13    1    3    3    0    0  0.33557530768E+02 -0.18571162374E+02 -0.77561973247E+01  0.39130112498E+02  0.10566000000E+00 0.  1.
         22    1    1    0    0    0 -0.34458605274E+00 -0.18870881383E+01 -0.30948591471E+02  0.31007985347E+02  0.00000000000E+00 0. -1.
</event>
<event>
 5    1  0.2377303E-009  0.9118800E+02  0.7815553E-02  0.1125453E+00
         25   -1    0    0    0    0  0.00000000000E+00  0.00000000000E+00  0.99999998245E-14  0.12509000000E+03  0.12509000000E+03 0.  0.
        -13    1    3    3    0    0 -0.26018169528E+01 -0.50496660470E+02  0.16936444875E+02  0.53324820666E+02  0.10566000000E+00 0.  1.
         23    2    1    0    0    0  0.19753020699E+02 -0.22327261370E+02 -0.41168040280E+01  0.94996204918E+02  0.90103509624E+02 0.  0.
         13    1    3    3    0    0  0.22354837652E+02  0.28169399100E+02 -0.21053248903E+02  0.41671384252E+02  0.10566000000E+00 0. -1.
         22    1    1    0    0    0 -0.19753020699E+02  0.22327261370E+02  0.41168040280E+01  0.30093795082E+02  0.00000000000E+00 0.  1.
</event>
<event>
 5    1  0.2377303E-009  0.9118800E+02  0.7815553E-02  0.1125453E+00
         25   -1    0    0    0    0  0.00000000000E+00  0.00000000000E+00  0.99999998245E-14  0.12509000000E+03  0.12509000000E+03 0.  0.
        -13    1    3    3    0    0 -0.20785518780E+02 -0.90287164503E+01 -0.28695600421E+02  0.36565067472E+02  0.10566000000E+00 0. -1.
         23    2    1    0    0    0  0.11107520364E+02  0.22990597419E+02  0.11536460967E+02  0.97071532698E+02  0.92940023404E+02 0.  0.
         13    1    3    3    0    0  0.31893039145E+02  0.32019313869E+02  0.40232061388E+02  0.60506465226E+02  0.10566000000E+00 0.  1.
         22    1    1    0    0    0 -0.11107520364E+02 -0.22990597419E+02 -0.11536460967E+02  0.28018467302E+02  0.00000000000E+00 0.  1.
</event>
<event>
 5    1  0.2377303E-009  0.9118800E+02  0.7815553E-02  0.1125453E+00
         25   -1    0    0    0    0  0.00000000000E+00  0.00000000000E+00  0.99999998245E-14  0.12509000000E+03  0.12509000000E+03 0.  0.
        -13    1    3    3    0    0  0.11198683219E+02  0.23444587219E+02 -0.10672650670E+02  0.28088713250E+02  0.10566000000E+00 0.  1.
         23    2    1    0    0    0  0.12369446943E+02  0.40446631572E+00  0.39706805462E+02  0.83499169151E+02  0.72403826130E+02 0.  0.
         13    1    3    3    0    0  0.11707637245E+01 -0.23040120903E+02  0.50379456132E+02  0.55410455901E+02  0.10566000000E+00 0. -1.
         22    1    1    0    0    0 -0.12369446943E+02 -0.40446631572E+00 -0.39706805462E+02  0.41590830849E+02  0.00000000000E+00 0. -1.
</event>
<event>
 5    1  0.2377303E-009  0.9118800E+02  0.7815553E-02  0.1125453E+00
         25   -1    0    0    0    0  0.00000000000E+00  0.00000000000E+00  0.99999998245E-14  0.12509000000E+03  0.12509000000E+03 0.  0.
        -13    1    3    3    0    0  0.98874035714E-01 -0.19275674774E+02 -0.38275658179E+02  0.42855554915E+02  0.10566000000E+00 0. -1.
         23    2    1    0    0    0  0.10469125521E+02  0.25030413806E+02 -0.11776646005E+02  0.95512752062E+02  0.90817796774E+02 0.  0.
         13    1    3    3    0    0  0.10370251486E+02  0.44306088580E+02  0.26499012174E+02  0.52657197147E+02  0.10566000000E+00 0.  1.
         22    1    1    0    0    0 -0.10469125521E+02 -0.25030413806E+02  0.11776646005E+02  0.29577247938E+02  0.00000000000E+00 0.  1.
</event>
<event>
 5    1  0.2377303E-009  0.9118800E+02  0.7815553E-02  0.1125453E+00
         25   -1    0    0    0    0  0.00000000000E+00  0.00000000000E+00  0.99999998245E-14  0.12509000000E+03  0.12509000000E+03 0.  0.
        -13    1    3    3    0    0  0.28328212605E+02  0.46103778023E+02  0.30652990091E+02  0.62190537407E+02  0.10566000000E+00 0.  1.
         23    2    1    0    0    0  0.16521843019E+02  0.17975002003E+02  0.14004896599E+02  0.96943790264E+02  0.92767932758E+02 0.  0.
         13    1    3    3    0    0 -0.11806369586E+02 -0.28128776020E+02 -0.16648093492E+02  0.34753252857E+02  0.10566000000E+00 0. -1.
         22    1    1    0    0    0 -0.16521843019E+02 -0.17975002003E+02 -0.14004896599E+02  0.28146209736E+02  0.00000000000E+00 0.  1.
</event>
<event>
 5    1  0.2377303E-009  0.9118800E+02  0.7815553E-02  0.1125453E+00
         25   -1    0    0    0    0  0.00000000000E+00  0.00000000000E+00  0.99999998245E-14  0.12509000000E+03  0.12509000000E+03 0.  0.
        -13    1    3    3    0    0  0.24683487988E+02 -0.18621985184E+02  0.15488394680E+02  0.34582574301E+02  0.10566000000E+00 0.  1.
         23    2    1    0    0    0 -0.77530820721E+01  0.17066822841E+02 -0.22377457795E+02  0.95898608445E+02  0.91347718969E+02 0.  0.
         13    1    3    3    0    0 -0.32436570060E+02  0.35688808025E+02 -0.37865852475E+02  0.61316034145E+02  0.10566000000E+00 0. -1.
         22    1    1    0    0    0  0.77530820721E+01 -0.17066822841E+02  0.22377457795E+02  0.29191391555E+02  0.00000000000E+00 0. -1.
</event>
<event>
 5    1  0.2377303E-009  0.9118800E+02  0.7815553E-02  0.1125453E+00
         25   -1    0    0    0    0  0.00000000000E+00  0.00000000000E+00  0.99999998245E-14  0.12509000000E+03  0.12509000000E+03 0.  0.
        -13    1    3    3    0    0  0.13127124644E+02  0.84774638604E+01 -0.32721288230E+02  0.36261310821E+02  0.10566000000E+00 0. -1.
         23    2    1    0    0    0  0.99054822591E+01 -0.16358987915E+02  0.21697983009E+02  0.96167041454E+02  0.91714569895E+02 0.  0.
         13    1    3    3    0    0 -0.32216423853E+01 -0.24836451775E+02  0.54419271240E+02  0.59905730634E+02  0.10566000000E+00 0.  1.
         22    1    1    0    0    0 -0.99054822591E+01  0.16358987915E+02 -0.21697983009E+02  0.28922958546E+02  0.00000000000E+00 0.  1.
</event>
<event>
 5    1  0.2377303E-009  0.9118800E+02  0.7815553E-02  0.1125453E+00
         25   -1    0    0    0    0  0.00000000000E+00  0.00000000000E+00  0.99999998245E-14  0.12509000000E+03  0.12509000000E+03 0.  0.
        -13    1    3    3    0    0  0.15718661174E+02 -0.41686255559E+02  0.27176378781E+02  0.52186079938E+02  0.10566000000E+00 0. -1.
         23    2    1    0    0    0  0.16568292567E+02  0.15010567541E+01  0.24514246183E+02  0.95463833257E+02  0.90750392309E+02 0.  0.
         13    1    3    3    0    0  0.84963139271E+00  0.43187312313E+02 -0.26621325981E+01  0.43277753319E+02  0.10566000000E+00 0.  1.
         22    1    1    0    0    0 -0.16568292567E+02 -0.15010567541E+01 -0.24514246183E+02  0.29626166743E+02  0.00000000000E+00 0. -1.
</event>
<event>
 5    1  0.2377303E-009  0.9118800E+02  0.7815553E-02  0.1125453E+00
         25   -1    0    0    0    0  0.00000000000E+00  0.00000000000E+00  0.99999998245E-14  0.12509000000E+03  0.12509000000E+03 0.  0.
        -13    1    3    3    0    0  0.20825257295E+02 -0.30990511301E+02 -0.14652568102E+01  0.37366579635E+02  0.10566000000E+00 0.  1.
         23    2    1    0    0    0 -0.26186293168E+02  0.62782233353E+01 -0.59015505455E+01  0.97522513046E+02  0.93545038424E+02 0.  0.
         13    1    3    3    0    0 -0.47011550463E+02  0.37268734636E+02 -0.44362937353E+01  0.60155933410E+02  0.10566000000E+00 0. -1.
         22    1    1    0    0    0  0.26186293168E+02 -0.62782233353E+01  0.59015505455E+01  0.27567486954E+02  0.00000000000E+00 0. -1.
</event>
<event>
 5    1  0.2377303E-009  0.9118800E+02  0.7815553E-02  0.1125453E+00
         25   -1    0    0    0    0  0.00000000000E+00  0.00000000000E+00  0.99999998245E-14  0.12509000000E+03  0.12509000000E+03 0.  0.
        -13    1    3    3    0    0 -0.18338818173E+02 -0.86946894105E+01 -0.28974484880E+02  0.35375723512E+02  0.10566000000E+00 0. -1.
         23    2    1    0    0    0  0.26443991087E+02 -0.21452622714E+02  0.14651336838E+01  0.91007067283E+02  0.84383884675E+02 0.  0.
         13    1    3    3    0    0  0.44782809260E+02 -0.12757933303E+02  0.30439618564E+02  0.55631343770E+02  0.10566000000E+00 0.  1.
         22    1    1    0    0    0 -0.26443991087E+02  0.21452622714E+02 -0.14651336838E+01  0.34082932717E+02  0.00000000000E+00 0.  1.
</event>
<event>
 5    1  0.2377303E-009  0.9118800E+02  0.7815553E-02  0.1125453E+00
         25   -1    0    0    0    0  0.00000000000E+00  0.00000000000E+00  0.99999998245E-14  0.12509000000E+03  0.12509000000E+03 0.  0.
        -13    1    3    3    0    0  0.35897792329E+02 -0.30700724173E+02  0.26631740109E+02  0.54225885923E+02  0.10566000000E+00 0.  1.
         23    2    1    0    0    0 -0.20781287633E+01 -0.27376292881E+02  0.92954625749E+01  0.96104043822E+02  0.91628606796E+02 0.  0.
         13    1    3    3    0    0 -0.37975921092E+02  0.33244312920E+01 -0.17336277534E+02  0.41878157899E+02  0.10566000000E+00 0. -1.
         22    1    1    0    0    0  0.20781287633E+01  0.27376292881E+02 -0.92954625749E+01  0.28985956178E+02  0.00000000000E+00 0. -1.
</event>
<event>
 5    1  0.2377303E-009  0.9118800E+02  0.7815553E-02  0.1125453E+00
         25   -1    0    0    0    0  0.00000000000E+00  0.00000000000E+00  0.99999998245E-14  0.12509000000E+03  0.12509000000E+03 0.  0.
        -13    1    3    3    0    0 -0.23577064286E+02  0.53579952635E+02 -0.19957418083E+02  0.61846576181E+02  0.10566000000E+00 0.  1.
         23    2    1    0    0    0 -0.18386552211E+02  0.26169067984E+02 -0.12741039111E+02  0.90662983007E+02  0.83872265910E+02 0.  0.
         13    1    3    3    0    0  0.51905120756E+01 -0.27410884650E+02  0.72163789720E+01  0.28816406827E+02  0.10566000000E+00 0. -1.
         22    1    1    0    0    0  0.18386552211E+02 -0.26169067984E+02  0.12741039111E+02  0.34427016993E+02  0.00000000000E+00 0.  1.
</event>
<event>
 5    1  0.2377303E-009  0.9118800E+02  0.7815553E-02  0.1125453E+00
         25   -1    0    0    0    0  0.00000000000E+00  0.00000000000E+00  0.99999998245E-14  0.12509000000E+03  0.12509000000E+03 0.  0.
        -13    1    3    3    0    0 -0.38260125356E+02 -0.48908924881E+00 -0.27809655072E+02  0.47301844359E+02  0.10566000000E+00 0. -1.
         23    2    1    0    0    0  0.10277099239E+02  0.15389853320E+02 -0.17940497265E+02  0.99315442854E+02  0.95912613316E+02 0.  0.
         13    1    3    3    0    0  0.48537224595E+02  0.15878942569E+02  0.98691578073E+01  0.52013598494E+02  0.10566000000E+00 0.  1.
         22    1    1    0    0    0 -0.10277099239E+02 -0.15389853320E+02  0.17940497265E+02  0.25774557146E+02  0.00000000000E+00 0.  1.
</event>
<event>
 5    1  0.2377303E-009  0.9118800E+02  0.7815553E-02  0.1125453E+00
         25   -1    0    0    0    0  0.00000000000E+00  0.00000000000E+00  0.99999998245E-14  0.12509000000E+03  0.12509000000E+03 0.  0.
        -13    1    3    3    0    0 -0.64307800560E+01 -0.49973753349E+02  0.20974433326E+02  0.54577183633E+02  0.10566000000E+00 0.  1.
         23    2    1    0    0    0  0.84511812175E+01 -0.13328827740E+02  0.26231542051E+02  0.94476703686E+02  0.89379380329E+02 0.  0.
         13    1    3    3    0    0  0.14881961274E+02  0.36644925609E+02  0.52571087249E+01  0.39899520053E+02  0.10566000000E+00 0. -1.
         22    1    1    0    0    0 -0.84511812175E+01  0.13328827740E+02 -0.26231542051E+02  0.30613296314E+02  0.00000000000E+00 0. -1.
</event>
<event>
 5    1  0.2377303E-009  0.9118800E+02  0.7815553E-02  0.1125453E+00
         25   -1    0    0    0    0  0.00000000000E+00  0.00000000000E+00  0.99999998245E-14  0.12509000000E+03  0.12509000000E+03 0.  0.
        -13    1    3    3    0    0  0.14580497818E+02 -0.12193351889E+02 -0.49021420420E+02  0.52577367478E+02  0.10566000000E+00 0.  1.
         23    2    1    0    0    0 -0.39787295325E+01 -0.25363214978E+02 -0.10430605606E+02  0.97378621542E+02  0.93352425986E+02 0.  0.
         13    1    3    3    0    0 -0.18559227350E+02 -0.13169863089E+02  0.38590814814E+02  0.44801254064E+02  0.10566000000E+00 0. -1.
         22    1    1    0    0    0  0.39787295325E+01  0.25363214978E+02  0.10430605606E+02  0.27711378458E+02  0.00000000000E+00 0. -1.
</event>
<event>
 5    1  0.2377303E-009  0.9118800E+02  0.7815553E-02  0.1125453E+00
         25   -1    0    0    0    0  0.00000000000E+00  0.00000000000E+00  0.99999998245E-14  0.12509000000E+03  0.12509000000E+03 0.  0.
        -13    1    3    3    0    0  0.93254890737E+01  0.25713352050E+02 -0.50983272532E+02  0.57857121101E+02  0.10566000000E+00 0.  1.
         23    2    1    0    0    0  0.12332565362E+02 -0.27735161169E+01 -0.27227716730E+02  0.95071120634E+02  0.90207454571E+02 0.  0.
         13    1    3    3    0    0  0.30070762880E+01 -0.28486868167E+02  0.23755555801E+02  0.37213999533E+02  0.10566000000E+00 0. -1.
         22    1    1    0    0    0 -0.12332565362E+02  0.27735161169E+01  0.27227716730E+02  0.30018879366E+02  0.00000000000E+00 0.  1.
</event>
<event>
 5    1  0.2377303E-009  0.9118800E+02  0.7815553E-02  0.1125453E+00
         25   -1    0    0    0    0  0.00000000000E+00  0.00000000000E+00  0.99999998245E-14  0.12509000000E+03  0.12509000000E+03 0.  0.
        -13    1    3    3    0    0 -0.54305772683E+02  0.13913636627E+02  0.25137256813E+02  0.61437765869E+02  0.10566000000E+00 0.  1.
         23    2    1    0    0    0 -0.27441937166E+02  0.86908468348E+01  0.39769174786E+01  0.96031324759E+02  0.91529277983E+02 0.  0.
         13    1    3    3    0    0  0.26863835516E+02 -0.52227897927E+01 -0.21160339334E+02  0.34593558890E+02  0.10566000000E+00 0. -1.
         22    1    1    0    0    0  0.27441937166E+02 -0.86908468348E+01 -0.39769174786E+01  0.29058675241E+02  0.00000000000E+00 0.  1.
</event>
<event>
 5    1  0.2377303E-009  0.9118800E+02  0.7815553E-02  0.1125453E+00
         25   -1    0    0    0    0  0.00000000000E+00  0.00000000000E+00  0.99999998245E-14  0.12509000000E+03  0.12509000000E+03 0.  0.
        -13    1    3    3    0    0  0.24132815397E+02  0.45579021478E+02 -0.33141476136E+02  0.61304229727E+02  0.10566000000E+00 0.  1.
         23    2    1    0    0    0  0.18306030958E+02  0.15877717156E+02 -0.14695237264E+02  0.96749875269E+02  0.92506084637E+02 0.  0.
         13    1    3    3    0    0 -0.58267844387E+01 -0.29701304323E+02  0.18446238872E+02  0.35445645542E+02  0.10566000000E+00 0. -1.
         22    1    1    0    0    0 -0.18306030958E+02 -0.15877717156E+02  0.14695237264E+02  0.28340124731E+02  0.00000000000E+00 0.  1.
</event>
<event>
 5    1  0.2377303E-009  0.9118800E+02  0.7815553E-02  0.1125453E+00
         25   -1    0    0    0    0  0.00000000000E+00  0.00000000000E+00  0.99999998245E-14  0.12509000000E+03  0.12509000000E+03 0.  0.
        -13    1    3    3    0    0 -0.24227355489E+01  0.28876655794E+02  0.49617676455E+02  0.57460037228E+02  0.10566000000E+00 0.  1.
         23    2    1    0    0    0 -0.58111897033E+01 -0.24255801532E+01  0.29730122411E+02  0.94700305309E+02  0.89691773771E+02 0.  0.
         13    1    3    3    0    0 -0.33884541544E+01 -0.31302235948E+02 -0.19887554043E+02  0.37240268081E+02  0.10566000000E+00 0. -1.
         22    1    1    0    0    0  0.58111897033E+01  0.24255801532E+01 -0.29730122411E+02  0.30389694691E+02  0.00000000000E+00 0.  1.
</event>
<event>
 5    1  0.2377303E-009  0.9118800E+02  0.7815553E-02  0.1125453E+00
         25   -1    0    0    0    0  0.00000000000E+00  0.00000000000E+00  0.99999998245E-14  0.12509000000E+03  0.12509000000E+03 0.  0.
        -13    1    3    3    0    0 -0.42217017894E+01 -0.50239706935E+02  0.18131560650E+02  0.53578125896E+02  0.10566000000E+00 0.  1.
         23    2    1    0    0    0 -0.22358491091E+02 -0.15825509622E+02 -0.24498146195E+01  0.97588173327E+02  0.93632799291E+02 0.  0.
         13    1    3    3    0    0 -0.18136789302E+02  0.34414197313E+02 -0.20581375270E+02  0.44010047431E+02  0.10566000000E+00 0. -1.
         22    1    1    0    0    0  0.22358491091E+02  0.15825509622E+02  0.24498146195E+01  0.27501826673E+02  0.00000000000E+00 0.  1.
</event>
<event>
 5    1  0.2377303E-009  0.9118800E+02  0.7815553E-02  0.1125453E+00
         25   -1    0    0    0    0  0.00000000000E+00  0.00000000000E+00  0.99999998245E-14  0.12509000000E+03  0.12509000000E+03 0.  0.
        -13    1    3    3    0    0 -0.16524338287E+02  0.49067004176E+02 -0.31704347505E+02  0.60710801917E+02  0.10566000000E+00 0. -1.
         23    2    1    0    0    0 -0.16740292561E+02  0.21258503292E+02 -0.91193058370E+01  0.96536136930E+02  0.92216607166E+02 0.  0.
         13    1    3    3    0    0 -0.21595427379E+00 -0.27808500884E+02  0.22585041668E+02  0.35825335014E+02  0.10566000000E+00 0.  1.
         22    1    1    0    0    0  0.16740292561E+02 -0.21258503292E+02  0.91193058370E+01  0.28553863070E+02  0.00000000000E+00 0. -1.
</event>
<event>
 5    1  0.2377303E-009  0.9118800E+02  0.7815553E-02  0.1125453E+00
         25   -1    0    0    0    0  0.00000000000E+00  0.00000000000E+00  0.99999998245E-14  0.12509000000E+03  0.12509000000E+03 0.  0.
        -13    1    3    3    0    0  0.13028752892E+01  0.55163154863E+02 -0.20891231415E+02  0.59001066537E+02  0.10566000000E+00 0. -1.
         23    2    1    0    0    0  0.30345875721E+01  0.28210389869E+02  0.48427452723E+01  0.96306549893E+02  0.91904649242E+02 0.  0.
         13    1    3    3    0    0  0.17317122829E+01 -0.26952764994E+02  0.25733976688E+02  0.37305483356E+02  0.10566000000E+00 0.  1.
         22    1    1    0    0    0 -0.30345875721E+01 -0.28210389869E+02 -0.48427452723E+01  0.28783450107E+02  0.00000000000E+00 0. -1.
</event>
<event>
 5    1  0.2377303E-009  0.9118800E+02  0.7815553E-02  0.1125453E+00
         25   -1    0    0    0    0  0.00000000000E+00  0.00000000000E+00  0.99999998245E-14  0.12509000000E+03  0.12509000000E+03 0.  0.
        -13    1    3    3    0    0  0.47317718949E+02  0.26465499531E+02 -0.31164662120E+02  0.62535082323E+02  0.10566000000E+00 0.  1.
         23    2    1    0    0    0  0.22039060783E+02  0.13204679830E+02 -0.14958903434E+02  0.95360342055E+02  0.90607628130E+02 0.  0.
         13    1    3    3    0    0 -0.25278658166E+02 -0.13260819702E+02  0.16205758687E+02  0.32825259732E+02  0.10566000000E+00 0. -1.
         22    1    1    0    0    0 -0.22039060783E+02 -0.13204679830E+02  0.14958903434E+02  0.29729657945E+02  0.00000000000E+00 0.  1.
</event>
<event>
 5    1  0.2377303E-009  0.9118800E+02  0.7815553E-02  0.1125453E+00
         25   -1    0    0    0    0  0.00000000000E+00  0.00000000000E+00  0.99999998245E-14  0.12509000000E+03  0.12509000000E+03 0.  0.
        -13    1    3    3    0    0  0.15279357173E+02  0.38694882890E+02  0.32940312481E+02  0.53064376637E+02  0.10566000000E+00 0.  1.
         23    2    1    0    0    0 -0.90910316324E+01  0.28197411162E+02 -0.12813163169E+00  0.95463031372E+02  0.90749286986E+02 0.  0.
         13    1    3    3    0    0 -0.24370388805E+02 -0.10497471728E+02 -0.33068444113E+02  0.42398654734E+02  0.10566000000E+00 0. -1.
         22    1    1    0    0    0  0.90910316324E+01 -0.28197411162E+02  0.12813163169E+00  0.29626968628E+02  0.00000000000E+00 0.  1.
</event>
<event>
 5    1  0.2377303E-009  0.9118800E+02  0.7815553E-02  0.1125453E+00
         25   -1    0    0    0    0  0.00000000000E+00  0.00000000000E+00  0.99999998245E-14  0.12509000000E+03  0.12509000000E+03 0.  0.
        -13    1    3    3    0    0 -0.18940252494E+02  0.25204337808E+02 -0.34323005493E+02  0.46605489794E+02  0.10566000000E+00 0.  1.
         23    2    1    0    0    0 -0.28039367047E+02  0.67241900837E+01  0.92549743484E+01  0.94806747419E+02  0.89840102233E+02 0.  0.
         13    1    3    3    0    0 -0.90991145532E+01 -0.18480147724E+02  0.43577979841E+02  0.48201257625E+02  0.10566000000E+00 0. -1.
         22    1    1    0    0    0  0.28039367047E+02 -0.67241900837E+01 -0.92549743484E+01  0.30283252581E+02  0.00000000000E+00 0. -1.
</event>
<event>
 5    1  0.2377303E-009  0.9118800E+02  0.7815553E-02  0.1125453E+00
         25   -1    0    0    0    0  0.00000000000E+00  0.00000000000E+00  0.99999998245E-14  0.12509000000E+03  0.12509000000E+03 0.  0.
        -13    1    3    3    0    0  0.53310279165E+01 -0.99181726520E+01  0.52364409615E+02  0.53561483976E+02  0.10566000000E+00 0.  1.
         23    2    1    0    0    0 -0.10544374941E+02 -0.23694158994E+02  0.19216511801E+02  0.92811968166E+02  0.87018331952E+02 0.  0.
         13    1    3    3    0    0 -0.15875402858E+02 -0.13775986342E+02 -0.33147897814E+02  0.39250484190E+02  0.10566000000E+00 0. -1.
         22    1    1    0    0    0  0.10544374941E+02  0.23694158994E+02 -0.19216511801E+02  0.32278031834E+02  0.00000000000E+00 0.  1.
</event>
<event>
 5    1  0.2377303E-009  0.9118800E+02  0.7815553E-02  0.1125453E+00
         25   -1    0    0    0    0  0.00000000000E+00  0.00000000000E+00  0.99999998245E-14  0.12509000000E+03  0.12509000000E+03 0.  0.
        -13    1    3    3    0    0  0.40609956068E+02  0.18202669270E+01 -0.32609089422E+02  0.52113777262E+02  0.10566000000E+00 0. -1.
         23    2    1    0    0    0  0.27183152149E+00  0.20414230430E+02 -0.14337214039E+02  0.10014264738E+03  0.96985459844E+02 0.  0.
         13    1    3    3    0    0 -0.40338124546E+02  0.18593963503E+02  0.18271875383E+02  0.48028870117E+02  0.10566000000E+00 0.  1.
         22    1    1    0    0    0 -0.27183152149E+00 -0.20414230430E+02  0.14337214039E+02  0.24947352622E+02  0.00000000000E+00 0. -1.
</event>
<event>
 5    1  0.2377303E-009  0.9118800E+02  0.7815553E-02  0.1125453E+00
         25   -1    0    0    0    0  0.00000000000E+00  0.00000000000E+00  0.99999998245E-14  0.12509000000E+03  0.12509000000E+03 0.  0.
        -13    1    3    3    0    0 -0.31988285307E+02 -0.21579630129E+02  0.34597281709E+01  0.38741601882E+02  0.10566000000E+00 0.  1.
         23    2    1    0    0    0 -0.24753964372E+01  0.23653979963E+02  0.18671637202E+02  0.94853128611E+02  0.89904658477E+02 0.  0.
         13    1    3    3    0    0  0.29512888869E+02  0.45233610092E+02  0.15211909031E+02  0.56111526728E+02  0.10566000000E+00 0. -1.
         22    1    1    0    0    0  0.24753964372E+01 -0.23653979963E+02 -0.18671637202E+02  0.30236871389E+02  0.00000000000E+00 0. -1.
</event>
<event>
 5    1  0.2377303E-009  0.9118800E+02  0.7815553E-02  0.1125453E+00
         25   -1    0    0    0    0  0.00000000000E+00  0.00000000000E+00  0.99999998245E-14  0.12509000000E+03  0.12509000000E+03 0.  0.
        -13    1    3    3    0    0  0.78288637176E+01  0.31896435302E+02 -0.35982701982E+01  0.33039860843E+02  0.10566000000E+00 0. -1.
         23    2    1    0    0    0  0.55250492637E+01 -0.76278255436E+01  0.35307450772E+02  0.88547887692E+02  0.80656075052E+02 0.  0.
         13    1    3    3    0    0 -0.23038144540E+01 -0.39524260845E+02  0.38905720971E+02  0.55508026849E+02  0.10566000000E+00 0.  1.
         22    1    1    0    0    0 -0.55250492637E+01  0.76278255436E+01 -0.35307450772E+02  0.36542112308E+02  0.00000000000E+00 0.  1.
</event>
<event>
 5    1  0.2377303E-009  0.9118800E+02  0.7815553E-02  0.1125453E+00
         25   -1    0    0    0    0  0.00000000000E+00  0.00000000000E+00  0.99999998245E-14  0.12509000000E+03  0.12509000000E+03 0.  0.
        -13    1    3    3    0    0 -0.26930465099E+01 -0.24797986271E+02  0.96553341744E+01  0.26747509504E+02  0.10566000000E+00 0.  1.
         23    2    1    0    0    0  0.37507657408E+02  0.15541515368E+02  0.79202040520E+01  0.83724643765E+02  0.72792329797E+02 0.  0.
         13    1    3    3    0    0  0.40200703918E+02  0.40339501639E+02 -0.17351301224E+01  0.56977134261E+02  0.10566000000E+00 0. -1.
         22    1    1    0    0    0 -0.37507657408E+02 -0.15541515368E+02 -0.79202040520E+01  0.41365356235E+02  0.00000000000E+00 0. -1.
</event>
<event>
 5    1  0.2377303E-009  0.9118800E+02  0.7815553E-02  0.1125453E+00
         25   -1    0    0    0    0  0.00000000000E+00  0.00000000000E+00  0.99999998245E-14  0.12509000000E+03  0.12509000000E+03 0.  0.
        -13    1    3    3    0    0 -0.23312109142E+02 -0.51296089171E+02 -0.14870768074E+02  0.58274300545E+02  0.10566000000E+00 0.  1.
         23    2    1    0    0    0 -0.60348866091E+01 -0.32104439459E+02 -0.22760724196E+02  0.85275863625E+02  0.75410924021E+02 0.  0.
         13    1    3    3    0    0  0.17277222532E+02  0.19191649712E+02 -0.78899561217E+01  0.27001563080E+02  0.10566000000E+00 0. -1.
         22    1    1    0    0    0  0.60348866091E+01  0.32104439459E+02  0.22760724196E+02  0.39814136375E+02  0.00000000000E+00 0.  1.
</event>
<event>
 5    1  0.2377303E-009  0.9118800E+02  0.7815553E-02  0.1125453E+00
         25   -1    0    0    0    0  0.00000000000E+00  0.00000000000E+00  0.99999998245E-14  0.12509000000E+03  0.12509000000E+03 0.  0.
        -13    1    3    3    0    0  0.39625787391E+02  0.23807154613E+02 -0.12147814233E+02  0.47797114890E+02  0.10566000000E+00 0. -1.
         23    2    1    0    0    0  0.21630869125E+02 -0.19673694446E+02 -0.35147790047E+01  0.95640001295E+02  0.90992897657E+02 0.  0.
         13    1    3    3    0    0 -0.17994918266E+02 -0.43480849059E+02  0.86330352282E+01  0.47842886405E+02  0.10566000000E+00 0.  1.
         22    1    1    0    0    0 -0.21630869125E+02  0.19673694446E+02  0.35147790047E+01  0.29449998705E+02  0.00000000000E+00 0. -1.
</event>
<event>
 5    1  0.2377303E-009  0.9118800E+02  0.7815553E-02  0.1125453E+00
         25   -1    0    0    0    0  0.00000000000E+00  0.00000000000E+00  0.99999998245E-14  0.12509000000E+03  0.12509000000E+03 0.  0.
        -13    1    3    3    0    0 -0.18403511531E+02 -0.32632192112E+02  0.41635404300E+02  0.56009528242E+02  0.10566000000E+00 0.  1.
         23    2    1    0    0    0  0.16314617364E+01 -0.13235515402E+01  0.30082880859E+02  0.94933853415E+02  0.90016905898E+02 0.  0.
         13    1    3    3    0    0  0.20034973267E+02  0.31308640572E+02 -0.11552523441E+02  0.38924325173E+02  0.10566000000E+00 0. -1.
         22    1    1    0    0    0 -0.16314617364E+01  0.13235515402E+01 -0.30082880859E+02  0.30156146585E+02  0.00000000000E+00 0.  1.
</event>
<event>
 5    1  0.2377303E-009  0.9118800E+02  0.7815553E-02  0.1125453E+00
         25   -1    0    0    0    0  0.00000000000E+00  0.00000000000E+00  0.99999998245E-14  0.12509000000E+03  0.12509000000E+03 0.  0.
        -13    1    3    3    0    0  0.25410879611E+02 -0.18770039178E+02  0.11451502181E+02  0.33603202817E+02  0.10566000000E+00 0. -1.
         23    2    1    0    0    0 -0.59813654316E+01  0.30228144139E+02 -0.45171661024E+01  0.93946425701E+02  0.88634128200E+02 0.  0.
         13    1    3    3    0    0 -0.31392245043E+02  0.48998183317E+02 -0.15968668283E+02  0.60343222884E+02  0.10566000000E+00 0.  1.
         22    1    1    0    0    0  0.59813654316E+01 -0.30228144139E+02  0.45171661024E+01  0.31143574299E+02  0.00000000000E+00 0.  1.
</event>
<event>
 5    1  0.2377303E-009  0.9118800E+02  0.7815553E-02  0.1125453E+00
         25   -1    0    0    0    0  0.00000000000E+00  0.00000000000E+00  0.99999998245E-14  0.12509000000E+03  0.12509000000E+03 0.  0.
        -13    1    3    3    0    0 -0.10916932727E+02 -0.30544887761E+00 -0.34161707748E+02  0.35865110616E+02  0.10566000000E+00 0. -1.
         23    2    1    0    0    0 -0.15903811720E+01 -0.24903563410E+02  0.18024379868E+02  0.94306968108E+02  0.89141512111E+02 0.  0.
         13    1    3    3    0    0  0.93265515547E+01 -0.24598114533E+02  0.52186087616E+02  0.58441857493E+02  0.10566000000E+00 0.  1.
         22    1    1    0    0    0  0.15903811720E+01  0.24903563410E+02 -0.18024379868E+02  0.30783031892E+02  0.00000000000E+00 0.  1.
</event>
<event>
 5    1  0.2377303E-009  0.9118800E+02  0.7815553E-02  0.1125453E+00
         25   -1    0    0    0    0  0.00000000000E+00  0.00000000000E+00  0.99999998245E-14  0.12509000000E+03  0.12509000000E+03 0.  0.
        -13    1    3    3    0    0  0.33532217623E+02  0.86058469823E+01  0.12687805869E+02  0.36870880146E+02  0.10566000000E+00 0.  1.
         23    2    1    0    0    0 -0.25646477353E+02  0.11296287935E+02  0.52916320555E+01  0.96570720704E+02  0.92263507444E+02 0.  0.
         13    1    3    3    0    0 -0.59178694976E+02  0.26904409524E+01 -0.73961738131E+01  0.59699840558E+02  0.10566000000E+00 0. -1.
         22    1    1    0    0    0  0.25646477353E+02 -0.11296287935E+02 -0.52916320555E+01  0.28519279296E+02  0.00000000000E+00 0. -1.
</event>
<event>
 5    1  0.2377303E-009  0.9118800E+02  0.7815553E-02  0.1125453E+00
         25   -1    0    0    0    0  0.00000000000E+00  0.00000000000E+00  0.99999998245E-14  0.12509000000E+03  0.12509000000E+03 0.  0.
        -13    1    3    3    0    0  0.36789737129E+02  0.28706609271E+01 -0.36031804469E+02  0.51575454914E+02  0.10566000000E+00 0.  1.
         23    2    1    0    0    0  0.14113531120E+02  0.26060408001E+02 -0.81335989573E+01  0.94357410492E+02  0.89212268534E+02 0.  0.
         13    1    3    3    0    0 -0.22676206009E+02  0.23189747074E+02  0.27898205512E+02  0.42781955579E+02  0.10566000000E+00 0. -1.
         22    1    1    0    0    0 -0.14113531120E+02 -0.26060408001E+02  0.81335989573E+01  0.30732589508E+02  0.00000000000E+00 0.  1.
</event>
<event>
 5    1  0.2377303E-009  0.9118800E+02  0.7815553E-02  0.1125453E+00
         25   -1    0    0    0    0  0.00000000000E+00  0.00000000000E+00  0.99999998245E-14  0.12509000000E+03  0.12509000000E+03 0.  0.
        -13    1    3    3    0    0  0.59454866418E+02  0.76481803551E+01 -0.16976822179E+02  0.62302483569E+02  0.10566000000E+00 0. -1.
         23    2    1    0    0    0  0.20784653052E+02  0.64215862846E+01 -0.57241622795E+01  0.10259545385E+03  0.10009906365E+03 0.  0.
         13    1    3    3    0    0 -0.38670213366E+02 -0.12265940705E+01  0.11252659899E+02  0.40292970276E+02  0.10566000000E+00 0.  1.
         22    1    1    0    0    0 -0.20784653052E+02 -0.64215862846E+01  0.57241622795E+01  0.22494546155E+02  0.00000000000E+00 0. -1.
</event>
<event>
 5    1  0.2377303E-009  0.9118800E+02  0.7815553E-02  0.1125453E+00
         25   -1    0    0    0    0  0.00000000000E+00  0.00000000000E+00  0.99999998245E-14  0.12509000000E+03  0.12509000000E+03 0.  0.
        -13    1    3    3    0    0  0.40699981601E+02  0.21977899792E+02  0.41584852781E+01  0.46441584226E+02  0.10566000000E+00 0.  1.
         23    2    1    0    0    0  0.19385727358E+02 -0.22207202095E+02  0.18786010439E+01  0.95551967026E+02  0.90871794363E+02 0.  0.
         13    1    3    3    0    0 -0.21314254243E+02 -0.44185101887E+02 -0.22798842343E+01  0.49110382801E+02  0.10566000000E+00 0. -1.
         22    1    1    0    0    0 -0.19385727358E+02  0.22207202095E+02 -0.18786010439E+01  0.29538032974E+02  0.00000000000E+00 0.  1.
</event>
<event>
 5    1  0.2377303E-009  0.9118800E+02  0.7815553E-02  0.1125453E+00
         25   -1    0    0    0    0  0.00000000000E+00  0.00000000000E+00  0.99999998245E-14  0.12509000000E+03  0.12509000000E+03 0.  0.
        -13    1    3    3    0    0 -0.33681036815E+01  0.80065041279E+01  0.30009252329E+02  0.31241232692E+02  0.10566000000E+00 0.  1.
         23    2    1    0    0    0  0.38515996266E+01  0.13263413673E+02 -0.30080073915E+02  0.91990697762E+02  0.85829625806E+02 0.  0.
         13    1    3    3    0    0  0.72197033080E+01  0.52569095456E+01 -0.60089326243E+02  0.60749465070E+02  0.10566000000E+00 0. -1.
         22    1    1    0    0    0 -0.38515996266E+01 -0.13263413673E+02  0.30080073915E+02  0.33099302238E+02  0.00000000000E+00 0. -1.
</event>
<event>
 5    1  0.2377303E-009  0.9118800E+02  0.7815553E-02  0.1125453E+00
         25   -1    0    0    0    0  0.00000000000E+00  0.00000000000E+00  0.99999998245E-14  0.12509000000E+03  0.12509000000E+03 0.  0.
        -13    1    3    3    0    0  0.30229907745E+02 -0.22240015940E+02  0.40355282187E+02  0.55109215161E+02  0.10566000000E+00 0.  1.
         23    2    1    0    0    0 -0.31731071048E+01 -0.23508070764E+02  0.15742536773E+02  0.96620271097E+02  0.92330662963E+02 0.  0.
         13    1    3    3    0    0 -0.33403014849E+02 -0.12680548235E+01 -0.24612745414E+02  0.41511055936E+02  0.10566000000E+00 0. -1.
         22    1    1    0    0    0  0.31731071048E+01  0.23508070764E+02 -0.15742536773E+02  0.28469728903E+02  0.00000000000E+00 0.  1.
</event>
<event>
 5    1  0.2377303E-009  0.9118800E+02  0.7815553E-02  0.1125453E+00
         25   -1    0    0    0    0  0.00000000000E+00  0.00000000000E+00  0.99999998245E-14  0.12509000000E+03  0.12509000000E+03 0.  0.
        -13    1    3    3    0    0  0.30467670573E+02  0.12670809532E+02  0.35963761806E+02  0.48808110921E+02  0.10566000000E+00 0.  1.
         23    2    1    0    0    0  0.27392236850E+02  0.51625908732E+01 -0.99950162548E+01  0.95477716500E+02  0.90769526901E+02 0.  0.
         13    1    3    3    0    0 -0.30754337230E+01 -0.75082186588E+01 -0.45958778061E+02  0.46669605579E+02  0.10566000000E+00 0. -1.
         22    1    1    0    0    0 -0.27392236850E+02 -0.51625908732E+01  0.99950162548E+01  0.29612283500E+02  0.00000000000E+00 0.  1.
</event>
<event>
 5    1  0.2377303E-009  0.9118800E+02  0.7815553E-02  0.1125453E+00
         25   -1    0    0    0    0  0.00000000000E+00  0.00000000000E+00  0.99999998245E-14  0.12509000000E+03  0.12509000000E+03 0.  0.
        -13    1    3    3    0    0  0.30473151103E+02 -0.15791157258E+02  0.12961056925E+02  0.36687514857E+02  0.10566000000E+00 0. -1.
         23    2    1    0    0    0 -0.17107180189E+02  0.18750523786E+02  0.15160601943E+02  0.95525128826E+02  0.90834842597E+02 0.  0.
         13    1    3    3    0    0 -0.47580331292E+02  0.34541681045E+02  0.21995450188E+01  0.58837613969E+02  0.10566000000E+00 0.  1.
         22    1    1    0    0    0  0.17107180189E+02 -0.18750523786E+02 -0.15160601943E+02  0.29564871174E+02  0.00000000000E+00 0.  1.
</event>
<event>
 5    1  0.2377303E-009  0.9118800E+02  0.7815553E-02  0.1125453E+00
         25   -1    0    0    0    0  0.00000000000E+00  0.00000000000E+00  0.99999998245E-14  0.12509000000E+03  0.12509000000E+03 0.  0.
        -13    1    3    3    0    0  0.37575283428E+02 -0.85207664603E+01 -0.39506433719E+02  0.55184009052E+02  0.10566000000E+00 0. -1.
         23    2    1    0    0    0  0.31533130199E+02 -0.96916870445E+00 -0.24891911674E+01  0.93443931353E+02  0.87922094185E+02 0.  0.
         13    1    3    3    0    0 -0.60421532289E+01  0.75515977559E+01  0.37017242552E+02  0.38259922301E+02  0.10566000000E+00 0.  1.
         22    1    1    0    0    0 -0.31533130199E+02  0.96916870445E+00  0.24891911674E+01  0.31646068647E+02  0.00000000000E+00 0. -1.
</event>
<event>
 5    1  0.2377303E-009  0.9118800E+02  0.7815553E-02  0.1125453E+00
         25   -1    0    0    0    0  0.00000000000E+00  0.00000000000E+00  0.99999998245E-14  0.12509000000E+03  0.12509000000E+03 0.  0.
        -13    1    3    3    0    0 -0.32015233589E+02 -0.43464442177E+02  0.22869232921E+02  0.58627177094E+02  0.10566000000E+00 0. -1.
         23    2    1    0    0    0 -0.22762194555E+02 -0.69576749183E+01  0.14539716669E+02  0.97198601648E+02  0.93110891201E+02 0.  0.
         13    1    3    3    0    0  0.92530390342E+01  0.36506767259E+02 -0.83295162526E+01  0.38571424554E+02  0.10566000000E+00 0.  1.
         22    1    1    0    0    0  0.22762194555E+02  0.69576749183E+01 -0.14539716669E+02  0.27891398352E+02  0.00000000000E+00 0. -1.
</event>
<event>
 5    1  0.2377303E-009  0.9118800E+02  0.7815553E-02  0.1125453E+00
         25   -1    0    0    0    0  0.00000000000E+00  0.00000000000E+00  0.99999998245E-14  0.12509000000E+03  0.12509000000E+03 0.  0.
        -13    1    3    3    0    0 -0.51670238944E+02  0.18857850136E+02 -0.20174526069E+02  0.58587155336E+02  0.10566000000E+00 0. -1.
         23    2    1    0    0    0 -0.22635220701E+02  0.90595622666E+01  0.71902057589E+01  0.99670953136E+02  0.96375157357E+02 0.  0.
         13    1    3    3    0    0  0.29035018243E+02 -0.97982878695E+01  0.27364731828E+02  0.41083797799E+02  0.10566000000E+00 0.  1.
         22    1    1    0    0    0  0.22635220701E+02 -0.90595622666E+01 -0.71902057589E+01  0.25419046864E+02  0.00000000000E+00 0. -1.
</event>
<event>
 5    1  0.2377303E-009  0.9118800E+02  0.7815553E-02  0.1125453E+00
         25   -1    0    0    0    0  0.00000000000E+00  0.00000000000E+00  0.99999998245E-14  0.12509000000E+03  0.12509000000E+03 0.  0.
        -13    1    3    3    0    0 -0.10329919989E+02 -0.27727575152E+02 -0.45696683731E+02  0.54440093120E+02  0.10566000000E+00 0. -1.
         23    2    1    0    0    0  0.14681322895E+02 -0.30999075410E+01 -0.26976391012E+02  0.94221304842E+02  0.89021221883E+02 0.  0.
         13    1    3    3    0    0  0.25011242884E+02  0.24627667611E+02  0.18720292720E+02  0.39781211723E+02  0.10566000000E+00 0.  1.
         22    1    1    0    0    0 -0.14681322895E+02  0.30999075410E+01  0.26976391012E+02  0.30868695158E+02  0.00000000000E+00 0. -1.
</event>
<event>
 5    1  0.2377303E-009  0.9118800E+02  0.7815553E-02  0.1125453E+00
         25   -1    0    0    0    0  0.00000000000E+00  0.00000000000E+00  0.99999998245E-14  0.12509000000E+03  0.12509000000E+03 0.  0.
        -13    1    3    3    0    0  0.30908103644E+02 -0.15390593961E+02  0.44837149588E+02  0.56591186598E+02  0.10566000000E+00 0.  1.
         23    2    1    0    0    0  0.26807916515E+02 -0.42433375734E+01  0.58802075249E+01  0.97318663299E+02  0.93272048782E+02 0.  0.
         13    1    3    3    0    0 -0.41001871291E+01  0.11147256387E+02 -0.38956942063E+02  0.40727476701E+02  0.10566000000E+00 0. -1.
         22    1    1    0    0    0 -0.26807916515E+02  0.42433375734E+01 -0.58802075249E+01  0.27771336701E+02  0.00000000000E+00 0.  1.
</event>
<event>
 5    1  0.2377303E-009  0.9118800E+02  0.7815553E-02  0.1125453E+00
         25   -1    0    0    0    0  0.00000000000E+00  0.00000000000E+00  0.99999998245E-14  0.12509000000E+03  0.12509000000E+03 0.  0.
        -13    1    3    3    0    0 -0.39482304064E+02 -0.35166144285E+02 -0.28776183930E+02  0.60196262041E+02  0.10566000000E+00 0. -1.
         23    2    1    0    0    0 -0.23939822755E+02 -0.14289073756E+02 -0.26340392479E+01  0.97085876998E+02  0.92959327705E+02 0.  0.
         13    1    3    3    0    0  0.15542481309E+02  0.20877070529E+02  0.26142144682E+02  0.36889614957E+02  0.10566000000E+00 0.  1.
         22    1    1    0    0    0  0.23939822755E+02  0.14289073756E+02  0.26340392479E+01  0.28004123002E+02  0.00000000000E+00 0. -1.
</event>
<event>
 5    1  0.2377303E-009  0.9118800E+02  0.7815553E-02  0.1125453E+00
         25   -1    0    0    0    0  0.00000000000E+00  0.00000000000E+00  0.99999998245E-14  0.12509000000E+03  0.12509000000E+03 0.  0.
        -13    1    3    3    0    0 -0.40506924843E+02  0.33706963894E+02 -0.26603617549E+02  0.59031635637E+02  0.10566000000E+00 0.  1.
         23    2    1    0    0    0 -0.97518626629E+01  0.13483154854E+02 -0.23937667771E+02  0.95936848738E+02  0.91400069569E+02 0.  0.
         13    1    3    3    0    0  0.30755062180E+02 -0.20223809039E+02  0.26659497787E+01  0.36905213101E+02  0.10566000000E+00 0. -1.
         22    1    1    0    0    0  0.97518626629E+01 -0.13483154854E+02  0.23937667771E+02  0.29153151262E+02  0.00000000000E+00 0.  1.
</event>
<event>
 5    1  0.2377303E-009  0.9118800E+02  0.7815553E-02  0.1125453E+00
         25   -1    0    0    0    0  0.00000000000E+00  0.00000000000E+00  0.99999998245E-14  0.12509000000E+03  0.12509000000E+03 0.  0.
        -13    1    3    3    0    0  0.26556614496E+02 -0.16745052102E+02  0.14284984380E+02  0.34492354024E+02  0.10566000000E+00 0. -1.
         23    2    1    0    0    0 -0.10247357458E+02  0.25542019384E+02 -0.10297780919E+02  0.95705524831E+02  0.91082929807E+02 0.  0.
         13    1    3    3    0    0 -0.36803971953E+02  0.42287071486E+02 -0.24582765299E+02  0.61213170807E+02  0.10566000000E+00 0.  1.
         22    1    1    0    0    0  0.10247357458E+02 -0.25542019384E+02  0.10297780919E+02  0.29384475169E+02  0.00000000000E+00 0.  1.
</event>
<event>
 5    1  0.2377303E-009  0.9118800E+02  0.7815553E-02  0.1125453E+00
         25   -1    0    0    0    0  0.00000000000E+00  0.00000000000E+00  0.99999998245E-14  0.12509000000E+03  0.12509000000E+03 0.  0.
        -13    1    3    3    0    0 -0.13222022770E+02 -0.37139280859E+02 -0.11948189469E+02  0.41193670199E+02  0.10566000000E+00 0. -1.
         23    2    1    0    0    0 -0.83348208190E+01 -0.13693566754E+01  0.28473260205E+02  0.95390321172E+02  0.90649006894E+02 0.  0.
         13    1    3    3    0    0  0.48872019508E+01  0.35769924183E+02  0.40421449674E+02  0.54196650974E+02  0.10566000000E+00 0.  1.
         22    1    1    0    0    0  0.83348208190E+01  0.13693566754E+01 -0.28473260205E+02  0.29699678828E+02  0.00000000000E+00 0.  1.
</event>
<event>
 5    1  0.2377303E-009  0.9118800E+02  0.7815553E-02  0.1125453E+00
         25   -1    0    0    0    0  0.00000000000E+00  0.00000000000E+00  0.99999998245E-14  0.12509000000E+03  0.12509000000E+03 0.  0.
        -13    1    3    3    0    0 -0.52313080635E+01 -0.38116969589E+02 -0.45107219156E+02  0.59286949143E+02  0.10566000000E+00 0. -1.
         23    2    1    0    0    0 -0.16144917096E+02 -0.13735140036E+02 -0.19953563846E+02  0.95978883051E+02  0.91457579575E+02 0.  0.
         13    1    3    3    0    0 -0.10913609032E+02  0.24381829552E+02  0.25153655310E+02  0.36691933908E+02  0.10566000000E+00 0.  1.
         22    1    1    0    0    0  0.16144917096E+02  0.13735140036E+02  0.19953563846E+02  0.29111116949E+02  0.00000000000E+00 0. -1.
</event>
<event>
 5    1  0.2377303E-009  0.9118800E+02  0.7815553E-02  0.1125453E+00
         25   -1    0    0    0    0  0.00000000000E+00  0.00000000000E+00  0.99999998245E-14  0.12509000000E+03  0.12509000000E+03 0.  0.
        -13    1    3    3    0    0  0.28928545864E+02  0.51741611244E+02  0.15416264524E+02  0.61251346727E+02  0.10566000000E+00 0.  1.
         23    2    1    0    0    0  0.86831182291E+01  0.27451111226E+02  0.30802464897E+00  0.96296686038E+02  0.91891222720E+02 0.  0.
         13    1    3    3    0    0 -0.20245427635E+02 -0.24290500018E+02 -0.15108239875E+02  0.35045339311E+02  0.10566000000E+00 0. -1.
         22    1    1    0    0    0 -0.86831182291E+01 -0.27451111226E+02 -0.30802464897E+00  0.28793313962E+02  0.00000000000E+00 0.  1.
</event>
<event>
 5    1  0.2377303E-009  0.9118800E+02  0.7815553E-02  0.1125453E+00
         25   -1    0    0    0    0  0.00000000000E+00  0.00000000000E+00  0.99999998245E-14  0.12509000000E+03  0.12509000000E+03 0.  0.
        -13    1    3    3    0    0 -0.21946943479E+02 -0.36308935931E+01 -0.28665571791E+02  0.36284678399E+02  0.10566000000E+00 0.  1.
         23    2    1    0    0    0  0.95862442971E+01 -0.32345396899E+02  0.54721158370E+01  0.90913036530E+02  0.84244378917E+02 0.  0.
         13    1    3    3    0    0  0.31533187776E+02 -0.28714503306E+02  0.34137687628E+02  0.54628358131E+02  0.10566000000E+00 0. -1.
         22    1    1    0    0    0 -0.95862442971E+01  0.32345396899E+02 -0.54721158370E+01  0.34176963470E+02  0.00000000000E+00 0.  1.
</event>
<event>
 5    1  0.2377303E-009  0.9118800E+02  0.7815553E-02  0.1125453E+00
         25   -1    0    0    0    0  0.00000000000E+00  0.00000000000E+00  0.99999998245E-14  0.12509000000E+03  0.12509000000E+03 0.  0.
        -13    1    3    3    0    0  0.45084907796E+02  0.27958133828E+02  0.15158547441E+02  0.55173353013E+02  0.10566000000E+00 0. -1.
         23    2    1    0    0    0  0.55064890759E+01  0.23099697049E+02  0.18208766085E+02  0.95165485166E+02  0.90338214388E+02 0.  0.
         13    1    3    3    0    0 -0.39578418720E+02 -0.48584367784E+01  0.30502186437E+01  0.39992132153E+02  0.10566000000E+00 0.  1.
         22    1    1    0    0    0 -0.55064890759E+01 -0.23099697049E+02 -0.18208766085E+02  0.29924514834E+02  0.00000000000E+00 0. -1.
</event>
<event>
 5    1  0.2377303E-009  0.9118800E+02  0.7815553E-02  0.1125453E+00
         25   -1    0    0    0    0  0.00000000000E+00  0.00000000000E+00  0.99999998245E-14  0.12509000000E+03  0.12509000000E+03 0.  0.
        -13    1    3    3    0    0 -0.24372857415E+02  0.16800070485E+02  0.43675315107E+02  0.52761945193E+02  0.10566000000E+00 0.  1.
         23    2    1    0    0    0 -0.21123681284E+01  0.25977198917E+02  0.46530274497E+01  0.98614962188E+02  0.94994647956E+02 0.  0.
         13    1    3    3    0    0  0.22260489286E+02  0.91771284321E+01 -0.39022287657E+02  0.45853016995E+02  0.10566000000E+00 0. -1.
         22    1    1    0    0    0  0.21123681284E+01 -0.25977198917E+02 -0.46530274497E+01  0.26475037812E+02  0.00000000000E+00 0.  1.
</event>
<event>
 5    1  0.2377303E-009  0.9118800E+02  0.7815553E-02  0.1125453E+00
         25   -1    0    0    0    0  0.00000000000E+00  0.00000000000E+00  0.99999998245E-14  0.12509000000E+03  0.12509000000E+03 0.  0.
        -13    1    3    3    0    0  0.37772874128E+02  0.19585878477E+02  0.39941400711E+02  0.58358575294E+02  0.10566000000E+00 0.  1.
         23    2    1    0    0    0  0.28506716597E+02  0.11073890008E+02  0.68658701629E+01  0.93746673691E+02  0.88351766954E+02 0.  0.
         13    1    3    3    0    0 -0.92661575310E+01 -0.85119884689E+01 -0.33075530548E+02  0.35388098397E+02  0.10566000000E+00 0. -1.
         22    1    1    0    0    0 -0.28506716597E+02 -0.11073890008E+02 -0.68658701629E+01  0.31343326309E+02  0.00000000000E+00 0.  1.
</event>
<event>
 5    1  0.2377303E-009  0.9118800E+02  0.7815553E-02  0.1125453E+00
         25   -1    0    0    0    0  0.00000000000E+00  0.00000000000E+00  0.99999998245E-14  0.12509000000E+03  0.12509000000E+03 0.  0.
        -13    1    3    3    0    0  0.49567264973E+02  0.12578293966E+02  0.15473811695E+02  0.53428243920E+02  0.10566000000E+00 0. -1.
         23    2    1    0    0    0  0.26140960394E+02 -0.16068219670E+02 -0.19762599833E+01  0.94341941570E+02  0.89190575971E+02 0.  0.
         13    1    3    3    0    0 -0.23426304579E+02 -0.28646513637E+02 -0.17450071678E+02  0.40913697650E+02  0.10566000000E+00 0.  1.
         22    1    1    0    0    0 -0.26140960394E+02  0.16068219670E+02  0.19762599833E+01  0.30748058430E+02  0.00000000000E+00 0.  1.
</event>
<event>
 5    1  0.2377303E-009  0.9118800E+02  0.7815553E-02  0.1125453E+00
         25   -1    0    0    0    0  0.00000000000E+00  0.00000000000E+00  0.99999998245E-14  0.12509000000E+03  0.12509000000E+03 0.  0.
        -13    1    3    3    0    0  0.27632409929E+02  0.27132863597E+02  0.42035571095E+02  0.57155426399E+02  0.10566000000E+00 0.  1.
         23    2    1    0    0    0  0.21042829684E+02 -0.27282514037E+01  0.25488882503E+02  0.91924850097E+02  0.85733604247E+02 0.  0.
         13    1    3    3    0    0 -0.65895802448E+01 -0.29861115001E+02 -0.16546688592E+02  0.34769423698E+02  0.10566000000E+00 0. -1.
         22    1    1    0    0    0 -0.21042829684E+02  0.27282514037E+01 -0.25488882503E+02  0.33165149903E+02  0.00000000000E+00 0.  1.
</event>
<event>
 5    1  0.2377303E-009  0.9118800E+02  0.7815553E-02  0.1125453E+00
         25   -1    0    0    0    0  0.00000000000E+00  0.00000000000E+00  0.99999998245E-14  0.12509000000E+03  0.12509000000E+03 0.  0.
        -13    1    3    3    0    0  0.39770556346E+02 -0.26460224185E+01  0.95111540313E+01  0.40977698834E+02  0.10566000000E+00 0.  1.
         23    2    1    0    0    0 -0.11961198781E+02 -0.11401699738E+02  0.24494324978E+02  0.95542732963E+02  0.90859082280E+02 0.  0.
         13    1    3    3    0    0 -0.51731755127E+02 -0.87556773194E+01  0.14983170947E+02  0.54565034129E+02  0.10566000000E+00 0. -1.
         22    1    1    0    0    0  0.11961198781E+02  0.11401699738E+02 -0.24494324978E+02  0.29547267037E+02  0.00000000000E+00 0. -1.
</event>
<event>
 5    1  0.2377303E-009  0.9118800E+02  0.7815553E-02  0.1125453E+00
         25   -1    0    0    0    0  0.00000000000E+00  0.00000000000E+00  0.99999998245E-14  0.12509000000E+03  0.12509000000E+03 0.  0.
        -13    1    3    3    0    0 -0.18347099886E+02 -0.30270967535E+02  0.11490191305E+01  0.35415800975E+02  0.10566000000E+00 0.  1.
         23    2    1    0    0    0  0.28082561338E+01  0.26834119039E+02  0.86095685970E+01  0.96768966853E+02  0.92531897350E+02 0.  0.
         13    1    3    3    0    0  0.21155356020E+02  0.57105086573E+02  0.74605494665E+01  0.61353165878E+02  0.10566000000E+00 0. -1.
         22    1    1    0    0    0 -0.28082561338E+01 -0.26834119039E+02 -0.86095685970E+01  0.28321033147E+02  0.00000000000E+00 0. -1.
</event>
<event>
 5    1  0.2377303E-009  0.9118800E+02  0.7815553E-02  0.1125453E+00
         25   -1    0    0    0    0  0.00000000000E+00  0.00000000000E+00  0.99999998245E-14  0.12509000000E+03  0.12509000000E+03 0.  0.
        -13    1    3    3    0    0 -0.16533613201E+02 -0.16929732020E+01  0.33423360560E+02  0.37327720516E+02  0.10566000000E+00 0.  1.
         23    2    1    0    0    0  0.75258602714E+01 -0.24977688395E+02 -0.14080742739E+02  0.95445594011E+02  0.90725247917E+02 0.  0.
         13    1    3    3    0    0  0.24059473472E+02 -0.23284715193E+02 -0.47504103299E+02  0.58117873495E+02  0.10566000000E+00 0. -1.
         22    1    1    0    0    0 -0.75258602714E+01  0.24977688395E+02  0.14080742739E+02  0.29644405989E+02  0.00000000000E+00 0. -1.
</event>
<event>
 5    1  0.2377303E-009  0.9118800E+02  0.7815553E-02  0.1125453E+00
         25   -1    0    0    0    0  0.00000000000E+00  0.00000000000E+00  0.99999998245E-14  0.12509000000E+03  0.12509000000E+03 0.  0.
        -13    1    3    3    0    0  0.52074324656E+02 -0.40374266659E+00  0.16746824630E+02  0.54702519099E+02  0.10566000000E+00 0.  1.
         23    2    1    0    0    0  0.21932103473E+02  0.76866666387E+01 -0.13541294094E+02  0.98192627406E+02  0.94436875342E+02 0.  0.
         13    1    3    3    0    0 -0.30142221184E+02  0.80904093053E+01 -0.30288118724E+02  0.43490108306E+02  0.10566000000E+00 0. -1.
         22    1    1    0    0    0 -0.21932103473E+02 -0.76866666387E+01  0.13541294094E+02  0.26897372594E+02  0.00000000000E+00 0.  1.
</event>
<event>
 5    1  0.2377303E-009  0.9118800E+02  0.7815553E-02  0.1125453E+00
         25   -1    0    0    0    0  0.00000000000E+00  0.00000000000E+00  0.99999998245E-14  0.12509000000E+03  0.12509000000E+03 0.  0.
        -13    1    3    3    0    0  0.39848665225E+01  0.35698742665E+02  0.27471086799E+02  0.45221136242E+02  0.10566000000E+00 0.  1.
         23    2    1    0    0    0 -0.18518317993E+02 -0.87888080428E+01  0.21420006548E+02  0.95442269419E+02  0.90720663927E+02 0.  0.
         13    1    3    3    0    0 -0.22503184515E+02 -0.44487550708E+02 -0.60510802516E+01  0.50221133177E+02  0.10566000000E+00 0. -1.
         22    1    1    0    0    0  0.18518317993E+02  0.87888080428E+01 -0.21420006548E+02  0.29647730581E+02  0.00000000000E+00 0. -1.
</event>
<event>
 5    1  0.2377303E-009  0.9118800E+02  0.7815553E-02  0.1125453E+00
         25   -1    0    0    0    0  0.00000000000E+00  0.00000000000E+00  0.99999998245E-14  0.12509000000E+03  0.12509000000E+03 0.  0.
        -13    1    3    3    0    0  0.18668640524E+02  0.89005932106E+01  0.20021694876E+02  0.28785727857E+02  0.10566000000E+00 0. -1.
         23    2    1    0    0    0  0.23777368564E+02 -0.10780148576E+02 -0.31501763133E+02  0.84176237773E+02  0.73564278464E+02 0.  0.
         13    1    3    3    0    0  0.51087280406E+01 -0.19680741786E+02 -0.51523458009E+02  0.55390509915E+02  0.10566000000E+00 0.  1.
         22    1    1    0    0    0 -0.23777368564E+02  0.10780148576E+02  0.31501763133E+02  0.40913762227E+02  0.00000000000E+00 0.  1.
</event>
<event>
 5    1  0.2377303E-009  0.9118800E+02  0.7815553E-02  0.1125453E+00
         25   -1    0    0    0    0  0.00000000000E+00  0.00000000000E+00  0.99999998245E-14  0.12509000000E+03  0.12509000000E+03 0.  0.
        -13    1    3    3    0    0 -0.48265565356E+02 -0.35161810273E+02 -0.97720135159E+01  0.60509677846E+02  0.10566000000E+00 0.  1.
         23    2    1    0    0    0 -0.19479967505E+02 -0.19483109831E+01 -0.10234368714E+00  0.10551257617E+03  0.10368041380E+03 0.  0.
         13    1    3    3    0    0  0.28785597851E+02  0.33213499290E+02  0.96696698287E+01  0.45002898321E+02  0.10566000000E+00 0. -1.
         22    1    1    0    0    0  0.19479967505E+02  0.19483109831E+01  0.10234368714E+00  0.19577423833E+02  0.00000000000E+00 0.  1.
</event>
<event>
 5    1  0.2377303E-009  0.9118800E+02  0.7815553E-02  0.1125453E+00
         25   -1    0    0    0    0  0.00000000000E+00  0.00000000000E+00  0.99999998245E-14  0.12509000000E+03  0.12509000000E+03 0.  0.
        -13    1    3    3    0    0 -0.68863398597E+01 -0.27494016249E+02  0.40483813899E+02  0.49419560480E+02  0.10566000000E+00 0.  1.
         23    2    1    0    0    0  0.20477847660E+02 -0.20976278608E+02  0.39770075782E+01  0.95506844349E+02  0.90809659283E+02 0.  0.
         13    1    3    3    0    0  0.27364187519E+02  0.65177376414E+01 -0.36506806321E+02  0.46087283868E+02  0.10566000000E+00 0. -1.
         22    1    1    0    0    0 -0.20477847660E+02  0.20976278608E+02 -0.39770075782E+01  0.29583155651E+02  0.00000000000E+00 0. -1.
</event>
<event>
 5    1  0.2377303E-009  0.9118800E+02  0.7815553E-02  0.1125453E+00
         25   -1    0    0    0    0  0.00000000000E+00  0.00000000000E+00  0.99999998245E-14  0.12509000000E+03  0.12509000000E+03 0.  0.
        -13    1    3    3    0    0 -0.22486679993E+02 -0.10083296830E+02 -0.15912024805E+02  0.29334746454E+02  0.10566000000E+00 0. -1.
         23    2    1    0    0    0  0.33607740338E+02 -0.17089433818E+02 -0.93507101007E+01  0.86244604672E+02  0.77001085036E+02 0.  0.
         13    1    3    3    0    0  0.56094420330E+02 -0.70061369883E+01  0.65613147044E+01  0.56909858218E+02  0.10566000000E+00 0.  1.
         22    1    1    0    0    0 -0.33607740338E+02  0.17089433818E+02  0.93507101007E+01  0.38845395328E+02  0.00000000000E+00 0.  1.
</event>
<event>
 5    1  0.2377303E-009  0.9118800E+02  0.7815553E-02  0.1125453E+00
         25   -1    0    0    0    0  0.00000000000E+00  0.00000000000E+00  0.99999998245E-14  0.12509000000E+03  0.12509000000E+03 0.  0.
        -13    1    3    3    0    0 -0.41367507605E+02 -0.34707526056E+02  0.21222520277E+02  0.58019734413E+02  0.10566000000E+00 0.  1.
         23    2    1    0    0    0 -0.18071383261E+02 -0.11854942375E+02  0.26302876164E+02  0.91046559425E+02  0.84442407219E+02 0.  0.
         13    1    3    3    0    0  0.23296124344E+02  0.22852583682E+02  0.50803558873E+01  0.33026825012E+02  0.10566000000E+00 0. -1.
         22    1    1    0    0    0  0.18071383261E+02  0.11854942375E+02 -0.26302876164E+02  0.34043440575E+02  0.00000000000E+00 0.  1.
</event>
<event>
 5    1  0.2377303E-009  0.9118800E+02  0.7815553E-02  0.1125453E+00
         25   -1    0    0    0    0  0.00000000000E+00  0.00000000000E+00  0.99999998245E-14  0.12509000000E+03  0.12509000000E+03 0.  0.
        -13    1    3    3    0    0 -0.10431047506E+01  0.40486184955E+02  0.45424271839E+02  0.60857167827E+02  0.10566000000E+00 0.  1.
         23    2    1    0    0    0  0.67795171031E+01  0.23300223931E+02  0.15324118957E+02  0.96389984160E+02  0.92018140261E+02 0.  0.
         13    1    3    3    0    0  0.78226218537E+01 -0.17185961024E+02 -0.30100152882E+02  0.35532816333E+02  0.10566000000E+00 0. -1.
         22    1    1    0    0    0 -0.67795171031E+01 -0.23300223931E+02 -0.15324118957E+02  0.28700015840E+02  0.00000000000E+00 0.  1.
</event>
<event>
 5    1  0.2377303E-009  0.9118800E+02  0.7815553E-02  0.1125453E+00
         25   -1    0    0    0    0  0.00000000000E+00  0.00000000000E+00  0.99999998245E-14  0.12509000000E+03  0.12509000000E+03 0.  0.
        -13    1    3    3    0    0 -0.19241576484E+02  0.40414306699E+02  0.46824551954E+01  0.45005455250E+02  0.10566000000E+00 0.  1.
         23    2    1    0    0    0 -0.25096539815E+02 -0.10726406137E+02 -0.48895468860E+01  0.97362761262E+02  0.93331171173E+02 0.  0.
         13    1    3    3    0    0 -0.58549633309E+01 -0.51140712836E+02 -0.95720020814E+01  0.52357306012E+02  0.10566000000E+00 0. -1.
         22    1    1    0    0    0  0.25096539815E+02  0.10726406137E+02  0.48895468860E+01  0.27727238738E+02  0.00000000000E+00 0. -1.
</event>
<event>
 5    1  0.2377303E-009  0.9118800E+02  0.7815553E-02  0.1125453E+00
         25   -1    0    0    0    0  0.00000000000E+00  0.00000000000E+00  0.99999998245E-14  0.12509000000E+03  0.12509000000E+03 0.  0.
        -13    1    3    3    0    0  0.42624409878E+02  0.30516313529E+02 -0.18894261027E+02  0.55723334184E+02  0.10566000000E+00 0. -1.
         23    2    1    0    0    0  0.31902238473E+02 -0.13557430477E+01 -0.27057540910E+01  0.93044532863E+02  0.87352007028E+02 0.  0.
         13    1    3    3    0    0 -0.10722171405E+02 -0.31872056576E+02  0.16188506936E+02  0.37321198679E+02  0.10566000000E+00 0.  1.
         22    1    1    0    0    0 -0.31902238473E+02  0.13557430477E+01  0.27057540910E+01  0.32045467137E+02  0.00000000000E+00 0. -1.
</event>
<event>
 5    1  0.2377303E-009  0.9118800E+02  0.7815553E-02  0.1125453E+00
         25   -1    0    0    0    0  0.00000000000E+00  0.00000000000E+00  0.99999998245E-14  0.12509000000E+03  0.12509000000E+03 0.  0.
        -13    1    3    3    0    0 -0.13606539618E+00  0.45827315108E+02 -0.67228330439E+01  0.46318127898E+02  0.10566000000E+00 0.  1.
         23    2    1    0    0    0  0.28397533529E+02  0.52746486803E+01 -0.32415362549E+01  0.96025427295E+02  0.91521217763E+02 0.  0.
         13    1    3    3    0    0  0.28533598925E+02 -0.40552666428E+02  0.34812967890E+01  0.49707299397E+02  0.10566000000E+00 0. -1.
         22    1    1    0    0    0 -0.28397533529E+02 -0.52746486803E+01  0.32415362549E+01  0.29064572705E+02  0.00000000000E+00 0. -1.
</event>
<event>
 5    1  0.2377303E-009  0.9118800E+02  0.7815553E-02  0.1125453E+00
         25   -1    0    0    0    0  0.00000000000E+00  0.00000000000E+00  0.99999998245E-14  0.12509000000E+03  0.12509000000E+03 0.  0.
        -13    1    3    3    0    0  0.80081126050E+01  0.32875142818E+02  0.81210896334E+01  0.34797530712E+02  0.10566000000E+00 0.  1.
         23    2    1    0    0    0 -0.16087466079E+02 -0.23049843565E+02  0.86018820203E+01  0.95694520288E+02  0.91067815312E+02 0.  0.
         13    1    3    3    0    0 -0.24095578684E+02 -0.55924986383E+02  0.48079238688E+00  0.60896989576E+02  0.10566000000E+00 0. -1.
         22    1    1    0    0    0  0.16087466079E+02  0.23049843565E+02 -0.86018820203E+01  0.29395479712E+02  0.00000000000E+00 0. -1.
</event>
<event>
 5    1  0.2377303E-009  0.9118800E+02  0.7815553E-02  0.1125453E+00
         25   -1    0    0    0    0  0.00000000000E+00  0.00000000000E+00  0.99999998245E-14  0.12509000000E+03  0.12509000000E+03 0.  0.
        -13    1    3    3    0    0  0.75996489518E+01  0.34339549119E+02 -0.22157031398E+00  0.35171288792E+02  0.10566000000E+00 0.  1.
         23    2    1    0    0    0 -0.19137350476E+02 -0.13009032370E+02  0.21287997394E+02  0.93647163941E+02  0.88210766773E+02 0.  0.
         13    1    3    3    0    0 -0.26736999428E+02 -0.47348581488E+02  0.21509567708E+02  0.58475875148E+02  0.10566000000E+00 0. -1.
         22    1    1    0    0    0  0.19137350476E+02  0.13009032370E+02 -0.21287997394E+02  0.31442836059E+02  0.00000000000E+00 0. -1.
</event>
<event>
 5    1  0.2377303E-009  0.9118800E+02  0.7815553E-02  0.1125453E+00
         25   -1    0    0    0    0  0.00000000000E+00  0.00000000000E+00  0.99999998245E-14  0.12509000000E+03  0.12509000000E+03 0.  0.
        -13    1    3    3    0    0  0.29778382702E+02  0.31535483659E+02  0.12324564980E+02  0.45090407759E+02  0.10566000000E+00 0.  1.
         23    2    1    0    0    0 -0.16874958555E+01  0.16266882707E+02 -0.24343088956E+02  0.95763474546E+02  0.91162481109E+02 0.  0.
         13    1    3    3    0    0 -0.31465878557E+02 -0.15268600952E+02 -0.36667653936E+02  0.50673066787E+02  0.10566000000E+00 0. -1.
         22    1    1    0    0    0  0.16874958555E+01 -0.16266882707E+02  0.24343088956E+02  0.29326525454E+02  0.00000000000E+00 0. -1.
</event>
<event>
 4    1  0.2377303E-009  0.9118800E+02  0.7815553E-02  0.1125453E+00
         25   -1    0    0    0    0  0.00000000000E+00  0.00000000000E+00  0.99999998245E-14  0.12509000000E+03  0.12509000000E+03 0.  0.
        -13    1    1    0    0    0  0.47974460785E+01  0.17128391064E+01 -0.99702564803E+01  0.11196717599E+02  0.10566000000E+00 0.  1.
         13    1    1    0    0    0  0.18213915112E+02 -0.20046227903E+01  0.57897057148E+02  0.60727634621E+02  0.10566000000E+00 0. -1.
         22    1    1    0    0    0 -0.23011361190E+02  0.29178368383E+00 -0.47926800668E+02  0.53165647779E+02  0.00000000000E+00 0. -1.
</event>
<event>
 5    1  0.2377303E-009  0.9118800E+02  0.7815553E-02  0.1125453E+00
         25   -1    0    0    0    0  0.00000000000E+00  0.00000000000E+00  0.99999998245E-14  0.12509000000E+03  0.12509000000E+03 0.  0.
        -13    1    3    3    0    0 -0.13466236154E+02  0.47713614363E+02 -0.35937223754E+02  0.61232538139E+02  0.10566000000E+00 0. -1.
         23    2    1    0    0    0 -0.12067284160E+02  0.26796113295E+02 -0.11245032769E+02  0.93624116941E+02  0.88178078207E+02 0.  0.
         13    1    3    3    0    0  0.13989519943E+01 -0.20917501068E+02  0.24692190985E+02  0.32391578802E+02  0.10566000000E+00 0.  1.
         22    1    1    0    0    0  0.12067284160E+02 -0.26796113295E+02  0.11245032769E+02  0.31465883059E+02  0.00000000000E+00 0. -1.
</event>
<event>
 5    1  0.2377303E-009  0.9118800E+02  0.7815553E-02  0.1125453E+00
         25   -1    0    0    0    0  0.00000000000E+00  0.00000000000E+00  0.99999998245E-14  0.12509000000E+03  0.12509000000E+03 0.  0.
        -13    1    3    3    0    0  0.25556444882E+02  0.33160843786E+02 -0.33169193052E+02  0.53413293920E+02  0.10566000000E+00 0.  1.
         23    2    1    0    0    0 -0.84104157165E+00  0.49984617484E+01 -0.32682953679E+02  0.92016333255E+02  0.85866979415E+02 0.  0.
         13    1    3    3    0    0 -0.26397486454E+02 -0.28162382038E+02  0.48623937297E+00  0.38603039335E+02  0.10566000000E+00 0. -1.
         22    1    1    0    0    0  0.84104157165E+00 -0.49984617484E+01  0.32682953679E+02  0.33073666745E+02  0.00000000000E+00 0.  1.
</event>
<event>
 5    1  0.2377303E-009  0.9118800E+02  0.7815553E-02  0.1125453E+00
         25   -1    0    0    0    0  0.00000000000E+00  0.00000000000E+00  0.99999998245E-14  0.12509000000E+03  0.12509000000E+03 0.  0.
        -13    1    3    3    0    0  0.13996344850E+02 -0.59136255004E+02  0.65810382506E+01  0.61125408412E+02  0.10566000000E+00 0. -1.
         23    2    1    0    0    0  0.14849946337E+02 -0.25378181600E+02 -0.73219089120E+00  0.95677262776E+02  0.91044107449E+02 0.  0.
         13    1    3    3    0    0  0.85360148731E+00  0.33758073404E+02 -0.73132291418E+01  0.34551854364E+02  0.10566000000E+00 0.  1.
         22    1    1    0    0    0 -0.14849946337E+02  0.25378181600E+02  0.73219089120E+00  0.29412737224E+02  0.00000000000E+00 0. -1.
</event>
<event>
 5    1  0.2377303E-009  0.9118800E+02  0.7815553E-02  0.1125453E+00
         25   -1    0    0    0    0  0.00000000000E+00  0.00000000000E+00  0.99999998245E-14  0.12509000000E+03  0.12509000000E+03 0.  0.
        -13    1    3    3    0    0 -0.17380470024E+02  0.29733610574E+02 -0.79838339124E+01  0.35354223284E+02  0.10566000000E+00 0. -1.
         23    2    1    0    0    0  0.35634223824E+01 -0.26989459026E+02 -0.10596180818E+02  0.95876853550E+02  0.91317923329E+02 0.  0.
         13    1    3    3    0    0  0.20943892407E+02 -0.56723069600E+02 -0.26123469057E+01  0.60522630266E+02  0.10566000000E+00 0.  1.
         22    1    1    0    0    0 -0.35634223824E+01  0.26989459026E+02  0.10596180818E+02  0.29213146450E+02  0.00000000000E+00 0.  1.
</event>
<event>
 5    1  0.2377303E-009  0.9118800E+02  0.7815553E-02  0.1125453E+00
         25   -1    0    0    0    0  0.00000000000E+00  0.00000000000E+00  0.99999998245E-14  0.12509000000E+03  0.12509000000E+03 0.  0.
        -13    1    3    3    0    0 -0.52997209280E+02 -0.59180184578E+01 -0.12788504245E+02  0.54838710222E+02  0.10566000000E+00 0. -1.
         23    2    1    0    0    0 -0.13545549169E+02 -0.14272444428E+02 -0.21340692422E+02  0.96062259383E+02  0.91571545539E+02 0.  0.
         13    1    3    3    0    0  0.39451660111E+02 -0.83544259707E+01 -0.85521881771E+01  0.41223549161E+02  0.10566000000E+00 0.  1.
         22    1    1    0    0    0  0.13545549169E+02  0.14272444428E+02  0.21340692422E+02  0.29027740617E+02  0.00000000000E+00 0. -1.
</event>
<event>
 5    1  0.2377303E-009  0.9118800E+02  0.7815553E-02  0.1125453E+00
         25   -1    0    0    0    0  0.00000000000E+00  0.00000000000E+00  0.99999998245E-14  0.12509000000E+03  0.12509000000E+03 0.  0.
        -13    1    3    3    0    0 -0.18342724887E+02  0.30283722480E+01 -0.29475358484E+02  0.34848737661E+02  0.10566000000E+00 0.  1.
         23    2    1    0    0    0  0.21350578006E+02 -0.18135022615E+02  0.10643717926E+02  0.95123102300E+02  0.90279508381E+02 0.  0.
         13    1    3    3    0    0  0.39693302893E+02 -0.21163394863E+02  0.40119076410E+02  0.60274364640E+02  0.10566000000E+00 0. -1.
         22    1    1    0    0    0 -0.21350578006E+02  0.18135022615E+02 -0.10643717926E+02  0.29966897700E+02  0.00000000000E+00 0. -1.
</event>
<event>
 5    1  0.2377303E-009  0.9118800E+02  0.7815553E-02  0.1125453E+00
         25   -1    0    0    0    0  0.00000000000E+00  0.00000000000E+00  0.99999998245E-14  0.12509000000E+03  0.12509000000E+03 0.  0.
        -13    1    3    3    0    0  0.27995384269E+01  0.52645884175E+02  0.26333675114E+02  0.58931317184E+02  0.10566000000E+00 0.  1.
         23    2    1    0    0    0  0.32489065723E+01  0.15709227043E+02  0.24358621279E+02  0.95923621431E+02  0.91381964904E+02 0.  0.
         13    1    3    3    0    0  0.44936814540E+00 -0.36936657132E+02 -0.19750538354E+01  0.36992304247E+02  0.10566000000E+00 0. -1.
         22    1    1    0    0    0 -0.32489065723E+01 -0.15709227043E+02 -0.24358621279E+02  0.29166378569E+02  0.00000000000E+00 0.  1.
</event>
<event>
 5    1  0.2377303E-009  0.9118800E+02  0.7815553E-02  0.1125453E+00
         25   -1    0    0    0    0  0.00000000000E+00  0.00000000000E+00  0.99999998245E-14  0.12509000000E+03  0.12509000000E+03 0.  0.
        -13    1    3    3    0    0  0.59784301387E+01  0.57898307964E+02  0.80800585286E+01  0.58764395699E+02  0.10566000000E+00 0.  1.
         23    2    1    0    0    0  0.16899753466E+02  0.23988495682E+02 -0.16670432468E+01  0.95699038371E+02  0.91074021102E+02 0.  0.
         13    1    3    3    0    0  0.10921323327E+02 -0.33909812282E+02 -0.97471017754E+01  0.36934642671E+02  0.10566000000E+00 0. -1.
         22    1    1    0    0    0 -0.16899753466E+02 -0.23988495682E+02  0.16670432468E+01  0.29390961629E+02  0.00000000000E+00 0.  1.
</event>
<event>
 5    1  0.2377303E-009  0.9118800E+02  0.7815553E-02  0.1125453E+00
         25   -1    0    0    0    0  0.00000000000E+00  0.00000000000E+00  0.99999998245E-14  0.12509000000E+03  0.12509000000E+03 0.  0.
        -13    1    3    3    0    0  0.33231890230E+02 -0.22037191931E+02  0.27383425409E+02  0.48372094307E+02  0.10566000000E+00 0. -1.
         23    2    1    0    0    0 -0.44570728601E+01  0.61836279810E+01  0.28620193264E+02  0.95472130125E+02  0.90761827960E+02 0.  0.
         13    1    3    3    0    0 -0.37688963090E+02  0.28220819912E+02  0.12367678548E+01  0.47100035818E+02  0.10566000000E+00 0.  1.
         22    1    1    0    0    0  0.44570728601E+01 -0.61836279810E+01 -0.28620193264E+02  0.29617869875E+02  0.00000000000E+00 0.  1.
</event>
<event>
 5    1  0.2377303E-009  0.9118800E+02  0.7815553E-02  0.1125453E+00
         25   -1    0    0    0    0  0.00000000000E+00  0.00000000000E+00  0.99999998245E-14  0.12509000000E+03  0.12509000000E+03 0.  0.
        -13    1    3    3    0    0  0.32865207269E+02  0.23831683614E+02  0.58137160928E+01  0.41010748001E+02  0.10566000000E+00 0.  1.
         23    2    1    0    0    0 -0.11744681254E+02  0.15683604499E+02 -0.23105484134E+02  0.94795175608E+02  0.89823988631E+02 0.  0.
         13    1    3    3    0    0 -0.44609888523E+02 -0.81480791147E+01 -0.28919200227E+02  0.53784427608E+02  0.10566000000E+00 0. -1.
         22    1    1    0    0    0  0.11744681254E+02 -0.15683604499E+02  0.23105484134E+02  0.30294824392E+02  0.00000000000E+00 0. -1.
</event>
<event>
 5    1  0.2377303E-009  0.9118800E+02  0.7815553E-02  0.1125453E+00
         25   -1    0    0    0    0  0.00000000000E+00  0.00000000000E+00  0.99999998245E-14  0.12509000000E+03  0.12509000000E+03 0.  0.
        -13    1    3    3    0    0  0.20750010521E+02  0.14687399647E+02  0.15322763147E+02  0.29683006578E+02  0.10566000000E+00 0.  1.
         23    2    1    0    0    0  0.25617067353E+02 -0.23711953811E+02 -0.22305240683E+02  0.83665192756E+02  0.72690094398E+02 0.  0.
         13    1    3    3    0    0  0.48670568318E+01 -0.38399353459E+02 -0.37628003830E+02  0.53982186178E+02  0.10566000000E+00 0. -1.
         22    1    1    0    0    0 -0.25617067353E+02  0.23711953811E+02  0.22305240683E+02  0.41424807244E+02  0.00000000000E+00 0. -1.
</event>
<event>
 5    1  0.2377303E-009  0.9118800E+02  0.7815553E-02  0.1125453E+00
         25   -1    0    0    0    0  0.00000000000E+00  0.00000000000E+00  0.99999998245E-14  0.12509000000E+03  0.12509000000E+03 0.  0.
        -13    1    3    3    0    0  0.27689266171E+02  0.32787001171E+02 -0.21915965014E+02  0.48187172499E+02  0.10566000000E+00 0.  1.
         23    2    1    0    0    0 -0.12448608009E+02  0.44236308685E+01 -0.24340727339E+02  0.97395102296E+02  0.93374507188E+02 0.  0.
         13    1    3    3    0    0 -0.40137874181E+02 -0.28363370302E+02 -0.24247623246E+01  0.49207929798E+02  0.10566000000E+00 0. -1.
         22    1    1    0    0    0  0.12448608009E+02 -0.44236308685E+01  0.24340727339E+02  0.27694897704E+02  0.00000000000E+00 0.  1.
</event>
<event>
 5    1  0.2377303E-009  0.9118800E+02  0.7815553E-02  0.1125453E+00
         25   -1    0    0    0    0  0.00000000000E+00  0.00000000000E+00  0.99999998245E-14  0.12509000000E+03  0.12509000000E+03 0.  0.
        -13    1    3    3    0    0 -0.99679426279E+01 -0.31752182540E+02  0.47493405557E+02  0.57993066066E+02  0.10566000000E+00 0.  1.
         23    2    1    0    0    0 -0.20390665837E+02 -0.11864141175E+02  0.16349599294E+02  0.96387273715E+02  0.92014455593E+02 0.  0.
         13    1    3    3    0    0 -0.10422723209E+02  0.19888041364E+02 -0.31143806263E+02  0.38394207649E+02  0.10566000000E+00 0. -1.
         22    1    1    0    0    0  0.20390665837E+02  0.11864141175E+02 -0.16349599294E+02  0.28702726285E+02  0.00000000000E+00 0.  1.
</event>
<event>
 5    1  0.2377303E-009  0.9118800E+02  0.7815553E-02  0.1125453E+00
         25   -1    0    0    0    0  0.00000000000E+00  0.00000000000E+00  0.99999998245E-14  0.12509000000E+03  0.12509000000E+03 0.  0.
        -13    1    3    3    0    0  0.15122147480E+02 -0.10693922050E+02 -0.57169940742E+02  0.60095362564E+02  0.10566000000E+00 0. -1.
         23    2    1    0    0    0  0.82565833812E+01  0.75073725062E+01 -0.25377957966E+02  0.97366858735E+02  0.93336662777E+02 0.  0.
         13    1    3    3    0    0 -0.68655640989E+01  0.18201294557E+02  0.31791982776E+02  0.37271496171E+02  0.10566000000E+00 0.  1.
         22    1    1    0    0    0 -0.82565833812E+01 -0.75073725062E+01  0.25377957966E+02  0.27723141265E+02  0.00000000000E+00 0. -1.
</event>
<event>
 5    1  0.2377303E-009  0.9118800E+02  0.7815553E-02  0.1125453E+00
         25   -1    0    0    0    0  0.00000000000E+00  0.00000000000E+00  0.99999998245E-14  0.12509000000E+03  0.12509000000E+03 0.  0.
        -13    1    3    3    0    0  0.19798419482E+02 -0.17883907465E+02  0.37088452845E+02  0.45687810832E+02  0.10566000000E+00 0. -1.
         23    2    1    0    0    0  0.23271848133E+02  0.17885968478E+02  0.23923753100E+01  0.95641566366E+02  0.90995049169E+02 0.  0.
         13    1    3    3    0    0  0.34734286509E+01  0.35769875942E+02 -0.34696077535E+02  0.49953755533E+02  0.10566000000E+00 0.  1.
         22    1    1    0    0    0 -0.23271848133E+02 -0.17885968478E+02 -0.23923753100E+01  0.29448433634E+02  0.00000000000E+00 0.  1.
</event>
<event>
 5    1  0.2377303E-009  0.9118800E+02  0.7815553E-02  0.1125453E+00
         25   -1    0    0    0    0  0.00000000000E+00  0.00000000000E+00  0.99999998245E-14  0.12509000000E+03  0.12509000000E+03 0.  0.
        -13    1    3    3    0    0  0.11216965489E+02 -0.66887034816E+01 -0.32813895473E+02  0.35317445677E+02  0.10566000000E+00 0. -1.
         23    2    1    0    0    0 -0.10314254662E+02 -0.16464420131E+02  0.22433671799E+02  0.95412894180E+02  0.90680150892E+02 0.  0.
         13    1    3    3    0    0 -0.21531220151E+02 -0.97757166495E+01  0.55247567272E+02  0.60095448502E+02  0.10566000000E+00 0.  1.
         22    1    1    0    0    0  0.10314254662E+02  0.16464420131E+02 -0.22433671799E+02  0.29677105820E+02  0.00000000000E+00 0.  1.
</event>
<event>
 5    1  0.2377303E-009  0.9118800E+02  0.7815553E-02  0.1125453E+00
         25   -1    0    0    0    0  0.00000000000E+00  0.00000000000E+00  0.99999998245E-14  0.12509000000E+03  0.12509000000E+03 0.  0.
        -13    1    3    3    0    0 -0.46609127465E+02 -0.34192872986E+02  0.87653315353E+01  0.58467132024E+02  0.10566000000E+00 0. -1.
         23    2    1    0    0    0 -0.14278347902E+02 -0.23675851151E+02 -0.79069074348E+01  0.96333499314E+02  0.91941322366E+02 0.  0.
         13    1    3    3    0    0  0.32330779563E+02  0.10517021835E+02 -0.16672238970E+02  0.37866367290E+02  0.10566000000E+00 0.  1.
         22    1    1    0    0    0  0.14278347902E+02  0.23675851151E+02  0.79069074348E+01  0.28756500686E+02  0.00000000000E+00 0. -1.
</event>
<event>
 5    1  0.2377303E-009  0.9118800E+02  0.7815553E-02  0.1125453E+00
         25   -1    0    0    0    0  0.00000000000E+00  0.00000000000E+00  0.99999998245E-14  0.12509000000E+03  0.12509000000E+03 0.  0.
        -13    1    3    3    0    0 -0.10674744627E+02 -0.28866587800E+02  0.36682552843E+02  0.47883722821E+02  0.10566000000E+00 0. -1.
         23    2    1    0    0    0  0.15007487164E+02 -0.25958348497E+02 -0.26935432477E+01  0.94984922307E+02  0.90087844700E+02 0.  0.
         13    1    3    3    0    0  0.25682231791E+02  0.29082393031E+01 -0.39376096091E+02  0.47101199486E+02  0.10566000000E+00 0.  1.
         22    1    1    0    0    0 -0.15007487164E+02  0.25958348497E+02  0.26935432477E+01  0.30105077693E+02  0.00000000000E+00 0. -1.
</event>
<event>
 5    1  0.2377303E-009  0.9118800E+02  0.7815553E-02  0.1125453E+00
         25   -1    0    0    0    0  0.00000000000E+00  0.00000000000E+00  0.99999998245E-14  0.12509000000E+03  0.12509000000E+03 0.  0.
        -13    1    3    3    0    0  0.15291860060E+02  0.28453260386E+02  0.18457756205E+02  0.37203883384E+02  0.10566000000E+00 0.  1.
         23    2    1    0    0    0 -0.27517254634E+02 -0.75170234681E-01 -0.97774714459E+01  0.95887193610E+02  0.91332086352E+02 0.  0.
         13    1    3    3    0    0 -0.42809114694E+02 -0.28528430621E+02 -0.28235227650E+02  0.58683310226E+02  0.10566000000E+00 0. -1.
         22    1    1    0    0    0  0.27517254634E+02  0.75170234681E-01  0.97774714459E+01  0.29202806390E+02  0.00000000000E+00 0. -1.
</event>
<event>
 5    1  0.2377303E-009  0.9118800E+02  0.7815553E-02  0.1125453E+00
         25   -1    0    0    0    0  0.00000000000E+00  0.00000000000E+00  0.99999998245E-14  0.12509000000E+03  0.12509000000E+03 0.  0.
        -13    1    3    3    0    0 -0.44847160535E+02  0.19399598379E+02 -0.16299218513E+02  0.51510075845E+02  0.10566000000E+00 0.  1.
         23    2    1    0    0    0 -0.25941192445E+02  0.12018757752E+02  0.17957738299E+02  0.91327944847E+02  0.84858217880E+02 0.  0.
         13    1    3    3    0    0  0.18905968090E+02 -0.73808406278E+01  0.34256956812E+02  0.39817869002E+02  0.10566000000E+00 0. -1.
         22    1    1    0    0    0  0.25941192445E+02 -0.12018757752E+02 -0.17957738299E+02  0.33762055153E+02  0.00000000000E+00 0.  1.
</event>
<event>
 5    1  0.2377303E-009  0.9118800E+02  0.7815553E-02  0.1125453E+00
         25   -1    0    0    0    0  0.00000000000E+00  0.00000000000E+00  0.99999998245E-14  0.12509000000E+03  0.12509000000E+03 0.  0.
        -13    1    3    3    0    0  0.28422320457E+02  0.12043537406E+02  0.52487784117E+02  0.60892148418E+02  0.10566000000E+00 0.  1.
         23    2    1    0    0    0  0.19811127142E+02 -0.24441382731E+01  0.25567334399E+02  0.92653243707E+02  0.86789863525E+02 0.  0.
         13    1    3    3    0    0 -0.86111933158E+01 -0.14487675680E+02 -0.26920449718E+02  0.31761095289E+02  0.10566000000E+00 0. -1.
         22    1    1    0    0    0 -0.19811127142E+02  0.24441382731E+01 -0.25567334399E+02  0.32436756293E+02  0.00000000000E+00 0.  1.
</event>
<event>
 5    1  0.2377303E-009  0.9118800E+02  0.7815553E-02  0.1125453E+00
         25   -1    0    0    0    0  0.00000000000E+00  0.00000000000E+00  0.99999998245E-14  0.12509000000E+03  0.12509000000E+03 0.  0.
        -13    1    3    3    0    0 -0.13938921388E+02  0.89292939787E+01 -0.33783171677E+02  0.37621000425E+02  0.10566000000E+00 0.  1.
         23    2    1    0    0    0 -0.19409286832E+02 -0.10537506235E+02  0.20133550401E+02  0.95204898282E+02  0.90392772676E+02 0.  0.
         13    1    3    3    0    0 -0.54703654433E+01 -0.19466800214E+02  0.53916722078E+02  0.57583897856E+02  0.10566000000E+00 0. -1.
         22    1    1    0    0    0  0.19409286832E+02  0.10537506235E+02 -0.20133550401E+02  0.29885101718E+02  0.00000000000E+00 0. -1.
</event>
<event>
 5    1  0.2377303E-009  0.9118800E+02  0.7815553E-02  0.1125453E+00
         25   -1    0    0    0    0  0.00000000000E+00  0.00000000000E+00  0.99999998245E-14  0.12509000000E+03  0.12509000000E+03 0.  0.
        -13    1    3    3    0    0  0.46761448483E+02 -0.18362207927E+02 -0.19827546371E+02  0.54008763209E+02  0.10566000000E+00 0. -1.
         23    2    1    0    0    0  0.63640421706E+01 -0.23756459456E+02 -0.17640606002E+02  0.94823494110E+02  0.89863416675E+02 0.  0.
         13    1    3    3    0    0 -0.40397406312E+02 -0.53942515293E+01  0.21869403688E+01  0.40814730901E+02  0.10566000000E+00 0.  1.
         22    1    1    0    0    0 -0.63640421706E+01  0.23756459456E+02  0.17640606002E+02  0.30266505890E+02  0.00000000000E+00 0. -1.
</event>
<event>
 5    1  0.2377303E-009  0.9118800E+02  0.7815553E-02  0.1125453E+00
         25   -1    0    0    0    0  0.00000000000E+00  0.00000000000E+00  0.99999998245E-14  0.12509000000E+03  0.12509000000E+03 0.  0.
        -13    1    3    3    0    0  0.38086804203E+02 -0.13557899565E+02  0.24979639863E+02  0.47522782607E+02  0.10566000000E+00 0.  1.
         23    2    1    0    0    0  0.23461960503E+02  0.14703880791E+02 -0.10767070475E+02  0.95381457330E+02  0.90636774516E+02 0.  0.
         13    1    3    3    0    0 -0.14624843700E+02  0.28261780356E+02 -0.35746710338E+02  0.47858674722E+02  0.10566000000E+00 0. -1.
         22    1    1    0    0    0 -0.23461960503E+02 -0.14703880791E+02  0.10767070475E+02  0.29708542670E+02  0.00000000000E+00 0.  1.
</event>
<event>
 5    1  0.2377303E-009  0.9118800E+02  0.7815553E-02  0.1125453E+00
         25   -1    0    0    0    0  0.00000000000E+00  0.00000000000E+00  0.99999998245E-14  0.12509000000E+03  0.12509000000E+03 0.  0.
        -13    1    3    3    0    0 -0.94267492830E+01 -0.52499287186E+02  0.29308871100E+02  0.60860987884E+02  0.10566000000E+00 0. -1.
         23    2    1    0    0    0  0.47406722270E+01 -0.25087854846E+02  0.18517710703E+02  0.93549866145E+02  0.88072682553E+02 0.  0.
         13    1    3    3    0    0  0.14167421510E+02  0.27411432340E+02 -0.10791160397E+02  0.32688878260E+02  0.10566000000E+00 0.  1.
         22    1    1    0    0    0 -0.47406722270E+01  0.25087854846E+02 -0.18517710703E+02  0.31540133855E+02  0.00000000000E+00 0. -1.
</event>
<event>
 5    1  0.2377303E-009  0.9118800E+02  0.7815553E-02  0.1125453E+00
         25   -1    0    0    0    0  0.00000000000E+00  0.00000000000E+00  0.99999998245E-14  0.12509000000E+03  0.12509000000E+03 0.  0.
        -13    1    3    3    0    0  0.89236140702E+01  0.15946245912E+02 -0.34361353953E+02  0.38918214968E+02  0.10566000000E+00 0. -1.
         23    2    1    0    0    0  0.14315487290E+02 -0.26348893676E+02  0.21140187068E+01  0.95028954620E+02  0.90148964313E+02 0.  0.
         13    1    3    3    0    0  0.53918732193E+01 -0.42295139588E+02  0.36475372660E+02  0.56110739652E+02  0.10566000000E+00 0.  1.
         22    1    1    0    0    0 -0.14315487290E+02  0.26348893676E+02 -0.21140187068E+01  0.30061045380E+02  0.00000000000E+00 0.  1.
</event>
<event>
 5    1  0.2377303E-009  0.9118800E+02  0.7815553E-02  0.1125453E+00
         25   -1    0    0    0    0  0.00000000000E+00  0.00000000000E+00  0.99999998245E-14  0.12509000000E+03  0.12509000000E+03 0.  0.
        -13    1    3    3    0    0 -0.95046813864E+00  0.31213595728E+02 -0.36184664452E+02  0.47796789155E+02  0.10566000000E+00 0. -1.
         23    2    1    0    0    0 -0.24070997435E+02 -0.55811138586E+01 -0.15468577283E+02  0.95938008086E+02  0.91401656237E+02 0.  0.
         13    1    3    3    0    0 -0.23120529296E+02 -0.36794709587E+02  0.20716087169E+02  0.48141218931E+02  0.10566000000E+00 0.  1.
         22    1    1    0    0    0  0.24070997435E+02  0.55811138586E+01  0.15468577283E+02  0.29151991914E+02  0.00000000000E+00 0.  1.
</event>
<event>
 5    1  0.2377303E-009  0.9118800E+02  0.7815553E-02  0.1125453E+00
         25   -1    0    0    0    0  0.00000000000E+00  0.00000000000E+00  0.99999998245E-14  0.12509000000E+03  0.12509000000E+03 0.  0.
        -13    1    3    3    0    0 -0.14491152920E+02 -0.48850003002E+02 -0.28287306348E+02  0.58279491854E+02  0.10566000000E+00 0.  1.
         23    2    1    0    0    0 -0.14284615083E+02 -0.10761099317E+02 -0.21758689212E+02  0.96924559424E+02  0.92741997912E+02 0.  0.
         13    1    3    3    0    0  0.20653783727E+00  0.38088903685E+02  0.65286171357E+01  0.38645067570E+02  0.10566000000E+00 0. -1.
         22    1    1    0    0    0  0.14284615083E+02  0.10761099317E+02  0.21758689212E+02  0.28165440576E+02  0.00000000000E+00 0.  1.
</event>
<event>
 5    1  0.2377303E-009  0.9118800E+02  0.7815553E-02  0.1125453E+00
         25   -1    0    0    0    0  0.00000000000E+00  0.00000000000E+00  0.99999998245E-14  0.12509000000E+03  0.12509000000E+03 0.  0.
        -13    1    3    3    0    0 -0.15521819800E+02 -0.45292072017E+02  0.33383750722E+00  0.47879236513E+02  0.10566000000E+00 0.  1.
         23    2    1    0    0    0  0.22776858520E+02 -0.15225918331E+02 -0.61819836069E+01  0.97003868291E+02  0.92848907743E+02 0.  0.
         13    1    3    3    0    0  0.38298678320E+02  0.30066153686E+02 -0.65158211141E+01  0.49124631778E+02  0.10566000000E+00 0. -1.
         22    1    1    0    0    0 -0.22776858520E+02  0.15225918331E+02  0.61819836069E+01  0.28086131709E+02  0.00000000000E+00 0.  1.
</event>
<event>
 5    1  0.2377303E-009  0.9118800E+02  0.7815553E-02  0.1125453E+00
         25   -1    0    0    0    0  0.00000000000E+00  0.00000000000E+00  0.99999998245E-14  0.12509000000E+03  0.12509000000E+03 0.  0.
        -13    1    3    3    0    0  0.19719165589E+02  0.84749996535E+00  0.48671891284E+02  0.52521689928E+02  0.10566000000E+00 0.  1.
         23    2    1    0    0    0 -0.13870488232E+01  0.23054842510E+02  0.23029565355E+02  0.92473891280E+02  0.86530977231E+02 0.  0.
         13    1    3    3    0    0 -0.21106214412E+02  0.22207342545E+02 -0.25642325930E+02  0.39952201352E+02  0.10566000000E+00 0. -1.
         22    1    1    0    0    0  0.13870488232E+01 -0.23054842510E+02 -0.23029565355E+02  0.32616108720E+02  0.00000000000E+00 0. -1.
</event>
<event>
 5    1  0.2377303E-009  0.9118800E+02  0.7815553E-02  0.1125453E+00
         25   -1    0    0    0    0  0.00000000000E+00  0.00000000000E+00  0.99999998245E-14  0.12509000000E+03  0.12509000000E+03 0.  0.
        -13    1    3    3    0    0 -0.12214629976E+02  0.40036515979E+02  0.31566415197E+02  0.52426801634E+02  0.10566000000E+00 0. -1.
         23    2    1    0    0    0 -0.24447850075E+02  0.16209887019E+02 -0.23717612092E+01  0.95660710819E+02  0.91021363057E+02 0.  0.
         13    1    3    3    0    0 -0.12233220099E+02 -0.23826628960E+02 -0.33938176406E+02  0.43233909185E+02  0.10566000000E+00 0.  1.
         22    1    1    0    0    0  0.24447850075E+02 -0.16209887019E+02  0.23717612092E+01  0.29429289181E+02  0.00000000000E+00 0. -1.
</event>
<event>
 5    1  0.2377303E-009  0.9118800E+02  0.7815553E-02  0.1125453E+00
         25   -1    0    0    0    0  0.00000000000E+00  0.00000000000E+00  0.99999998245E-14  0.12509000000E+03  0.12509000000E+03 0.  0.
        -13    1    3    3    0    0  0.35708804034E+02  0.91910076330E+01  0.46195970417E+01  0.37161070325E+02  0.10566000000E+00 0. -1.
         23    2    1    0    0    0 -0.19932989258E+02  0.22127294252E+01  0.21464389849E+02  0.95714155096E+02  0.91094781530E+02 0.  0.
         13    1    3    3    0    0 -0.55641793291E+02 -0.69782782079E+01  0.16844792807E+02  0.58553084771E+02  0.10566000000E+00 0.  1.
         22    1    1    0    0    0  0.19932989258E+02 -0.22127294252E+01 -0.21464389849E+02  0.29375844904E+02  0.00000000000E+00 0.  1.
</event>
<event>
 5    1  0.2377303E-009  0.9118800E+02  0.7815553E-02  0.1125453E+00
         25   -1    0    0    0    0  0.00000000000E+00  0.00000000000E+00  0.99999998245E-14  0.12509000000E+03  0.12509000000E+03 0.  0.
        -13    1    3    3    0    0 -0.43419926859E+02 -0.37704611238E+01  0.69885976118E+01  0.44140209403E+02  0.10566000000E+00 0.  1.
         23    2    1    0    0    0 -0.74990787076E+01  0.36657240005E+01 -0.28628541752E+02  0.95269417901E+02  0.90482014071E+02 0.  0.
         13    1    3    3    0    0  0.35920848152E+02  0.74361851243E+01 -0.35617139363E+02  0.51129208498E+02  0.10566000000E+00 0. -1.
         22    1    1    0    0    0  0.74990787076E+01 -0.36657240005E+01  0.28628541752E+02  0.29820582099E+02  0.00000000000E+00 0. -1.
</event>
<event>
 5    1  0.2377303E-009  0.9118800E+02  0.7815553E-02  0.1125453E+00
         25   -1    0    0    0    0  0.00000000000E+00  0.00000000000E+00  0.99999998245E-14  0.12509000000E+03  0.12509000000E+03 0.  0.
        -13    1    3    3    0    0  0.17430245347E+02  0.31384273111E+01 -0.36626991377E+02  0.40684282471E+02  0.10566000000E+00 0.  1.
         23    2    1    0    0    0 -0.21320941012E+02 -0.11463436204E+02  0.60373438925E+01  0.10014120411E+03  0.96983598322E+02 0.  0.
         13    1    3    3    0    0 -0.38751186359E+02 -0.14601863515E+02  0.42664335270E+02  0.59456921635E+02  0.10566000000E+00 0. -1.
         22    1    1    0    0    0  0.21320941012E+02  0.11463436204E+02 -0.60373438925E+01  0.24948795893E+02  0.00000000000E+00 0. -1.
</event>
<event>
 5    1  0.2377303E-009  0.9118800E+02  0.7815553E-02  0.1125453E+00
         25   -1    0    0    0    0  0.00000000000E+00  0.00000000000E+00  0.99999998245E-14  0.12509000000E+03  0.12509000000E+03 0.  0.
        -13    1    3    3    0    0 -0.23917810534E+02  0.53206282464E+02 -0.21714975683E+02  0.62245654365E+02  0.10566000000E+00 0. -1.
         23    2    1    0    0    0 -0.12962565889E+02  0.21991041150E+02 -0.12933863075E+02  0.96473242334E+02  0.92131252390E+02 0.  0.
         13    1    3    3    0    0  0.10955244646E+02 -0.31215241313E+02  0.87811126082E+01  0.34227587969E+02  0.10566000000E+00 0.  1.
         22    1    1    0    0    0  0.12962565889E+02 -0.21991041150E+02  0.12933863075E+02  0.28616757666E+02  0.00000000000E+00 0. -1.
</event>
<event>
 5    1  0.2377303E-009  0.9118800E+02  0.7815553E-02  0.1125453E+00
         25   -1    0    0    0    0  0.00000000000E+00  0.00000000000E+00  0.99999998245E-14  0.12509000000E+03  0.12509000000E+03 0.  0.
        -13    1    3    3    0    0 -0.23502336369E+02 -0.30879312670E+02  0.54663976892E+00  0.38809815058E+02  0.10566000000E+00 0. -1.
         23    2    1    0    0    0  0.25031457088E+02 -0.77192847149E+01 -0.15149081533E+02  0.94830193792E+02  0.89872742157E+02 0.  0.
         13    1    3    3    0    0  0.48533793458E+02  0.23160027955E+02 -0.15695721301E+02  0.56020378734E+02  0.10566000000E+00 0.  1.
         22    1    1    0    0    0 -0.25031457088E+02  0.77192847149E+01  0.15149081533E+02  0.30259806208E+02  0.00000000000E+00 0.  1.
</event>
<event>
 5    1  0.2377303E-009  0.9118800E+02  0.7815553E-02  0.1125453E+00
         25   -1    0    0    0    0  0.00000000000E+00  0.00000000000E+00  0.99999998245E-14  0.12509000000E+03  0.12509000000E+03 0.  0.
        -13    1    3    3    0    0  0.47918813919E+02  0.18696277415E+02 -0.68539019073E+01  0.51891720457E+02  0.10566000000E+00 0.  1.
         23    2    1    0    0    0  0.20049213958E+02  0.17807769092E+01  0.21888142318E+02  0.95353945775E+02  0.90598797200E+02 0.  0.
         13    1    3    3    0    0 -0.27869599961E+02 -0.16915500506E+02  0.28742044225E+02  0.43462225318E+02  0.10566000000E+00 0. -1.
         22    1    1    0    0    0 -0.20049213958E+02 -0.17807769092E+01 -0.21888142318E+02  0.29736054225E+02  0.00000000000E+00 0.  1.
</event>
<event>
 5    1  0.2377303E-009  0.9118800E+02  0.7815553E-02  0.1125453E+00
         25   -1    0    0    0    0  0.00000000000E+00  0.00000000000E+00  0.99999998245E-14  0.12509000000E+03  0.12509000000E+03 0.  0.
        -13    1    3    3    0    0 -0.36188053404E+02 -0.14205143200E+02  0.82595532933E+01  0.39744089965E+02  0.10566000000E+00 0. -1.
         23    2    1    0    0    0  0.81983281894E+01 -0.33501142069E+02 -0.57364961909E+01  0.90126497693E+02  0.83068279703E+02 0.  0.
         13    1    3    3    0    0  0.44386381593E+02 -0.19295998869E+02 -0.13996049484E+02  0.50382407728E+02  0.10566000000E+00 0.  1.
         22    1    1    0    0    0 -0.81983281894E+01  0.33501142069E+02  0.57364961909E+01  0.34963502307E+02  0.00000000000E+00 0. -1.
</event>
<event>
 5    1  0.2377303E-009  0.9118800E+02  0.7815553E-02  0.1125453E+00
         25   -1    0    0    0    0  0.00000000000E+00  0.00000000000E+00  0.99999998245E-14  0.12509000000E+03  0.12509000000E+03 0.  0.
        -13    1    3    3    0    0 -0.13826565361E+02  0.46355485930E+02  0.11553484761E+02  0.49734285555E+02  0.10566000000E+00 0.  1.
         23    2    1    0    0    0 -0.16215222442E+01  0.81566209682E+01  0.30060542999E+02  0.93900321493E+02  0.88569037090E+02 0.  0.
         13    1    3    3    0    0  0.12205043117E+02 -0.38198864962E+02  0.18507058238E+02  0.44166035938E+02  0.10566000000E+00 0. -1.
         22    1    1    0    0    0  0.16215222442E+01 -0.81566209682E+01 -0.30060542999E+02  0.31189678507E+02  0.00000000000E+00 0.  1.
</event>
<event>
 5    1  0.2377303E-009  0.9118800E+02  0.7815553E-02  0.1125453E+00
         25   -1    0    0    0    0  0.00000000000E+00  0.00000000000E+00  0.99999998245E-14  0.12509000000E+03  0.12509000000E+03 0.  0.
        -13    1    3    3    0    0  0.43324372797E+02  0.77594345727E+01  0.28667118605E+02  0.52526421507E+02  0.10566000000E+00 0. -1.
         23    2    1    0    0    0  0.22285628746E+02  0.14783381939E+02 -0.95325297241E+01  0.96698685252E+02  0.92436837767E+02 0.  0.
         13    1    3    3    0    0 -0.21038744051E+02  0.70239473664E+01 -0.38199648329E+02  0.44172263745E+02  0.10566000000E+00 0.  1.
         22    1    1    0    0    0 -0.22285628746E+02 -0.14783381939E+02  0.95325297241E+01  0.28391314748E+02  0.00000000000E+00 0.  1.
</event>
<event>
 5    1  0.2377303E-009  0.9118800E+02  0.7815553E-02  0.1125453E+00
         25   -1    0    0    0    0  0.00000000000E+00  0.00000000000E+00  0.99999998245E-14  0.12509000000E+03  0.12509000000E+03 0.  0.
        -13    1    3    3    0    0  0.41148186788E+02 -0.36555767703E+02  0.28349374237E+02  0.61912806526E+02  0.10566000000E+00 0.  1.
         23    2    1    0    0    0  0.14445301986E+02 -0.21112447047E+02  0.11812120045E+02  0.96913265808E+02  0.92726763880E+02 0.  0.
         13    1    3    3    0    0 -0.26702884803E+02  0.15443320656E+02 -0.16537254192E+02  0.35000459281E+02  0.10566000000E+00 0. -1.
         22    1    1    0    0    0 -0.14445301986E+02  0.21112447047E+02 -0.11812120045E+02  0.28176734192E+02  0.00000000000E+00 0.  1.
</event>
<event>
 5    1  0.2377303E-009  0.9118800E+02  0.7815553E-02  0.1125453E+00
         25   -1    0    0    0    0  0.00000000000E+00  0.00000000000E+00  0.99999998245E-14  0.12509000000E+03  0.12509000000E+03 0.  0.
        -13    1    3    3    0    0 -0.22330256107E+02 -0.32953024001E+02 -0.69779038238E+01  0.40413418990E+02  0.10566000000E+00 0.  1.
         23    2    1    0    0    0  0.42975412827E+01  0.18284797498E+02 -0.17857041345E+02  0.99173275550E+02  0.95727018010E+02 0.  0.
         13    1    3    3    0    0  0.26627797389E+02  0.51237821499E+02 -0.10879137522E+02  0.58759856560E+02  0.10566000000E+00 0. -1.
         22    1    1    0    0    0 -0.42975412827E+01 -0.18284797498E+02  0.17857041345E+02  0.25916724450E+02  0.00000000000E+00 0. -1.
</event>
<event>
 5    1  0.2377303E-009  0.9118800E+02  0.7815553E-02  0.1125453E+00
         25   -1    0    0    0    0  0.00000000000E+00  0.00000000000E+00  0.99999998245E-14  0.12509000000E+03  0.12509000000E+03 0.  0.
        -13    1    3    3    0    0 -0.88982429234E+01 -0.46091460316E+02 -0.85677045122E+01  0.47718111507E+02  0.10566000000E+00 0.  1.
         23    2    1    0    0    0  0.12307604577E+02 -0.63981803384E+01 -0.25711125732E+02  0.95875691375E+02  0.91316331333E+02 0.  0.
         13    1    3    3    0    0  0.21205847500E+02  0.39693279977E+02 -0.17143421220E+02  0.48157579868E+02  0.10566000000E+00 0. -1.
         22    1    1    0    0    0 -0.12307604577E+02  0.63981803384E+01  0.25711125732E+02  0.29214308625E+02  0.00000000000E+00 0.  1.
</event>
<event>
 5    1  0.2377303E-009  0.9118800E+02  0.7815553E-02  0.1125453E+00
         25   -1    0    0    0    0  0.00000000000E+00  0.00000000000E+00  0.99999998245E-14  0.12509000000E+03  0.12509000000E+03 0.  0.
        -13    1    3    3    0    0  0.29694935406E+02 -0.11154294055E+02  0.35775027577E+02  0.47812877207E+02  0.10566000000E+00 0.  1.
         23    2    1    0    0    0 -0.50016083569E+01 -0.28894321970E+02  0.18330873441E+02  0.90507940354E+02  0.83640710290E+02 0.  0.
         13    1    3    3    0    0 -0.34696543763E+02 -0.17740027915E+02 -0.17444154137E+02  0.42695063147E+02  0.10566000000E+00 0. -1.
         22    1    1    0    0    0  0.50016083569E+01  0.28894321970E+02 -0.18330873441E+02  0.34582059646E+02  0.00000000000E+00 0.  1.
</event>
<event>
 5    1  0.2377303E-009  0.9118800E+02  0.7815553E-02  0.1125453E+00
         25   -1    0    0    0    0  0.00000000000E+00  0.00000000000E+00  0.99999998245E-14  0.12509000000E+03  0.12509000000E+03 0.  0.
        -13    1    3    3    0    0  0.33160344213E+02 -0.11071068078E+02 -0.21759822915E+02  0.41178611366E+02  0.10566000000E+00 0.  1.
         23    2    1    0    0    0  0.92201365395E+01 -0.34820862674E+01  0.27175621314E+02  0.96182384457E+02  0.91735493914E+02 0.  0.
         13    1    3    3    0    0 -0.23940207674E+02  0.75889818104E+01  0.48935444229E+02  0.55003773091E+02  0.10566000000E+00 0. -1.
         22    1    1    0    0    0 -0.92201365395E+01  0.34820862674E+01 -0.27175621314E+02  0.28907615543E+02  0.00000000000E+00 0. -1.
</event>
<event>
 5    1  0.2377303E-009  0.9118800E+02  0.7815553E-02  0.1125453E+00
         25   -1    0    0    0    0  0.00000000000E+00  0.00000000000E+00  0.99999998245E-14  0.12509000000E+03  0.12509000000E+03 0.  0.
        -13    1    3    3    0    0  0.30135509449E+01  0.45554083710E+02 -0.32911223607E+02  0.56279799532E+02  0.10566000000E+00 0. -1.
         23    2    1    0    0    0  0.28755040656E+01  0.23341257958E+02  0.57602367983E+01  0.10087712791E+03  0.97928196968E+02 0.  0.
         13    1    3    3    0    0 -0.13804687934E+00 -0.22212825752E+02  0.38671460406E+02  0.44597328382E+02  0.10566000000E+00 0.  1.
         22    1    1    0    0    0 -0.28755040656E+01 -0.23341257958E+02 -0.57602367983E+01  0.24212872086E+02  0.00000000000E+00 0. -1.
</event>
<event>
 5    1  0.2377303E-009  0.9118800E+02  0.7815553E-02  0.1125453E+00
         25   -1    0    0    0    0  0.00000000000E+00  0.00000000000E+00  0.99999998245E-14  0.12509000000E+03  0.12509000000E+03 0.  0.
        -13    1    3    3    0    0  0.55439556446E+02 -0.23539834251E+01  0.28370326970E+02  0.62321523355E+02  0.10566000000E+00 0.  1.
         23    2    1    0    0    0  0.24361590490E+02  0.12059205774E+01  0.15766039598E+02  0.96046767738E+02  0.91550380953E+02 0.  0.
         13    1    3    3    0    0 -0.31077965956E+02  0.35599040025E+01 -0.12604287372E+02  0.33725244382E+02  0.10566000000E+00 0. -1.
         22    1    1    0    0    0 -0.24361590490E+02 -0.12059205774E+01 -0.15766039598E+02  0.29043232262E+02  0.00000000000E+00 0.  1.
</event>
<event>
 5    1  0.2377303E-009  0.9118800E+02  0.7815553E-02  0.1125453E+00
         25   -1    0    0    0    0  0.00000000000E+00  0.00000000000E+00  0.99999998245E-14  0.12509000000E+03  0.12509000000E+03 0.  0.
        -13    1    3    3    0    0  0.14021919562E+01 -0.33548915221E+02 -0.19453875200E+02  0.38806704049E+02  0.10566000000E+00 0.  1.
         23    2    1    0    0    0 -0.32985646221E+02 -0.38095917134E+01  0.66414903396E+01  0.91227406485E+02  0.84709884042E+02 0.  0.
         13    1    3    3    0    0 -0.34387838177E+02  0.29739323508E+02  0.26095365540E+02  0.52420702436E+02  0.10566000000E+00 0. -1.
         22    1    1    0    0    0  0.32985646221E+02  0.38095917134E+01 -0.66414903396E+01  0.33862593515E+02  0.00000000000E+00 0. -1.
</event>
<event>
 5    1  0.2377303E-009  0.9118800E+02  0.7815553E-02  0.1125453E+00
         25   -1    0    0    0    0  0.00000000000E+00  0.00000000000E+00  0.99999998245E-14  0.12509000000E+03  0.12509000000E+03 0.  0.
        -13    1    3    3    0    0  0.30003962845E+02 -0.31768385813E+02  0.12042635299E+02  0.45326640649E+02  0.10566000000E+00 0. -1.
         23    2    1    0    0    0  0.16710134601E+02  0.17959230521E+02  0.14013978832E+02  0.96838377710E+02  0.92625683455E+02 0.  0.
         13    1    3    3    0    0 -0.13293828245E+02  0.49727616334E+02  0.19713435327E+01  0.51511737061E+02  0.10566000000E+00 0.  1.
         22    1    1    0    0    0 -0.16710134601E+02 -0.17959230521E+02 -0.14013978832E+02  0.28251622290E+02  0.00000000000E+00 0.  1.
</event>
<event>
 5    1  0.2377303E-009  0.9118800E+02  0.7815553E-02  0.1125453E+00
         25   -1    0    0    0    0  0.00000000000E+00  0.00000000000E+00  0.99999998245E-14  0.12509000000E+03  0.12509000000E+03 0.  0.
        -13    1    3    3    0    0  0.30014030420E+02 -0.29976569151E+02 -0.33403100038E+02  0.53992730773E+02  0.10566000000E+00 0.  1.
         23    2    1    0    0    0 -0.71466097640E+01 -0.22004388413E+02 -0.20642023238E+02  0.94084189836E+02  0.88828342961E+02 0.  0.
         13    1    3    3    0    0 -0.37160640184E+02  0.79721807382E+01  0.12761076800E+02  0.40091459063E+02  0.10566000000E+00 0. -1.
         22    1    1    0    0    0  0.71466097640E+01  0.22004388413E+02  0.20642023238E+02  0.31005810164E+02  0.00000000000E+00 0. -1.
</event>
<event>
 5    1  0.2377303E-009  0.9118800E+02  0.7815553E-02  0.1125453E+00
         25   -1    0    0    0    0  0.00000000000E+00  0.00000000000E+00  0.99999998245E-14  0.12509000000E+03  0.12509000000E+03 0.  0.
        -13    1    3    3    0    0  0.39548898678E+01  0.30462050546E+02  0.34624227188E+02  0.46286347337E+02  0.10566000000E+00 0.  1.
         23    2    1    0    0    0 -0.25768963704E+01 -0.18101869202E+02  0.21202206968E+02  0.97092649343E+02  0.92968440412E+02 0.  0.
         13    1    3    3    0    0 -0.65317862382E+01 -0.48563919748E+02 -0.13422020220E+02  0.50806302006E+02  0.10566000000E+00 0. -1.
         22    1    1    0    0    0  0.25768963704E+01  0.18101869202E+02 -0.21202206968E+02  0.27997350657E+02  0.00000000000E+00 0.  1.
</event>
<event>
 5    1  0.2377303E-009  0.9118800E+02  0.7815553E-02  0.1125453E+00
         25   -1    0    0    0    0  0.00000000000E+00  0.00000000000E+00  0.99999998245E-14  0.12509000000E+03  0.12509000000E+03 0.  0.
        -13    1    3    3    0    0  0.33156767154E+02  0.35883530414E+02  0.13059142365E+02  0.50572238693E+02  0.10566000000E+00 0.  1.
         23    2    1    0    0    0  0.52766945259E+01  0.99133280482E-01  0.26645821902E+02  0.97926547397E+02  0.94083768673E+02 0.  0.
         13    1    3    3    0    0 -0.27880072628E+02 -0.35784397133E+02  0.13586679537E+02  0.47354308704E+02  0.10566000000E+00 0. -1.
         22    1    1    0    0    0 -0.52766945259E+01 -0.99133280482E-01 -0.26645821902E+02  0.27163452603E+02  0.00000000000E+00 0.  1.
</event>
<event>
 5    1  0.2377303E-009  0.9118800E+02  0.7815553E-02  0.1125453E+00
         25   -1    0    0    0    0  0.00000000000E+00  0.00000000000E+00  0.99999998245E-14  0.12509000000E+03  0.12509000000E+03 0.  0.
        -13    1    3    3    0    0  0.39762186146E+02 -0.61753759502E+01  0.38961465447E+02  0.56010478207E+02  0.10566000000E+00 0.  1.
         23    2    1    0    0    0  0.15030336787E+01 -0.42441155508E+01  0.29203110905E+02  0.95541847544E+02  0.90857863273E+02 0.  0.
         13    1    3    3    0    0 -0.38259152467E+02  0.19312603994E+01 -0.97583545425E+01  0.39531369337E+02  0.10566000000E+00 0. -1.
         22    1    1    0    0    0 -0.15030336787E+01  0.42441155508E+01 -0.29203110905E+02  0.29548152456E+02  0.00000000000E+00 0.  1.
</event>
<event>
 5    1  0.2377303E-009  0.9118800E+02  0.7815553E-02  0.1125453E+00
         25   -1    0    0    0    0  0.00000000000E+00  0.00000000000E+00  0.99999998245E-14  0.12509000000E+03  0.12509000000E+03 0.  0.
        -13    1    3    3    0    0  0.18189558367E+02  0.25135436740E+02  0.32102686027E+02  0.44645759349E+02  0.10566000000E+00 0. -1.
         23    2    1    0    0    0  0.23458654841E+02 -0.17421154784E+02  0.48082500224E+01  0.95477090834E+02  0.90768664664E+02 0.  0.
         13    1    3    3    0    0  0.52690964746E+01 -0.42556591524E+02 -0.27294436004E+02  0.50831331486E+02  0.10566000000E+00 0.  1.
         22    1    1    0    0    0 -0.23458654841E+02  0.17421154784E+02 -0.48082500224E+01  0.29612909166E+02  0.00000000000E+00 0. -1.
</event>
<event>
 5    1  0.2377303E-009  0.9118800E+02  0.7815553E-02  0.1125453E+00
         25   -1    0    0    0    0  0.00000000000E+00  0.00000000000E+00  0.99999998245E-14  0.12509000000E+03  0.12509000000E+03 0.  0.
        -13    1    3    3    0    0 -0.76307838151E+01  0.97727085123E+01 -0.42637205123E+02  0.44403571006E+02  0.10566000000E+00 0. -1.
         23    2    1    0    0    0 -0.14570775688E+02  0.27677638336E+02  0.27545534326E+01  0.93690211265E+02  0.88271790252E+02 0.  0.
         13    1    3    3    0    0 -0.69399918730E+01  0.17904929823E+02  0.45391758556E+02  0.49286640259E+02  0.10566000000E+00 0.  1.
         22    1    1    0    0    0  0.14570775688E+02 -0.27677638336E+02 -0.27545534326E+01  0.31399788735E+02  0.00000000000E+00 0.  1.
</event>
<event>
 5    1  0.2377303E-009  0.9118800E+02  0.7815553E-02  0.1125453E+00
         25   -1    0    0    0    0  0.00000000000E+00  0.00000000000E+00  0.99999998245E-14  0.12509000000E+03  0.12509000000E+03 0.  0.
        -13    1    3    3    0    0 -0.46212498923E+02 -0.35494102053E+02  0.13286821556E+02  0.59766019847E+02  0.10566000000E+00 0. -1.
         23    2    1    0    0    0 -0.76829203031E+01 -0.16353385350E+02  0.13072362772E+02  0.10278871875E+03  0.10034028881E+03 0.  0.
         13    1    3    3    0    0  0.38529578620E+02  0.19140716703E+02 -0.21445878353E+00  0.43022698906E+02  0.10566000000E+00 0.  1.
         22    1    1    0    0    0  0.76829203031E+01  0.16353385350E+02 -0.13072362772E+02  0.22301281247E+02  0.00000000000E+00 0. -1.
</event>
<event>
 5    1  0.2377303E-009  0.9118800E+02  0.7815553E-02  0.1125453E+00
         25   -1    0    0    0    0  0.00000000000E+00  0.00000000000E+00  0.99999998245E-14  0.12509000000E+03  0.12509000000E+03 0.  0.
        -13    1    3    3    0    0 -0.21662114064E+02 -0.24035347238E+01  0.49089545109E+02  0.53710508915E+02  0.10566000000E+00 0.  1.
         23    2    1    0    0    0  0.13646817111E+02 -0.43293662874E+01  0.24265948918E+02  0.96915271845E+02  0.92729470020E+02 0.  0.
         13    1    3    3    0    0  0.35308931175E+02 -0.19258315637E+01 -0.24823596191E+02  0.43204762930E+02  0.10566000000E+00 0. -1.
         22    1    1    0    0    0 -0.13646817111E+02  0.43293662874E+01 -0.24265948918E+02  0.28174728155E+02  0.00000000000E+00 0.  1.
</event>
<event>
 5    1  0.2377303E-009  0.9118800E+02  0.7815553E-02  0.1125453E+00
         25   -1    0    0    0    0  0.00000000000E+00  0.00000000000E+00  0.99999998245E-14  0.12509000000E+03  0.12509000000E+03 0.  0.
        -13    1    3    3    0    0 -0.31458702418E+02  0.39855495580E+01 -0.14765141127E+02  0.34979352762E+02  0.10566000000E+00 0.  1.
         23    2    1    0    0    0  0.26000352897E+02  0.43810698709E+01  0.90974418073E+01  0.97197786545E+02  0.93109796143E+02 0.  0.
         13    1    3    3    0    0  0.57459055315E+02  0.39552031286E+00  0.23862582934E+02  0.62218433783E+02  0.10566000000E+00 0. -1.
         22    1    1    0    0    0 -0.26000352897E+02 -0.43810698709E+01 -0.90974418073E+01  0.27892213455E+02  0.00000000000E+00 0. -1.
</event>
<event>
 5    1  0.2377303E-009  0.9118800E+02  0.7815553E-02  0.1125453E+00
         25   -1    0    0    0    0  0.00000000000E+00  0.00000000000E+00  0.99999998245E-14  0.12509000000E+03  0.12509000000E+03 0.  0.
        -13    1    3    3    0    0  0.13956676079E+02 -0.31550166486E+02  0.86473245516E+00  0.34510299024E+02  0.10566000000E+00 0. -1.
         23    2    1    0    0    0 -0.28726720914E+00  0.27687610402E+02 -0.84402836571E+01  0.96143071312E+02  0.91681871059E+02 0.  0.
         13    1    3    3    0    0 -0.14243943288E+02  0.59237776888E+02 -0.93050161122E+01  0.61632772288E+02  0.10566000000E+00 0.  1.
         22    1    1    0    0    0  0.28726720914E+00 -0.27687610402E+02  0.84402836571E+01  0.28946928688E+02  0.00000000000E+00 0.  1.
</event>
<event>
 5    1  0.2377303E-009  0.9118800E+02  0.7815553E-02  0.1125453E+00
         25   -1    0    0    0    0  0.00000000000E+00  0.00000000000E+00  0.99999998245E-14  0.12509000000E+03  0.12509000000E+03 0.  0.
        -13    1    3    3    0    0 -0.36656170977E+02  0.14714188588E+02  0.47829267089E+01  0.39787809295E+02  0.10566000000E+00 0. -1.
         23    2    1    0    0    0  0.17279424664E+02  0.19537201275E+02  0.15157080704E+02  0.94923497952E+02  0.90002514507E+02 0.  0.
         13    1    3    3    0    0  0.53935595641E+02  0.48230126868E+01  0.10374153995E+02  0.55135688657E+02  0.10566000000E+00 0.  1.
         22    1    1    0    0    0 -0.17279424664E+02 -0.19537201275E+02 -0.15157080704E+02  0.30166502048E+02  0.00000000000E+00 0.  1.
</event>
<event>
 5    1  0.2377303E-009  0.9118800E+02  0.7815553E-02  0.1125453E+00
         25   -1    0    0    0    0  0.00000000000E+00  0.00000000000E+00  0.99999998245E-14  0.12509000000E+03  0.12509000000E+03 0.  0.
        -13    1    3    3    0    0 -0.39767702259E+02 -0.41762818169E+02 -0.14571316844E+02  0.59480564582E+02  0.10566000000E+00 0.  1.
         23    2    1    0    0    0 -0.18316171516E+02 -0.36921817672E+02 -0.14271143634E+02  0.81473852763E+02  0.68815843991E+02 0.  0.
         13    1    3    3    0    0  0.21451530742E+02  0.48410004977E+01  0.30017321022E+00  0.21993288181E+02  0.10566000000E+00 0. -1.
         22    1    1    0    0    0  0.18316171516E+02  0.36921817672E+02  0.14271143634E+02  0.43616147237E+02  0.00000000000E+00 0.  1.
</event>
<event>
 5    1  0.2377303E-009  0.9118800E+02  0.7815553E-02  0.1125453E+00
         25   -1    0    0    0    0  0.00000000000E+00  0.00000000000E+00  0.99999998245E-14  0.12509000000E+03  0.12509000000E+03 0.  0.
        -13    1    3    3    0    0  0.57311224136E+02 -0.48861235639E+00 -0.22609614806E+02  0.61611857623E+02  0.10566000000E+00 0. -1.
         23    2    1    0    0    0  0.24250870451E+02  0.67922482937E+01 -0.12697978550E+02  0.96885780214E+02  0.92689677925E+02 0.  0.
         13    1    3    3    0    0 -0.33060353685E+02  0.72808606501E+01  0.99116362565E+01  0.35273922591E+02  0.10566000000E+00 0.  1.
         22    1    1    0    0    0 -0.24250870451E+02 -0.67922482937E+01  0.12697978550E+02  0.28204219786E+02  0.00000000000E+00 0. -1.
</event>
<event>
 5    1  0.2377303E-009  0.9118800E+02  0.7815553E-02  0.1125453E+00
         25   -1    0    0    0    0  0.00000000000E+00  0.00000000000E+00  0.99999998245E-14  0.12509000000E+03  0.12509000000E+03 0.  0.
        -13    1    3    3    0    0  0.22443215327E+02 -0.38916142992E+01  0.25699016757E+02  0.34340838696E+02  0.10566000000E+00 0. -1.
         23    2    1    0    0    0 -0.28337050258E+02  0.95295226792E+01 -0.43901245962E+01  0.94872895344E+02  0.89932156969E+02 0.  0.
         13    1    3    3    0    0 -0.50780265585E+02  0.13421136978E+02 -0.30089141353E+02  0.60532056648E+02  0.10566000000E+00 0.  1.
         22    1    1    0    0    0  0.28337050258E+02 -0.95295226792E+01  0.43901245962E+01  0.30217104656E+02  0.00000000000E+00 0.  1.
</event>
<event>
 5    1  0.2377303E-009  0.9118800E+02  0.7815553E-02  0.1125453E+00
         25   -1    0    0    0    0  0.00000000000E+00  0.00000000000E+00  0.99999998245E-14  0.12509000000E+03  0.12509000000E+03 0.  0.
        -13    1    3    3    0    0 -0.34935906859E+02  0.32666105294E+02  0.28160749287E+02  0.55503432214E+02  0.10566000000E+00 0. -1.
         23    2    1    0    0    0 -0.21724778803E+02  0.17756141860E+02 -0.72298447822E+01  0.96115576048E+02  0.91644349066E+02 0.  0.
         13    1    3    3    0    0  0.13211128056E+02 -0.14909963434E+02 -0.35390594070E+02  0.40612143833E+02  0.10566000000E+00 0.  1.
         22    1    1    0    0    0  0.21724778803E+02 -0.17756141860E+02  0.72298447822E+01  0.28974423952E+02  0.00000000000E+00 0. -1.
</event>
<event>
 5    1  0.2377303E-009  0.9118800E+02  0.7815553E-02  0.1125453E+00
         25   -1    0    0    0    0  0.00000000000E+00  0.00000000000E+00  0.99999998245E-14  0.12509000000E+03  0.12509000000E+03 0.  0.
        -13    1    3    3    0    0 -0.96283346456E+01  0.50536992193E+02  0.18280342391E+02  0.54597385377E+02  0.10566000000E+00 0. -1.
         23    2    1    0    0    0  0.13048555475E+02  0.26260043567E+02 -0.52408750361E+01  0.95302058492E+02  0.90527127942E+02 0.  0.
         13    1    3    3    0    0  0.22676890121E+02 -0.24276948626E+02 -0.23521217427E+02  0.40704673115E+02  0.10566000000E+00 0.  1.
         22    1    1    0    0    0 -0.13048555475E+02 -0.26260043567E+02  0.52408750361E+01  0.29787941508E+02  0.00000000000E+00 0. -1.
</event>
<event>
 5    1  0.2377303E-009  0.9118800E+02  0.7815553E-02  0.1125453E+00
         25   -1    0    0    0    0  0.00000000000E+00  0.00000000000E+00  0.99999998245E-14  0.12509000000E+03  0.12509000000E+03 0.  0.
        -13    1    3    3    0    0  0.37269200383E+02 -0.35789193378E+01 -0.18914711662E+02  0.41947341299E+02  0.10566000000E+00 0. -1.
         23    2    1    0    0    0 -0.15749480116E+02 -0.19709171229E+02 -0.93463961487E+01  0.98185489683E+02  0.94427420323E+02 0.  0.
         13    1    3    3    0    0 -0.53018680498E+02 -0.16130251891E+02  0.95683155129E+01  0.56238148384E+02  0.10566000000E+00 0.  1.
         22    1    1    0    0    0  0.15749480116E+02  0.19709171229E+02  0.93463961487E+01  0.26904510317E+02  0.00000000000E+00 0.  1.
</event>
<event>
 5    1  0.2377303E-009  0.9118800E+02  0.7815553E-02  0.1125453E+00
         25   -1    0    0    0    0  0.00000000000E+00  0.00000000000E+00  0.99999998245E-14  0.12509000000E+03  0.12509000000E+03 0.  0.
        -13    1    3    3    0    0 -0.13561874727E+02 -0.47802995923E+02  0.19349576891E+02  0.53324179837E+02  0.10566000000E+00 0. -1.
         23    2    1    0    0    0 -0.27245755021E+02 -0.13068422955E+02  0.11666664860E+01  0.94849696498E+02  0.89899883036E+02 0.  0.
         13    1    3    3    0    0 -0.13683880294E+02  0.34734572968E+02 -0.18182910405E+02  0.41525516662E+02  0.10566000000E+00 0.  1.
         22    1    1    0    0    0  0.27245755021E+02  0.13068422955E+02 -0.11666664860E+01  0.30240303502E+02  0.00000000000E+00 0.  1.
</event>
<event>
 5    1  0.2377303E-009  0.9118800E+02  0.7815553E-02  0.1125453E+00
         25   -1    0    0    0    0  0.00000000000E+00  0.00000000000E+00  0.99999998245E-14  0.12509000000E+03  0.12509000000E+03 0.  0.
        -13    1    3    3    0    0  0.63891870192E+01 -0.33062168637E+02  0.27134952787E+02  0.43246335481E+02  0.10566000000E+00 0.  1.
         23    2    1    0    0    0  0.28818765653E+02  0.74500115323E+01  0.38566023143E+01  0.95075048609E+02  0.90212901300E+02 0.  0.
         13    1    3    3    0    0  0.22429578634E+02  0.40512180169E+02 -0.23278350472E+02  0.51828713128E+02  0.10566000000E+00 0. -1.
         22    1    1    0    0    0 -0.28818765653E+02 -0.74500115323E+01 -0.38566023143E+01  0.30014951391E+02  0.00000000000E+00 0. -1.
</event>
<event>
 5    1  0.2377303E-009  0.9118800E+02  0.7815553E-02  0.1125453E+00
         25   -1    0    0    0    0  0.00000000000E+00  0.00000000000E+00  0.99999998245E-14  0.12509000000E+03  0.12509000000E+03 0.  0.
        -13    1    3    3    0    0  0.43859676801E+02 -0.40707774345E+02 -0.13363583183E+02  0.61313870052E+02  0.10566000000E+00 0. -1.
         23    2    1    0    0    0  0.25448149786E+02 -0.11903877304E+02 -0.44232266203E+01  0.96649262384E+02  0.92369932139E+02 0.  0.
         13    1    3    3    0    0 -0.18411527015E+02  0.28803897041E+02  0.89403565622E+01  0.35335392332E+02  0.10566000000E+00 0.  1.
         22    1    1    0    0    0 -0.25448149786E+02  0.11903877304E+02  0.44232266203E+01  0.28440737616E+02  0.00000000000E+00 0. -1.
</event>
<event>
 5    1  0.2377303E-009  0.9118800E+02  0.7815553E-02  0.1125453E+00
         25   -1    0    0    0    0  0.00000000000E+00  0.00000000000E+00  0.99999998245E-14  0.12509000000E+03  0.12509000000E+03 0.  0.
        -13    1    3    3    0    0 -0.33646064860E+02 -0.13623265140E+02  0.36872603560E+02  0.51742159705E+02  0.10566000000E+00 0.  1.
         23    2    1    0    0    0 -0.26516013839E+02  0.14537785402E+02  0.57635535303E+01  0.94305836155E+02  0.89139923656E+02 0.  0.
         13    1    3    3    0    0  0.71300510204E+01  0.28161050541E+02 -0.31109050030E+02  0.42563676450E+02  0.10566000000E+00 0. -1.
         22    1    1    0    0    0  0.26516013839E+02 -0.14537785402E+02 -0.57635535303E+01  0.30784163845E+02  0.00000000000E+00 0. -1.
</event>
<event>
 5    1  0.2377303E-009  0.9118800E+02  0.7815553E-02  0.1125453E+00
         25   -1    0    0    0    0  0.00000000000E+00  0.00000000000E+00  0.99999998245E-14  0.12509000000E+03  0.12509000000E+03 0.  0.
        -13    1    3    3    0    0 -0.43835630491E+02 -0.21472170246E+02 -0.23804291331E+02  0.54307200678E+02  0.10566000000E+00 0.  1.
         23    2    1    0    0    0 -0.30621270380E+02 -0.39556085588E+01  0.82304648807E+01  0.93136133397E+02  0.87483082668E+02 0.  0.
         13    1    3    3    0    0  0.13214360111E+02  0.17516561687E+02  0.32034756212E+02  0.38828932719E+02  0.10566000000E+00 0. -1.
         22    1    1    0    0    0  0.30621270380E+02  0.39556085588E+01 -0.82304648807E+01  0.31953866603E+02  0.00000000000E+00 0.  1.
</event>
<event>
 5    1  0.2377303E-009  0.9118800E+02  0.7815553E-02  0.1125453E+00
         25   -1    0    0    0    0  0.00000000000E+00  0.00000000000E+00  0.99999998245E-14  0.12509000000E+03  0.12509000000E+03 0.  0.
        -13    1    3    3    0    0  0.11501294079E+02  0.46728350282E+02  0.37300607817E+01  0.48267411397E+02  0.10566000000E+00 0. -1.
         23    2    1    0    0    0  0.17376613025E+02  0.62072778644E+01 -0.21807473778E+02  0.96523535548E+02  0.92199512056E+02 0.  0.
         13    1    3    3    0    0  0.58753189458E+01 -0.40521072417E+02 -0.25537534560E+02  0.48256124150E+02  0.10566000000E+00 0.  1.
         22    1    1    0    0    0 -0.17376613025E+02 -0.62072778644E+01  0.21807473778E+02  0.28566464452E+02  0.00000000000E+00 0.  1.
</event>
<event>
 5    1  0.2377303E-009  0.9118800E+02  0.7815553E-02  0.1125453E+00
         25   -1    0    0    0    0  0.00000000000E+00  0.00000000000E+00  0.99999998245E-14  0.12509000000E+03  0.12509000000E+03 0.  0.
        -13    1    3    3    0    0 -0.14069580590E+01  0.39152830449E+02  0.41032395984E+01  0.39392529779E+02  0.10566000000E+00 0.  1.
         23    2    1    0    0    0 -0.15135051383E+02 -0.13035434020E+02 -0.18467476771E+02  0.97886323434E+02  0.94030273299E+02 0.  0.
         13    1    3    3    0    0 -0.13728093324E+02 -0.52188264470E+02 -0.22570716369E+02  0.58493793654E+02  0.10566000000E+00 0. -1.
         22    1    1    0    0    0  0.15135051383E+02  0.13035434020E+02  0.18467476771E+02  0.27203676566E+02  0.00000000000E+00 0. -1.
</event>
<event>
 5    1  0.2377303E-009  0.9118800E+02  0.7815553E-02  0.1125453E+00
         25   -1    0    0    0    0  0.00000000000E+00  0.00000000000E+00  0.99999998245E-14  0.12509000000E+03  0.12509000000E+03 0.  0.
        -13    1    3    3    0    0 -0.58395458703E+02  0.96462095194E+00  0.21048990417E+02  0.62080844488E+02  0.10566000000E+00 0.  1.
         23    2    1    0    0    0 -0.26791472814E+02  0.57813632382E+01  0.10349645000E+02  0.95792861435E+02  0.91202795867E+02 0.  0.
         13    1    3    3    0    0  0.31603985888E+02  0.48167422863E+01 -0.10699345417E+02  0.33712016948E+02  0.10566000000E+00 0. -1.
         22    1    1    0    0    0  0.26791472814E+02 -0.57813632382E+01 -0.10349645000E+02  0.29297138565E+02  0.00000000000E+00 0.  1.
</event>
<event>
 5    1  0.2377303E-009  0.9118800E+02  0.7815553E-02  0.1125453E+00
         25   -1    0    0    0    0  0.00000000000E+00  0.00000000000E+00  0.99999998245E-14  0.12509000000E+03  0.12509000000E+03 0.  0.
        -13    1    3    3    0    0  0.48282744200E+02  0.24558069879E+02 -0.17524397159E+02  0.56933626650E+02  0.10566000000E+00 0.  1.
         23    2    1    0    0    0  0.19412968561E+02  0.23011376167E+02  0.62226494417E+01  0.94347388733E+02  0.89198215303E+02 0.  0.
         13    1    3    3    0    0 -0.28869775639E+02 -0.15466937118E+01  0.23747046601E+02  0.37413762083E+02  0.10566000000E+00 0. -1.
         22    1    1    0    0    0 -0.19412968561E+02 -0.23011376167E+02 -0.62226494417E+01  0.30742611267E+02  0.00000000000E+00 0.  1.
</event>
<event>
 5    1  0.2377303E-009  0.9118800E+02  0.7815553E-02  0.1125453E+00
         25   -1    0    0    0    0  0.00000000000E+00  0.00000000000E+00  0.99999998245E-14  0.12509000000E+03  0.12509000000E+03 0.  0.
        -13    1    3    3    0    0  0.71894345649E+01 -0.36940617943E+02 -0.36877844984E+02  0.52690453007E+02  0.10566000000E+00 0.  1.
         23    2    1    0    0    0  0.32291908850E+01 -0.30789185071E+02  0.36899688467E+01  0.93912805431E+02  0.88586666958E+02 0.  0.
         13    1    3    3    0    0 -0.39602436799E+01  0.61514328718E+01  0.40567813830E+02  0.41222352424E+02  0.10566000000E+00 0. -1.
         22    1    1    0    0    0 -0.32291908850E+01  0.30789185071E+02 -0.36899688467E+01  0.31177194569E+02  0.00000000000E+00 0.  1.
</event>
<event>
 5    1  0.2377303E-009  0.9118800E+02  0.7815553E-02  0.1125453E+00
         25   -1    0    0    0    0  0.00000000000E+00  0.00000000000E+00  0.99999998245E-14  0.12509000000E+03  0.12509000000E+03 0.  0.
        -13    1    3    3    0    0  0.93054965969E+01 -0.51311451903E+02 -0.13117029750E+02  0.53772902068E+02  0.10566000000E+00 0. -1.
         23    2    1    0    0    0  0.24643378959E+02 -0.13379757905E+02 -0.11679509471E+02  0.94713611314E+02  0.89710329274E+02 0.  0.
         13    1    3    3    0    0  0.15337882363E+02  0.37931693999E+02  0.14375202784E+01  0.40940709246E+02  0.10566000000E+00 0.  1.
         22    1    1    0    0    0 -0.24643378959E+02  0.13379757905E+02  0.11679509471E+02  0.30376388686E+02  0.00000000000E+00 0. -1.
</event>
<event>
 5    1  0.2377303E-009  0.9118800E+02  0.7815553E-02  0.1125453E+00
         25   -1    0    0    0    0  0.00000000000E+00  0.00000000000E+00  0.99999998245E-14  0.12509000000E+03  0.12509000000E+03 0.  0.
        -13    1    3    3    0    0 -0.25716207586E+02 -0.32004406986E+02  0.19115074009E+02  0.45287996396E+02  0.10566000000E+00 0.  1.
         23    2    1    0    0    0 -0.79753192873E+01 -0.10992215721E+02 -0.24632900123E+02  0.96961468352E+02  0.92791767158E+02 0.  0.
         13    1    3    3    0    0  0.17740888298E+02  0.21012191265E+02 -0.43747974132E+02  0.51673471956E+02  0.10566000000E+00 0. -1.
         22    1    1    0    0    0  0.79753192873E+01  0.10992215721E+02  0.24632900123E+02  0.28128531648E+02  0.00000000000E+00 0. -1.
</event>
<event>
 5    1  0.2377303E-009  0.9118800E+02  0.7815553E-02  0.1125453E+00
         25   -1    0    0    0    0  0.00000000000E+00  0.00000000000E+00  0.99999998245E-14  0.12509000000E+03  0.12509000000E+03 0.  0.
        -13    1    3    3    0    0 -0.32266743926E+02 -0.82414053503E+01  0.95061705651E+01  0.34632960725E+02  0.10566000000E+00 0.  1.
         23    2    1    0    0    0  0.45194245814E+01  0.12254343196E+02 -0.29997439875E+02  0.92372412608E+02  0.86384154138E+02 0.  0.
         13    1    3    3    0    0  0.36786168507E+02  0.20495748546E+02 -0.39503610440E+02  0.57739451883E+02  0.10566000000E+00 0. -1.
         22    1    1    0    0    0 -0.45194245814E+01 -0.12254343196E+02  0.29997439875E+02  0.32717587392E+02  0.00000000000E+00 0. -1.
</event>
<event>
 5    1  0.2377303E-009  0.9118800E+02  0.7815553E-02  0.1125453E+00
         25   -1    0    0    0    0  0.00000000000E+00  0.00000000000E+00  0.99999998245E-14  0.12509000000E+03  0.12509000000E+03 0.  0.
        -13    1    3    3    0    0  0.25858957169E+00 -0.36332442461E+02 -0.11551833196E+02  0.38125703377E+02  0.10566000000E+00 0. -1.
         23    2    1    0    0    0  0.32112954189E+01  0.20676308170E+02 -0.20369909820E+02  0.95888024657E+02  0.91333224562E+02 0.  0.
         13    1    3    3    0    0  0.29527058472E+01  0.57008750631E+02 -0.88180766244E+01  0.57762321281E+02  0.10566000000E+00 0.  1.
         22    1    1    0    0    0 -0.32112954189E+01 -0.20676308170E+02  0.20369909820E+02  0.29201975343E+02  0.00000000000E+00 0.  1.
</event>
<event>
 5    1  0.2377303E-009  0.9118800E+02  0.7815553E-02  0.1125453E+00
         25   -1    0    0    0    0  0.00000000000E+00  0.00000000000E+00  0.99999998245E-14  0.12509000000E+03  0.12509000000E+03 0.  0.
        -13    1    3    3    0    0  0.20669773661E+02 -0.41414186167E+02  0.35423246125E+02  0.58285434623E+02  0.10566000000E+00 0.  1.
         23    2    1    0    0    0  0.93607532737E+01 -0.84590181742E+01  0.28657702227E+02  0.93777980147E+02  0.88396080079E+02 0.  0.
         13    1    3    3    0    0 -0.11309020387E+02  0.32955167993E+02 -0.67655438981E+01  0.35492545525E+02  0.10566000000E+00 0. -1.
         22    1    1    0    0    0 -0.93607532737E+01  0.84590181742E+01 -0.28657702227E+02  0.31312019853E+02  0.00000000000E+00 0.  1.
</event>
<event>
 5    1  0.2377303E-009  0.9118800E+02  0.7815553E-02  0.1125453E+00
         25   -1    0    0    0    0  0.00000000000E+00  0.00000000000E+00  0.99999998245E-14  0.12509000000E+03  0.12509000000E+03 0.  0.
        -13    1    3    3    0    0 -0.61584445721E+01 -0.78969550835E+01  0.40561174429E+02  0.41779281638E+02  0.10566000000E+00 0. -1.
         23    2    1    0    0    0 -0.23806407982E+02  0.17694659286E+02 -0.29793698289E+01  0.95278547959E+02  0.90494635356E+02 0.  0.
         13    1    3    3    0    0 -0.17647963409E+02  0.25591614370E+02 -0.43540544258E+02  0.53499266320E+02  0.10566000000E+00 0.  1.
         22    1    1    0    0    0  0.23806407982E+02 -0.17694659286E+02  0.29793698289E+01  0.29811452041E+02  0.00000000000E+00 0.  1.
</event>
<event>
 5    1  0.2377303E-009  0.9118800E+02  0.7815553E-02  0.1125453E+00
         25   -1    0    0    0    0  0.00000000000E+00  0.00000000000E+00  0.99999998245E-14  0.12509000000E+03  0.12509000000E+03 0.  0.
        -13    1    3    3    0    0  0.12346650886E+02 -0.31382552581E+01 -0.33864453427E+02  0.36181498091E+02  0.10566000000E+00 0.  1.
         23    2    1    0    0    0  0.77985405113E+00 -0.16087919166E+02  0.23771210706E+02  0.96375895907E+02  0.91998986614E+02 0.  0.
         13    1    3    3    0    0 -0.11566796835E+02 -0.12949663907E+02  0.57635664133E+02  0.60194397816E+02  0.10566000000E+00 0. -1.
         22    1    1    0    0    0 -0.77985405113E+00  0.16087919166E+02 -0.23771210706E+02  0.28714104093E+02  0.00000000000E+00 0. -1.
</event>
<event>
 5    1  0.2377303E-009  0.9118800E+02  0.7815553E-02  0.1125453E+00
         25   -1    0    0    0    0  0.00000000000E+00  0.00000000000E+00  0.99999998245E-14  0.12509000000E+03  0.12509000000E+03 0.  0.
        -13    1    3    3    0    0 -0.13030866024E+02  0.13030732721E+02  0.30850634836E+02  0.35935724543E+02  0.10566000000E+00 0.  1.
         23    2    1    0    0    0 -0.80446065672E+01  0.12001912504E+01 -0.27877148927E+02  0.96050516772E+02  0.91555503308E+02 0.  0.
         13    1    3    3    0    0  0.49862594573E+01 -0.11830541471E+02 -0.58727783764E+02  0.60114792229E+02  0.10566000000E+00 0. -1.
         22    1    1    0    0    0  0.80446065672E+01 -0.12001912504E+01  0.27877148927E+02  0.29039483228E+02  0.00000000000E+00 0. -1.
</event>
<event>
 5    1  0.2377303E-009  0.9118800E+02  0.7815553E-02  0.1125453E+00
         25   -1    0    0    0    0  0.00000000000E+00  0.00000000000E+00  0.99999998245E-14  0.12509000000E+03  0.12509000000E+03 0.  0.
        -13    1    3    3    0    0  0.11424866582E+01  0.36398317237E+02  0.13398796174E+02  0.38803114262E+02  0.10566000000E+00 0. -1.
         23    2    1    0    0    0 -0.21983201329E+02 -0.52126554761E+01 -0.18316012790E+02  0.96005481054E+02  0.91493951441E+02 0.  0.
         13    1    3    3    0    0 -0.23125687987E+02 -0.41610972713E+02 -0.31714808965E+02  0.57202366793E+02  0.10566000000E+00 0.  1.
         22    1    1    0    0    0  0.21983201329E+02  0.52126554761E+01  0.18316012790E+02  0.29084518946E+02  0.00000000000E+00 0.  1.
</event>
<event>
 5    1  0.2377303E-009  0.9118800E+02  0.7815553E-02  0.1125453E+00
         25   -1    0    0    0    0  0.00000000000E+00  0.00000000000E+00  0.99999998245E-14  0.12509000000E+03  0.12509000000E+03 0.  0.
        -13    1    3    3    0    0  0.19046160857E+02 -0.13737652397E+01  0.24268115367E+02  0.30880350740E+02  0.10566000000E+00 0.  1.
         23    2    1    0    0    0  0.44399403574E+01 -0.12695496671E+02 -0.32145723143E+02  0.90244107523E+02  0.83245196379E+02 0.  0.
         13    1    3    3    0    0 -0.14606220500E+02 -0.11321731431E+02 -0.56413838510E+02  0.59363756783E+02  0.10566000000E+00 0. -1.
         22    1    1    0    0    0 -0.44399403574E+01  0.12695496671E+02  0.32145723143E+02  0.34845892477E+02  0.00000000000E+00 0. -1.
</event>
<event>
 5    1  0.2377303E-009  0.9118800E+02  0.7815553E-02  0.1125453E+00
         25   -1    0    0    0    0  0.00000000000E+00  0.00000000000E+00  0.99999998245E-14  0.12509000000E+03  0.12509000000E+03 0.  0.
        -13    1    3    3    0    0  0.34048956599E+02 -0.37701778589E+02 -0.59670635134E+01  0.51150489394E+02  0.10566000000E+00 0.  1.
         23    2    1    0    0    0  0.32156824054E+02 -0.44687795324E+00 -0.15109420387E+02  0.89557541352E+02  0.82207041034E+02 0.  0.
         13    1    3    3    0    0 -0.18921325449E+01  0.37254900635E+02 -0.91423568734E+01  0.38407051959E+02  0.10566000000E+00 0. -1.
         22    1    1    0    0    0 -0.32156824054E+02  0.44687795324E+00  0.15109420387E+02  0.35532458648E+02  0.00000000000E+00 0.  1.
</event>
<event>
 4    1  0.2377303E-009  0.9118800E+02  0.7815553E-02  0.1125453E+00
         25   -1    0    0    0    0  0.00000000000E+00  0.00000000000E+00  0.99999998245E-14  0.12509000000E+03  0.12509000000E+03 0.  0.
        -13    1    1    0    0    0  0.34328928084E+00 -0.64782728528E+01 -0.11527341948E+02  0.13227873718E+02  0.10566000000E+00 0. -1.
         13    1    1    0    0    0 -0.10343557274E+02 -0.16380352716E+02  0.56885844318E+02  0.60094222518E+02  0.10566000000E+00 0.  1.
         22    1    1    0    0    0  0.10000267993E+02  0.22858625569E+02 -0.45358502371E+02  0.51767903764E+02  0.00000000000E+00 0.  1.
</event>
<event>
 5    1  0.2377303E-009  0.9118800E+02  0.7815553E-02  0.1125453E+00
         25   -1    0    0    0    0  0.00000000000E+00  0.00000000000E+00  0.99999998245E-14  0.12509000000E+03  0.12509000000E+03 0.  0.
        -13    1    3    3    0    0  0.35115187872E+02  0.65418317382E+01 -0.31889088396E+01  0.35861571150E+02  0.10566000000E+00 0. -1.
         23    2    1    0    0    0 -0.24537531954E+02  0.11249165141E+02 -0.10462085129E+02  0.96140225977E+02  0.91677988824E+02 0.  0.
         13    1    3    3    0    0 -0.59652719825E+02  0.47073334031E+01 -0.72731762896E+01  0.60278654826E+02  0.10566000000E+00 0.  1.
         22    1    1    0    0    0  0.24537531954E+02 -0.11249165141E+02  0.10462085129E+02  0.28949774023E+02  0.00000000000E+00 0.  1.
</event>
<event>
 4    1  0.2377303E-009  0.9118800E+02  0.7815553E-02  0.1125453E+00
         25   -1    0    0    0    0  0.00000000000E+00  0.00000000000E+00  0.99999998245E-14  0.12509000000E+03  0.12509000000E+03 0.  0.
        -13    1    1    0    0    0  0.84688889613E+01 -0.26055132577E+01 -0.27306443750E+02  0.28708253410E+02  0.10566000000E+00 0. -1.
         13    1    1    0    0    0  0.31534858076E+02 -0.27850523748E+02  0.10420002656E+02  0.43343818086E+02  0.10566000000E+00 0.  1.
         22    1    1    0    0    0 -0.40003747038E+02  0.30456037006E+02  0.16886441094E+02  0.53037928504E+02  0.00000000000E+00 0.  1.
</event>
<event>
 5    1  0.2377303E-009  0.9118800E+02  0.7815553E-02  0.1125453E+00
         25   -1    0    0    0    0  0.00000000000E+00  0.00000000000E+00  0.99999998245E-14  0.12509000000E+03  0.12509000000E+03 0.  0.
        -13    1    3    3    0    0  0.16305742820E+02  0.40064382722E+02  0.32030468280E+02  0.53823731514E+02  0.10566000000E+00 0. -1.
         23    2    1    0    0    0  0.24225769036E+02  0.76288694175E+01  0.27726882229E+02  0.87488570078E+02  0.78996090803E+02 0.  0.
         13    1    3    3    0    0  0.79200262166E+01 -0.32435513305E+02 -0.43035860508E+01  0.33664838564E+02  0.10566000000E+00 0.  1.
         22    1    1    0    0    0 -0.24225769036E+02 -0.76288694175E+01 -0.27726882229E+02  0.37601429922E+02  0.00000000000E+00 0. -1.
</event>
<event>
 5    1  0.2377303E-009  0.9118800E+02  0.7815553E-02  0.1125453E+00
         25   -1    0    0    0    0  0.00000000000E+00  0.00000000000E+00  0.99999998245E-14  0.12509000000E+03  0.12509000000E+03 0.  0.
        -13    1    3    3    0    0  0.23700699875E+02 -0.13458801537E+02 -0.19965434222E+02  0.33785976988E+02  0.10566000000E+00 0. -1.
         23    2    1    0    0    0 -0.31388795773E+02 -0.94098803019E+01 -0.61539497656E+00  0.92315298501E+02  0.86301409484E+02 0.  0.
         13    1    3    3    0    0 -0.55089495648E+02  0.40489212347E+01  0.19350039245E+02  0.58529321513E+02  0.10566000000E+00 0.  1.
         22    1    1    0    0    0  0.31388795773E+02  0.94098803019E+01  0.61539497656E+00  0.32774701499E+02  0.00000000000E+00 0.  1.
</event>
<event>
 5    1  0.2377303E-009  0.9118800E+02  0.7815553E-02  0.1125453E+00
         25   -1    0    0    0    0  0.00000000000E+00  0.00000000000E+00  0.99999998245E-14  0.12509000000E+03  0.12509000000E+03 0.  0.
        -13    1    3    3    0    0 -0.35274396623E+02  0.46390386759E+02 -0.22297011004E+02  0.62398068115E+02  0.10566000000E+00 0.  1.
         23    2    1    0    0    0 -0.16440652929E+02  0.19215673435E+02 -0.12486910412E+02  0.96886097682E+02  0.92690106366E+02 0.  0.
         13    1    3    3    0    0  0.18833743694E+02 -0.27174713324E+02  0.98101005920E+01  0.34488029567E+02  0.10566000000E+00 0. -1.
         22    1    1    0    0    0  0.16440652929E+02 -0.19215673435E+02  0.12486910412E+02  0.28203902318E+02  0.00000000000E+00 0.  1.
</event>
<event>
 5    1  0.2377303E-009  0.9118800E+02  0.7815553E-02  0.1125453E+00
         25   -1    0    0    0    0  0.00000000000E+00  0.00000000000E+00  0.99999998245E-14  0.12509000000E+03  0.12509000000E+03 0.  0.
        -13    1    3    3    0    0 -0.39602397998E+02  0.29415435826E+02  0.36357231954E+00  0.49333164716E+02  0.10566000000E+00 0. -1.
         23    2    1    0    0    0 -0.53731279303E+01  0.14569171592E+02  0.26142690707E+02  0.94683231970E+02  0.89667959016E+02 0.  0.
         13    1    3    3    0    0  0.34229270067E+02 -0.14846264234E+02  0.25779118388E+02  0.45350067254E+02  0.10566000000E+00 0.  1.
         22    1    1    0    0    0  0.53731279303E+01 -0.14569171592E+02 -0.26142690707E+02  0.30406768030E+02  0.00000000000E+00 0. -1.
</event>
<event>
 5    1  0.2377303E-009  0.9118800E+02  0.7815553E-02  0.1125453E+00
         25   -1    0    0    0    0  0.00000000000E+00  0.00000000000E+00  0.99999998245E-14  0.12509000000E+03  0.12509000000E+03 0.  0.
        -13    1    3    3    0    0 -0.10913838979E+02 -0.15564861518E+02  0.27923144893E+02  0.33780023388E+02  0.10566000000E+00 0. -1.
         23    2    1    0    0    0  0.15588159117E+02 -0.42126128471E+01 -0.25743830373E+02  0.94701159714E+02  0.89692965372E+02 0.  0.
         13    1    3    3    0    0  0.26501998096E+02  0.11352248671E+02 -0.53666975267E+02  0.60921136326E+02  0.10566000000E+00 0.  1.
         22    1    1    0    0    0 -0.15588159117E+02  0.42126128471E+01  0.25743830373E+02  0.30388840286E+02  0.00000000000E+00 0.  1.
</event>
<event>
 5    1  0.2377303E-009  0.9118800E+02  0.7815553E-02  0.1125453E+00
         25   -1    0    0    0    0  0.00000000000E+00  0.00000000000E+00  0.99999998245E-14  0.12509000000E+03  0.12509000000E+03 0.  0.
        -13    1    3    3    0    0  0.21594923639E+02  0.48937887939E+02  0.10276319980E+02  0.54468995945E+02  0.10566000000E+00 0.  1.
         23    2    1    0    0    0 -0.97026570328E+01  0.27884646722E+02 -0.49635315195E+01  0.95151200401E+02  0.90318432318E+02 0.  0.
         13    1    3    3    0    0 -0.31297580672E+02 -0.21053241217E+02 -0.15239851500E+02  0.40682204456E+02  0.10566000000E+00 0. -1.
         22    1    1    0    0    0  0.97026570328E+01 -0.27884646722E+02  0.49635315195E+01  0.29938799599E+02  0.00000000000E+00 0.  1.
</event>
<event>
 5    1  0.2377303E-009  0.9118800E+02  0.7815553E-02  0.1125453E+00
         25   -1    0    0    0    0  0.00000000000E+00  0.00000000000E+00  0.99999998245E-14  0.12509000000E+03  0.12509000000E+03 0.  0.
        -13    1    3    3    0    0  0.53662458240E+02 -0.14667497240E+02  0.21184844916E+02  0.59528175831E+02  0.10566000000E+00 0. -1.
         23    2    1    0    0    0  0.30107098070E+02  0.23323552994E+01  0.10477350844E+01  0.94874524094E+02  0.89934422430E+02 0.  0.
         13    1    3    3    0    0 -0.23555360170E+02  0.16999852540E+02 -0.20137109832E+02  0.35346348263E+02  0.10566000000E+00 0.  1.
         22    1    1    0    0    0 -0.30107098070E+02 -0.23323552994E+01 -0.10477350844E+01  0.30215475906E+02  0.00000000000E+00 0. -1.
</event>
<event>
 5    1  0.2377303E-009  0.9118800E+02  0.7815553E-02  0.1125453E+00
         25   -1    0    0    0    0  0.00000000000E+00  0.00000000000E+00  0.99999998245E-14  0.12509000000E+03  0.12509000000E+03 0.  0.
        -13    1    3    3    0    0 -0.34953518794E+02  0.34927700563E+02 -0.18831484479E+02  0.52880324455E+02  0.10566000000E+00 0. -1.
         23    2    1    0    0    0 -0.23707505440E+02  0.83286266976E+01  0.13772674672E+02  0.96435185318E+02  0.92079566478E+02 0.  0.
         13    1    3    3    0    0  0.11246013353E+02 -0.26599073866E+02  0.32604159150E+02  0.43554860863E+02  0.10566000000E+00 0.  1.
         22    1    1    0    0    0  0.23707505440E+02 -0.83286266976E+01 -0.13772674672E+02  0.28654814682E+02  0.00000000000E+00 0. -1.
</event>
<event>
 5    1  0.2377303E-009  0.9118800E+02  0.7815553E-02  0.1125453E+00
         25   -1    0    0    0    0  0.00000000000E+00  0.00000000000E+00  0.99999998245E-14  0.12509000000E+03  0.12509000000E+03 0.  0.
        -13    1    3    3    0    0  0.96060115148E+01  0.51224052466E+02 -0.61702878002E+01  0.52481069195E+02  0.10566000000E+00 0. -1.
         23    2    1    0    0    0  0.15524494743E+01  0.13928453483E+02 -0.26053443643E+02  0.95506324747E+02  0.90808943531E+02 0.  0.
         13    1    3    3    0    0 -0.80535620405E+01 -0.37295598983E+02 -0.19883155843E+02  0.43025255552E+02  0.10566000000E+00 0.  1.
         22    1    1    0    0    0 -0.15524494743E+01 -0.13928453483E+02  0.26053443643E+02  0.29583675253E+02  0.00000000000E+00 0.  1.
</event>
<event>
 5    1  0.2377303E-009  0.9118800E+02  0.7815553E-02  0.1125453E+00
         25   -1    0    0    0    0  0.00000000000E+00  0.00000000000E+00  0.99999998245E-14  0.12509000000E+03  0.12509000000E+03 0.  0.
        -13    1    3    3    0    0 -0.57716253437E+02  0.68418951024E+01 -0.22770123392E+02  0.62421687919E+02  0.10566000000E+00 0. -1.
         23    2    1    0    0    0 -0.25119335023E+02  0.44230673506E+01 -0.12514296381E+02  0.96679577076E+02  0.92410976042E+02 0.  0.
         13    1    3    3    0    0  0.32596918414E+02 -0.24188277519E+01  0.10255827010E+02  0.34257889157E+02  0.10566000000E+00 0.  1.
         22    1    1    0    0    0  0.25119335023E+02 -0.44230673506E+01  0.12514296381E+02  0.28410422924E+02  0.00000000000E+00 0. -1.
</event>
<event>
 5    1  0.2377303E-009  0.9118800E+02  0.7815553E-02  0.1125453E+00
         25   -1    0    0    0    0  0.00000000000E+00  0.00000000000E+00  0.99999998245E-14  0.12509000000E+03  0.12509000000E+03 0.  0.
        -13    1    3    3    0    0 -0.16532156599E+02 -0.28896655077E+02  0.84338361603E+01  0.34343407415E+02  0.10566000000E+00 0.  1.
         23    2    1    0    0    0  0.49767191652E+01  0.27111312082E+02  0.13199076160E+02  0.94528478639E+02  0.89451812088E+02 0.  0.
         13    1    3    3    0    0  0.21508875764E+02  0.56007967159E+02  0.47652399992E+01  0.60185071224E+02  0.10566000000E+00 0. -1.
         22    1    1    0    0    0 -0.49767191652E+01 -0.27111312082E+02 -0.13199076160E+02  0.30561521361E+02  0.00000000000E+00 0. -1.
</event>
<event>
 5    1  0.2377303E-009  0.9118800E+02  0.7815553E-02  0.1125453E+00
         25   -1    0    0    0    0  0.00000000000E+00  0.00000000000E+00  0.99999998245E-14  0.12509000000E+03  0.12509000000E+03 0.  0.
        -13    1    3    3    0    0 -0.51118166259E+02  0.96757325326E+01 -0.27283425449E+02  0.58745920624E+02  0.10566000000E+00 0. -1.
         23    2    1    0    0    0 -0.24812440705E+02  0.71737114503E+01  0.31722572263E+01  0.99067268291E+02  0.95588394070E+02 0.  0.
         13    1    3    3    0    0  0.26305725554E+02 -0.25020210823E+01  0.30455682675E+02  0.40321347667E+02  0.10566000000E+00 0.  1.
         22    1    1    0    0    0  0.24812440705E+02 -0.71737114503E+01 -0.31722572263E+01  0.26022731709E+02  0.00000000000E+00 0. -1.
</event>
