<event>
 5    1  0.1764311E-003  0.9118800E+02  0.7818608E-02  0.1130116E+00
         25   -1    0    0    0    0  0.00000000000E+00  0.00000000000E+00  0.99999998245E-14  0.12500000000E+03  0.12500000000E+03 0.  0.
        -13    1    3    3    0    0  0.29781063933E+02  0.29941937806E+02  0.17468239154E+02  0.45701006025E+02  0.10566000000E+00 0. -1.
         23    2    1    0    0    0 -0.23467030078E+01  0.13465645770E+02  0.36148570594E+02  0.86353528143E+02  0.77222937239E+02 0.  0.
         13    1    3    3    0    0 -0.32127766941E+02 -0.16476292036E+02  0.18680331440E+02  0.40652522118E+02  0.10566000000E+00 0.  1.
         22    1    1    0    0    0  0.23467030078E+01 -0.13465645770E+02 -0.36148570594E+02  0.38646471857E+02  0.00000000000E+00 0. -1.
</event>
<event>
 5    1  0.1764311E-003  0.9118800E+02  0.7818608E-02  0.1130116E+00
         25   -1    0    0    0    0  0.00000000000E+00  0.00000000000E+00  0.99999998245E-14  0.12500000000E+03  0.12500000000E+03 0.  0.
        -13    1    3    3    0    0  0.22372997298E+01 -0.35463305289E+02 -0.31848056667E+02  0.47717516800E+02  0.10566000000E+00 0.  1.
         23    2    1    0    0    0 -0.19091926346E+02 -0.19418896896E+02  0.88316289363E+01  0.96371467415E+02  0.92021013110E+02 0.  0.
         13    1    3    3    0    0 -0.21329226076E+02  0.16044408393E+02  0.40679685603E+02  0.48653950615E+02  0.10566000000E+00 0. -1.
         22    1    1    0    0    0  0.19091926346E+02  0.19418896896E+02 -0.88316289363E+01  0.28628532585E+02  0.00000000000E+00 0. -1.
</event>
<event>
 5    1  0.1764311E-003  0.9118800E+02  0.7818608E-02  0.1130116E+00
         25   -1    0    0    0    0  0.00000000000E+00  0.00000000000E+00  0.99999998245E-14  0.12500000000E+03  0.12500000000E+03 0.  0.
        -13    1    3    3    0    0  0.96715958314E+01  0.23633883116E+02 -0.32426131674E+02  0.41274270150E+02  0.10566000000E+00 0.  1.
         23    2    1    0    0    0 -0.28849352236E+02  0.55968103507E+01  0.13398977843E+01  0.95582237737E+02  0.90942616161E+02 0.  0.
         13    1    3    3    0    0 -0.38520948067E+02 -0.18037072765E+02  0.33766029459E+02  0.54307967586E+02  0.10566000000E+00 0. -1.
         22    1    1    0    0    0  0.28849352236E+02 -0.55968103507E+01 -0.13398977843E+01  0.29417762263E+02  0.00000000000E+00 0. -1.
</event>
<event>
 5    1  0.1764311E-003  0.9118800E+02  0.7818608E-02  0.1130116E+00
         25   -1    0    0    0    0  0.00000000000E+00  0.00000000000E+00  0.99999998245E-14  0.12500000000E+03  0.12500000000E+03 0.  0.
        -13    1    3    3    0    0 -0.39317004187E+02  0.26240058103E+02  0.68756129673E+01  0.47766648252E+02  0.10566000000E+00 0. -1.
         23    2    1    0    0    0 -0.12754437987E+02 -0.98658382811E+01  0.24281728416E+02  0.95851881910E+02  0.91312488069E+02 0.  0.
         13    1    3    3    0    0  0.26562566201E+02 -0.36105896384E+02  0.17406115449E+02  0.48085233658E+02  0.10566000000E+00 0.  1.
         22    1    1    0    0    0  0.12754437987E+02  0.98658382811E+01 -0.24281728416E+02  0.29148118090E+02  0.00000000000E+00 0.  1.
</event>
<event>
 5    1  0.1764311E-003  0.9118800E+02  0.7818608E-02  0.1130116E+00
         25   -1    0    0    0    0  0.00000000000E+00  0.00000000000E+00  0.99999998245E-14  0.12500000000E+03  0.12500000000E+03 0.  0.
        -13    1    3    3    0    0 -0.32678467064E+02  0.76924403281E+01 -0.17033902101E+02  0.37645993581E+02  0.10566000000E+00 0.  1.
         23    2    1    0    0    0  0.25710367118E+02  0.52814817419E+01 -0.11493078167E+02  0.96346765061E+02  0.91987451672E+02 0.  0.
         13    1    3    3    0    0  0.58388834182E+02 -0.24109585862E+01  0.55408239339E+01  0.58700771480E+02  0.10566000000E+00 0. -1.
         22    1    1    0    0    0 -0.25710367118E+02 -0.52814817419E+01  0.11493078167E+02  0.28653234939E+02  0.00000000000E+00 0. -1.
</event>
<event>
 5    1  0.1764311E-003  0.9118800E+02  0.7818608E-02  0.1130116E+00
         25   -1    0    0    0    0  0.00000000000E+00  0.00000000000E+00  0.99999998245E-14  0.12500000000E+03  0.12500000000E+03 0.  0.
        -13    1    3    3    0    0 -0.53640485161E+02  0.13332129387E+02 -0.27715491498E+02  0.61832086778E+02  0.10566000000E+00 0.  1.
         23    2    1    0    0    0 -0.24636753025E+02  0.12637988471E+02 -0.12064212746E+02  0.94796795180E+02  0.89856545644E+02 0.  0.
         13    1    3    3    0    0  0.29003732136E+02 -0.69414091627E+00  0.15651278752E+02  0.32964708402E+02  0.10566000000E+00 0. -1.
         22    1    1    0    0    0  0.24636753025E+02 -0.12637988471E+02  0.12064212746E+02  0.30203204820E+02  0.00000000000E+00 0.  1.
</event>
<event>
 5    1  0.1764311E-003  0.9118800E+02  0.7818608E-02  0.1130116E+00
         25   -1    0    0    0    0  0.00000000000E+00  0.00000000000E+00  0.99999998245E-14  0.12500000000E+03  0.12500000000E+03 0.  0.
        -13    1    3    3    0    0 -0.15373497806E+02  0.48331134147E+02  0.15085255152E+01  0.50739824359E+02  0.10566000000E+00 0.  1.
         23    2    1    0    0    0  0.56943838902E+01  0.17002170120E+02  0.24270379371E+02  0.94824660541E+02  0.89895300963E+02 0.  0.
         13    1    3    3    0    0  0.21067881696E+02 -0.31328964027E+02  0.22761853856E+02  0.44084836182E+02  0.10566000000E+00 0. -1.
         22    1    1    0    0    0 -0.56943838902E+01 -0.17002170120E+02 -0.24270379371E+02  0.30175339459E+02  0.00000000000E+00 0. -1.
</event>
<event>
 5    1  0.1764311E-003  0.9118800E+02  0.7818608E-02  0.1130116E+00
         25   -1    0    0    0    0  0.00000000000E+00  0.00000000000E+00  0.99999998245E-14  0.12500000000E+03  0.12500000000E+03 0.  0.
        -13    1    3    3    0    0 -0.10584200794E+02 -0.13485128104E+02  0.41365180426E+02  0.44776816570E+02  0.10566000000E+00 0. -1.
         23    2    1    0    0    0  0.26794362950E+02 -0.97959555081E+01  0.71409327294E+01  0.95590961416E+02  0.90954606007E+02 0.  0.
         13    1    3    3    0    0  0.37378563743E+02  0.36891725964E+01 -0.34224247697E+02  0.50814144846E+02  0.10566000000E+00 0.  1.
         22    1    1    0    0    0 -0.26794362950E+02  0.97959555081E+01 -0.71409327294E+01  0.29409038584E+02  0.00000000000E+00 0. -1.
</event>
<event>
 5    1  0.1764311E-003  0.9118800E+02  0.7818608E-02  0.1130116E+00
         25   -1    0    0    0    0  0.00000000000E+00  0.00000000000E+00  0.99999998245E-14  0.12500000000E+03  0.12500000000E+03 0.  0.
        -13    1    3    3    0    0  0.18644304552E+02  0.56334250086E+02  0.55715446187E+01  0.59600428676E+02  0.10566000000E+00 0.  1.
         23    2    1    0    0    0  0.19250926248E+02  0.21768072166E+02 -0.44652742468E+01  0.95599561205E+02  0.90966424032E+02 0.  0.
         13    1    3    3    0    0  0.60662169655E+00 -0.34566177920E+02 -0.10036818866E+02  0.35999132529E+02  0.10566000000E+00 0. -1.
         22    1    1    0    0    0 -0.19250926248E+02 -0.21768072166E+02  0.44652742468E+01  0.29400438795E+02  0.00000000000E+00 0.  1.
</event>
<event>
 5    1  0.1764311E-003  0.9118800E+02  0.7818608E-02  0.1130116E+00
         25   -1    0    0    0    0  0.00000000000E+00  0.00000000000E+00  0.99999998245E-14  0.12500000000E+03  0.12500000000E+03 0.  0.
        -13    1    3    3    0    0  0.33153746429E+02 -0.11470230369E+02  0.24385139331E+01  0.35166668896E+02  0.10566000000E+00 0. -1.
         23    2    1    0    0    0 -0.11444350145E+02  0.26020495568E+02 -0.10226947777E+02  0.94790236666E+02  0.89847421591E+02 0.  0.
         13    1    3    3    0    0 -0.44598096574E+02  0.37490725938E+02 -0.12665461710E+02  0.59623567771E+02  0.10566000000E+00 0.  1.
         22    1    1    0    0    0  0.11444350145E+02 -0.26020495568E+02  0.10226947777E+02  0.30209763334E+02  0.00000000000E+00 0.  1.
</event>
<event>
 5    1  0.1764311E-003  0.9118800E+02  0.7818608E-02  0.1130116E+00
         25   -1    0    0    0    0  0.00000000000E+00  0.00000000000E+00  0.99999998245E-14  0.12500000000E+03  0.12500000000E+03 0.  0.
        -13    1    3    3    0    0  0.56304892674E+02 -0.22868361971E+02 -0.70905588910E+01  0.61184067433E+02  0.10566000000E+00 0.  1.
         23    2    1    0    0    0  0.22131599730E+02 -0.18319696137E+02 -0.60583620415E+00  0.96263507335E+02  0.91874244671E+02 0.  0.
         13    1    3    3    0    0 -0.34173292944E+02  0.45486658332E+01  0.64847226869E+01  0.35079439902E+02  0.10566000000E+00 0. -1.
         22    1    1    0    0    0 -0.22131599730E+02  0.18319696137E+02  0.60583620415E+00  0.28736492665E+02  0.00000000000E+00 0.  1.
</event>
<event>
 5    1  0.1764311E-003  0.9118800E+02  0.7818608E-02  0.1130116E+00
         25   -1    0    0    0    0  0.00000000000E+00  0.00000000000E+00  0.99999998245E-14  0.12500000000E+03  0.12500000000E+03 0.  0.
        -13    1    3    3    0    0 -0.32165863480E+02  0.45899898761E+02  0.20653368157E+02  0.59732874198E+02  0.10566000000E+00 0.  1.
         23    2    1    0    0    0 -0.24631031009E+02  0.12635942135E+02  0.72108665132E+01  0.96393159593E+02  0.92050474731E+02 0.  0.
         13    1    3    3    0    0  0.75348324710E+01 -0.33263956626E+02 -0.13442501644E+02  0.36660285395E+02  0.10566000000E+00 0. -1.
         22    1    1    0    0    0  0.24631031009E+02 -0.12635942135E+02 -0.72108665132E+01  0.28606840407E+02  0.00000000000E+00 0.  1.
</event>
<event>
 5    1  0.1764311E-003  0.9118800E+02  0.7818608E-02  0.1130116E+00
         25   -1    0    0    0    0  0.00000000000E+00  0.00000000000E+00  0.99999998245E-14  0.12500000000E+03  0.12500000000E+03 0.  0.
        -13    1    3    3    0    0  0.47663155920E+02 -0.25845943519E+02  0.22100352478E+02  0.58551054408E+02  0.10566000000E+00 0. -1.
         23    2    1    0    0    0  0.27121161099E+02 -0.10503880022E+02 -0.45841083631E+01  0.95556784748E+02  0.90907624471E+02 0.  0.
         13    1    3    3    0    0 -0.20541994821E+02  0.15342063496E+02 -0.26684460841E+02  0.37005730340E+02  0.10566000000E+00 0.  1.
         22    1    1    0    0    0 -0.27121161099E+02  0.10503880022E+02  0.45841083631E+01  0.29443215252E+02  0.00000000000E+00 0. -1.
</event>
<event>
 5    1  0.1764311E-003  0.9118800E+02  0.7818608E-02  0.1130116E+00
         25   -1    0    0    0    0  0.00000000000E+00  0.00000000000E+00  0.99999998245E-14  0.12500000000E+03  0.12500000000E+03 0.  0.
        -13    1    3    3    0    0 -0.23457020413E+02  0.22136311444E+02 -0.36538825489E+02  0.48737511458E+02  0.10566000000E+00 0.  1.
         23    2    1    0    0    0  0.15903521197E+02  0.21975822204E+02 -0.10605305608E+02  0.95873873326E+02  0.91342587720E+02 0.  0.
         13    1    3    3    0    0  0.39360541610E+02 -0.16048924024E+00  0.25933519881E+02  0.47136361867E+02  0.10566000000E+00 0. -1.
         22    1    1    0    0    0 -0.15903521197E+02 -0.21975822204E+02  0.10605305608E+02  0.29126126674E+02  0.00000000000E+00 0.  1.
</event>
<event>
 5    1  0.1764311E-003  0.9118800E+02  0.7818608E-02  0.1130116E+00
         25   -1    0    0    0    0  0.00000000000E+00  0.00000000000E+00  0.99999998245E-14  0.12500000000E+03  0.12500000000E+03 0.  0.
        -13    1    3    3    0    0  0.15295775065E+02 -0.56212414789E+02 -0.16938138263E+00  0.58256640526E+02  0.10566000000E+00 0. -1.
         23    2    1    0    0    0  0.10788828463E+02 -0.21633653067E+02  0.15284304216E+02  0.96398886036E+02  0.92058250630E+02 0.  0.
         13    1    3    3    0    0 -0.45069466015E+01  0.34578761723E+02  0.15453685598E+02  0.38142245510E+02  0.10566000000E+00 0.  1.
         22    1    1    0    0    0 -0.10788828463E+02  0.21633653067E+02 -0.15284304216E+02  0.28601113964E+02  0.00000000000E+00 0. -1.
</event>
<event>
 5    1  0.1764311E-003  0.9118800E+02  0.7818608E-02  0.1130116E+00
         25   -1    0    0    0    0  0.00000000000E+00  0.00000000000E+00  0.99999998245E-14  0.12500000000E+03  0.12500000000E+03 0.  0.
        -13    1    3    3    0    0  0.41061330287E+02 -0.20591349045E+02  0.38350256397E+02  0.59839701120E+02  0.10566000000E+00 0. -1.
         23    2    1    0    0    0  0.26373816400E+02 -0.95700322721E+00  0.11468734114E+02  0.96224560666E+02  0.91821240279E+02 0.  0.
         13    1    3    3    0    0 -0.14687513886E+02  0.19634345818E+02 -0.26881522283E+02  0.36384859546E+02  0.10566000000E+00 0.  1.
         22    1    1    0    0    0 -0.26373816400E+02  0.95700322721E+00 -0.11468734114E+02  0.28775439334E+02  0.00000000000E+00 0. -1.
</event>
<event>
 5    1  0.1764311E-003  0.9118800E+02  0.7818608E-02  0.1130116E+00
         25   -1    0    0    0    0  0.00000000000E+00  0.00000000000E+00  0.99999998245E-14  0.12500000000E+03  0.12500000000E+03 0.  0.
        -13    1    3    3    0    0  0.26400535555E+02 -0.20317676850E+02 -0.50328648198E+02  0.60355449329E+02  0.10566000000E+00 0. -1.
         23    2    1    0    0    0  0.55471411497E+01 -0.18867688738E+02 -0.24372259469E+02  0.93682792512E+02  0.88293250750E+02 0.  0.
         13    1    3    3    0    0 -0.20853394405E+02  0.14499881122E+01  0.25956388730E+02  0.33327343183E+02  0.10566000000E+00 0.  1.
         22    1    1    0    0    0 -0.55471411497E+01  0.18867688738E+02  0.24372259469E+02  0.31317207488E+02  0.00000000000E+00 0. -1.
</event>
<event>
 5    1  0.1764311E-003  0.9118800E+02  0.7818608E-02  0.1130116E+00
         25   -1    0    0    0    0  0.00000000000E+00  0.00000000000E+00  0.99999998245E-14  0.12500000000E+03  0.12500000000E+03 0.  0.
        -13    1    3    3    0    0 -0.11406802583E+02  0.10680841236E+02 -0.56923441006E+02  0.59029524940E+02  0.10566000000E+00 0.  1.
         23    2    1    0    0    0 -0.11920324147E+01 -0.92427787882E+01 -0.27237573653E+02  0.96212236636E+02  0.91804461541E+02 0.  0.
         13    1    3    3    0    0  0.10214770169E+02 -0.19923620025E+02  0.29685867353E+02  0.37182711695E+02  0.10566000000E+00 0. -1.
         22    1    1    0    0    0  0.11920324147E+01  0.92427787882E+01  0.27237573653E+02  0.28787763364E+02  0.00000000000E+00 0.  1.
</event>
<event>
 5    1  0.1764311E-003  0.9118800E+02  0.7818608E-02  0.1130116E+00
         25   -1    0    0    0    0  0.00000000000E+00  0.00000000000E+00  0.99999998245E-14  0.12500000000E+03  0.12500000000E+03 0.  0.
        -13    1    3    3    0    0  0.29112488888E+02 -0.21883645171E+02  0.14280829612E+02  0.39120125175E+02  0.10566000000E+00 0. -1.
         23    2    1    0    0    0 -0.16461419250E+02  0.10292877880E+02  0.22245537249E+02  0.95473984585E+02  0.90793701027E+02 0.  0.
         13    1    3    3    0    0 -0.45573908139E+02  0.32176523050E+02  0.79647076371E+01  0.56353859410E+02  0.10566000000E+00 0.  1.
         22    1    1    0    0    0  0.16461419250E+02 -0.10292877880E+02 -0.22245537249E+02  0.29526015415E+02  0.00000000000E+00 0.  1.
</event>
<event>
 5    1  0.1764311E-003  0.9118800E+02  0.7818608E-02  0.1130116E+00
         25   -1    0    0    0    0  0.00000000000E+00  0.00000000000E+00  0.99999998245E-14  0.12500000000E+03  0.12500000000E+03 0.  0.
        -13    1    3    3    0    0  0.35069269177E+02  0.33730463380E+02 -0.61709238462E+01  0.49047826308E+02  0.10566000000E+00 0. -1.
         23    2    1    0    0    0  0.23704370921E+02 -0.49144349638E+01 -0.21961983634E+02  0.92313954094E+02  0.86333588618E+02 0.  0.
         13    1    3    3    0    0 -0.11364898255E+02 -0.38644898344E+02 -0.15791059788E+02  0.43266127786E+02  0.10566000000E+00 0.  1.
         22    1    1    0    0    0 -0.23704370921E+02  0.49144349638E+01  0.21961983634E+02  0.32686045906E+02  0.00000000000E+00 0. -1.
</event>
<event>
 5    1  0.1764311E-003  0.9118800E+02  0.7818608E-02  0.1130116E+00
         25   -1    0    0    0    0  0.00000000000E+00  0.00000000000E+00  0.99999998245E-14  0.12500000000E+03  0.12500000000E+03 0.  0.
        -13    1    3    3    0    0 -0.37078241849E+02  0.18855196253E+02  0.27839162588E+02  0.50053417286E+02  0.10566000000E+00 0.  1.
         23    2    1    0    0    0 -0.28108375434E+01 -0.36269130449E+01  0.33287024889E+02  0.91398194515E+02  0.84997344833E+02 0.  0.
         13    1    3    3    0    0  0.34267404306E+02 -0.22482109298E+02  0.54478623004E+01  0.41344777228E+02  0.10566000000E+00 0. -1.
         22    1    1    0    0    0  0.28108375434E+01  0.36269130449E+01 -0.33287024889E+02  0.33601805485E+02  0.00000000000E+00 0.  1.
</event>
<event>
 5    1  0.1764311E-003  0.9118800E+02  0.7818608E-02  0.1130116E+00
         25   -1    0    0    0    0  0.00000000000E+00  0.00000000000E+00  0.99999998245E-14  0.12500000000E+03  0.12500000000E+03 0.  0.
        -13    1    3    3    0    0 -0.12939312358E+01 -0.42529897055E+02 -0.29698583625E+02  0.51889145637E+02  0.10566000000E+00 0. -1.
         23    2    1    0    0    0  0.68590634073E+01  0.15162775540E+01 -0.27368668513E+02  0.96744206530E+02  0.92525951130E+02 0.  0.
         13    1    3    3    0    0  0.81529946431E+01  0.44046174609E+02  0.23299151123E+01  0.44855060894E+02  0.10566000000E+00 0.  1.
         22    1    1    0    0    0 -0.68590634073E+01 -0.15162775540E+01  0.27368668513E+02  0.28255793470E+02  0.00000000000E+00 0. -1.
</event>
<event>
 5    1  0.1764311E-003  0.9118800E+02  0.7818608E-02  0.1130116E+00
         25   -1    0    0    0    0  0.00000000000E+00  0.00000000000E+00  0.99999998245E-14  0.12500000000E+03  0.12500000000E+03 0.  0.
        -13    1    3    3    0    0 -0.48338319899E+02  0.25664755296E+02 -0.16075491126E+02  0.57041260628E+02  0.10566000000E+00 0. -1.
         23    2    1    0    0    0 -0.13786725705E+02  0.27877198664E+02 -0.10881831428E+02  0.92051156830E+02  0.85952249578E+02 0.  0.
         13    1    3    3    0    0  0.34551594194E+02  0.22124433679E+01  0.51936596982E+01  0.35009896202E+02  0.10566000000E+00 0.  1.
         22    1    1    0    0    0  0.13786725705E+02 -0.27877198664E+02  0.10881831428E+02  0.32948843170E+02  0.00000000000E+00 0. -1.
</event>
<event>
 5    1  0.1764311E-003  0.9118800E+02  0.7818608E-02  0.1130116E+00
         25   -1    0    0    0    0  0.00000000000E+00  0.00000000000E+00  0.99999998245E-14  0.12500000000E+03  0.12500000000E+03 0.  0.
        -13    1    3    3    0    0 -0.65044277938E+01 -0.33190884659E+02 -0.65935272669E+01  0.34459079663E+02  0.10566000000E+00 0. -1.
         23    2    1    0    0    0  0.12932004303E+02  0.21772378571E+02  0.13724041827E+02  0.96196831286E+02  0.91783483380E+02 0.  0.
         13    1    3    3    0    0  0.19436432097E+02  0.54963263230E+02  0.20317569093E+02  0.61737751623E+02  0.10566000000E+00 0.  1.
         22    1    1    0    0    0 -0.12932004303E+02 -0.21772378571E+02 -0.13724041827E+02  0.28803168714E+02  0.00000000000E+00 0.  1.
</event>
<event>
 5    1  0.1764311E-003  0.9118800E+02  0.7818608E-02  0.1130116E+00
         25   -1    0    0    0    0  0.00000000000E+00  0.00000000000E+00  0.99999998245E-14  0.12500000000E+03  0.12500000000E+03 0.  0.
        -13    1    3    3    0    0  0.19286732290E+02  0.43520054127E+02  0.28833598526E+02  0.55653937162E+02  0.10566000000E+00 0. -1.
         23    2    1    0    0    0 -0.11321457048E+02  0.22797235197E+02  0.16695247142E+02  0.94559556517E+02  0.89525913172E+02 0.  0.
         13    1    3    3    0    0 -0.30608189338E+02 -0.20722818931E+02 -0.12138351384E+02  0.38905619355E+02  0.10566000000E+00 0.  1.
         22    1    1    0    0    0  0.11321457048E+02 -0.22797235197E+02 -0.16695247142E+02  0.30440443483E+02  0.00000000000E+00 0. -1.
</event>
<event>
 5    1  0.1764311E-003  0.9118800E+02  0.7818608E-02  0.1130116E+00
         25   -1    0    0    0    0  0.00000000000E+00  0.00000000000E+00  0.99999998245E-14  0.12500000000E+03  0.12500000000E+03 0.  0.
        -13    1    3    3    0    0 -0.31120736110E+02 -0.33511361893E+01  0.18754560817E+02  0.36489382637E+02  0.10566000000E+00 0. -1.
         23    2    1    0    0    0  0.27350567732E+02 -0.58724225229E+01  0.58460191529E+01  0.96421776796E+02  0.92089327281E+02 0.  0.
         13    1    3    3    0    0  0.58471303842E+02 -0.25212863336E+01 -0.12908541664E+02  0.59932394159E+02  0.10566000000E+00 0.  1.
         22    1    1    0    0    0 -0.27350567732E+02  0.58724225229E+01 -0.58460191529E+01  0.28578223204E+02  0.00000000000E+00 0.  1.
</event>
<event>
 5    1  0.1764311E-003  0.9118800E+02  0.7818608E-02  0.1130116E+00
         25   -1    0    0    0    0  0.00000000000E+00  0.00000000000E+00  0.99999998245E-14  0.12500000000E+03  0.12500000000E+03 0.  0.
        -13    1    3    3    0    0  0.51291877673E+02 -0.30266968960E+02  0.18528278667E+02  0.62371903929E+02  0.10566000000E+00 0.  1.
         23    2    1    0    0    0  0.27306359946E+02 -0.13530367795E+02  0.76251579384E+01  0.93585812444E+02  0.88155845587E+02 0.  0.
         13    1    3    3    0    0 -0.23985517727E+02  0.16736601165E+02 -0.10903120729E+02  0.31213908516E+02  0.10566000000E+00 0. -1.
         22    1    1    0    0    0 -0.27306359946E+02  0.13530367795E+02 -0.76251579384E+01  0.31414187556E+02  0.00000000000E+00 0.  1.
</event>
<event>
 5    1  0.1764311E-003  0.9118800E+02  0.7818608E-02  0.1130116E+00
         25   -1    0    0    0    0  0.00000000000E+00  0.00000000000E+00  0.99999998245E-14  0.12500000000E+03  0.12500000000E+03 0.  0.
        -13    1    3    3    0    0  0.13020822004E+02  0.49210682630E+02  0.26494787742E+02  0.57386566652E+02  0.10566000000E+00 0.  1.
         23    2    1    0    0    0 -0.23371539292E+01  0.14868406428E+02  0.25938831274E+02  0.95010755827E+02  0.90153696302E+02 0.  0.
         13    1    3    3    0    0 -0.15357975934E+02 -0.34342276202E+02 -0.55595646771E+00  0.37624189176E+02  0.10566000000E+00 0. -1.
         22    1    1    0    0    0  0.23371539292E+01 -0.14868406428E+02 -0.25938831274E+02  0.29989244173E+02  0.00000000000E+00 0.  1.
</event>
<event>
 4    1  0.1764311E-003  0.9118800E+02  0.7818608E-02  0.1130116E+00
         25   -1    0    0    0    0  0.00000000000E+00  0.00000000000E+00  0.99999998245E-14  0.12500000000E+03  0.12500000000E+03 0.  0.
        -13    1    1    0    0    0  0.86073389293E+00 -0.13002604764E+02 -0.18800857496E+02  0.22875576498E+02  0.10566000000E+00 0.  1.
         13    1    1    0    0    0 -0.29932639872E+02 -0.33858768297E+02  0.98911646429E+01  0.46262570425E+02  0.10566000000E+00 0. -1.
         22    1    1    0    0    0  0.29071905980E+02  0.46861373061E+02  0.89096928527E+01  0.55861853077E+02  0.00000000000E+00 0. -1.
</event>
<event>
 5    1  0.1764311E-003  0.9118800E+02  0.7818608E-02  0.1130116E+00
         25   -1    0    0    0    0  0.00000000000E+00  0.00000000000E+00  0.99999998245E-14  0.12500000000E+03  0.12500000000E+03 0.  0.
        -13    1    3    3    0    0 -0.17223331347E+02 -0.37429035138E+02 -0.15303412207E+02  0.43952035257E+02  0.10566000000E+00 0.  1.
         23    2    1    0    0    0  0.34082324614E+01  0.98891298161E+01 -0.26269570418E+02  0.96724546565E+02  0.92499387248E+02 0.  0.
         13    1    3    3    0    0  0.20631563808E+02  0.47318164954E+02 -0.10966158211E+02  0.52772511308E+02  0.10566000000E+00 0. -1.
         22    1    1    0    0    0 -0.34082324614E+01 -0.98891298161E+01  0.26269570418E+02  0.28275453435E+02  0.00000000000E+00 0. -1.
</event>
<event>
 5    1  0.1764311E-003  0.9118800E+02  0.7818608E-02  0.1130116E+00
         25   -1    0    0    0    0  0.00000000000E+00  0.00000000000E+00  0.99999998245E-14  0.12500000000E+03  0.12500000000E+03 0.  0.
        -13    1    3    3    0    0  0.12665767834E+01 -0.50338871804E+02  0.46337312711E+01  0.50567666159E+02  0.10566000000E+00 0. -1.
         23    2    1    0    0    0  0.16237168807E+02 -0.82121621711E+01  0.20111457915E+02  0.97878864370E+02  0.94046350767E+02 0.  0.
         13    1    3    3    0    0  0.14970592023E+02  0.42126709633E+02  0.15477726644E+02  0.47311198211E+02  0.10566000000E+00 0.  1.
         22    1    1    0    0    0 -0.16237168807E+02  0.82121621711E+01 -0.20111457915E+02  0.27121135630E+02  0.00000000000E+00 0. -1.
</event>
<event>
 5    1  0.1764311E-003  0.9118800E+02  0.7818608E-02  0.1130116E+00
         25   -1    0    0    0    0  0.00000000000E+00  0.00000000000E+00  0.99999998245E-14  0.12500000000E+03  0.12500000000E+03 0.  0.
        -13    1    3    3    0    0  0.16830197125E+02  0.26927692083E+02 -0.34412106862E+02  0.46824784024E+02  0.10566000000E+00 0. -1.
         23    2    1    0    0    0 -0.22609549884E+02  0.16049434382E+01 -0.16340639854E+02  0.97057485793E+02  0.92948219177E+02 0.  0.
         13    1    3    3    0    0 -0.39439747009E+02 -0.25322748645E+02  0.18071467009E+02  0.50232701768E+02  0.10566000000E+00 0.  1.
         22    1    1    0    0    0  0.22609549884E+02 -0.16049434382E+01  0.16340639854E+02  0.27942514207E+02  0.00000000000E+00 0.  1.
</event>
<event>
 5    1  0.1764311E-003  0.9118800E+02  0.7818608E-02  0.1130116E+00
         25   -1    0    0    0    0  0.00000000000E+00  0.00000000000E+00  0.99999998245E-14  0.12500000000E+03  0.12500000000E+03 0.  0.
        -13    1    3    3    0    0 -0.60604039528E+01  0.32726368098E+02  0.45883063469E+02  0.56683422111E+02  0.10566000000E+00 0. -1.
         23    2    1    0    0    0 -0.11969170377E+02 -0.12003328863E+01  0.25761101652E+02  0.96568746125E+02  0.92288604558E+02 0.  0.
         13    1    3    3    0    0 -0.59087664240E+01 -0.33926700984E+02 -0.20121961817E+02  0.39885324014E+02  0.10566000000E+00 0.  1.
         22    1    1    0    0    0  0.11969170377E+02  0.12003328863E+01 -0.25761101652E+02  0.28431253875E+02  0.00000000000E+00 0. -1.
</event>
<event>
 5    1  0.1764311E-003  0.9118800E+02  0.7818608E-02  0.1130116E+00
         25   -1    0    0    0    0  0.00000000000E+00  0.00000000000E+00  0.99999998245E-14  0.12500000000E+03  0.12500000000E+03 0.  0.
        -13    1    3    3    0    0  0.33656997742E+02 -0.10715731320E+02 -0.16187689471E+00  0.35322199293E+02  0.10566000000E+00 0.  1.
         23    2    1    0    0    0 -0.21078559905E+02 -0.21870974087E+02 -0.11854509871E+02  0.92393641733E+02  0.86448889138E+02 0.  0.
         13    1    3    3    0    0 -0.54735557647E+02 -0.11155242767E+02 -0.11692632976E+02  0.57071442439E+02  0.10566000000E+00 0. -1.
         22    1    1    0    0    0  0.21078559905E+02  0.21870974087E+02  0.11854509871E+02  0.32606358267E+02  0.00000000000E+00 0. -1.
</event>
<event>
 4    1  0.1764311E-003  0.9118800E+02  0.7818608E-02  0.1130116E+00
         25   -1    0    0    0    0  0.00000000000E+00  0.00000000000E+00  0.99999998245E-14  0.12500000000E+03  0.12500000000E+03 0.  0.
        -13    1    1    0    0    0 -0.21103245787E+02 -0.22992994785E+02 -0.13218522052E+01  0.31237529499E+02  0.10566000000E+00 0.  1.
         13    1    1    0    0    0  0.23064403997E+02 -0.29844417935E+02  0.12470052211E+02  0.39726180030E+02  0.10566000000E+00 0. -1.
         22    1    1    0    0    0 -0.19611582092E+01  0.52837412720E+02 -0.11148200006E+02  0.54036290471E+02  0.00000000000E+00 0. -1.
</event>
<event>
 5    1  0.1764311E-003  0.9118800E+02  0.7818608E-02  0.1130116E+00
         25   -1    0    0    0    0  0.00000000000E+00  0.00000000000E+00  0.99999998245E-14  0.12500000000E+03  0.12500000000E+03 0.  0.
        -13    1    3    3    0    0  0.36905906980E+02 -0.79334268560E+00  0.32783824630E+01  0.37059874773E+02  0.10566000000E+00 0.  1.
         23    2    1    0    0    0 -0.13486029760E+02 -0.13376090613E+02 -0.22919897818E+02  0.95232324331E+02  0.90460384051E+02 0.  0.
         13    1    3    3    0    0 -0.50391936740E+02 -0.12582747927E+02 -0.26198280281E+02  0.58172449557E+02  0.10566000000E+00 0. -1.
         22    1    1    0    0    0  0.13486029760E+02  0.13376090613E+02  0.22919897818E+02  0.29767675669E+02  0.00000000000E+00 0. -1.
</event>
<event>
 5    1  0.1764311E-003  0.9118800E+02  0.7818608E-02  0.1130116E+00
         25   -1    0    0    0    0  0.00000000000E+00  0.00000000000E+00  0.99999998245E-14  0.12500000000E+03  0.12500000000E+03 0.  0.
        -13    1    3    3    0    0 -0.10811385456E+02 -0.32131170553E+02 -0.45974760394E+02  0.57122569392E+02  0.10566000000E+00 0.  1.
         23    2    1    0    0    0  0.61634759326E+01 -0.27348551486E+02 -0.13940267060E+02  0.93690851982E+02  0.88304660100E+02 0.  0.
         13    1    3    3    0    0  0.16974861389E+02  0.47826190676E+01  0.32034493334E+02  0.36568282590E+02  0.10566000000E+00 0. -1.
         22    1    1    0    0    0 -0.61634759326E+01  0.27348551486E+02  0.13940267060E+02  0.31309148018E+02  0.00000000000E+00 0.  1.
</event>
<event>
 5    1  0.1764311E-003  0.9118800E+02  0.7818608E-02  0.1130116E+00
         25   -1    0    0    0    0  0.00000000000E+00  0.00000000000E+00  0.99999998245E-14  0.12500000000E+03  0.12500000000E+03 0.  0.
        -13    1    3    3    0    0  0.59263020256E+01 -0.49123917180E+02 -0.36882546153E+02  0.61713966568E+02  0.10566000000E+00 0. -1.
         23    2    1    0    0    0  0.20797701105E+01 -0.21317775119E+02 -0.24677199309E+02  0.92323752580E+02  0.86347774407E+02 0.  0.
         13    1    3    3    0    0 -0.38465319151E+01  0.27806142061E+02  0.12205346844E+02  0.30609786012E+02  0.10566000000E+00 0.  1.
         22    1    1    0    0    0 -0.20797701105E+01  0.21317775119E+02  0.24677199309E+02  0.32676247420E+02  0.00000000000E+00 0. -1.
</event>
<event>
 5    1  0.1764311E-003  0.9118800E+02  0.7818608E-02  0.1130116E+00
         25   -1    0    0    0    0  0.00000000000E+00  0.00000000000E+00  0.99999998245E-14  0.12500000000E+03  0.12500000000E+03 0.  0.
        -13    1    3    3    0    0 -0.31228692906E+02  0.30286113213E+02  0.75220934200E+01  0.44148306509E+02  0.10566000000E+00 0. -1.
         23    2    1    0    0    0  0.21495234513E+02  0.58059337327E+01  0.39393866505E+01  0.10238865903E+03  0.99860726803E+02 0.  0.
         13    1    3    3    0    0  0.52723927419E+02 -0.24480179481E+02 -0.35827067695E+01  0.58240352521E+02  0.10566000000E+00 0.  1.
         22    1    1    0    0    0 -0.21495234513E+02 -0.58059337327E+01 -0.39393866505E+01  0.22611340970E+02  0.00000000000E+00 0.  1.
</event>
<event>
 5    1  0.1764311E-003  0.9118800E+02  0.7818608E-02  0.1130116E+00
         25   -1    0    0    0    0  0.00000000000E+00  0.00000000000E+00  0.99999998245E-14  0.12500000000E+03  0.12500000000E+03 0.  0.
        -13    1    3    3    0    0  0.42517021686E+02  0.17681966109E+02  0.34074707996E+02  0.57283906532E+02  0.10566000000E+00 0.  1.
         23    2    1    0    0    0  0.47000970439E+01  0.14567482754E+02  0.23983788565E+02  0.96547854563E+02  0.92260303711E+02 0.  0.
         13    1    3    3    0    0 -0.37816924642E+02 -0.31144833555E+01 -0.10090919431E+02  0.39263948031E+02  0.10566000000E+00 0. -1.
         22    1    1    0    0    0 -0.47000970439E+01 -0.14567482754E+02 -0.23983788565E+02  0.28452145437E+02  0.00000000000E+00 0.  1.
</event>
<event>
 5    1  0.1764311E-003  0.9118800E+02  0.7818608E-02  0.1130116E+00
         25   -1    0    0    0    0  0.00000000000E+00  0.00000000000E+00  0.99999998245E-14  0.12500000000E+03  0.12500000000E+03 0.  0.
        -13    1    3    3    0    0 -0.29490425496E+02 -0.45972407979E+02 -0.63280171747E+01  0.54983656269E+02  0.10566000000E+00 0. -1.
         23    2    1    0    0    0 -0.19466454594E+02 -0.14853770061E+02  0.17038585701E+02  0.95168963441E+02  0.90372788273E+02 0.  0.
         13    1    3    3    0    0  0.10023970902E+02  0.31118637918E+02  0.23366602876E+02  0.40185307172E+02  0.10566000000E+00 0.  1.
         22    1    1    0    0    0  0.19466454594E+02  0.14853770061E+02 -0.17038585701E+02  0.29831036559E+02  0.00000000000E+00 0. -1.
</event>
<event>
 5    1  0.1764311E-003  0.9118800E+02  0.7818608E-02  0.1130116E+00
         25   -1    0    0    0    0  0.00000000000E+00  0.00000000000E+00  0.99999998245E-14  0.12500000000E+03  0.12500000000E+03 0.  0.
        -13    1    3    3    0    0  0.34077486237E+02  0.58549812629E+01 -0.19397133270E+02  0.39646132434E+02  0.10566000000E+00 0. -1.
         23    2    1    0    0    0 -0.20756979546E+02  0.16239964690E+02 -0.12337377777E+02  0.95900179667E+02  0.91378580186E+02 0.  0.
         13    1    3    3    0    0 -0.54834465783E+02  0.10384983427E+02  0.70597554929E+01  0.56254047234E+02  0.10566000000E+00 0.  1.
         22    1    1    0    0    0  0.20756979546E+02 -0.16239964690E+02  0.12337377777E+02  0.29099820333E+02  0.00000000000E+00 0.  1.
</event>
<event>
 5    1  0.1764311E-003  0.9118800E+02  0.7818608E-02  0.1130116E+00
         25   -1    0    0    0    0  0.00000000000E+00  0.00000000000E+00  0.99999998245E-14  0.12500000000E+03  0.12500000000E+03 0.  0.
        -13    1    3    3    0    0 -0.36269419189E+02  0.33042388972E+01 -0.30948571628E+02  0.47793451569E+02  0.10566000000E+00 0.  1.
         23    2    1    0    0    0 -0.14779940223E+02 -0.24664314487E+02  0.21546651073E+01  0.96165686694E+02  0.91741057730E+02 0.  0.
         13    1    3    3    0    0  0.21489478966E+02 -0.27968553384E+02  0.33103236735E+02  0.48372235125E+02  0.10566000000E+00 0. -1.
         22    1    1    0    0    0  0.14779940223E+02  0.24664314487E+02 -0.21546651073E+01  0.28834313306E+02  0.00000000000E+00 0.  1.
</event>
<event>
 5    1  0.1764311E-003  0.9118800E+02  0.7818608E-02  0.1130116E+00
         25   -1    0    0    0    0  0.00000000000E+00  0.00000000000E+00  0.99999998245E-14  0.12500000000E+03  0.12500000000E+03 0.  0.
        -13    1    3    3    0    0  0.39531540083E+01  0.34309219415E+02 -0.44680830272E+02  0.56472450995E+02  0.10566000000E+00 0.  1.
         23    2    1    0    0    0  0.18867692523E+02  0.19975465332E+02 -0.12303649085E+02  0.94893708013E+02  0.89991260705E+02 0.  0.
         13    1    3    3    0    0  0.14914538515E+02 -0.14333754083E+02  0.32377181187E+02  0.38421257018E+02  0.10566000000E+00 0. -1.
         22    1    1    0    0    0 -0.18867692523E+02 -0.19975465332E+02  0.12303649085E+02  0.30106291987E+02  0.00000000000E+00 0.  1.
</event>
<event>
 5    1  0.1764311E-003  0.9118800E+02  0.7818608E-02  0.1130116E+00
         25   -1    0    0    0    0  0.00000000000E+00  0.00000000000E+00  0.99999998245E-14  0.12500000000E+03  0.12500000000E+03 0.  0.
        -13    1    3    3    0    0 -0.88083526026E+01 -0.49259672513E+02 -0.14301356635E+00  0.50041323210E+02  0.10566000000E+00 0.  1.
         23    2    1    0    0    0  0.12420794640E+02 -0.29933239964E+02 -0.21747744706E+02  0.85971300380E+02  0.76601730365E+02 0.  0.
         13    1    3    3    0    0  0.21229147243E+02  0.19326432549E+02 -0.21604731140E+02  0.35929977170E+02  0.10566000000E+00 0. -1.
         22    1    1    0    0    0 -0.12420794640E+02  0.29933239964E+02  0.21747744706E+02  0.39028699620E+02  0.00000000000E+00 0.  1.
</event>
<event>
 5    1  0.1764311E-003  0.9118800E+02  0.7818608E-02  0.1130116E+00
         25   -1    0    0    0    0  0.00000000000E+00  0.00000000000E+00  0.99999998245E-14  0.12500000000E+03  0.12500000000E+03 0.  0.
        -13    1    3    3    0    0  0.99506362067E+01 -0.22035354630E+02  0.24418092132E+02  0.34363154716E+02  0.10566000000E+00 0. -1.
         23    2    1    0    0    0 -0.96314358739E+01  0.11113962353E+02 -0.24384101621E+02  0.96524236129E+02  0.92228298436E+02 0.  0.
         13    1    3    3    0    0 -0.19582072081E+02  0.33149316983E+02 -0.48802193753E+02  0.62161081414E+02  0.10566000000E+00 0.  1.
         22    1    1    0    0    0  0.96314358739E+01 -0.11113962353E+02  0.24384101621E+02  0.28475763871E+02  0.00000000000E+00 0.  1.
</event>
<event>
 5    1  0.1764311E-003  0.9118800E+02  0.7818608E-02  0.1130116E+00
         25   -1    0    0    0    0  0.00000000000E+00  0.00000000000E+00  0.99999998245E-14  0.12500000000E+03  0.12500000000E+03 0.  0.
        -13    1    3    3    0    0 -0.49592058197E+02 -0.18787849290E+01  0.21905089688E+02  0.54247084597E+02  0.10566000000E+00 0.  1.
         23    2    1    0    0    0 -0.14029679772E+02  0.18135020116E+02  0.19113279296E+02  0.95149902604E+02  0.90346420244E+02 0.  0.
         13    1    3    3    0    0  0.35562378424E+02  0.20013805045E+02 -0.27918103921E+01  0.40902818007E+02  0.10566000000E+00 0. -1.
         22    1    1    0    0    0  0.14029679772E+02 -0.18135020116E+02 -0.19113279296E+02  0.29850097396E+02  0.00000000000E+00 0.  1.
</event>
<event>
 5    1  0.1764311E-003  0.9118800E+02  0.7818608E-02  0.1130116E+00
         25   -1    0    0    0    0  0.00000000000E+00  0.00000000000E+00  0.99999998245E-14  0.12500000000E+03  0.12500000000E+03 0.  0.
        -13    1    3    3    0    0 -0.23017805321E+02  0.71424320357E+01  0.26855208101E+02  0.36083889249E+02  0.10566000000E+00 0.  1.
         23    2    1    0    0    0  0.19037579388E+02  0.15415748957E+02 -0.15231846584E+02  0.96154135561E+02  0.91725317608E+02 0.  0.
         13    1    3    3    0    0  0.42055384709E+02  0.82733169213E+01 -0.42087054685E+02  0.60070246312E+02  0.10566000000E+00 0. -1.
         22    1    1    0    0    0 -0.19037579388E+02 -0.15415748957E+02  0.15231846584E+02  0.28845864439E+02  0.00000000000E+00 0. -1.
</event>
<event>
 5    1  0.1764311E-003  0.9118800E+02  0.7818608E-02  0.1130116E+00
         25   -1    0    0    0    0  0.00000000000E+00  0.00000000000E+00  0.99999998245E-14  0.12500000000E+03  0.12500000000E+03 0.  0.
        -13    1    3    3    0    0 -0.43326783011E+02 -0.42962214433E+02  0.44189415071E+01  0.61175977337E+02  0.10566000000E+00 0.  1.
         23    2    1    0    0    0 -0.16138767902E+02 -0.25604365203E+02  0.81711783085E+01  0.93650175411E+02  0.88247061439E+02 0.  0.
         13    1    3    3    0    0  0.27188015109E+02  0.17357849230E+02  0.37522368013E+01  0.32474198073E+02  0.10566000000E+00 0. -1.
         22    1    1    0    0    0  0.16138767902E+02  0.25604365203E+02 -0.81711783085E+01  0.31349824589E+02  0.00000000000E+00 0.  1.
</event>
<event>
 5    1  0.1764311E-003  0.9118800E+02  0.7818608E-02  0.1130116E+00
         25   -1    0    0    0    0  0.00000000000E+00  0.00000000000E+00  0.99999998245E-14  0.12500000000E+03  0.12500000000E+03 0.  0.
        -13    1    3    3    0    0 -0.21571597105E+02 -0.10787033446E+02 -0.10309038391E+02  0.26229398179E+02  0.10566000000E+00 0.  1.
         23    2    1    0    0    0  0.42783750391E+00  0.25094207223E+02  0.30939664979E+02  0.85160758666E+02  0.75267454231E+02 0.  0.
         13    1    3    3    0    0  0.21999434609E+02  0.35881240669E+02  0.41248703370E+02  0.58931360487E+02  0.10566000000E+00 0. -1.
         22    1    1    0    0    0 -0.42783750391E+00 -0.25094207223E+02 -0.30939664979E+02  0.39839241334E+02  0.00000000000E+00 0. -1.
</event>
<event>
 5    1  0.1764311E-003  0.9118800E+02  0.7818608E-02  0.1130116E+00
         25   -1    0    0    0    0  0.00000000000E+00  0.00000000000E+00  0.99999998245E-14  0.12500000000E+03  0.12500000000E+03 0.  0.
        -13    1    3    3    0    0  0.25313156045E+02  0.33668823978E+02 -0.79337423428E+01  0.42863749354E+02  0.10566000000E+00 0.  1.
         23    2    1    0    0    0 -0.12357787113E+02  0.13316254414E+02  0.23003091857E+02  0.95688231562E+02  0.91088187437E+02 0.  0.
         13    1    3    3    0    0 -0.37670943158E+02 -0.20352569564E+02  0.30936834200E+02  0.52824482209E+02  0.10566000000E+00 0. -1.
         22    1    1    0    0    0  0.12357787113E+02 -0.13316254414E+02 -0.23003091857E+02  0.29311768438E+02  0.00000000000E+00 0. -1.
</event>
<event>
 5    1  0.1764311E-003  0.9118800E+02  0.7818608E-02  0.1130116E+00
         25   -1    0    0    0    0  0.00000000000E+00  0.00000000000E+00  0.99999998245E-14  0.12500000000E+03  0.12500000000E+03 0.  0.
        -13    1    3    3    0    0  0.44161862726E+02 -0.11687696046E+02  0.26678912910E+01  0.45760257498E+02  0.10566000000E+00 0. -1.
         23    2    1    0    0    0 -0.40706148814E+01  0.49145017133E+01  0.23342643540E+02  0.10080080084E+03  0.97852951972E+02 0.  0.
         13    1    3    3    0    0 -0.48232477608E+02  0.16602197759E+02  0.20674752249E+02  0.55040543341E+02  0.10566000000E+00 0.  1.
         22    1    1    0    0    0  0.40706148814E+01 -0.49145017133E+01 -0.23342643540E+02  0.24199199161E+02  0.00000000000E+00 0.  1.
</event>
<event>
 5    1  0.1764311E-003  0.9118800E+02  0.7818608E-02  0.1130116E+00
         25   -1    0    0    0    0  0.00000000000E+00  0.00000000000E+00  0.99999998245E-14  0.12500000000E+03  0.12500000000E+03 0.  0.
        -13    1    3    3    0    0 -0.25070676329E+01  0.20124511076E+02 -0.34253042124E+02  0.39806574745E+02  0.10566000000E+00 0.  1.
         23    2    1    0    0    0  0.17340342264E+02  0.91783339824E+01  0.19003514082E+02  0.97685849236E+02  0.93789457344E+02 0.  0.
         13    1    3    3    0    0  0.19847409897E+02 -0.10946177093E+02  0.53256556206E+02  0.57879274490E+02  0.10566000000E+00 0. -1.
         22    1    1    0    0    0 -0.17340342264E+02 -0.91783339824E+01 -0.19003514082E+02  0.27314150764E+02  0.00000000000E+00 0. -1.
</event>
<event>
 5    1  0.1764311E-003  0.9118800E+02  0.7818608E-02  0.1130116E+00
         25   -1    0    0    0    0  0.00000000000E+00  0.00000000000E+00  0.99999998245E-14  0.12500000000E+03  0.12500000000E+03 0.  0.
        -13    1    3    3    0    0  0.35799845960E+02  0.12310031309E+02 -0.34661435321E+02  0.51328277822E+02  0.10566000000E+00 0. -1.
         23    2    1    0    0    0  0.23192992985E+02 -0.17015678566E+02 -0.33536786669E+01  0.96039761719E+02  0.91569320353E+02 0.  0.
         13    1    3    3    0    0 -0.12606852976E+02 -0.29325709875E+02  0.31307756654E+02  0.44711483898E+02  0.10566000000E+00 0.  1.
         22    1    1    0    0    0 -0.23192992985E+02  0.17015678566E+02  0.33536786669E+01  0.28960238281E+02  0.00000000000E+00 0. -1.
</event>
<event>
 5    1  0.1764311E-003  0.9118800E+02  0.7818608E-02  0.1130116E+00
         25   -1    0    0    0    0  0.00000000000E+00  0.00000000000E+00  0.99999998245E-14  0.12500000000E+03  0.12500000000E+03 0.  0.
        -13    1    3    3    0    0 -0.13081699667E+02  0.36854100970E+02 -0.10353373678E+02  0.40454408104E+02  0.10566000000E+00 0.  1.
         23    2    1    0    0    0  0.24995342076E+02  0.88815143195E+01  0.15463603366E+02  0.94295416447E+02  0.89156346447E+02 0.  0.
         13    1    3    3    0    0  0.38077041742E+02 -0.27972586650E+02  0.25816977043E+02  0.53841008344E+02  0.10566000000E+00 0. -1.
         22    1    1    0    0    0 -0.24995342076E+02 -0.88815143195E+01 -0.15463603366E+02  0.30704583553E+02  0.00000000000E+00 0. -1.
</event>
<event>
 5    1  0.1764311E-003  0.9118800E+02  0.7818608E-02  0.1130116E+00
         25   -1    0    0    0    0  0.00000000000E+00  0.00000000000E+00  0.99999998245E-14  0.12500000000E+03  0.12500000000E+03 0.  0.
        -13    1    3    3    0    0 -0.23678472871E+02  0.29241064528E+02 -0.10387143531E+02  0.39033496474E+02  0.10566000000E+00 0.  1.
         23    2    1    0    0    0 -0.58547110693E+01 -0.18405264504E+02 -0.26331280830E+02  0.92344713241E+02  0.86378112449E+02 0.  0.
         13    1    3    3    0    0  0.17823761802E+02 -0.47646329031E+02 -0.15944137300E+02  0.53311216767E+02  0.10566000000E+00 0. -1.
         22    1    1    0    0    0  0.58547110693E+01  0.18405264504E+02  0.26331280830E+02  0.32655286759E+02  0.00000000000E+00 0. -1.
</event>
<event>
 5    1  0.1764311E-003  0.9118800E+02  0.7818608E-02  0.1130116E+00
         25   -1    0    0    0    0  0.00000000000E+00  0.00000000000E+00  0.99999998245E-14  0.12500000000E+03  0.12500000000E+03 0.  0.
        -13    1    3    3    0    0 -0.31953735170E+02  0.39319069077E+02 -0.29956531978E+02  0.58859454267E+02  0.10566000000E+00 0.  1.
         23    2    1    0    0    0 -0.26457585492E+02  0.10338627821E+02 -0.84515844616E+01  0.95363530319E+02  0.90641505833E+02 0.  0.
         13    1    3    3    0    0  0.54961496788E+01 -0.28980441256E+02  0.21504947516E+02  0.36504076052E+02  0.10566000000E+00 0. -1.
         22    1    1    0    0    0  0.26457585492E+02 -0.10338627821E+02  0.84515844616E+01  0.29636469681E+02  0.00000000000E+00 0.  1.
</event>
<event>
 5    1  0.1764311E-003  0.9118800E+02  0.7818608E-02  0.1130116E+00
         25   -1    0    0    0    0  0.00000000000E+00  0.00000000000E+00  0.99999998245E-14  0.12500000000E+03  0.12500000000E+03 0.  0.
        -13    1    3    3    0    0  0.50797036294E+02 -0.10525255132E+02 -0.21021132125E+02  0.55973378062E+02  0.10566000000E+00 0.  1.
         23    2    1    0    0    0  0.10383485673E+02 -0.10008574078E+02 -0.24532332085E+02  0.96542599428E+02  0.92253183452E+02 0.  0.
         13    1    3    3    0    0 -0.40413550621E+02  0.51668105449E+00 -0.35111999598E+01  0.40569221366E+02  0.10566000000E+00 0. -1.
         22    1    1    0    0    0 -0.10383485673E+02  0.10008574078E+02  0.24532332085E+02  0.28457400572E+02  0.00000000000E+00 0.  1.
</event>
<event>
 5    1  0.1764311E-003  0.9118800E+02  0.7818608E-02  0.1130116E+00
         25   -1    0    0    0    0  0.00000000000E+00  0.00000000000E+00  0.99999998245E-14  0.12500000000E+03  0.12500000000E+03 0.  0.
        -13    1    3    3    0    0  0.24722625183E+02 -0.24004959078E+02 -0.19213414241E+02  0.39453931453E+02  0.10566000000E+00 0. -1.
         23    2    1    0    0    0 -0.13426496924E+02  0.17277930618E+02 -0.19537423105E+02  0.95665572996E+02  0.91057087856E+02 0.  0.
         13    1    3    3    0    0 -0.38149122107E+02  0.41282889696E+02 -0.32400886398E+00  0.56211641543E+02  0.10566000000E+00 0.  1.
         22    1    1    0    0    0  0.13426496924E+02 -0.17277930618E+02  0.19537423105E+02  0.29334427004E+02  0.00000000000E+00 0.  1.
</event>
<event>
 5    1  0.1764311E-003  0.9118800E+02  0.7818608E-02  0.1130116E+00
         25   -1    0    0    0    0  0.00000000000E+00  0.00000000000E+00  0.99999998245E-14  0.12500000000E+03  0.12500000000E+03 0.  0.
        -13    1    3    3    0    0  0.12931021615E+02  0.32911614682E+02  0.12417351034E+02  0.37477826401E+02  0.10566000000E+00 0.  1.
         23    2    1    0    0    0 -0.25566835694E+02 -0.51094755598E+01 -0.11335401786E+02  0.96570065748E+02  0.92290391900E+02 0.  0.
         13    1    3    3    0    0 -0.38497857309E+02 -0.38021090242E+02 -0.23752752820E+02  0.59092239348E+02  0.10566000000E+00 0. -1.
         22    1    1    0    0    0  0.25566835694E+02  0.51094755598E+01  0.11335401786E+02  0.28429934252E+02  0.00000000000E+00 0. -1.
</event>
<event>
 5    1  0.1764311E-003  0.9118800E+02  0.7818608E-02  0.1130116E+00
         25   -1    0    0    0    0  0.00000000000E+00  0.00000000000E+00  0.99999998245E-14  0.12500000000E+03  0.12500000000E+03 0.  0.
        -13    1    3    3    0    0  0.17202429687E+02  0.31346345691E+02 -0.24214758423E+02  0.43184287245E+02  0.10566000000E+00 0. -1.
         23    2    1    0    0    0 -0.25130958848E+02  0.39108551845E+01 -0.17618823080E+02  0.94060012805E+02  0.88825689985E+02 0.  0.
         13    1    3    3    0    0 -0.42333388535E+02 -0.27435490507E+02  0.65959353433E+01  0.50875725560E+02  0.10566000000E+00 0.  1.
         22    1    1    0    0    0  0.25130958848E+02 -0.39108551845E+01  0.17618823080E+02  0.30939987195E+02  0.00000000000E+00 0.  1.
</event>
<event>
 5    1  0.1764311E-003  0.9118800E+02  0.7818608E-02  0.1130116E+00
         25   -1    0    0    0    0  0.00000000000E+00  0.00000000000E+00  0.99999998245E-14  0.12500000000E+03  0.12500000000E+03 0.  0.
        -13    1    3    3    0    0 -0.34333632877E+02 -0.13467971036E+02 -0.24128225963E+01  0.36959673527E+02  0.10566000000E+00 0.  1.
         23    2    1    0    0    0  0.11487739187E+02  0.23783130488E+02 -0.10526427488E+02  0.96567428483E+02  0.92286819865E+02 0.  0.
         13    1    3    3    0    0  0.45821372063E+02  0.37251101523E+02 -0.81136048918E+01  0.59607754956E+02  0.10566000000E+00 0. -1.
         22    1    1    0    0    0 -0.11487739187E+02 -0.23783130488E+02  0.10526427488E+02  0.28432571517E+02  0.00000000000E+00 0. -1.
</event>
<event>
 5    1  0.1764311E-003  0.9118800E+02  0.7818608E-02  0.1130116E+00
         25   -1    0    0    0    0  0.00000000000E+00  0.00000000000E+00  0.99999998245E-14  0.12500000000E+03  0.12500000000E+03 0.  0.
        -13    1    3    3    0    0  0.32994230737E+02 -0.25455754770E+02 -0.38373068269E+01  0.41849143367E+02  0.10566000000E+00 0.  1.
         23    2    1    0    0    0 -0.13677777167E+02 -0.28616983781E+02  0.11778623205E+02  0.91165855803E+02  0.84654970029E+02 0.  0.
         13    1    3    3    0    0 -0.46672007904E+02 -0.31612290113E+01  0.15615930032E+02  0.49316712436E+02  0.10566000000E+00 0. -1.
         22    1    1    0    0    0  0.13677777167E+02  0.28616983781E+02 -0.11778623205E+02  0.33834144197E+02  0.00000000000E+00 0.  1.
</event>
<event>
 5    1  0.1764311E-003  0.9118800E+02  0.7818608E-02  0.1130116E+00
         25   -1    0    0    0    0  0.00000000000E+00  0.00000000000E+00  0.99999998245E-14  0.12500000000E+03  0.12500000000E+03 0.  0.
        -13    1    3    3    0    0 -0.29448550184E+02 -0.41831668199E+02  0.16839670677E+01  0.51185471390E+02  0.10566000000E+00 0. -1.
         23    2    1    0    0    0 -0.22191784215E+02 -0.80962667450E-02  0.17760309313E+02  0.96576348948E+02  0.92298901603E+02 0.  0.
         13    1    3    3    0    0  0.72567659687E+01  0.41823571933E+02  0.16076342246E+02  0.45390877559E+02  0.10566000000E+00 0.  1.
         22    1    1    0    0    0  0.22191784215E+02  0.80962667450E-02 -0.17760309313E+02  0.28423651052E+02  0.00000000000E+00 0. -1.
</event>
<event>
 5    1  0.1764311E-003  0.9118800E+02  0.7818608E-02  0.1130116E+00
         25   -1    0    0    0    0  0.00000000000E+00  0.00000000000E+00  0.99999998245E-14  0.12500000000E+03  0.12500000000E+03 0.  0.
        -13    1    3    3    0    0  0.18664507602E+02 -0.52299450745E+02 -0.15034424676E+02  0.57529483585E+02  0.10566000000E+00 0. -1.
         23    2    1    0    0    0  0.21067791374E+02 -0.17106715549E+02  0.39292307823E+01  0.97578650566E+02  0.93646476930E+02 0.  0.
         13    1    3    3    0    0  0.24032837719E+01  0.35192735196E+02  0.18963655459E+02  0.40049166980E+02  0.10566000000E+00 0.  1.
         22    1    1    0    0    0 -0.21067791374E+02  0.17106715549E+02 -0.39292307823E+01  0.27421349434E+02  0.00000000000E+00 0.  1.
</event>
<event>
 5    1  0.1764311E-003  0.9118800E+02  0.7818608E-02  0.1130116E+00
         25   -1    0    0    0    0  0.00000000000E+00  0.00000000000E+00  0.99999998245E-14  0.12500000000E+03  0.12500000000E+03 0.  0.
        -13    1    3    3    0    0 -0.24982560341E+02  0.10151586563E+02  0.28361576513E+02  0.39135319307E+02  0.10566000000E+00 0.  1.
         23    2    1    0    0    0 -0.27270107721E+01  0.99868212376E+01 -0.25534885600E+02  0.97446351080E+02  0.93469715791E+02 0.  0.
         13    1    3    3    0    0  0.22255549569E+02 -0.16476532494E+00 -0.53896462112E+02  0.58311031774E+02  0.10566000000E+00 0. -1.
         22    1    1    0    0    0  0.27270107721E+01 -0.99868212376E+01  0.25534885600E+02  0.27553648920E+02  0.00000000000E+00 0. -1.
</event>
<event>
 5    1  0.1764311E-003  0.9118800E+02  0.7818608E-02  0.1130116E+00
         25   -1    0    0    0    0  0.00000000000E+00  0.00000000000E+00  0.99999998245E-14  0.12500000000E+03  0.12500000000E+03 0.  0.
        -13    1    3    3    0    0 -0.54778097042E+01  0.50415853282E+02  0.18793740431E+01  0.50747491289E+02  0.10566000000E+00 0.  1.
         23    2    1    0    0    0  0.64604510137E+01  0.14937064351E+02 -0.23818204665E+02  0.96152813097E+02  0.91723515384E+02 0.  0.
         13    1    3    3    0    0  0.11938260718E+02 -0.35478788931E+02 -0.25697578708E+02  0.45405321808E+02  0.10566000000E+00 0. -1.
         22    1    1    0    0    0 -0.64604510137E+01 -0.14937064351E+02  0.23818204665E+02  0.28847186903E+02  0.00000000000E+00 0.  1.
</event>
<event>
 5    1  0.1764311E-003  0.9118800E+02  0.7818608E-02  0.1130116E+00
         25   -1    0    0    0    0  0.00000000000E+00  0.00000000000E+00  0.99999998245E-14  0.12500000000E+03  0.12500000000E+03 0.  0.
        -13    1    3    3    0    0 -0.51071148357E+02 -0.15607239959E+02 -0.18153424487E+02  0.56403954810E+02  0.10566000000E+00 0. -1.
         23    2    1    0    0    0 -0.30691732640E+02 -0.51075496755E+01  0.96349471068E+01  0.92428513667E+02  0.86499297205E+02 0.  0.
         13    1    3    3    0    0  0.20379415716E+02  0.10499690283E+02  0.27788371594E+02  0.36024558857E+02  0.10566000000E+00 0.  1.
         22    1    1    0    0    0  0.30691732640E+02  0.51075496755E+01 -0.96349471068E+01  0.32571486333E+02  0.00000000000E+00 0. -1.
</event>
<event>
 5    1  0.1764311E-003  0.9118800E+02  0.7818608E-02  0.1130116E+00
         25   -1    0    0    0    0  0.00000000000E+00  0.00000000000E+00  0.99999998245E-14  0.12500000000E+03  0.12500000000E+03 0.  0.
        -13    1    3    3    0    0 -0.13092574627E+02 -0.39011714910E+01 -0.34184095988E+02  0.36813017154E+02  0.10566000000E+00 0. -1.
         23    2    1    0    0    0  0.13954823726E+02 -0.21851839037E+02  0.14474086898E+02  0.95305906883E+02  0.90562004840E+02 0.  0.
         13    1    3    3    0    0  0.27047398353E+02 -0.17950667546E+02  0.48658182886E+02  0.58492889729E+02  0.10566000000E+00 0.  1.
         22    1    1    0    0    0 -0.13954823726E+02  0.21851839037E+02 -0.14474086898E+02  0.29694093117E+02  0.00000000000E+00 0.  1.
</event>
<event>
 5    1  0.1764311E-003  0.9118800E+02  0.7818608E-02  0.1130116E+00
         25   -1    0    0    0    0  0.00000000000E+00  0.00000000000E+00  0.99999998245E-14  0.12500000000E+03  0.12500000000E+03 0.  0.
        -13    1    3    3    0    0  0.20162487988E+02 -0.29668542033E+02  0.10416397509E+01  0.35886550205E+02  0.10566000000E+00 0.  1.
         23    2    1    0    0    0  0.52109798214E+01  0.28057829830E+02  0.63850910378E+01  0.95756786889E+02  0.91182217138E+02 0.  0.
         13    1    3    3    0    0 -0.14951508167E+02  0.57726371863E+02  0.53434512869E+01  0.59870236684E+02  0.10566000000E+00 0. -1.
         22    1    1    0    0    0 -0.52109798214E+01 -0.28057829830E+02 -0.63850910378E+01  0.29243213111E+02  0.00000000000E+00 0. -1.
</event>
<event>
 5    1  0.1764311E-003  0.9118800E+02  0.7818608E-02  0.1130116E+00
         25   -1    0    0    0    0  0.00000000000E+00  0.00000000000E+00  0.99999998245E-14  0.12500000000E+03  0.12500000000E+03 0.  0.
        -13    1    3    3    0    0 -0.15234367592E+02 -0.17951850292E+02 -0.50456689060E+02  0.55679830457E+02  0.10566000000E+00 0. -1.
         23    2    1    0    0    0 -0.22476994015E+02 -0.51172695260E+01 -0.80364634245E+01  0.10058716625E+03  0.97579667771E+02 0.  0.
         13    1    3    3    0    0 -0.72426264231E+01  0.12834580766E+02  0.42420225635E+02  0.44907335792E+02  0.10566000000E+00 0.  1.
         22    1    1    0    0    0  0.22476994015E+02  0.51172695260E+01  0.80364634245E+01  0.24412833751E+02  0.00000000000E+00 0. -1.
</event>
<event>
 5    1  0.1764311E-003  0.9118800E+02  0.7818608E-02  0.1130116E+00
         25   -1    0    0    0    0  0.00000000000E+00  0.00000000000E+00  0.99999998245E-14  0.12500000000E+03  0.12500000000E+03 0.  0.
        -13    1    3    3    0    0 -0.21853360790E+02 -0.43398598569E+02 -0.18814778587E+02  0.52105803831E+02  0.10566000000E+00 0. -1.
         23    2    1    0    0    0 -0.20907503456E+02 -0.14943388650E+02  0.14149634589E+02  0.95663321181E+02  0.91053996592E+02 0.  0.
         13    1    3    3    0    0  0.94585733397E+00  0.28455209919E+02  0.32964413176E+02  0.43557517350E+02  0.10566000000E+00 0.  1.
         22    1    1    0    0    0  0.20907503456E+02  0.14943388650E+02 -0.14149634589E+02  0.29336678819E+02  0.00000000000E+00 0. -1.
</event>
<event>
 5    1  0.1764311E-003  0.9118800E+02  0.7818608E-02  0.1130116E+00
         25   -1    0    0    0    0  0.00000000000E+00  0.00000000000E+00  0.99999998245E-14  0.12500000000E+03  0.12500000000E+03 0.  0.
        -13    1    3    3    0    0  0.10674725090E+02 -0.23113636574E+02 -0.30648113860E+02  0.39843544002E+02  0.10566000000E+00 0.  1.
         23    2    1    0    0    0 -0.26804053204E+02  0.88849316367E+01 -0.23666187885E+01  0.96662742496E+02  0.92415829942E+02 0.  0.
         13    1    3    3    0    0 -0.37478778295E+02  0.31998568211E+02  0.28281495071E+02  0.56819198494E+02  0.10566000000E+00 0. -1.
         22    1    1    0    0    0  0.26804053204E+02 -0.88849316367E+01  0.23666187885E+01  0.28337257504E+02  0.00000000000E+00 0. -1.
</event>
<event>
 5    1  0.1764311E-003  0.9118800E+02  0.7818608E-02  0.1130116E+00
         25   -1    0    0    0    0  0.00000000000E+00  0.00000000000E+00  0.99999998245E-14  0.12500000000E+03  0.12500000000E+03 0.  0.
        -13    1    3    3    0    0  0.38838493300E+01 -0.27917729074E+02 -0.30892020282E+02  0.41818799163E+02  0.10566000000E+00 0. -1.
         23    2    1    0    0    0 -0.32650075257E+02 -0.67957250454E+01 -0.51390567157E+01  0.91256568089E+02  0.84788808356E+02 0.  0.
         13    1    3    3    0    0 -0.36533924587E+02  0.21122004029E+02  0.25752963567E+02  0.49437768926E+02  0.10566000000E+00 0.  1.
         22    1    1    0    0    0  0.32650075257E+02  0.67957250454E+01  0.51390567157E+01  0.33743431911E+02  0.00000000000E+00 0.  1.
</event>
<event>
 5    1  0.1764311E-003  0.9118800E+02  0.7818608E-02  0.1130116E+00
         25   -1    0    0    0    0  0.00000000000E+00  0.00000000000E+00  0.99999998245E-14  0.12500000000E+03  0.12500000000E+03 0.  0.
        -13    1    3    3    0    0  0.54501151707E+02  0.27003667658E+02 -0.14782178065E+01  0.60842172021E+02  0.10566000000E+00 0.  1.
         23    2    1    0    0    0  0.30093133350E+02  0.37855573603E+01 -0.26839720309E+01  0.94551176949E+02  0.89514212487E+02 0.  0.
         13    1    3    3    0    0 -0.24408018357E+02 -0.23218110298E+02 -0.12057542244E+01  0.33709004927E+02  0.10566000000E+00 0. -1.
         22    1    1    0    0    0 -0.30093133350E+02 -0.37855573603E+01  0.26839720309E+01  0.30448823051E+02  0.00000000000E+00 0.  1.
</event>
<event>
 5    1  0.1764311E-003  0.9118800E+02  0.7818608E-02  0.1130116E+00
         25   -1    0    0    0    0  0.00000000000E+00  0.00000000000E+00  0.99999998245E-14  0.12500000000E+03  0.12500000000E+03 0.  0.
        -13    1    3    3    0    0  0.10142976831E+02  0.27655508644E+02  0.31247589312E+02  0.42943336377E+02  0.10566000000E+00 0.  1.
         23    2    1    0    0    0 -0.21874156042E+01 -0.22964296070E+02  0.45427759427E+01  0.10148871560E+03  0.98727802058E+02 0.  0.
         13    1    3    3    0    0 -0.12330392435E+02 -0.50619804714E+02 -0.26704813369E+02  0.58545379220E+02  0.10566000000E+00 0. -1.
         22    1    1    0    0    0  0.21874156042E+01  0.22964296070E+02 -0.45427759427E+01  0.23511284403E+02  0.00000000000E+00 0. -1.
</event>
<event>
 5    1  0.1764311E-003  0.9118800E+02  0.7818608E-02  0.1130116E+00
         25   -1    0    0    0    0  0.00000000000E+00  0.00000000000E+00  0.99999998245E-14  0.12500000000E+03  0.12500000000E+03 0.  0.
        -13    1    3    3    0    0  0.26792193193E+02  0.34198320717E+01 -0.30122411785E+02  0.40458469117E+02  0.10566000000E+00 0.  1.
         23    2    1    0    0    0 -0.12959097003E+02  0.24913525905E+02  0.33827384680E+01  0.96714581713E+02  0.92485920162E+02 0.  0.
         13    1    3    3    0    0 -0.39751290196E+02  0.21493693834E+02  0.33505150253E+02  0.56256112596E+02  0.10566000000E+00 0. -1.
         22    1    1    0    0    0  0.12959097003E+02 -0.24913525905E+02 -0.33827384680E+01  0.28285418287E+02  0.00000000000E+00 0. -1.
</event>
<event>
 5    1  0.1764311E-003  0.9118800E+02  0.7818608E-02  0.1130116E+00
         25   -1    0    0    0    0  0.00000000000E+00  0.00000000000E+00  0.99999998245E-14  0.12500000000E+03  0.12500000000E+03 0.  0.
        -13    1    3    3    0    0  0.41861043974E+02  0.35131748372E+02  0.54508225638E+00  0.54652493309E+02  0.10566000000E+00 0.  1.
         23    2    1    0    0    0  0.48466575961E+01 -0.92664999216E+01  0.63799106973E+01  0.11275004608E+03  0.11208261024E+03 0.  0.
         13    1    3    3    0    0 -0.37014386377E+02 -0.44398248293E+02  0.58348284409E+01  0.58097552766E+02  0.10566000000E+00 0. -1.
         22    1    1    0    0    0 -0.48466575961E+01  0.92664999216E+01 -0.63799106973E+01  0.12249953925E+02  0.00000000000E+00 0. -1.
</event>
<event>
 5    1  0.1764311E-003  0.9118800E+02  0.7818608E-02  0.1130116E+00
         25   -1    0    0    0    0  0.00000000000E+00  0.00000000000E+00  0.99999998245E-14  0.12500000000E+03  0.12500000000E+03 0.  0.
        -13    1    3    3    0    0  0.23131541865E+02  0.12153740723E+02 -0.49601505919E+02  0.56063376602E+02  0.10566000000E+00 0. -1.
         23    2    1    0    0    0  0.27445175967E+02  0.12694713227E+00 -0.13391332867E+02  0.94461801045E+02  0.89389318497E+02 0.  0.
         13    1    3    3    0    0  0.43136341017E+01 -0.12026793591E+02  0.36210173051E+02  0.38398424443E+02  0.10566000000E+00 0.  1.
         22    1    1    0    0    0 -0.27445175967E+02 -0.12694713227E+00  0.13391332867E+02  0.30538198955E+02  0.00000000000E+00 0. -1.
</event>
<event>
 5    1  0.1764311E-003  0.9118800E+02  0.7818608E-02  0.1130116E+00
         25   -1    0    0    0    0  0.00000000000E+00  0.00000000000E+00  0.99999998245E-14  0.12500000000E+03  0.12500000000E+03 0.  0.
        -13    1    3    3    0    0  0.62157697060E+01  0.50546622401E+01 -0.59570910315E+02  0.60107320046E+02  0.10566000000E+00 0. -1.
         23    2    1    0    0    0 -0.43628729668E+01 -0.75298807787E+01 -0.27643827278E+02  0.96018713769E+02  0.91540583580E+02 0.  0.
         13    1    3    3    0    0 -0.10578642673E+02 -0.12584543019E+02  0.31927083037E+02  0.35911393722E+02  0.10566000000E+00 0.  1.
         22    1    1    0    0    0  0.43628729668E+01  0.75298807787E+01  0.27643827278E+02  0.28981286231E+02  0.00000000000E+00 0. -1.
</event>
<event>
 5    1  0.1764311E-003  0.9118800E+02  0.7818608E-02  0.1130116E+00
         25   -1    0    0    0    0  0.00000000000E+00  0.00000000000E+00  0.99999998245E-14  0.12500000000E+03  0.12500000000E+03 0.  0.
        -13    1    3    3    0    0 -0.34972917986E+02  0.20173113356E+02 -0.43211438668E+02  0.59137966576E+02  0.10566000000E+00 0.  1.
         23    2    1    0    0    0 -0.22878258093E+02  0.18315978086E+02 -0.10827066305E+02  0.93757159038E+02  0.88398471477E+02 0.  0.
         13    1    3    3    0    0  0.12094659893E+02 -0.18571352703E+01  0.32384372363E+02  0.34619192462E+02  0.10566000000E+00 0. -1.
         22    1    1    0    0    0  0.22878258093E+02 -0.18315978086E+02  0.10827066305E+02  0.31242840962E+02  0.00000000000E+00 0.  1.
</event>
<event>
 5    1  0.1764311E-003  0.9118800E+02  0.7818608E-02  0.1130116E+00
         25   -1    0    0    0    0  0.00000000000E+00  0.00000000000E+00  0.99999998245E-14  0.12500000000E+03  0.12500000000E+03 0.  0.
        -13    1    3    3    0    0 -0.27626078907E+02  0.47131400924E+01  0.33656227146E+02  0.43796880197E+02  0.10566000000E+00 0.  1.
         23    2    1    0    0    0  0.10289780771E+01  0.30596417519E+02  0.99775257562E+00  0.94370029855E+02  0.89260895491E+02 0.  0.
         13    1    3    3    0    0  0.28655056984E+02  0.25883277426E+02 -0.32658474570E+02  0.50573149658E+02  0.10566000000E+00 0. -1.
         22    1    1    0    0    0 -0.10289780771E+01 -0.30596417519E+02 -0.99775257562E+00  0.30629970145E+02  0.00000000000E+00 0. -1.
</event>
<event>
 5    1  0.1764311E-003  0.9118800E+02  0.7818608E-02  0.1130116E+00
         25   -1    0    0    0    0  0.00000000000E+00  0.00000000000E+00  0.99999998245E-14  0.12500000000E+03  0.12500000000E+03 0.  0.
        -13    1    3    3    0    0 -0.19073766394E+02  0.22425489950E+02 -0.50738199000E+02  0.58660780473E+02  0.10566000000E+00 0. -1.
         23    2    1    0    0    0  0.42382510912E+01  0.50493041095E+01 -0.29770872465E+02  0.94507983149E+02  0.89453875194E+02 0.  0.
         13    1    3    3    0    0  0.23312017485E+02 -0.17376185841E+02  0.20967326535E+02  0.35847202675E+02  0.10566000000E+00 0.  1.
         22    1    1    0    0    0 -0.42382510912E+01 -0.50493041095E+01  0.29770872465E+02  0.30492016851E+02  0.00000000000E+00 0. -1.
</event>
<event>
 5    1  0.1764311E-003  0.9118800E+02  0.7818608E-02  0.1130116E+00
         25   -1    0    0    0    0  0.00000000000E+00  0.00000000000E+00  0.99999998245E-14  0.12500000000E+03  0.12500000000E+03 0.  0.
        -13    1    3    3    0    0 -0.11262705042E+02 -0.66533850198E+01  0.40696441853E+02  0.42747252551E+02  0.10566000000E+00 0.  1.
         23    2    1    0    0    0  0.28641329537E+02  0.56545861538E+01  0.11894610463E+02  0.93475694135E+02  0.87999565531E+02 0.  0.
         13    1    3    3    0    0  0.39904034579E+02  0.12307971174E+02 -0.28801831391E+02  0.50728441584E+02  0.10566000000E+00 0. -1.
         22    1    1    0    0    0 -0.28641329537E+02 -0.56545861538E+01 -0.11894610463E+02  0.31524305865E+02  0.00000000000E+00 0.  1.
</event>
<event>
 5    1  0.1764311E-003  0.9118800E+02  0.7818608E-02  0.1130116E+00
         25   -1    0    0    0    0  0.00000000000E+00  0.00000000000E+00  0.99999998245E-14  0.12500000000E+03  0.12500000000E+03 0.  0.
        -13    1    3    3    0    0  0.17551167971E+02  0.37352180343E+02  0.24630350496E+02  0.48061358731E+02  0.10566000000E+00 0.  1.
         23    2    1    0    0    0 -0.19873270031E+02  0.22993325350E+02  0.10013404017E+01  0.94592064277E+02  0.89571290429E+02 0.  0.
         13    1    3    3    0    0 -0.37424438002E+02 -0.14358854993E+02 -0.23629010094E+02  0.46530705545E+02  0.10566000000E+00 0. -1.
         22    1    1    0    0    0  0.19873270031E+02 -0.22993325350E+02 -0.10013404017E+01  0.30407935723E+02  0.00000000000E+00 0.  1.
</event>
<event>
 5    1  0.1764311E-003  0.9118800E+02  0.7818608E-02  0.1130116E+00
         25   -1    0    0    0    0  0.00000000000E+00  0.00000000000E+00  0.99999998245E-14  0.12500000000E+03  0.12500000000E+03 0.  0.
        -13    1    3    3    0    0  0.27712282017E+02 -0.18313326819E+02 -0.19384667280E+02  0.38459394215E+02  0.10566000000E+00 0.  1.
         23    2    1    0    0    0 -0.19956138357E+02  0.14362519108E+01  0.14589492484E+02  0.10023786018E+03  0.97131174420E+02 0.  0.
         13    1    3    3    0    0 -0.47668420374E+02  0.19749578730E+02  0.33974159764E+02  0.61778465962E+02  0.10566000000E+00 0. -1.
         22    1    1    0    0    0  0.19956138357E+02 -0.14362519108E+01 -0.14589492484E+02  0.24762139823E+02  0.00000000000E+00 0. -1.
</event>
<event>
 5    1  0.1764311E-003  0.9118800E+02  0.7818608E-02  0.1130116E+00
         25   -1    0    0    0    0  0.00000000000E+00  0.00000000000E+00  0.99999998245E-14  0.12500000000E+03  0.12500000000E+03 0.  0.
        -13    1    3    3    0    0 -0.40027594128E+01  0.79277549939E+01 -0.39929838907E+02  0.40905679084E+02  0.10566000000E+00 0.  1.
         23    2    1    0    0    0 -0.12574727744E+02 -0.45716460517E+01  0.19004559242E+02  0.10175786160E+03  0.99067983727E+02 0.  0.
         13    1    3    3    0    0 -0.85719683309E+01 -0.12499401046E+02  0.58934398149E+02  0.60852182515E+02  0.10566000000E+00 0. -1.
         22    1    1    0    0    0  0.12574727744E+02  0.45716460517E+01 -0.19004559242E+02  0.23242138401E+02  0.00000000000E+00 0. -1.
</event>
<event>
 5    1  0.1764311E-003  0.9118800E+02  0.7818608E-02  0.1130116E+00
         25   -1    0    0    0    0  0.00000000000E+00  0.00000000000E+00  0.99999998245E-14  0.12500000000E+03  0.12500000000E+03 0.  0.
        -13    1    3    3    0    0 -0.16082085536E+02 -0.19820377181E+02  0.53471576771E+02  0.59251173096E+02  0.10566000000E+00 0. -1.
         23    2    1    0    0    0  0.33951582790E+01 -0.18418541421E+02  0.26473779933E+02  0.92571142608E+02  0.86705165082E+02 0.  0.
         13    1    3    3    0    0  0.19477243815E+02  0.14018357599E+01 -0.26997796838E+02  0.33319969512E+02  0.10566000000E+00 0.  1.
         22    1    1    0    0    0 -0.33951582790E+01  0.18418541421E+02 -0.26473779933E+02  0.32428857392E+02  0.00000000000E+00 0. -1.
</event>
<event>
 5    1  0.1764311E-003  0.9118800E+02  0.7818608E-02  0.1130116E+00
         25   -1    0    0    0    0  0.00000000000E+00  0.00000000000E+00  0.99999998245E-14  0.12500000000E+03  0.12500000000E+03 0.  0.
        -13    1    3    3    0    0 -0.28740372091E+02  0.27971280234E+01  0.36167319856E+02  0.46280871888E+02  0.10566000000E+00 0.  1.
         23    2    1    0    0    0 -0.16789529492E+02 -0.19073095605E+02 -0.91445417592E+01  0.97994557576E+02  0.94199996784E+02 0.  0.
         13    1    3    3    0    0  0.11950842599E+02 -0.21870223628E+02 -0.45311861615E+02  0.51713685688E+02  0.10566000000E+00 0. -1.
         22    1    1    0    0    0  0.16789529492E+02  0.19073095605E+02  0.91445417592E+01  0.27005442424E+02  0.00000000000E+00 0.  1.
</event>
<event>
 5    1  0.1764311E-003  0.9118800E+02  0.7818608E-02  0.1130116E+00
         25   -1    0    0    0    0  0.00000000000E+00  0.00000000000E+00  0.99999998245E-14  0.12500000000E+03  0.12500000000E+03 0.  0.
        -13    1    3    3    0    0 -0.14323281532E+02  0.58720743446E+02 -0.73080613169E+01  0.60882682505E+02  0.10566000000E+00 0.  1.
         23    2    1    0    0    0 -0.99587682166E+01  0.27095246343E+02  0.60759179589E+01  0.95500064105E+02  0.90829598844E+02 0.  0.
         13    1    3    3    0    0  0.43645133159E+01 -0.31625497103E+02  0.13383979276E+02  0.34617381600E+02  0.10566000000E+00 0. -1.
         22    1    1    0    0    0  0.99587682166E+01 -0.27095246343E+02 -0.60759179589E+01  0.29499935895E+02  0.00000000000E+00 0.  1.
</event>
<event>
 5    1  0.1764311E-003  0.9118800E+02  0.7818608E-02  0.1130116E+00
         25   -1    0    0    0    0  0.00000000000E+00  0.00000000000E+00  0.99999998245E-14  0.12500000000E+03  0.12500000000E+03 0.  0.
        -13    1    3    3    0    0 -0.27206081052E+02 -0.13757294591E+02  0.43766068616E+02  0.53337734549E+02  0.10566000000E+00 0. -1.
         23    2    1    0    0    0  0.45823929073E+01 -0.23094276232E+02  0.16447873258E+02  0.96279337505E+02  0.91895779970E+02 0.  0.
         13    1    3    3    0    0  0.31788473959E+02 -0.93369816412E+01 -0.27318195358E+02  0.42941602957E+02  0.10566000000E+00 0.  1.
         22    1    1    0    0    0 -0.45823929073E+01  0.23094276232E+02 -0.16447873258E+02  0.28720662495E+02  0.00000000000E+00 0. -1.
</event>
<event>
 5    1  0.1764311E-003  0.9118800E+02  0.7818608E-02  0.1130116E+00
         25   -1    0    0    0    0  0.00000000000E+00  0.00000000000E+00  0.99999998245E-14  0.12500000000E+03  0.12500000000E+03 0.  0.
        -13    1    3    3    0    0 -0.15956701905E+02 -0.31398472784E+02 -0.29191140548E+02  0.45745101152E+02  0.10566000000E+00 0. -1.
         23    2    1    0    0    0 -0.23490646590E+02 -0.67427678023E+01  0.14578191601E+02  0.96543031341E+02  0.92253768678E+02 0.  0.
         13    1    3    3    0    0 -0.75339446858E+01  0.24655704982E+02  0.43769332150E+02  0.50797930190E+02  0.10566000000E+00 0.  1.
         22    1    1    0    0    0  0.23490646590E+02  0.67427678023E+01 -0.14578191601E+02  0.28456968659E+02  0.00000000000E+00 0. -1.
</event>
<event>
 5    1  0.1764311E-003  0.9118800E+02  0.7818608E-02  0.1130116E+00
         25   -1    0    0    0    0  0.00000000000E+00  0.00000000000E+00  0.99999998245E-14  0.12500000000E+03  0.12500000000E+03 0.  0.
        -13    1    3    3    0    0  0.41041467564E+01  0.50602058988E+02 -0.12419034977E+02  0.52265246466E+02  0.10566000000E+00 0. -1.
         23    2    1    0    0    0  0.26381796616E+01  0.12249517763E+02 -0.28491090220E+02  0.93875204430E+02  0.88565236450E+02 0.  0.
         13    1    3    3    0    0 -0.14659670947E+01 -0.38352541225E+02 -0.16072055244E+02  0.41609957963E+02  0.10566000000E+00 0.  1.
         22    1    1    0    0    0 -0.26381796616E+01 -0.12249517763E+02  0.28491090220E+02  0.31124795570E+02  0.00000000000E+00 0.  1.
</event>
<event>
 5    1  0.1764311E-003  0.9118800E+02  0.7818608E-02  0.1130116E+00
         25   -1    0    0    0    0  0.00000000000E+00  0.00000000000E+00  0.99999998245E-14  0.12500000000E+03  0.12500000000E+03 0.  0.
        -13    1    3    3    0    0  0.18442767488E+02  0.66646086552E+01 -0.45874312131E+02  0.49890042681E+02  0.10566000000E+00 0.  1.
         23    2    1    0    0    0  0.26529381775E+02 -0.12129629230E+02 -0.52714769343E+01  0.95356712873E+02  0.90632103685E+02 0.  0.
         13    1    3    3    0    0  0.80866142867E+01 -0.18794237885E+02  0.40602835197E+02  0.45466670192E+02  0.10566000000E+00 0. -1.
         22    1    1    0    0    0 -0.26529381775E+02  0.12129629230E+02  0.52714769343E+01  0.29643287127E+02  0.00000000000E+00 0. -1.
</event>
<event>
 5    1  0.1764311E-003  0.9118800E+02  0.7818608E-02  0.1130116E+00
         25   -1    0    0    0    0  0.00000000000E+00  0.00000000000E+00  0.99999998245E-14  0.12500000000E+03  0.12500000000E+03 0.  0.
        -13    1    3    3    0    0 -0.41640770146E+02 -0.16759214306E+01  0.18682651609E+02  0.45670724607E+02  0.10566000000E+00 0. -1.
         23    2    1    0    0    0 -0.44358165149E+01  0.28667729482E+02  0.53006855194E+01  0.95510807932E+02  0.90844383333E+02 0.  0.
         13    1    3    3    0    0  0.37204953631E+02  0.30343650913E+02 -0.13381966089E+02  0.49840083325E+02  0.10566000000E+00 0.  1.
         22    1    1    0    0    0  0.44358165149E+01 -0.28667729482E+02 -0.53006855194E+01  0.29489192068E+02  0.00000000000E+00 0.  1.
</event>
<event>
 5    1  0.1764311E-003  0.9118800E+02  0.7818608E-02  0.1130116E+00
         25   -1    0    0    0    0  0.00000000000E+00  0.00000000000E+00  0.99999998245E-14  0.12500000000E+03  0.12500000000E+03 0.  0.
        -13    1    3    3    0    0  0.22364851243E+01  0.37123838809E+02  0.21091948911E+02  0.42755850436E+02  0.10566000000E+00 0. -1.
         23    2    1    0    0    0  0.27481640190E+02 -0.67396063450E+01  0.28159549764E+01  0.96564240055E+02  0.92282501125E+02 0.  0.
         13    1    3    3    0    0  0.25245155066E+02 -0.43863445154E+02 -0.18275993935E+02  0.53808389619E+02  0.10566000000E+00 0.  1.
         22    1    1    0    0    0 -0.27481640190E+02  0.67396063450E+01 -0.28159549764E+01  0.28435759945E+02  0.00000000000E+00 0.  1.
</event>
<event>
 5    1  0.1764311E-003  0.9118800E+02  0.7818608E-02  0.1130116E+00
         25   -1    0    0    0    0  0.00000000000E+00  0.00000000000E+00  0.99999998245E-14  0.12500000000E+03  0.12500000000E+03 0.  0.
        -13    1    3    3    0    0  0.39141375380E+02  0.23376947644E+02  0.19816018057E+02  0.49711313436E+02  0.10566000000E+00 0.  1.
         23    2    1    0    0    0  0.67968979602E+01  0.26034069290E+02 -0.12340750728E+02  0.95398231232E+02  0.90689347820E+02 0.  0.
         13    1    3    3    0    0 -0.32344477420E+02  0.26571216459E+01 -0.32156768784E+02  0.45686917796E+02  0.10566000000E+00 0. -1.
         22    1    1    0    0    0 -0.67968979602E+01 -0.26034069290E+02  0.12340750728E+02  0.29601768768E+02  0.00000000000E+00 0.  1.
</event>
<event>
 5    1  0.1764311E-003  0.9118800E+02  0.7818608E-02  0.1130116E+00
         25   -1    0    0    0    0  0.00000000000E+00  0.00000000000E+00  0.99999998245E-14  0.12500000000E+03  0.12500000000E+03 0.  0.
        -13    1    3    3    0    0 -0.69682359299E+01 -0.48037303181E+01  0.26404966451E+02  0.27728425023E+02  0.10566000000E+00 0. -1.
         23    2    1    0    0    0  0.29124191546E+01 -0.31204319988E+02 -0.24030832010E+02  0.85507308798E+02  0.75840801681E+02 0.  0.
         13    1    3    3    0    0  0.98806550845E+01 -0.26400589670E+02 -0.50435798461E+02  0.57778883775E+02  0.10566000000E+00 0.  1.
         22    1    1    0    0    0 -0.29124191546E+01  0.31204319988E+02  0.24030832010E+02  0.39492691202E+02  0.00000000000E+00 0.  1.
</event>
<event>
 5    1  0.1764311E-003  0.9118800E+02  0.7818608E-02  0.1130116E+00
         25   -1    0    0    0    0  0.00000000000E+00  0.00000000000E+00  0.99999998245E-14  0.12500000000E+03  0.12500000000E+03 0.  0.
        -13    1    3    3    0    0  0.12481278441E+02 -0.31731338839E+02  0.83920409139E+01  0.35115490752E+02  0.10566000000E+00 0. -1.
         23    2    1    0    0    0 -0.27325776005E+00  0.17758898133E+02 -0.23639894533E+02  0.95431473723E+02  0.90735155429E+02 0.  0.
         13    1    3    3    0    0 -0.12754536202E+02  0.49490236972E+02 -0.32031935446E+02  0.60315982971E+02  0.10566000000E+00 0.  1.
         22    1    1    0    0    0  0.27325776005E+00 -0.17758898133E+02  0.23639894533E+02  0.29568526277E+02  0.00000000000E+00 0.  1.
</event>
<event>
 5    1  0.1764311E-003  0.9118800E+02  0.7818608E-02  0.1130116E+00
         25   -1    0    0    0    0  0.00000000000E+00  0.00000000000E+00  0.99999998245E-14  0.12500000000E+03  0.12500000000E+03 0.  0.
        -13    1    3    3    0    0 -0.31202206457E+02  0.23558858346E+02 -0.42344418446E+02  0.57633830620E+02  0.10566000000E+00 0.  1.
         23    2    1    0    0    0  0.14281734768E+01  0.17810844529E+02 -0.22548965334E+02  0.96229847065E+02  0.91828436588E+02 0.  0.
         13    1    3    3    0    0  0.32630379933E+02 -0.57480138173E+01  0.19795453113E+02  0.38596016445E+02  0.10566000000E+00 0. -1.
         22    1    1    0    0    0 -0.14281734768E+01 -0.17810844529E+02  0.22548965334E+02  0.28770152935E+02  0.00000000000E+00 0.  1.
</event>
<event>
 5    1  0.1764311E-003  0.9118800E+02  0.7818608E-02  0.1130116E+00
         25   -1    0    0    0    0  0.00000000000E+00  0.00000000000E+00  0.99999998245E-14  0.12500000000E+03  0.12500000000E+03 0.  0.
        -13    1    3    3    0    0 -0.25840325850E+01 -0.55051624421E+01  0.32820612174E+02  0.33379451545E+02  0.10566000000E+00 0. -1.
         23    2    1    0    0    0 -0.37946205064E+01  0.19333592915E+02 -0.23134926644E+02  0.94612308568E+02  0.89599537621E+02 0.  0.
         13    1    3    3    0    0 -0.12105879214E+01  0.24838755357E+02 -0.55955538818E+02  0.61232857023E+02  0.10566000000E+00 0.  1.
         22    1    1    0    0    0  0.37946205064E+01 -0.19333592915E+02  0.23134926644E+02  0.30387691432E+02  0.00000000000E+00 0.  1.
</event>
<event>
 5    1  0.1764311E-003  0.9118800E+02  0.7818608E-02  0.1130116E+00
         25   -1    0    0    0    0  0.00000000000E+00  0.00000000000E+00  0.99999998245E-14  0.12500000000E+03  0.12500000000E+03 0.  0.
        -13    1    3    3    0    0  0.13195753847E+02 -0.28017385642E+02 -0.13768910562E+02  0.33892416260E+02  0.10566000000E+00 0.  1.
         23    2    1    0    0    0 -0.30537575373E+02  0.84498722291E+01  0.27855400696E+01  0.93192719641E+02  0.87596688922E+02 0.  0.
         13    1    3    3    0    0 -0.43733329220E+02  0.36467257871E+02  0.16554450632E+02  0.59300303381E+02  0.10566000000E+00 0. -1.
         22    1    1    0    0    0  0.30537575373E+02 -0.84498722291E+01 -0.27855400696E+01  0.31807280359E+02  0.00000000000E+00 0. -1.
</event>
<event>
 5    1  0.1764311E-003  0.9118800E+02  0.7818608E-02  0.1130116E+00
         25   -1    0    0    0    0  0.00000000000E+00  0.00000000000E+00  0.99999998245E-14  0.12500000000E+03  0.12500000000E+03 0.  0.
        -13    1    3    3    0    0 -0.13602876945E+02  0.44372825705E+02 -0.28851894803E+02  0.54648228883E+02  0.10566000000E+00 0. -1.
         23    2    1    0    0    0 -0.24618346396E+02  0.77258708412E+01 -0.13498415354E+02  0.95880259675E+02  0.91351326859E+02 0.  0.
         13    1    3    3    0    0 -0.11015469450E+02 -0.36646954864E+02  0.15353479450E+02  0.41232030792E+02  0.10566000000E+00 0.  1.
         22    1    1    0    0    0  0.24618346396E+02 -0.77258708412E+01  0.13498415354E+02  0.29119740325E+02  0.00000000000E+00 0. -1.
</event>
<event>
 5    1  0.1764311E-003  0.9118800E+02  0.7818608E-02  0.1130116E+00
         25   -1    0    0    0    0  0.00000000000E+00  0.00000000000E+00  0.99999998245E-14  0.12500000000E+03  0.12500000000E+03 0.  0.
        -13    1    3    3    0    0 -0.18753285549E+02  0.26174537362E+02  0.26002877922E+02  0.41387835764E+02  0.10566000000E+00 0. -1.
         23    2    1    0    0    0 -0.21321190913E+02 -0.20278866048E+02 -0.16832702310E+01  0.95526978627E+02  0.90866631152E+02 0.  0.
         13    1    3    3    0    0 -0.25679053646E+01 -0.46453403410E+02 -0.27686148153E+02  0.54139142863E+02  0.10566000000E+00 0.  1.
         22    1    1    0    0    0  0.21321190913E+02  0.20278866048E+02  0.16832702310E+01  0.29473021373E+02  0.00000000000E+00 0.  1.
</event>
<event>
 5    1  0.1764311E-003  0.9118800E+02  0.7818608E-02  0.1130116E+00
         25   -1    0    0    0    0  0.00000000000E+00  0.00000000000E+00  0.99999998245E-14  0.12500000000E+03  0.12500000000E+03 0.  0.
        -13    1    3    3    0    0  0.16323251111E+02 -0.30346280298E+02  0.16576740000E+02  0.38238001096E+02  0.10566000000E+00 0.  1.
         23    2    1    0    0    0  0.65963632112E+01  0.26221858006E+02  0.10641573360E+02  0.95942454879E+02  0.91436391660E+02 0.  0.
         13    1    3    3    0    0 -0.97268879001E+01  0.56568138303E+02 -0.59351666400E+01  0.57704453783E+02  0.10566000000E+00 0. -1.
         22    1    1    0    0    0 -0.65963632112E+01 -0.26221858006E+02 -0.10641573360E+02  0.29057545121E+02  0.00000000000E+00 0. -1.
</event>
<event>
 5    1  0.1764311E-003  0.9118800E+02  0.7818608E-02  0.1130116E+00
         25   -1    0    0    0    0  0.00000000000E+00  0.00000000000E+00  0.99999998245E-14  0.12500000000E+03  0.12500000000E+03 0.  0.
        -13    1    3    3    0    0  0.19412352488E+02  0.45345710174E+02  0.15855220341E+02  0.51811890878E+02  0.10566000000E+00 0. -1.
         23    2    1    0    0    0  0.13922201837E+02  0.16737543335E+02 -0.18198106493E+02  0.96624938047E+02  0.92364682167E+02 0.  0.
         13    1    3    3    0    0 -0.54901506511E+01 -0.28608166839E+02 -0.34053326834E+02  0.44813047169E+02  0.10566000000E+00 0.  1.
         22    1    1    0    0    0 -0.13922201837E+02 -0.16737543335E+02  0.18198106493E+02  0.28375061953E+02  0.00000000000E+00 0. -1.
</event>
<event>
 5    1  0.1764311E-003  0.9118800E+02  0.7818608E-02  0.1130116E+00
         25   -1    0    0    0    0  0.00000000000E+00  0.00000000000E+00  0.99999998245E-14  0.12500000000E+03  0.12500000000E+03 0.  0.
        -13    1    3    3    0    0  0.81366264201E+01  0.11582230245E+02  0.33669263492E+02  0.36523734955E+02  0.10566000000E+00 0. -1.
         23    2    1    0    0    0  0.10850311400E+02 -0.73873247506E+01 -0.24192308329E+02  0.97476017607E+02  0.93509381357E+02 0.  0.
         13    1    3    3    0    0  0.27136849804E+01 -0.18969554996E+02 -0.57861571821E+02  0.60952282652E+02  0.10566000000E+00 0.  1.
         22    1    1    0    0    0 -0.10850311400E+02  0.73873247506E+01  0.24192308329E+02  0.27523982393E+02  0.00000000000E+00 0.  1.
</event>
<event>
 5    1  0.1764311E-003  0.9118800E+02  0.7818608E-02  0.1130116E+00
         25   -1    0    0    0    0  0.00000000000E+00  0.00000000000E+00  0.99999998245E-14  0.12500000000E+03  0.12500000000E+03 0.  0.
        -13    1    3    3    0    0 -0.46878996554E+02  0.67402862804E+01 -0.39520289473E+02  0.61684165075E+02  0.10566000000E+00 0.  1.
         23    2    1    0    0    0 -0.18646663603E+02  0.97145174285E+01 -0.15368328665E+02  0.98956662304E+02  0.95468139063E+02 0.  0.
         13    1    3    3    0    0  0.28232332951E+02  0.29742311481E+01  0.24151960808E+02  0.37272497229E+02  0.10566000000E+00 0. -1.
         22    1    1    0    0    0  0.18646663603E+02 -0.97145174285E+01  0.15368328665E+02  0.26043337696E+02  0.00000000000E+00 0.  1.
</event>
<event>
 5    1  0.1764311E-003  0.9118800E+02  0.7818608E-02  0.1130116E+00
         25   -1    0    0    0    0  0.00000000000E+00  0.00000000000E+00  0.99999998245E-14  0.12500000000E+03  0.12500000000E+03 0.  0.
        -13    1    3    3    0    0  0.33261187070E+02 -0.24561263178E+02  0.28130742077E+02  0.50009119449E+02  0.10566000000E+00 0. -1.
         23    2    1    0    0    0  0.13032137545E+02 -0.24740534407E+02 -0.11703956976E+02  0.94686417885E+02  0.89702867687E+02 0.  0.
         13    1    3    3    0    0 -0.20229049525E+02 -0.17927122862E+00 -0.39834699053E+02  0.44677298436E+02  0.10566000000E+00 0.  1.
         22    1    1    0    0    0 -0.13032137545E+02  0.24740534407E+02  0.11703956976E+02  0.30313582115E+02  0.00000000000E+00 0. -1.
</event>
<event>
 5    1  0.1764311E-003  0.9118800E+02  0.7818608E-02  0.1130116E+00
         25   -1    0    0    0    0  0.00000000000E+00  0.00000000000E+00  0.99999998245E-14  0.12500000000E+03  0.12500000000E+03 0.  0.
        -13    1    3    3    0    0  0.32924785074E+01  0.69848327722E+01 -0.42315862556E+02  0.43014784568E+02  0.10566000000E+00 0.  1.
         23    2    1    0    0    0  0.57256947623E+01  0.28190779629E+02  0.58017596094E+01  0.95654403206E+02  0.91041753067E+02 0.  0.
         13    1    3    3    0    0  0.24332162549E+01  0.21205946857E+02  0.48117622165E+02  0.52639618638E+02  0.10566000000E+00 0. -1.
         22    1    1    0    0    0 -0.57256947623E+01 -0.28190779629E+02 -0.58017596094E+01  0.29345596794E+02  0.00000000000E+00 0. -1.
</event>
<event>
 5    1  0.1764311E-003  0.9118800E+02  0.7818608E-02  0.1130116E+00
         25   -1    0    0    0    0  0.00000000000E+00  0.00000000000E+00  0.99999998245E-14  0.12500000000E+03  0.12500000000E+03 0.  0.
        -13    1    3    3    0    0  0.17081144198E+02 -0.46314997699E+02  0.77443440707E+01  0.49968295229E+02  0.10566000000E+00 0.  1.
         23    2    1    0    0    0 -0.19383192545E+02 -0.27288676122E+02  0.24329998271E+01  0.91439614337E+02  0.85058236428E+02 0.  0.
         13    1    3    3    0    0 -0.36464336743E+02  0.19026321577E+02 -0.53113442437E+01  0.41471319108E+02  0.10566000000E+00 0. -1.
         22    1    1    0    0    0  0.19383192545E+02  0.27288676122E+02 -0.24329998271E+01  0.33560385663E+02  0.00000000000E+00 0. -1.
</event>
<event>
 5    1  0.1764311E-003  0.9118800E+02  0.7818608E-02  0.1130116E+00
         25   -1    0    0    0    0  0.00000000000E+00  0.00000000000E+00  0.99999998245E-14  0.12500000000E+03  0.12500000000E+03 0.  0.
        -13    1    3    3    0    0 -0.29972222229E+02  0.15429117944E+02  0.14353302040E+02  0.36639053336E+02  0.10566000000E+00 0.  1.
         23    2    1    0    0    0  0.20563356326E+02  0.13496061947E+02 -0.16033844792E+02  0.95638809794E+02  0.91020340850E+02 0.  0.
         13    1    3    3    0    0  0.50535578556E+02 -0.19330559966E+01 -0.30387146832E+02  0.58999756458E+02  0.10566000000E+00 0. -1.
         22    1    1    0    0    0 -0.20563356326E+02 -0.13496061947E+02  0.16033844792E+02  0.29361190206E+02  0.00000000000E+00 0. -1.
</event>
<event>
 5    1  0.1764311E-003  0.9118800E+02  0.7818608E-02  0.1130116E+00
         25   -1    0    0    0    0  0.00000000000E+00  0.00000000000E+00  0.99999998245E-14  0.12500000000E+03  0.12500000000E+03 0.  0.
        -13    1    3    3    0    0 -0.14943684572E+02 -0.13070180948E+02 -0.47408023112E+02  0.51397229089E+02  0.10566000000E+00 0.  1.
         23    2    1    0    0    0 -0.15412192995E+02  0.18596442394E+02 -0.15822418995E+02  0.96125923296E+02  0.91686862876E+02 0.  0.
         13    1    3    3    0    0 -0.46850842377E+00  0.31666623342E+02  0.31585604117E+02  0.44728694208E+02  0.10566000000E+00 0. -1.
         22    1    1    0    0    0  0.15412192995E+02 -0.18596442394E+02  0.15822418995E+02  0.28874076704E+02  0.00000000000E+00 0.  1.
</event>
<event>
 5    1  0.1764311E-003  0.9118800E+02  0.7818608E-02  0.1130116E+00
         25   -1    0    0    0    0  0.00000000000E+00  0.00000000000E+00  0.99999998245E-14  0.12500000000E+03  0.12500000000E+03 0.  0.
        -13    1    3    3    0    0 -0.11205967952E+02 -0.10190035244E+02 -0.44826234193E+02  0.47316096331E+02  0.10566000000E+00 0.  1.
         23    2    1    0    0    0 -0.23391007398E+01  0.25719333206E+02 -0.13123556000E+02  0.96031340816E+02  0.91557824374E+02 0.  0.
         13    1    3    3    0    0  0.88668672123E+01  0.35909368450E+02  0.31702678193E+02  0.48715244485E+02  0.10566000000E+00 0. -1.
         22    1    1    0    0    0  0.23391007398E+01 -0.25719333206E+02  0.13123556000E+02  0.28968659184E+02  0.00000000000E+00 0. -1.
</event>
<event>
 5    1  0.1764311E-003  0.9118800E+02  0.7818608E-02  0.1130116E+00
         25   -1    0    0    0    0  0.00000000000E+00  0.00000000000E+00  0.99999998245E-14  0.12500000000E+03  0.12500000000E+03 0.  0.
        -13    1    3    3    0    0  0.43523059745E+02  0.20785557818E+02  0.38623427883E+02  0.61790585762E+02  0.10566000000E+00 0.  1.
         23    2    1    0    0    0  0.16155699431E+02  0.14873571328E+02  0.18735914604E+02  0.96133683225E+02  0.91697441656E+02 0.  0.
         13    1    3    3    0    0 -0.27367360314E+02 -0.59119864908E+01 -0.19887513279E+02  0.34343097462E+02  0.10566000000E+00 0. -1.
         22    1    1    0    0    0 -0.16155699431E+02 -0.14873571328E+02 -0.18735914604E+02  0.28866316775E+02  0.00000000000E+00 0.  1.
</event>
<event>
 5    1  0.1764311E-003  0.9118800E+02  0.7818608E-02  0.1130116E+00
         25   -1    0    0    0    0  0.00000000000E+00  0.00000000000E+00  0.99999998245E-14  0.12500000000E+03  0.12500000000E+03 0.  0.
        -13    1    3    3    0    0  0.85967883244E+01 -0.23560901207E+02 -0.46018948410E+02  0.52409690058E+02  0.10566000000E+00 0. -1.
         23    2    1    0    0    0 -0.10265822092E+01  0.13342706837E+02 -0.26637892407E+02  0.95189615758E+02  0.90401349213E+02 0.  0.
         13    1    3    3    0    0 -0.96233705336E+01  0.36903608044E+02  0.19381056003E+02  0.42779925700E+02  0.10566000000E+00 0.  1.
         22    1    1    0    0    0  0.10265822092E+01 -0.13342706837E+02  0.26637892407E+02  0.29810384242E+02  0.00000000000E+00 0. -1.
</event>
<event>
 5    1  0.1764311E-003  0.9118800E+02  0.7818608E-02  0.1130116E+00
         25   -1    0    0    0    0  0.00000000000E+00  0.00000000000E+00  0.99999998245E-14  0.12500000000E+03  0.12500000000E+03 0.  0.
        -13    1    3    3    0    0  0.36763838638E+02 -0.24973602756E+02 -0.26882829876E+01  0.44525259072E+02  0.10566000000E+00 0.  1.
         23    2    1    0    0    0 -0.73327709805E+01 -0.14162048623E+02 -0.25180663645E+02  0.95193977571E+02  0.90407380189E+02 0.  0.
         13    1    3    3    0    0 -0.44096609618E+02  0.10811554133E+02 -0.22492380657E+02  0.50668718499E+02  0.10566000000E+00 0. -1.
         22    1    1    0    0    0  0.73327709805E+01  0.14162048623E+02  0.25180663645E+02  0.29806022429E+02  0.00000000000E+00 0. -1.
</event>
<event>
 5    1  0.1764311E-003  0.9118800E+02  0.7818608E-02  0.1130116E+00
         25   -1    0    0    0    0  0.00000000000E+00  0.00000000000E+00  0.99999998245E-14  0.12500000000E+03  0.12500000000E+03 0.  0.
        -13    1    3    3    0    0  0.71041989253E+00 -0.27205220096E+02  0.28867718277E+02  0.39673480053E+02  0.10566000000E+00 0.  1.
         23    2    1    0    0    0 -0.24456091976E+02  0.45990560252E+00 -0.14202531226E+02  0.96715307301E+02  0.92486900830E+02 0.  0.
         13    1    3    3    0    0 -0.25166511868E+02  0.27665125699E+02 -0.43070249503E+02  0.57041827248E+02  0.10566000000E+00 0. -1.
         22    1    1    0    0    0  0.24456091976E+02 -0.45990560252E+00  0.14202531226E+02  0.28284692699E+02  0.00000000000E+00 0. -1.
</event>
<event>
 5    1  0.1764311E-003  0.9118800E+02  0.7818608E-02  0.1130116E+00
         25   -1    0    0    0    0  0.00000000000E+00  0.00000000000E+00  0.99999998245E-14  0.12500000000E+03  0.12500000000E+03 0.  0.
        -13    1    3    3    0    0  0.22167995762E+02 -0.20842522227E+02  0.32271550019E+01  0.30598308162E+02  0.10566000000E+00 0. -1.
         23    2    1    0    0    0  0.40451747260E+01  0.23122731895E+02 -0.28735180891E+02  0.87895623039E+02  0.79680021082E+02 0.  0.
         13    1    3    3    0    0 -0.18122821036E+02  0.43965254122E+02 -0.31962335893E+02  0.57297314877E+02  0.10566000000E+00 0.  1.
         22    1    1    0    0    0 -0.40451747260E+01 -0.23122731895E+02  0.28735180891E+02  0.37104376961E+02  0.00000000000E+00 0.  1.
</event>
<event>
 5    1  0.1764311E-003  0.9118800E+02  0.7818608E-02  0.1130116E+00
         25   -1    0    0    0    0  0.00000000000E+00  0.00000000000E+00  0.99999998245E-14  0.12500000000E+03  0.12500000000E+03 0.  0.
        -13    1    3    3    0    0  0.24251649907E+02  0.30695401966E+02  0.55993082701E+01  0.39518522773E+02  0.10566000000E+00 0. -1.
         23    2    1    0    0    0 -0.23386745007E+02  0.79741978892E+01 -0.14908032961E+02  0.96142122033E+02  0.91708944538E+02 0.  0.
         13    1    3    3    0    0 -0.47638394914E+02 -0.22721204076E+02 -0.20507341231E+02  0.56623599259E+02  0.10566000000E+00 0.  1.
         22    1    1    0    0    0  0.23386745007E+02 -0.79741978892E+01  0.14908032961E+02  0.28857877967E+02  0.00000000000E+00 0.  1.
</event>
<event>
 5    1  0.1764311E-003  0.9118800E+02  0.7818608E-02  0.1130116E+00
         25   -1    0    0    0    0  0.00000000000E+00  0.00000000000E+00  0.99999998245E-14  0.12500000000E+03  0.12500000000E+03 0.  0.
        -13    1    3    3    0    0 -0.38676833965E+02  0.43152994158E+00 -0.68038599431E+01  0.39273239970E+02  0.10566000000E+00 0. -1.
         23    2    1    0    0    0  0.74730365995E+01  0.21727248847E+02  0.17984149115E+02  0.95822110462E+02  0.91271724075E+02 0.  0.
         13    1    3    3    0    0  0.46149870564E+02  0.21295718906E+02  0.24788009058E+02  0.56548870492E+02  0.10566000000E+00 0.  1.
         22    1    1    0    0    0 -0.74730365995E+01 -0.21727248847E+02 -0.17984149115E+02  0.29177889538E+02  0.00000000000E+00 0.  1.
</event>
<event>
 5    1  0.1764311E-003  0.9118800E+02  0.7818608E-02  0.1130116E+00
         25   -1    0    0    0    0  0.00000000000E+00  0.00000000000E+00  0.99999998245E-14  0.12500000000E+03  0.12500000000E+03 0.  0.
        -13    1    3    3    0    0  0.69838579042E+01 -0.23629637943E+02 -0.34524949729E+02  0.42416003800E+02  0.10566000000E+00 0.  1.
         23    2    1    0    0    0 -0.28726982077E+02 -0.92607338403E+01  0.10052128249E+01  0.94800477763E+02  0.89861668361E+02 0.  0.
         13    1    3    3    0    0 -0.35710839982E+02  0.14368904102E+02  0.35530162554E+02  0.52384473963E+02  0.10566000000E+00 0. -1.
         22    1    1    0    0    0  0.28726982077E+02  0.92607338403E+01 -0.10052128249E+01  0.30199522237E+02  0.00000000000E+00 0.  1.
</event>
<event>
 5    1  0.1764311E-003  0.9118800E+02  0.7818608E-02  0.1130116E+00
         25   -1    0    0    0    0  0.00000000000E+00  0.00000000000E+00  0.99999998245E-14  0.12500000000E+03  0.12500000000E+03 0.  0.
        -13    1    3    3    0    0 -0.41347029019E+02  0.73149656897E+01 -0.60376069551E+01  0.42421096091E+02  0.10566000000E+00 0. -1.
         23    2    1    0    0    0  0.93089693781E-01 -0.26396087190E+02 -0.11673133607E+02  0.96137842547E+02  0.91703111380E+02 0.  0.
         13    1    3    3    0    0  0.41440118713E+02 -0.33711052880E+02 -0.56355266514E+01  0.53716746457E+02  0.10566000000E+00 0.  1.
         22    1    1    0    0    0 -0.93089693781E-01  0.26396087190E+02  0.11673133607E+02  0.28862157453E+02  0.00000000000E+00 0.  1.
</event>
<event>
 5    1  0.1764311E-003  0.9118800E+02  0.7818608E-02  0.1130116E+00
         25   -1    0    0    0    0  0.00000000000E+00  0.00000000000E+00  0.99999998245E-14  0.12500000000E+03  0.12500000000E+03 0.  0.
        -13    1    3    3    0    0  0.37094709412E+02  0.15846712561E+01  0.12071356388E+02  0.39041739952E+02  0.10566000000E+00 0.  1.
         23    2    1    0    0    0 -0.18065701691E+01 -0.36811815129E+01 -0.28915406158E+02  0.95795282806E+02  0.91234975209E+02 0.  0.
         13    1    3    3    0    0 -0.38901279581E+02 -0.52658527690E+01 -0.40986762546E+02  0.56753542854E+02  0.10566000000E+00 0. -1.
         22    1    1    0    0    0  0.18065701691E+01  0.36811815129E+01  0.28915406158E+02  0.29204717194E+02  0.00000000000E+00 0. -1.
</event>
<event>
 5    1  0.1764311E-003  0.9118800E+02  0.7818608E-02  0.1130116E+00
         25   -1    0    0    0    0  0.00000000000E+00  0.00000000000E+00  0.99999998245E-14  0.12500000000E+03  0.12500000000E+03 0.  0.
        -13    1    3    3    0    0  0.23140090343E+02  0.20847441972E+02  0.10356482675E+02  0.32822972372E+02  0.10566000000E+00 0. -1.
         23    2    1    0    0    0 -0.61209981276E+01 -0.30924409166E+02 -0.14074410254E+01  0.93444230471E+02  0.87954861252E+02 0.  0.
         13    1    3    3    0    0 -0.29261088471E+02 -0.51771851137E+02 -0.11763923701E+02  0.60621258100E+02  0.10566000000E+00 0.  1.
         22    1    1    0    0    0  0.61209981276E+01  0.30924409166E+02  0.14074410254E+01  0.31555769529E+02  0.00000000000E+00 0.  1.
</event>
<event>
 5    1  0.1764311E-003  0.9118800E+02  0.7818608E-02  0.1130116E+00
         25   -1    0    0    0    0  0.00000000000E+00  0.00000000000E+00  0.99999998245E-14  0.12500000000E+03  0.12500000000E+03 0.  0.
        -13    1    3    3    0    0 -0.55432223614E+01  0.75972128847E+01  0.57549006422E+02  0.58312470895E+02  0.10566000000E+00 0. -1.
         23    2    1    0    0    0  0.59119827334E+01 -0.10109160802E+02  0.28309957798E+02  0.94363414314E+02  0.89251630677E+02 0.  0.
         13    1    3    3    0    0  0.11455205095E+02 -0.17706373687E+02 -0.29239048624E+02  0.36050943419E+02  0.10566000000E+00 0.  1.
         22    1    1    0    0    0 -0.59119827334E+01  0.10109160802E+02 -0.28309957798E+02  0.30636585686E+02  0.00000000000E+00 0. -1.
</event>
<event>
 5    1  0.1764311E-003  0.9118800E+02  0.7818608E-02  0.1130116E+00
         25   -1    0    0    0    0  0.00000000000E+00  0.00000000000E+00  0.99999998245E-14  0.12500000000E+03  0.12500000000E+03 0.  0.
        -13    1    3    3    0    0  0.36358224561E+02  0.61351799021E+01 -0.66503608401E+01  0.37467310939E+02  0.10566000000E+00 0. -1.
         23    2    1    0    0    0 -0.21629602085E+02  0.12250298935E+01  0.13986108358E+02  0.99213344312E+02  0.95803632905E+02 0.  0.
         13    1    3    3    0    0 -0.57987826646E+02 -0.49101500086E+01  0.20636469198E+02  0.61746033372E+02  0.10566000000E+00 0.  1.
         22    1    1    0    0    0  0.21629602085E+02 -0.12250298935E+01 -0.13986108358E+02  0.25786655688E+02  0.00000000000E+00 0.  1.
</event>
<event>
 5    1  0.1764311E-003  0.9118800E+02  0.7818608E-02  0.1130116E+00
         25   -1    0    0    0    0  0.00000000000E+00  0.00000000000E+00  0.99999998245E-14  0.12500000000E+03  0.12500000000E+03 0.  0.
        -13    1    3    3    0    0  0.22386327935E+02 -0.29458590388E+02  0.87405391155E+01  0.38017948579E+02  0.10566000000E+00 0. -1.
         23    2    1    0    0    0 -0.29269120713E+02 -0.13925837315E+02  0.60628027509E+01  0.92024737311E+02  0.85913819189E+02 0.  0.
         13    1    3    3    0    0 -0.51655448648E+02  0.15532753073E+02 -0.26777363646E+01  0.54006788732E+02  0.10566000000E+00 0.  1.
         22    1    1    0    0    0  0.29269120713E+02  0.13925837315E+02 -0.60628027509E+01  0.32975262689E+02  0.00000000000E+00 0.  1.
</event>
<event>
 5    1  0.1764311E-003  0.9118800E+02  0.7818608E-02  0.1130116E+00
         25   -1    0    0    0    0  0.00000000000E+00  0.00000000000E+00  0.99999998245E-14  0.12500000000E+03  0.12500000000E+03 0.  0.
        -13    1    3    3    0    0 -0.36978369335E+02 -0.83768120638E+01  0.21653695625E+02  0.43663079109E+02  0.10566000000E+00 0.  1.
         23    2    1    0    0    0 -0.18002229138E+02  0.18974202026E+02 -0.16326487236E+02  0.94167309850E+02  0.88976555690E+02 0.  0.
         13    1    3    3    0    0  0.18976140197E+02  0.27351014089E+02 -0.37980182861E+02  0.50504230741E+02  0.10566000000E+00 0. -1.
         22    1    1    0    0    0  0.18002229138E+02 -0.18974202026E+02  0.16326487236E+02  0.30832690150E+02  0.00000000000E+00 0.  1.
</event>
<event>
 5    1  0.1764311E-003  0.9118800E+02  0.7818608E-02  0.1130116E+00
         25   -1    0    0    0    0  0.00000000000E+00  0.00000000000E+00  0.99999998245E-14  0.12500000000E+03  0.12500000000E+03 0.  0.
        -13    1    3    3    0    0 -0.79062803730E+01 -0.23017660642E+02 -0.55749328637E+02  0.60830262027E+02  0.10566000000E+00 0. -1.
         23    2    1    0    0    0  0.76089092497E+00 -0.20689251421E+02 -0.26826435024E+02  0.91113694573E+02  0.84577914631E+02 0.  0.
         13    1    3    3    0    0  0.86671712980E+01  0.23284092210E+01  0.28922893613E+02  0.30283432546E+02  0.10566000000E+00 0.  1.
         22    1    1    0    0    0 -0.76089092497E+00  0.20689251421E+02  0.26826435024E+02  0.33886305427E+02  0.00000000000E+00 0. -1.
</event>
<event>
 5    1  0.1764311E-003  0.9118800E+02  0.7818608E-02  0.1130116E+00
         25   -1    0    0    0    0  0.00000000000E+00  0.00000000000E+00  0.99999998245E-14  0.12500000000E+03  0.12500000000E+03 0.  0.
        -13    1    3    3    0    0  0.22603774701E+02 -0.38369100667E+02  0.17450663187E+02  0.47829439955E+02  0.10566000000E+00 0. -1.
         23    2    1    0    0    0 -0.14689033402E+02 -0.21334821866E+02 -0.10070102248E+02  0.97208827199E+02  0.93151526020E+02 0.  0.
         13    1    3    3    0    0 -0.37292808103E+02  0.17034278801E+02 -0.27520765435E+02  0.49379387245E+02  0.10566000000E+00 0.  1.
         22    1    1    0    0    0  0.14689033402E+02  0.21334821866E+02  0.10070102248E+02  0.27791172801E+02  0.00000000000E+00 0.  1.
</event>
<event>
 5    1  0.1764311E-003  0.9118800E+02  0.7818608E-02  0.1130116E+00
         25   -1    0    0    0    0  0.00000000000E+00  0.00000000000E+00  0.99999998245E-14  0.12500000000E+03  0.12500000000E+03 0.  0.
        -13    1    3    3    0    0  0.78626124707E+01 -0.33346545755E+02  0.18687133333E+01  0.34312039319E+02  0.10566000000E+00 0. -1.
         23    2    1    0    0    0 -0.25416731716E+01  0.28165216989E+02  0.21453491494E+00  0.96719519527E+02  0.92492593659E+02 0.  0.
         13    1    3    3    0    0 -0.10404285642E+02  0.61511762744E+02 -0.16541784184E+01  0.62407480208E+02  0.10566000000E+00 0.  1.
         22    1    1    0    0    0  0.25416731716E+01 -0.28165216989E+02 -0.21453491494E+00  0.28280480473E+02  0.00000000000E+00 0.  1.
</event>
<event>
 5    1  0.1764311E-003  0.9118800E+02  0.7818608E-02  0.1130116E+00
         25   -1    0    0    0    0  0.00000000000E+00  0.00000000000E+00  0.99999998245E-14  0.12500000000E+03  0.12500000000E+03 0.  0.
        -13    1    3    3    0    0  0.26502748461E+02 -0.26633684725E+02 -0.22371935939E+02  0.43729435392E+02  0.10566000000E+00 0. -1.
         23    2    1    0    0    0  0.48553475001E+01  0.21533566148E+02 -0.17629037780E+02  0.96750188613E+02  0.92534032405E+02 0.  0.
         13    1    3    3    0    0 -0.21647400961E+02  0.48167250873E+02  0.47428981591E+01  0.53020753220E+02  0.10566000000E+00 0.  1.
         22    1    1    0    0    0 -0.48553475001E+01 -0.21533566148E+02  0.17629037780E+02  0.28249811387E+02  0.00000000000E+00 0.  1.
</event>
<event>
 5    1  0.1764311E-003  0.9118800E+02  0.7818608E-02  0.1130116E+00
         25   -1    0    0    0    0  0.00000000000E+00  0.00000000000E+00  0.99999998245E-14  0.12500000000E+03  0.12500000000E+03 0.  0.
        -13    1    3    3    0    0  0.31750752682E+02 -0.45535191076E+01 -0.28536910549E+00  0.32077054599E+02  0.10566000000E+00 0.  1.
         23    2    1    0    0    0 -0.12433734022E+02 -0.22012761008E+02 -0.28157269771E+02  0.87158340022E+02  0.78514871237E+02 0.  0.
         13    1    3    3    0    0 -0.44184486705E+02 -0.17459241900E+02 -0.27871900666E+02  0.55081285423E+02  0.10566000000E+00 0. -1.
         22    1    1    0    0    0  0.12433734022E+02  0.22012761008E+02  0.28157269771E+02  0.37841659978E+02  0.00000000000E+00 0. -1.
</event>
<event>
 5    1  0.1764311E-003  0.9118800E+02  0.7818608E-02  0.1130116E+00
         25   -1    0    0    0    0  0.00000000000E+00  0.00000000000E+00  0.99999998245E-14  0.12500000000E+03  0.12500000000E+03 0.  0.
        -13    1    3    3    0    0  0.43928653457E+02 -0.70673170813E+01 -0.14062144844E+02  0.46662925829E+02  0.10566000000E+00 0.  1.
         23    2    1    0    0    0  0.80817440055E+01 -0.17480237503E+02 -0.31668611172E+02  0.87935539625E+02  0.79742616625E+02 0.  0.
         13    1    3    3    0    0 -0.35846909451E+02 -0.10412920422E+02 -0.17606466328E+02  0.41272613796E+02  0.10566000000E+00 0. -1.
         22    1    1    0    0    0 -0.80817440055E+01  0.17480237503E+02  0.31668611172E+02  0.37064460375E+02  0.00000000000E+00 0.  1.
</event>
<event>
 5    1  0.1764311E-003  0.9118800E+02  0.7818608E-02  0.1130116E+00
         25   -1    0    0    0    0  0.00000000000E+00  0.00000000000E+00  0.99999998245E-14  0.12500000000E+03  0.12500000000E+03 0.  0.
        -13    1    3    3    0    0 -0.17833868390E+02 -0.61554094570E+01 -0.28406255466E+02  0.34100768921E+02  0.10566000000E+00 0. -1.
         23    2    1    0    0    0  0.21793290213E+02 -0.27255264752E+01  0.18982976608E+02  0.95970198179E+02  0.91474310846E+02 0.  0.
         13    1    3    3    0    0  0.39627158603E+02  0.34298829817E+01  0.47389232074E+02  0.61869429259E+02  0.10566000000E+00 0.  1.
         22    1    1    0    0    0 -0.21793290213E+02  0.27255264752E+01 -0.18982976608E+02  0.29029801821E+02  0.00000000000E+00 0.  1.
</event>
<event>
 5    1  0.1764311E-003  0.9118800E+02  0.7818608E-02  0.1130116E+00
         25   -1    0    0    0    0  0.00000000000E+00  0.00000000000E+00  0.99999998245E-14  0.12500000000E+03  0.12500000000E+03 0.  0.
        -13    1    3    3    0    0 -0.42196708428E+02 -0.12701639540E+02 -0.11146339530E+02  0.45454877605E+02  0.10566000000E+00 0.  1.
         23    2    1    0    0    0 -0.12072072616E+02  0.29679334983E+01  0.26242449862E+02  0.95961926007E+02  0.91463006192E+02 0.  0.
         13    1    3    3    0    0  0.30124635812E+02  0.15669573039E+02  0.37388789392E+02  0.50507048401E+02  0.10566000000E+00 0. -1.
         22    1    1    0    0    0  0.12072072616E+02 -0.29679334983E+01 -0.26242449862E+02  0.29038073993E+02  0.00000000000E+00 0. -1.
</event>
<event>
 5    1  0.1764311E-003  0.9118800E+02  0.7818608E-02  0.1130116E+00
         25   -1    0    0    0    0  0.00000000000E+00  0.00000000000E+00  0.99999998245E-14  0.12500000000E+03  0.12500000000E+03 0.  0.
        -13    1    3    3    0    0  0.32861951865E+02 -0.15498850032E+02 -0.19804486493E+02  0.41380564061E+02  0.10566000000E+00 0.  1.
         23    2    1    0    0    0 -0.20253552117E+02 -0.17720995592E+02 -0.13429710331E+02  0.94923477965E+02  0.90032602379E+02 0.  0.
         13    1    3    3    0    0 -0.53115503983E+02 -0.22221455600E+01  0.63747761614E+01  0.53542913904E+02  0.10566000000E+00 0. -1.
         22    1    1    0    0    0  0.20253552117E+02  0.17720995592E+02  0.13429710331E+02  0.30076522035E+02  0.00000000000E+00 0. -1.
</event>
<event>
 5    1  0.1764311E-003  0.9118800E+02  0.7818608E-02  0.1130116E+00
         25   -1    0    0    0    0  0.00000000000E+00  0.00000000000E+00  0.99999998245E-14  0.12500000000E+03  0.12500000000E+03 0.  0.
        -13    1    3    3    0    0  0.16358858528E+02  0.16138007327E+02 -0.24646328541E+02  0.33697183968E+02  0.10566000000E+00 0.  1.
         23    2    1    0    0    0  0.12999113849E+01 -0.84441985344E+01  0.29091799305E+02  0.94679593583E+02  0.89693357590E+02 0.  0.
         13    1    3    3    0    0 -0.15058947143E+02 -0.24582205861E+02  0.53738127845E+02  0.60982409615E+02  0.10566000000E+00 0. -1.
         22    1    1    0    0    0 -0.12999113849E+01  0.84441985344E+01 -0.29091799305E+02  0.30320406417E+02  0.00000000000E+00 0. -1.
</event>
<event>
 5    1  0.1764311E-003  0.9118800E+02  0.7818608E-02  0.1130116E+00
         25   -1    0    0    0    0  0.00000000000E+00  0.00000000000E+00  0.99999998245E-14  0.12500000000E+03  0.12500000000E+03 0.  0.
        -13    1    3    3    0    0 -0.55329146300E+01  0.51575826996E+01 -0.35689452485E+02  0.36482351711E+02  0.10566000000E+00 0.  1.
         23    2    1    0    0    0 -0.14648607334E+02  0.11112238643E+02  0.22648494593E+02  0.95827789734E+02  0.91279501716E+02 0.  0.
         13    1    3    3    0    0 -0.91156927040E+01  0.59546559430E+01  0.58337947078E+02  0.59345438023E+02  0.10566000000E+00 0. -1.
         22    1    1    0    0    0  0.14648607334E+02 -0.11112238643E+02 -0.22648494593E+02  0.29172210266E+02  0.00000000000E+00 0. -1.
</event>
<event>
 5    1  0.1764311E-003  0.9118800E+02  0.7818608E-02  0.1130116E+00
         25   -1    0    0    0    0  0.00000000000E+00  0.00000000000E+00  0.99999998245E-14  0.12500000000E+03  0.12500000000E+03 0.  0.
        -13    1    3    3    0    0 -0.50856086046E+02  0.26826336486E+02 -0.10671741384E+02  0.58479834519E+02  0.10566000000E+00 0. -1.
         23    2    1    0    0    0 -0.14275112671E+02  0.22257237805E+02 -0.13228695827E+02  0.95433771466E+02  0.90738320827E+02 0.  0.
         13    1    3    3    0    0  0.36580973375E+02 -0.45690986814E+01 -0.25569544422E+01  0.36953936947E+02  0.10566000000E+00 0.  1.
         22    1    1    0    0    0  0.14275112671E+02 -0.22257237805E+02  0.13228695827E+02  0.29566228534E+02  0.00000000000E+00 0. -1.
</event>
<event>
 5    1  0.1764311E-003  0.9118800E+02  0.7818608E-02  0.1130116E+00
         25   -1    0    0    0    0  0.00000000000E+00  0.00000000000E+00  0.99999998245E-14  0.12500000000E+03  0.12500000000E+03 0.  0.
        -13    1    3    3    0    0 -0.43585882833E+02  0.23289921024E+02  0.18382633691E+02  0.52726482806E+02  0.10566000000E+00 0. -1.
         23    2    1    0    0    0 -0.95275982726E+01  0.24784357671E+02 -0.95320936624E+01  0.96788294564E+02  0.92585493686E+02 0.  0.
         13    1    3    3    0    0  0.34058284561E+02  0.14944366467E+01 -0.27914727353E+02  0.44061811758E+02  0.10566000000E+00 0.  1.
         22    1    1    0    0    0  0.95275982726E+01 -0.24784357671E+02  0.95320936624E+01  0.28211705436E+02  0.00000000000E+00 0.  1.
</event>
<event>
 5    1  0.1764311E-003  0.9118800E+02  0.7818608E-02  0.1130116E+00
         25   -1    0    0    0    0  0.00000000000E+00  0.00000000000E+00  0.99999998245E-14  0.12500000000E+03  0.12500000000E+03 0.  0.
        -13    1    3    3    0    0 -0.18461771172E+01  0.52872370093E+02 -0.32305394591E+02  0.61988269640E+02  0.10566000000E+00 0. -1.
         23    2    1    0    0    0  0.31215248606E+01  0.13802107639E+02 -0.46813042300E+01  0.11009507793E+03  0.10908148093E+03 0.  0.
         13    1    3    3    0    0  0.49677019778E+01 -0.39070262454E+02  0.27624090361E+02  0.48106808286E+02  0.10566000000E+00 0.  1.
         22    1    1    0    0    0 -0.31215248606E+01 -0.13802107639E+02  0.46813042300E+01  0.14904922074E+02  0.00000000000E+00 0. -1.
</event>
<event>
 5    1  0.1764311E-003  0.9118800E+02  0.7818608E-02  0.1130116E+00
         25   -1    0    0    0    0  0.00000000000E+00  0.00000000000E+00  0.99999998245E-14  0.12500000000E+03  0.12500000000E+03 0.  0.
        -13    1    3    3    0    0 -0.57318484059E+01  0.26737525549E+02 -0.15538692008E+01  0.27389323325E+02  0.10566000000E+00 0. -1.
         23    2    1    0    0    0  0.63728418577E+01 -0.33416808736E+02  0.93694741424E+01  0.89714262582E+02  0.82483729581E+02 0.  0.
         13    1    3    3    0    0  0.12104690264E+02 -0.60154334285E+02  0.10923343343E+02  0.62324939258E+02  0.10566000000E+00 0.  1.
         22    1    1    0    0    0 -0.63728418577E+01  0.33416808736E+02 -0.93694741424E+01  0.35285737418E+02  0.00000000000E+00 0.  1.
</event>
<event>
 5    1  0.1764311E-003  0.9118800E+02  0.7818608E-02  0.1130116E+00
         25   -1    0    0    0    0  0.00000000000E+00  0.00000000000E+00  0.99999998245E-14  0.12500000000E+03  0.12500000000E+03 0.  0.
        -13    1    3    3    0    0 -0.27135483724E+01  0.24422031637E+02 -0.55550012672E+02  0.60742193292E+02  0.10566000000E+00 0. -1.
         23    2    1    0    0    0 -0.95587561653E+01  0.51759143247E+01 -0.27396303916E+02  0.95525988112E+02  0.90865268546E+02 0.  0.
         13    1    3    3    0    0 -0.68452077929E+01 -0.19246117312E+02  0.28153708756E+02  0.34783794820E+02  0.10566000000E+00 0.  1.
         22    1    1    0    0    0  0.95587561653E+01 -0.51759143247E+01  0.27396303916E+02  0.29474011888E+02  0.00000000000E+00 0. -1.
</event>
<event>
 5    1  0.1764311E-003  0.9118800E+02  0.7818608E-02  0.1130116E+00
         25   -1    0    0    0    0  0.00000000000E+00  0.00000000000E+00  0.99999998245E-14  0.12500000000E+03  0.12500000000E+03 0.  0.
        -13    1    3    3    0    0  0.29453653791E+01 -0.13951031325E+01  0.33326154310E+02  0.33485298492E+02  0.10566000000E+00 0.  1.
         23    2    1    0    0    0 -0.12595488355E+02  0.16743564608E+02 -0.22529305116E+02  0.94233738093E+02  0.89069829479E+02 0.  0.
         13    1    3    3    0    0 -0.15540853734E+02  0.18138667741E+02 -0.55855459426E+02  0.60748439601E+02  0.10566000000E+00 0. -1.
         22    1    1    0    0    0  0.12595488355E+02 -0.16743564608E+02  0.22529305116E+02  0.30766261907E+02  0.00000000000E+00 0. -1.
</event>
<event>
 5    1  0.1764311E-003  0.9118800E+02  0.7818608E-02  0.1130116E+00
         25   -1    0    0    0    0  0.00000000000E+00  0.00000000000E+00  0.99999998245E-14  0.12500000000E+03  0.12500000000E+03 0.  0.
        -13    1    3    3    0    0 -0.23026943554E+02  0.40125506941E+01 -0.10136164292E+01  0.23396138032E+02  0.10566000000E+00 0.  1.
         23    2    1    0    0    0  0.30695030853E+02 -0.18497465822E+02 -0.19104305817E+02  0.84388232474E+02  0.73973360870E+02 0.  0.
         13    1    3    3    0    0  0.53721974407E+02 -0.22510016516E+02 -0.18090689388E+02  0.60992094441E+02  0.10566000000E+00 0. -1.
         22    1    1    0    0    0 -0.30695030853E+02  0.18497465822E+02  0.19104305817E+02  0.40611767526E+02  0.00000000000E+00 0. -1.
</event>
<event>
 5    1  0.1764311E-003  0.9118800E+02  0.7818608E-02  0.1130116E+00
         25   -1    0    0    0    0  0.00000000000E+00  0.00000000000E+00  0.99999998245E-14  0.12500000000E+03  0.12500000000E+03 0.  0.
        -13    1    3    3    0    0 -0.70752015117E+01 -0.31132523688E+02  0.35718729014E+02  0.47907528365E+02  0.10566000000E+00 0.  1.
         23    2    1    0    0    0  0.17700939390E+02  0.83256389455E+01  0.19859180266E+02  0.97124803857E+02  0.93038706807E+02 0.  0.
         13    1    3    3    0    0  0.24776140901E+02  0.39458162634E+02 -0.15859548747E+02  0.49217275493E+02  0.10566000000E+00 0. -1.
         22    1    1    0    0    0 -0.17700939390E+02 -0.83256389455E+01 -0.19859180266E+02  0.27875196143E+02  0.00000000000E+00 0. -1.
</event>
<event>
 5    1  0.1764311E-003  0.9118800E+02  0.7818608E-02  0.1130116E+00
         25   -1    0    0    0    0  0.00000000000E+00  0.00000000000E+00  0.99999998245E-14  0.12500000000E+03  0.12500000000E+03 0.  0.
        -13    1    3    3    0    0 -0.94051929916E+01  0.58088016538E+01  0.39268527734E+02  0.40794953932E+02  0.10566000000E+00 0. -1.
         23    2    1    0    0    0  0.11210026765E+02  0.34310964660E+02  0.76294858011E+01  0.88106693702E+02  0.80010458226E+02 0.  0.
         13    1    3    3    0    0  0.20615219756E+02  0.28502163007E+02 -0.31639041933E+02  0.47311739771E+02  0.10566000000E+00 0.  1.
         22    1    1    0    0    0 -0.11210026765E+02 -0.34310964660E+02 -0.76294858011E+01  0.36893306298E+02  0.00000000000E+00 0.  1.
</event>
<event>
 5    1  0.1764311E-003  0.9118800E+02  0.7818608E-02  0.1130116E+00
         25   -1    0    0    0    0  0.00000000000E+00  0.00000000000E+00  0.99999998245E-14  0.12500000000E+03  0.12500000000E+03 0.  0.
        -13    1    3    3    0    0  0.38945043044E+02  0.11033210191E+02  0.14599720902E+02  0.43030351140E+02  0.10566000000E+00 0. -1.
         23    2    1    0    0    0 -0.60619988294E+01  0.28806190241E+02 -0.48197242399E+01  0.95170917417E+02  0.90375490893E+02 0.  0.
         13    1    3    3    0    0 -0.45007041873E+02  0.17772980050E+02 -0.19419445142E+02  0.52140566277E+02  0.10566000000E+00 0.  1.
         22    1    1    0    0    0  0.60619988294E+01 -0.28806190241E+02  0.48197242399E+01  0.29829082583E+02  0.00000000000E+00 0.  1.
</event>
<event>
 5    1  0.1764311E-003  0.9118800E+02  0.7818608E-02  0.1130116E+00
         25   -1    0    0    0    0  0.00000000000E+00  0.00000000000E+00  0.99999998245E-14  0.12500000000E+03  0.12500000000E+03 0.  0.
        -13    1    3    3    0    0 -0.27936819840E+02 -0.40601265811E+01  0.27213800177E+02  0.39211638766E+02  0.10566000000E+00 0.  1.
         23    2    1    0    0    0 -0.12903578407E+01 -0.24297368380E+02 -0.17478213522E+02  0.95041443935E+02  0.90196235973E+02 0.  0.
         13    1    3    3    0    0  0.26646461999E+02 -0.20237241799E+02 -0.44692013699E+02  0.55829805169E+02  0.10566000000E+00 0. -1.
         22    1    1    0    0    0  0.12903578407E+01  0.24297368380E+02  0.17478213522E+02  0.29958556065E+02  0.00000000000E+00 0. -1.
</event>
<event>
 5    1  0.1764311E-003  0.9118800E+02  0.7818608E-02  0.1130116E+00
         25   -1    0    0    0    0  0.00000000000E+00  0.00000000000E+00  0.99999998245E-14  0.12500000000E+03  0.12500000000E+03 0.  0.
        -13    1    3    3    0    0  0.42473590346E+02 -0.81191787068E+01  0.20784745322E+02  0.47978575864E+02  0.10566000000E+00 0.  1.
         23    2    1    0    0    0  0.55430147933E+01  0.22324085902E+02  0.17768345650E+02  0.95934488969E+02  0.91425501050E+02 0.  0.
         13    1    3    3    0    0 -0.36930575553E+02  0.30443264609E+02 -0.30163996724E+01  0.47955913105E+02  0.10566000000E+00 0. -1.
         22    1    1    0    0    0 -0.55430147933E+01 -0.22324085902E+02 -0.17768345650E+02  0.29065511031E+02  0.00000000000E+00 0. -1.
</event>
<event>
 5    1  0.1764311E-003  0.9118800E+02  0.7818608E-02  0.1130116E+00
         25   -1    0    0    0    0  0.00000000000E+00  0.00000000000E+00  0.99999998245E-14  0.12500000000E+03  0.12500000000E+03 0.  0.
        -13    1    3    3    0    0 -0.46247998635E+02 -0.39412988532E+01 -0.19158305099E+02  0.50214171632E+02  0.10566000000E+00 0. -1.
         23    2    1    0    0    0 -0.33326669299E+01 -0.16602543240E+02 -0.24437598092E+02  0.95268748573E+02  0.90510701816E+02 0.  0.
         13    1    3    3    0    0  0.42915331705E+02 -0.12661244386E+02 -0.52792929928E+01  0.45054576941E+02  0.10566000000E+00 0.  1.
         22    1    1    0    0    0  0.33326669299E+01  0.16602543240E+02  0.24437598092E+02  0.29731251427E+02  0.00000000000E+00 0.  1.
</event>
<event>
 5    1  0.1764311E-003  0.9118800E+02  0.7818608E-02  0.1130116E+00
         25   -1    0    0    0    0  0.00000000000E+00  0.00000000000E+00  0.99999998245E-14  0.12500000000E+03  0.12500000000E+03 0.  0.
        -13    1    3    3    0    0  0.68768922059E+01  0.13847629461E+02 -0.33078219990E+02  0.36513398771E+02  0.10566000000E+00 0.  1.
         23    2    1    0    0    0  0.15835238482E+02 -0.40686487888E+01  0.23408718199E+02  0.96446948176E+02  0.92123488015E+02 0.  0.
         13    1    3    3    0    0  0.89583462763E+01 -0.17916278250E+02  0.56486938189E+02  0.59933549405E+02  0.10566000000E+00 0. -1.
         22    1    1    0    0    0 -0.15835238482E+02  0.40686487888E+01 -0.23408718199E+02  0.28553051824E+02  0.00000000000E+00 0. -1.
</event>
<event>
 5    1  0.1764311E-003  0.9118800E+02  0.7818608E-02  0.1130116E+00
         25   -1    0    0    0    0  0.00000000000E+00  0.00000000000E+00  0.99999998245E-14  0.12500000000E+03  0.12500000000E+03 0.  0.
        -13    1    3    3    0    0  0.10881731564E+02  0.10396239455E+02 -0.42245332480E+02  0.44846105260E+02  0.10566000000E+00 0. -1.
         23    2    1    0    0    0  0.25342505780E+02  0.13755690970E+02  0.61919945830E+01  0.95507586905E+02  0.90839951157E+02 0.  0.
         13    1    3    3    0    0  0.14460774216E+02  0.33594515148E+01  0.48437327063E+02  0.50661481645E+02  0.10566000000E+00 0.  1.
         22    1    1    0    0    0 -0.25342505780E+02 -0.13755690970E+02 -0.61919945830E+01  0.29492413095E+02  0.00000000000E+00 0.  1.
</event>
<event>
 5    1  0.1764311E-003  0.9118800E+02  0.7818608E-02  0.1130116E+00
         25   -1    0    0    0    0  0.00000000000E+00  0.00000000000E+00  0.99999998245E-14  0.12500000000E+03  0.12500000000E+03 0.  0.
        -13    1    3    3    0    0 -0.78669115950E+01 -0.29593125828E+02  0.53564447291E+02  0.61699291503E+02  0.10566000000E+00 0.  1.
         23    2    1    0    0    0 -0.99883592357E+01 -0.10612662009E+02  0.25049526955E+02  0.96019407946E+02  0.91541531484E+02 0.  0.
         13    1    3    3    0    0 -0.21214476407E+01  0.18980463820E+02 -0.28514920335E+02  0.34320116443E+02  0.10566000000E+00 0. -1.
         22    1    1    0    0    0  0.99883592357E+01  0.10612662009E+02 -0.25049526955E+02  0.28980592054E+02  0.00000000000E+00 0.  1.
</event>
<event>
 5    1  0.1764311E-003  0.9118800E+02  0.7818608E-02  0.1130116E+00
         25   -1    0    0    0    0  0.00000000000E+00  0.00000000000E+00  0.99999998245E-14  0.12500000000E+03  0.12500000000E+03 0.  0.
        -13    1    3    3    0    0  0.23216081921E+02 -0.90667514345E+01 -0.25893086153E+02  0.35939609290E+02  0.10566000000E+00 0. -1.
         23    2    1    0    0    0 -0.17224141610E+02  0.23349923883E+02  0.39033021891E+01  0.95723289673E+02  0.91136284861E+02 0.  0.
         13    1    3    3    0    0 -0.40440223532E+02  0.32416675318E+02  0.29796388342E+02  0.59783680384E+02  0.10566000000E+00 0.  1.
         22    1    1    0    0    0  0.17224141610E+02 -0.23349923883E+02 -0.39033021891E+01  0.29276710327E+02  0.00000000000E+00 0.  1.
</event>
<event>
 5    1  0.1764311E-003  0.9118800E+02  0.7818608E-02  0.1130116E+00
         25   -1    0    0    0    0  0.00000000000E+00  0.00000000000E+00  0.99999998245E-14  0.12500000000E+03  0.12500000000E+03 0.  0.
        -13    1    3    3    0    0 -0.71570395538E+01  0.37252972541E+02  0.39179490915E+02  0.54534859042E+02  0.10566000000E+00 0. -1.
         23    2    1    0    0    0 -0.24387689723E+02  0.10280954848E+02  0.15727744223E+02  0.94213324620E+02  0.89041176739E+02 0.  0.
         13    1    3    3    0    0 -0.17230650169E+02 -0.26972017693E+02 -0.23451746692E+02  0.39678465578E+02  0.10566000000E+00 0.  1.
         22    1    1    0    0    0  0.24387689723E+02 -0.10280954848E+02 -0.15727744223E+02  0.30786675380E+02  0.00000000000E+00 0. -1.
</event>
<event>
 5    1  0.1764311E-003  0.9118800E+02  0.7818608E-02  0.1130116E+00
         25   -1    0    0    0    0  0.00000000000E+00  0.00000000000E+00  0.99999998245E-14  0.12500000000E+03  0.12500000000E+03 0.  0.
        -13    1    3    3    0    0 -0.30034295754E+02  0.95448740044E+01  0.19385653728E+02  0.36999706427E+02  0.10566000000E+00 0.  1.
         23    2    1    0    0    0  0.26523988898E+02 -0.44028922239E+01  0.11395153130E+02  0.95797997297E+02  0.91238694228E+02 0.  0.
         13    1    3    3    0    0  0.56558284651E+02 -0.13947766228E+02 -0.79905005984E+01  0.58798290871E+02  0.10566000000E+00 0. -1.
         22    1    1    0    0    0 -0.26523988898E+02  0.44028922239E+01 -0.11395153130E+02  0.29202002703E+02  0.00000000000E+00 0. -1.
</event>
<event>
 5    1  0.1764311E-003  0.9118800E+02  0.7818608E-02  0.1130116E+00
         25   -1    0    0    0    0  0.00000000000E+00  0.00000000000E+00  0.99999998245E-14  0.12500000000E+03  0.12500000000E+03 0.  0.
        -13    1    3    3    0    0  0.26285138161E+02  0.21682305234E+02 -0.36672792097E+02  0.50059321735E+02  0.10566000000E+00 0.  1.
         23    2    1    0    0    0  0.29100807761E+02  0.50998940300E+00  0.36271995115E+01  0.95669577605E+02  0.91062585080E+02 0.  0.
         13    1    3    3    0    0  0.28156696006E+01 -0.21172315831E+02  0.40299991608E+02  0.45610255871E+02  0.10566000000E+00 0. -1.
         22    1    1    0    0    0 -0.29100807761E+02 -0.50998940300E+00 -0.36271995115E+01  0.29330422395E+02  0.00000000000E+00 0.  1.
</event>
<event>
 5    1  0.1764311E-003  0.9118800E+02  0.7818608E-02  0.1130116E+00
         25   -1    0    0    0    0  0.00000000000E+00  0.00000000000E+00  0.99999998245E-14  0.12500000000E+03  0.12500000000E+03 0.  0.
        -13    1    3    3    0    0 -0.23397386858E+02  0.26303558534E+02 -0.17361632053E+01  0.35246848512E+02  0.10566000000E+00 0.  1.
         23    2    1    0    0    0  0.21662506792E+02 -0.14150694000E+02 -0.11676329401E+02  0.96612625879E+02  0.92348018224E+02 0.  0.
         13    1    3    3    0    0  0.45059893650E+02 -0.40454252534E+02 -0.99401661958E+01  0.61365777367E+02  0.10566000000E+00 0. -1.
         22    1    1    0    0    0 -0.21662506792E+02  0.14150694000E+02  0.11676329401E+02  0.28387374121E+02  0.00000000000E+00 0. -1.
</event>
<event>
 5    1  0.1764311E-003  0.9118800E+02  0.7818608E-02  0.1130116E+00
         25   -1    0    0    0    0  0.00000000000E+00  0.00000000000E+00  0.99999998245E-14  0.12500000000E+03  0.12500000000E+03 0.  0.
        -13    1    3    3    0    0 -0.32823451900E+02  0.15812071409E+02 -0.16287978481E+02  0.39908771014E+02  0.10566000000E+00 0. -1.
         23    2    1    0    0    0  0.17997340101E+01 -0.14109223632E+02  0.21476752482E+02  0.99240339071E+02  0.95838847906E+02 0.  0.
         13    1    3    3    0    0  0.34623185910E+02 -0.29921295040E+02  0.37764730962E+02  0.59331568057E+02  0.10566000000E+00 0.  1.
         22    1    1    0    0    0 -0.17997340101E+01  0.14109223632E+02 -0.21476752482E+02  0.25759660929E+02  0.00000000000E+00 0.  1.
</event>
<event>
 5    1  0.1764311E-003  0.9118800E+02  0.7818608E-02  0.1130116E+00
         25   -1    0    0    0    0  0.00000000000E+00  0.00000000000E+00  0.99999998245E-14  0.12500000000E+03  0.12500000000E+03 0.  0.
        -13    1    3    3    0    0 -0.28664341481E+02  0.32142051041E+02 -0.10238566192E+02  0.44267316605E+02  0.10566000000E+00 0. -1.
         23    2    1    0    0    0 -0.17130340696E+02 -0.80547425577E+01  0.21194862494E+02  0.96582581994E+02  0.92307342603E+02 0.  0.
         13    1    3    3    0    0  0.11534000785E+02 -0.40196793599E+02  0.31433428685E+02  0.52315265389E+02  0.10566000000E+00 0.  1.
         22    1    1    0    0    0  0.17130340696E+02  0.80547425577E+01 -0.21194862494E+02  0.28417418006E+02  0.00000000000E+00 0. -1.
</event>
<event>
 5    1  0.1764311E-003  0.9118800E+02  0.7818608E-02  0.1130116E+00
         25   -1    0    0    0    0  0.00000000000E+00  0.00000000000E+00  0.99999998245E-14  0.12500000000E+03  0.12500000000E+03 0.  0.
        -13    1    3    3    0    0 -0.41608880072E+02  0.21321533115E+02  0.25720726002E+02  0.53361723973E+02  0.10566000000E+00 0.  1.
         23    2    1    0    0    0 -0.35956910643E+01  0.17562764941E+01  0.28514722586E+02  0.96205852930E+02  0.91795769143E+02 0.  0.
         13    1    3    3    0    0  0.38013189008E+02 -0.19565256621E+02  0.27939965838E+01  0.42844128958E+02  0.10566000000E+00 0. -1.
         22    1    1    0    0    0  0.35956910643E+01 -0.17562764941E+01 -0.28514722586E+02  0.28794147070E+02  0.00000000000E+00 0.  1.
</event>
<event>
 5    1  0.1764311E-003  0.9118800E+02  0.7818608E-02  0.1130116E+00
         25   -1    0    0    0    0  0.00000000000E+00  0.00000000000E+00  0.99999998245E-14  0.12500000000E+03  0.12500000000E+03 0.  0.
        -13    1    3    3    0    0 -0.33160536745E+02  0.23079030040E+02 -0.11953402226E+02  0.42132621727E+02  0.10566000000E+00 0. -1.
         23    2    1    0    0    0 -0.13519434791E+01  0.87741752547E+01  0.28268594313E+02  0.95370161543E+02  0.90650650222E+02 0.  0.
         13    1    3    3    0    0  0.31808593266E+02 -0.14304854786E+02  0.40221996539E+02  0.53237539815E+02  0.10566000000E+00 0.  1.
         22    1    1    0    0    0  0.13519434791E+01 -0.87741752547E+01 -0.28268594313E+02  0.29629838457E+02  0.00000000000E+00 0.  1.
</event>
<event>
 5    1  0.1764311E-003  0.9118800E+02  0.7818608E-02  0.1130116E+00
         25   -1    0    0    0    0  0.00000000000E+00  0.00000000000E+00  0.99999998245E-14  0.12500000000E+03  0.12500000000E+03 0.  0.
        -13    1    3    3    0    0 -0.48675324123E+02  0.24690667430E+02 -0.25710608275E+02  0.60332104045E+02  0.10566000000E+00 0.  1.
         23    2    1    0    0    0 -0.28561808017E+02  0.87707993123E+01 -0.23454064723E+01  0.95029936115E+02  0.90180286253E+02 0.  0.
         13    1    3    3    0    0  0.20113516106E+02 -0.15919868118E+02  0.23365201803E+02  0.34697832070E+02  0.10566000000E+00 0. -1.
         22    1    1    0    0    0  0.28561808017E+02 -0.87707993123E+01  0.23454064723E+01  0.29970063885E+02  0.00000000000E+00 0.  1.
</event>
<event>
 5    1  0.1764311E-003  0.9118800E+02  0.7818608E-02  0.1130116E+00
         25   -1    0    0    0    0  0.00000000000E+00  0.00000000000E+00  0.99999998245E-14  0.12500000000E+03  0.12500000000E+03 0.  0.
        -13    1    3    3    0    0  0.55683778770E+01  0.54883368814E+02  0.21079049190E+02  0.59055300213E+02  0.10566000000E+00 0. -1.
         23    2    1    0    0    0 -0.12148537337E+02  0.22751137998E+02  0.85759421737E+01  0.97820080504E+02  0.93968186776E+02 0.  0.
         13    1    3    3    0    0 -0.17716915214E+02 -0.32132230815E+02 -0.12503107016E+02  0.38764780291E+02  0.10566000000E+00 0.  1.
         22    1    1    0    0    0  0.12148537337E+02 -0.22751137998E+02 -0.85759421737E+01  0.27179919496E+02  0.00000000000E+00 0. -1.
</event>
<event>
 5    1  0.1764311E-003  0.9118800E+02  0.7818608E-02  0.1130116E+00
         25   -1    0    0    0    0  0.00000000000E+00  0.00000000000E+00  0.99999998245E-14  0.12500000000E+03  0.12500000000E+03 0.  0.
        -13    1    3    3    0    0  0.17242948656E+01  0.24422365403E+02  0.56218648483E+02  0.61318616471E+02  0.10566000000E+00 0.  1.
         23    2    1    0    0    0  0.89874665539E+00  0.18410679881E+02  0.20993409214E+02  0.97062854303E+02  0.92955438657E+02 0.  0.
         13    1    3    3    0    0 -0.82554821025E+00 -0.60116855216E+01 -0.35225239269E+02  0.35744237832E+02  0.10566000000E+00 0. -1.
         22    1    1    0    0    0 -0.89874665539E+00 -0.18410679881E+02 -0.20993409214E+02  0.27937145697E+02  0.00000000000E+00 0.  1.
</event>
<event>
 5    1  0.1764311E-003  0.9118800E+02  0.7818608E-02  0.1130116E+00
         25   -1    0    0    0    0  0.00000000000E+00  0.00000000000E+00  0.99999998245E-14  0.12500000000E+03  0.12500000000E+03 0.  0.
        -13    1    3    3    0    0  0.15040478005E+01 -0.56417888281E+02 -0.11892264328E+02  0.57677355979E+02  0.10566000000E+00 0. -1.
         23    2    1    0    0    0  0.83865239579E+01 -0.19073719057E+02 -0.19565019090E+02  0.96418003660E+02  0.92084205568E+02 0.  0.
         13    1    3    3    0    0  0.68824761574E+01  0.37344169224E+02 -0.76727547618E+01  0.38740647681E+02  0.10566000000E+00 0.  1.
         22    1    1    0    0    0 -0.83865239579E+01  0.19073719057E+02  0.19565019090E+02  0.28581996340E+02  0.00000000000E+00 0. -1.
</event>
<event>
 5    1  0.1764311E-003  0.9118800E+02  0.7818608E-02  0.1130116E+00
         25   -1    0    0    0    0  0.00000000000E+00  0.00000000000E+00  0.99999998245E-14  0.12500000000E+03  0.12500000000E+03 0.  0.
        -13    1    3    3    0    0  0.25303624660E+02  0.20178637449E+02 -0.16027471267E+02  0.36115672906E+02  0.10566000000E+00 0. -1.
         23    2    1    0    0    0 -0.26108167690E+02  0.10516099982E+02  0.10734782027E+02  0.94875917871E+02  0.89966546381E+02 0.  0.
         13    1    3    3    0    0 -0.51411792349E+02 -0.96625374674E+01  0.26762253294E+02  0.58760244965E+02  0.10566000000E+00 0.  1.
         22    1    1    0    0    0  0.26108167690E+02 -0.10516099982E+02 -0.10734782027E+02  0.30124082129E+02  0.00000000000E+00 0.  1.
</event>
<event>
 5    1  0.1764311E-003  0.9118800E+02  0.7818608E-02  0.1130116E+00
         25   -1    0    0    0    0  0.00000000000E+00  0.00000000000E+00  0.99999998245E-14  0.12500000000E+03  0.12500000000E+03 0.  0.
        -13    1    3    3    0    0  0.37635067929E+01 -0.15240561409E+02 -0.36253653574E+02  0.39506673574E+02  0.10566000000E+00 0. -1.
         23    2    1    0    0    0 -0.86573757723E+01 -0.19765276345E+02  0.18956696202E+02  0.96277663132E+02  0.91893502398E+02 0.  0.
         13    1    3    3    0    0 -0.12420882565E+02 -0.45247149357E+01  0.55210349776E+02  0.56770989558E+02  0.10566000000E+00 0.  1.
         22    1    1    0    0    0  0.86573757723E+01  0.19765276345E+02 -0.18956696202E+02  0.28722336868E+02  0.00000000000E+00 0. -1.
</event>
<event>
 5    1  0.1764311E-003  0.9118800E+02  0.7818608E-02  0.1130116E+00
         25   -1    0    0    0    0  0.00000000000E+00  0.00000000000E+00  0.99999998245E-14  0.12500000000E+03  0.12500000000E+03 0.  0.
        -13    1    3    3    0    0  0.56224950870E+02 -0.17755394997E+02  0.20063448497E+02  0.62282038193E+02  0.10566000000E+00 0. -1.
         23    2    1    0    0    0  0.27914367365E+02 -0.85985584660E+01  0.60513107966E+01  0.95171063119E+02  0.90375692417E+02 0.  0.
         13    1    3    3    0    0 -0.28310583505E+02  0.91568365314E+01 -0.14012137700E+02  0.32889024927E+02  0.10566000000E+00 0.  1.
         22    1    1    0    0    0 -0.27914367365E+02  0.85985584660E+01 -0.60513107966E+01  0.29828936881E+02  0.00000000000E+00 0. -1.
</event>
<event>
 5    1  0.1764311E-003  0.9118800E+02  0.7818608E-02  0.1130116E+00
         25   -1    0    0    0    0  0.00000000000E+00  0.00000000000E+00  0.99999998245E-14  0.12500000000E+03  0.12500000000E+03 0.  0.
        -13    1    3    3    0    0 -0.59228666434E+02 -0.23954393205E+01  0.52793957423E+01  0.59511815974E+02  0.10566000000E+00 0.  1.
         23    2    1    0    0    0 -0.26636505610E+02 -0.14671607553E+02  0.13533752671E+01  0.94560040672E+02  0.89526589167E+02 0.  0.
         13    1    3    3    0    0  0.32592160824E+02 -0.12276168233E+02 -0.39260204752E+01  0.35048224698E+02  0.10566000000E+00 0. -1.
         22    1    1    0    0    0  0.26636505610E+02  0.14671607553E+02 -0.13533752671E+01  0.30439959328E+02  0.00000000000E+00 0.  1.
</event>
<event>
 5    1  0.1764311E-003  0.9118800E+02  0.7818608E-02  0.1130116E+00
         25   -1    0    0    0    0  0.00000000000E+00  0.00000000000E+00  0.99999998245E-14  0.12500000000E+03  0.12500000000E+03 0.  0.
        -13    1    3    3    0    0  0.30123455632E+02 -0.10609112407E+02 -0.20672383871E+02  0.38043849230E+02  0.10566000000E+00 0.  1.
         23    2    1    0    0    0 -0.25888542426E+02  0.71217065054E+00 -0.13952493165E+02  0.95582388243E+02  0.90942823030E+02 0.  0.
         13    1    3    3    0    0 -0.56011998058E+02  0.11321283057E+02  0.67198907057E+01  0.57538539013E+02  0.10566000000E+00 0. -1.
         22    1    1    0    0    0  0.25888542426E+02 -0.71217065054E+00  0.13952493165E+02  0.29417611757E+02  0.00000000000E+00 0. -1.
</event>
<event>
 5    1  0.1764311E-003  0.9118800E+02  0.7818608E-02  0.1130116E+00
         25   -1    0    0    0    0  0.00000000000E+00  0.00000000000E+00  0.99999998245E-14  0.12500000000E+03  0.12500000000E+03 0.  0.
        -13    1    3    3    0    0  0.40052019794E+02 -0.67075924509E+01 -0.11597815478E+02  0.42233595324E+02  0.10566000000E+00 0.  1.
         23    2    1    0    0    0  0.11096954242E+02  0.16197065727E+02  0.24321196556E+02  0.93742873876E+02  0.88378269213E+02 0.  0.
         13    1    3    3    0    0 -0.28955065553E+02  0.22904658178E+02  0.35919012034E+02  0.51509278552E+02  0.10566000000E+00 0. -1.
         22    1    1    0    0    0 -0.11096954242E+02 -0.16197065727E+02 -0.24321196556E+02  0.31257126124E+02  0.00000000000E+00 0. -1.
</event>
<event>
 5    1  0.1764311E-003  0.9118800E+02  0.7818608E-02  0.1130116E+00
         25   -1    0    0    0    0  0.00000000000E+00  0.00000000000E+00  0.99999998245E-14  0.12500000000E+03  0.12500000000E+03 0.  0.
        -13    1    3    3    0    0 -0.19892600857E+02  0.36881634316E+02  0.28802213303E+02  0.50848295683E+02  0.10566000000E+00 0. -1.
         23    2    1    0    0    0 -0.16259228011E+02 -0.30509194437E+01 -0.91810768108E+01  0.10608009576E+03  0.10437923137E+03 0.  0.
         13    1    3    3    0    0  0.36333728454E+01 -0.39932553760E+02 -0.37983290114E+02  0.55231800079E+02  0.10566000000E+00 0.  1.
         22    1    1    0    0    0  0.16259228011E+02  0.30509194437E+01  0.91810768108E+01  0.18919904238E+02  0.00000000000E+00 0.  1.
</event>
<event>
 5    1  0.1764311E-003  0.9118800E+02  0.7818608E-02  0.1130116E+00
         25   -1    0    0    0    0  0.00000000000E+00  0.00000000000E+00  0.99999998245E-14  0.12500000000E+03  0.12500000000E+03 0.  0.
        -13    1    3    3    0    0 -0.40741723011E+01  0.32362510514E+02  0.48346452414E+02  0.58320850403E+02  0.10566000000E+00 0.  1.
         23    2    1    0    0    0  0.10515501153E+02  0.58286078456E+01  0.27220124976E+02  0.95242922899E+02  0.90475028183E+02 0.  0.
         13    1    3    3    0    0  0.14589673454E+02 -0.26533902668E+02 -0.21126327438E+02  0.36922072496E+02  0.10566000000E+00 0. -1.
         22    1    1    0    0    0 -0.10515501153E+02 -0.58286078456E+01 -0.27220124976E+02  0.29757077101E+02  0.00000000000E+00 0.  1.
</event>
<event>
 5    1  0.1764311E-003  0.9118800E+02  0.7818608E-02  0.1130116E+00
         25   -1    0    0    0    0  0.00000000000E+00  0.00000000000E+00  0.99999998245E-14  0.12500000000E+03  0.12500000000E+03 0.  0.
        -13    1    3    3    0    0 -0.56084813723E+02  0.13350745507E+02  0.17024817578E+02  0.60113262376E+02  0.10566000000E+00 0. -1.
         23    2    1    0    0    0 -0.23738278222E+02 -0.34962718965E+01  0.15130594421E+02  0.96633388330E+02  0.92376117489E+02 0.  0.
         13    1    3    3    0    0  0.32346535501E+02 -0.16847017403E+02 -0.18942231566E+01  0.36520125954E+02  0.10566000000E+00 0.  1.
         22    1    1    0    0    0  0.23738278222E+02  0.34962718965E+01 -0.15130594421E+02  0.28366611670E+02  0.00000000000E+00 0. -1.
</event>
<event>
 5    1  0.1764311E-003  0.9118800E+02  0.7818608E-02  0.1130116E+00
         25   -1    0    0    0    0  0.00000000000E+00  0.00000000000E+00  0.99999998245E-14  0.12500000000E+03  0.12500000000E+03 0.  0.
        -13    1    3    3    0    0  0.87651403073E+01  0.20403091170E+02  0.27876370034E+02  0.35640103594E+02  0.10566000000E+00 0.  1.
         23    2    1    0    0    0  0.13892206260E+02 -0.16279269900E+01 -0.26777194337E+02  0.94789709078E+02  0.89846687582E+02 0.  0.
         13    1    3    3    0    0  0.51270659523E+01 -0.22031018160E+02 -0.54653564371E+02  0.59149605484E+02  0.10566000000E+00 0. -1.
         22    1    1    0    0    0 -0.13892206260E+02  0.16279269900E+01  0.26777194337E+02  0.30210290922E+02  0.00000000000E+00 0. -1.
</event>
<event>
 5    1  0.1764311E-003  0.9118800E+02  0.7818608E-02  0.1130116E+00
         25   -1    0    0    0    0  0.00000000000E+00  0.00000000000E+00  0.99999998245E-14  0.12500000000E+03  0.12500000000E+03 0.  0.
        -13    1    3    3    0    0  0.27738683547E+02  0.20694916829E+02 -0.20899848666E+01  0.34671217865E+02  0.10566000000E+00 0.  1.
         23    2    1    0    0    0 -0.15664554215E+02 -0.10204023084E+02  0.24472300611E+02  0.94203996313E+02  0.89028080280E+02 0.  0.
         13    1    3    3    0    0 -0.43403237762E+02 -0.30898939913E+02  0.26562285478E+02  0.59532778448E+02  0.10566000000E+00 0. -1.
         22    1    1    0    0    0  0.15664554215E+02  0.10204023084E+02 -0.24472300611E+02  0.30796003687E+02  0.00000000000E+00 0. -1.
</event>
<event>
 5    1  0.1764311E-003  0.9118800E+02  0.7818608E-02  0.1130116E+00
         25   -1    0    0    0    0  0.00000000000E+00  0.00000000000E+00  0.99999998245E-14  0.12500000000E+03  0.12500000000E+03 0.  0.
        -13    1    3    3    0    0  0.41346910743E+02 -0.78602473650E+01  0.35647077743E+02  0.55155016384E+02  0.10566000000E+00 0. -1.
         23    2    1    0    0    0  0.70280576088E+01  0.12521601340E+02  0.24508094543E+02  0.96595232935E+02  0.92324472562E+02 0.  0.
         13    1    3    3    0    0 -0.34318853134E+02  0.20381848705E+02 -0.11138983200E+02  0.41440216551E+02  0.10566000000E+00 0.  1.
         22    1    1    0    0    0 -0.70280576088E+01 -0.12521601340E+02 -0.24508094543E+02  0.28404767065E+02  0.00000000000E+00 0. -1.
</event>
<event>
 5    1  0.1764311E-003  0.9118800E+02  0.7818608E-02  0.1130116E+00
         25   -1    0    0    0    0  0.00000000000E+00  0.00000000000E+00  0.99999998245E-14  0.12500000000E+03  0.12500000000E+03 0.  0.
        -13    1    3    3    0    0 -0.43621970691E+02  0.27910213937E+02  0.12220936115E+02  0.53209198571E+02  0.10566000000E+00 0.  1.
         23    2    1    0    0    0 -0.60591632059E+01  0.19525294687E+02  0.24013505734E+02  0.93462735550E+02  0.87981156434E+02 0.  0.
         13    1    3    3    0    0  0.37562807486E+02 -0.83849192500E+01  0.11792569619E+02  0.40253536978E+02  0.10566000000E+00 0. -1.
         22    1    1    0    0    0  0.60591632059E+01 -0.19525294687E+02 -0.24013505734E+02  0.31537264450E+02  0.00000000000E+00 0.  1.
</event>
<event>
 5    1  0.1764311E-003  0.9118800E+02  0.7818608E-02  0.1130116E+00
         25   -1    0    0    0    0  0.00000000000E+00  0.00000000000E+00  0.99999998245E-14  0.12500000000E+03  0.12500000000E+03 0.  0.
        -13    1    3    3    0    0  0.32424278996E+02 -0.22564342120E+02 -0.11360721858E+02  0.41104264607E+02  0.10566000000E+00 0.  1.
         23    2    1    0    0    0 -0.18108358637E+02  0.18062721074E+00  0.14061038021E+02  0.10207276578E+03  0.99464523551E+02 0.  0.
         13    1    3    3    0    0 -0.50532637633E+02  0.22744969331E+02  0.25421759879E+02  0.60968501174E+02  0.10566000000E+00 0. -1.
         22    1    1    0    0    0  0.18108358637E+02 -0.18062721074E+00 -0.14061038021E+02  0.22927234219E+02  0.00000000000E+00 0. -1.
</event>
<event>
 5    1  0.1764311E-003  0.9118800E+02  0.7818608E-02  0.1130116E+00
         25   -1    0    0    0    0  0.00000000000E+00  0.00000000000E+00  0.99999998245E-14  0.12500000000E+03  0.12500000000E+03 0.  0.
        -13    1    3    3    0    0  0.19307582713E+02  0.16108854403E+02 -0.31440252337E+02  0.40258894315E+02  0.10566000000E+00 0.  1.
         23    2    1    0    0    0  0.14463985936E+02 -0.22999916138E+02  0.86616879560E+01  0.96482849550E+02  0.92172188797E+02 0.  0.
         13    1    3    3    0    0 -0.48435967776E+01 -0.39108770542E+02  0.40101940293E+02  0.56223955235E+02  0.10566000000E+00 0. -1.
         22    1    1    0    0    0 -0.14463985936E+02  0.22999916138E+02 -0.86616879560E+01  0.28517150450E+02  0.00000000000E+00 0. -1.
</event>
<event>
 5    1  0.1764311E-003  0.9118800E+02  0.7818608E-02  0.1130116E+00
         25   -1    0    0    0    0  0.00000000000E+00  0.00000000000E+00  0.99999998245E-14  0.12500000000E+03  0.12500000000E+03 0.  0.
        -13    1    3    3    0    0  0.36568054392E+02  0.24199638364E+02 -0.44177893012E+02  0.62245823105E+02  0.10566000000E+00 0.  1.
         23    2    1    0    0    0  0.20060073179E+02  0.13602726625E+02 -0.18774238649E+02  0.94342003581E+02  0.89221639165E+02 0.  0.
         13    1    3    3    0    0 -0.16507981213E+02 -0.10596911739E+02  0.25403654363E+02  0.32096180476E+02  0.10566000000E+00 0. -1.
         22    1    1    0    0    0 -0.20060073179E+02 -0.13602726625E+02  0.18774238649E+02  0.30657996419E+02  0.00000000000E+00 0.  1.
</event>
<event>
 5    1  0.1764311E-003  0.9118800E+02  0.7818608E-02  0.1130116E+00
         25   -1    0    0    0    0  0.00000000000E+00  0.00000000000E+00  0.99999998245E-14  0.12500000000E+03  0.12500000000E+03 0.  0.
        -13    1    3    3    0    0  0.21891372956E+02 -0.29035338962E+02  0.45521304973E+02  0.58262196054E+02  0.10566000000E+00 0.  1.
         23    2    1    0    0    0  0.20939200426E+02 -0.12387428551E+01  0.20370285100E+02  0.95760760725E+02  0.91187664633E+02 0.  0.
         13    1    3    3    0    0 -0.95217252985E+00  0.27796596107E+02 -0.25151019874E+02  0.37498564671E+02  0.10566000000E+00 0. -1.
         22    1    1    0    0    0 -0.20939200426E+02  0.12387428551E+01 -0.20370285100E+02  0.29239239275E+02  0.00000000000E+00 0.  1.
</event>
<event>
 5    1  0.1764311E-003  0.9118800E+02  0.7818608E-02  0.1130116E+00
         25   -1    0    0    0    0  0.00000000000E+00  0.00000000000E+00  0.99999998245E-14  0.12500000000E+03  0.12500000000E+03 0.  0.
        -13    1    3    3    0    0  0.78727937285E+01 -0.29504144655E+02  0.36359353191E+02  0.47481461239E+02  0.10566000000E+00 0. -1.
         23    2    1    0    0    0 -0.38666490268E+01  0.14441106168E+02  0.27319702113E+02  0.93857382166E+02  0.88540078729E+02 0.  0.
         13    1    3    3    0    0 -0.11739442755E+02  0.43945250823E+02 -0.90396510781E+01  0.46375920927E+02  0.10566000000E+00 0.  1.
         22    1    1    0    0    0  0.38666490268E+01 -0.14441106168E+02 -0.27319702113E+02  0.31142617834E+02  0.00000000000E+00 0. -1.
</event>
<event>
 5    1  0.1764311E-003  0.9118800E+02  0.7818608E-02  0.1130116E+00
         25   -1    0    0    0    0  0.00000000000E+00  0.00000000000E+00  0.99999998245E-14  0.12500000000E+03  0.12500000000E+03 0.  0.
        -13    1    3    3    0    0  0.30670099056E+02 -0.12957126331E+02  0.52623149923E+02  0.62271575945E+02  0.10566000000E+00 0.  1.
         23    2    1    0    0    0  0.13082682029E+02 -0.34745758506E+01  0.27298982343E+02  0.94529297951E+02  0.89483654863E+02 0.  0.
         13    1    3    3    0    0 -0.17587417028E+02  0.94825504803E+01 -0.25324167580E+02  0.32257722005E+02  0.10566000000E+00 0. -1.
         22    1    1    0    0    0 -0.13082682029E+02  0.34745758506E+01 -0.27298982343E+02  0.30470702049E+02  0.00000000000E+00 0.  1.
</event>
<event>
 5    1  0.1764311E-003  0.9118800E+02  0.7818608E-02  0.1130116E+00
         25   -1    0    0    0    0  0.00000000000E+00  0.00000000000E+00  0.99999998245E-14  0.12500000000E+03  0.12500000000E+03 0.  0.
        -13    1    3    3    0    0 -0.25021476412E+02  0.53080719266E+02  0.14134046863E+02  0.60360744565E+02  0.10566000000E+00 0. -1.
         23    2    1    0    0    0 -0.51011858955E+00  0.27971829261E+02  0.68142802005E+01  0.96205593115E+02  0.91795415347E+02 0.  0.
         13    1    3    3    0    0  0.24511357822E+02 -0.25108890005E+02 -0.73197666630E+01  0.35844848550E+02  0.10566000000E+00 0.  1.
         22    1    1    0    0    0  0.51011858955E+00 -0.27971829261E+02 -0.68142802005E+01  0.28794406885E+02  0.00000000000E+00 0. -1.
</event>
<event>
 5    1  0.1764311E-003  0.9118800E+02  0.7818608E-02  0.1130116E+00
         25   -1    0    0    0    0  0.00000000000E+00  0.00000000000E+00  0.99999998245E-14  0.12500000000E+03  0.12500000000E+03 0.  0.
        -13    1    3    3    0    0  0.28177913655E+02  0.21696675900E+02 -0.45174479892E+02  0.57493350578E+02  0.10566000000E+00 0. -1.
         23    2    1    0    0    0 -0.34686306633E+01  0.13359362715E+02 -0.26366316731E+02  0.95239512290E+02  0.90470315974E+02 0.  0.
         13    1    3    3    0    0 -0.31646544318E+02 -0.83373131852E+01  0.18808163161E+02  0.37746161712E+02  0.10566000000E+00 0.  1.
         22    1    1    0    0    0  0.34686306633E+01 -0.13359362715E+02  0.26366316731E+02  0.29760487710E+02  0.00000000000E+00 0. -1.
</event>
<event>
 5    1  0.1764311E-003  0.9118800E+02  0.7818608E-02  0.1130116E+00
         25   -1    0    0    0    0  0.00000000000E+00  0.00000000000E+00  0.99999998245E-14  0.12500000000E+03  0.12500000000E+03 0.  0.
        -13    1    3    3    0    0  0.30165774531E+02 -0.19561832195E+02 -0.13717505743E+02  0.38481428765E+02  0.10566000000E+00 0. -1.
         23    2    1    0    0    0 -0.20884317717E+02 -0.16161701637E+02 -0.22394511970E+02  0.90375305161E+02  0.83479496227E+02 0.  0.
         13    1    3    3    0    0 -0.51050092248E+02  0.34001305581E+01 -0.86770062267E+01  0.51893876397E+02  0.10566000000E+00 0.  1.
         22    1    1    0    0    0  0.20884317717E+02  0.16161701637E+02  0.22394511970E+02  0.34624694839E+02  0.00000000000E+00 0.  1.
</event>
<event>
 5    1  0.1764311E-003  0.9118800E+02  0.7818608E-02  0.1130116E+00
         25   -1    0    0    0    0  0.00000000000E+00  0.00000000000E+00  0.99999998245E-14  0.12500000000E+03  0.12500000000E+03 0.  0.
        -13    1    3    3    0    0  0.27669791784E+02  0.18448300909E+02  0.20665055256E+02  0.39153708081E+02  0.10566000000E+00 0. -1.
         23    2    1    0    0    0 -0.66015387833E+01  0.18073414520E+02 -0.23224675079E+02  0.94840189668E+02  0.89916891723E+02 0.  0.
         13    1    3    3    0    0 -0.34271330567E+02 -0.37488638875E+00 -0.43889730335E+02  0.55686481587E+02  0.10566000000E+00 0.  1.
         22    1    1    0    0    0  0.66015387833E+01 -0.18073414520E+02  0.23224675079E+02  0.30159810332E+02  0.00000000000E+00 0.  1.
</event>
<event>
 5    1  0.1764311E-003  0.9118800E+02  0.7818608E-02  0.1130116E+00
         25   -1    0    0    0    0  0.00000000000E+00  0.00000000000E+00  0.99999998245E-14  0.12500000000E+03  0.12500000000E+03 0.  0.
        -13    1    3    3    0    0 -0.15678112678E+02  0.37775075308E+02 -0.33705710331E+02  0.52998543420E+02  0.10566000000E+00 0. -1.
         23    2    1    0    0    0  0.25420678492E+01  0.15854765936E+02  0.10656092730E+02  0.10572856974E+03  0.10395740684E+03 0.  0.
         13    1    3    3    0    0  0.18220180527E+02 -0.21920309372E+02  0.44361803061E+02  0.52730026325E+02  0.10566000000E+00 0.  1.
         22    1    1    0    0    0 -0.25420678492E+01 -0.15854765936E+02 -0.10656092730E+02  0.19271430255E+02  0.00000000000E+00 0.  1.
</event>
<event>
 5    1  0.1764311E-003  0.9118800E+02  0.7818608E-02  0.1130116E+00
         25   -1    0    0    0    0  0.00000000000E+00  0.00000000000E+00  0.99999998245E-14  0.12500000000E+03  0.12500000000E+03 0.  0.
        -13    1    3    3    0    0  0.54701295495E+01  0.29862439831E+02  0.31637653852E+02  0.43847918254E+02  0.10566000000E+00 0. -1.
         23    2    1    0    0    0  0.26834878889E+02 -0.66351350152E+01 -0.11084557810E+01  0.97334779670E+02  0.93320388542E+02 0.  0.
         13    1    3    3    0    0  0.21364749340E+02 -0.36497574846E+02 -0.32746109633E+02  0.53486861416E+02  0.10566000000E+00 0.  1.
         22    1    1    0    0    0 -0.26834878889E+02  0.66351350152E+01  0.11084557810E+01  0.27665220330E+02  0.00000000000E+00 0.  1.
</event>
<event>
 5    1  0.1764311E-003  0.9118800E+02  0.7818608E-02  0.1130116E+00
         25   -1    0    0    0    0  0.00000000000E+00  0.00000000000E+00  0.99999998245E-14  0.12500000000E+03  0.12500000000E+03 0.  0.
        -13    1    3    3    0    0  0.51969387264E+01 -0.49896714646E+02  0.33788033086E+02  0.60484152043E+02  0.10566000000E+00 0. -1.
         23    2    1    0    0    0  0.35818238898E+01 -0.27469490973E+02  0.52689460766E+01  0.96801344191E+02  0.92603110356E+02 0.  0.
         13    1    3    3    0    0 -0.16151148367E+01  0.22427223673E+02 -0.28519087009E+02  0.36317192147E+02  0.10566000000E+00 0.  1.
         22    1    1    0    0    0 -0.35818238898E+01  0.27469490973E+02 -0.52689460766E+01  0.28198655809E+02  0.00000000000E+00 0. -1.
</event>
<event>
 5    1  0.1764311E-003  0.9118800E+02  0.7818608E-02  0.1130116E+00
         25   -1    0    0    0    0  0.00000000000E+00  0.00000000000E+00  0.99999998245E-14  0.12500000000E+03  0.12500000000E+03 0.  0.
        -13    1    3    3    0    0 -0.33953130088E+02  0.34020751851E+02 -0.38769377251E+02  0.61751942283E+02  0.10566000000E+00 0.  1.
         23    2    1    0    0    0 -0.11635812095E+02  0.21040264768E+02 -0.16591025382E+02  0.95787896553E+02  0.91224854827E+02 0.  0.
         13    1    3    3    0    0  0.22317317994E+02 -0.12980487084E+02  0.22178351869E+02  0.34035954269E+02  0.10566000000E+00 0. -1.
         22    1    1    0    0    0  0.11635812095E+02 -0.21040264768E+02  0.16591025382E+02  0.29212103447E+02  0.00000000000E+00 0.  1.
</event>
<event>
 5    1  0.1764311E-003  0.9118800E+02  0.7818608E-02  0.1130116E+00
         25   -1    0    0    0    0  0.00000000000E+00  0.00000000000E+00  0.99999998245E-14  0.12500000000E+03  0.12500000000E+03 0.  0.
        -13    1    3    3    0    0  0.86243298518E-01  0.27016513850E+02  0.25063428844E+02  0.36852219580E+02  0.10566000000E+00 0.  1.
         23    2    1    0    0    0 -0.10292732792E+02 -0.50735456643E+01 -0.25158476017E+02  0.97348053786E+02  0.93338167148E+02 0.  0.
         13    1    3    3    0    0 -0.10378976090E+02 -0.32090059515E+02 -0.50221904861E+02  0.60495834206E+02  0.10566000000E+00 0. -1.
         22    1    1    0    0    0  0.10292732792E+02  0.50735456643E+01  0.25158476017E+02  0.27651946214E+02  0.00000000000E+00 0. -1.
</event>
<event>
 5    1  0.1764311E-003  0.9118800E+02  0.7818608E-02  0.1130116E+00
         25   -1    0    0    0    0  0.00000000000E+00  0.00000000000E+00  0.99999998245E-14  0.12500000000E+03  0.12500000000E+03 0.  0.
        -13    1    3    3    0    0  0.15439037719E+02  0.86163442153E+01  0.27104837186E+02  0.32361839197E+02  0.10566000000E+00 0. -1.
         23    2    1    0    0    0 -0.15861878148E+02 -0.23536536256E+02 -0.14122236624E+02  0.93298181683E+02  0.87747053631E+02 0.  0.
         13    1    3    3    0    0 -0.31300915866E+02 -0.32152880472E+02 -0.41227073810E+02  0.60936342486E+02  0.10566000000E+00 0.  1.
         22    1    1    0    0    0  0.15861878148E+02  0.23536536256E+02  0.14122236624E+02  0.31701818317E+02  0.00000000000E+00 0.  1.
</event>
<event>
 5    1  0.1764311E-003  0.9118800E+02  0.7818608E-02  0.1130116E+00
         25   -1    0    0    0    0  0.00000000000E+00  0.00000000000E+00  0.99999998245E-14  0.12500000000E+03  0.12500000000E+03 0.  0.
        -13    1    3    3    0    0  0.85294274261E+01  0.65047980185E+01 -0.41407988227E+02  0.42774948071E+02  0.10566000000E+00 0.  1.
         23    2    1    0    0    0  0.52478824397E+01  0.26853367262E+02  0.81518607165E+01  0.96450106190E+02  0.92127772943E+02 0.  0.
         13    1    3    3    0    0 -0.32815449864E+01  0.20348569244E+02  0.49559848943E+02  0.53675158119E+02  0.10566000000E+00 0. -1.
         22    1    1    0    0    0 -0.52478824397E+01 -0.26853367262E+02 -0.81518607165E+01  0.28549893810E+02  0.00000000000E+00 0. -1.
</event>
<event>
 5    1  0.1764311E-003  0.9118800E+02  0.7818608E-02  0.1130116E+00
         25   -1    0    0    0    0  0.00000000000E+00  0.00000000000E+00  0.99999998245E-14  0.12500000000E+03  0.12500000000E+03 0.  0.
        -13    1    3    3    0    0 -0.23579434168E+02 -0.53570563471E+02  0.15878119691E+02  0.60645864124E+02  0.10566000000E+00 0. -1.
         23    2    1    0    0    0 -0.64363541708E+01 -0.22495982332E+02  0.16877274437E+02  0.96149726717E+02  0.91719309196E+02 0.  0.
         13    1    3    3    0    0  0.17143079998E+02  0.31074581140E+02  0.99915474605E+00  0.35503862594E+02  0.10566000000E+00 0.  1.
         22    1    1    0    0    0  0.64363541708E+01  0.22495982332E+02 -0.16877274437E+02  0.28850273283E+02  0.00000000000E+00 0. -1.
</event>
<event>
 5    1  0.1764311E-003  0.9118800E+02  0.7818608E-02  0.1130116E+00
         25   -1    0    0    0    0  0.00000000000E+00  0.00000000000E+00  0.99999998245E-14  0.12500000000E+03  0.12500000000E+03 0.  0.
        -13    1    3    3    0    0 -0.18389566527E+02 -0.29642325095E+02  0.45311527756E+02  0.57183820314E+02  0.10566000000E+00 0.  1.
         23    2    1    0    0    0 -0.43873047752E+01 -0.27295116281E+02  0.94000331443E+01  0.95800129468E+02  0.91241615325E+02 0.  0.
         13    1    3    3    0    0  0.14002261751E+02  0.23472088143E+01 -0.35911494612E+02  0.38616309154E+02  0.10566000000E+00 0. -1.
         22    1    1    0    0    0  0.43873047752E+01  0.27295116281E+02 -0.94000331443E+01  0.29199870532E+02  0.00000000000E+00 0.  1.
</event>
<event>
 5    1  0.1764311E-003  0.9118800E+02  0.7818608E-02  0.1130116E+00
         25   -1    0    0    0    0  0.00000000000E+00  0.00000000000E+00  0.99999998245E-14  0.12500000000E+03  0.12500000000E+03 0.  0.
        -13    1    3    3    0    0  0.44157460658E+01 -0.10369409512E+02  0.10007931135E+02  0.15072933244E+02  0.10566000000E+00 0.  1.
         23    2    1    0    0    0  0.15636962171E+02  0.19404060219E+02 -0.42070818673E+02  0.76102291232E+02  0.58314430529E+02 0.  0.
         13    1    3    3    0    0  0.11221216105E+02  0.29773469732E+02 -0.52078749808E+02  0.61029357988E+02  0.10566000000E+00 0. -1.
         22    1    1    0    0    0 -0.15636962171E+02 -0.19404060219E+02  0.42070818673E+02  0.48897708768E+02  0.00000000000E+00 0. -1.
</event>
<event>
 5    1  0.1764311E-003  0.9118800E+02  0.7818608E-02  0.1130116E+00
         25   -1    0    0    0    0  0.00000000000E+00  0.00000000000E+00  0.99999998245E-14  0.12500000000E+03  0.12500000000E+03 0.  0.
        -13    1    3    3    0    0  0.34435323399E+02  0.11204990733E+02 -0.40979697311E+02  0.54687202074E+02  0.10566000000E+00 0.  1.
         23    2    1    0    0    0  0.23558686639E+02 -0.47499264187E+00  0.27860990102E+01  0.10127238567E+03  0.98453524149E+02 0.  0.
         13    1    3    3    0    0 -0.10876636761E+02 -0.11679983374E+02  0.43765796322E+02  0.46585183595E+02  0.10566000000E+00 0. -1.
         22    1    1    0    0    0 -0.23558686639E+02  0.47499264187E+00 -0.27860990102E+01  0.23727614331E+02  0.00000000000E+00 0.  1.
</event>
<event>
 5    1  0.1764311E-003  0.9118800E+02  0.7818608E-02  0.1130116E+00
         25   -1    0    0    0    0  0.00000000000E+00  0.00000000000E+00  0.99999998245E-14  0.12500000000E+03  0.12500000000E+03 0.  0.
        -13    1    3    3    0    0  0.41426698950E+02 -0.55001220696E+01  0.34501058331E+02  0.54191852881E+02  0.10566000000E+00 0. -1.
         23    2    1    0    0    0  0.41555968452E+01 -0.19000807657E+02  0.21724151913E+02  0.95841151376E+02  0.91297797585E+02 0.  0.
         13    1    3    3    0    0 -0.37271102105E+02 -0.13500685588E+02 -0.12776906418E+02  0.41649298495E+02  0.10566000000E+00 0.  1.
         22    1    1    0    0    0 -0.41555968452E+01  0.19000807657E+02 -0.21724151913E+02  0.29158848624E+02  0.00000000000E+00 0. -1.
</event>
<event>
 5    1  0.1764311E-003  0.9118800E+02  0.7818608E-02  0.1130116E+00
         25   -1    0    0    0    0  0.00000000000E+00  0.00000000000E+00  0.99999998245E-14  0.12500000000E+03  0.12500000000E+03 0.  0.
        -13    1    3    3    0    0 -0.19652092783E+02 -0.17830751064E+02 -0.29601067720E+02  0.39753928215E+02  0.10566000000E+00 0. -1.
         23    2    1    0    0    0  0.75840518222E+01 -0.21152493735E+02  0.19005062350E+02  0.95569773562E+02  0.90925482624E+02 0.  0.
         13    1    3    3    0    0  0.27236144606E+02 -0.33217426709E+01  0.48606130071E+02  0.55815845347E+02  0.10566000000E+00 0.  1.
         22    1    1    0    0    0 -0.75840518222E+01  0.21152493735E+02 -0.19005062350E+02  0.29430226438E+02  0.00000000000E+00 0.  1.
</event>
<event>
 5    1  0.1764311E-003  0.9118800E+02  0.7818608E-02  0.1130116E+00
         25   -1    0    0    0    0  0.00000000000E+00  0.00000000000E+00  0.99999998245E-14  0.12500000000E+03  0.12500000000E+03 0.  0.
        -13    1    3    3    0    0  0.36088720338E+02  0.29628544144E+02 -0.17694317492E+02  0.49933419664E+02  0.10566000000E+00 0.  1.
         23    2    1    0    0    0  0.39353410691E+00  0.47709492343E+01 -0.29587424712E+02  0.95027804105E+02  0.90177331000E+02 0.  0.
         13    1    3    3    0    0 -0.35695186231E+02 -0.24857594910E+02 -0.11893107220E+02  0.45094384441E+02  0.10566000000E+00 0. -1.
         22    1    1    0    0    0 -0.39353410691E+00 -0.47709492343E+01  0.29587424712E+02  0.29972195895E+02  0.00000000000E+00 0.  1.
</event>
<event>
 5    1  0.1764311E-003  0.9118800E+02  0.7818608E-02  0.1130116E+00
         25   -1    0    0    0    0  0.00000000000E+00  0.00000000000E+00  0.99999998245E-14  0.12500000000E+03  0.12500000000E+03 0.  0.
        -13    1    3    3    0    0 -0.55159238725E+02 -0.19292079904E+02 -0.17689591595E+02  0.61054555756E+02  0.10566000000E+00 0.  1.
         23    2    1    0    0    0 -0.21123456401E+02 -0.16102533739E+02 -0.12547876830E+02  0.95624138888E+02  0.91000190780E+02 0.  0.
         13    1    3    3    0    0  0.34035782324E+02  0.31895461649E+01  0.51417147651E+01  0.34569583132E+02  0.10566000000E+00 0. -1.
         22    1    1    0    0    0  0.21123456401E+02  0.16102533739E+02  0.12547876830E+02  0.29375861112E+02  0.00000000000E+00 0.  1.
</event>
<event>
 5    1  0.1764311E-003  0.9118800E+02  0.7818608E-02  0.1130116E+00
         25   -1    0    0    0    0  0.00000000000E+00  0.00000000000E+00  0.99999998245E-14  0.12500000000E+03  0.12500000000E+03 0.  0.
        -13    1    3    3    0    0 -0.67982295268E+01 -0.89493544554E+01  0.32762105385E+02  0.34636304410E+02  0.10566000000E+00 0. -1.
         23    2    1    0    0    0 -0.20721457842E+01 -0.10007064215E+02 -0.27794489681E+02  0.95386341344E+02  0.90672958130E+02 0.  0.
         13    1    3    3    0    0  0.47260837426E+01 -0.10577097597E+01 -0.60556595066E+02  0.60750036934E+02  0.10566000000E+00 0.  1.
         22    1    1    0    0    0  0.20721457842E+01  0.10007064215E+02  0.27794489681E+02  0.29613658656E+02  0.00000000000E+00 0.  1.
</event>
<event>
 5    1  0.1764311E-003  0.9118800E+02  0.7818608E-02  0.1130116E+00
         25   -1    0    0    0    0  0.00000000000E+00  0.00000000000E+00  0.99999998245E-14  0.12500000000E+03  0.12500000000E+03 0.  0.
        -13    1    3    3    0    0  0.13661759603E+02  0.42324018415E+02  0.51442406024E+01  0.44770979280E+02  0.10566000000E+00 0.  1.
         23    2    1    0    0    0 -0.26372421551E+02  0.14710225172E+02 -0.48336129385E+01  0.94417992919E+02  0.89328037198E+02 0.  0.
         13    1    3    3    0    0 -0.40034181154E+02 -0.27613793243E+02 -0.99778535409E+01  0.49647013639E+02  0.10566000000E+00 0. -1.
         22    1    1    0    0    0  0.26372421551E+02 -0.14710225172E+02  0.48336129385E+01  0.30582007081E+02  0.00000000000E+00 0. -1.
</event>
<event>
 5    1  0.1764311E-003  0.9118800E+02  0.7818608E-02  0.1130116E+00
         25   -1    0    0    0    0  0.00000000000E+00  0.00000000000E+00  0.99999998245E-14  0.12500000000E+03  0.12500000000E+03 0.  0.
        -13    1    3    3    0    0 -0.28336382112E+02 -0.28149547283E+02 -0.17363580545E+02  0.43552871970E+02  0.10566000000E+00 0.  1.
         23    2    1    0    0    0  0.80325964859E+01  0.89080483566E+01 -0.26165228117E+02  0.96216409289E+02  0.91810142807E+02 0.  0.
         13    1    3    3    0    0  0.36368978598E+02  0.37057595640E+02 -0.88016475715E+01  0.52663537319E+02  0.10566000000E+00 0. -1.
         22    1    1    0    0    0 -0.80325964859E+01 -0.89080483566E+01  0.26165228117E+02  0.28783590711E+02  0.00000000000E+00 0.  1.
</event>
<event>
 5    1  0.1764311E-003  0.9118800E+02  0.7818608E-02  0.1130116E+00
         25   -1    0    0    0    0  0.00000000000E+00  0.00000000000E+00  0.99999998245E-14  0.12500000000E+03  0.12500000000E+03 0.  0.
        -13    1    3    3    0    0 -0.54518114622E+01  0.10549002272E+02  0.35566931934E+02  0.37496953321E+02  0.10566000000E+00 0.  1.
         23    2    1    0    0    0  0.19514190304E+02  0.84597828386E+01 -0.18323572438E+02  0.96926438491E+02  0.92771814808E+02 0.  0.
         13    1    3    3    0    0  0.24966001766E+02 -0.20892194331E+01 -0.53890504372E+02  0.59429485170E+02  0.10566000000E+00 0. -1.
         22    1    1    0    0    0 -0.19514190304E+02 -0.84597828386E+01  0.18323572438E+02  0.28073561509E+02  0.00000000000E+00 0. -1.
</event>
<event>
 5    1  0.1764311E-003  0.9118800E+02  0.7818608E-02  0.1130116E+00
         25   -1    0    0    0    0  0.00000000000E+00  0.00000000000E+00  0.99999998245E-14  0.12500000000E+03  0.12500000000E+03 0.  0.
        -13    1    3    3    0    0 -0.20870999520E+02  0.58233162099E+02  0.69314763481E+01  0.62247540654E+02  0.10566000000E+00 0.  1.
         23    2    1    0    0    0 -0.13325895100E+02  0.25754469240E+02  0.41440151978E+01  0.95707594363E+02  0.91114755066E+02 0.  0.
         13    1    3    3    0    0  0.75451044207E+01 -0.32478692859E+02 -0.27874611503E+01  0.33460053710E+02  0.10566000000E+00 0. -1.
         22    1    1    0    0    0  0.13325895100E+02 -0.25754469240E+02 -0.41440151978E+01  0.29292405637E+02  0.00000000000E+00 0.  1.
</event>
<event>
 5    1  0.1764311E-003  0.9118800E+02  0.7818608E-02  0.1130116E+00
         25   -1    0    0    0    0  0.00000000000E+00  0.00000000000E+00  0.99999998245E-14  0.12500000000E+03  0.12500000000E+03 0.  0.
        -13    1    3    3    0    0 -0.18410811207E+02 -0.20266362570E+02 -0.23576522299E+02  0.36132353769E+02  0.10566000000E+00 0. -1.
         23    2    1    0    0    0  0.35996868910E+01 -0.86626148977E+01  0.29119130637E+02  0.94407150972E+02  0.89312864376E+02 0.  0.
         13    1    3    3    0    0  0.22010498098E+02  0.11603747673E+02  0.52695652937E+02  0.58274797203E+02  0.10566000000E+00 0.  1.
         22    1    1    0    0    0 -0.35996868910E+01  0.86626148977E+01 -0.29119130637E+02  0.30592849028E+02  0.00000000000E+00 0.  1.
</event>
<event>
 5    1  0.1764311E-003  0.9118800E+02  0.7818608E-02  0.1130116E+00
         25   -1    0    0    0    0  0.00000000000E+00  0.00000000000E+00  0.99999998245E-14  0.12500000000E+03  0.12500000000E+03 0.  0.
        -13    1    3    3    0    0 -0.36125319616E+01 -0.38771979843E+02 -0.84416122143E+01  0.39844557833E+02  0.10566000000E+00 0. -1.
         23    2    1    0    0    0  0.12284496984E+02  0.10252619523E+02 -0.26152822680E+02  0.94340658726E+02  0.89219754995E+02 0.  0.
         13    1    3    3    0    0  0.15897028946E+02  0.49024599366E+02 -0.17711210466E+02  0.54496100892E+02  0.10566000000E+00 0.  1.
         22    1    1    0    0    0 -0.12284496984E+02 -0.10252619523E+02  0.26152822680E+02  0.30659341274E+02  0.00000000000E+00 0.  1.
</event>
<event>
 5    1  0.1764311E-003  0.9118800E+02  0.7818608E-02  0.1130116E+00
         25   -1    0    0    0    0  0.00000000000E+00  0.00000000000E+00  0.99999998245E-14  0.12500000000E+03  0.12500000000E+03 0.  0.
        -13    1    3    3    0    0  0.21226096389E+01 -0.44833365767E+01 -0.42010109172E+02  0.42302082871E+02  0.10566000000E+00 0. -1.
         23    2    1    0    0    0  0.55140653050E+01  0.26504275276E+02  0.37485267733E+01  0.97669925411E+02  0.93768232108E+02 0.  0.
         13    1    3    3    0    0  0.33914556661E+01  0.30987611853E+02  0.45758635945E+02  0.55367842540E+02  0.10566000000E+00 0.  1.
         22    1    1    0    0    0 -0.55140653050E+01 -0.26504275276E+02 -0.37485267733E+01  0.27330074589E+02  0.00000000000E+00 0. -1.
</event>
<event>
 5    1  0.1764311E-003  0.9118800E+02  0.7818608E-02  0.1130116E+00
         25   -1    0    0    0    0  0.00000000000E+00  0.00000000000E+00  0.99999998245E-14  0.12500000000E+03  0.12500000000E+03 0.  0.
        -13    1    3    3    0    0  0.14930150939E+02  0.24968559096E+02 -0.34377184105E+02  0.45034878721E+02  0.10566000000E+00 0.  1.
         23    2    1    0    0    0 -0.46428671322E+01  0.25109566727E+02  0.13036131505E+02  0.96329679439E+02  0.91964231416E+02 0.  0.
         13    1    3    3    0    0 -0.19573018071E+02  0.14100763136E+00  0.47413315610E+02  0.51294800718E+02  0.10566000000E+00 0. -1.
         22    1    1    0    0    0  0.46428671322E+01 -0.25109566727E+02 -0.13036131505E+02  0.28670320561E+02  0.00000000000E+00 0. -1.
</event>
<event>
 5    1  0.1764311E-003  0.9118800E+02  0.7818608E-02  0.1130116E+00
         25   -1    0    0    0    0  0.00000000000E+00  0.00000000000E+00  0.99999998245E-14  0.12500000000E+03  0.12500000000E+03 0.  0.
        -13    1    3    3    0    0 -0.42231927789E+02 -0.19006766810E+02  0.95721890252E+01  0.47290917481E+02  0.10566000000E+00 0. -1.
         23    2    1    0    0    0 -0.57892130804E+01  0.97228721506E+01  0.26100502053E+02  0.96552057396E+02  0.92265997795E+02 0.  0.
         13    1    3    3    0    0  0.36442714709E+02  0.28729638961E+02  0.16528313028E+02  0.49261139916E+02  0.10566000000E+00 0.  1.
         22    1    1    0    0    0  0.57892130804E+01 -0.97228721506E+01 -0.26100502053E+02  0.28447942604E+02  0.00000000000E+00 0.  1.
</event>
<event>
 5    1  0.1764311E-003  0.9118800E+02  0.7818608E-02  0.1130116E+00
         25   -1    0    0    0    0  0.00000000000E+00  0.00000000000E+00  0.99999998245E-14  0.12500000000E+03  0.12500000000E+03 0.  0.
        -13    1    3    3    0    0 -0.12431413509E+02 -0.18307128460E+02  0.23261743303E+02  0.32106243315E+02  0.10566000000E+00 0.  1.
         23    2    1    0    0    0  0.27916295761E+02 -0.14733308160E+02 -0.16940480937E+02  0.89175848471E+02  0.81663713593E+02 0.  0.
         13    1    3    3    0    0  0.40347709270E+02  0.35738202998E+01 -0.40202224240E+02  0.57069605156E+02  0.10566000000E+00 0. -1.
         22    1    1    0    0    0 -0.27916295761E+02  0.14733308160E+02  0.16940480937E+02  0.35824151529E+02  0.00000000000E+00 0. -1.
</event>
<event>
 5    1  0.1764311E-003  0.9118800E+02  0.7818608E-02  0.1130116E+00
         25   -1    0    0    0    0  0.00000000000E+00  0.00000000000E+00  0.99999998245E-14  0.12500000000E+03  0.12500000000E+03 0.  0.
        -13    1    3    3    0    0 -0.98024591637E+01 -0.14232902145E+02  0.47768438780E+02  0.50798608412E+02  0.10566000000E+00 0.  1.
         23    2    1    0    0    0  0.14238102787E+02  0.12725726416E+02  0.25167871542E+02  0.93407446419E+02  0.87902568818E+02 0.  0.
         13    1    3    3    0    0  0.24040561951E+02  0.26958628561E+02 -0.22600567237E+02  0.42608838007E+02  0.10566000000E+00 0. -1.
         22    1    1    0    0    0 -0.14238102787E+02 -0.12725726416E+02 -0.25167871542E+02  0.31592553581E+02  0.00000000000E+00 0.  1.
</event>
<event>
 5    1  0.1764311E-003  0.9118800E+02  0.7818608E-02  0.1130116E+00
         25   -1    0    0    0    0  0.00000000000E+00  0.00000000000E+00  0.99999998245E-14  0.12500000000E+03  0.12500000000E+03 0.  0.
        -13    1    3    3    0    0 -0.59324583839E+02 -0.50136297178E+01  0.35789012183E+01  0.59643628567E+02  0.10566000000E+00 0. -1.
         23    2    1    0    0    0 -0.25168056761E+02  0.71422597814E+01  0.10947237751E+02  0.96640081624E+02  0.92385174168E+02 0.  0.
         13    1    3    3    0    0  0.34156527078E+02  0.12155889499E+02  0.73683365323E+01  0.36996453057E+02  0.10566000000E+00 0.  1.
         22    1    1    0    0    0  0.25168056761E+02 -0.71422597814E+01 -0.10947237751E+02  0.28359918376E+02  0.00000000000E+00 0. -1.
</event>
<event>
 5    1  0.1764311E-003  0.9118800E+02  0.7818608E-02  0.1130116E+00
         25   -1    0    0    0    0  0.00000000000E+00  0.00000000000E+00  0.99999998245E-14  0.12500000000E+03  0.12500000000E+03 0.  0.
        -13    1    3    3    0    0 -0.27353293030E+02  0.87625788483E+01 -0.43867888626E+02  0.52434609221E+02  0.10566000000E+00 0. -1.
         23    2    1    0    0    0 -0.23581382600E+02 -0.15893701653E+02 -0.92635753414E+01  0.95091720449E+02  0.90265885651E+02 0.  0.
         13    1    3    3    0    0  0.37719104299E+01 -0.24656280501E+02  0.34604313284E+02  0.42657111228E+02  0.10566000000E+00 0.  1.
         22    1    1    0    0    0  0.23581382600E+02  0.15893701653E+02  0.92635753414E+01  0.29908279551E+02  0.00000000000E+00 0. -1.
</event>
<event>
 5    1  0.1764311E-003  0.9118800E+02  0.7818608E-02  0.1130116E+00
         25   -1    0    0    0    0  0.00000000000E+00  0.00000000000E+00  0.99999998245E-14  0.12500000000E+03  0.12500000000E+03 0.  0.
        -13    1    3    3    0    0  0.10491441678E+02  0.27636209903E+02  0.17797696595E+02  0.34505066503E+02  0.10566000000E+00 0. -1.
         23    2    1    0    0    0 -0.47903488781E-01 -0.12191772766E+02 -0.27004766776E+02  0.95370638776E+02  0.90651308286E+02 0.  0.
         13    1    3    3    0    0 -0.10539345166E+02 -0.39827982668E+02 -0.44802463371E+02  0.60865572273E+02  0.10566000000E+00 0.  1.
         22    1    1    0    0    0  0.47903488781E-01  0.12191772766E+02  0.27004766776E+02  0.29629361224E+02  0.00000000000E+00 0.  1.
</event>
<event>
 5    1  0.1764311E-003  0.9118800E+02  0.7818608E-02  0.1130116E+00
         25   -1    0    0    0    0  0.00000000000E+00  0.00000000000E+00  0.99999998245E-14  0.12500000000E+03  0.12500000000E+03 0.  0.
        -13    1    3    3    0    0 -0.87310183227E+01  0.63303231159E+01  0.28720023146E+02  0.30678242538E+02  0.10566000000E+00 0. -1.
         23    2    1    0    0    0  0.26988224026E+02  0.76534431058E+01 -0.19597647199E+02  0.90780017487E+02  0.84083318035E+02 0.  0.
         13    1    3    3    0    0  0.35719242348E+02  0.13231199900E+01 -0.48317670345E+02  0.60101774949E+02  0.10566000000E+00 0.  1.
         22    1    1    0    0    0 -0.26988224026E+02 -0.76534431058E+01  0.19597647199E+02  0.34219982513E+02  0.00000000000E+00 0.  1.
</event>
<event>
 5    1  0.1764311E-003  0.9118800E+02  0.7818608E-02  0.1130116E+00
         25   -1    0    0    0    0  0.00000000000E+00  0.00000000000E+00  0.99999998245E-14  0.12500000000E+03  0.12500000000E+03 0.  0.
        -13    1    3    3    0    0 -0.39447327080E+02 -0.25676916468E+02  0.34128855878E+02  0.58139363779E+02  0.10566000000E+00 0. -1.
         23    2    1    0    0    0 -0.27630081488E+02 -0.19210056110E+01  0.62884444187E+01  0.96598306409E+02  0.92328633708E+02 0.  0.
         13    1    3    3    0    0  0.11817245591E+02  0.23755910857E+02 -0.27840411459E+02  0.38458942631E+02  0.10566000000E+00 0.  1.
         22    1    1    0    0    0  0.27630081488E+02  0.19210056110E+01 -0.62884444187E+01  0.28401693591E+02  0.00000000000E+00 0. -1.
</event>
<event>
 5    1  0.1764311E-003  0.9118800E+02  0.7818608E-02  0.1130116E+00
         25   -1    0    0    0    0  0.00000000000E+00  0.00000000000E+00  0.99999998245E-14  0.12500000000E+03  0.12500000000E+03 0.  0.
        -13    1    3    3    0    0  0.53601794937E+00  0.50199316483E+02  0.68876908607E+01  0.50672577791E+02  0.10566000000E+00 0. -1.
         23    2    1    0    0    0 -0.26157449095E+02  0.22095588979E+02 -0.28603356313E+01  0.90640012873E+02  0.83874926040E+02 0.  0.
         13    1    3    3    0    0 -0.26693467044E+02 -0.28103727504E+02 -0.97480264920E+01  0.39967435081E+02  0.10566000000E+00 0.  1.
         22    1    1    0    0    0  0.26157449095E+02 -0.22095588979E+02  0.28603356313E+01  0.34359987127E+02  0.00000000000E+00 0. -1.
</event>
<event>
 5    1  0.1764311E-003  0.9118800E+02  0.7818608E-02  0.1130116E+00
         25   -1    0    0    0    0  0.00000000000E+00  0.00000000000E+00  0.99999998245E-14  0.12500000000E+03  0.12500000000E+03 0.  0.
        -13    1    3    3    0    0 -0.15293256870E+02  0.17356213177E+02  0.24479408132E+02  0.33680475472E+02  0.10566000000E+00 0. -1.
         23    2    1    0    0    0  0.13738905996E+02  0.71591919679E+01 -0.27124932311E+02  0.93762626223E+02  0.88406202020E+02 0.  0.
         13    1    3    3    0    0  0.29032162866E+02 -0.10197021209E+02 -0.51604340443E+02  0.60082150750E+02  0.10566000000E+00 0.  1.
         22    1    1    0    0    0 -0.13738905996E+02 -0.71591919679E+01  0.27124932311E+02  0.31237373777E+02  0.00000000000E+00 0.  1.
</event>
<event>
 5    1  0.1764311E-003  0.9118800E+02  0.7818608E-02  0.1130116E+00
         25   -1    0    0    0    0  0.00000000000E+00  0.00000000000E+00  0.99999998245E-14  0.12500000000E+03  0.12500000000E+03 0.  0.
        -13    1    3    3    0    0 -0.20085397356E+02  0.50130316530E+02 -0.11128705553E+02  0.55139197253E+02  0.10566000000E+00 0. -1.
         23    2    1    0    0    0 -0.22233811376E+02  0.16156335984E+02  0.10620009909E+02  0.95535543935E+02  0.90878413189E+02 0.  0.
         13    1    3    3    0    0 -0.21484140204E+01 -0.33973980546E+02  0.21748715462E+02  0.40396346682E+02  0.10566000000E+00 0.  1.
         22    1    1    0    0    0  0.22233811376E+02 -0.16156335984E+02 -0.10620009909E+02  0.29464456065E+02  0.00000000000E+00 0. -1.
</event>
<event>
 5    1  0.1764311E-003  0.9118800E+02  0.7818608E-02  0.1130116E+00
         25   -1    0    0    0    0  0.00000000000E+00  0.00000000000E+00  0.99999998245E-14  0.12500000000E+03  0.12500000000E+03 0.  0.
        -13    1    3    3    0    0  0.20780762065E+02 -0.40929347136E+02  0.21852536038E+02  0.50838922336E+02  0.10566000000E+00 0.  1.
         23    2    1    0    0    0 -0.17547986398E+02 -0.18394282167E+02  0.13961576415E+02  0.95996430236E+02  0.91510150033E+02 0.  0.
         13    1    3    3    0    0 -0.38328748463E+02  0.22535064970E+02 -0.78909596226E+01  0.45157507900E+02  0.10566000000E+00 0. -1.
         22    1    1    0    0    0  0.17547986398E+02  0.18394282167E+02 -0.13961576415E+02  0.29003569764E+02  0.00000000000E+00 0.  1.
</event>
<event>
 5    1  0.1764311E-003  0.9118800E+02  0.7818608E-02  0.1130116E+00
         25   -1    0    0    0    0  0.00000000000E+00  0.00000000000E+00  0.99999998245E-14  0.12500000000E+03  0.12500000000E+03 0.  0.
        -13    1    3    3    0    0  0.48947458158E+02 -0.28125514373E+02 -0.17962810782E+02  0.59241640373E+02  0.10566000000E+00 0.  1.
         23    2    1    0    0    0  0.16613965126E+02 -0.23475398558E+02 -0.60350115244E+00  0.96234006391E+02  0.91834098230E+02 0.  0.
         13    1    3    3    0    0 -0.32333493032E+02  0.46501158149E+01  0.17359309629E+02  0.36992366018E+02  0.10566000000E+00 0. -1.
         22    1    1    0    0    0 -0.16613965126E+02  0.23475398558E+02  0.60350115244E+00  0.28765993609E+02  0.00000000000E+00 0.  1.
</event>
<event>
 5    1  0.1764311E-003  0.9118800E+02  0.7818608E-02  0.1130116E+00
         25   -1    0    0    0    0  0.00000000000E+00  0.00000000000E+00  0.99999998245E-14  0.12500000000E+03  0.12500000000E+03 0.  0.
        -13    1    3    3    0    0  0.33065500466E+02 -0.48893193636E+02 -0.56371400781E+01  0.59293003106E+02  0.10566000000E+00 0.  1.
         23    2    1    0    0    0  0.19526432089E+02 -0.18741816774E+02  0.10368704900E+02  0.96016430734E+02  0.91537466009E+02 0.  0.
         13    1    3    3    0    0 -0.13539068377E+02  0.30151376863E+02  0.16005844978E+02  0.36723427628E+02  0.10566000000E+00 0. -1.
         22    1    1    0    0    0 -0.19526432089E+02  0.18741816774E+02 -0.10368704900E+02  0.28983569266E+02  0.00000000000E+00 0.  1.
</event>
<event>
 5    1  0.1764311E-003  0.9118800E+02  0.7818608E-02  0.1130116E+00
         25   -1    0    0    0    0  0.00000000000E+00  0.00000000000E+00  0.99999998245E-14  0.12500000000E+03  0.12500000000E+03 0.  0.
        -13    1    3    3    0    0  0.42826755213E+02  0.55423612818E+00 -0.30197644358E+02  0.52405601118E+02  0.10566000000E+00 0.  1.
         23    2    1    0    0    0 -0.80762382801E+00  0.31874294111E+01 -0.28665706368E+02  0.96146322867E+02  0.91714670129E+02 0.  0.
         13    1    3    3    0    0 -0.43634379041E+02  0.26331932829E+01  0.15319379903E+01  0.43740721749E+02  0.10566000000E+00 0. -1.
         22    1    1    0    0    0  0.80762382801E+00 -0.31874294111E+01  0.28665706368E+02  0.28853677133E+02  0.00000000000E+00 0.  1.
</event>
<event>
 5    1  0.1764311E-003  0.9118800E+02  0.7818608E-02  0.1130116E+00
         25   -1    0    0    0    0  0.00000000000E+00  0.00000000000E+00  0.99999998245E-14  0.12500000000E+03  0.12500000000E+03 0.  0.
        -13    1    3    3    0    0 -0.63772685759E+00  0.67604917661E+01 -0.36101650305E+02  0.36734878022E+02  0.10566000000E+00 0. -1.
         23    2    1    0    0    0  0.23581750751E+02  0.24169579125E+01  0.17380373241E+02  0.95605816426E+02  0.90975019134E+02 0.  0.
         13    1    3    3    0    0  0.24219477608E+02 -0.43435338536E+01  0.53482023546E+02  0.58870938404E+02  0.10566000000E+00 0.  1.
         22    1    1    0    0    0 -0.23581750751E+02 -0.24169579125E+01 -0.17380373241E+02  0.29394183574E+02  0.00000000000E+00 0.  1.
</event>
<event>
 5    1  0.1764311E-003  0.9118800E+02  0.7818608E-02  0.1130116E+00
         25   -1    0    0    0    0  0.00000000000E+00  0.00000000000E+00  0.99999998245E-14  0.12500000000E+03  0.12500000000E+03 0.  0.
        -13    1    3    3    0    0 -0.33752986881E+02 -0.14333949809E+01 -0.64731081181E+01  0.34398125491E+02  0.10566000000E+00 0.  1.
         23    2    1    0    0    0  0.23914875362E+02 -0.17542514103E+02  0.36279442481E+01  0.95119855354E+02  0.90304838400E+02 0.  0.
         13    1    3    3    0    0  0.57667862243E+02 -0.16109119122E+02  0.10101052366E+02  0.60721729862E+02  0.10566000000E+00 0. -1.
         22    1    1    0    0    0 -0.23914875362E+02  0.17542514103E+02 -0.36279442481E+01  0.29880144646E+02  0.00000000000E+00 0. -1.
</event>
<event>
 5    1  0.1764311E-003  0.9118800E+02  0.7818608E-02  0.1130116E+00
         25   -1    0    0    0    0  0.00000000000E+00  0.00000000000E+00  0.99999998245E-14  0.12500000000E+03  0.12500000000E+03 0.  0.
        -13    1    3    3    0    0 -0.18843154073E+01 -0.99330150095E+01  0.31887492567E+02  0.33452036978E+02  0.10566000000E+00 0.  1.
         23    2    1    0    0    0 -0.20901516790E+02 -0.10642192860E+01 -0.24004436393E+02  0.93153195868E+02  0.87540270545E+02 0.  0.
         13    1    3    3    0    0 -0.19017201383E+02  0.88687957235E+01 -0.55891928960E+02  0.59701158891E+02  0.10566000000E+00 0. -1.
         22    1    1    0    0    0  0.20901516790E+02  0.10642192860E+01  0.24004436393E+02  0.31846804132E+02  0.00000000000E+00 0. -1.
</event>
<event>
 5    1  0.1764311E-003  0.9118800E+02  0.7818608E-02  0.1130116E+00
         25   -1    0    0    0    0  0.00000000000E+00  0.00000000000E+00  0.99999998245E-14  0.12500000000E+03  0.12500000000E+03 0.  0.
        -13    1    3    3    0    0 -0.32410914085E+02  0.10604900927E+02 -0.91556305882E+01  0.35309602250E+02  0.10566000000E+00 0. -1.
         23    2    1    0    0    0  0.22028324093E+02 -0.16632629317E+02 -0.82563245761E+01  0.96189267349E+02  0.91773181471E+02 0.  0.
         13    1    3    3    0    0  0.54439238179E+02 -0.27237530245E+02  0.89930601212E+00  0.60879665100E+02  0.10566000000E+00 0.  1.
         22    1    1    0    0    0 -0.22028324093E+02  0.16632629317E+02  0.82563245761E+01  0.28810732651E+02  0.00000000000E+00 0.  1.
</event>
<event>
 5    1  0.1764311E-003  0.9118800E+02  0.7818608E-02  0.1130116E+00
         25   -1    0    0    0    0  0.00000000000E+00  0.00000000000E+00  0.99999998245E-14  0.12500000000E+03  0.12500000000E+03 0.  0.
        -13    1    3    3    0    0 -0.50170376484E+02  0.48986675125E+01 -0.14386287569E+02  0.52421751726E+02  0.10566000000E+00 0. -1.
         23    2    1    0    0    0 -0.14210339630E+02 -0.17372579395E+02 -0.19806779802E+02  0.95065925881E+02  0.90230158319E+02 0.  0.
         13    1    3    3    0    0  0.35960036854E+02 -0.22271246907E+02 -0.54204922329E+01  0.42644174156E+02  0.10566000000E+00 0.  1.
         22    1    1    0    0    0  0.14210339630E+02  0.17372579395E+02  0.19806779802E+02  0.29934074119E+02  0.00000000000E+00 0. -1.
</event>
<event>
 5    1  0.1764311E-003  0.9118800E+02  0.7818608E-02  0.1130116E+00
         25   -1    0    0    0    0  0.00000000000E+00  0.00000000000E+00  0.99999998245E-14  0.12500000000E+03  0.12500000000E+03 0.  0.
        -13    1    3    3    0    0 -0.31510301639E+02 -0.15076718340E+02 -0.99606790745E+01  0.36323998086E+02  0.10566000000E+00 0.  1.
         23    2    1    0    0    0  0.19662649833E+02  0.18268900994E+02 -0.57749315571E+01  0.97545995256E+02  0.93602878236E+02 0.  0.
         13    1    3    3    0    0  0.51172951473E+02  0.33345619334E+02  0.41857475174E+01  0.61221997170E+02  0.10566000000E+00 0. -1.
         22    1    1    0    0    0 -0.19662649833E+02 -0.18268900994E+02  0.57749315571E+01  0.27454004744E+02  0.00000000000E+00 0. -1.
</event>
<event>
 5    1  0.1764311E-003  0.9118800E+02  0.7818608E-02  0.1130116E+00
         25   -1    0    0    0    0  0.00000000000E+00  0.00000000000E+00  0.99999998245E-14  0.12500000000E+03  0.12500000000E+03 0.  0.
        -13    1    3    3    0    0  0.14918076223E+02 -0.52257524951E+02  0.16527270156E+02  0.56802814500E+02  0.10566000000E+00 0.  1.
         23    2    1    0    0    0 -0.51079390458E+01 -0.18865170744E+02  0.21370423910E+02  0.96040015080E+02  0.91569666211E+02 0.  0.
         13    1    3    3    0    0 -0.20026015269E+02  0.33392354208E+02  0.48431537538E+01  0.39237200580E+02  0.10566000000E+00 0. -1.
         22    1    1    0    0    0  0.51079390458E+01  0.18865170744E+02 -0.21370423910E+02  0.28959984920E+02  0.00000000000E+00 0.  1.
</event>
<event>
 5    1  0.1764311E-003  0.9118800E+02  0.7818608E-02  0.1130116E+00
         25   -1    0    0    0    0  0.00000000000E+00  0.00000000000E+00  0.99999998245E-14  0.12500000000E+03  0.12500000000E+03 0.  0.
        -13    1    3    3    0    0 -0.32836358608E+02  0.10226219812E+02 -0.37547465977E+02  0.50917829722E+02  0.10566000000E+00 0. -1.
         23    2    1    0    0    0 -0.29445178113E+02 -0.73143544710E+01  0.22856453922E+01  0.94573983661E+02  0.89546054716E+02 0.  0.
         13    1    3    3    0    0  0.33911804953E+01 -0.17540574283E+02  0.39833111369E+02  0.43656153939E+02  0.10566000000E+00 0.  1.
         22    1    1    0    0    0  0.29445178113E+02  0.73143544710E+01 -0.22856453922E+01  0.30426016339E+02  0.00000000000E+00 0. -1.
</event>
<event>
 5    1  0.1764311E-003  0.9118800E+02  0.7818608E-02  0.1130116E+00
         25   -1    0    0    0    0  0.00000000000E+00  0.00000000000E+00  0.99999998245E-14  0.12500000000E+03  0.12500000000E+03 0.  0.
        -13    1    3    3    0    0 -0.29356657661E+02  0.34038807721E+02  0.12993680417E+02  0.46789963399E+02  0.10566000000E+00 0.  1.
         23    2    1    0    0    0  0.15029917871E+02  0.25750590278E+02 -0.37518067412E+01  0.94948920407E+02  0.90067919382E+02 0.  0.
         13    1    3    3    0    0  0.44386575532E+02 -0.82882174432E+01 -0.16745487158E+02  0.48158957008E+02  0.10566000000E+00 0. -1.
         22    1    1    0    0    0 -0.15029917871E+02 -0.25750590278E+02  0.37518067412E+01  0.30051079593E+02  0.00000000000E+00 0. -1.
</event>
<event>
 5    1  0.1764311E-003  0.9118800E+02  0.7818608E-02  0.1130116E+00
         25   -1    0    0    0    0  0.00000000000E+00  0.00000000000E+00  0.99999998245E-14  0.12500000000E+03  0.12500000000E+03 0.  0.
        -13    1    3    3    0    0 -0.46114258511E+02 -0.11185063386E+02  0.36410363419E+02  0.59811004082E+02  0.10566000000E+00 0.  1.
         23    2    1    0    0    0 -0.16591061318E+02  0.56815202017E+01  0.22315337260E+02  0.96618363957E+02  0.92355784817E+02 0.  0.
         13    1    3    3    0    0  0.29523197193E+02  0.16866583588E+02 -0.14095026159E+02  0.36807359874E+02  0.10566000000E+00 0. -1.
         22    1    1    0    0    0  0.16591061318E+02 -0.56815202017E+01 -0.22315337260E+02  0.28381636043E+02  0.00000000000E+00 0.  1.
</event>
<event>
 5    1  0.1764311E-003  0.9118800E+02  0.7818608E-02  0.1130116E+00
         25   -1    0    0    0    0  0.00000000000E+00  0.00000000000E+00  0.99999998245E-14  0.12500000000E+03  0.12500000000E+03 0.  0.
        -13    1    3    3    0    0 -0.37363248844E+02 -0.21267651062E+02  0.37213330305E+02  0.56860957276E+02  0.10566000000E+00 0.  1.
         23    2    1    0    0    0 -0.23047196582E+02 -0.16643567410E+02  0.46721668730E+00  0.96567625885E+02  0.92287087240E+02 0.  0.
         13    1    3    3    0    0  0.14316052262E+02  0.46240836521E+01 -0.36746113618E+02  0.39706668609E+02  0.10566000000E+00 0. -1.
         22    1    1    0    0    0  0.23047196582E+02  0.16643567410E+02 -0.46721668730E+00  0.28432374115E+02  0.00000000000E+00 0.  1.
</event>
<event>
 5    1  0.1764311E-003  0.9118800E+02  0.7818608E-02  0.1130116E+00
         25   -1    0    0    0    0  0.00000000000E+00  0.00000000000E+00  0.99999998245E-14  0.12500000000E+03  0.12500000000E+03 0.  0.
        -13    1    3    3    0    0 -0.20157194673E+02 -0.11848197082E+02 -0.49133538453E+02  0.54413307528E+02  0.10566000000E+00 0.  1.
         23    2    1    0    0    0 -0.27119941673E+02 -0.12574831226E+02 -0.11058535675E+02  0.93126675291E+02  0.87502393240E+02 0.  0.
         13    1    3    3    0    0 -0.69627470007E+01 -0.72663414356E+00  0.38075002778E+02  0.38713367763E+02  0.10566000000E+00 0. -1.
         22    1    1    0    0    0  0.27119941673E+02  0.12574831226E+02  0.11058535675E+02  0.31873324709E+02  0.00000000000E+00 0.  1.
</event>
<event>
 5    1  0.1764311E-003  0.9118800E+02  0.7818608E-02  0.1130116E+00
         25   -1    0    0    0    0  0.00000000000E+00  0.00000000000E+00  0.99999998245E-14  0.12500000000E+03  0.12500000000E+03 0.  0.
        -13    1    3    3    0    0  0.15993516154E+02 -0.36716904059E+02  0.13962738460E+02  0.42413356764E+02  0.10566000000E+00 0. -1.
         23    2    1    0    0    0 -0.23859649224E+02 -0.21977257200E+01  0.17610526007E+02  0.95263768133E+02  0.90503823307E+02 0.  0.
         13    1    3    3    0    0 -0.39853165377E+02  0.34519178339E+02  0.36477875467E+01  0.52850411369E+02  0.10566000000E+00 0.  1.
         22    1    1    0    0    0  0.23859649224E+02  0.21977257200E+01 -0.17610526007E+02  0.29736231867E+02  0.00000000000E+00 0.  1.
</event>
<event>
 5    1  0.1764311E-003  0.9118800E+02  0.7818608E-02  0.1130116E+00
         25   -1    0    0    0    0  0.00000000000E+00  0.00000000000E+00  0.99999998245E-14  0.12500000000E+03  0.12500000000E+03 0.  0.
        -13    1    3    3    0    0 -0.26786166311E+02 -0.23674975132E+02 -0.42832531540E+02  0.55791039382E+02  0.10566000000E+00 0.  1.
         23    2    1    0    0    0  0.63294844451E+01 -0.79157077411E+01 -0.27770314739E+02  0.95438011179E+02  0.90744161216E+02 0.  0.
         13    1    3    3    0    0  0.33115650756E+02  0.15759267391E+02  0.15062216801E+02  0.39646971797E+02  0.10566000000E+00 0. -1.
         22    1    1    0    0    0 -0.63294844451E+01  0.79157077411E+01  0.27770314739E+02  0.29561988821E+02  0.00000000000E+00 0.  1.
</event>
<event>
 5    1  0.1764311E-003  0.9118800E+02  0.7818608E-02  0.1130116E+00
         25   -1    0    0    0    0  0.00000000000E+00  0.00000000000E+00  0.99999998245E-14  0.12500000000E+03  0.12500000000E+03 0.  0.
        -13    1    3    3    0    0 -0.31956055094E+02 -0.21200948537E+02 -0.29943262024E+02  0.48654699472E+02  0.10566000000E+00 0.  1.
         23    2    1    0    0    0  0.14983049793E+02 -0.91476874883E+01 -0.20469108327E+02  0.98034163035E+02  0.94252537148E+02 0.  0.
         13    1    3    3    0    0  0.46939104887E+02  0.12053261049E+02  0.94741536969E+01  0.49379463563E+02  0.10566000000E+00 0. -1.
         22    1    1    0    0    0 -0.14983049793E+02  0.91476874883E+01  0.20469108327E+02  0.26965836965E+02  0.00000000000E+00 0. -1.
</event>
<event>
 5    1  0.1764311E-003  0.9118800E+02  0.7818608E-02  0.1130116E+00
         25   -1    0    0    0    0  0.00000000000E+00  0.00000000000E+00  0.99999998245E-14  0.12500000000E+03  0.12500000000E+03 0.  0.
        -13    1    3    3    0    0 -0.19128001350E+02  0.42888638814E+01 -0.29665159293E+02  0.35557103776E+02  0.10566000000E+00 0.  1.
         23    2    1    0    0    0  0.24650971735E+01 -0.18491502832E+02  0.22090071712E+02  0.96086618163E+02  0.91633261104E+02 0.  0.
         13    1    3    3    0    0  0.21593098523E+02 -0.22780366713E+02  0.51755231005E+02  0.60529514386E+02  0.10566000000E+00 0. -1.
         22    1    1    0    0    0 -0.24650971735E+01  0.18491502832E+02 -0.22090071712E+02  0.28913381837E+02  0.00000000000E+00 0. -1.
</event>
<event>
 5    1  0.1764311E-003  0.9118800E+02  0.7818608E-02  0.1130116E+00
         25   -1    0    0    0    0  0.00000000000E+00  0.00000000000E+00  0.99999998245E-14  0.12500000000E+03  0.12500000000E+03 0.  0.
        -13    1    3    3    0    0 -0.48074257942E+02  0.42000214545E+01  0.37334056698E+02  0.61013256022E+02  0.10566000000E+00 0.  1.
         23    2    1    0    0    0 -0.20076925339E+02  0.11238585059E+02  0.18424086483E+02  0.95523981139E+02  0.90862507585E+02 0.  0.
         13    1    3    3    0    0  0.27997332603E+02  0.70385636040E+01 -0.18909970215E+02  0.34510725116E+02  0.10566000000E+00 0. -1.
         22    1    1    0    0    0  0.20076925339E+02 -0.11238585059E+02 -0.18424086483E+02  0.29476018861E+02  0.00000000000E+00 0.  1.
</event>
<event>
 5    1  0.1764311E-003  0.9118800E+02  0.7818608E-02  0.1130116E+00
         25   -1    0    0    0    0  0.00000000000E+00  0.00000000000E+00  0.99999998245E-14  0.12500000000E+03  0.12500000000E+03 0.  0.
        -13    1    3    3    0    0  0.12268061245E+02  0.19483400850E+02 -0.37473194086E+02  0.43981355986E+02  0.10566000000E+00 0. -1.
         23    2    1    0    0    0 -0.25598492404E+02  0.13665656677E+02 -0.24662714649E+01  0.95877577698E+02  0.91347656918E+02 0.  0.
         13    1    3    3    0    0 -0.37866553649E+02 -0.58177441722E+01  0.35006922621E+02  0.51896221712E+02  0.10566000000E+00 0.  1.
         22    1    1    0    0    0  0.25598492404E+02 -0.13665656677E+02  0.24662714649E+01  0.29122422302E+02  0.00000000000E+00 0.  1.
</event>
<event>
 5    1  0.1764311E-003  0.9118800E+02  0.7818608E-02  0.1130116E+00
         25   -1    0    0    0    0  0.00000000000E+00  0.00000000000E+00  0.99999998245E-14  0.12500000000E+03  0.12500000000E+03 0.  0.
        -13    1    3    3    0    0  0.21399984966E+02  0.40217345340E+01 -0.28309561200E+02  0.35715208589E+02  0.10566000000E+00 0.  1.
         23    2    1    0    0    0 -0.19392958390E+02 -0.20271991496E+02  0.83827871055E+01  0.95720116223E+02  0.91131932142E+02 0.  0.
         13    1    3    3    0    0 -0.40792943356E+02 -0.24293726030E+02  0.36692348305E+02  0.60004907634E+02  0.10566000000E+00 0. -1.
         22    1    1    0    0    0  0.19392958390E+02  0.20271991496E+02 -0.83827871055E+01  0.29279883777E+02  0.00000000000E+00 0. -1.
</event>
<event>
 5    1  0.1764311E-003  0.9118800E+02  0.7818608E-02  0.1130116E+00
         25   -1    0    0    0    0  0.00000000000E+00  0.00000000000E+00  0.99999998245E-14  0.12500000000E+03  0.12500000000E+03 0.  0.
        -13    1    3    3    0    0  0.24925746870E+02  0.11570821238E+02  0.14504855024E+02  0.31073762959E+02  0.10566000000E+00 0.  1.
         23    2    1    0    0    0 -0.14413426675E+02  0.48391830626E-01 -0.30083619065E+02  0.91641742456E+02  0.85354763277E+02 0.  0.
         13    1    3    3    0    0 -0.39339173545E+02 -0.11522429408E+02 -0.44588474090E+02  0.60567979497E+02  0.10566000000E+00 0. -1.
         22    1    1    0    0    0  0.14413426675E+02 -0.48391830626E-01  0.30083619065E+02  0.33358257544E+02  0.00000000000E+00 0. -1.
</event>
<event>
 5    1  0.1764311E-003  0.9118800E+02  0.7818608E-02  0.1130116E+00
         25   -1    0    0    0    0  0.00000000000E+00  0.00000000000E+00  0.99999998245E-14  0.12500000000E+03  0.12500000000E+03 0.  0.
        -13    1    3    3    0    0  0.56119112406E+02  0.11641690514E+02  0.63063438320E+01  0.57659906970E+02  0.10566000000E+00 0.  1.
         23    2    1    0    0    0  0.26418297408E+02 -0.50516655989E+00 -0.13457908731E+02  0.95347058517E+02  0.90618787397E+02 0.  0.
         13    1    3    3    0    0 -0.29700814998E+02 -0.12146857074E+02 -0.19764252563E+02  0.37687151547E+02  0.10566000000E+00 0. -1.
         22    1    1    0    0    0 -0.26418297408E+02  0.50516655989E+00  0.13457908731E+02  0.29652941483E+02  0.00000000000E+00 0.  1.
</event>
<event>
 5    1  0.1764311E-003  0.9118800E+02  0.7818608E-02  0.1130116E+00
         25   -1    0    0    0    0  0.00000000000E+00  0.00000000000E+00  0.99999998245E-14  0.12500000000E+03  0.12500000000E+03 0.  0.
        -13    1    3    3    0    0 -0.36550056559E+02 -0.44522461860E+02  0.74055613244E+01  0.58077618297E+02  0.10566000000E+00 0. -1.
         23    2    1    0    0    0 -0.49527361305E+01 -0.29004283041E+02 -0.44892080132E+01  0.95235406630E+02  0.90464643134E+02 0.  0.
         13    1    3    3    0    0  0.31597320429E+02  0.15518178819E+02 -0.11894769338E+02  0.37157788332E+02  0.10566000000E+00 0.  1.
         22    1    1    0    0    0  0.49527361305E+01  0.29004283041E+02  0.44892080132E+01  0.29764593370E+02  0.00000000000E+00 0. -1.
</event>
<event>
 5    1  0.1764311E-003  0.9118800E+02  0.7818608E-02  0.1130116E+00
         25   -1    0    0    0    0  0.00000000000E+00  0.00000000000E+00  0.99999998245E-14  0.12500000000E+03  0.12500000000E+03 0.  0.
        -13    1    3    3    0    0  0.30253094858E+02 -0.15933826301E+02 -0.25591996812E+02  0.42709460708E+02  0.10566000000E+00 0. -1.
         23    2    1    0    0    0  0.18177128326E+02 -0.96923301579E+00  0.23407804417E+02  0.95347466981E+02  0.90619350832E+02 0.  0.
         13    1    3    3    0    0 -0.12075966531E+02  0.14964593285E+02  0.48999801229E+02  0.52638006273E+02  0.10566000000E+00 0.  1.
         22    1    1    0    0    0 -0.18177128326E+02  0.96923301579E+00 -0.23407804417E+02  0.29652533019E+02  0.00000000000E+00 0.  1.
</event>
<event>
 5    1  0.1764311E-003  0.9118800E+02  0.7818608E-02  0.1130116E+00
         25   -1    0    0    0    0  0.00000000000E+00  0.00000000000E+00  0.99999998245E-14  0.12500000000E+03  0.12500000000E+03 0.  0.
        -13    1    3    3    0    0 -0.44926974293E+02  0.15758097529E+02  0.30411813367E+02  0.56494603398E+02  0.10566000000E+00 0.  1.
         23    2    1    0    0    0 -0.12882379576E+02  0.18511038463E+02  0.28419974087E+02  0.88719024605E+02  0.80961448550E+02 0.  0.
         13    1    3    3    0    0  0.32044594717E+02  0.27529409347E+01 -0.19918392800E+01  0.32224421207E+02  0.10566000000E+00 0. -1.
         22    1    1    0    0    0  0.12882379576E+02 -0.18511038463E+02 -0.28419974087E+02  0.36280975395E+02  0.00000000000E+00 0.  1.
</event>
<event>
 5    1  0.1764311E-003  0.9118800E+02  0.7818608E-02  0.1130116E+00
         25   -1    0    0    0    0  0.00000000000E+00  0.00000000000E+00  0.99999998245E-14  0.12500000000E+03  0.12500000000E+03 0.  0.
        -13    1    3    3    0    0  0.44180878238E+02  0.84759288321E+01 -0.33387735345E+02  0.56022704388E+02  0.10566000000E+00 0.  1.
         23    2    1    0    0    0  0.67635980896E+01  0.12209881319E+02 -0.27603331365E+02  0.94068279011E+02  0.88837321845E+02 0.  0.
         13    1    3    3    0    0 -0.37417280149E+02  0.37339524864E+01  0.57844039802E+01  0.38045574622E+02  0.10566000000E+00 0. -1.
         22    1    1    0    0    0 -0.67635980896E+01 -0.12209881319E+02  0.27603331365E+02  0.30931720989E+02  0.00000000000E+00 0.  1.
</event>
<event>
 5    1  0.1764311E-003  0.9118800E+02  0.7818608E-02  0.1130116E+00
         25   -1    0    0    0    0  0.00000000000E+00  0.00000000000E+00  0.99999998245E-14  0.12500000000E+03  0.12500000000E+03 0.  0.
        -13    1    3    3    0    0  0.14218663996E+02  0.43346856231E+02  0.42222646194E+02  0.62160142911E+02  0.10566000000E+00 0.  1.
         23    2    1    0    0    0  0.95967108268E+01  0.19711366948E+02  0.15399526928E+02  0.98208578327E+02  0.94483567787E+02 0.  0.
         13    1    3    3    0    0 -0.46219531690E+01 -0.23635489283E+02 -0.26823119267E+02  0.36048435417E+02  0.10566000000E+00 0. -1.
         22    1    1    0    0    0 -0.95967108268E+01 -0.19711366948E+02 -0.15399526928E+02  0.26791421673E+02  0.00000000000E+00 0.  1.
</event>
<event>
 5    1  0.1764311E-003  0.9118800E+02  0.7818608E-02  0.1130116E+00
         25   -1    0    0    0    0  0.00000000000E+00  0.00000000000E+00  0.99999998245E-14  0.12500000000E+03  0.12500000000E+03 0.  0.
        -13    1    3    3    0    0  0.28784246342E+02  0.20062891298E+01 -0.18105208467E+02  0.34064171371E+02  0.10566000000E+00 0. -1.
         23    2    1    0    0    0 -0.28903913783E+02  0.66247804683E+01  0.18709630964E+01  0.95287638075E+02  0.90536785446E+02 0.  0.
         13    1    3    3    0    0 -0.57688160125E+02  0.46184913385E+01  0.19976171563E+02  0.61223466704E+02  0.10566000000E+00 0.  1.
         22    1    1    0    0    0  0.28903913783E+02 -0.66247804683E+01 -0.18709630964E+01  0.29712361925E+02  0.00000000000E+00 0.  1.
</event>
<event>
 5    1  0.1764311E-003  0.9118800E+02  0.7818608E-02  0.1130116E+00
         25   -1    0    0    0    0  0.00000000000E+00  0.00000000000E+00  0.99999998245E-14  0.12500000000E+03  0.12500000000E+03 0.  0.
        -13    1    3    3    0    0  0.12140371650E+02  0.44507771359E+02 -0.15824220511E+02  0.48772404636E+02  0.10566000000E+00 0.  1.
         23    2    1    0    0    0  0.28124382781E+02  0.96316620037E+01  0.83543712966E+01  0.94120470542E+02  0.88910728462E+02 0.  0.
         13    1    3    3    0    0  0.15984011131E+02 -0.34876109356E+02  0.24178591807E+02  0.45348065906E+02  0.10566000000E+00 0. -1.
         22    1    1    0    0    0 -0.28124382781E+02 -0.96316620037E+01 -0.83543712966E+01  0.30879529458E+02  0.00000000000E+00 0.  1.
</event>
<event>
 5    1  0.1764311E-003  0.9118800E+02  0.7818608E-02  0.1130116E+00
         25   -1    0    0    0    0  0.00000000000E+00  0.00000000000E+00  0.99999998245E-14  0.12500000000E+03  0.12500000000E+03 0.  0.
        -13    1    3    3    0    0 -0.20547557240E+02 -0.18177306512E+02  0.29162180683E+02  0.40038238308E+02  0.10566000000E+00 0. -1.
         23    2    1    0    0    0  0.28325925749E+02 -0.67562400661E+01  0.62243203216E+01  0.95221702318E+02  0.90445705147E+02 0.  0.
         13    1    3    3    0    0  0.48873482989E+02  0.11421066446E+02 -0.22937860361E+02  0.55183464011E+02  0.10566000000E+00 0.  1.
         22    1    1    0    0    0 -0.28325925749E+02  0.67562400661E+01 -0.62243203216E+01  0.29778297682E+02  0.00000000000E+00 0.  1.
</event>
<event>
 5    1  0.1764311E-003  0.9118800E+02  0.7818608E-02  0.1130116E+00
         25   -1    0    0    0    0  0.00000000000E+00  0.00000000000E+00  0.99999998245E-14  0.12500000000E+03  0.12500000000E+03 0.  0.
        -13    1    3    3    0    0  0.19409943942E+02  0.24963147396E+02  0.30143180510E+02  0.43686693020E+02  0.10566000000E+00 0.  1.
         23    2    1    0    0    0  0.10911544879E+02 -0.23624695846E+02  0.13035647616E+02  0.95894739750E+02  0.91371138427E+02 0.  0.
         13    1    3    3    0    0 -0.84983990632E+01 -0.48587843242E+02 -0.17107532894E+02  0.52208046729E+02  0.10566000000E+00 0. -1.
         22    1    1    0    0    0 -0.10911544879E+02  0.23624695846E+02 -0.13035647616E+02  0.29105260250E+02  0.00000000000E+00 0. -1.
</event>
<event>
 5    1  0.1764311E-003  0.9118800E+02  0.7818608E-02  0.1130116E+00
         25   -1    0    0    0    0  0.00000000000E+00  0.00000000000E+00  0.99999998245E-14  0.12500000000E+03  0.12500000000E+03 0.  0.
        -13    1    3    3    0    0 -0.44635370773E+02 -0.14552508510E+02 -0.40650876852E+02  0.62101503853E+02  0.10566000000E+00 0.  1.
         23    2    1    0    0    0 -0.14353216762E+02 -0.85268198969E+01 -0.18368431431E+02  0.10017822000E+03  0.97054391971E+02 0.  0.
         13    1    3    3    0    0  0.30282154011E+02  0.60256886129E+01  0.22282445421E+02  0.38076716150E+02  0.10566000000E+00 0. -1.
         22    1    1    0    0    0  0.14353216762E+02  0.85268198969E+01  0.18368431431E+02  0.24821779997E+02  0.00000000000E+00 0.  1.
</event>
<event>
 5    1  0.1764311E-003  0.9118800E+02  0.7818608E-02  0.1130116E+00
         25   -1    0    0    0    0  0.00000000000E+00  0.00000000000E+00  0.99999998245E-14  0.12500000000E+03  0.12500000000E+03 0.  0.
        -13    1    3    3    0    0  0.20654524874E+02 -0.83710790758E+01 -0.99089147944E+01  0.24390205393E+02  0.10566000000E+00 0. -1.
         23    2    1    0    0    0 -0.34445992479E+02 -0.15790059431E+02 -0.21854350481E+02  0.81256828994E+02  0.68477786534E+02 0.  0.
         13    1    3    3    0    0 -0.55100517353E+02 -0.74189803549E+01 -0.11945435686E+02  0.56866623602E+02  0.10566000000E+00 0.  1.
         22    1    1    0    0    0  0.34445992479E+02  0.15790059431E+02  0.21854350481E+02  0.43743171006E+02  0.00000000000E+00 0.  1.
</event>
<event>
 5    1  0.1764311E-003  0.9118800E+02  0.7818608E-02  0.1130116E+00
         25   -1    0    0    0    0  0.00000000000E+00  0.00000000000E+00  0.99999998245E-14  0.12500000000E+03  0.12500000000E+03 0.  0.
        -13    1    3    3    0    0  0.15925458330E+01 -0.31478208166E+02 -0.43823219228E+02  0.53980547414E+02  0.10566000000E+00 0. -1.
         23    2    1    0    0    0 -0.14800913012E+02 -0.23341712831E+02 -0.49846352831E+01  0.96915321387E+02  0.92756834502E+02 0.  0.
         13    1    3    3    0    0 -0.16393458845E+02  0.81364953350E+01  0.38838583945E+02  0.42934773973E+02  0.10566000000E+00 0.  1.
         22    1    1    0    0    0  0.14800913012E+02  0.23341712831E+02  0.49846352831E+01  0.28084678613E+02  0.00000000000E+00 0. -1.
</event>
<event>
 5    1  0.1764311E-003  0.9118800E+02  0.7818608E-02  0.1130116E+00
         25   -1    0    0    0    0  0.00000000000E+00  0.00000000000E+00  0.99999998245E-14  0.12500000000E+03  0.12500000000E+03 0.  0.
        -13    1    3    3    0    0 -0.43297316237E+02 -0.11552731550E+02  0.25652670017E+02  0.51635199647E+02  0.10566000000E+00 0.  1.
         23    2    1    0    0    0 -0.29692476125E+02  0.17541357550E+02  0.42011410393E+01  0.90258210335E+02  0.83303976998E+02 0.  0.
         13    1    3    3    0    0  0.13604840112E+02  0.29094089100E+02 -0.21451528978E+02  0.38623010687E+02  0.10566000000E+00 0. -1.
         22    1    1    0    0    0  0.29692476125E+02 -0.17541357550E+02 -0.42011410393E+01  0.34741789665E+02  0.00000000000E+00 0.  1.
</event>
<event>
 5    1  0.1764311E-003  0.9118800E+02  0.7818608E-02  0.1130116E+00
         25   -1    0    0    0    0  0.00000000000E+00  0.00000000000E+00  0.99999998245E-14  0.12500000000E+03  0.12500000000E+03 0.  0.
        -13    1    3    3    0    0  0.97209819287E+01  0.15746816072E+02  0.30358674226E+02  0.35554464851E+02  0.10566000000E+00 0.  1.
         23    2    1    0    0    0 -0.17731669508E+02 -0.20699907187E+02 -0.94945503651E+01  0.96137485423E+02  0.91702624584E+02 0.  0.
         13    1    3    3    0    0 -0.27452651437E+02 -0.36446723259E+02 -0.39853224591E+02  0.60583020571E+02  0.10566000000E+00 0. -1.
         22    1    1    0    0    0  0.17731669508E+02  0.20699907187E+02  0.94945503651E+01  0.28862514577E+02  0.00000000000E+00 0. -1.
</event>
<event>
 5    1  0.1764311E-003  0.9118800E+02  0.7818608E-02  0.1130116E+00
         25   -1    0    0    0    0  0.00000000000E+00  0.00000000000E+00  0.99999998245E-14  0.12500000000E+03  0.12500000000E+03 0.  0.
        -13    1    3    3    0    0  0.24762895493E+01 -0.38676472012E+02 -0.27798396069E+02  0.47694480659E+02  0.10566000000E+00 0. -1.
         23    2    1    0    0    0  0.27122269176E+02 -0.11557379889E+01 -0.12419179632E+02  0.95147207195E+02  0.90342690898E+02 0.  0.
         13    1    3    3    0    0  0.24645979626E+02  0.37520734024E+02  0.15379216438E+02  0.47452726536E+02  0.10566000000E+00 0.  1.
         22    1    1    0    0    0 -0.27122269176E+02  0.11557379889E+01  0.12419179632E+02  0.29852792805E+02  0.00000000000E+00 0. -1.
</event>
<event>
 5    1  0.1764311E-003  0.9118800E+02  0.7818608E-02  0.1130116E+00
         25   -1    0    0    0    0  0.00000000000E+00  0.00000000000E+00  0.99999998245E-14  0.12500000000E+03  0.12500000000E+03 0.  0.
        -13    1    3    3    0    0  0.27996069008E+02  0.17036149417E+02  0.32365615026E+02  0.46060335071E+02  0.10566000000E+00 0.  1.
         23    2    1    0    0    0  0.24915842528E+02  0.21839680237E+01 -0.15027247922E+02  0.95821461563E+02  0.91270835379E+02 0.  0.
         13    1    3    3    0    0 -0.30802264802E+01 -0.14852181393E+02 -0.47392862948E+02  0.49761126492E+02  0.10566000000E+00 0. -1.
         22    1    1    0    0    0 -0.24915842528E+02 -0.21839680237E+01  0.15027247922E+02  0.29178538437E+02  0.00000000000E+00 0. -1.
</event>
<event>
 5    1  0.1764311E-003  0.9118800E+02  0.7818608E-02  0.1130116E+00
         25   -1    0    0    0    0  0.00000000000E+00  0.00000000000E+00  0.99999998245E-14  0.12500000000E+03  0.12500000000E+03 0.  0.
        -13    1    3    3    0    0 -0.39515771616E+02 -0.13791088688E+02 -0.35513738214E+02  0.54890136633E+02  0.10566000000E+00 0. -1.
         23    2    1    0    0    0 -0.31300618079E+02 -0.10307194128E+02  0.54980341989E+00  0.92041401324E+02  0.85938061015E+02 0.  0.
         13    1    3    3    0    0  0.82151535378E+01  0.34838945597E+01  0.36063541633E+02  0.37151264691E+02  0.10566000000E+00 0.  1.
         22    1    1    0    0    0  0.31300618079E+02  0.10307194128E+02 -0.54980341989E+00  0.32958598676E+02  0.00000000000E+00 0. -1.
</event>
<event>
 5    1  0.1764311E-003  0.9118800E+02  0.7818608E-02  0.1130116E+00
         25   -1    0    0    0    0  0.00000000000E+00  0.00000000000E+00  0.99999998245E-14  0.12500000000E+03  0.12500000000E+03 0.  0.
        -13    1    3    3    0    0  0.33294661825E+02 -0.22964737546E+02  0.51670399766E+00  0.40449868030E+02  0.10566000000E+00 0. -1.
         23    2    1    0    0    0  0.31785559473E+01  0.25159009429E+02  0.94866955139E+01  0.97924616990E+02  0.94107142383E+02 0.  0.
         13    1    3    3    0    0 -0.30116105877E+02  0.48123746975E+02  0.89699915162E+01  0.57474748960E+02  0.10566000000E+00 0.  1.
         22    1    1    0    0    0 -0.31785559473E+01 -0.25159009429E+02 -0.94866955139E+01  0.27075383010E+02  0.00000000000E+00 0.  1.
</event>
<event>
 5    1  0.1764311E-003  0.9118800E+02  0.7818608E-02  0.1130116E+00
         25   -1    0    0    0    0  0.00000000000E+00  0.00000000000E+00  0.99999998245E-14  0.12500000000E+03  0.12500000000E+03 0.  0.
        -13    1    3    3    0    0 -0.19358606505E+02  0.84170766196E+01  0.28073594591E+02  0.35124645222E+02  0.10566000000E+00 0. -1.
         23    2    1    0    0    0  0.23659283381E+02  0.18332749636E+01 -0.15458369159E+02  0.96678916613E+02  0.92437704175E+02 0.  0.
         13    1    3    3    0    0  0.43017889886E+02 -0.65838016560E+01 -0.43531963750E+02  0.61554271391E+02  0.10566000000E+00 0.  1.
         22    1    1    0    0    0 -0.23659283381E+02 -0.18332749636E+01  0.15458369159E+02  0.28321083387E+02  0.00000000000E+00 0.  1.
</event>
<event>
 5    1  0.1764311E-003  0.9118800E+02  0.7818608E-02  0.1130116E+00
         25   -1    0    0    0    0  0.00000000000E+00  0.00000000000E+00  0.99999998245E-14  0.12500000000E+03  0.12500000000E+03 0.  0.
        -13    1    3    3    0    0 -0.58625243836E+01  0.47603323077E+02 -0.19549562726E+02  0.51794228703E+02  0.10566000000E+00 0. -1.
         23    2    1    0    0    0 -0.88210915660E+01  0.25037316589E+02  0.16000035325E+02  0.94005161578E+02  0.88748466998E+02 0.  0.
         13    1    3    3    0    0 -0.29585671824E+01 -0.22566006488E+02  0.35549598051E+02  0.42210932876E+02  0.10566000000E+00 0.  1.
         22    1    1    0    0    0  0.88210915660E+01 -0.25037316589E+02 -0.16000035325E+02  0.30994838422E+02  0.00000000000E+00 0. -1.
</event>
<event>
 5    1  0.1764311E-003  0.9118800E+02  0.7818608E-02  0.1130116E+00
         25   -1    0    0    0    0  0.00000000000E+00  0.00000000000E+00  0.99999998245E-14  0.12500000000E+03  0.12500000000E+03 0.  0.
        -13    1    3    3    0    0 -0.33214206311E+02 -0.25730057056E+01 -0.34345438237E+02  0.47847927342E+02  0.10566000000E+00 0.  1.
         23    2    1    0    0    0  0.15435594013E+02 -0.48228368913E+01 -0.21281154810E+02  0.98271646735E+02  0.94566969306E+02 0.  0.
         13    1    3    3    0    0  0.48649800324E+02 -0.22498311858E+01  0.13064283427E+02  0.50423719393E+02  0.10566000000E+00 0. -1.
         22    1    1    0    0    0 -0.15435594013E+02  0.48228368913E+01  0.21281154810E+02  0.26728353265E+02  0.00000000000E+00 0.  1.
</event>
<event>
 5    1  0.1764311E-003  0.9118800E+02  0.7818608E-02  0.1130116E+00
         25   -1    0    0    0    0  0.00000000000E+00  0.00000000000E+00  0.99999998245E-14  0.12500000000E+03  0.12500000000E+03 0.  0.
        -13    1    3    3    0    0 -0.25612051987E+02 -0.11798918432E+02  0.53120444726E+02  0.60141370911E+02  0.10566000000E+00 0.  1.
         23    2    1    0    0    0 -0.17698467043E+02 -0.17019618387E+02  0.24409141019E+02  0.90377618352E+02  0.83482959866E+02 0.  0.
         13    1    3    3    0    0  0.79135849435E+01 -0.52206999553E+01 -0.28711303708E+02  0.30236247441E+02  0.10566000000E+00 0. -1.
         22    1    1    0    0    0  0.17698467043E+02  0.17019618387E+02 -0.24409141019E+02  0.34622381648E+02  0.00000000000E+00 0.  1.
</event>
<event>
 5    1  0.1764311E-003  0.9118800E+02  0.7818608E-02  0.1130116E+00
         25   -1    0    0    0    0  0.00000000000E+00  0.00000000000E+00  0.99999998245E-14  0.12500000000E+03  0.12500000000E+03 0.  0.
        -13    1    3    3    0    0  0.26952111678E+01 -0.36178050537E+02 -0.72354889518E+01  0.36992958361E+02  0.10566000000E+00 0.  1.
         23    2    1    0    0    0  0.34367499210E+01  0.20136869081E+02 -0.21758048556E+02  0.95155110598E+02  0.90353625548E+02 0.  0.
         13    1    3    3    0    0  0.74153875324E+00  0.56314919618E+02 -0.14522559604E+02  0.58162152237E+02  0.10566000000E+00 0. -1.
         22    1    1    0    0    0 -0.34367499210E+01 -0.20136869081E+02  0.21758048556E+02  0.29844889402E+02  0.00000000000E+00 0. -1.
</event>
<event>
 5    1  0.1764311E-003  0.9118800E+02  0.7818608E-02  0.1130116E+00
         25   -1    0    0    0    0  0.00000000000E+00  0.00000000000E+00  0.99999998245E-14  0.12500000000E+03  0.12500000000E+03 0.  0.
        -13    1    3    3    0    0  0.58449501957E+00 -0.92768396259E+01 -0.45696751255E+02  0.46632666953E+02  0.10566000000E+00 0. -1.
         23    2    1    0    0    0 -0.19948818529E+02 -0.23243473095E+02 -0.55028027516E+01  0.93879343832E+02  0.88571078564E+02 0.  0.
         13    1    3    3    0    0 -0.20533313549E+02 -0.13966633469E+02  0.40193948503E+02  0.47246676879E+02  0.10566000000E+00 0.  1.
         22    1    1    0    0    0  0.19948818529E+02  0.23243473095E+02  0.55028027516E+01  0.31120656168E+02  0.00000000000E+00 0. -1.
</event>
<event>
 5    1  0.1764311E-003  0.9118800E+02  0.7818608E-02  0.1130116E+00
         25   -1    0    0    0    0  0.00000000000E+00  0.00000000000E+00  0.99999998245E-14  0.12500000000E+03  0.12500000000E+03 0.  0.
        -13    1    3    3    0    0 -0.50728502404E+02 -0.29584551571E+02 -0.13250474107E+02  0.60201435829E+02  0.10566000000E+00 0. -1.
         23    2    1    0    0    0 -0.17400694690E+02 -0.17437880823E+02 -0.15748398016E+02  0.95761739050E+02  0.91189005711E+02 0.  0.
         13    1    3    3    0    0  0.33327807714E+02  0.12146670748E+02 -0.24979239082E+01  0.35560303221E+02  0.10566000000E+00 0.  1.
         22    1    1    0    0    0  0.17400694690E+02  0.17437880823E+02  0.15748398016E+02  0.29238260950E+02  0.00000000000E+00 0. -1.
</event>
<event>
 5    1  0.1764311E-003  0.9118800E+02  0.7818608E-02  0.1130116E+00
         25   -1    0    0    0    0  0.00000000000E+00  0.00000000000E+00  0.99999998245E-14  0.12500000000E+03  0.12500000000E+03 0.  0.
        -13    1    3    3    0    0 -0.25267667530E+02  0.18247228211E+02  0.18039877289E+02  0.36012007671E+02  0.10566000000E+00 0. -1.
         23    2    1    0    0    0  0.12905621388E+02 -0.77361560082E+00 -0.25156523535E+02  0.96715654138E+02  0.92487369594E+02 0.  0.
         13    1    3    3    0    0  0.38173288919E+02 -0.19020843812E+02 -0.43196400824E+02  0.60703646467E+02  0.10566000000E+00 0.  1.
         22    1    1    0    0    0 -0.12905621388E+02  0.77361560082E+00  0.25156523535E+02  0.28284345862E+02  0.00000000000E+00 0.  1.
</event>
<event>
 5    1  0.1764311E-003  0.9118800E+02  0.7818608E-02  0.1130116E+00
         25   -1    0    0    0    0  0.00000000000E+00  0.00000000000E+00  0.99999998245E-14  0.12500000000E+03  0.12500000000E+03 0.  0.
        -13    1    3    3    0    0  0.14615791070E+02  0.23349608238E+02  0.52432906131E+02  0.59228762969E+02  0.10566000000E+00 0.  1.
         23    2    1    0    0    0 -0.46411334907E+01  0.19118772371E+02  0.22044951725E+02  0.95452623236E+02  0.90764287079E+02 0.  0.
         13    1    3    3    0    0 -0.19256924561E+02 -0.42308358670E+01 -0.30387954406E+02  0.36223860267E+02  0.10566000000E+00 0. -1.
         22    1    1    0    0    0  0.46411334907E+01 -0.19118772371E+02 -0.22044951725E+02  0.29547376764E+02  0.00000000000E+00 0.  1.
</event>
<event>
 5    1  0.1764311E-003  0.9118800E+02  0.7818608E-02  0.1130116E+00
         25   -1    0    0    0    0  0.00000000000E+00  0.00000000000E+00  0.99999998245E-14  0.12500000000E+03  0.12500000000E+03 0.  0.
        -13    1    3    3    0    0  0.61568186160E+02 -0.65711636746E+01 -0.24987811593E+01  0.61968353297E+02  0.10566000000E+00 0. -1.
         23    2    1    0    0    0  0.28673449141E+02 -0.36281505136E+01 -0.68974474326E+01  0.95286283590E+02  0.90534915350E+02 0.  0.
         13    1    3    3    0    0 -0.32894737018E+02  0.29430131610E+01 -0.43986662733E+01  0.33317930293E+02  0.10566000000E+00 0.  1.
         22    1    1    0    0    0 -0.28673449141E+02  0.36281505136E+01  0.68974474326E+01  0.29713716410E+02  0.00000000000E+00 0. -1.
</event>
<event>
 5    1  0.1764311E-003  0.9118800E+02  0.7818608E-02  0.1130116E+00
         25   -1    0    0    0    0  0.00000000000E+00  0.00000000000E+00  0.99999998245E-14  0.12500000000E+03  0.12500000000E+03 0.  0.
        -13    1    3    3    0    0  0.20873814460E+02  0.80039210136E+01  0.24730204077E+02  0.33337262027E+02  0.10566000000E+00 0. -1.
         23    2    1    0    0    0 -0.15241397643E+02 -0.12322447166E+02 -0.21825133965E+02  0.95666071200E+02  0.91057771771E+02 0.  0.
         13    1    3    3    0    0 -0.36115212103E+02 -0.20326368180E+02 -0.46555338042E+02  0.62328809173E+02  0.10566000000E+00 0.  1.
         22    1    1    0    0    0  0.15241397643E+02  0.12322447166E+02  0.21825133965E+02  0.29333928800E+02  0.00000000000E+00 0.  1.
</event>
<event>
 5    1  0.1764311E-003  0.9118800E+02  0.7818608E-02  0.1130116E+00
         25   -1    0    0    0    0  0.00000000000E+00  0.00000000000E+00  0.99999998245E-14  0.12500000000E+03  0.12500000000E+03 0.  0.
        -13    1    3    3    0    0  0.37308665385E+02 -0.42740779214E+02 -0.19913475439E+02  0.60127101949E+02  0.10566000000E+00 0.  1.
         23    2    1    0    0    0  0.17414118314E+02 -0.32216693911E+02 -0.21224507461E+02  0.82672153372E+02  0.71014353077E+02 0.  0.
         13    1    3    3    0    0 -0.19894547072E+02  0.10524085303E+02 -0.13110320213E+01  0.22545051423E+02  0.10566000000E+00 0. -1.
         22    1    1    0    0    0 -0.17414118314E+02  0.32216693911E+02  0.21224507461E+02  0.42327846628E+02  0.00000000000E+00 0.  1.
</event>
<event>
 5    1  0.1764311E-003  0.9118800E+02  0.7818608E-02  0.1130116E+00
         25   -1    0    0    0    0  0.00000000000E+00  0.00000000000E+00  0.99999998245E-14  0.12500000000E+03  0.12500000000E+03 0.  0.
        -13    1    3    3    0    0 -0.37058333258E+02  0.44853051757E+02 -0.88004491915E+00  0.58188503666E+02  0.10566000000E+00 0. -1.
         23    2    1    0    0    0 -0.12260684320E+02  0.21974265721E+02 -0.16020488200E+02  0.95169666845E+02  0.90373761187E+02 0.  0.
         13    1    3    3    0    0  0.24797648937E+02 -0.22878786036E+02 -0.15140443281E+02  0.36981163179E+02  0.10566000000E+00 0.  1.
         22    1    1    0    0    0  0.12260684320E+02 -0.21974265721E+02  0.16020488200E+02  0.29830333155E+02  0.00000000000E+00 0. -1.
</event>
<event>
 5    1  0.1764311E-003  0.9118800E+02  0.7818608E-02  0.1130116E+00
         25   -1    0    0    0    0  0.00000000000E+00  0.00000000000E+00  0.99999998245E-14  0.12500000000E+03  0.12500000000E+03 0.  0.
        -13    1    3    3    0    0  0.23135579583E+02  0.30785183667E+02  0.98338937515E+01  0.39745430007E+02  0.10566000000E+00 0.  1.
         23    2    1    0    0    0 -0.20160209514E+02  0.10199465569E+02 -0.18818584162E+02  0.95595880299E+02  0.90961365836E+02 0.  0.
         13    1    3    3    0    0 -0.43295789098E+02 -0.20585718099E+02 -0.28652477913E+02  0.55850450292E+02  0.10566000000E+00 0. -1.
         22    1    1    0    0    0  0.20160209514E+02 -0.10199465569E+02  0.18818584162E+02  0.29404119701E+02  0.00000000000E+00 0. -1.
</event>
<event>
 5    1  0.1764311E-003  0.9118800E+02  0.7818608E-02  0.1130116E+00
         25   -1    0    0    0    0  0.00000000000E+00  0.00000000000E+00  0.99999998245E-14  0.12500000000E+03  0.12500000000E+03 0.  0.
        -13    1    3    3    0    0  0.52978144939E+01  0.31818838358E+02 -0.20446170389E+02  0.38191129343E+02  0.10566000000E+00 0.  1.
         23    2    1    0    0    0 -0.11829347873E+02  0.23915771478E+01  0.26323392513E+02  0.96041855969E+02  0.91572179138E+02 0.  0.
         13    1    3    3    0    0 -0.17127162367E+02 -0.29427261210E+02  0.46769562902E+02  0.57850726626E+02  0.10566000000E+00 0. -1.
         22    1    1    0    0    0  0.11829347873E+02 -0.23915771478E+01 -0.26323392513E+02  0.28958144031E+02  0.00000000000E+00 0. -1.
</event>
<event>
 5    1  0.1764311E-003  0.9118800E+02  0.7818608E-02  0.1130116E+00
         25   -1    0    0    0    0  0.00000000000E+00  0.00000000000E+00  0.99999998245E-14  0.12500000000E+03  0.12500000000E+03 0.  0.
        -13    1    3    3    0    0  0.51418995590E+01 -0.44593069673E+02  0.13938679567E+02  0.47002967417E+02  0.10566000000E+00 0.  1.
         23    2    1    0    0    0 -0.18823032850E+02 -0.20845016063E+02 -0.16485322181E+02  0.92433343620E+02  0.86506276680E+02 0.  0.
         13    1    3    3    0    0 -0.23964932409E+02  0.23748053609E+02 -0.30424001748E+02  0.45430376203E+02  0.10566000000E+00 0. -1.
         22    1    1    0    0    0  0.18823032850E+02  0.20845016063E+02  0.16485322181E+02  0.32566656380E+02  0.00000000000E+00 0. -1.
</event>
<event>
 5    1  0.1764311E-003  0.9118800E+02  0.7818608E-02  0.1130116E+00
         25   -1    0    0    0    0  0.00000000000E+00  0.00000000000E+00  0.99999998245E-14  0.12500000000E+03  0.12500000000E+03 0.  0.
        -13    1    3    3    0    0 -0.26876421586E+02  0.10188505958E+02  0.11888721282E+02  0.31104670850E+02  0.10566000000E+00 0. -1.
         23    2    1    0    0    0  0.19786368767E+02 -0.16845639953E+02 -0.18589096203E+02  0.93049562256E+02  0.87392165346E+02 0.  0.
         13    1    3    3    0    0  0.46662790353E+02 -0.27034145912E+02 -0.30477817484E+02  0.61944891406E+02  0.10566000000E+00 0.  1.
         22    1    1    0    0    0 -0.19786368767E+02  0.16845639953E+02  0.18589096203E+02  0.31950437744E+02  0.00000000000E+00 0.  1.
</event>
<event>
 5    1  0.1764311E-003  0.9118800E+02  0.7818608E-02  0.1130116E+00
         25   -1    0    0    0    0  0.00000000000E+00  0.00000000000E+00  0.99999998245E-14  0.12500000000E+03  0.12500000000E+03 0.  0.
        -13    1    3    3    0    0 -0.40503570615E+02 -0.35403215833E+00  0.40209091449E+02  0.57074046383E+02  0.10566000000E+00 0.  1.
         23    2    1    0    0    0 -0.25841963582E+02 -0.13204433650E+02  0.77089286274E+01  0.94973482880E+02  0.90102001754E+02 0.  0.
         13    1    3    3    0    0  0.14661607033E+02 -0.12850401492E+02 -0.32500162822E+02  0.37899436497E+02  0.10566000000E+00 0. -1.
         22    1    1    0    0    0  0.25841963582E+02  0.13204433650E+02 -0.77089286274E+01  0.30026517120E+02  0.00000000000E+00 0.  1.
</event>
<event>
 5    1  0.1764311E-003  0.9118800E+02  0.7818608E-02  0.1130116E+00
         25   -1    0    0    0    0  0.00000000000E+00  0.00000000000E+00  0.99999998245E-14  0.12500000000E+03  0.12500000000E+03 0.  0.
        -13    1    3    3    0    0 -0.12393398774E+02 -0.31291167166E+02 -0.41337268892E+02  0.53305857457E+02  0.10566000000E+00 0. -1.
         23    2    1    0    0    0 -0.12223107301E+02  0.79957531533E+01 -0.25394119265E+02  0.95704988243E+02  0.91111179670E+02 0.  0.
         13    1    3    3    0    0  0.17029147268E+00  0.39286920319E+02  0.15943149627E+02  0.42399130786E+02  0.10566000000E+00 0.  1.
         22    1    1    0    0    0  0.12223107301E+02 -0.79957531533E+01  0.25394119265E+02  0.29295011757E+02  0.00000000000E+00 0. -1.
</event>
<event>
 5    1  0.1764311E-003  0.9118800E+02  0.7818608E-02  0.1130116E+00
         25   -1    0    0    0    0  0.00000000000E+00  0.00000000000E+00  0.99999998245E-14  0.12500000000E+03  0.12500000000E+03 0.  0.
        -13    1    3    3    0    0  0.28409695697E+02  0.33778697186E+02  0.24580205434E+02  0.50520380604E+02  0.10566000000E+00 0. -1.
         23    2    1    0    0    0  0.18419607652E+02  0.17343847294E+02 -0.15747305766E+02  0.95199519737E+02  0.90415042633E+02 0.  0.
         13    1    3    3    0    0 -0.99900880447E+01 -0.16434849892E+02 -0.40327511199E+02  0.44679139133E+02  0.10566000000E+00 0.  1.
         22    1    1    0    0    0 -0.18419607652E+02 -0.17343847294E+02  0.15747305766E+02  0.29800480263E+02  0.00000000000E+00 0. -1.
</event>
<event>
 5    1  0.1764311E-003  0.9118800E+02  0.7818608E-02  0.1130116E+00
         25   -1    0    0    0    0  0.00000000000E+00  0.00000000000E+00  0.99999998245E-14  0.12500000000E+03  0.12500000000E+03 0.  0.
        -13    1    3    3    0    0  0.20048024470E+02 -0.12112785551E+02 -0.50380855112E+02  0.55559738884E+02  0.10566000000E+00 0.  1.
         23    2    1    0    0    0  0.90114333688E+01  0.14992373161E+02 -0.26066298063E+02  0.93608455294E+02  0.88187946021E+02 0.  0.
         13    1    3    3    0    0 -0.11036591101E+02  0.27105158712E+02  0.24314557050E+02  0.38048716410E+02  0.10566000000E+00 0. -1.
         22    1    1    0    0    0 -0.90114333688E+01 -0.14992373161E+02  0.26066298063E+02  0.31391544706E+02  0.00000000000E+00 0.  1.
</event>
<event>
 5    1  0.1764311E-003  0.9118800E+02  0.7818608E-02  0.1130116E+00
         25   -1    0    0    0    0  0.00000000000E+00  0.00000000000E+00  0.99999998245E-14  0.12500000000E+03  0.12500000000E+03 0.  0.
        -13    1    3    3    0    0 -0.18326774383E+02 -0.14977951858E+02  0.24227535366E+02  0.33870257382E+02  0.10566000000E+00 0. -1.
         23    2    1    0    0    0  0.19486077056E+02  0.18538155897E+02 -0.11494761294E+02  0.95751069074E+02  0.91174378356E+02 0.  0.
         13    1    3    3    0    0  0.37812851439E+02  0.33516107755E+02 -0.35722296660E+02  0.61880811693E+02  0.10566000000E+00 0.  1.
         22    1    1    0    0    0 -0.19486077056E+02 -0.18538155897E+02  0.11494761294E+02  0.29248930926E+02  0.00000000000E+00 0.  1.
</event>
<event>
 5    1  0.1764311E-003  0.9118800E+02  0.7818608E-02  0.1130116E+00
         25   -1    0    0    0    0  0.00000000000E+00  0.00000000000E+00  0.99999998245E-14  0.12500000000E+03  0.12500000000E+03 0.  0.
        -13    1    3    3    0    0  0.23894939793E+02  0.18841385288E+02  0.17314066400E+02  0.35010769866E+02  0.10566000000E+00 0. -1.
         23    2    1    0    0    0 -0.25469781341E+02  0.50239140399E+01 -0.14422829927E+02  0.95302062412E+02  0.90556698278E+02 0.  0.
         13    1    3    3    0    0 -0.49364721134E+02 -0.13817471248E+02 -0.31736896328E+02  0.60291292546E+02  0.10566000000E+00 0.  1.
         22    1    1    0    0    0  0.25469781341E+02 -0.50239140399E+01  0.14422829927E+02  0.29697937588E+02  0.00000000000E+00 0.  1.
</event>
<event>
 5    1  0.1764311E-003  0.9118800E+02  0.7818608E-02  0.1130116E+00
         25   -1    0    0    0    0  0.00000000000E+00  0.00000000000E+00  0.99999998245E-14  0.12500000000E+03  0.12500000000E+03 0.  0.
        -13    1    3    3    0    0  0.10123355461E+02  0.81305700289E+01  0.52565722870E+02  0.54145682004E+02  0.10566000000E+00 0. -1.
         23    2    1    0    0    0 -0.77661207882E+01  0.21988832332E+02  0.17648643402E+02  0.95754556024E+02  0.91179158835E+02 0.  0.
         13    1    3    3    0    0 -0.17889476249E+02  0.13858262303E+02 -0.34917079468E+02  0.41608874019E+02  0.10566000000E+00 0.  1.
         22    1    1    0    0    0  0.77661207882E+01 -0.21988832332E+02 -0.17648643402E+02  0.29245443976E+02  0.00000000000E+00 0. -1.
</event>
<event>
 5    1  0.1764311E-003  0.9118800E+02  0.7818608E-02  0.1130116E+00
         25   -1    0    0    0    0  0.00000000000E+00  0.00000000000E+00  0.99999998245E-14  0.12500000000E+03  0.12500000000E+03 0.  0.
        -13    1    3    3    0    0  0.42783617134E+02 -0.53463849468E+01 -0.49511352448E+01  0.43399845983E+02  0.10566000000E+00 0. -1.
         23    2    1    0    0    0  0.14588082068E+01  0.28163570635E+02 -0.29988560911E+01  0.96639676128E+02  0.92384625517E+02 0.  0.
         13    1    3    3    0    0 -0.41324808927E+02  0.33509955582E+02  0.19522791537E+01  0.53239830145E+02  0.10566000000E+00 0.  1.
         22    1    1    0    0    0 -0.14588082068E+01 -0.28163570635E+02  0.29988560911E+01  0.28360323872E+02  0.00000000000E+00 0.  1.
</event>
<event>
 5    1  0.1764311E-003  0.9118800E+02  0.7818608E-02  0.1130116E+00
         25   -1    0    0    0    0  0.00000000000E+00  0.00000000000E+00  0.99999998245E-14  0.12500000000E+03  0.12500000000E+03 0.  0.
        -13    1    3    3    0    0 -0.26001612365E+02  0.39542429331E+02  0.32276193933E+02  0.57283954313E+02  0.10566000000E+00 0.  1.
         23    2    1    0    0    0 -0.18280288917E+02  0.23927671903E+02 -0.10303532018E+01  0.94870876659E+02  0.89959541821E+02 0.  0.
         13    1    3    3    0    0  0.77213234477E+01 -0.15614757427E+02 -0.33306547135E+02  0.37586922345E+02  0.10566000000E+00 0. -1.
         22    1    1    0    0    0  0.18280288917E+02 -0.23927671903E+02  0.10303532018E+01  0.30129123341E+02  0.00000000000E+00 0.  1.
</event>
<event>
 5    1  0.1764311E-003  0.9118800E+02  0.7818608E-02  0.1130116E+00
         25   -1    0    0    0    0  0.00000000000E+00  0.00000000000E+00  0.99999998245E-14  0.12500000000E+03  0.12500000000E+03 0.  0.
        -13    1    3    3    0    0  0.14668966644E+02 -0.30419798442E+02  0.19944187878E+02  0.39221480261E+02  0.10566000000E+00 0.  1.
         23    2    1    0    0    0 -0.29319696833E+02  0.60490569055E+00  0.37393755942E+01  0.95436619558E+02  0.90742244239E+02 0.  0.
         13    1    3    3    0    0 -0.43988663478E+02  0.31024704132E+02 -0.16204812284E+02  0.56215139298E+02  0.10566000000E+00 0. -1.
         22    1    1    0    0    0  0.29319696833E+02 -0.60490569055E+00 -0.37393755942E+01  0.29563380442E+02  0.00000000000E+00 0. -1.
</event>
<event>
 5    1  0.1764311E-003  0.9118800E+02  0.7818608E-02  0.1130116E+00
         25   -1    0    0    0    0  0.00000000000E+00  0.00000000000E+00  0.99999998245E-14  0.12500000000E+03  0.12500000000E+03 0.  0.
        -13    1    3    3    0    0 -0.14836662619E+02  0.24339286267E+02 -0.20566351491E+02  0.35149870432E+02  0.10566000000E+00 0.  1.
         23    2    1    0    0    0  0.23597677036E+02 -0.55175623176E+01  0.15944229358E+02  0.95991168496E+02  0.91502962378E+02 0.  0.
         13    1    3    3    0    0  0.38434339656E+02 -0.29856848585E+02  0.36510580849E+02  0.60841298064E+02  0.10566000000E+00 0. -1.
         22    1    1    0    0    0 -0.23597677036E+02  0.55175623176E+01 -0.15944229358E+02  0.29008831504E+02  0.00000000000E+00 0. -1.
</event>
<event>
 5    1  0.1764311E-003  0.9118800E+02  0.7818608E-02  0.1130116E+00
         25   -1    0    0    0    0  0.00000000000E+00  0.00000000000E+00  0.99999998245E-14  0.12500000000E+03  0.12500000000E+03 0.  0.
        -13    1    3    3    0    0  0.26559521460E+02 -0.76999742651E+01 -0.19627614704E+02  0.33910945237E+02  0.10566000000E+00 0.  1.
         23    2    1    0    0    0  0.26828137466E+02  0.35870952092E+02 -0.15156329222E+02  0.77711645415E+02  0.61667749705E+02 0.  0.
         13    1    3    3    0    0  0.26861600611E+00  0.43570926357E+02  0.44712854816E+01  0.43800700178E+02  0.10566000000E+00 0. -1.
         22    1    1    0    0    0 -0.26828137466E+02 -0.35870952092E+02  0.15156329222E+02  0.47288354585E+02  0.00000000000E+00 0. -1.
</event>
<event>
 5    1  0.1764311E-003  0.9118800E+02  0.7818608E-02  0.1130116E+00
         25   -1    0    0    0    0  0.00000000000E+00  0.00000000000E+00  0.99999998245E-14  0.12500000000E+03  0.12500000000E+03 0.  0.
        -13    1    3    3    0    0  0.30020122428E+02  0.18436493914E+02  0.37682549580E+02  0.51585829113E+02  0.10566000000E+00 0.  1.
         23    2    1    0    0    0 -0.12370655465E+02  0.11284231725E+02  0.22012782933E+02  0.97342639050E+02  0.93330915363E+02 0.  0.
         13    1    3    3    0    0 -0.42390777893E+02 -0.71522621888E+01 -0.15669766646E+02  0.45756809937E+02  0.10566000000E+00 0. -1.
         22    1    1    0    0    0  0.12370655465E+02 -0.11284231725E+02 -0.22012782933E+02  0.27657360950E+02  0.00000000000E+00 0.  1.
</event>
<event>
 5    1  0.1764311E-003  0.9118800E+02  0.7818608E-02  0.1130116E+00
         25   -1    0    0    0    0  0.00000000000E+00  0.00000000000E+00  0.99999998245E-14  0.12500000000E+03  0.12500000000E+03 0.  0.
        -13    1    3    3    0    0 -0.48562292800E+02  0.10549951300E+02 -0.29670820067E+02  0.57878894961E+02  0.10566000000E+00 0. -1.
         23    2    1    0    0    0 -0.14040606612E+02 -0.11459597295E+02 -0.32984444702E+01  0.10657879645E+03  0.10497475465E+03 0.  0.
         13    1    3    3    0    0  0.34521686188E+02 -0.22009548595E+02  0.26372375597E+02  0.48699901492E+02  0.10566000000E+00 0.  1.
         22    1    1    0    0    0  0.14040606612E+02  0.11459597295E+02  0.32984444702E+01  0.18421203547E+02  0.00000000000E+00 0. -1.
</event>
<event>
 5    1  0.1764311E-003  0.9118800E+02  0.7818608E-02  0.1130116E+00
         25   -1    0    0    0    0  0.00000000000E+00  0.00000000000E+00  0.99999998245E-14  0.12500000000E+03  0.12500000000E+03 0.  0.
        -13    1    3    3    0    0 -0.80065109531E+01  0.41122549787E+02 -0.34103725549E+02  0.54020769885E+02  0.10566000000E+00 0. -1.
         23    2    1    0    0    0 -0.14659988201E+02  0.20601941673E+01 -0.26900147807E+02  0.94295316219E+02  0.89156205924E+02 0.  0.
         13    1    3    3    0    0 -0.66534772477E+01 -0.39062355620E+02  0.72035777422E+01  0.40274546334E+02  0.10566000000E+00 0.  1.
         22    1    1    0    0    0  0.14659988201E+02 -0.20601941673E+01  0.26900147807E+02  0.30704683781E+02  0.00000000000E+00 0. -1.
</event>
<event>
 5    1  0.1764311E-003  0.9118800E+02  0.7818608E-02  0.1130116E+00
         25   -1    0    0    0    0  0.00000000000E+00  0.00000000000E+00  0.99999998245E-14  0.12500000000E+03  0.12500000000E+03 0.  0.
        -13    1    3    3    0    0 -0.31972125368E+02  0.44716087961E+02 -0.35697056897E+01  0.55086289455E+02  0.10566000000E+00 0. -1.
         23    2    1    0    0    0 -0.26859961365E+02  0.46117986093E+01 -0.98933942218E+01  0.96006803209E+02  0.91524318092E+02 0.  0.
         13    1    3    3    0    0  0.51121640029E+01 -0.40104289352E+02 -0.63236885320E+01  0.40920513754E+02  0.10566000000E+00 0.  1.
         22    1    1    0    0    0  0.26859961365E+02 -0.46117986093E+01  0.98933942218E+01  0.28993196791E+02  0.00000000000E+00 0. -1.
</event>
<event>
 5    1  0.1764311E-003  0.9118800E+02  0.7818608E-02  0.1130116E+00
         25   -1    0    0    0    0  0.00000000000E+00  0.00000000000E+00  0.99999998245E-14  0.12500000000E+03  0.12500000000E+03 0.  0.
        -13    1    3    3    0    0 -0.20298450050E+02 -0.75665206853E+00 -0.42037953959E+02  0.46688331881E+02  0.10566000000E+00 0. -1.
         23    2    1    0    0    0 -0.98691970983E+01 -0.25970515262E+02  0.48552430929E+00  0.97213232498E+02  0.93157437301E+02 0.  0.
         13    1    3    3    0    0  0.10429252952E+02 -0.25213863194E+02  0.42523478268E+02  0.50524900617E+02  0.10566000000E+00 0.  1.
         22    1    1    0    0    0  0.98691970983E+01  0.25970515262E+02 -0.48552430929E+00  0.27786767502E+02  0.00000000000E+00 0.  1.
</event>
<event>
 5    1  0.1764311E-003  0.9118800E+02  0.7818608E-02  0.1130116E+00
         25   -1    0    0    0    0  0.00000000000E+00  0.00000000000E+00  0.99999998245E-14  0.12500000000E+03  0.12500000000E+03 0.  0.
        -13    1    3    3    0    0 -0.20369194442E+02  0.36834383273E+02 -0.38953110558E+02  0.57350081599E+02  0.10566000000E+00 0.  1.
         23    2    1    0    0    0 -0.11013619920E+02  0.28135616830E+02 -0.40529720798E+01  0.94514932494E+02  0.89463585461E+02 0.  0.
         13    1    3    3    0    0  0.93555745214E+01 -0.86987664429E+01  0.34900138478E+02  0.37164850895E+02  0.10566000000E+00 0. -1.
         22    1    1    0    0    0  0.11013619920E+02 -0.28135616830E+02  0.40529720798E+01  0.30485067506E+02  0.00000000000E+00 0.  1.
</event>
<event>
 5    1  0.1764311E-003  0.9118800E+02  0.7818608E-02  0.1130116E+00
         25   -1    0    0    0    0  0.00000000000E+00  0.00000000000E+00  0.99999998245E-14  0.12500000000E+03  0.12500000000E+03 0.  0.
        -13    1    3    3    0    0 -0.25245542474E+02 -0.22252737468E+02  0.47266796226E+02  0.58023124090E+02  0.10566000000E+00 0.  1.
         23    2    1    0    0    0 -0.17448579409E+02  0.52772924901E+01  0.23752692225E+02  0.95058504924E+02  0.90219877140E+02 0.  0.
         13    1    3    3    0    0  0.77969630646E+01  0.27530029958E+02 -0.23514104002E+02  0.37035380834E+02  0.10566000000E+00 0. -1.
         22    1    1    0    0    0  0.17448579409E+02 -0.52772924901E+01 -0.23752692225E+02  0.29941495076E+02  0.00000000000E+00 0.  1.
</event>
<event>
 5    1  0.1764311E-003  0.9118800E+02  0.7818608E-02  0.1130116E+00
         25   -1    0    0    0    0  0.00000000000E+00  0.00000000000E+00  0.99999998245E-14  0.12500000000E+03  0.12500000000E+03 0.  0.
        -13    1    3    3    0    0  0.66456584943E+01 -0.18695799183E+02  0.50079641966E+02  0.53867238535E+02  0.10566000000E+00 0. -1.
         23    2    1    0    0    0  0.11513268611E+02 -0.25421129728E+02  0.91485859371E+01  0.95631891184E+02  0.91010838893E+02 0.  0.
         13    1    3    3    0    0  0.48676101167E+01 -0.67253305452E+01 -0.40931056029E+02  0.41764652649E+02  0.10566000000E+00 0.  1.
         22    1    1    0    0    0 -0.11513268611E+02  0.25421129728E+02 -0.91485859371E+01  0.29368108816E+02  0.00000000000E+00 0. -1.
</event>
<event>
 5    1  0.1764311E-003  0.9118800E+02  0.7818608E-02  0.1130116E+00
         25   -1    0    0    0    0  0.00000000000E+00  0.00000000000E+00  0.99999998245E-14  0.12500000000E+03  0.12500000000E+03 0.  0.
        -13    1    3    3    0    0 -0.31673396524E+02 -0.11648368219E+02 -0.32939769478E+02  0.47158542247E+02  0.10566000000E+00 0.  1.
         23    2    1    0    0    0 -0.95540108115E+01 -0.26771006138E+02  0.74380219676E+01  0.95618201842E+02  0.90992035148E+02 0.  0.
         13    1    3    3    0    0  0.22119385713E+02 -0.15122637919E+02  0.40377791446E+02  0.48459659595E+02  0.10566000000E+00 0. -1.
         22    1    1    0    0    0  0.95540108115E+01  0.26771006138E+02 -0.74380219676E+01  0.29381798158E+02  0.00000000000E+00 0. -1.
</event>
<event>
 5    1  0.1764311E-003  0.9118800E+02  0.7818608E-02  0.1130116E+00
         25   -1    0    0    0    0  0.00000000000E+00  0.00000000000E+00  0.99999998245E-14  0.12500000000E+03  0.12500000000E+03 0.  0.
        -13    1    3    3    0    0 -0.66769065721E+01  0.48396714086E+02  0.14685254585E+02  0.51014614396E+02  0.10566000000E+00 0.  1.
         23    2    1    0    0    0 -0.23713222967E+02  0.69766276753E+01  0.15527276055E+02  0.95809477927E+02  0.91254421711E+02 0.  0.
         13    1    3    3    0    0 -0.17036316395E+02 -0.41420086411E+02  0.84202147009E+00  0.44794863531E+02  0.10566000000E+00 0. -1.
         22    1    1    0    0    0  0.23713222967E+02 -0.69766276753E+01 -0.15527276055E+02  0.29190522073E+02  0.00000000000E+00 0. -1.
</event>
<event>
 5    1  0.1764311E-003  0.9118800E+02  0.7818608E-02  0.1130116E+00
         25   -1    0    0    0    0  0.00000000000E+00  0.00000000000E+00  0.99999998245E-14  0.12500000000E+03  0.12500000000E+03 0.  0.
        -13    1    3    3    0    0  0.22957413246E+02 -0.48019089797E+02 -0.15529850050E+02  0.55444235178E+02  0.10566000000E+00 0.  1.
         23    2    1    0    0    0  0.76603982253E+01 -0.12167235995E+02 -0.25542630996E+02  0.95688750778E+02  0.91088899953E+02 0.  0.
         13    1    3    3    0    0 -0.15297015020E+02  0.35851853802E+02 -0.10012780946E+02  0.40244515600E+02  0.10566000000E+00 0. -1.
         22    1    1    0    0    0 -0.76603982253E+01  0.12167235995E+02  0.25542630996E+02  0.29311249222E+02  0.00000000000E+00 0.  1.
</event>
<event>
 5    1  0.1764311E-003  0.9118800E+02  0.7818608E-02  0.1130116E+00
         25   -1    0    0    0    0  0.00000000000E+00  0.00000000000E+00  0.99999998245E-14  0.12500000000E+03  0.12500000000E+03 0.  0.
        -13    1    3    3    0    0 -0.18748832103E+02  0.57647077040E+02  0.77125764806E+01  0.61108094361E+02  0.10566000000E+00 0. -1.
         23    2    1    0    0    0 -0.34403449638E+01  0.32239704524E+02 -0.25026838855E+01  0.92480806469E+02  0.86574832471E+02 0.  0.
         13    1    3    3    0    0  0.15308487139E+02 -0.25407372516E+02 -0.10215260366E+02  0.31372712108E+02  0.10566000000E+00 0.  1.
         22    1    1    0    0    0  0.34403449638E+01 -0.32239704524E+02  0.25026838855E+01  0.32519193531E+02  0.00000000000E+00 0. -1.
</event>
<event>
 5    1  0.1764311E-003  0.9118800E+02  0.7818608E-02  0.1130116E+00
         25   -1    0    0    0    0  0.00000000000E+00  0.00000000000E+00  0.99999998245E-14  0.12500000000E+03  0.12500000000E+03 0.  0.
        -13    1    3    3    0    0  0.36560865996E+02  0.73770946165E+00  0.20177915830E+02  0.41766021942E+02  0.10566000000E+00 0.  1.
         23    2    1    0    0    0 -0.11913275107E+02 -0.22148563555E+02  0.15228641651E+02  0.95599378954E+02  0.90966173595E+02 0.  0.
         13    1    3    3    0    0 -0.48474141103E+02 -0.22886273017E+02 -0.49492741787E+01  0.53833357012E+02  0.10566000000E+00 0. -1.
         22    1    1    0    0    0  0.11913275107E+02  0.22148563555E+02 -0.15228641651E+02  0.29400621046E+02  0.00000000000E+00 0. -1.
</event>
<event>
 5    1  0.1764311E-003  0.9118800E+02  0.7818608E-02  0.1130116E+00
         25   -1    0    0    0    0  0.00000000000E+00  0.00000000000E+00  0.99999998245E-14  0.12500000000E+03  0.12500000000E+03 0.  0.
        -13    1    3    3    0    0  0.37512240201E+02 -0.21607756825E+02  0.44233087681E+02  0.61892168565E+02  0.10566000000E+00 0.  1.
         23    2    1    0    0    0  0.14314298530E+02 -0.15307766399E+02  0.19782333119E+02  0.96180430986E+02  0.91761145080E+02 0.  0.
         13    1    3    3    0    0 -0.23197941671E+02  0.62999904257E+01 -0.24450754562E+02  0.34288262420E+02  0.10566000000E+00 0. -1.
         22    1    1    0    0    0 -0.14314298530E+02  0.15307766399E+02 -0.19782333119E+02  0.28819569014E+02  0.00000000000E+00 0.  1.
</event>
<event>
 5    1  0.1764311E-003  0.9118800E+02  0.7818608E-02  0.1130116E+00
         25   -1    0    0    0    0  0.00000000000E+00  0.00000000000E+00  0.99999998245E-14  0.12500000000E+03  0.12500000000E+03 0.  0.
        -13    1    3    3    0    0  0.36040884639E+02  0.20394289454E+02  0.18459074476E+02  0.45338956786E+02  0.10566000000E+00 0. -1.
         23    2    1    0    0    0  0.10521651142E+02 -0.22657936260E+02  0.15767202236E+02  0.95458641117E+02  0.90772574488E+02 0.  0.
         13    1    3    3    0    0 -0.25519233497E+02 -0.43052225714E+02 -0.26918722392E+01  0.50119684331E+02  0.10566000000E+00 0.  1.
         22    1    1    0    0    0 -0.10521651142E+02  0.22657936260E+02 -0.15767202236E+02  0.29541358883E+02  0.00000000000E+00 0. -1.
</event>
<event>
 5    1  0.1764311E-003  0.9118800E+02  0.7818608E-02  0.1130116E+00
         25   -1    0    0    0    0  0.00000000000E+00  0.00000000000E+00  0.99999998245E-14  0.12500000000E+03  0.12500000000E+03 0.  0.
        -13    1    3    3    0    0 -0.15188167453E+02 -0.57588589561E+02 -0.17158191122E+02  0.61980164285E+02  0.10566000000E+00 0.  1.
         23    2    1    0    0    0 -0.12282129222E+02 -0.24507430690E+02 -0.85124574975E+01  0.96295875036E+02  0.91918272172E+02 0.  0.
         13    1    3    3    0    0  0.29060382307E+01  0.33081158871E+02  0.86457336246E+01  0.34315710751E+02  0.10566000000E+00 0. -1.
         22    1    1    0    0    0  0.12282129222E+02  0.24507430690E+02  0.85124574975E+01  0.28704124964E+02  0.00000000000E+00 0.  1.
</event>
<event>
 5    1  0.1764311E-003  0.9118800E+02  0.7818608E-02  0.1130116E+00
         25   -1    0    0    0    0  0.00000000000E+00  0.00000000000E+00  0.99999998245E-14  0.12500000000E+03  0.12500000000E+03 0.  0.
        -13    1    3    3    0    0  0.56510598170E+02 -0.45724440339E+01  0.11158133953E+02  0.57782956547E+02  0.10566000000E+00 0.  1.
         23    2    1    0    0    0  0.21055916292E+02 -0.15398545839E+02  0.14759206735E+02  0.95028329905E+02  0.90178059838E+02 0.  0.
         13    1    3    3    0    0 -0.35454681878E+02 -0.10826101805E+02  0.36010727821E+01  0.37245373358E+02  0.10566000000E+00 0. -1.
         22    1    1    0    0    0 -0.21055916292E+02  0.15398545839E+02 -0.14759206735E+02  0.29971670095E+02  0.00000000000E+00 0.  1.
</event>
<event>
 5    1  0.1764311E-003  0.9118800E+02  0.7818608E-02  0.1130116E+00
         25   -1    0    0    0    0  0.00000000000E+00  0.00000000000E+00  0.99999998245E-14  0.12500000000E+03  0.12500000000E+03 0.  0.
        -13    1    3    3    0    0 -0.89998598535E+01  0.30899314215E+02  0.16937140212E+02  0.36368158861E+02  0.10566000000E+00 0. -1.
         23    2    1    0    0    0  0.18299999416E+02 -0.14665548024E+02 -0.13851380908E+02  0.97763461480E+02  0.93892839823E+02 0.  0.
         13    1    3    3    0    0  0.27299859270E+02 -0.45564862239E+02 -0.30788521119E+02  0.61395302620E+02  0.10566000000E+00 0.  1.
         22    1    1    0    0    0 -0.18299999416E+02  0.14665548024E+02  0.13851380908E+02  0.27236538520E+02  0.00000000000E+00 0.  1.
</event>
<event>
 5    1  0.1764311E-003  0.9118800E+02  0.7818608E-02  0.1130116E+00
         25   -1    0    0    0    0  0.00000000000E+00  0.00000000000E+00  0.99999998245E-14  0.12500000000E+03  0.12500000000E+03 0.  0.
        -13    1    3    3    0    0  0.32573345520E+02  0.23252638215E+01 -0.22816184405E+02  0.39837408613E+02  0.10566000000E+00 0. -1.
         23    2    1    0    0    0 -0.19278025232E+02 -0.16989423680E+02 -0.13584256267E+02  0.95934302139E+02  0.91425245610E+02 0.  0.
         13    1    3    3    0    0 -0.51851370751E+02 -0.19314687501E+02  0.92319281384E+01  0.56096893526E+02  0.10566000000E+00 0.  1.
         22    1    1    0    0    0  0.19278025232E+02  0.16989423680E+02  0.13584256267E+02  0.29065697861E+02  0.00000000000E+00 0. -1.
</event>
<event>
 5    1  0.1764311E-003  0.9118800E+02  0.7818608E-02  0.1130116E+00
         25   -1    0    0    0    0  0.00000000000E+00  0.00000000000E+00  0.99999998245E-14  0.12500000000E+03  0.12500000000E+03 0.  0.
        -13    1    3    3    0    0  0.59090599576E+01 -0.37046734558E+02  0.34977443817E+02  0.51291424927E+02  0.10566000000E+00 0.  1.
         23    2    1    0    0    0  0.27207682328E+02 -0.10444283094E+02  0.79354054948E+01  0.94795502200E+02  0.89854746953E+02 0.  0.
         13    1    3    3    0    0  0.21298622370E+02  0.26602451464E+02 -0.27042038323E+02  0.43504077274E+02  0.10566000000E+00 0. -1.
         22    1    1    0    0    0 -0.27207682328E+02  0.10444283094E+02 -0.79354054948E+01  0.30204497800E+02  0.00000000000E+00 0.  1.
</event>
<event>
 5    1  0.1764311E-003  0.9118800E+02  0.7818608E-02  0.1130116E+00
         25   -1    0    0    0    0  0.00000000000E+00  0.00000000000E+00  0.99999998245E-14  0.12500000000E+03  0.12500000000E+03 0.  0.
        -13    1    3    3    0    0 -0.92409363882E+00  0.54174588840E+02 -0.30936493475E+01  0.54270819557E+02  0.10566000000E+00 0. -1.
         23    2    1    0    0    0 -0.82765298718E-01  0.20844403621E+02  0.21003829780E+02  0.95408499905E+02  0.90703500353E+02 0.  0.
         13    1    3    3    0    0  0.84132834011E+00 -0.33330185219E+02  0.24097479127E+02  0.41137680348E+02  0.10566000000E+00 0.  1.
         22    1    1    0    0    0  0.82765298718E-01 -0.20844403621E+02 -0.21003829780E+02  0.29591500095E+02  0.00000000000E+00 0. -1.
</event>
<event>
 5    1  0.1764311E-003  0.9118800E+02  0.7818608E-02  0.1130116E+00
         25   -1    0    0    0    0  0.00000000000E+00  0.00000000000E+00  0.99999998245E-14  0.12500000000E+03  0.12500000000E+03 0.  0.
        -13    1    3    3    0    0 -0.14143337493E+02 -0.27961115935E+02 -0.29524419634E+02  0.43052996626E+02  0.10566000000E+00 0.  1.
         23    2    1    0    0    0  0.17499038672E+02 -0.19812569046E+02  0.12065046376E+02  0.95942822045E+02  0.91436893601E+02 0.  0.
         13    1    3    3    0    0  0.31642376165E+02  0.81485468889E+01  0.41589466010E+02  0.52889825419E+02  0.10566000000E+00 0. -1.
         22    1    1    0    0    0 -0.17499038672E+02  0.19812569046E+02 -0.12065046376E+02  0.29057177955E+02  0.00000000000E+00 0.  1.
</event>
<event>
 5    1  0.1764311E-003  0.9118800E+02  0.7818608E-02  0.1130116E+00
         25   -1    0    0    0    0  0.00000000000E+00  0.00000000000E+00  0.99999998245E-14  0.12500000000E+03  0.12500000000E+03 0.  0.
        -13    1    3    3    0    0  0.31477806433E+02  0.18389730273E+02  0.92928329533E+01  0.37621833896E+02  0.10566000000E+00 0.  1.
         23    2    1    0    0    0  0.13135523772E+01 -0.60064278331E+01 -0.30906298417E+02  0.93488067705E+02  0.88017139957E+02 0.  0.
         13    1    3    3    0    0 -0.30164254056E+02 -0.24396158106E+02 -0.40199131370E+02  0.55866233809E+02  0.10566000000E+00 0. -1.
         22    1    1    0    0    0 -0.13135523772E+01  0.60064278331E+01  0.30906298417E+02  0.31511932295E+02  0.00000000000E+00 0. -1.
</event>
<event>
 5    1  0.1764311E-003  0.9118800E+02  0.7818608E-02  0.1130116E+00
         25   -1    0    0    0    0  0.00000000000E+00  0.00000000000E+00  0.99999998245E-14  0.12500000000E+03  0.12500000000E+03 0.  0.
        -13    1    3    3    0    0 -0.49318196863E+01  0.36693054255E+02  0.18673574328E+02  0.41465848818E+02  0.10566000000E+00 0. -1.
         23    2    1    0    0    0 -0.27823951751E+02 -0.20546253318E+01 -0.10600886720E+02  0.95154186633E+02  0.90352347276E+02 0.  0.
         13    1    3    3    0    0 -0.22892132064E+02 -0.38747679586E+02 -0.29274461047E+02  0.53688337816E+02  0.10566000000E+00 0.  1.
         22    1    1    0    0    0  0.27823951751E+02  0.20546253318E+01  0.10600886720E+02  0.29845813367E+02  0.00000000000E+00 0. -1.
</event>
<event>
 5    1  0.1764311E-003  0.9118800E+02  0.7818608E-02  0.1130116E+00
         25   -1    0    0    0    0  0.00000000000E+00  0.00000000000E+00  0.99999998245E-14  0.12500000000E+03  0.12500000000E+03 0.  0.
        -13    1    3    3    0    0  0.38274717339E+01 -0.39803054639E+02  0.49133174372E+01  0.40287523512E+02  0.10566000000E+00 0.  1.
         23    2    1    0    0    0  0.20808343145E+02  0.96800443515E+01  0.19810076098E+02  0.94682851089E+02  0.89697897256E+02 0.  0.
         13    1    3    3    0    0  0.16980871411E+02  0.49483098990E+02  0.14896758661E+02  0.54395327577E+02  0.10566000000E+00 0. -1.
         22    1    1    0    0    0 -0.20808343145E+02 -0.96800443515E+01 -0.19810076098E+02  0.30317148911E+02  0.00000000000E+00 0. -1.
</event>
<event>
 5    1  0.1764311E-003  0.9118800E+02  0.7818608E-02  0.1130116E+00
         25   -1    0    0    0    0  0.00000000000E+00  0.00000000000E+00  0.99999998245E-14  0.12500000000E+03  0.12500000000E+03 0.  0.
        -13    1    3    3    0    0  0.46301147773E+02 -0.15589043281E+02 -0.28363746205E+02  0.56491838510E+02  0.10566000000E+00 0.  1.
         23    2    1    0    0    0  0.15297601093E+02 -0.24321171632E+02 -0.61553666089E+01  0.95615913714E+02  0.90988891786E+02 0.  0.
         13    1    3    3    0    0 -0.31003546680E+02 -0.87321283512E+01  0.22208379596E+02  0.39124075204E+02  0.10566000000E+00 0. -1.
         22    1    1    0    0    0 -0.15297601093E+02  0.24321171632E+02  0.61553666089E+01  0.29384086286E+02  0.00000000000E+00 0.  1.
</event>
<event>
 5    1  0.1764311E-003  0.9118800E+02  0.7818608E-02  0.1130116E+00
         25   -1    0    0    0    0  0.00000000000E+00  0.00000000000E+00  0.99999998245E-14  0.12500000000E+03  0.12500000000E+03 0.  0.
        -13    1    3    3    0    0 -0.36855951850E+02 -0.22675413818E+02  0.18546823355E+02  0.47080053093E+02  0.10566000000E+00 0.  1.
         23    2    1    0    0    0 -0.15996012883E+02 -0.80236036495E+01 -0.23020829778E+02  0.95841652184E+02  0.91298483262E+02 0.  0.
         13    1    3    3    0    0  0.20859938967E+02  0.14651810169E+02 -0.41567653133E+02  0.48761599091E+02  0.10566000000E+00 0. -1.
         22    1    1    0    0    0  0.15996012883E+02  0.80236036495E+01  0.23020829778E+02  0.29158347816E+02  0.00000000000E+00 0. -1.
</event>
<event>
 5    1  0.1764311E-003  0.9118800E+02  0.7818608E-02  0.1130116E+00
         25   -1    0    0    0    0  0.00000000000E+00  0.00000000000E+00  0.99999998245E-14  0.12500000000E+03  0.12500000000E+03 0.  0.
        -13    1    3    3    0    0  0.22533849241E+02 -0.35821202196E+02  0.34241436913E+01  0.42457847478E+02  0.10566000000E+00 0.  1.
         23    2    1    0    0    0 -0.31119975476E+01 -0.26742103411E+01 -0.29165265104E+02  0.95547519319E+02  0.90894883408E+02 0.  0.
         13    1    3    3    0    0 -0.25645846788E+02  0.33146991855E+02 -0.32589408795E+02  0.53089671841E+02  0.10566000000E+00 0. -1.
         22    1    1    0    0    0  0.31119975476E+01  0.26742103411E+01  0.29165265104E+02  0.29452480681E+02  0.00000000000E+00 0.  1.
</event>
<event>
 5    1  0.1764311E-003  0.9118800E+02  0.7818608E-02  0.1130116E+00
         25   -1    0    0    0    0  0.00000000000E+00  0.00000000000E+00  0.99999998245E-14  0.12500000000E+03  0.12500000000E+03 0.  0.
        -13    1    3    3    0    0  0.29804655270E+02 -0.48517834334E+02  0.24717669186E+02  0.62074729627E+02  0.10566000000E+00 0.  1.
         23    2    1    0    0    0  0.14253034818E+02 -0.22938425622E+02  0.17339716962E+02  0.92906602613E+02  0.87187445502E+02 0.  0.
         13    1    3    3    0    0 -0.15551620452E+02  0.25579408712E+02 -0.73779522236E+01  0.30831872986E+02  0.10566000000E+00 0. -1.
         22    1    1    0    0    0 -0.14253034818E+02  0.22938425622E+02 -0.17339716962E+02  0.32093397387E+02  0.00000000000E+00 0.  1.
</event>
<event>
 5    1  0.1764311E-003  0.9118800E+02  0.7818608E-02  0.1130116E+00
         25   -1    0    0    0    0  0.00000000000E+00  0.00000000000E+00  0.99999998245E-14  0.12500000000E+03  0.12500000000E+03 0.  0.
        -13    1    3    3    0    0 -0.27458826283E+02  0.16403486616E+02 -0.29031865071E+02  0.43196317754E+02  0.10566000000E+00 0. -1.
         23    2    1    0    0    0 -0.18569794010E+02  0.21875745658E+00  0.21260057702E+02  0.96771022727E+02  0.92562171980E+02 0.  0.
         13    1    3    3    0    0  0.88890322727E+01 -0.16184729159E+02  0.50291922773E+02  0.53574704973E+02  0.10566000000E+00 0.  1.
         22    1    1    0    0    0  0.18569794010E+02 -0.21875745658E+00 -0.21260057702E+02  0.28228977273E+02  0.00000000000E+00 0.  1.
</event>
<event>
 5    1  0.1764311E-003  0.9118800E+02  0.7818608E-02  0.1130116E+00
         25   -1    0    0    0    0  0.00000000000E+00  0.00000000000E+00  0.99999998245E-14  0.12500000000E+03  0.12500000000E+03 0.  0.
        -13    1    3    3    0    0  0.44969568632E+02 -0.32717104264E+02 -0.76222611444E+01  0.56131818457E+02  0.10566000000E+00 0. -1.
         23    2    1    0    0    0  0.98450361292E+01 -0.17973731120E+02 -0.20176983329E+02  0.96240820543E+02  0.91843372846E+02 0.  0.
         13    1    3    3    0    0 -0.35124532503E+02  0.14743373143E+02 -0.12554722184E+02  0.40109002086E+02  0.10566000000E+00 0.  1.
         22    1    1    0    0    0 -0.98450361292E+01  0.17973731120E+02  0.20176983329E+02  0.28759179457E+02  0.00000000000E+00 0. -1.
</event>
<event>
 5    1  0.1764311E-003  0.9118800E+02  0.7818608E-02  0.1130116E+00
         25   -1    0    0    0    0  0.00000000000E+00  0.00000000000E+00  0.99999998245E-14  0.12500000000E+03  0.12500000000E+03 0.  0.
        -13    1    3    3    0    0  0.18240307085E+02  0.24092957005E+02 -0.18718145129E+02  0.35546582127E+02  0.10566000000E+00 0.  1.
         23    2    1    0    0    0 -0.40469859101E+00 -0.25995485021E+02  0.11080545237E+02  0.96738586284E+02  0.92518358022E+02 0.  0.
         13    1    3    3    0    0 -0.18645005676E+02 -0.50088442026E+02  0.29798690366E+02  0.61192004158E+02  0.10566000000E+00 0. -1.
         22    1    1    0    0    0  0.40469859101E+00  0.25995485021E+02 -0.11080545237E+02  0.28261413716E+02  0.00000000000E+00 0. -1.
</event>
<event>
 5    1  0.1764311E-003  0.9118800E+02  0.7818608E-02  0.1130116E+00
         25   -1    0    0    0    0  0.00000000000E+00  0.00000000000E+00  0.99999998245E-14  0.12500000000E+03  0.12500000000E+03 0.  0.
        -13    1    3    3    0    0 -0.39681834266E+01  0.41646990885E+02 -0.71657361027E+01  0.42444991076E+02  0.10566000000E+00 0.  1.
         23    2    1    0    0    0  0.89769510954E+01 -0.18140030969E+01  0.25219042655E+02  0.98169488066E+02  0.94431837939E+02 0.  0.
         13    1    3    3    0    0  0.12945134522E+02 -0.43460993982E+02  0.32384778757E+02  0.55724496991E+02  0.10566000000E+00 0. -1.
         22    1    1    0    0    0 -0.89769510954E+01  0.18140030969E+01 -0.25219042655E+02  0.26830511934E+02  0.00000000000E+00 0. -1.
</event>
<event>
 5    1  0.1764311E-003  0.9118800E+02  0.7818608E-02  0.1130116E+00
         25   -1    0    0    0    0  0.00000000000E+00  0.00000000000E+00  0.99999998245E-14  0.12500000000E+03  0.12500000000E+03 0.  0.
        -13    1    3    3    0    0 -0.18130315556E+02  0.20065520475E+02  0.22053904817E+02  0.34895835508E+02  0.10566000000E+00 0. -1.
         23    2    1    0    0    0  0.22137192561E+02 -0.18601191511E+02 -0.26904570484E+01  0.95960403253E+02  0.91460925062E+02 0.  0.
         13    1    3    3    0    0  0.40267508117E+02 -0.38666711986E+02 -0.24744361865E+02  0.61064567745E+02  0.10566000000E+00 0.  1.
         22    1    1    0    0    0 -0.22137192561E+02  0.18601191511E+02  0.26904570484E+01  0.29039596747E+02  0.00000000000E+00 0.  1.
</event>
<event>
 5    1  0.1764311E-003  0.9118800E+02  0.7818608E-02  0.1130116E+00
         25   -1    0    0    0    0  0.00000000000E+00  0.00000000000E+00  0.99999998245E-14  0.12500000000E+03  0.12500000000E+03 0.  0.
        -13    1    3    3    0    0 -0.41409561295E+02  0.10101501295E+01  0.44483816405E+02  0.60783165892E+02  0.10566000000E+00 0.  1.
         23    2    1    0    0    0 -0.12026003075E+02 -0.43314644106E+01  0.26325310065E+02  0.95735545726E+02  0.91153093374E+02 0.  0.
         13    1    3    3    0    0  0.29383558220E+02 -0.53416145401E+01 -0.18158506340E+02  0.34952379834E+02  0.10566000000E+00 0. -1.
         22    1    1    0    0    0  0.12026003075E+02  0.43314644106E+01 -0.26325310065E+02  0.29264454274E+02  0.00000000000E+00 0.  1.
</event>
<event>
 5    1  0.1764311E-003  0.9118800E+02  0.7818608E-02  0.1130116E+00
         25   -1    0    0    0    0  0.00000000000E+00  0.00000000000E+00  0.99999998245E-14  0.12500000000E+03  0.12500000000E+03 0.  0.
        -13    1    3    3    0    0 -0.32450981312E+02  0.16710263603E+02  0.15406288854E+02  0.39618985323E+02  0.10566000000E+00 0.  1.
         23    2    1    0    0    0  0.17844228980E+00 -0.27544469784E+02 -0.22383408599E+01  0.97364156840E+02  0.93359730131E+02 0.  0.
         13    1    3    3    0    0  0.32629423601E+02 -0.44254733387E+02 -0.17644629713E+02  0.57745171517E+02  0.10566000000E+00 0. -1.
         22    1    1    0    0    0 -0.17844228980E+00  0.27544469784E+02  0.22383408599E+01  0.27635843160E+02  0.00000000000E+00 0. -1.
</event>
<event>
 5    1  0.1764311E-003  0.9118800E+02  0.7818608E-02  0.1130116E+00
         25   -1    0    0    0    0  0.00000000000E+00  0.00000000000E+00  0.99999998245E-14  0.12500000000E+03  0.12500000000E+03 0.  0.
        -13    1    3    3    0    0  0.21518429560E+02  0.33535953496E+02  0.14101661269E+02  0.42267848327E+02  0.10566000000E+00 0.  1.
         23    2    1    0    0    0 -0.25509864996E+02  0.16197303373E+02 -0.14491312657E+01  0.94747631000E+02  0.89788126999E+02 0.  0.
         13    1    3    3    0    0 -0.47028294556E+02 -0.17338650122E+02 -0.15550792535E+02  0.52479782673E+02  0.10566000000E+00 0. -1.
         22    1    1    0    0    0  0.25509864996E+02 -0.16197303373E+02  0.14491312657E+01  0.30252369000E+02  0.00000000000E+00 0. -1.
</event>
<event>
 5    1  0.1764311E-003  0.9118800E+02  0.7818608E-02  0.1130116E+00
         25   -1    0    0    0    0  0.00000000000E+00  0.00000000000E+00  0.99999998245E-14  0.12500000000E+03  0.12500000000E+03 0.  0.
        -13    1    3    3    0    0 -0.19565143944E+02 -0.44099368035E+02  0.16766080800E+02  0.51075059942E+02  0.10566000000E+00 0. -1.
         23    2    1    0    0    0 -0.89684729952E+01 -0.18350455558E+02 -0.19475656756E+02  0.96778130233E+02  0.92571769770E+02 0.  0.
         13    1    3    3    0    0  0.10596670949E+02  0.25748912477E+02 -0.36241737556E+02  0.45703070292E+02  0.10566000000E+00 0.  1.
         22    1    1    0    0    0  0.89684729952E+01  0.18350455558E+02  0.19475656756E+02  0.28221869767E+02  0.00000000000E+00 0. -1.
</event>
<event>
 5    1  0.1764311E-003  0.9118800E+02  0.7818608E-02  0.1130116E+00
         25   -1    0    0    0    0  0.00000000000E+00  0.00000000000E+00  0.99999998245E-14  0.12500000000E+03  0.12500000000E+03 0.  0.
        -13    1    3    3    0    0  0.22939939492E+01 -0.11747188193E+02 -0.45937455122E+02  0.47471252204E+02  0.10566000000E+00 0.  1.
         23    2    1    0    0    0 -0.84322016127E+01  0.23731643717E+02 -0.15544050126E+02  0.95404215978E+02  0.90697596410E+02 0.  0.
         13    1    3    3    0    0 -0.10726195562E+02  0.35478831910E+02  0.30393404995E+02  0.47932963774E+02  0.10566000000E+00 0. -1.
         22    1    1    0    0    0  0.84322016127E+01 -0.23731643717E+02  0.15544050126E+02  0.29595784022E+02  0.00000000000E+00 0. -1.
</event>
<event>
 5    1  0.1764311E-003  0.9118800E+02  0.7818608E-02  0.1130116E+00
         25   -1    0    0    0    0  0.00000000000E+00  0.00000000000E+00  0.99999998245E-14  0.12500000000E+03  0.12500000000E+03 0.  0.
        -13    1    3    3    0    0  0.39333693920E+02 -0.39864917208E+02  0.20561975550E+02  0.59658671657E+02  0.10566000000E+00 0.  1.
         23    2    1    0    0    0  0.18637311180E+02 -0.12682589022E+02  0.21516288294E+02  0.93836750903E+02  0.88510946927E+02 0.  0.
         13    1    3    3    0    0 -0.20696382739E+02  0.27182328186E+02  0.95431274346E+00  0.34178079246E+02  0.10566000000E+00 0. -1.
         22    1    1    0    0    0 -0.18637311180E+02  0.12682589022E+02 -0.21516288294E+02  0.31163249097E+02  0.00000000000E+00 0.  1.
</event>
<event>
 5    1  0.1764311E-003  0.9118800E+02  0.7818608E-02  0.1130116E+00
         25   -1    0    0    0    0  0.00000000000E+00  0.00000000000E+00  0.99999998245E-14  0.12500000000E+03  0.12500000000E+03 0.  0.
        -13    1    3    3    0    0  0.48312269715E+02  0.65110362130E+01 -0.17638585336E+02  0.51842066454E+02  0.10566000000E+00 0.  1.
         23    2    1    0    0    0  0.21953648545E+02 -0.21524013780E+02  0.19578052757E+00  0.94254525802E+02  0.89098998033E+02 0.  0.
         13    1    3    3    0    0 -0.26358621170E+02 -0.28035049993E+02  0.17834365863E+02  0.42412459348E+02  0.10566000000E+00 0. -1.
         22    1    1    0    0    0 -0.21953648545E+02  0.21524013780E+02 -0.19578052757E+00  0.30745474198E+02  0.00000000000E+00 0.  1.
</event>
<event>
 5    1  0.1764311E-003  0.9118800E+02  0.7818608E-02  0.1130116E+00
         25   -1    0    0    0    0  0.00000000000E+00  0.00000000000E+00  0.99999998245E-14  0.12500000000E+03  0.12500000000E+03 0.  0.
        -13    1    3    3    0    0  0.28985787996E+02 -0.37204456430E+02 -0.26728366991E+02  0.54210370318E+02  0.10566000000E+00 0.  1.
         23    2    1    0    0    0  0.75991434084E-01 -0.30243656914E+02  0.81850334660E+00  0.94745173840E+02  0.89784706158E+02 0.  0.
         13    1    3    3    0    0 -0.28909796562E+02  0.69607995152E+01  0.27546870338E+02  0.40534803522E+02  0.10566000000E+00 0. -1.
         22    1    1    0    0    0 -0.75991434084E-01  0.30243656914E+02 -0.81850334660E+00  0.30254826160E+02  0.00000000000E+00 0.  1.
</event>
<event>
 4    1  0.1764311E-003  0.9118800E+02  0.7818608E-02  0.1130116E+00
         25   -1    0    0    0    0  0.00000000000E+00  0.00000000000E+00  0.99999998245E-14  0.12500000000E+03  0.12500000000E+03 0.  0.
        -13    1    1    0    0    0  0.74906191816E+01 -0.11371709520E+01  0.41749620791E+01  0.86512430261E+01  0.10566000000E+00 0.  1.
         13    1    1    0    0    0 -0.10225956316E+02  0.39818174966E+02 -0.44376845050E+02  0.60492749820E+02  0.10566000000E+00 0. -1.
         22    1    1    0    0    0  0.27353371347E+01 -0.38681004014E+02  0.40201882971E+02  0.55856007154E+02  0.00000000000E+00 0. -1.
</event>
<event>
 5    1  0.1764311E-003  0.9118800E+02  0.7818608E-02  0.1130116E+00
         25   -1    0    0    0    0  0.00000000000E+00  0.00000000000E+00  0.99999998245E-14  0.12500000000E+03  0.12500000000E+03 0.  0.
        -13    1    3    3    0    0  0.23287497419E+02  0.34284416075E+02 -0.17799367671E+02  0.45106068052E+02  0.10566000000E+00 0.  1.
         23    2    1    0    0    0 -0.20991863380E+02  0.22719380990E+02 -0.14055297362E+02  0.91023832107E+02  0.84445000011E+02 0.  0.
         13    1    3    3    0    0 -0.44279360799E+02 -0.11565035084E+02  0.37440703090E+01  0.45917764055E+02  0.10566000000E+00 0. -1.
         22    1    1    0    0    0  0.20991863380E+02 -0.22719380990E+02  0.14055297362E+02  0.33976167893E+02  0.00000000000E+00 0. -1.
</event>
<event>
 5    1  0.1764311E-003  0.9118800E+02  0.7818608E-02  0.1130116E+00
         25   -1    0    0    0    0  0.00000000000E+00  0.00000000000E+00  0.99999998245E-14  0.12500000000E+03  0.12500000000E+03 0.  0.
        -13    1    3    3    0    0 -0.33097933494E+01 -0.15326733035E+02  0.46279285590E+02  0.48863554069E+02  0.10566000000E+00 0. -1.
         23    2    1    0    0    0 -0.24401556894E+02  0.96806182592E+01  0.12374795900E+02  0.95977837395E+02  0.91484749268E+02 0.  0.
         13    1    3    3    0    0 -0.21091763544E+02  0.25007351294E+02 -0.33904489690E+02  0.47114283326E+02  0.10566000000E+00 0.  1.
         22    1    1    0    0    0  0.24401556894E+02 -0.96806182592E+01 -0.12374795900E+02  0.29022162605E+02  0.00000000000E+00 0. -1.
</event>
<event>
 5    1  0.1764311E-003  0.9118800E+02  0.7818608E-02  0.1130116E+00
         25   -1    0    0    0    0  0.00000000000E+00  0.00000000000E+00  0.99999998245E-14  0.12500000000E+03  0.12500000000E+03 0.  0.
        -13    1    3    3    0    0 -0.20618082593E+01 -0.17066924099E+02  0.51640495356E+02  0.54426858041E+02  0.10566000000E+00 0. -1.
         23    2    1    0    0    0 -0.13289160494E+02  0.11248772616E+02  0.22173007359E+02  0.96808176232E+02  0.92612332105E+02 0.  0.
         13    1    3    3    0    0 -0.11227352235E+02  0.28315696716E+02 -0.29467487997E+02  0.42381318191E+02  0.10566000000E+00 0.  1.
         22    1    1    0    0    0  0.13289160494E+02 -0.11248772616E+02 -0.22173007359E+02  0.28191823768E+02  0.00000000000E+00 0. -1.
</event>
<event>
 5    1  0.1764311E-003  0.9118800E+02  0.7818608E-02  0.1130116E+00
         25   -1    0    0    0    0  0.00000000000E+00  0.00000000000E+00  0.99999998245E-14  0.12500000000E+03  0.12500000000E+03 0.  0.
        -13    1    3    3    0    0  0.55732602349E+00 -0.38277169906E+02  0.42775334879E+02  0.57403769792E+02  0.10566000000E+00 0.  1.
         23    2    1    0    0    0  0.75404513501E+01 -0.28370932864E+02  0.75030888213E+01  0.94700419475E+02  0.89722376634E+02 0.  0.
         13    1    3    3    0    0  0.69831253266E+01  0.99062370421E+01 -0.35272246057E+02  0.37296649684E+02  0.10566000000E+00 0. -1.
         22    1    1    0    0    0 -0.75404513501E+01  0.28370932864E+02 -0.75030888213E+01  0.30299580525E+02  0.00000000000E+00 0.  1.
</event>
<event>
 5    1  0.1764311E-003  0.9118800E+02  0.7818608E-02  0.1130116E+00
         25   -1    0    0    0    0  0.00000000000E+00  0.00000000000E+00  0.99999998245E-14  0.12500000000E+03  0.12500000000E+03 0.  0.
        -13    1    3    3    0    0  0.37144074578E+02  0.13635043907E+02 -0.41808940182E+02  0.57563837101E+02  0.10566000000E+00 0.  1.
         23    2    1    0    0    0  0.19983105072E+02 -0.10972415048E+02 -0.20253928558E+02  0.94505082353E+02  0.89449821622E+02 0.  0.
         13    1    3    3    0    0 -0.17160969506E+02 -0.24607458955E+02  0.21555011624E+02  0.36941245252E+02  0.10566000000E+00 0. -1.
         22    1    1    0    0    0 -0.19983105072E+02  0.10972415048E+02  0.20253928558E+02  0.30494917647E+02  0.00000000000E+00 0.  1.
</event>
<event>
 5    1  0.1764311E-003  0.9118800E+02  0.7818608E-02  0.1130116E+00
         25   -1    0    0    0    0  0.00000000000E+00  0.00000000000E+00  0.99999998245E-14  0.12500000000E+03  0.12500000000E+03 0.  0.
        -13    1    3    3    0    0 -0.26576350640E+00  0.37401892924E+02  0.58704348524E+01  0.37860868901E+02  0.10566000000E+00 0. -1.
         23    2    1    0    0    0 -0.18927047413E+02 -0.16174296833E+02  0.15879616092E+02  0.95470299544E+02  0.90788627514E+02 0.  0.
         13    1    3    3    0    0 -0.18661283907E+02 -0.53576189757E+02  0.10009181240E+02  0.57609430643E+02  0.10566000000E+00 0.  1.
         22    1    1    0    0    0  0.18927047413E+02  0.16174296833E+02 -0.15879616092E+02  0.29529700456E+02  0.00000000000E+00 0.  1.
</event>
<event>
 5    1  0.1764311E-003  0.9118800E+02  0.7818608E-02  0.1130116E+00
         25   -1    0    0    0    0  0.00000000000E+00  0.00000000000E+00  0.99999998245E-14  0.12500000000E+03  0.12500000000E+03 0.  0.
        -13    1    3    3    0    0 -0.24867370336E+02 -0.23610088134E+02  0.44273155088E+02  0.55999516021E+02  0.10566000000E+00 0. -1.
         23    2    1    0    0    0 -0.24989488767E+02 -0.11314563949E+02  0.50468960697E+01  0.97107974865E+02  0.93016093856E+02 0.  0.
         13    1    3    3    0    0 -0.12211843127E+00  0.12295524185E+02 -0.39226259018E+02  0.41108458844E+02  0.10566000000E+00 0.  1.
         22    1    1    0    0    0  0.24989488767E+02  0.11314563949E+02 -0.50468960697E+01  0.27892025135E+02  0.00000000000E+00 0. -1.
</event>
<event>
 5    1  0.1764311E-003  0.9118800E+02  0.7818608E-02  0.1130116E+00
         25   -1    0    0    0    0  0.00000000000E+00  0.00000000000E+00  0.99999998245E-14  0.12500000000E+03  0.12500000000E+03 0.  0.
        -13    1    3    3    0    0  0.97808690595E+00  0.30245769147E+02 -0.51977177878E+02  0.60144836764E+02  0.10566000000E+00 0.  1.
         23    2    1    0    0    0  0.10784070911E+02  0.18217210107E+02 -0.19158115147E+02  0.96448357220E+02  0.92125399890E+02 0.  0.
         13    1    3    3    0    0  0.98059840048E+01 -0.12028559040E+02  0.32819062731E+02  0.36303520455E+02  0.10566000000E+00 0. -1.
         22    1    1    0    0    0 -0.10784070911E+02 -0.18217210107E+02  0.19158115147E+02  0.28551642780E+02  0.00000000000E+00 0.  1.
</event>
<event>
 5    1  0.1764311E-003  0.9118800E+02  0.7818608E-02  0.1130116E+00
         25   -1    0    0    0    0  0.00000000000E+00  0.00000000000E+00  0.99999998245E-14  0.12500000000E+03  0.12500000000E+03 0.  0.
        -13    1    3    3    0    0  0.10201797588E+02 -0.41000764391E+02  0.15701677826E+02  0.45074307596E+02  0.10566000000E+00 0.  1.
         23    2    1    0    0    0  0.28988182077E+02  0.92222104707E+00 -0.51814109538E+01  0.95537953037E+02  0.90881726762E+02 0.  0.
         13    1    3    3    0    0  0.18786384489E+02  0.41922985438E+02 -0.20883088780E+02  0.50463645441E+02  0.10566000000E+00 0. -1.
         22    1    1    0    0    0 -0.28988182077E+02 -0.92222104707E+00  0.51814109538E+01  0.29462046963E+02  0.00000000000E+00 0.  1.
</event>
<event>
 5    1  0.1764311E-003  0.9118800E+02  0.7818608E-02  0.1130116E+00
         25   -1    0    0    0    0  0.00000000000E+00  0.00000000000E+00  0.99999998245E-14  0.12500000000E+03  0.12500000000E+03 0.  0.
        -13    1    3    3    0    0  0.79763150467E+01  0.32231344220E+02  0.24749270438E+02  0.41412784297E+02  0.10566000000E+00 0. -1.
         23    2    1    0    0    0 -0.27470717982E+02  0.19586511306E+01 -0.54099595842E+01  0.96933216725E+02  0.92780947297E+02 0.  0.
         13    1    3    3    0    0 -0.35447033029E+02 -0.30272693090E+02 -0.30159230022E+02  0.55520432428E+02  0.10566000000E+00 0.  1.
         22    1    1    0    0    0  0.27470717982E+02 -0.19586511306E+01  0.54099595842E+01  0.28066783275E+02  0.00000000000E+00 0. -1.
</event>
<event>
 5    1  0.1764311E-003  0.9118800E+02  0.7818608E-02  0.1130116E+00
         25   -1    0    0    0    0  0.00000000000E+00  0.00000000000E+00  0.99999998245E-14  0.12500000000E+03  0.12500000000E+03 0.  0.
        -13    1    3    3    0    0  0.32473252744E+02  0.17921279138E+02  0.31987241881E+02  0.48978354371E+02  0.10566000000E+00 0. -1.
         23    2    1    0    0    0  0.45318408656E+01  0.29151192691E+02 -0.32382911713E+01  0.95321453091E+02  0.90583460260E+02 0.  0.
         13    1    3    3    0    0 -0.27941411878E+02  0.11229913553E+02 -0.35225533052E+02  0.46343098720E+02  0.10566000000E+00 0.  1.
         22    1    1    0    0    0 -0.45318408656E+01 -0.29151192691E+02  0.32382911713E+01  0.29678546909E+02  0.00000000000E+00 0.  1.
</event>
<event>
 5    1  0.1764311E-003  0.9118800E+02  0.7818608E-02  0.1130116E+00
         25   -1    0    0    0    0  0.00000000000E+00  0.00000000000E+00  0.99999998245E-14  0.12500000000E+03  0.12500000000E+03 0.  0.
        -13    1    3    3    0    0  0.13093308674E+02 -0.95473253988E+01  0.59962722256E+02  0.62113809887E+02  0.10566000000E+00 0. -1.
         23    2    1    0    0    0  0.11026302621E+02 -0.29266497540E+01  0.29161501398E+02  0.93686459924E+02  0.88298442688E+02 0.  0.
         13    1    3    3    0    0 -0.20670060524E+01  0.66206756448E+01 -0.30801220858E+02  0.31572650038E+02  0.10566000000E+00 0.  1.
         22    1    1    0    0    0 -0.11026302621E+02  0.29266497540E+01 -0.29161501398E+02  0.31313540076E+02  0.00000000000E+00 0. -1.
</event>
<event>
 5    1  0.1764311E-003  0.9118800E+02  0.7818608E-02  0.1130116E+00
         25   -1    0    0    0    0  0.00000000000E+00  0.00000000000E+00  0.99999998245E-14  0.12500000000E+03  0.12500000000E+03 0.  0.
        -13    1    3    3    0    0 -0.28462139305E+02 -0.28320173396E+02 -0.43233759544E+01  0.40383515680E+02  0.10566000000E+00 0.  1.
         23    2    1    0    0    0  0.24656278161E+02 -0.71453571394E+01  0.63522418246E+01  0.98554978586E+02  0.94940742816E+02 0.  0.
         13    1    3    3    0    0  0.53118417466E+02  0.21174816257E+02  0.10675617779E+02  0.58171462906E+02  0.10566000000E+00 0. -1.
         22    1    1    0    0    0 -0.24656278161E+02  0.71453571394E+01 -0.63522418246E+01  0.26445021414E+02  0.00000000000E+00 0. -1.
</event>
<event>
 5    1  0.1764311E-003  0.9118800E+02  0.7818608E-02  0.1130116E+00
         25   -1    0    0    0    0  0.00000000000E+00  0.00000000000E+00  0.99999998245E-14  0.12500000000E+03  0.12500000000E+03 0.  0.
        -13    1    3    3    0    0 -0.76644373228E+00  0.33541744218E+02  0.28961513195E+02  0.44321737914E+02  0.10566000000E+00 0.  1.
         23    2    1    0    0    0 -0.19096359769E+02 -0.13144931698E+02  0.17968938579E+02  0.95668396917E+02  0.91060964355E+02 0.  0.
         13    1    3    3    0    0 -0.18329916037E+02 -0.46686675916E+02 -0.10992574616E+02  0.51346659003E+02  0.10566000000E+00 0. -1.
         22    1    1    0    0    0  0.19096359769E+02  0.13144931698E+02 -0.17968938579E+02  0.29331603083E+02  0.00000000000E+00 0. -1.
</event>
<event>
 5    1  0.1764311E-003  0.9118800E+02  0.7818608E-02  0.1130116E+00
         25   -1    0    0    0    0  0.00000000000E+00  0.00000000000E+00  0.99999998245E-14  0.12500000000E+03  0.12500000000E+03 0.  0.
        -13    1    3    3    0    0  0.18460581725E+02 -0.25608241937E+02  0.25457856716E+02  0.40554762548E+02  0.10566000000E+00 0.  1.
         23    2    1    0    0    0 -0.71535341121E+01 -0.23982340179E+01 -0.23405704893E+02  0.10040830225E+03  0.97350272534E+02 0.  0.
         13    1    3    3    0    0 -0.25614115837E+02  0.23210007919E+02 -0.48863561609E+02  0.59853539702E+02  0.10566000000E+00 0. -1.
         22    1    1    0    0    0  0.71535341121E+01  0.23982340179E+01  0.23405704893E+02  0.24591697750E+02  0.00000000000E+00 0. -1.
</event>
<event>
 5    1  0.1764311E-003  0.9118800E+02  0.7818608E-02  0.1130116E+00
         25   -1    0    0    0    0  0.00000000000E+00  0.00000000000E+00  0.99999998245E-14  0.12500000000E+03  0.12500000000E+03 0.  0.
        -13    1    3    3    0    0  0.38037739636E+02  0.74651606041E+01 -0.79867211767E+01  0.39577735391E+02  0.10566000000E+00 0.  1.
         23    2    1    0    0    0 -0.46558395992E+01 -0.27224941201E+02 -0.12316003950E+02  0.94758336371E+02  0.89803029419E+02 0.  0.
         13    1    3    3    0    0 -0.42693579236E+02 -0.34690101805E+02 -0.43292827729E+01  0.55180600980E+02  0.10566000000E+00 0. -1.
         22    1    1    0    0    0  0.46558395992E+01  0.27224941201E+02  0.12316003950E+02  0.30241663629E+02  0.00000000000E+00 0. -1.
</event>
<event>
 5    1  0.1764311E-003  0.9118800E+02  0.7818608E-02  0.1130116E+00
         25   -1    0    0    0    0  0.00000000000E+00  0.00000000000E+00  0.99999998245E-14  0.12500000000E+03  0.12500000000E+03 0.  0.
        -13    1    3    3    0    0 -0.36122090115E+02  0.97916955912E+01  0.32776728668E+02  0.49749450279E+02  0.10566000000E+00 0. -1.
         23    2    1    0    0    0  0.93052875260E+01  0.10971918042E+02  0.25430397927E+02  0.95782257100E+02  0.91217127092E+02 0.  0.
         13    1    3    3    0    0  0.45427377641E+02  0.11802224511E+01 -0.73463307419E+01  0.46032806821E+02  0.10566000000E+00 0.  1.
         22    1    1    0    0    0 -0.93052875260E+01 -0.10971918042E+02 -0.25430397927E+02  0.29217742900E+02  0.00000000000E+00 0.  1.
</event>
<event>
 5    1  0.1764311E-003  0.9118800E+02  0.7818608E-02  0.1130116E+00
         25   -1    0    0    0    0  0.00000000000E+00  0.00000000000E+00  0.99999998245E-14  0.12500000000E+03  0.12500000000E+03 0.  0.
        -13    1    3    3    0    0  0.33959812202E+02 -0.16316560743E+02  0.25762238470E+02  0.45642119739E+02  0.10566000000E+00 0.  1.
         23    2    1    0    0    0 -0.13283479547E+01 -0.13219604199E+02 -0.18430369167E+02  0.10227994386E+03  0.99724550460E+02 0.  0.
         13    1    3    3    0    0 -0.35288160157E+02  0.30969565437E+01 -0.44192607637E+02  0.56637824119E+02  0.10566000000E+00 0. -1.
         22    1    1    0    0    0  0.13283479547E+01  0.13219604199E+02  0.18430369167E+02  0.22720056142E+02  0.00000000000E+00 0. -1.
</event>
<event>
 5    1  0.1764311E-003  0.9118800E+02  0.7818608E-02  0.1130116E+00
         25   -1    0    0    0    0  0.00000000000E+00  0.00000000000E+00  0.99999998245E-14  0.12500000000E+03  0.12500000000E+03 0.  0.
        -13    1    3    3    0    0 -0.22826855090E+01  0.60939789315E+01  0.40632493158E+02  0.41150430091E+02  0.10566000000E+00 0. -1.
         23    2    1    0    0    0 -0.16207714567E+02  0.19570945565E+02 -0.11751006484E+02  0.97003606032E+02  0.92875731534E+02 0.  0.
         13    1    3    3    0    0 -0.13925029058E+02  0.13476966634E+02 -0.52383499642E+02  0.55853175941E+02  0.10566000000E+00 0.  1.
         22    1    1    0    0    0  0.16207714567E+02 -0.19570945565E+02  0.11751006484E+02  0.27996393968E+02  0.00000000000E+00 0.  1.
</event>
<event>
 5    1  0.1764311E-003  0.9118800E+02  0.7818608E-02  0.1130116E+00
         25   -1    0    0    0    0  0.00000000000E+00  0.00000000000E+00  0.99999998245E-14  0.12500000000E+03  0.12500000000E+03 0.  0.
        -13    1    3    3    0    0 -0.46192360023E+02  0.28021699845E+02  0.17408403829E+02  0.56762782478E+02  0.10566000000E+00 0.  1.
         23    2    1    0    0    0 -0.18902455732E+02  0.20164637571E+02 -0.93900663482E+01  0.95809440103E+02  0.91254369900E+02 0.  0.
         13    1    3    3    0    0  0.27289904292E+02 -0.78570622733E+01 -0.26798470177E+02  0.39046657625E+02  0.10566000000E+00 0. -1.
         22    1    1    0    0    0  0.18902455732E+02 -0.20164637571E+02  0.93900663482E+01  0.29190559897E+02  0.00000000000E+00 0.  1.
</event>
<event>
 5    1  0.1764311E-003  0.9118800E+02  0.7818608E-02  0.1130116E+00
         25   -1    0    0    0    0  0.00000000000E+00  0.00000000000E+00  0.99999998245E-14  0.12500000000E+03  0.12500000000E+03 0.  0.
        -13    1    3    3    0    0  0.94736286492E+01 -0.38174115353E+02  0.89176226061E+01  0.40330483257E+02  0.10566000000E+00 0. -1.
         23    2    1    0    0    0 -0.17624281084E+02 -0.19528338856E+02  0.34225756094E+02  0.81833187720E+02  0.69521916904E+02 0.  0.
         13    1    3    3    0    0 -0.27097909733E+02  0.18645776497E+02  0.25308133488E+02  0.41502704463E+02  0.10566000000E+00 0.  1.
         22    1    1    0    0    0  0.17624281084E+02  0.19528338856E+02 -0.34225756094E+02  0.43166812280E+02  0.00000000000E+00 0. -1.
</event>
<event>
 5    1  0.1764311E-003  0.9118800E+02  0.7818608E-02  0.1130116E+00
         25   -1    0    0    0    0  0.00000000000E+00  0.00000000000E+00  0.99999998245E-14  0.12500000000E+03  0.12500000000E+03 0.  0.
        -13    1    3    3    0    0 -0.47898517823E+02 -0.78895167307E+01 -0.34607777374E+02  0.59617295332E+02  0.10566000000E+00 0. -1.
         23    2    1    0    0    0 -0.27597251640E+02  0.58667103215E+01 -0.82818065554E+01  0.95595665152E+02  0.90961070178E+02 0.  0.
         13    1    3    3    0    0  0.20301266183E+02  0.13756227052E+02  0.26325970818E+02  0.35978369820E+02  0.10566000000E+00 0.  1.
         22    1    1    0    0    0  0.27597251640E+02 -0.58667103215E+01  0.82818065554E+01  0.29404334848E+02  0.00000000000E+00 0. -1.
</event>
<event>
 5    1  0.1764311E-003  0.9118800E+02  0.7818608E-02  0.1130116E+00
         25   -1    0    0    0    0  0.00000000000E+00  0.00000000000E+00  0.99999998245E-14  0.12500000000E+03  0.12500000000E+03 0.  0.
        -13    1    3    3    0    0  0.32868676736E+02  0.27031213867E+02  0.32778995075E+02  0.53716944400E+02  0.10566000000E+00 0. -1.
         23    2    1    0    0    0  0.27200444539E+02 -0.70639588324E+01  0.97304346103E+01  0.95260379033E+02  0.90499142307E+02 0.  0.
         13    1    3    3    0    0 -0.56682321967E+01 -0.34095172700E+02 -0.23048560464E+02  0.41543434634E+02  0.10566000000E+00 0.  1.
         22    1    1    0    0    0 -0.27200444539E+02  0.70639588324E+01 -0.97304346103E+01  0.29739620967E+02  0.00000000000E+00 0. -1.
</event>
<event>
 5    1  0.1764311E-003  0.9118800E+02  0.7818608E-02  0.1130116E+00
         25   -1    0    0    0    0  0.00000000000E+00  0.00000000000E+00  0.99999998245E-14  0.12500000000E+03  0.12500000000E+03 0.  0.
        -13    1    3    3    0    0  0.28002403763E+02  0.39938087612E+02  0.11184580243E+02  0.50042896178E+02  0.10566000000E+00 0. -1.
         23    2    1    0    0    0 -0.77998265905E+01  0.21391505670E+02  0.23575035616E+02  0.92224763709E+02  0.86204355616E+02 0.  0.
         13    1    3    3    0    0 -0.35802230354E+02 -0.18546581942E+02  0.12390455373E+02  0.42181867531E+02  0.10566000000E+00 0.  1.
         22    1    1    0    0    0  0.77998265905E+01 -0.21391505670E+02 -0.23575035616E+02  0.32775236291E+02  0.00000000000E+00 0. -1.
</event>
<event>
 5    1  0.1764311E-003  0.9118800E+02  0.7818608E-02  0.1130116E+00
         25   -1    0    0    0    0  0.00000000000E+00  0.00000000000E+00  0.99999998245E-14  0.12500000000E+03  0.12500000000E+03 0.  0.
        -13    1    3    3    0    0 -0.14428472348E+02 -0.56837164661E+02 -0.11265105931E+02  0.59712292509E+02  0.10566000000E+00 0. -1.
         23    2    1    0    0    0 -0.69813127091E+01 -0.29410656839E+02  0.76097887230E+01  0.93828950174E+02  0.88499929624E+02 0.  0.
         13    1    3    3    0    0  0.74471596387E+01  0.27426507822E+02  0.18874894654E+02  0.34116657665E+02  0.10566000000E+00 0.  1.
         22    1    1    0    0    0  0.69813127091E+01  0.29410656839E+02 -0.76097887230E+01  0.31171049826E+02  0.00000000000E+00 0. -1.
</event>
<event>
 5    1  0.1764311E-003  0.9118800E+02  0.7818608E-02  0.1130116E+00
         25   -1    0    0    0    0  0.00000000000E+00  0.00000000000E+00  0.99999998245E-14  0.12500000000E+03  0.12500000000E+03 0.  0.
        -13    1    3    3    0    0  0.43258423558E+02 -0.28101713027E+02  0.24054981635E+02  0.56917930297E+02  0.10566000000E+00 0. -1.
         23    2    1    0    0    0  0.64237832299E+01 -0.15930529407E+02  0.23721010988E+02  0.95712918881E+02  0.91122059460E+02 0.  0.
         13    1    3    3    0    0 -0.36834640328E+02  0.12171183620E+02 -0.33397064748E+00  0.38794988584E+02  0.10566000000E+00 0.  1.
         22    1    1    0    0    0 -0.64237832299E+01  0.15930529407E+02 -0.23721010988E+02  0.29287081119E+02  0.00000000000E+00 0. -1.
</event>
<event>
 5    1  0.1764311E-003  0.9118800E+02  0.7818608E-02  0.1130116E+00
         25   -1    0    0    0    0  0.00000000000E+00  0.00000000000E+00  0.99999998245E-14  0.12500000000E+03  0.12500000000E+03 0.  0.
        -13    1    3    3    0    0  0.63401962182E+01  0.29662593072E+02  0.43523576579E+02  0.53050734190E+02  0.10566000000E+00 0.  1.
         23    2    1    0    0    0  0.86148762509E+01 -0.95942731661E+01  0.25746132592E+02  0.96205390889E+02  0.91795139971E+02 0.  0.
         13    1    3    3    0    0  0.22746800327E+01 -0.39256866238E+02 -0.17777443987E+02  0.43154656699E+02  0.10566000000E+00 0. -1.
         22    1    1    0    0    0 -0.86148762509E+01  0.95942731661E+01 -0.25746132592E+02  0.28794609111E+02  0.00000000000E+00 0. -1.
</event>
<event>
 5    1  0.1764311E-003  0.9118800E+02  0.7818608E-02  0.1130116E+00
         25   -1    0    0    0    0  0.00000000000E+00  0.00000000000E+00  0.99999998245E-14  0.12500000000E+03  0.12500000000E+03 0.  0.
        -13    1    3    3    0    0  0.80115309554E+01  0.44547571385E+02  0.11004861559E+02  0.46580992760E+02  0.10566000000E+00 0. -1.
         23    2    1    0    0    0 -0.21565359911E+02  0.11962952079E+02 -0.13433016717E+02  0.96917569395E+02  0.92759863890E+02 0.  0.
         13    1    3    3    0    0 -0.29576890867E+02 -0.32584619307E+02 -0.24437878275E+02  0.50336576635E+02  0.10566000000E+00 0.  1.
         22    1    1    0    0    0  0.21565359911E+02 -0.11962952079E+02  0.13433016717E+02  0.28082430605E+02  0.00000000000E+00 0. -1.
</event>
<event>
 5    1  0.1764311E-003  0.9118800E+02  0.7818608E-02  0.1130116E+00
         25   -1    0    0    0    0  0.00000000000E+00  0.00000000000E+00  0.99999998245E-14  0.12500000000E+03  0.12500000000E+03 0.  0.
        -13    1    3    3    0    0 -0.26652921664E+02  0.63364946399E+01  0.45094847412E+02  0.52764437121E+02  0.10566000000E+00 0.  1.
         23    2    1    0    0    0 -0.14956274202E+02  0.24278278762E+02  0.83646187156E+01  0.95283139400E+02  0.90530574117E+02 0.  0.
         13    1    3    3    0    0  0.11696647462E+02  0.17941784122E+02 -0.36730228696E+02  0.42518702279E+02  0.10566000000E+00 0. -1.
         22    1    1    0    0    0  0.14956274202E+02 -0.24278278762E+02 -0.83646187156E+01  0.29716860600E+02  0.00000000000E+00 0.  1.
</event>
<event>
 5    1  0.1764311E-003  0.9118800E+02  0.7818608E-02  0.1130116E+00
         25   -1    0    0    0    0  0.00000000000E+00  0.00000000000E+00  0.99999998245E-14  0.12500000000E+03  0.12500000000E+03 0.  0.
        -13    1    3    3    0    0  0.27742855855E+02 -0.36606862145E+01 -0.34551717426E+01  0.28196028982E+02  0.10566000000E+00 0.  1.
         23    2    1    0    0    0 -0.31813008062E+02 -0.99897641183E+01 -0.13688037405E+02  0.88955232875E+02  0.81325323355E+02 0.  0.
         13    1    3    3    0    0 -0.59555863917E+02 -0.63290779038E+01 -0.10232865662E+02  0.60759203893E+02  0.10566000000E+00 0. -1.
         22    1    1    0    0    0  0.31813008062E+02  0.99897641183E+01  0.13688037405E+02  0.36044767125E+02  0.00000000000E+00 0. -1.
</event>
<event>
 5    1  0.1764311E-003  0.9118800E+02  0.7818608E-02  0.1130116E+00
         25   -1    0    0    0    0  0.00000000000E+00  0.00000000000E+00  0.99999998245E-14  0.12500000000E+03  0.12500000000E+03 0.  0.
        -13    1    3    3    0    0 -0.34491103189E+02  0.30105263855E+02  0.34375026715E+02  0.57250473681E+02  0.10566000000E+00 0. -1.
         23    2    1    0    0    0 -0.27735739330E+02  0.25018442556E+00  0.15183190185E+02  0.93379388169E+02  0.87862660113E+02 0.  0.
         13    1    3    3    0    0  0.67553638597E+01 -0.29855079430E+02 -0.19191836530E+02  0.36128914488E+02  0.10566000000E+00 0.  1.
         22    1    1    0    0    0  0.27735739330E+02 -0.25018442556E+00 -0.15183190185E+02  0.31620611831E+02  0.00000000000E+00 0. -1.
</event>
<event>
 5    1  0.1764311E-003  0.9118800E+02  0.7818608E-02  0.1130116E+00
         25   -1    0    0    0    0  0.00000000000E+00  0.00000000000E+00  0.99999998245E-14  0.12500000000E+03  0.12500000000E+03 0.  0.
        -13    1    3    3    0    0 -0.13951000216E+01 -0.45377809140E+02 -0.38247462047E+02  0.59363047290E+02  0.10566000000E+00 0.  1.
         23    2    1    0    0    0 -0.75687895118E+01 -0.27467959127E+02 -0.74003606258E+01  0.95562936786E+02  0.90916083267E+02 0.  0.
         13    1    3    3    0    0 -0.61736894902E+01  0.17909850014E+02  0.30847101421E+02  0.36199889496E+02  0.10566000000E+00 0. -1.
         22    1    1    0    0    0  0.75687895118E+01  0.27467959127E+02  0.74003606258E+01  0.29437063214E+02  0.00000000000E+00 0.  1.
</event>
<event>
 5    1  0.1764311E-003  0.9118800E+02  0.7818608E-02  0.1130116E+00
         25   -1    0    0    0    0  0.00000000000E+00  0.00000000000E+00  0.99999998245E-14  0.12500000000E+03  0.12500000000E+03 0.  0.
        -13    1    3    3    0    0  0.32941640331E+01 -0.34795671416E+02  0.24175080144E+02  0.42497481455E+02  0.10566000000E+00 0. -1.
         23    2    1    0    0    0 -0.10001279282E+02 -0.10216391308E+02 -0.23344825656E+02  0.97625173543E+02  0.93708555563E+02 0.  0.
         13    1    3    3    0    0 -0.13295443315E+02  0.24579280108E+02 -0.47519905801E+02  0.55127692088E+02  0.10566000000E+00 0.  1.
         22    1    1    0    0    0  0.10001279282E+02  0.10216391308E+02  0.23344825656E+02  0.27374826457E+02  0.00000000000E+00 0.  1.
</event>
<event>
 5    1  0.1764311E-003  0.9118800E+02  0.7818608E-02  0.1130116E+00
         25   -1    0    0    0    0  0.00000000000E+00  0.00000000000E+00  0.99999998245E-14  0.12500000000E+03  0.12500000000E+03 0.  0.
        -13    1    3    3    0    0  0.18416539089E+02  0.15483683576E+02 -0.26558716754E+02  0.35836991625E+02  0.10566000000E+00 0. -1.
         23    2    1    0    0    0  0.12319607348E+02 -0.71567891788E+01  0.27093360075E+02  0.94388849797E+02  0.89287246846E+02 0.  0.
         13    1    3    3    0    0 -0.60969317403E+01 -0.22640472754E+02  0.53652076830E+02  0.58551858172E+02  0.10566000000E+00 0.  1.
         22    1    1    0    0    0 -0.12319607348E+02  0.71567891788E+01 -0.27093360075E+02  0.30611150203E+02  0.00000000000E+00 0.  1.
</event>
<event>
 5    1  0.1764311E-003  0.9118800E+02  0.7818608E-02  0.1130116E+00
         25   -1    0    0    0    0  0.00000000000E+00  0.00000000000E+00  0.99999998245E-14  0.12500000000E+03  0.12500000000E+03 0.  0.
        -13    1    3    3    0    0  0.42640002806E+02  0.19984273722E+01  0.27065365113E+02  0.50544126306E+02  0.10566000000E+00 0.  1.
         23    2    1    0    0    0  0.12087642985E+02 -0.25308103749E+02  0.74109467135E+01  0.95990805604E+02  0.91502466639E+02 0.  0.
         13    1    3    3    0    0 -0.30552359822E+02 -0.27306531122E+02 -0.19654418400E+02  0.45446679298E+02  0.10566000000E+00 0. -1.
         22    1    1    0    0    0 -0.12087642985E+02  0.25308103749E+02 -0.74109467135E+01  0.29009194396E+02  0.00000000000E+00 0.  1.
</event>
<event>
 5    1  0.1764311E-003  0.9118800E+02  0.7818608E-02  0.1130116E+00
         25   -1    0    0    0    0  0.00000000000E+00  0.00000000000E+00  0.99999998245E-14  0.12500000000E+03  0.12500000000E+03 0.  0.
        -13    1    3    3    0    0 -0.11695640273E+02  0.48403681291E+02 -0.21844279263E+02  0.54377275258E+02  0.10566000000E+00 0.  1.
         23    2    1    0    0    0  0.59873518446E+01  0.26883873841E+02  0.90832407445E+01  0.95998339405E+02  0.91512757861E+02 0.  0.
         13    1    3    3    0    0  0.17682992118E+02 -0.21519807450E+02  0.30927520007E+02  0.41621064147E+02  0.10566000000E+00 0. -1.
         22    1    1    0    0    0 -0.59873518446E+01 -0.26883873841E+02 -0.90832407445E+01  0.29001660595E+02  0.00000000000E+00 0.  1.
</event>
<event>
 5    1  0.1764311E-003  0.9118800E+02  0.7818608E-02  0.1130116E+00
         25   -1    0    0    0    0  0.00000000000E+00  0.00000000000E+00  0.99999998245E-14  0.12500000000E+03  0.12500000000E+03 0.  0.
        -13    1    3    3    0    0 -0.30653526071E+02 -0.33275495553E+02 -0.45390091039E+00  0.45245048956E+02  0.10566000000E+00 0. -1.
         23    2    1    0    0    0 -0.45625076271E+00 -0.22003923477E+02  0.28786251479E+02  0.88764256771E+02  0.81031254420E+02 0.  0.
         13    1    3    3    0    0  0.30197275309E+02  0.11271572076E+02  0.29240152389E+02  0.43519207816E+02  0.10566000000E+00 0.  1.
         22    1    1    0    0    0  0.45625076271E+00  0.22003923477E+02 -0.28786251479E+02  0.36235743229E+02  0.00000000000E+00 0. -1.
</event>
<event>
 5    1  0.1764311E-003  0.9118800E+02  0.7818608E-02  0.1130116E+00
         25   -1    0    0    0    0  0.00000000000E+00  0.00000000000E+00  0.99999998245E-14  0.12500000000E+03  0.12500000000E+03 0.  0.
        -13    1    3    3    0    0 -0.24015845456E+02  0.53143632111E+02  0.16236141289E+02  0.60536186822E+02  0.10566000000E+00 0.  1.
         23    2    1    0    0    0 -0.15588508493E+02  0.24004284092E+02  0.18444139754E+02  0.90950131526E+02  0.84335833911E+02 0.  0.
         13    1    3    3    0    0  0.84273369626E+01 -0.29139348018E+02  0.22079984645E+01  0.30413944704E+02  0.10566000000E+00 0. -1.
         22    1    1    0    0    0  0.15588508493E+02 -0.24004284092E+02 -0.18444139754E+02  0.34049868474E+02  0.00000000000E+00 0.  1.
</event>
<event>
 5    1  0.1764311E-003  0.9118800E+02  0.7818608E-02  0.1130116E+00
         25   -1    0    0    0    0  0.00000000000E+00  0.00000000000E+00  0.99999998245E-14  0.12500000000E+03  0.12500000000E+03 0.  0.
        -13    1    3    3    0    0  0.38602398918E+02  0.19643534419E+02  0.57198777526E+01  0.43689149823E+02  0.10566000000E+00 0.  1.
         23    2    1    0    0    0 -0.10865302679E+02  0.26821992332E+02 -0.69127596339E+01  0.95246675468E+02  0.90480212571E+02 0.  0.
         13    1    3    3    0    0 -0.49467701597E+02  0.71784579133E+01 -0.12632637386E+02  0.51557525645E+02  0.10566000000E+00 0. -1.
         22    1    1    0    0    0  0.10865302679E+02 -0.26821992332E+02  0.69127596339E+01  0.29753324532E+02  0.00000000000E+00 0. -1.
</event>
<event>
 5    1  0.1764311E-003  0.9118800E+02  0.7818608E-02  0.1130116E+00
         25   -1    0    0    0    0  0.00000000000E+00  0.00000000000E+00  0.99999998245E-14  0.12500000000E+03  0.12500000000E+03 0.  0.
        -13    1    3    3    0    0  0.42766118967E+02  0.69035395368E+01 -0.26864221164E+02  0.50973496372E+02  0.10566000000E+00 0. -1.
         23    2    1    0    0    0  0.94863405071E+01  0.28006950775E+02 -0.11169675634E+02  0.93390798781E+02  0.87878892206E+02 0.  0.
         13    1    3    3    0    0 -0.33279778460E+02  0.21103411238E+02  0.15694545530E+02  0.42417302409E+02  0.10566000000E+00 0.  1.
         22    1    1    0    0    0 -0.94863405071E+01 -0.28006950775E+02  0.11169675634E+02  0.31609201219E+02  0.00000000000E+00 0.  1.
</event>
<event>
 5    1  0.1764311E-003  0.9118800E+02  0.7818608E-02  0.1130116E+00
         25   -1    0    0    0    0  0.00000000000E+00  0.00000000000E+00  0.99999998245E-14  0.12500000000E+03  0.12500000000E+03 0.  0.
        -13    1    3    3    0    0  0.10102816687E+02  0.53928204960E+02  0.13368939463E+02  0.56471744277E+02  0.10566000000E+00 0.  1.
         23    2    1    0    0    0  0.36310028008E+01  0.25303070974E+02 -0.13351006611E+02  0.96161155370E+02  0.91734883456E+02 0.  0.
         13    1    3    3    0    0 -0.64718138866E+01 -0.28625133986E+02 -0.26719946074E+02  0.39689411094E+02  0.10566000000E+00 0. -1.
         22    1    1    0    0    0 -0.36310028008E+01 -0.25303070974E+02  0.13351006611E+02  0.28838844630E+02  0.00000000000E+00 0.  1.
</event>
<event>
 5    1  0.1764311E-003  0.9118800E+02  0.7818608E-02  0.1130116E+00
         25   -1    0    0    0    0  0.00000000000E+00  0.00000000000E+00  0.99999998245E-14  0.12500000000E+03  0.12500000000E+03 0.  0.
        -13    1    3    3    0    0 -0.11766876709E+01  0.50301209649E+02  0.35876719638E+02  0.61796006845E+02  0.10566000000E+00 0. -1.
         23    2    1    0    0    0 -0.70657224482E+01  0.21456001049E+02  0.16000942724E+02  0.97317612408E+02  0.93297390650E+02 0.  0.
         13    1    3    3    0    0 -0.58890347774E+01 -0.28845208600E+02 -0.19875776914E+02  0.35521605563E+02  0.10566000000E+00 0.  1.
         22    1    1    0    0    0  0.70657224482E+01 -0.21456001049E+02 -0.16000942724E+02  0.27682387592E+02  0.00000000000E+00 0. -1.
</event>
<event>
 5    1  0.1764311E-003  0.9118800E+02  0.7818608E-02  0.1130116E+00
         25   -1    0    0    0    0  0.00000000000E+00  0.00000000000E+00  0.99999998245E-14  0.12500000000E+03  0.12500000000E+03 0.  0.
        -13    1    3    3    0    0 -0.11858736006E+02 -0.23737650480E+02 -0.21564320963E+02  0.34192642082E+02  0.10566000000E+00 0.  1.
         23    2    1    0    0    0  0.50395002784E+00  0.95249630914E+01  0.28153022140E+02  0.95275068661E+02  0.90519429766E+02 0.  0.
         13    1    3    3    0    0  0.12362686034E+02  0.33262613571E+02  0.49717343102E+02  0.61082426579E+02  0.10566000000E+00 0. -1.
         22    1    1    0    0    0 -0.50395002784E+00 -0.95249630914E+01 -0.28153022140E+02  0.29724931339E+02  0.00000000000E+00 0. -1.
</event>
<event>
 5    1  0.1764311E-003  0.9118800E+02  0.7818608E-02  0.1130116E+00
         25   -1    0    0    0    0  0.00000000000E+00  0.00000000000E+00  0.99999998245E-14  0.12500000000E+03  0.12500000000E+03 0.  0.
        -13    1    3    3    0    0 -0.33495794226E+02 -0.17988504759E+02 -0.22134260202E+02  0.43994217495E+02  0.10566000000E+00 0. -1.
         23    2    1    0    0    0  0.27196164787E+01 -0.25946905197E+02  0.13676630940E+02  0.95543448319E+02  0.90889284735E+02 0.  0.
         13    1    3    3    0    0  0.36215410705E+02 -0.79584004384E+01  0.35810891142E+02  0.51549230823E+02  0.10566000000E+00 0.  1.
         22    1    1    0    0    0 -0.27196164787E+01  0.25946905197E+02 -0.13676630940E+02  0.29456551681E+02  0.00000000000E+00 0.  1.
</event>
<event>
 5    1  0.1764311E-003  0.9118800E+02  0.7818608E-02  0.1130116E+00
         25   -1    0    0    0    0  0.00000000000E+00  0.00000000000E+00  0.99999998245E-14  0.12500000000E+03  0.12500000000E+03 0.  0.
        -13    1    3    3    0    0 -0.29521943182E+02  0.33692659016E+02  0.12997263522E+02  0.46644189605E+02  0.10566000000E+00 0. -1.
         23    2    1    0    0    0 -0.13430010337E+02 -0.79241108362E+01  0.27351293089E+02  0.93515877909E+02  0.88056626538E+02 0.  0.
         13    1    3    3    0    0  0.16091932844E+02 -0.41616769852E+02  0.14354029566E+02  0.46871688304E+02  0.10566000000E+00 0.  1.
         22    1    1    0    0    0  0.13430010337E+02  0.79241108362E+01 -0.27351293089E+02  0.31484122091E+02  0.00000000000E+00 0.  1.
</event>
<event>
 5    1  0.1764311E-003  0.9118800E+02  0.7818608E-02  0.1130116E+00
         25   -1    0    0    0    0  0.00000000000E+00  0.00000000000E+00  0.99999998245E-14  0.12500000000E+03  0.12500000000E+03 0.  0.
        -13    1    3    3    0    0 -0.34621848106E+02  0.14379367388E+02 -0.23667521870E+02  0.44335102665E+02  0.10566000000E+00 0.  1.
         23    2    1    0    0    0 -0.81424969801E+01  0.31986396627E+02  0.98680476477E+01  0.90549917407E+02  0.83740547836E+02 0.  0.
         13    1    3    3    0    0  0.26479351126E+02  0.17607029239E+02  0.33535569518E+02  0.46214814742E+02  0.10566000000E+00 0. -1.
         22    1    1    0    0    0  0.81424969801E+01 -0.31986396627E+02 -0.98680476477E+01  0.34450082593E+02  0.00000000000E+00 0. -1.
</event>
<event>
 5    1  0.1764311E-003  0.9118800E+02  0.7818608E-02  0.1130116E+00
         25   -1    0    0    0    0  0.00000000000E+00  0.00000000000E+00  0.99999998245E-14  0.12500000000E+03  0.12500000000E+03 0.  0.
        -13    1    3    3    0    0 -0.32627204422E+02  0.37495604041E+02 -0.15295599775E+02  0.52004051067E+02  0.10566000000E+00 0. -1.
         23    2    1    0    0    0 -0.28707316079E+02 -0.41675829582E+01 -0.10607484056E+02  0.94113150660E+02  0.88900436810E+02 0.  0.
         13    1    3    3    0    0  0.39198883439E+01 -0.41663186999E+02  0.46881157190E+01  0.42109099594E+02  0.10566000000E+00 0.  1.
         22    1    1    0    0    0  0.28707316079E+02  0.41675829582E+01  0.10607484056E+02  0.30886849340E+02  0.00000000000E+00 0. -1.
</event>
<event>
 5    1  0.1764311E-003  0.9118800E+02  0.7818608E-02  0.1130116E+00
         25   -1    0    0    0    0  0.00000000000E+00  0.00000000000E+00  0.99999998245E-14  0.12500000000E+03  0.12500000000E+03 0.  0.
        -13    1    3    3    0    0 -0.60964969119E-01  0.43298492086E+02 -0.54691705344E+01  0.43642709861E+02  0.10566000000E+00 0.  1.
         23    2    1    0    0    0  0.25845664567E+02  0.29949264165E+01 -0.18236896424E+02  0.93226546421E+02  0.87644946263E+02 0.  0.
         13    1    3    3    0    0  0.25906629536E+02 -0.40303565670E+02 -0.12767725889E+02  0.49583836560E+02  0.10566000000E+00 0. -1.
         22    1    1    0    0    0 -0.25845664567E+02 -0.29949264165E+01  0.18236896424E+02  0.31773453579E+02  0.00000000000E+00 0. -1.
</event>
<event>
 5    1  0.1764311E-003  0.9118800E+02  0.7818608E-02  0.1130116E+00
         25   -1    0    0    0    0  0.00000000000E+00  0.00000000000E+00  0.99999998245E-14  0.12500000000E+03  0.12500000000E+03 0.  0.
        -13    1    3    3    0    0  0.44933436645E+02 -0.37193072393E+01  0.25031843021E+02  0.51569868180E+02  0.10566000000E+00 0.  1.
         23    2    1    0    0    0  0.12242698569E+02 -0.25850562612E+02  0.45738004062E+01  0.96033555521E+02  0.91560847966E+02 0.  0.
         13    1    3    3    0    0 -0.32690738076E+02 -0.22131255372E+02 -0.20458042615E+02  0.44463687341E+02  0.10566000000E+00 0. -1.
         22    1    1    0    0    0 -0.12242698569E+02  0.25850562612E+02 -0.45738004062E+01  0.28966444479E+02  0.00000000000E+00 0.  1.
</event>
<event>
 5    1  0.1764311E-003  0.9118800E+02  0.7818608E-02  0.1130116E+00
         25   -1    0    0    0    0  0.00000000000E+00  0.00000000000E+00  0.99999998245E-14  0.12500000000E+03  0.12500000000E+03 0.  0.
        -13    1    3    3    0    0  0.32091962204E+02 -0.23862464250E+02  0.45178905695E+02  0.60336190815E+02  0.10566000000E+00 0. -1.
         23    2    1    0    0    0  0.24002498343E+02 -0.56278899524E+01  0.16263077202E+02  0.95465600529E+02  0.90782157565E+02 0.  0.
         13    1    3    3    0    0 -0.80894638612E+01  0.18234574298E+02 -0.28915828493E+02  0.35129409714E+02  0.10566000000E+00 0.  1.
         22    1    1    0    0    0 -0.24002498343E+02  0.56278899524E+01 -0.16263077202E+02  0.29534399471E+02  0.00000000000E+00 0. -1.
</event>
<event>
 5    1  0.1764311E-003  0.9118800E+02  0.7818608E-02  0.1130116E+00
         25   -1    0    0    0    0  0.00000000000E+00  0.00000000000E+00  0.99999998245E-14  0.12500000000E+03  0.12500000000E+03 0.  0.
        -13    1    3    3    0    0 -0.50915425004E+02  0.74702241002E+01 -0.22756747406E+02  0.56267801343E+02  0.10566000000E+00 0. -1.
         23    2    1    0    0    0 -0.25734799926E+02 -0.14787455030E+02 -0.18201186713E+02  0.90182878475E+02  0.83190862592E+02 0.  0.
         13    1    3    3    0    0  0.25180625079E+02 -0.22257679130E+02  0.45555606924E+01  0.33915077132E+02  0.10566000000E+00 0.  1.
         22    1    1    0    0    0  0.25734799926E+02  0.14787455030E+02  0.18201186713E+02  0.34817121525E+02  0.00000000000E+00 0. -1.
</event>
<event>
 5    1  0.1764311E-003  0.9118800E+02  0.7818608E-02  0.1130116E+00
         25   -1    0    0    0    0  0.00000000000E+00  0.00000000000E+00  0.99999998245E-14  0.12500000000E+03  0.12500000000E+03 0.  0.
        -13    1    3    3    0    0  0.52229578234E+02 -0.29659304937E+02 -0.57520069947E+00  0.60066173773E+02  0.10566000000E+00 0.  1.
         23    2    1    0    0    0  0.26378537595E+02 -0.16468498239E+01 -0.37013278415E+01  0.98312190278E+02  0.94620545176E+02 0.  0.
         13    1    3    3    0    0 -0.25851040639E+02  0.28012455113E+02 -0.31261271420E+01  0.38246016505E+02  0.10566000000E+00 0. -1.
         22    1    1    0    0    0 -0.26378537595E+02  0.16468498239E+01  0.37013278415E+01  0.26687809722E+02  0.00000000000E+00 0.  1.
</event>
<event>
 5    1  0.1764311E-003  0.9118800E+02  0.7818608E-02  0.1130116E+00
         25   -1    0    0    0    0  0.00000000000E+00  0.00000000000E+00  0.99999998245E-14  0.12500000000E+03  0.12500000000E+03 0.  0.
        -13    1    3    3    0    0  0.10783204894E+02  0.26675176980E+02  0.16986416636E+02  0.33412454098E+02  0.10566000000E+00 0.  1.
         23    2    1    0    0    0 -0.18196186524E+02 -0.24793610650E+02  0.30956846613E+01  0.94090331664E+02  0.88868345974E+02 0.  0.
         13    1    3    3    0    0 -0.28979391418E+02 -0.51468787630E+02 -0.13890731974E+02  0.60677877566E+02  0.10566000000E+00 0. -1.
         22    1    1    0    0    0  0.18196186524E+02  0.24793610650E+02 -0.30956846613E+01  0.30909668336E+02  0.00000000000E+00 0. -1.
</event>
<event>
 4    1  0.1764311E-003  0.9118800E+02  0.7818608E-02  0.1130116E+00
         25   -1    0    0    0    0  0.00000000000E+00  0.00000000000E+00  0.99999998245E-14  0.12500000000E+03  0.12500000000E+03 0.  0.
        -13    1    1    0    0    0  0.27963630586E+00 -0.41488407872E+02 -0.38770623631E+02  0.56785020956E+02  0.10566000000E+00 0.  1.
         13    1    1    0    0    0  0.10837240865E+02  0.16912802144E+01 -0.80622760298E+00  0.10998517414E+02  0.10566000000E+00 0. -1.
         22    1    1    0    0    0 -0.11116877171E+02  0.39797127657E+02  0.39576851234E+02  0.57216461630E+02  0.00000000000E+00 0.  1.
</event>
<event>
 5    1  0.1764311E-003  0.9118800E+02  0.7818608E-02  0.1130116E+00
         25   -1    0    0    0    0  0.00000000000E+00  0.00000000000E+00  0.99999998245E-14  0.12500000000E+03  0.12500000000E+03 0.  0.
        -13    1    3    3    0    0 -0.21071524359E+02 -0.17394561276E+02  0.52841187828E+02  0.59487664233E+02  0.10566000000E+00 0. -1.
         23    2    1    0    0    0 -0.32812105974E+01  0.28934974097E+01  0.29534814987E+02  0.95142941093E+02  0.90336788039E+02 0.  0.
         13    1    3    3    0    0  0.17790313762E+02  0.20288058685E+02 -0.23306372841E+02  0.35655276860E+02  0.10566000000E+00 0.  1.
         22    1    1    0    0    0  0.32812105974E+01 -0.28934974097E+01 -0.29534814987E+02  0.29857058907E+02  0.00000000000E+00 0. -1.
</event>
<event>
 5    1  0.1764311E-003  0.9118800E+02  0.7818608E-02  0.1130116E+00
         25   -1    0    0    0    0  0.00000000000E+00  0.00000000000E+00  0.99999998245E-14  0.12500000000E+03  0.12500000000E+03 0.  0.
        -13    1    3    3    0    0 -0.48347140540E+00 -0.11320731070E+02 -0.23022034066E+02  0.25659655359E+02  0.10566000000E+00 0.  1.
         23    2    1    0    0    0  0.24064390076E+02  0.29997836651E+02  0.11529931396E+02  0.84851470868E+02  0.74752041557E+02 0.  0.
         13    1    3    3    0    0  0.24547861482E+02  0.41318567721E+02  0.34551965462E+02  0.59191815509E+02  0.10566000000E+00 0. -1.
         22    1    1    0    0    0 -0.24064390076E+02 -0.29997836651E+02 -0.11529931396E+02  0.40148529132E+02  0.00000000000E+00 0. -1.
</event>
<event>
 5    1  0.1764311E-003  0.9118800E+02  0.7818608E-02  0.1130116E+00
         25   -1    0    0    0    0  0.00000000000E+00  0.00000000000E+00  0.99999998245E-14  0.12500000000E+03  0.12500000000E+03 0.  0.
        -13    1    3    3    0    0 -0.47084668103E+01  0.25315074007E+02  0.29358897957E+02  0.39050975468E+02  0.10566000000E+00 0. -1.
         23    2    1    0    0    0  0.27848603623E+02 -0.73032515418E+01 -0.39858583921E+01  0.95935085172E+02  0.91426316195E+02 0.  0.
         13    1    3    3    0    0  0.32557070433E+02 -0.32618325549E+02 -0.33344756349E+02  0.56884109704E+02  0.10566000000E+00 0.  1.
         22    1    1    0    0    0 -0.27848603623E+02  0.73032515418E+01  0.39858583921E+01  0.29064914828E+02  0.00000000000E+00 0.  1.
</event>
<event>
 5    1  0.1764311E-003  0.9118800E+02  0.7818608E-02  0.1130116E+00
         25   -1    0    0    0    0  0.00000000000E+00  0.00000000000E+00  0.99999998245E-14  0.12500000000E+03  0.12500000000E+03 0.  0.
        -13    1    3    3    0    0 -0.52653632704E+02 -0.16184350877E+02  0.17484878376E+02  0.57793342057E+02  0.10566000000E+00 0.  1.
         23    2    1    0    0    0 -0.13200345574E+02 -0.12355601854E+02  0.20643767557E+02  0.97557785086E+02  0.93618621393E+02 0.  0.
         13    1    3    3    0    0  0.39453287131E+02  0.38287490226E+01  0.31588891810E+01  0.39764443029E+02  0.10566000000E+00 0. -1.
         22    1    1    0    0    0  0.13200345574E+02  0.12355601854E+02 -0.20643767557E+02  0.27442214914E+02  0.00000000000E+00 0.  1.
</event>
<event>
 5    1  0.1764311E-003  0.9118800E+02  0.7818608E-02  0.1130116E+00
         25   -1    0    0    0    0  0.00000000000E+00  0.00000000000E+00  0.99999998245E-14  0.12500000000E+03  0.12500000000E+03 0.  0.
        -13    1    3    3    0    0 -0.45208745794E+02 -0.53590576910E+01 -0.19293985442E+02  0.49445113347E+02  0.10566000000E+00 0.  1.
         23    2    1    0    0    0 -0.19945796154E+02 -0.13957484016E+02  0.17586397427E+02  0.94967891870E+02  0.90094244919E+02 0.  0.
         13    1    3    3    0    0  0.25262949641E+02 -0.85984263245E+01  0.36880382870E+02  0.45522778523E+02  0.10566000000E+00 0. -1.
         22    1    1    0    0    0  0.19945796154E+02  0.13957484016E+02 -0.17586397427E+02  0.30032108130E+02  0.00000000000E+00 0.  1.
</event>
<event>
 5    1  0.1764311E-003  0.9118800E+02  0.7818608E-02  0.1130116E+00
         25   -1    0    0    0    0  0.00000000000E+00  0.00000000000E+00  0.99999998245E-14  0.12500000000E+03  0.12500000000E+03 0.  0.
        -13    1    3    3    0    0  0.18429687655E+02  0.21368418232E+02 -0.31864571570E+02  0.42563185620E+02  0.10566000000E+00 0.  1.
         23    2    1    0    0    0  0.22001807623E+02 -0.19368855886E+02  0.19442952867E+01  0.95622927287E+02  0.90998526482E+02 0.  0.
         13    1    3    3    0    0  0.35721199681E+01 -0.40737274118E+02  0.33808866856E+02  0.53059741667E+02  0.10566000000E+00 0. -1.
         22    1    1    0    0    0 -0.22001807623E+02  0.19368855886E+02 -0.19442952867E+01  0.29377072713E+02  0.00000000000E+00 0. -1.
</event>
<event>
 5    1  0.1764311E-003  0.9118800E+02  0.7818608E-02  0.1130116E+00
         25   -1    0    0    0    0  0.00000000000E+00  0.00000000000E+00  0.99999998245E-14  0.12500000000E+03  0.12500000000E+03 0.  0.
        -13    1    3    3    0    0  0.15709190731E+02 -0.54853942404E+02  0.51728942149E+01  0.57293138064E+02  0.10566000000E+00 0. -1.
         23    2    1    0    0    0  0.59037605998E+01 -0.18365894429E+02 -0.15401597385E+02  0.10031458590E+03  0.97229864108E+02 0.  0.
         13    1    3    3    0    0 -0.98054301313E+01  0.36488047975E+02 -0.20574491599E+02  0.43021447834E+02  0.10566000000E+00 0.  1.
         22    1    1    0    0    0 -0.59037605998E+01  0.18365894429E+02  0.15401597385E+02  0.24685414102E+02  0.00000000000E+00 0. -1.
</event>
<event>
 5    1  0.1764311E-003  0.9118800E+02  0.7818608E-02  0.1130116E+00
         25   -1    0    0    0    0  0.00000000000E+00  0.00000000000E+00  0.99999998245E-14  0.12500000000E+03  0.12500000000E+03 0.  0.
        -13    1    3    3    0    0  0.12293784288E+02 -0.87200794916E+01  0.32932156168E+02  0.36217606110E+02  0.10566000000E+00 0. -1.
         23    2    1    0    0    0 -0.14302417655E+02 -0.15876378486E+02 -0.19901426451E+02  0.95799223993E+02  0.91240374825E+02 0.  0.
         13    1    3    3    0    0 -0.26596201943E+02 -0.71562989943E+01 -0.52833582619E+02  0.59581617883E+02  0.10566000000E+00 0.  1.
         22    1    1    0    0    0  0.14302417655E+02  0.15876378486E+02  0.19901426451E+02  0.29200776007E+02  0.00000000000E+00 0.  1.
</event>
<event>
 5    1  0.1764311E-003  0.9118800E+02  0.7818608E-02  0.1130116E+00
         25   -1    0    0    0    0  0.00000000000E+00  0.00000000000E+00  0.99999998245E-14  0.12500000000E+03  0.12500000000E+03 0.  0.
        -13    1    3    3    0    0 -0.42658648770E+02  0.10302365137E+02 -0.19343046256E+01  0.43927801455E+02  0.10566000000E+00 0. -1.
         23    2    1    0    0    0  0.40399071536E+01  0.12234253215E+02 -0.25618045890E+02  0.96324538770E+02  0.91957243828E+02 0.  0.
         13    1    3    3    0    0  0.46698555924E+02  0.19318880788E+01 -0.23683741264E+02  0.52396737314E+02  0.10566000000E+00 0.  1.
         22    1    1    0    0    0 -0.40399071536E+01 -0.12234253215E+02  0.25618045890E+02  0.28675461230E+02  0.00000000000E+00 0.  1.
</event>
<event>
 5    1  0.1764311E-003  0.9118800E+02  0.7818608E-02  0.1130116E+00
         25   -1    0    0    0    0  0.00000000000E+00  0.00000000000E+00  0.99999998245E-14  0.12500000000E+03  0.12500000000E+03 0.  0.
        -13    1    3    3    0    0 -0.29358442355E+02 -0.14166521037E+02 -0.12548501288E+02  0.34929708049E+02  0.10566000000E+00 0. -1.
         23    2    1    0    0    0  0.15674368653E+02 -0.33889781015E+01  0.25510232131E+02  0.94867908327E+02  0.89955417189E+02 0.  0.
         13    1    3    3    0    0  0.45032811008E+02  0.10777542935E+02  0.38058733419E+02  0.59938200277E+02  0.10566000000E+00 0.  1.
         22    1    1    0    0    0 -0.15674368653E+02  0.33889781015E+01 -0.25510232131E+02  0.30132091673E+02  0.00000000000E+00 0.  1.
</event>
<event>
 5    1  0.1764311E-003  0.9118800E+02  0.7818608E-02  0.1130116E+00
         25   -1    0    0    0    0  0.00000000000E+00  0.00000000000E+00  0.99999998245E-14  0.12500000000E+03  0.12500000000E+03 0.  0.
        -13    1    3    3    0    0 -0.37037286749E+02 -0.66205171843E+01  0.90446073349E+01  0.38696355686E+02  0.10566000000E+00 0.  1.
         23    2    1    0    0    0  0.30999829692E+01  0.15588796107E+02 -0.24689316002E+02  0.95637050844E+02  0.91017925218E+02 0.  0.
         13    1    3    3    0    0  0.40137269718E+02  0.22209313291E+02 -0.33733923337E+02  0.56940695158E+02  0.10566000000E+00 0. -1.
         22    1    1    0    0    0 -0.30999829692E+01 -0.15588796107E+02  0.24689316002E+02  0.29362949156E+02  0.00000000000E+00 0. -1.
</event>
<event>
 5    1  0.1764311E-003  0.9118800E+02  0.7818608E-02  0.1130116E+00
         25   -1    0    0    0    0  0.00000000000E+00  0.00000000000E+00  0.99999998245E-14  0.12500000000E+03  0.12500000000E+03 0.  0.
        -13    1    3    3    0    0  0.60001358770E+02  0.15145667128E+02  0.40114989598E+00  0.61884783042E+02  0.10566000000E+00 0. -1.
         23    2    1    0    0    0  0.27673515239E+02  0.11757830834E+02 -0.39276379288E+01  0.94676801434E+02  0.89689466262E+02 0.  0.
         13    1    3    3    0    0 -0.32327843531E+02 -0.33878362932E+01 -0.43287878248E+01  0.32792018391E+02  0.10566000000E+00 0.  1.
         22    1    1    0    0    0 -0.27673515239E+02 -0.11757830834E+02  0.39276379288E+01  0.30323198566E+02  0.00000000000E+00 0. -1.
</event>
<event>
 5    1  0.1764311E-003  0.9118800E+02  0.7818608E-02  0.1130116E+00
         25   -1    0    0    0    0  0.00000000000E+00  0.00000000000E+00  0.99999998245E-14  0.12500000000E+03  0.12500000000E+03 0.  0.
        -13    1    3    3    0    0 -0.17785734568E+02 -0.34031056945E+02 -0.10123533219E+02  0.39710732552E+02  0.10566000000E+00 0.  1.
         23    2    1    0    0    0  0.38906727094E+01  0.15900695415E+02 -0.24058905960E+02  0.95900164866E+02  0.91378559938E+02 0.  0.
         13    1    3    3    0    0  0.21676407277E+02  0.49931752361E+02 -0.13935372742E+02  0.56189432314E+02  0.10566000000E+00 0. -1.
         22    1    1    0    0    0 -0.38906727094E+01 -0.15900695415E+02  0.24058905960E+02  0.29099835134E+02  0.00000000000E+00 0. -1.
</event>
<event>
 5    1  0.1764311E-003  0.9118800E+02  0.7818608E-02  0.1130116E+00
         25   -1    0    0    0    0  0.00000000000E+00  0.00000000000E+00  0.99999998245E-14  0.12500000000E+03  0.12500000000E+03 0.  0.
        -13    1    3    3    0    0 -0.56268060342E+01  0.28565822107E+02 -0.20572866637E+02  0.35649980989E+02  0.10566000000E+00 0.  1.
         23    2    1    0    0    0  0.23314065604E+02 -0.18922295800E+02  0.80085135777E-01  0.94973256138E+02  0.90101687190E+02 0.  0.
         13    1    3    3    0    0  0.28940871639E+02 -0.47488117906E+02  0.20652951773E+02  0.59323275149E+02  0.10566000000E+00 0. -1.
         22    1    1    0    0    0 -0.23314065604E+02  0.18922295800E+02 -0.80085135777E-01  0.30026743862E+02  0.00000000000E+00 0. -1.
</event>
<event>
 5    1  0.1764311E-003  0.9118800E+02  0.7818608E-02  0.1130116E+00
         25   -1    0    0    0    0  0.00000000000E+00  0.00000000000E+00  0.99999998245E-14  0.12500000000E+03  0.12500000000E+03 0.  0.
        -13    1    3    3    0    0  0.47741926271E+01  0.20973853586E+02  0.32674855828E+02  0.39119724142E+02  0.10566000000E+00 0. -1.
         23    2    1    0    0    0 -0.25039356068E+02 -0.29035497071E+01 -0.11307423446E+02  0.97372879662E+02  0.93371408448E+02 0.  0.
         13    1    3    3    0    0 -0.29813548695E+02 -0.23877403294E+02 -0.43982279275E+02  0.58253155520E+02  0.10566000000E+00 0.  1.
         22    1    1    0    0    0  0.25039356068E+02  0.29035497071E+01  0.11307423446E+02  0.27627120338E+02  0.00000000000E+00 0.  1.
</event>
<event>
 5    1  0.1764311E-003  0.9118800E+02  0.7818608E-02  0.1130116E+00
         25   -1    0    0    0    0  0.00000000000E+00  0.00000000000E+00  0.99999998245E-14  0.12500000000E+03  0.12500000000E+03 0.  0.
        -13    1    3    3    0    0 -0.14245557704E+02  0.14309996111E+02  0.27734192027E+02  0.34306099668E+02  0.10566000000E+00 0. -1.
         23    2    1    0    0    0  0.32948728083E+01 -0.25304741881E+02 -0.15197478622E+02  0.95298998250E+02  0.90552468561E+02 0.  0.
         13    1    3    3    0    0  0.17540430512E+02 -0.39614737992E+02 -0.42931670649E+02  0.60992898582E+02  0.10566000000E+00 0.  1.
         22    1    1    0    0    0 -0.32948728083E+01  0.25304741881E+02  0.15197478622E+02  0.29701001750E+02  0.00000000000E+00 0.  1.
</event>
<event>
 5    1  0.1764311E-003  0.9118800E+02  0.7818608E-02  0.1130116E+00
         25   -1    0    0    0    0  0.00000000000E+00  0.00000000000E+00  0.99999998245E-14  0.12500000000E+03  0.12500000000E+03 0.  0.
        -13    1    3    3    0    0 -0.24284286999E+02  0.41395098795E+02 -0.17515050956E+02  0.51088834136E+02  0.10566000000E+00 0. -1.
         23    2    1    0    0    0 -0.12779985177E+02 -0.26923890318E+00 -0.26808221827E+02  0.95300146999E+02  0.90554054298E+02 0.  0.
         13    1    3    3    0    0  0.11504301822E+02 -0.41664337698E+02 -0.92931708712E+01  0.44211312864E+02  0.10566000000E+00 0.  1.
         22    1    1    0    0    0  0.12779985177E+02  0.26923890318E+00  0.26808221827E+02  0.29699853001E+02  0.00000000000E+00 0. -1.
</event>
<event>
 5    1  0.1764311E-003  0.9118800E+02  0.7818608E-02  0.1130116E+00
         25   -1    0    0    0    0  0.00000000000E+00  0.00000000000E+00  0.99999998245E-14  0.12500000000E+03  0.12500000000E+03 0.  0.
        -13    1    3    3    0    0  0.20978169672E+02 -0.81027177374E+01  0.50859532269E+02  0.55609718792E+02  0.10566000000E+00 0.  1.
         23    2    1    0    0    0 -0.10004511166E+02  0.26090220425E+01  0.26803908842E+02  0.96271150930E+02  0.91884643617E+02 0.  0.
         13    1    3    3    0    0 -0.30982680837E+02  0.10711739780E+02 -0.24055623428E+02  0.40661432138E+02  0.10566000000E+00 0. -1.
         22    1    1    0    0    0  0.10004511166E+02 -0.26090220425E+01 -0.26803908842E+02  0.28728849070E+02  0.00000000000E+00 0.  1.
</event>
<event>
 5    1  0.1764311E-003  0.9118800E+02  0.7818608E-02  0.1130116E+00
         25   -1    0    0    0    0  0.00000000000E+00  0.00000000000E+00  0.99999998245E-14  0.12500000000E+03  0.12500000000E+03 0.  0.
        -13    1    3    3    0    0 -0.21721226499E+02 -0.13665954499E+02 -0.24898072259E+02  0.35756050666E+02  0.10566000000E+00 0.  1.
         23    2    1    0    0    0 -0.67622887867E+01  0.24889525716E+02  0.16588158804E+02  0.94334318000E+02  0.89210870975E+02 0.  0.
         13    1    3    3    0    0  0.14958937712E+02  0.38555480215E+02  0.41486231063E+02  0.58578267334E+02  0.10566000000E+00 0. -1.
         22    1    1    0    0    0  0.67622887867E+01 -0.24889525716E+02 -0.16588158804E+02  0.30665682000E+02  0.00000000000E+00 0. -1.
</event>
<event>
 5    1  0.1764311E-003  0.9118800E+02  0.7818608E-02  0.1130116E+00
         25   -1    0    0    0    0  0.00000000000E+00  0.00000000000E+00  0.99999998245E-14  0.12500000000E+03  0.12500000000E+03 0.  0.
        -13    1    3    3    0    0 -0.32056988006E+02  0.29143279431E+02 -0.24527597134E+02  0.49785493883E+02  0.10566000000E+00 0. -1.
         23    2    1    0    0    0 -0.85576263456E+01  0.23454797795E+02  0.14818286191E+02  0.95966534586E+02  0.91469304395E+02 0.  0.
         13    1    3    3    0    0  0.23499361660E+02 -0.56884816351E+01  0.39345883325E+02  0.46181040703E+02  0.10566000000E+00 0.  1.
         22    1    1    0    0    0  0.85576263456E+01 -0.23454797795E+02 -0.14818286191E+02  0.29033465414E+02  0.00000000000E+00 0. -1.
</event>
<event>
 5    1  0.1764311E-003  0.9118800E+02  0.7818608E-02  0.1130116E+00
         25   -1    0    0    0    0  0.00000000000E+00  0.00000000000E+00  0.99999998245E-14  0.12500000000E+03  0.12500000000E+03 0.  0.
        -13    1    3    3    0    0 -0.56113759615E+02 -0.12578928816E+02 -0.10901823021E+02  0.58530713113E+02  0.10566000000E+00 0.  1.
         23    2    1    0    0    0 -0.26128848338E+02  0.90810033696E+01 -0.10169607931E+02  0.95527940975E+02  0.90867954989E+02 0.  0.
         13    1    3    3    0    0  0.29984911277E+02  0.21659932186E+02  0.73221508935E+00  0.36997227863E+02  0.10566000000E+00 0. -1.
         22    1    1    0    0    0  0.26128848338E+02 -0.90810033696E+01  0.10169607931E+02  0.29472059025E+02  0.00000000000E+00 0.  1.
</event>
<event>
 5    1  0.1764311E-003  0.9118800E+02  0.7818608E-02  0.1130116E+00
         25   -1    0    0    0    0  0.00000000000E+00  0.00000000000E+00  0.99999998245E-14  0.12500000000E+03  0.12500000000E+03 0.  0.
        -13    1    3    3    0    0  0.14181287002E+02  0.36236080725E+02 -0.46578945094E+02  0.60694083216E+02  0.10566000000E+00 0.  1.
         23    2    1    0    0    0 -0.28145518941E+01  0.14414395619E+02 -0.25887225885E+02  0.95236852192E+02  0.90466640526E+02 0.  0.
         13    1    3    3    0    0 -0.16995838896E+02 -0.21821685107E+02  0.20691719209E+02  0.34542768976E+02  0.10566000000E+00 0. -1.
         22    1    1    0    0    0  0.28145518941E+01 -0.14414395619E+02  0.25887225885E+02  0.29763147808E+02  0.00000000000E+00 0.  1.
</event>
<event>
 5    1  0.1764311E-003  0.9118800E+02  0.7818608E-02  0.1130116E+00
         25   -1    0    0    0    0  0.00000000000E+00  0.00000000000E+00  0.99999998245E-14  0.12500000000E+03  0.12500000000E+03 0.  0.
        -13    1    3    3    0    0  0.87775514748E+01 -0.38388480287E+02 -0.23642357049E+02  0.45931394922E+02  0.10566000000E+00 0.  1.
         23    2    1    0    0    0 -0.25999419895E+02 -0.56755465527E+01 -0.21173033812E+01  0.98304220611E+02  0.94610016134E+02 0.  0.
         13    1    3    3    0    0 -0.34776971370E+02  0.32712933734E+02  0.21525053668E+02  0.52372825689E+02  0.10566000000E+00 0. -1.
         22    1    1    0    0    0  0.25999419895E+02  0.56755465527E+01  0.21173033812E+01  0.26695779389E+02  0.00000000000E+00 0. -1.
</event>
<event>
 5    1  0.1764311E-003  0.9118800E+02  0.7818608E-02  0.1130116E+00
         25   -1    0    0    0    0  0.00000000000E+00  0.00000000000E+00  0.99999998245E-14  0.12500000000E+03  0.12500000000E+03 0.  0.
        -13    1    3    3    0    0 -0.96932870275E+01  0.38204465769E+02 -0.44551955875E+02  0.59484695127E+02  0.10566000000E+00 0.  1.
         23    2    1    0    0    0 -0.16176795780E+02  0.98316925205E+01 -0.17731001901E+02  0.99062781030E+02  0.95606983309E+02 0.  0.
         13    1    3    3    0    0 -0.64835087522E+01 -0.28372773248E+02  0.26820953974E+02  0.39578085902E+02  0.10566000000E+00 0. -1.
         22    1    1    0    0    0  0.16176795780E+02 -0.98316925205E+01  0.17731001901E+02  0.25937218970E+02  0.00000000000E+00 0.  1.
</event>
<event>
 5    1  0.1764311E-003  0.9118800E+02  0.7818608E-02  0.1130116E+00
         25   -1    0    0    0    0  0.00000000000E+00  0.00000000000E+00  0.99999998245E-14  0.12500000000E+03  0.12500000000E+03 0.  0.
        -13    1    3    3    0    0 -0.49263236311E+02  0.28484599343E+02 -0.25424391971E+02  0.62326958234E+02  0.10566000000E+00 0.  1.
         23    2    1    0    0    0 -0.20787737964E+02  0.11732110812E+02 -0.14231848337E+02  0.97209390420E+02  0.93152281802E+02 0.  0.
         13    1    3    3    0    0  0.28475498348E+02 -0.16752488531E+02  0.11192543634E+02  0.34882432185E+02  0.10566000000E+00 0. -1.
         22    1    1    0    0    0  0.20787737964E+02 -0.11732110812E+02  0.14231848337E+02  0.27790609580E+02  0.00000000000E+00 0.  1.
</event>
<event>
 5    1  0.1764311E-003  0.9118800E+02  0.7818608E-02  0.1130116E+00
         25   -1    0    0    0    0  0.00000000000E+00  0.00000000000E+00  0.99999998245E-14  0.12500000000E+03  0.12500000000E+03 0.  0.
        -13    1    3    3    0    0  0.24055928595E+02 -0.26112025841E+02 -0.45649242722E+02  0.57830702220E+02  0.10566000000E+00 0.  1.
         23    2    1    0    0    0  0.27309396674E+02 -0.18972472075E+02 -0.16768584307E+02  0.87758312833E+02  0.79464320348E+02 0.  0.
         13    1    3    3    0    0  0.32534680792E+01  0.71395537660E+01  0.28880658415E+02  0.29927610614E+02  0.10566000000E+00 0. -1.
         22    1    1    0    0    0 -0.27309396674E+02  0.18972472075E+02  0.16768584307E+02  0.37241687167E+02  0.00000000000E+00 0.  1.
</event>
<event>
 5    1  0.1764311E-003  0.9118800E+02  0.7818608E-02  0.1130116E+00
         25   -1    0    0    0    0  0.00000000000E+00  0.00000000000E+00  0.99999998245E-14  0.12500000000E+03  0.12500000000E+03 0.  0.
        -13    1    3    3    0    0 -0.12062625087E+02  0.42864193530E+02  0.41265027513E+02  0.60709634084E+02  0.10566000000E+00 0.  1.
         23    2    1    0    0    0 -0.82839556210E+01  0.11923708760E+02  0.25538831164E+02  0.95622616718E+02  0.90998099867E+02 0.  0.
         13    1    3    3    0    0  0.37786694662E+01 -0.30940484770E+02 -0.15726196349E+02  0.34912982634E+02  0.10566000000E+00 0. -1.
         22    1    1    0    0    0  0.82839556210E+01 -0.11923708760E+02 -0.25538831164E+02  0.29377383282E+02  0.00000000000E+00 0.  1.
</event>
<event>
 5    1  0.1764311E-003  0.9118800E+02  0.7818608E-02  0.1130116E+00
         25   -1    0    0    0    0  0.00000000000E+00  0.00000000000E+00  0.99999998245E-14  0.12500000000E+03  0.12500000000E+03 0.  0.
        -13    1    3    3    0    0 -0.31574777851E+02  0.13967638003E+02  0.38795797952E+02  0.51934445318E+02  0.10566000000E+00 0. -1.
         23    2    1    0    0    0 -0.12718059699E+02  0.25911795330E+02  0.65379523969E+00  0.96127909186E+02  0.91689570271E+02 0.  0.
         13    1    3    3    0    0  0.18856718152E+02  0.11944157327E+02 -0.38142002712E+02  0.44193463868E+02  0.10566000000E+00 0.  1.
         22    1    1    0    0    0  0.12718059699E+02 -0.25911795330E+02 -0.65379523969E+00  0.28872090814E+02  0.00000000000E+00 0. -1.
</event>
<event>
 5    1  0.1764311E-003  0.9118800E+02  0.7818608E-02  0.1130116E+00
         25   -1    0    0    0    0  0.00000000000E+00  0.00000000000E+00  0.99999998245E-14  0.12500000000E+03  0.12500000000E+03 0.  0.
        -13    1    3    3    0    0 -0.19945150442E+02  0.24727989082E+02  0.29689909880E+02  0.43483150563E+02  0.10566000000E+00 0. -1.
         23    2    1    0    0    0 -0.20380623261E+02 -0.20148688993E+02  0.18813555769E+01  0.96279293681E+02  0.91895720359E+02 0.  0.
         13    1    3    3    0    0 -0.43547281934E+00 -0.44876678075E+02 -0.27808554303E+02  0.52796143118E+02  0.10566000000E+00 0.  1.
         22    1    1    0    0    0  0.20380623261E+02  0.20148688993E+02 -0.18813555769E+01  0.28720706319E+02  0.00000000000E+00 0.  1.
</event>
<event>
 5    1  0.1764311E-003  0.9118800E+02  0.7818608E-02  0.1130116E+00
         25   -1    0    0    0    0  0.00000000000E+00  0.00000000000E+00  0.99999998245E-14  0.12500000000E+03  0.12500000000E+03 0.  0.
        -13    1    3    3    0    0  0.11157390128E+02 -0.35736217242E+02  0.47115311785E+02  0.60178304611E+02  0.10566000000E+00 0.  1.
         23    2    1    0    0    0  0.15207897167E+02 -0.10043654978E+02  0.23065972365E+02  0.95602819477E+02  0.90970901223E+02 0.  0.
         13    1    3    3    0    0  0.40505070388E+01  0.25692562264E+02 -0.24049339420E+02  0.35424514867E+02  0.10566000000E+00 0. -1.
         22    1    1    0    0    0 -0.15207897167E+02  0.10043654978E+02 -0.23065972365E+02  0.29397180523E+02  0.00000000000E+00 0.  1.
</event>
<event>
 5    1  0.1764311E-003  0.9118800E+02  0.7818608E-02  0.1130116E+00
         25   -1    0    0    0    0  0.00000000000E+00  0.00000000000E+00  0.99999998245E-14  0.12500000000E+03  0.12500000000E+03 0.  0.
        -13    1    3    3    0    0 -0.21618713342E+02  0.37683806725E+02 -0.24003425679E+02  0.49634802953E+02  0.10566000000E+00 0. -1.
         23    2    1    0    0    0 -0.29049762830E+02 -0.33038368730E+01 -0.53458056219E+01  0.95278262226E+02  0.90523839714E+02 0.  0.
         13    1    3    3    0    0 -0.74310494875E+01 -0.40987643598E+02  0.18657620057E+02  0.45643459273E+02  0.10566000000E+00 0.  1.
         22    1    1    0    0    0  0.29049762830E+02  0.33038368730E+01  0.53458056219E+01  0.29721737774E+02  0.00000000000E+00 0.  1.
</event>
<event>
 5    1  0.1764311E-003  0.9118800E+02  0.7818608E-02  0.1130116E+00
         25   -1    0    0    0    0  0.00000000000E+00  0.00000000000E+00  0.99999998245E-14  0.12500000000E+03  0.12500000000E+03 0.  0.
        -13    1    3    3    0    0 -0.40127201080E+02 -0.49989316234E+00 -0.83075689066E+01  0.40981325319E+02  0.10566000000E+00 0.  1.
         23    2    1    0    0    0 -0.12077948513E+02 -0.20762775108E+02 -0.33496461315E+02  0.83781283486E+02  0.72940529690E+02 0.  0.
         13    1    3    3    0    0  0.28049252568E+02 -0.20262881946E+02 -0.25188892408E+02  0.42799958167E+02  0.10566000000E+00 0. -1.
         22    1    1    0    0    0  0.12077948513E+02  0.20762775108E+02  0.33496461315E+02  0.41218716514E+02  0.00000000000E+00 0. -1.
</event>
<event>
 5    1  0.1764311E-003  0.9118800E+02  0.7818608E-02  0.1130116E+00
         25   -1    0    0    0    0  0.00000000000E+00  0.00000000000E+00  0.99999998245E-14  0.12500000000E+03  0.12500000000E+03 0.  0.
        -13    1    3    3    0    0  0.13040020677E+02  0.24654307035E+02 -0.17057147239E+02  0.32693033365E+02  0.10566000000E+00 0. -1.
         23    2    1    0    0    0 -0.15277463112E+02 -0.26841153726E+02  0.77174669377E+00  0.94105922810E+02  0.88890273385E+02 0.  0.
         13    1    3    3    0    0 -0.28317483789E+02 -0.51495460761E+02  0.17828893933E+02  0.61412889445E+02  0.10566000000E+00 0.  1.
         22    1    1    0    0    0  0.15277463112E+02  0.26841153726E+02 -0.77174669377E+00  0.30894077190E+02  0.00000000000E+00 0. -1.
</event>
<event>
 5    1  0.1764311E-003  0.9118800E+02  0.7818608E-02  0.1130116E+00
         25   -1    0    0    0    0  0.00000000000E+00  0.00000000000E+00  0.99999998245E-14  0.12500000000E+03  0.12500000000E+03 0.  0.
        -13    1    3    3    0    0  0.37451071275E+02  0.94599744376E+01 -0.33010010089E+02  0.50810882556E+02  0.10566000000E+00 0. -1.
         23    2    1    0    0    0  0.17788186963E+02  0.22175806659E+02  0.56554463514E+01  0.96014312673E+02  0.91534573622E+02 0.  0.
         13    1    3    3    0    0 -0.19662884312E+02  0.12715832221E+02  0.38665456441E+02  0.45203430117E+02  0.10566000000E+00 0.  1.
         22    1    1    0    0    0 -0.17788186963E+02 -0.22175806659E+02 -0.56554463514E+01  0.28985687327E+02  0.00000000000E+00 0. -1.
</event>
<event>
 5    1  0.1764311E-003  0.9118800E+02  0.7818608E-02  0.1130116E+00
         25   -1    0    0    0    0  0.00000000000E+00  0.00000000000E+00  0.99999998245E-14  0.12500000000E+03  0.12500000000E+03 0.  0.
        -13    1    3    3    0    0 -0.29746501096E+02 -0.17969288361E+02  0.96727235164E+01  0.36073846425E+02  0.10566000000E+00 0.  1.
         23    2    1    0    0    0  0.20633754554E+02  0.16071028761E+02 -0.43871978376E+01  0.98480624116E+02  0.94842796400E+02 0.  0.
         13    1    3    3    0    0  0.50380255651E+02  0.34040317122E+02 -0.14059921354E+02  0.62406777690E+02  0.10566000000E+00 0. -1.
         22    1    1    0    0    0 -0.20633754554E+02 -0.16071028761E+02  0.43871978376E+01  0.26519375884E+02  0.00000000000E+00 0. -1.
</event>
<event>
 5    1  0.1764311E-003  0.9118800E+02  0.7818608E-02  0.1130116E+00
         25   -1    0    0    0    0  0.00000000000E+00  0.00000000000E+00  0.99999998245E-14  0.12500000000E+03  0.12500000000E+03 0.  0.
        -13    1    3    3    0    0  0.34879063595E+02 -0.88223092061E+01 -0.50781931254E+02  0.62235021675E+02  0.10566000000E+00 0. -1.
         23    2    1    0    0    0  0.15049033648E+02 -0.79908457541E+01 -0.23532542084E+02  0.95946470670E+02  0.91441881364E+02 0.  0.
         13    1    3    3    0    0 -0.19830029947E+02  0.83146345193E+00  0.27249389170E+02  0.33711448995E+02  0.10566000000E+00 0.  1.
         22    1    1    0    0    0 -0.15049033648E+02  0.79908457541E+01  0.23532542084E+02  0.29053529330E+02  0.00000000000E+00 0. -1.
</event>
<event>
 5    1  0.1764311E-003  0.9118800E+02  0.7818608E-02  0.1130116E+00
         25   -1    0    0    0    0  0.00000000000E+00  0.00000000000E+00  0.99999998245E-14  0.12500000000E+03  0.12500000000E+03 0.  0.
        -13    1    3    3    0    0  0.16329351643E+02 -0.48276097419E+01 -0.37876105803E+02  0.41527871312E+02  0.10566000000E+00 0.  1.
         23    2    1    0    0    0  0.24718490560E+02  0.48623460973E+01  0.14827836072E+02  0.95767981464E+02  0.91197562280E+02 0.  0.
         13    1    3    3    0    0  0.83891389172E+01  0.96899558392E+01  0.52703941876E+02  0.54240110151E+02  0.10566000000E+00 0. -1.
         22    1    1    0    0    0 -0.24718490560E+02 -0.48623460973E+01 -0.14827836072E+02  0.29232018536E+02  0.00000000000E+00 0. -1.
</event>
<event>
 5    1  0.1764311E-003  0.9118800E+02  0.7818608E-02  0.1130116E+00
         25   -1    0    0    0    0  0.00000000000E+00  0.00000000000E+00  0.99999998245E-14  0.12500000000E+03  0.12500000000E+03 0.  0.
        -13    1    3    3    0    0  0.32863390580E+02  0.18270651818E+02  0.17599317260E+01  0.37642099862E+02  0.10566000000E+00 0.  1.
         23    2    1    0    0    0 -0.10225685380E+02 -0.10938888515E+02 -0.24759713148E+02  0.96064428144E+02  0.91602985956E+02 0.  0.
         13    1    3    3    0    0 -0.43089075960E+02 -0.29209540334E+02 -0.26519644874E+02  0.58422328282E+02  0.10566000000E+00 0. -1.
         22    1    1    0    0    0  0.10225685380E+02  0.10938888515E+02  0.24759713148E+02  0.28935571856E+02  0.00000000000E+00 0. -1.
</event>
<event>
 5    1  0.1764311E-003  0.9118800E+02  0.7818608E-02  0.1130116E+00
         25   -1    0    0    0    0  0.00000000000E+00  0.00000000000E+00  0.99999998245E-14  0.12500000000E+03  0.12500000000E+03 0.  0.
        -13    1    3    3    0    0 -0.19445098470E+02  0.32139278762E+02  0.20162022713E+02  0.42632891266E+02  0.10566000000E+00 0.  1.
         23    2    1    0    0    0  0.30817814069E+01 -0.15965898238E+02  0.24133400430E+02  0.95899685577E+02  0.91377904300E+02 0.  0.
         13    1    3    3    0    0  0.22526879877E+02 -0.48105177000E+02  0.39713777176E+01  0.53266794311E+02  0.10566000000E+00 0. -1.
         22    1    1    0    0    0 -0.30817814069E+01  0.15965898238E+02 -0.24133400430E+02  0.29100314423E+02  0.00000000000E+00 0. -1.
</event>
<event>
 5    1  0.1764311E-003  0.9118800E+02  0.7818608E-02  0.1130116E+00
         25   -1    0    0    0    0  0.00000000000E+00  0.00000000000E+00  0.99999998245E-14  0.12500000000E+03  0.12500000000E+03 0.  0.
        -13    1    3    3    0    0  0.23484187837E+02  0.24434253441E+02  0.16128968658E+01  0.33928637166E+02  0.10566000000E+00 0. -1.
         23    2    1    0    0    0 -0.16699425051E+02 -0.96657039228E+01  0.26506538087E+02  0.92214436245E+02  0.86189379051E+02 0.  0.
         13    1    3    3    0    0 -0.40183612889E+02 -0.34099957364E+02  0.24893641222E+02  0.58285799079E+02  0.10566000000E+00 0.  1.
         22    1    1    0    0    0  0.16699425051E+02  0.96657039228E+01 -0.26506538087E+02  0.32785563755E+02  0.00000000000E+00 0.  1.
</event>
<event>
 5    1  0.1764311E-003  0.9118800E+02  0.7818608E-02  0.1130116E+00
         25   -1    0    0    0    0  0.00000000000E+00  0.00000000000E+00  0.99999998245E-14  0.12500000000E+03  0.12500000000E+03 0.  0.
        -13    1    3    3    0    0 -0.33626735387E+02 -0.18724111547E+02  0.38488603047E+02  0.54430996818E+02  0.10566000000E+00 0. -1.
         23    2    1    0    0    0 -0.96971193610E+01 -0.28837706661E+01  0.40554275187E+02  0.83202876976E+02  0.71942471767E+02 0.  0.
         13    1    3    3    0    0  0.23929616026E+02  0.15840340881E+02  0.20656721404E+01  0.28771880158E+02  0.10566000000E+00 0.  1.
         22    1    1    0    0    0  0.96971193610E+01  0.28837706661E+01 -0.40554275187E+02  0.41797123024E+02  0.00000000000E+00 0. -1.
</event>
<event>
 5    1  0.1764311E-003  0.9118800E+02  0.7818608E-02  0.1130116E+00
         25   -1    0    0    0    0  0.00000000000E+00  0.00000000000E+00  0.99999998245E-14  0.12500000000E+03  0.12500000000E+03 0.  0.
        -13    1    3    3    0    0  0.94535466853E+01  0.19815957731E+02  0.29102033461E+02  0.36455194984E+02  0.10566000000E+00 0.  1.
         23    2    1    0    0    0 -0.71612876201E+01 -0.28708238851E+02  0.28900025527E-01  0.95412031947E+02  0.90708367788E+02 0.  0.
         13    1    3    3    0    0 -0.16614834305E+02 -0.48524196581E+02 -0.29073133436E+02  0.58956836963E+02  0.10566000000E+00 0. -1.
         22    1    1    0    0    0  0.71612876201E+01  0.28708238851E+02 -0.28900025527E-01  0.29587968053E+02  0.00000000000E+00 0. -1.
</event>
<event>
 5    1  0.1764311E-003  0.9118800E+02  0.7818608E-02  0.1130116E+00
         25   -1    0    0    0    0  0.00000000000E+00  0.00000000000E+00  0.99999998245E-14  0.12500000000E+03  0.12500000000E+03 0.  0.
        -13    1    3    3    0    0  0.21409599308E+02 -0.34749413164E+02 -0.20808405394E+02  0.45813683074E+02  0.10566000000E+00 0.  1.
         23    2    1    0    0    0  0.25562853852E+02  0.12854532230E+02 -0.73288452264E+01  0.95463404592E+02  0.90779133880E+02 0.  0.
         13    1    3    3    0    0  0.41532545443E+01  0.47603945394E+02  0.13479560167E+02  0.49649721518E+02  0.10566000000E+00 0. -1.
         22    1    1    0    0    0 -0.25562853852E+02 -0.12854532230E+02  0.73288452264E+01  0.29536595408E+02  0.00000000000E+00 0. -1.
</event>
<event>
 5    1  0.1764311E-003  0.9118800E+02  0.7818608E-02  0.1130116E+00
         25   -1    0    0    0    0  0.00000000000E+00  0.00000000000E+00  0.99999998245E-14  0.12500000000E+03  0.12500000000E+03 0.  0.
        -13    1    3    3    0    0  0.16973849920E+02  0.30623227790E+02  0.24489124176E+01  0.35098461468E+02  0.10566000000E+00 0. -1.
         23    2    1    0    0    0  0.53030103272E+01 -0.28471870201E+02  0.59378871223E+01  0.95436038582E+02  0.90741443924E+02 0.  0.
         13    1    3    3    0    0 -0.11670839592E+02 -0.59095097991E+02  0.34889747047E+01  0.60337577113E+02  0.10566000000E+00 0.  1.
         22    1    1    0    0    0 -0.53030103272E+01  0.28471870201E+02 -0.59378871223E+01  0.29563961418E+02  0.00000000000E+00 0.  1.
</event>
<event>
 5    1  0.1764311E-003  0.9118800E+02  0.7818608E-02  0.1130116E+00
         25   -1    0    0    0    0  0.00000000000E+00  0.00000000000E+00  0.99999998245E-14  0.12500000000E+03  0.12500000000E+03 0.  0.
        -13    1    3    3    0    0 -0.23497528037E+02  0.14853762112E+02  0.54049681842E+00  0.27804161084E+02  0.10566000000E+00 0.  1.
         23    2    1    0    0    0  0.36064519902E+02  0.93973648472E+01 -0.20816361997E+01  0.87673156160E+02  0.79330252993E+02 0.  0.
         13    1    3    3    0    0  0.59562047939E+02 -0.54563972653E+01 -0.26221330181E+01  0.59868995076E+02  0.10566000000E+00 0. -1.
         22    1    1    0    0    0 -0.36064519902E+02 -0.93973648472E+01  0.20816361997E+01  0.37326843840E+02  0.00000000000E+00 0. -1.
</event>
<event>
 5    1  0.1764311E-003  0.9118800E+02  0.7818608E-02  0.1130116E+00
         25   -1    0    0    0    0  0.00000000000E+00  0.00000000000E+00  0.99999998245E-14  0.12500000000E+03  0.12500000000E+03 0.  0.
        -13    1    3    3    0    0 -0.18101187013E+02 -0.41487583879E+02  0.23335386687E+02  0.50925671554E+02  0.10566000000E+00 0. -1.
         23    2    1    0    0    0  0.19093728865E+02 -0.18410350605E+02  0.83214438484E+01  0.97201476315E+02  0.93141661348E+02 0.  0.
         13    1    3    3    0    0  0.37194915877E+02  0.23077233274E+02 -0.15013942838E+02  0.46275804761E+02  0.10566000000E+00 0.  1.
         22    1    1    0    0    0 -0.19093728865E+02  0.18410350605E+02 -0.83214438484E+01  0.27798523685E+02  0.00000000000E+00 0.  1.
</event>
<event>
 5    1  0.1764311E-003  0.9118800E+02  0.7818608E-02  0.1130116E+00
         25   -1    0    0    0    0  0.00000000000E+00  0.00000000000E+00  0.99999998245E-14  0.12500000000E+03  0.12500000000E+03 0.  0.
        -13    1    3    3    0    0  0.10231830617E+02  0.10854399458E+02 -0.35149531700E+02  0.38183885189E+02  0.10566000000E+00 0. -1.
         23    2    1    0    0    0  0.19158662163E+02 -0.10765824640E+01  0.21161918988E+02  0.96433582988E+02  0.92105351348E+02 0.  0.
         13    1    3    3    0    0  0.89268315461E+01 -0.11930981922E+02  0.56311450688E+02  0.58249697799E+02  0.10566000000E+00 0.  1.
         22    1    1    0    0    0 -0.19158662163E+02  0.10765824640E+01 -0.21161918988E+02  0.28566417012E+02  0.00000000000E+00 0.  1.
</event>
<event>
 5    1  0.1764311E-003  0.9118800E+02  0.7818608E-02  0.1130116E+00
         25   -1    0    0    0    0  0.00000000000E+00  0.00000000000E+00  0.99999998245E-14  0.12500000000E+03  0.12500000000E+03 0.  0.
        -13    1    3    3    0    0 -0.55199873229E+01 -0.27961558688E+02 -0.18537473037E+02  0.33999530804E+02  0.10566000000E+00 0. -1.
         23    2    1    0    0    0  0.51928540214E+01  0.18638044271E+02  0.21291948304E+02  0.96230406855E+02  0.91829198590E+02 0.  0.
         13    1    3    3    0    0  0.10712841344E+02  0.46599602959E+02  0.39829421341E+02  0.62230876050E+02  0.10566000000E+00 0.  1.
         22    1    1    0    0    0 -0.51928540214E+01 -0.18638044271E+02 -0.21291948304E+02  0.28769593145E+02  0.00000000000E+00 0.  1.
</event>
<event>
 5    1  0.1764311E-003  0.9118800E+02  0.7818608E-02  0.1130116E+00
         25   -1    0    0    0    0  0.00000000000E+00  0.00000000000E+00  0.99999998245E-14  0.12500000000E+03  0.12500000000E+03 0.  0.
        -13    1    3    3    0    0 -0.11335894057E+02 -0.18703785168E+02 -0.52778326556E+02  0.57130525919E+02  0.10566000000E+00 0. -1.
         23    2    1    0    0    0  0.10724347420E+02  0.62690730415E+00 -0.26082999368E+02  0.96791357772E+02  0.92589629240E+02 0.  0.
         13    1    3    3    0    0  0.22060241476E+02  0.19330692473E+02  0.26695327188E+02  0.39660831852E+02  0.10566000000E+00 0.  1.
         22    1    1    0    0    0 -0.10724347420E+02 -0.62690730415E+00  0.26082999368E+02  0.28208642228E+02  0.00000000000E+00 0. -1.
</event>
<event>
 5    1  0.1764311E-003  0.9118800E+02  0.7818608E-02  0.1130116E+00
         25   -1    0    0    0    0  0.00000000000E+00  0.00000000000E+00  0.99999998245E-14  0.12500000000E+03  0.12500000000E+03 0.  0.
        -13    1    3    3    0    0 -0.49230584186E+02  0.20054818304E+01  0.23632269031E+02  0.54645838636E+02  0.10566000000E+00 0. -1.
         23    2    1    0    0    0 -0.26248814295E+02 -0.11276249609E+02 -0.74068328245E+01  0.95487032857E+02  0.90811663426E+02 0.  0.
         13    1    3    3    0    0  0.22981769891E+02 -0.13281731439E+02 -0.31039101855E+02  0.40841194221E+02  0.10566000000E+00 0.  1.
         22    1    1    0    0    0  0.26248814295E+02  0.11276249609E+02  0.74068328245E+01  0.29512967143E+02  0.00000000000E+00 0.  1.
</event>
<event>
 5    1  0.1764311E-003  0.9118800E+02  0.7818608E-02  0.1130116E+00
         25   -1    0    0    0    0  0.00000000000E+00  0.00000000000E+00  0.99999998245E-14  0.12500000000E+03  0.12500000000E+03 0.  0.
        -13    1    3    3    0    0 -0.31538155006E+02  0.85256003575E+00 -0.52799686562E+02  0.61507724270E+02  0.10566000000E+00 0.  1.
         23    2    1    0    0    0 -0.15191204448E+02  0.81721572561E+01 -0.23496771915E+02  0.95851155474E+02  0.91311493627E+02 0.  0.
         13    1    3    3    0    0  0.16346950558E+02  0.73195972203E+01  0.29302914647E+02  0.34343431204E+02  0.10566000000E+00 0. -1.
         22    1    1    0    0    0  0.15191204448E+02 -0.81721572561E+01  0.23496771915E+02  0.29148844526E+02  0.00000000000E+00 0.  1.
</event>
<event>
 5    1  0.1764311E-003  0.9118800E+02  0.7818608E-02  0.1130116E+00
         25   -1    0    0    0    0  0.00000000000E+00  0.00000000000E+00  0.99999998245E-14  0.12500000000E+03  0.12500000000E+03 0.  0.
        -13    1    3    3    0    0 -0.31186853048E+02 -0.96394931784E+00 -0.34158318134E+02  0.46263926153E+02  0.10566000000E+00 0. -1.
         23    2    1    0    0    0  0.54985827887E+01  0.24977910558E+02 -0.16628454243E+02  0.94493674114E+02  0.89433877969E+02 0.  0.
         13    1    3    3    0    0  0.36685435836E+02  0.25941859876E+02  0.17529863891E+02  0.48229747961E+02  0.10566000000E+00 0.  1.
         22    1    1    0    0    0 -0.54985827887E+01 -0.24977910558E+02  0.16628454243E+02  0.30506325886E+02  0.00000000000E+00 0.  1.
</event>
<event>
 5    1  0.1764311E-003  0.9118800E+02  0.7818608E-02  0.1130116E+00
         25   -1    0    0    0    0  0.00000000000E+00  0.00000000000E+00  0.99999998245E-14  0.12500000000E+03  0.12500000000E+03 0.  0.
        -13    1    3    3    0    0 -0.38720365339E+02  0.28738489178E+02 -0.29282359330E+02  0.56414848969E+02  0.10566000000E+00 0. -1.
         23    2    1    0    0    0 -0.33200315062E+01  0.11347520577E+02 -0.26532747995E+02  0.95952185132E+02  0.91449692635E+02 0.  0.
         13    1    3    3    0    0  0.35400333833E+02 -0.17390968601E+02  0.27496113352E+01  0.39537336163E+02  0.10566000000E+00 0.  1.
         22    1    1    0    0    0  0.33200315062E+01 -0.11347520577E+02  0.26532747995E+02  0.29047814868E+02  0.00000000000E+00 0. -1.
</event>
<event>
 5    1  0.1764311E-003  0.9118800E+02  0.7818608E-02  0.1130116E+00
         25   -1    0    0    0    0  0.00000000000E+00  0.00000000000E+00  0.99999998245E-14  0.12500000000E+03  0.12500000000E+03 0.  0.
        -13    1    3    3    0    0 -0.44354612896E+02 -0.13057690589E+02  0.41721760103E+02  0.62278016979E+02  0.10566000000E+00 0.  1.
         23    2    1    0    0    0 -0.22370257652E+02 -0.68134739622E+01  0.16115236001E+02  0.96600128764E+02  0.92331100887E+02 0.  0.
         13    1    3    3    0    0  0.21984355244E+02  0.62442166268E+01 -0.25606524102E+02  0.34322111785E+02  0.10566000000E+00 0. -1.
         22    1    1    0    0    0  0.22370257652E+02  0.68134739622E+01 -0.16115236001E+02  0.28399871236E+02  0.00000000000E+00 0.  1.
</event>
<event>
 5    1  0.1764311E-003  0.9118800E+02  0.7818608E-02  0.1130116E+00
         25   -1    0    0    0    0  0.00000000000E+00  0.00000000000E+00  0.99999998245E-14  0.12500000000E+03  0.12500000000E+03 0.  0.
        -13    1    3    3    0    0  0.14314167973E+02 -0.33410151003E+02 -0.31102595229E+02  0.47838438403E+02  0.10566000000E+00 0. -1.
         23    2    1    0    0    0 -0.18317119494E+02 -0.32960202294E+01 -0.26691512080E+02  0.92460525004E+02  0.86545544373E+02 0.  0.
         13    1    3    3    0    0 -0.32631287467E+02  0.30114130774E+02  0.44110831486E+01  0.44622086601E+02  0.10566000000E+00 0.  1.
         22    1    1    0    0    0  0.18317119494E+02  0.32960202294E+01  0.26691512080E+02  0.32539474996E+02  0.00000000000E+00 0.  1.
</event>
<event>
 5    1  0.1764311E-003  0.9118800E+02  0.7818608E-02  0.1130116E+00
         25   -1    0    0    0    0  0.00000000000E+00  0.00000000000E+00  0.99999998245E-14  0.12500000000E+03  0.12500000000E+03 0.  0.
        -13    1    3    3    0    0  0.49864781385E+02 -0.22542158119E+02 -0.22365351221E+02  0.59117386736E+02  0.10566000000E+00 0. -1.
         23    2    1    0    0    0  0.26613858557E+02  0.37362454519E+01 -0.10203489874E+02  0.96253379277E+02  0.91860463853E+02 0.  0.
         13    1    3    3    0    0 -0.23250922828E+02  0.26278403570E+02  0.12161861346E+02  0.37135992541E+02  0.10566000000E+00 0.  1.
         22    1    1    0    0    0 -0.26613858557E+02 -0.37362454519E+01  0.10203489874E+02  0.28746620723E+02  0.00000000000E+00 0. -1.
</event>
<event>
 5    1  0.1764311E-003  0.9118800E+02  0.7818608E-02  0.1130116E+00
         25   -1    0    0    0    0  0.00000000000E+00  0.00000000000E+00  0.99999998245E-14  0.12500000000E+03  0.12500000000E+03 0.  0.
        -13    1    3    3    0    0  0.46514666720E+02  0.36088162812E+02  0.15029307954E+02  0.60760686112E+02  0.10566000000E+00 0.  1.
         23    2    1    0    0    0  0.27573322430E+02  0.16146535227E+02 -0.17853199110E+01  0.92997092681E+02  0.87317084069E+02 0.  0.
         13    1    3    3    0    0 -0.18941344289E+02 -0.19941627585E+02 -0.16814627865E+02  0.32236406569E+02  0.10566000000E+00 0. -1.
         22    1    1    0    0    0 -0.27573322430E+02 -0.16146535227E+02  0.17853199110E+01  0.32002907319E+02  0.00000000000E+00 0.  1.
</event>
<event>
 5    1  0.1764311E-003  0.9118800E+02  0.7818608E-02  0.1130116E+00
         25   -1    0    0    0    0  0.00000000000E+00  0.00000000000E+00  0.99999998245E-14  0.12500000000E+03  0.12500000000E+03 0.  0.
        -13    1    3    3    0    0  0.19799515520E+02  0.14726501113E+02  0.37016190436E+02  0.44487078667E+02  0.10566000000E+00 0.  1.
         23    2    1    0    0    0  0.80782400284E+01  0.20622961207E+02 -0.15076578082E+02  0.98206946841E+02  0.94481409337E+02 0.  0.
         13    1    3    3    0    0 -0.11721275492E+02  0.58964600947E+01 -0.52092768518E+02  0.53719868174E+02  0.10566000000E+00 0. -1.
         22    1    1    0    0    0 -0.80782400284E+01 -0.20622961207E+02  0.15076578082E+02  0.26793053159E+02  0.00000000000E+00 0. -1.
</event>
<event>
 5    1  0.1764311E-003  0.9118800E+02  0.7818608E-02  0.1130116E+00
         25   -1    0    0    0    0  0.00000000000E+00  0.00000000000E+00  0.99999998245E-14  0.12500000000E+03  0.12500000000E+03 0.  0.
        -13    1    3    3    0    0 -0.55731410574E+02 -0.76350184722E+01  0.16669491343E+02  0.58669981569E+02  0.10566000000E+00 0.  1.
         23    2    1    0    0    0 -0.35107965051E+02  0.92922698868E+01  0.15881233725E+02  0.85362529416E+02  0.75601801262E+02 0.  0.
         13    1    3    3    0    0  0.20623445524E+02  0.16927288359E+02 -0.78825761852E+00  0.26692547847E+02  0.10566000000E+00 0. -1.
         22    1    1    0    0    0  0.35107965051E+02 -0.92922698868E+01 -0.15881233725E+02  0.39637470584E+02  0.00000000000E+00 0.  1.
</event>
<event>
 5    1  0.1764311E-003  0.9118800E+02  0.7818608E-02  0.1130116E+00
         25   -1    0    0    0    0  0.00000000000E+00  0.00000000000E+00  0.99999998245E-14  0.12500000000E+03  0.12500000000E+03 0.  0.
        -13    1    3    3    0    0  0.11822197821E+02 -0.43396243104E+02  0.14970291085E+02  0.47403787360E+02  0.10566000000E+00 0.  1.
         23    2    1    0    0    0  0.28466371408E+02 -0.47694344779E+00  0.13575503066E+02  0.93458661099E+02  0.87975367431E+02 0.  0.
         13    1    3    3    0    0  0.16644173587E+02  0.42919299656E+02 -0.13947880188E+01  0.46054873738E+02  0.10566000000E+00 0. -1.
         22    1    1    0    0    0 -0.28466371408E+02  0.47694344779E+00 -0.13575503066E+02  0.31541338901E+02  0.00000000000E+00 0. -1.
</event>
<event>
 5    1  0.1764311E-003  0.9118800E+02  0.7818608E-02  0.1130116E+00
         25   -1    0    0    0    0  0.00000000000E+00  0.00000000000E+00  0.99999998245E-14  0.12500000000E+03  0.12500000000E+03 0.  0.
        -13    1    3    3    0    0 -0.44479681751E+01 -0.16755481829E+02  0.35373883133E+02  0.39393570087E+02  0.10566000000E+00 0. -1.
         23    2    1    0    0    0 -0.37169066300E+02 -0.59089566385E+01  0.20985951192E+01  0.87305711843E+02  0.78749145778E+02 0.  0.
         13    1    3    3    0    0 -0.32721098125E+02  0.10846525190E+02 -0.33275288014E+02  0.47912141756E+02  0.10566000000E+00 0.  1.
         22    1    1    0    0    0  0.37169066300E+02  0.59089566385E+01 -0.20985951192E+01  0.37694288157E+02  0.00000000000E+00 0. -1.
</event>
<event>
 5    1  0.1764311E-003  0.9118800E+02  0.7818608E-02  0.1130116E+00
         25   -1    0    0    0    0  0.00000000000E+00  0.00000000000E+00  0.99999998245E-14  0.12500000000E+03  0.12500000000E+03 0.  0.
        -13    1    3    3    0    0  0.12329242724E+02  0.15739237543E+02  0.55451625170E+02  0.58945972912E+02  0.10566000000E+00 0.  1.
         23    2    1    0    0    0  0.18851991009E+02  0.12310885921E+02  0.20885102161E+02  0.94289367160E+02  0.89147864753E+02 0.  0.
         13    1    3    3    0    0  0.65227482848E+01 -0.34283516211E+01 -0.34566523009E+02  0.35343394248E+02  0.10566000000E+00 0. -1.
         22    1    1    0    0    0 -0.18851991009E+02 -0.12310885921E+02 -0.20885102161E+02  0.30710632840E+02  0.00000000000E+00 0.  1.
</event>
<event>
 5    1  0.1764311E-003  0.9118800E+02  0.7818608E-02  0.1130116E+00
         25   -1    0    0    0    0  0.00000000000E+00  0.00000000000E+00  0.99999998245E-14  0.12500000000E+03  0.12500000000E+03 0.  0.
        -13    1    3    3    0    0 -0.57603803189E+01 -0.42740568125E+02 -0.42011828436E+02  0.60207499845E+02  0.10566000000E+00 0. -1.
         23    2    1    0    0    0 -0.11987107608E+02 -0.10523215440E+02 -0.18487636503E+02  0.10058235238E+03  0.97573500983E+02 0.  0.
         13    1    3    3    0    0 -0.62267272890E+01  0.32217352685E+02  0.23524191933E+02  0.40374852531E+02  0.10566000000E+00 0.  1.
         22    1    1    0    0    0  0.11987107608E+02  0.10523215440E+02  0.18487636503E+02  0.24417647624E+02  0.00000000000E+00 0. -1.
</event>
<event>
 5    1  0.1764311E-003  0.9118800E+02  0.7818608E-02  0.1130116E+00
         25   -1    0    0    0    0  0.00000000000E+00  0.00000000000E+00  0.99999998245E-14  0.12500000000E+03  0.12500000000E+03 0.  0.
        -13    1    3    3    0    0  0.30031528184E+02 -0.13843450052E+02  0.29760940970E+02  0.44488858896E+02  0.10566000000E+00 0.  1.
         23    2    1    0    0    0 -0.18636681069E+02 -0.18026813965E+02  0.11448470167E+02  0.96656405095E+02  0.92407257690E+02 0.  0.
         13    1    3    3    0    0 -0.48668209252E+02 -0.41833639133E+01 -0.18312470804E+02  0.52167546199E+02  0.10566000000E+00 0. -1.
         22    1    1    0    0    0  0.18636681069E+02  0.18026813965E+02 -0.11448470167E+02  0.28343594905E+02  0.00000000000E+00 0. -1.
</event>
<event>
 5    1  0.1764311E-003  0.9118800E+02  0.7818608E-02  0.1130116E+00
         25   -1    0    0    0    0  0.00000000000E+00  0.00000000000E+00  0.99999998245E-14  0.12500000000E+03  0.12500000000E+03 0.  0.
        -13    1    3    3    0    0  0.30493299499E+02 -0.29285167625E+02  0.17456688859E+02  0.45740676723E+02  0.10566000000E+00 0. -1.
         23    2    1    0    0    0  0.80086862144E+01 -0.16634270945E+02 -0.24091929032E+02  0.94647750178E+02  0.89648968453E+02 0.  0.
         13    1    3    3    0    0 -0.22484613284E+02  0.12650896680E+02 -0.41548617890E+02  0.48907073455E+02  0.10566000000E+00 0.  1.
         22    1    1    0    0    0 -0.80086862144E+01  0.16634270945E+02  0.24091929032E+02  0.30352249822E+02  0.00000000000E+00 0. -1.
</event>
<event>
 5    1  0.1764311E-003  0.9118800E+02  0.7818608E-02  0.1130116E+00
         25   -1    0    0    0    0  0.00000000000E+00  0.00000000000E+00  0.99999998245E-14  0.12500000000E+03  0.12500000000E+03 0.  0.
        -13    1    3    3    0    0  0.45789562037E+02 -0.24045873853E+02 -0.34401072560E+02  0.62115481147E+02  0.10566000000E+00 0. -1.
         23    2    1    0    0    0  0.22528929053E+02 -0.76505332120E+01 -0.19491269633E+02  0.94243002510E+02  0.89082830150E+02 0.  0.
         13    1    3    3    0    0 -0.23260632983E+02  0.16395340641E+02  0.14909802928E+02  0.32127521363E+02  0.10566000000E+00 0.  1.
         22    1    1    0    0    0 -0.22528929053E+02  0.76505332120E+01  0.19491269633E+02  0.30756997490E+02  0.00000000000E+00 0. -1.
</event>
<event>
 5    1  0.1764311E-003  0.9118800E+02  0.7818608E-02  0.1130116E+00
         25   -1    0    0    0    0  0.00000000000E+00  0.00000000000E+00  0.99999998245E-14  0.12500000000E+03  0.12500000000E+03 0.  0.
        -13    1    3    3    0    0 -0.25501850567E+01  0.13184107517E+02  0.53917842576E+02  0.55564998398E+02  0.10566000000E+00 0.  1.
         23    2    1    0    0    0 -0.13011272645E+02  0.20693347182E+02  0.15567381038E+02  0.96019813910E+02  0.91542085827E+02 0.  0.
         13    1    3    3    0    0 -0.10461087589E+02  0.75092396654E+01 -0.38350461538E+02  0.40454815512E+02  0.10566000000E+00 0. -1.
         22    1    1    0    0    0  0.13011272645E+02 -0.20693347182E+02 -0.15567381038E+02  0.28980186090E+02  0.00000000000E+00 0.  1.
</event>
<event>
 5    1  0.1764311E-003  0.9118800E+02  0.7818608E-02  0.1130116E+00
         25   -1    0    0    0    0  0.00000000000E+00  0.00000000000E+00  0.99999998245E-14  0.12500000000E+03  0.12500000000E+03 0.  0.
        -13    1    3    3    0    0 -0.20504686072E+02  0.83197047431E+01  0.29598574242E+02  0.36956006265E+02  0.10566000000E+00 0.  1.
         23    2    1    0    0    0  0.14810725321E+01 -0.15430483933E+02 -0.22133634440E+02  0.97977950045E+02  0.94177956610E+02 0.  0.
         13    1    3    3    0    0  0.21985758604E+02 -0.23750188676E+02 -0.51732208681E+02  0.61021943780E+02  0.10566000000E+00 0. -1.
         22    1    1    0    0    0 -0.14810725321E+01  0.15430483933E+02  0.22133634440E+02  0.27022049955E+02  0.00000000000E+00 0. -1.
</event>
<event>
 5    1  0.1764311E-003  0.9118800E+02  0.7818608E-02  0.1130116E+00
         25   -1    0    0    0    0  0.00000000000E+00  0.00000000000E+00  0.99999998245E-14  0.12500000000E+03  0.12500000000E+03 0.  0.
        -13    1    3    3    0    0  0.37808971421E+02  0.42347245352E+01 -0.37846169934E+02  0.53663721028E+02  0.10566000000E+00 0. -1.
         23    2    1    0    0    0 -0.19885750533E+01  0.12232187477E+02 -0.26393793203E+02  0.95841585077E+02  0.91298391383E+02 0.  0.
         13    1    3    3    0    0 -0.39797546474E+02  0.79974629421E+01  0.11452376732E+02  0.42177864049E+02  0.10566000000E+00 0.  1.
         22    1    1    0    0    0  0.19885750533E+01 -0.12232187477E+02  0.26393793203E+02  0.29158414923E+02  0.00000000000E+00 0. -1.
</event>
<event>
 5    1  0.1764311E-003  0.9118800E+02  0.7818608E-02  0.1130116E+00
         25   -1    0    0    0    0  0.00000000000E+00  0.00000000000E+00  0.99999998245E-14  0.12500000000E+03  0.12500000000E+03 0.  0.
        -13    1    3    3    0    0 -0.13294452033E+02 -0.33066325980E+02  0.15285838403E+02  0.38778762079E+02  0.10566000000E+00 0.  1.
         23    2    1    0    0    0  0.57461780778E+00  0.53151442409E+00 -0.28953924125E+02  0.96035497321E+02  0.91563498897E+02 0.  0.
         13    1    3    3    0    0  0.13869069840E+02  0.33597840404E+02 -0.44239762527E+02  0.57256735242E+02  0.10566000000E+00 0. -1.
         22    1    1    0    0    0 -0.57461780778E+00 -0.53151442409E+00  0.28953924125E+02  0.28964502679E+02  0.00000000000E+00 0. -1.
</event>
<event>
 5    1  0.1764311E-003  0.9118800E+02  0.7818608E-02  0.1130116E+00
         25   -1    0    0    0    0  0.00000000000E+00  0.00000000000E+00  0.99999998245E-14  0.12500000000E+03  0.12500000000E+03 0.  0.
        -13    1    3    3    0    0 -0.31168887395E+02  0.19489855808E+02  0.13748467691E+02  0.39247745779E+02  0.10566000000E+00 0. -1.
         23    2    1    0    0    0  0.23732944696E+02  0.16956190135E+02  0.29556894589E+00  0.95830625498E+02  0.91283384986E+02 0.  0.
         13    1    3    3    0    0  0.54901832091E+02 -0.25336656738E+01 -0.13452898745E+02  0.56582879719E+02  0.10566000000E+00 0.  1.
         22    1    1    0    0    0 -0.23732944696E+02 -0.16956190135E+02 -0.29556894589E+00  0.29169374502E+02  0.00000000000E+00 0.  1.
</event>
<event>
 5    1  0.1764311E-003  0.9118800E+02  0.7818608E-02  0.1130116E+00
         25   -1    0    0    0    0  0.00000000000E+00  0.00000000000E+00  0.99999998245E-14  0.12500000000E+03  0.12500000000E+03 0.  0.
        -13    1    3    3    0    0 -0.92393790167E+01 -0.38053047284E+02  0.30906713600E+02  0.49886236997E+02  0.10566000000E+00 0.  1.
         23    2    1    0    0    0 -0.16230632527E+02  0.72139932426E+01  0.22298766791E+02  0.96491928666E+02  0.92184500685E+02 0.  0.
         13    1    3    3    0    0 -0.69912535108E+01  0.45267040526E+02 -0.86079468081E+01  0.46605691669E+02  0.10566000000E+00 0. -1.
         22    1    1    0    0    0  0.16230632527E+02 -0.72139932426E+01 -0.22298766791E+02  0.28508071334E+02  0.00000000000E+00 0.  1.
</event>
<event>
 5    1  0.1764311E-003  0.9118800E+02  0.7818608E-02  0.1130116E+00
         25   -1    0    0    0    0  0.00000000000E+00  0.00000000000E+00  0.99999998245E-14  0.12500000000E+03  0.12500000000E+03 0.  0.
        -13    1    3    3    0    0  0.35682918477E+00  0.40423895076E+02  0.81840520987E+01  0.41245708782E+02  0.10566000000E+00 0.  1.
         23    2    1    0    0    0  0.27813926079E+02 -0.62380980210E+01  0.80253663329E+01  0.95386914115E+02  0.90673747737E+02 0.  0.
         13    1    3    3    0    0  0.27457096894E+02 -0.46661993097E+02 -0.15868576574E+00  0.54141205333E+02  0.10566000000E+00 0. -1.
         22    1    1    0    0    0 -0.27813926079E+02  0.62380980210E+01 -0.80253663329E+01  0.29613085885E+02  0.00000000000E+00 0. -1.
</event>
<event>
 5    1  0.1764311E-003  0.9118800E+02  0.7818608E-02  0.1130116E+00
         25   -1    0    0    0    0  0.00000000000E+00  0.00000000000E+00  0.99999998245E-14  0.12500000000E+03  0.12500000000E+03 0.  0.
        -13    1    3    3    0    0  0.28508395598E+02 -0.24980402460E+02 -0.10817646429E+02  0.39418038573E+02  0.10566000000E+00 0.  1.
         23    2    1    0    0    0  0.37042279621E+01 -0.26848082429E+01  0.31427164295E+02  0.93241597084E+02  0.87666409024E+02 0.  0.
         13    1    3    3    0    0 -0.24804167636E+02  0.22295594217E+02  0.42244810725E+02  0.53823558511E+02  0.10566000000E+00 0. -1.
         22    1    1    0    0    0 -0.37042279621E+01  0.26848082429E+01 -0.31427164295E+02  0.31758402916E+02  0.00000000000E+00 0. -1.
</event>
<event>
 5    1  0.1764311E-003  0.9118800E+02  0.7818608E-02  0.1130116E+00
         25   -1    0    0    0    0  0.00000000000E+00  0.00000000000E+00  0.99999998245E-14  0.12500000000E+03  0.12500000000E+03 0.  0.
        -13    1    3    3    0    0 -0.15420548319E+01  0.93512013791E+01 -0.43059240201E+02  0.44090046848E+02  0.10566000000E+00 0.  1.
         23    2    1    0    0    0  0.30293655752E+02 -0.46232473199E+01 -0.83038671206E+01  0.93250445613E+02  0.87679024877E+02 0.  0.
         13    1    3    3    0    0  0.31835710584E+02 -0.13974448699E+02  0.34755373080E+02  0.49160398766E+02  0.10566000000E+00 0. -1.
         22    1    1    0    0    0 -0.30293655752E+02  0.46232473199E+01  0.83038671206E+01  0.31749554387E+02  0.00000000000E+00 0.  1.
</event>
<event>
 5    1  0.1764311E-003  0.9118800E+02  0.7818608E-02  0.1130116E+00
         25   -1    0    0    0    0  0.00000000000E+00  0.00000000000E+00  0.99999998245E-14  0.12500000000E+03  0.12500000000E+03 0.  0.
        -13    1    3    3    0    0 -0.15350854978E+02 -0.36832853536E+02  0.31984950371E+02  0.51140552035E+02  0.10566000000E+00 0.  1.
         23    2    1    0    0    0 -0.24663601755E+02  0.32509935024E+01  0.16692258578E+02  0.95041800676E+02  0.90196730368E+02 0.  0.
         13    1    3    3    0    0 -0.93127467772E+01  0.40083847039E+02 -0.15292691794E+02  0.43901248641E+02  0.10566000000E+00 0. -1.
         22    1    1    0    0    0  0.24663601755E+02 -0.32509935024E+01 -0.16692258578E+02  0.29958199324E+02  0.00000000000E+00 0. -1.
</event>
<event>
 5    1  0.1764311E-003  0.9118800E+02  0.7818608E-02  0.1130116E+00
         25   -1    0    0    0    0  0.00000000000E+00  0.00000000000E+00  0.99999998245E-14  0.12500000000E+03  0.12500000000E+03 0.  0.
        -13    1    3    3    0    0  0.50750768014E+02 -0.82252646068E+01  0.17603427379E+02  0.54343235563E+02  0.10566000000E+00 0.  1.
         23    2    1    0    0    0  0.25941965813E+02  0.12279744861E+02  0.24504448803E+02  0.87260819627E+02  0.78677855250E+02 0.  0.
         13    1    3    3    0    0 -0.24808802201E+02  0.20505009468E+02  0.69010214240E+01  0.32917584065E+02  0.10566000000E+00 0. -1.
         22    1    1    0    0    0 -0.25941965813E+02 -0.12279744861E+02 -0.24504448803E+02  0.37739180373E+02  0.00000000000E+00 0.  1.
</event>
<event>
 5    1  0.1764311E-003  0.9118800E+02  0.7818608E-02  0.1130116E+00
         25   -1    0    0    0    0  0.00000000000E+00  0.00000000000E+00  0.99999998245E-14  0.12500000000E+03  0.12500000000E+03 0.  0.
        -13    1    3    3    0    0 -0.25278462105E+02 -0.54398375605E+01 -0.51763884564E+02  0.57862797964E+02  0.10566000000E+00 0. -1.
         23    2    1    0    0    0 -0.57499445097E+01 -0.18421697044E+02 -0.22819474157E+02  0.95114398372E+02  0.90297284528E+02 0.  0.
         13    1    3    3    0    0  0.19528517595E+02 -0.12981859484E+02  0.28944410407E+02  0.37251600408E+02  0.10566000000E+00 0.  1.
         22    1    1    0    0    0  0.57499445097E+01  0.18421697044E+02  0.22819474157E+02  0.29885601628E+02  0.00000000000E+00 0. -1.
</event>
<event>
 5    1  0.1764311E-003  0.9118800E+02  0.7818608E-02  0.1130116E+00
         25   -1    0    0    0    0  0.00000000000E+00  0.00000000000E+00  0.99999998245E-14  0.12500000000E+03  0.12500000000E+03 0.  0.
        -13    1    3    3    0    0  0.20528342449E+01 -0.24919675493E+02 -0.21114842448E+02  0.32726932193E+02  0.10566000000E+00 0. -1.
         23    2    1    0    0    0  0.69934159655E+01  0.29106690343E+02  0.76081634524E+01  0.94113248136E+02  0.88900573868E+02 0.  0.
         13    1    3    3    0    0  0.49405817206E+01  0.54026365836E+02  0.28723005900E+02  0.61386315944E+02  0.10566000000E+00 0.  1.
         22    1    1    0    0    0 -0.69934159655E+01 -0.29106690343E+02 -0.76081634524E+01  0.30886751864E+02  0.00000000000E+00 0.  1.
</event>
<event>
 5    1  0.1764311E-003  0.9118800E+02  0.7818608E-02  0.1130116E+00
         25   -1    0    0    0    0  0.00000000000E+00  0.00000000000E+00  0.99999998245E-14  0.12500000000E+03  0.12500000000E+03 0.  0.
        -13    1    3    3    0    0 -0.92836662973E+01 -0.27281618671E+02 -0.38479125848E+02  0.48074187120E+02  0.10566000000E+00 0.  1.
         23    2    1    0    0    0  0.33287656424E+01 -0.25602772752E+02  0.93300605730E+01  0.97547628817E+02  0.93605059715E+02 0.  0.
         13    1    3    3    0    0  0.12612431940E+02  0.16788459187E+01  0.47809186421E+02  0.49473441697E+02  0.10566000000E+00 0. -1.
         22    1    1    0    0    0 -0.33287656424E+01  0.25602772752E+02 -0.93300605730E+01  0.27452371183E+02  0.00000000000E+00 0.  1.
</event>
<event>
 5    1  0.1764311E-003  0.9118800E+02  0.7818608E-02  0.1130116E+00
         25   -1    0    0    0    0  0.00000000000E+00  0.00000000000E+00  0.99999998245E-14  0.12500000000E+03  0.12500000000E+03 0.  0.
        -13    1    3    3    0    0  0.56800247508E+02  0.53890375234E+01 -0.25129644317E+02  0.62344366465E+02  0.10566000000E+00 0.  1.
         23    2    1    0    0    0  0.25642496345E+02  0.54345913251E+01 -0.12410059231E+02  0.95998586727E+02  0.91513095685E+02 0.  0.
         13    1    3    3    0    0 -0.31157751163E+02  0.45553801740E-01  0.12719585086E+02  0.33654220262E+02  0.10566000000E+00 0. -1.
         22    1    1    0    0    0 -0.25642496345E+02 -0.54345913251E+01  0.12410059231E+02  0.29001413273E+02  0.00000000000E+00 0.  1.
</event>
<event>
 5    1  0.1764311E-003  0.9118800E+02  0.7818608E-02  0.1130116E+00
         25   -1    0    0    0    0  0.00000000000E+00  0.00000000000E+00  0.99999998245E-14  0.12500000000E+03  0.12500000000E+03 0.  0.
        -13    1    3    3    0    0  0.49994604261E+02  0.79480892091E-01 -0.88603176150E+00  0.50002629818E+02  0.10566000000E+00 0.  1.
         23    2    1    0    0    0  0.12056972137E+02 -0.25105943411E+02  0.71570709914E+01  0.96244085185E+02  0.91847815958E+02 0.  0.
         13    1    3    3    0    0 -0.37937632124E+02 -0.25185424303E+02  0.80431027529E+01  0.46241455367E+02  0.10566000000E+00 0. -1.
         22    1    1    0    0    0 -0.12056972137E+02  0.25105943411E+02 -0.71570709914E+01  0.28755914815E+02  0.00000000000E+00 0. -1.
</event>
<event>
 5    1  0.1764311E-003  0.9118800E+02  0.7818608E-02  0.1130116E+00
         25   -1    0    0    0    0  0.00000000000E+00  0.00000000000E+00  0.99999998245E-14  0.12500000000E+03  0.12500000000E+03 0.  0.
        -13    1    3    3    0    0 -0.54175817108E+02 -0.15602870344E+02 -0.45789482754E+01  0.56563651346E+02  0.10566000000E+00 0. -1.
         23    2    1    0    0    0 -0.23236841276E+02  0.20928952728E+01 -0.18898909270E+02  0.94975014160E+02  0.90104126099E+02 0.  0.
         13    1    3    3    0    0  0.30938975832E+02  0.17695765616E+02 -0.14319960994E+02  0.38411362814E+02  0.10566000000E+00 0.  1.
         22    1    1    0    0    0  0.23236841276E+02 -0.20928952728E+01  0.18898909270E+02  0.30024985840E+02  0.00000000000E+00 0. -1.
</event>
<event>
 5    1  0.1764311E-003  0.9118800E+02  0.7818608E-02  0.1130116E+00
         25   -1    0    0    0    0  0.00000000000E+00  0.00000000000E+00  0.99999998245E-14  0.12500000000E+03  0.12500000000E+03 0.  0.
        -13    1    3    3    0    0  0.34855878413E+02  0.30396628721E+02 -0.39443427458E+02  0.60783899441E+02  0.10566000000E+00 0.  1.
         23    2    1    0    0    0  0.27898102270E+02  0.24456972613E+02 -0.18704483302E+02  0.83451169508E+02  0.72372594101E+02 0.  0.
         13    1    3    3    0    0 -0.69577761425E+01 -0.59396561080E+01  0.20738944156E+02  0.22667270067E+02  0.10566000000E+00 0. -1.
         22    1    1    0    0    0 -0.27898102270E+02 -0.24456972613E+02  0.18704483302E+02  0.41548830492E+02  0.00000000000E+00 0.  1.
</event>
<event>
 5    1  0.1764311E-003  0.9118800E+02  0.7818608E-02  0.1130116E+00
         25   -1    0    0    0    0  0.00000000000E+00  0.00000000000E+00  0.99999998245E-14  0.12500000000E+03  0.12500000000E+03 0.  0.
        -13    1    3    3    0    0  0.19002386256E+02  0.55658474212E+00 -0.28098872357E+02  0.33925775773E+02  0.10566000000E+00 0. -1.
         23    2    1    0    0    0 -0.31998873989E+02 -0.56064282883E+00  0.16028380754E+01  0.92956102814E+02  0.87258384718E+02 0.  0.
         13    1    3    3    0    0 -0.51001260245E+02 -0.11172275709E+01  0.29701710433E+02  0.59030327042E+02  0.10566000000E+00 0.  1.
         22    1    1    0    0    0  0.31998873989E+02  0.56064282883E+00 -0.16028380754E+01  0.32043897186E+02  0.00000000000E+00 0.  1.
</event>
<event>
 5    1  0.1764311E-003  0.9118800E+02  0.7818608E-02  0.1130116E+00
         25   -1    0    0    0    0  0.00000000000E+00  0.00000000000E+00  0.99999998245E-14  0.12500000000E+03  0.12500000000E+03 0.  0.
        -13    1    3    3    0    0  0.14543706748E+02  0.13039770724E+02  0.29709892360E+02  0.35556207539E+02  0.10566000000E+00 0.  1.
         23    2    1    0    0    0 -0.71485680145E+01 -0.13412555183E+02 -0.22423222602E+02  0.97911264831E+02  0.94089405396E+02 0.  0.
         13    1    3    3    0    0 -0.21692274762E+02 -0.26452325907E+02 -0.52133114962E+02  0.62355057292E+02  0.10566000000E+00 0. -1.
         22    1    1    0    0    0  0.71485680145E+01  0.13412555183E+02  0.22423222602E+02  0.27088735169E+02  0.00000000000E+00 0. -1.
</event>
<event>
 5    1  0.1764311E-003  0.9118800E+02  0.7818608E-02  0.1130116E+00
         25   -1    0    0    0    0  0.00000000000E+00  0.00000000000E+00  0.99999998245E-14  0.12500000000E+03  0.12500000000E+03 0.  0.
        -13    1    3    3    0    0 -0.38790729000E+02  0.48243346219E+02  0.25674258901E+01  0.61957598004E+02  0.10566000000E+00 0.  1.
         23    2    1    0    0    0 -0.18460711524E+02  0.23771296129E+02 -0.45532055258E+01  0.94559828020E+02  0.89526292255E+02 0.  0.
         13    1    3    3    0    0  0.20330017476E+02 -0.24472050090E+02 -0.71206314159E+01  0.32602230016E+02  0.10566000000E+00 0. -1.
         22    1    1    0    0    0  0.18460711524E+02 -0.23771296129E+02  0.45532055258E+01  0.30440171980E+02  0.00000000000E+00 0.  1.
</event>
<event>
 5    1  0.1764311E-003  0.9118800E+02  0.7818608E-02  0.1130116E+00
         25   -1    0    0    0    0  0.00000000000E+00  0.00000000000E+00  0.99999998245E-14  0.12500000000E+03  0.12500000000E+03 0.  0.
        -13    1    3    3    0    0  0.26599482703E+02 -0.34489506932E+02  0.82765509727E+00  0.43563226986E+02  0.10566000000E+00 0.  1.
         23    2    1    0    0    0  0.22381902035E+02  0.14283492370E+02 -0.14352437419E+02  0.94817883559E+02  0.89885877032E+02 0.  0.
         13    1    3    3    0    0 -0.42175806674E+01  0.48772999302E+02 -0.15180092516E+02  0.51254656573E+02  0.10566000000E+00 0. -1.
         22    1    1    0    0    0 -0.22381902035E+02 -0.14283492370E+02  0.14352437419E+02  0.30182116441E+02  0.00000000000E+00 0. -1.
</event>
<event>
 5    1  0.1764311E-003  0.9118800E+02  0.7818608E-02  0.1130116E+00
         25   -1    0    0    0    0  0.00000000000E+00  0.00000000000E+00  0.99999998245E-14  0.12500000000E+03  0.12500000000E+03 0.  0.
        -13    1    3    3    0    0  0.18795271921E+02 -0.24550587258E+02  0.42196576220E+02  0.52312099844E+02  0.10566000000E+00 0. -1.
         23    2    1    0    0    0 -0.16372873388E+02 -0.15879919116E+02  0.18895912154E+02  0.95380778028E+02  0.90665288324E+02 0.  0.
         13    1    3    3    0    0 -0.35168145309E+02  0.86706681424E+01 -0.23300664066E+02  0.43068678184E+02  0.10566000000E+00 0.  1.
         22    1    1    0    0    0  0.16372873388E+02  0.15879919116E+02 -0.18895912154E+02  0.29619221972E+02  0.00000000000E+00 0. -1.
</event>
<event>
 5    1  0.1764311E-003  0.9118800E+02  0.7818608E-02  0.1130116E+00
         25   -1    0    0    0    0  0.00000000000E+00  0.00000000000E+00  0.99999998245E-14  0.12500000000E+03  0.12500000000E+03 0.  0.
        -13    1    3    3    0    0 -0.10096426177E+02  0.31890316606E+01  0.33221067935E+02  0.34867725238E+02  0.10566000000E+00 0. -1.
         23    2    1    0    0    0  0.17404605939E+02  0.65323969301E+01 -0.21727446556E+02  0.96404992544E+02  0.92066541893E+02 0.  0.
         13    1    3    3    0    0  0.27501032116E+02  0.33433652696E+01 -0.54948514491E+02  0.61537267307E+02  0.10566000000E+00 0.  1.
         22    1    1    0    0    0 -0.17404605939E+02 -0.65323969301E+01  0.21727446556E+02  0.28595007456E+02  0.00000000000E+00 0.  1.
</event>
<event>
 5    1  0.1764311E-003  0.9118800E+02  0.7818608E-02  0.1130116E+00
         25   -1    0    0    0    0  0.00000000000E+00  0.00000000000E+00  0.99999998245E-14  0.12500000000E+03  0.12500000000E+03 0.  0.
        -13    1    3    3    0    0 -0.34007258778E+02 -0.70329901650E+01  0.28726470241E+02  0.45068590579E+02  0.10566000000E+00 0.  1.
         23    2    1    0    0    0 -0.14476636999E+02 -0.13055862767E+02 -0.19487469205E+02  0.97435711012E+02  0.93455485409E+02 0.  0.
         13    1    3    3    0    0  0.19530621779E+02 -0.60228726020E+01 -0.48213939446E+02  0.52367120433E+02  0.10566000000E+00 0. -1.
         22    1    1    0    0    0  0.14476636999E+02  0.13055862767E+02  0.19487469205E+02  0.27564288988E+02  0.00000000000E+00 0. -1.
</event>
<event>
 5    1  0.1764311E-003  0.9118800E+02  0.7818608E-02  0.1130116E+00
         25   -1    0    0    0    0  0.00000000000E+00  0.00000000000E+00  0.99999998245E-14  0.12500000000E+03  0.12500000000E+03 0.  0.
        -13    1    3    3    0    0  0.12291629775E+02 -0.10570860392E+02  0.60175800284E+02  0.62321467857E+02  0.10566000000E+00 0. -1.
         23    2    1    0    0    0  0.84332156277E+01 -0.29713924079E+01  0.28006145009E+02  0.95601148714E+02  0.90968605456E+02 0.  0.
         13    1    3    3    0    0 -0.38584141473E+01  0.75994679845E+01 -0.32169655276E+02  0.33279680857E+02  0.10566000000E+00 0.  1.
         22    1    1    0    0    0 -0.84332156277E+01  0.29713924079E+01 -0.28006145009E+02  0.29398851286E+02  0.00000000000E+00 0. -1.
</event>
<event>
 5    1  0.1764311E-003  0.9118800E+02  0.7818608E-02  0.1130116E+00
         25   -1    0    0    0    0  0.00000000000E+00  0.00000000000E+00  0.99999998245E-14  0.12500000000E+03  0.12500000000E+03 0.  0.
        -13    1    3    3    0    0  0.23900367297E+02  0.26172701391E+00  0.46290907624E+02  0.52097556091E+02  0.10566000000E+00 0.  1.
         23    2    1    0    0    0  0.19015513168E+02 -0.19502061968E+02  0.61947478592E+01  0.97066237935E+02  0.92959988617E+02 0.  0.
         13    1    3    3    0    0 -0.48848541290E+01 -0.19763788982E+02 -0.40096159765E+02  0.44968681844E+02  0.10566000000E+00 0. -1.
         22    1    1    0    0    0 -0.19015513168E+02  0.19502061968E+02 -0.61947478592E+01  0.27933762065E+02  0.00000000000E+00 0. -1.
</event>
<event>
 5    1  0.1764311E-003  0.9118800E+02  0.7818608E-02  0.1130116E+00
         25   -1    0    0    0    0  0.00000000000E+00  0.00000000000E+00  0.99999998245E-14  0.12500000000E+03  0.12500000000E+03 0.  0.
        -13    1    3    3    0    0  0.32264164786E+02  0.32471489299E+02  0.38340731000E+00  0.45776982336E+02  0.10566000000E+00 0.  1.
         23    2    1    0    0    0  0.24696166897E+02 -0.16428509198E+02  0.18501180248E+01  0.95280990754E+02  0.90527607327E+02 0.  0.
         13    1    3    3    0    0 -0.75679978891E+01 -0.48899998497E+02  0.14667107148E+01  0.49504008418E+02  0.10566000000E+00 0. -1.
         22    1    1    0    0    0 -0.24696166897E+02  0.16428509198E+02 -0.18501180248E+01  0.29719009246E+02  0.00000000000E+00 0.  1.
</event>
<event>
 5    1  0.1764311E-003  0.9118800E+02  0.7818608E-02  0.1130116E+00
         25   -1    0    0    0    0  0.00000000000E+00  0.00000000000E+00  0.99999998245E-14  0.12500000000E+03  0.12500000000E+03 0.  0.
        -13    1    3    3    0    0  0.28365424051E+02 -0.32418486786E+02  0.37877317147E+00  0.43077954922E+02  0.10566000000E+00 0.  1.
         23    2    1    0    0    0 -0.32265264024E+01 -0.51069116777E+00 -0.28401295719E+02  0.96411455501E+02  0.92075316318E+02 0.  0.
         13    1    3    3    0    0 -0.31591950453E+02  0.31907795618E+02 -0.28780068890E+02  0.53333500579E+02  0.10566000000E+00 0. -1.
         22    1    1    0    0    0  0.32265264024E+01  0.51069116777E+00  0.28401295719E+02  0.28588544499E+02  0.00000000000E+00 0.  1.
</event>
<event>
 5    1  0.1764311E-003  0.9118800E+02  0.7818608E-02  0.1130116E+00
         25   -1    0    0    0    0  0.00000000000E+00  0.00000000000E+00  0.99999998245E-14  0.12500000000E+03  0.12500000000E+03 0.  0.
        -13    1    3    3    0    0  0.43066269582E+02 -0.16622037853E+01 -0.15317323203E+02  0.45739458362E+02  0.10566000000E+00 0.  1.
         23    2    1    0    0    0  0.11771219240E+02 -0.20277019396E+02  0.18268945152E+02  0.95276718301E+02  0.90521707757E+02 0.  0.
         13    1    3    3    0    0 -0.31295050342E+02 -0.18614815611E+02  0.33586268355E+02  0.49537259938E+02  0.10566000000E+00 0. -1.
         22    1    1    0    0    0 -0.11771219240E+02  0.20277019396E+02 -0.18268945152E+02  0.29723281699E+02  0.00000000000E+00 0. -1.
</event>
<event>
 5    1  0.1764311E-003  0.9118800E+02  0.7818608E-02  0.1130116E+00
         25   -1    0    0    0    0  0.00000000000E+00  0.00000000000E+00  0.99999998245E-14  0.12500000000E+03  0.12500000000E+03 0.  0.
        -13    1    3    3    0    0 -0.32815637233E+02  0.20878082065E+02  0.15414383209E+02  0.41837479984E+02  0.10566000000E+00 0.  1.
         23    2    1    0    0    0  0.32897801074E+01  0.22551488100E+02 -0.21619921612E+02  0.93586415690E+02  0.88156700951E+02 0.  0.
         13    1    3    3    0    0  0.36105417340E+02  0.16734060357E+01 -0.37034304821E+02  0.51748935706E+02  0.10566000000E+00 0. -1.
         22    1    1    0    0    0 -0.32897801074E+01 -0.22551488100E+02  0.21619921612E+02  0.31413584310E+02  0.00000000000E+00 0.  1.
</event>
<event>
 5    1  0.1764311E-003  0.9118800E+02  0.7818608E-02  0.1130116E+00
         25   -1    0    0    0    0  0.00000000000E+00  0.00000000000E+00  0.99999998245E-14  0.12500000000E+03  0.12500000000E+03 0.  0.
        -13    1    3    3    0    0  0.39592682217E+02 -0.70929331479E+01  0.16765607515E+02  0.43577367350E+02  0.10566000000E+00 0. -1.
         23    2    1    0    0    0  0.50386604894E+01  0.27122682211E+02 -0.51849754013E+01  0.96930230501E+02  0.92776923991E+02 0.  0.
         13    1    3    3    0    0 -0.34554021728E+02  0.34215615359E+02 -0.21950582916E+02  0.53352863150E+02  0.10566000000E+00 0.  1.
         22    1    1    0    0    0 -0.50386604894E+01 -0.27122682211E+02  0.51849754013E+01  0.28069769499E+02  0.00000000000E+00 0.  1.
</event>
<event>
 5    1  0.1764311E-003  0.9118800E+02  0.7818608E-02  0.1130116E+00
         25   -1    0    0    0    0  0.00000000000E+00  0.00000000000E+00  0.99999998245E-14  0.12500000000E+03  0.12500000000E+03 0.  0.
        -13    1    3    3    0    0 -0.35486140160E+02 -0.35163091340E+02 -0.35752584154E+02  0.61432626297E+02  0.10566000000E+00 0.  1.
         23    2    1    0    0    0 -0.21802771955E+02 -0.10163199310E+02 -0.15924017059E+02  0.96151675881E+02  0.91721965582E+02 0.  0.
         13    1    3    3    0    0  0.13683368205E+02  0.24999892030E+02  0.19828567094E+02  0.34719049584E+02  0.10566000000E+00 0. -1.
         22    1    1    0    0    0  0.21802771955E+02  0.10163199310E+02  0.15924017059E+02  0.28848324119E+02  0.00000000000E+00 0.  1.
</event>
<event>
 5    1  0.1764311E-003  0.9118800E+02  0.7818608E-02  0.1130116E+00
         25   -1    0    0    0    0  0.00000000000E+00  0.00000000000E+00  0.99999998245E-14  0.12500000000E+03  0.12500000000E+03 0.  0.
        -13    1    3    3    0    0  0.30224108917E+01 -0.82180353755E+01  0.46736862942E+02  0.47550148210E+02  0.10566000000E+00 0.  1.
         23    2    1    0    0    0  0.27682585954E+02  0.58290765111E+01  0.79440533712E+01  0.95616132283E+02  0.90989192054E+02 0.  0.
         13    1    3    3    0    0  0.24660175062E+02  0.14047111887E+02 -0.38792809571E+02  0.48065984073E+02  0.10566000000E+00 0. -1.
         22    1    1    0    0    0 -0.27682585954E+02 -0.58290765111E+01 -0.79440533712E+01  0.29383867717E+02  0.00000000000E+00 0. -1.
</event>
<event>
 5    1  0.1764311E-003  0.9118800E+02  0.7818608E-02  0.1130116E+00
         25   -1    0    0    0    0  0.00000000000E+00  0.00000000000E+00  0.99999998245E-14  0.12500000000E+03  0.12500000000E+03 0.  0.
        -13    1    3    3    0    0 -0.14706099421E+02 -0.88807775006E+01  0.40744384732E+02  0.44218249857E+02  0.10566000000E+00 0.  1.
         23    2    1    0    0    0  0.26816467248E+02  0.22963901361E+00  0.11474551221E+02  0.95830821482E+02  0.91283653358E+02 0.  0.
         13    1    3    3    0    0  0.41522566669E+02  0.91104165142E+01 -0.29269833512E+02  0.51612571624E+02  0.10566000000E+00 0. -1.
         22    1    1    0    0    0 -0.26816467248E+02 -0.22963901361E+00 -0.11474551221E+02  0.29169178518E+02  0.00000000000E+00 0. -1.
</event>
<event>
 5    1  0.1764311E-003  0.9118800E+02  0.7818608E-02  0.1130116E+00
         25   -1    0    0    0    0  0.00000000000E+00  0.00000000000E+00  0.99999998245E-14  0.12500000000E+03  0.12500000000E+03 0.  0.
        -13    1    3    3    0    0  0.13648117826E+02  0.30067295364E+02 -0.11534790121E+02  0.34976791132E+02  0.10566000000E+00 0.  1.
         23    2    1    0    0    0 -0.21960914581E+02 -0.11991881407E+02  0.14665879423E+02  0.95996982775E+02  0.91510904780E+02 0.  0.
         13    1    3    3    0    0 -0.35609032406E+02 -0.42059176771E+02  0.26200669545E+02  0.61020191643E+02  0.10566000000E+00 0. -1.
         22    1    1    0    0    0  0.21960914581E+02  0.11991881407E+02 -0.14665879423E+02  0.29003017225E+02  0.00000000000E+00 0. -1.
</event>
<event>
 5    1  0.1764311E-003  0.9118800E+02  0.7818608E-02  0.1130116E+00
         25   -1    0    0    0    0  0.00000000000E+00  0.00000000000E+00  0.99999998245E-14  0.12500000000E+03  0.12500000000E+03 0.  0.
        -13    1    3    3    0    0  0.62359101819E+01  0.47786486510E+02 -0.79736362625E+01  0.48846953928E+02  0.10566000000E+00 0.  1.
         23    2    1    0    0    0  0.27515159036E+02  0.53984934185E+01  0.10779595468E+00  0.96960040515E+02  0.92817078863E+02 0.  0.
         13    1    3    3    0    0  0.21279248854E+02 -0.42387993092E+02  0.80814322172E+01  0.48113086586E+02  0.10566000000E+00 0. -1.
         22    1    1    0    0    0 -0.27515159036E+02 -0.53984934185E+01 -0.10779595468E+00  0.28039959485E+02  0.00000000000E+00 0.  1.
</event>
<event>
 5    1  0.1764311E-003  0.9118800E+02  0.7818608E-02  0.1130116E+00
         25   -1    0    0    0    0  0.00000000000E+00  0.00000000000E+00  0.99999998245E-14  0.12500000000E+03  0.12500000000E+03 0.  0.
        -13    1    3    3    0    0 -0.14011194838E+02 -0.41313440670E+02 -0.11801136445E+01  0.43640781306E+02  0.10566000000E+00 0.  1.
         23    2    1    0    0    0  0.11925910101E+02 -0.77286047083E+01 -0.27831289369E+02  0.93750370715E+02  0.88388871917E+02 0.  0.
         13    1    3    3    0    0  0.25937104939E+02  0.33584835962E+02 -0.26651175725E+02  0.50109589409E+02  0.10566000000E+00 0. -1.
         22    1    1    0    0    0 -0.11925910101E+02  0.77286047083E+01  0.27831289369E+02  0.31249629285E+02  0.00000000000E+00 0. -1.
</event>
<event>
 5    1  0.1764311E-003  0.9118800E+02  0.7818608E-02  0.1130116E+00
         25   -1    0    0    0    0  0.00000000000E+00  0.00000000000E+00  0.99999998245E-14  0.12500000000E+03  0.12500000000E+03 0.  0.
        -13    1    3    3    0    0 -0.58496868114E+01  0.27597798462E+02 -0.14322142622E+02  0.31638461547E+02  0.10566000000E+00 0.  1.
         23    2    1    0    0    0  0.36502612830E+02 -0.40185278350E+01  0.50551431468E+01  0.87930554609E+02  0.79734802014E+02 0.  0.
         13    1    3    3    0    0  0.42352299641E+02 -0.31616326297E+02  0.19377285769E+02  0.56292093062E+02  0.10566000000E+00 0. -1.
         22    1    1    0    0    0 -0.36502612830E+02  0.40185278350E+01 -0.50551431468E+01  0.37069445391E+02  0.00000000000E+00 0. -1.
</event>
<event>
 5    1  0.1764311E-003  0.9118800E+02  0.7818608E-02  0.1130116E+00
         25   -1    0    0    0    0  0.00000000000E+00  0.00000000000E+00  0.99999998245E-14  0.12500000000E+03  0.12500000000E+03 0.  0.
        -13    1    3    3    0    0 -0.28140872407E+02 -0.18868570630E+02  0.16601894857E+02  0.37730170081E+02  0.10566000000E+00 0. -1.
         23    2    1    0    0    0  0.22522962457E+02 -0.24407197443E+02 -0.13393275740E+01  0.91761634770E+02  0.85530162471E+02 0.  0.
         13    1    3    3    0    0  0.50663834864E+02 -0.55386268134E+01 -0.17941222431E+02  0.54031464689E+02  0.10566000000E+00 0.  1.
         22    1    1    0    0    0 -0.22522962457E+02  0.24407197443E+02  0.13393275740E+01  0.33238365230E+02  0.00000000000E+00 0.  1.
</event>
<event>
 5    1  0.1764311E-003  0.9118800E+02  0.7818608E-02  0.1130116E+00
         25   -1    0    0    0    0  0.00000000000E+00  0.00000000000E+00  0.99999998245E-14  0.12500000000E+03  0.12500000000E+03 0.  0.
        -13    1    3    3    0    0 -0.32264796681E+02 -0.18769959316E+02  0.43003315049E+02  0.56944049266E+02  0.10566000000E+00 0. -1.
         23    2    1    0    0    0 -0.21656357001E+02 -0.21241262096E+02  0.79642140892E+01  0.93637319629E+02  0.88228849631E+02 0.  0.
         13    1    3    3    0    0  0.10608439680E+02 -0.24713027799E+01 -0.35039100959E+02  0.36693270363E+02  0.10566000000E+00 0.  1.
         22    1    1    0    0    0  0.21656357001E+02  0.21241262096E+02 -0.79642140892E+01  0.31362680371E+02  0.00000000000E+00 0. -1.
</event>
<event>
 5    1  0.1764311E-003  0.9118800E+02  0.7818608E-02  0.1130116E+00
         25   -1    0    0    0    0  0.00000000000E+00  0.00000000000E+00  0.99999998245E-14  0.12500000000E+03  0.12500000000E+03 0.  0.
        -13    1    3    3    0    0 -0.40819298583E+02  0.37445354597E+02  0.26951014044E+02  0.61601445111E+02  0.10566000000E+00 0.  1.
         23    2    1    0    0    0 -0.17873501339E+02  0.13224366110E+02  0.18642444546E+02  0.95984716996E+02  0.91494148715E+02 0.  0.
         13    1    3    3    0    0  0.22945797243E+02 -0.24220988487E+02 -0.83085694978E+01  0.34383271886E+02  0.10566000000E+00 0. -1.
         22    1    1    0    0    0  0.17873501339E+02 -0.13224366110E+02 -0.18642444546E+02  0.29015283004E+02  0.00000000000E+00 0.  1.
</event>
<event>
 5    1  0.1764311E-003  0.9118800E+02  0.7818608E-02  0.1130116E+00
         25   -1    0    0    0    0  0.00000000000E+00  0.00000000000E+00  0.99999998245E-14  0.12500000000E+03  0.12500000000E+03 0.  0.
        -13    1    3    3    0    0 -0.26070979329E+02  0.36485565299E+02  0.19996922524E+01  0.44887663913E+02  0.10566000000E+00 0.  1.
         23    2    1    0    0    0  0.12257107847E+02  0.38237055597E+02 -0.68577972157E+01  0.84265021221E+02  0.73764864977E+02 0.  0.
         13    1    3    3    0    0  0.38328087176E+02  0.17514902976E+01 -0.88574894681E+01  0.39377357308E+02  0.10566000000E+00 0. -1.
         22    1    1    0    0    0 -0.12257107847E+02 -0.38237055597E+02  0.68577972157E+01  0.40734978779E+02  0.00000000000E+00 0. -1.
</event>
<event>
 5    1  0.1764311E-003  0.9118800E+02  0.7818608E-02  0.1130116E+00
         25   -1    0    0    0    0  0.00000000000E+00  0.00000000000E+00  0.99999998245E-14  0.12500000000E+03  0.12500000000E+03 0.  0.
        -13    1    3    3    0    0  0.65956069507E+01  0.49257552333E+02  0.68904789223E+00  0.49702056737E+02  0.10566000000E+00 0.  1.
         23    2    1    0    0    0  0.27655716122E+02  0.79728839282E+01  0.26986371321E+01  0.96091728611E+02  0.91640232173E+02 0.  0.
         13    1    3    3    0    0  0.21060109171E+02 -0.41284668405E+02  0.20095892399E+01  0.46389671874E+02  0.10566000000E+00 0. -1.
         22    1    1    0    0    0 -0.27655716122E+02 -0.79728839282E+01 -0.26986371321E+01  0.28908271389E+02  0.00000000000E+00 0. -1.
</event>
<event>
 5    1  0.1764311E-003  0.9118800E+02  0.7818608E-02  0.1130116E+00
         25   -1    0    0    0    0  0.00000000000E+00  0.00000000000E+00  0.99999998245E-14  0.12500000000E+03  0.12500000000E+03 0.  0.
        -13    1    3    3    0    0 -0.14269546193E+02  0.33029384021E+02 -0.46742161781E+02  0.58986447675E+02  0.10566000000E+00 0. -1.
         23    2    1    0    0    0  0.75134056476E+01  0.19625134437E+02 -0.20034749063E+02  0.95965738582E+02  0.91468216586E+02 0.  0.
         13    1    3    3    0    0  0.21782951841E+02 -0.13404249584E+02  0.26707412718E+02  0.36979290906E+02  0.10566000000E+00 0.  1.
         22    1    1    0    0    0 -0.75134056476E+01 -0.19625134437E+02  0.20034749063E+02  0.29034261418E+02  0.00000000000E+00 0. -1.
</event>
<event>
 5    1  0.1764311E-003  0.9118800E+02  0.7818608E-02  0.1130116E+00
         25   -1    0    0    0    0  0.00000000000E+00  0.00000000000E+00  0.99999998245E-14  0.12500000000E+03  0.12500000000E+03 0.  0.
        -13    1    3    3    0    0 -0.39570803608E+02  0.20246079591E+01 -0.56395368123E+01  0.40022032371E+02  0.10566000000E+00 0. -1.
         23    2    1    0    0    0  0.10255909039E+02 -0.93836464521E+01 -0.26376714938E+02  0.95184440608E+02  0.90394193132E+02 0.  0.
         13    1    3    3    0    0  0.49826712647E+02 -0.11408254411E+02 -0.20737178125E+02  0.55162408237E+02  0.10566000000E+00 0.  1.
         22    1    1    0    0    0 -0.10255909039E+02  0.93836464521E+01  0.26376714938E+02  0.29815559392E+02  0.00000000000E+00 0.  1.
</event>
<event>
 5    1  0.1764311E-003  0.9118800E+02  0.7818608E-02  0.1130116E+00
         25   -1    0    0    0    0  0.00000000000E+00  0.00000000000E+00  0.99999998245E-14  0.12500000000E+03  0.12500000000E+03 0.  0.
        -13    1    3    3    0    0 -0.29178259019E+02 -0.68335928540E+01  0.25058060356E+02  0.39063875173E+02  0.10566000000E+00 0.  1.
         23    2    1    0    0    0 -0.67626479221E+01  0.18667854135E+02 -0.20879635410E+02  0.96187132045E+02  0.91770273026E+02 0.  0.
         13    1    3    3    0    0  0.22415611097E+02  0.25501446989E+02 -0.45937695766E+02  0.57123256872E+02  0.10566000000E+00 0. -1.
         22    1    1    0    0    0  0.67626479221E+01 -0.18667854135E+02  0.20879635410E+02  0.28812867955E+02  0.00000000000E+00 0. -1.
</event>
<event>
 5    1  0.1764311E-003  0.9118800E+02  0.7818608E-02  0.1130116E+00
         25   -1    0    0    0    0  0.00000000000E+00  0.00000000000E+00  0.99999998245E-14  0.12500000000E+03  0.12500000000E+03 0.  0.
        -13    1    3    3    0    0 -0.14427920119E+02 -0.31813546249E+02  0.75614043081E+01  0.35741468955E+02  0.10566000000E+00 0.  1.
         23    2    1    0    0    0 -0.16289695496E+02  0.26149052767E+02  0.49861323525E+01  0.93791208678E+02  0.88446606319E+02 0.  0.
         13    1    3    3    0    0 -0.18617753775E+01  0.57962599016E+02 -0.25752719555E+01  0.58049739723E+02  0.10566000000E+00 0. -1.
         22    1    1    0    0    0  0.16289695496E+02 -0.26149052767E+02 -0.49861323525E+01  0.31208791322E+02  0.00000000000E+00 0. -1.
</event>
<event>
 5    1  0.1764311E-003  0.9118800E+02  0.7818608E-02  0.1130116E+00
         25   -1    0    0    0    0  0.00000000000E+00  0.00000000000E+00  0.99999998245E-14  0.12500000000E+03  0.12500000000E+03 0.  0.
        -13    1    3    3    0    0 -0.12464513548E+02 -0.26803638818E+02 -0.16645200184E+02  0.33924519231E+02  0.10566000000E+00 0.  1.
         23    2    1    0    0    0 -0.58668515917E+00  0.24752148615E+02  0.15460326106E+02  0.95810365816E+02  0.91255637929E+02 0.  0.
         13    1    3    3    0    0  0.11877828389E+02  0.51555787433E+02  0.32105526290E+02  0.61885846584E+02  0.10566000000E+00 0. -1.
         22    1    1    0    0    0  0.58668515917E+00 -0.24752148615E+02 -0.15460326106E+02  0.29189634184E+02  0.00000000000E+00 0. -1.
</event>
<event>
 5    1  0.1764311E-003  0.9118800E+02  0.7818608E-02  0.1130116E+00
         25   -1    0    0    0    0  0.00000000000E+00  0.00000000000E+00  0.99999998245E-14  0.12500000000E+03  0.12500000000E+03 0.  0.
        -13    1    3    3    0    0 -0.23459641471E+02  0.41682732379E+02  0.25143017926E+01  0.47897158935E+02  0.10566000000E+00 0. -1.
         23    2    1    0    0    0 -0.29144204885E+02 -0.37762947971E+00 -0.12998592420E+02  0.93086199109E+02  0.87444552588E+02 0.  0.
         13    1    3    3    0    0 -0.56845634143E+01 -0.42060361859E+02 -0.15512894213E+02  0.45189040174E+02  0.10566000000E+00 0.  1.
         22    1    1    0    0    0  0.29144204885E+02  0.37762947971E+00  0.12998592420E+02  0.31913800891E+02  0.00000000000E+00 0. -1.
</event>
<event>
 5    1  0.1764311E-003  0.9118800E+02  0.7818608E-02  0.1130116E+00
         25   -1    0    0    0    0  0.00000000000E+00  0.00000000000E+00  0.99999998245E-14  0.12500000000E+03  0.12500000000E+03 0.  0.
        -13    1    3    3    0    0 -0.28926884783E+02  0.12789959159E+02  0.35672532324E+02  0.47674819821E+02  0.10566000000E+00 0. -1.
         23    2    1    0    0    0  0.12930938330E+02  0.22201470908E+02  0.13981727974E+02  0.95749304390E+02  0.91171958943E+02 0.  0.
         13    1    3    3    0    0  0.41857823113E+02  0.94115117488E+01 -0.21690804351E+02  0.48074484569E+02  0.10566000000E+00 0.  1.
         22    1    1    0    0    0 -0.12930938330E+02 -0.22201470908E+02 -0.13981727974E+02  0.29250695610E+02  0.00000000000E+00 0. -1.
</event>
<event>
 5    1  0.1764311E-003  0.9118800E+02  0.7818608E-02  0.1130116E+00
         25   -1    0    0    0    0  0.00000000000E+00  0.00000000000E+00  0.99999998245E-14  0.12500000000E+03  0.12500000000E+03 0.  0.
        -13    1    3    3    0    0 -0.33512456536E+02 -0.21405321574E+02 -0.20587075343E+02  0.44778469938E+02  0.10566000000E+00 0. -1.
         23    2    1    0    0    0 -0.31676989018E+01 -0.87967388950E+01  0.23467572315E+02  0.99738490111E+02  0.96486385194E+02 0.  0.
         13    1    3    3    0    0  0.30344757635E+02  0.12608582679E+02  0.44054647658E+02  0.54960020173E+02  0.10566000000E+00 0.  1.
         22    1    1    0    0    0  0.31676989018E+01  0.87967388950E+01 -0.23467572315E+02  0.25261509889E+02  0.00000000000E+00 0.  1.
</event>
<event>
 5    1  0.1764311E-003  0.9118800E+02  0.7818608E-02  0.1130116E+00
         25   -1    0    0    0    0  0.00000000000E+00  0.00000000000E+00  0.99999998245E-14  0.12500000000E+03  0.12500000000E+03 0.  0.
        -13    1    3    3    0    0  0.57196829002E+01 -0.23025665890E+02 -0.23438200082E+02  0.33350508981E+02  0.10566000000E+00 0. -1.
         23    2    1    0    0    0 -0.43275925759E+01  0.20403669216E+02  0.20366692068E+02  0.95847985991E+02  0.91307154691E+02 0.  0.
         13    1    3    3    0    0 -0.10047275476E+02  0.43429335106E+02  0.43804892150E+02  0.62497477010E+02  0.10566000000E+00 0.  1.
         22    1    1    0    0    0  0.43275925759E+01 -0.20403669216E+02 -0.20366692068E+02  0.29152014009E+02  0.00000000000E+00 0.  1.
</event>
<event>
 5    1  0.1764311E-003  0.9118800E+02  0.7818608E-02  0.1130116E+00
         25   -1    0    0    0    0  0.00000000000E+00  0.00000000000E+00  0.99999998245E-14  0.12500000000E+03  0.12500000000E+03 0.  0.
        -13    1    3    3    0    0 -0.52204588806E+01 -0.36828062640E+02 -0.36556450512E+01  0.37375584190E+02  0.10566000000E+00 0. -1.
         23    2    1    0    0    0  0.15878475855E+02  0.11664377968E+02  0.21414452571E+02  0.95900816372E+02  0.91379451153E+02 0.  0.
         13    1    3    3    0    0  0.21098934736E+02  0.48492440609E+02  0.25070097622E+02  0.58525232182E+02  0.10566000000E+00 0.  1.
         22    1    1    0    0    0 -0.15878475855E+02 -0.11664377968E+02 -0.21414452571E+02  0.29099183628E+02  0.00000000000E+00 0.  1.
</event>
<event>
 5    1  0.1764311E-003  0.9118800E+02  0.7818608E-02  0.1130116E+00
         25   -1    0    0    0    0  0.00000000000E+00  0.00000000000E+00  0.99999998245E-14  0.12500000000E+03  0.12500000000E+03 0.  0.
        -13    1    3    3    0    0  0.21968946923E+02 -0.46140226109E+02  0.29604941174E+02  0.59059451405E+02  0.10566000000E+00 0.  1.
         23    2    1    0    0    0  0.15376180110E+02 -0.23903401699E+02  0.11450172568E+00  0.96577955066E+02  0.92301076736E+02 0.  0.
         13    1    3    3    0    0 -0.65927668133E+01  0.22236824409E+02 -0.29490439449E+02  0.37518503661E+02  0.10566000000E+00 0. -1.
         22    1    1    0    0    0 -0.15376180110E+02  0.23903401699E+02 -0.11450172568E+00  0.28422044934E+02  0.00000000000E+00 0.  1.
</event>
<event>
 5    1  0.1764311E-003  0.9118800E+02  0.7818608E-02  0.1130116E+00
         25   -1    0    0    0    0  0.00000000000E+00  0.00000000000E+00  0.99999998245E-14  0.12500000000E+03  0.12500000000E+03 0.  0.
        -13    1    3    3    0    0  0.38651333200E+02  0.22273169736E+02  0.24790081327E+02  0.51035075630E+02  0.10566000000E+00 0.  1.
         23    2    1    0    0    0  0.25202631653E+02 -0.13855025737E+02  0.12320491428E+01  0.96213678152E+02  0.91806424275E+02 0.  0.
         13    1    3    3    0    0 -0.13448701547E+02 -0.36128195473E+02 -0.23558032185E+02  0.45178602523E+02  0.10566000000E+00 0. -1.
         22    1    1    0    0    0 -0.25202631653E+02  0.13855025737E+02 -0.12320491428E+01  0.28786321848E+02  0.00000000000E+00 0.  1.
</event>
<event>
 5    1  0.1764311E-003  0.9118800E+02  0.7818608E-02  0.1130116E+00
         25   -1    0    0    0    0  0.00000000000E+00  0.00000000000E+00  0.99999998245E-14  0.12500000000E+03  0.12500000000E+03 0.  0.
        -13    1    3    3    0    0 -0.11659508385E+02 -0.21483230954E+02  0.44917948567E+02  0.51138113140E+02  0.10566000000E+00 0. -1.
         23    2    1    0    0    0 -0.77798788347E+01 -0.26390176113E+02 -0.98877992093E+00  0.97469188249E+02  0.93500251669E+02 0.  0.
         13    1    3    3    0    0  0.38796295505E+01 -0.49069451592E+01 -0.45906728488E+02  0.46331075109E+02  0.10566000000E+00 0.  1.
         22    1    1    0    0    0  0.77798788347E+01  0.26390176113E+02  0.98877992093E+00  0.27530811751E+02  0.00000000000E+00 0.  1.
</event>
<event>
 5    1  0.1764311E-003  0.9118800E+02  0.7818608E-02  0.1130116E+00
         25   -1    0    0    0    0  0.00000000000E+00  0.00000000000E+00  0.99999998245E-14  0.12500000000E+03  0.12500000000E+03 0.  0.
        -13    1    3    3    0    0 -0.39919976746E+02  0.15758314487E+02  0.48816780822E+01  0.43194570999E+02  0.10566000000E+00 0. -1.
         23    2    1    0    0    0 -0.14627151774E+02 -0.22656858560E+02 -0.15930136898E+02  0.93678185391E+02  0.88286728038E+02 0.  0.
         13    1    3    3    0    0  0.25292824971E+02 -0.38415173047E+02 -0.20811814980E+02  0.50483614392E+02  0.10566000000E+00 0.  1.
         22    1    1    0    0    0  0.14627151774E+02  0.22656858560E+02  0.15930136898E+02  0.31321814609E+02  0.00000000000E+00 0.  1.
</event>
<event>
 5    1  0.1764311E-003  0.9118800E+02  0.7818608E-02  0.1130116E+00
         25   -1    0    0    0    0  0.00000000000E+00  0.00000000000E+00  0.99999998245E-14  0.12500000000E+03  0.12500000000E+03 0.  0.
        -13    1    3    3    0    0  0.51427893384E+02  0.16145634984E+02  0.10616022309E+02  0.54938336711E+02  0.10566000000E+00 0.  1.
         23    2    1    0    0    0  0.20820712416E+02  0.11239436584E+02 -0.16525553615E+02  0.96139630589E+02  0.91705548618E+02 0.  0.
         13    1    3    3    0    0 -0.30607180968E+02 -0.49061984000E+01 -0.27141575924E+02  0.41201293878E+02  0.10566000000E+00 0. -1.
         22    1    1    0    0    0 -0.20820712416E+02 -0.11239436584E+02  0.16525553615E+02  0.28860369411E+02  0.00000000000E+00 0.  1.
</event>
<event>
 5    1  0.1764311E-003  0.9118800E+02  0.7818608E-02  0.1130116E+00
         25   -1    0    0    0    0  0.00000000000E+00  0.00000000000E+00  0.99999998245E-14  0.12500000000E+03  0.12500000000E+03 0.  0.
        -13    1    3    3    0    0  0.30631310127E+02  0.87048257388E+01 -0.36164268087E+02  0.48186269845E+02  0.10566000000E+00 0.  1.
         23    2    1    0    0    0  0.22083331621E+02  0.64676037342E+01  0.13292118518E+02  0.98425880104E+02  0.94770617946E+02 0.  0.
         13    1    3    3    0    0 -0.85479785061E+01 -0.22372220046E+01  0.49456386605E+02  0.50239610259E+02  0.10566000000E+00 0. -1.
         22    1    1    0    0    0 -0.22083331621E+02 -0.64676037342E+01 -0.13292118518E+02  0.26574119896E+02  0.00000000000E+00 0.  1.
</event>
<event>
 5    1  0.1764311E-003  0.9118800E+02  0.7818608E-02  0.1130116E+00
         25   -1    0    0    0    0  0.00000000000E+00  0.00000000000E+00  0.99999998245E-14  0.12500000000E+03  0.12500000000E+03 0.  0.
        -13    1    3    3    0    0  0.65524115435E+01 -0.26398309303E+02  0.50449879468E+02  0.57314974775E+02  0.10566000000E+00 0. -1.
         23    2    1    0    0    0 -0.97657626812E+01 -0.45353420671E+00  0.28098755859E+02  0.95249102621E+02  0.90483565664E+02 0.  0.
         13    1    3    3    0    0 -0.16318174225E+02  0.25944775096E+02 -0.22351123610E+02  0.37934127846E+02  0.10566000000E+00 0.  1.
         22    1    1    0    0    0  0.97657626812E+01  0.45353420671E+00 -0.28098755859E+02  0.29750897379E+02  0.00000000000E+00 0. -1.
</event>
<event>
 5    1  0.1764311E-003  0.9118800E+02  0.7818608E-02  0.1130116E+00
         25   -1    0    0    0    0  0.00000000000E+00  0.00000000000E+00  0.99999998245E-14  0.12500000000E+03  0.12500000000E+03 0.  0.
        -13    1    3    3    0    0 -0.11800982945E+02 -0.34980941585E+02  0.39425018108E+02  0.54011782877E+02  0.10566000000E+00 0. -1.
         23    2    1    0    0    0  0.17014152481E+02 -0.20922891338E+02  0.18453298685E+02  0.92323203968E+02  0.86346980213E+02 0.  0.
         13    1    3    3    0    0  0.28815135426E+02  0.14058050247E+02 -0.20971719423E+02  0.38311421091E+02  0.10566000000E+00 0.  1.
         22    1    1    0    0    0 -0.17014152481E+02  0.20922891338E+02 -0.18453298685E+02  0.32676796032E+02  0.00000000000E+00 0. -1.
</event>
<event>
 5    1  0.1764311E-003  0.9118800E+02  0.7818608E-02  0.1130116E+00
         25   -1    0    0    0    0  0.00000000000E+00  0.00000000000E+00  0.99999998245E-14  0.12500000000E+03  0.12500000000E+03 0.  0.
        -13    1    3    3    0    0  0.47875545663E+02  0.32358442746E+02  0.13785155275E+02  0.59406888148E+02  0.10566000000E+00 0.  1.
         23    2    1    0    0    0  0.22399457182E+02  0.18549216031E+02 -0.70220361467E+01  0.95081475821E+02  0.90251697797E+02 0.  0.
         13    1    3    3    0    0 -0.25476088481E+02 -0.13809226715E+02 -0.20807191422E+02  0.35674587673E+02  0.10566000000E+00 0. -1.
         22    1    1    0    0    0 -0.22399457182E+02 -0.18549216031E+02  0.70220361467E+01  0.29918524179E+02  0.00000000000E+00 0.  1.
</event>
<event>
 5    1  0.1764311E-003  0.9118800E+02  0.7818608E-02  0.1130116E+00
         25   -1    0    0    0    0  0.00000000000E+00  0.00000000000E+00  0.99999998245E-14  0.12500000000E+03  0.12500000000E+03 0.  0.
        -13    1    3    3    0    0  0.57039597521E+02 -0.81378733976E+01  0.84937435485E+01  0.58239982077E+02  0.10566000000E+00 0.  1.
         23    2    1    0    0    0  0.21665956594E+02  0.44627285880E+00  0.19056860993E+02  0.96142127842E+02  0.91708952455E+02 0.  0.
         13    1    3    3    0    0 -0.35373640927E+02  0.85841462564E+01  0.10563117444E+02  0.37902145765E+02  0.10566000000E+00 0. -1.
         22    1    1    0    0    0 -0.21665956594E+02 -0.44627285880E+00 -0.19056860993E+02  0.28857872158E+02  0.00000000000E+00 0.  1.
</event>
<event>
 5    1  0.1764311E-003  0.9118800E+02  0.7818608E-02  0.1130116E+00
         25   -1    0    0    0    0  0.00000000000E+00  0.00000000000E+00  0.99999998245E-14  0.12500000000E+03  0.12500000000E+03 0.  0.
        -13    1    3    3    0    0 -0.26637615372E+00 -0.50963125874E+02 -0.28219861221E+02  0.58255324962E+02  0.10566000000E+00 0.  1.
         23    2    1    0    0    0 -0.14992577300E+02 -0.24767544118E+02 -0.65179892526E+01  0.95323531213E+02  0.90586327905E+02 0.  0.
         13    1    3    3    0    0 -0.14726201147E+02  0.26195581756E+02  0.21701871968E+02  0.37068206251E+02  0.10566000000E+00 0. -1.
         22    1    1    0    0    0  0.14992577300E+02  0.24767544118E+02  0.65179892526E+01  0.29676468787E+02  0.00000000000E+00 0.  1.
</event>
<event>
 5    1  0.1764311E-003  0.9118800E+02  0.7818608E-02  0.1130116E+00
         25   -1    0    0    0    0  0.00000000000E+00  0.00000000000E+00  0.99999998245E-14  0.12500000000E+03  0.12500000000E+03 0.  0.
        -13    1    3    3    0    0  0.12724468713E+02  0.24972856060E+02  0.31446708044E+02  0.42124366520E+02  0.10566000000E+00 0.  1.
         23    2    1    0    0    0  0.10639314394E+02 -0.24676846668E+02  0.13182802480E+02  0.95067942712E+02  0.90232952285E+02 0.  0.
         13    1    3    3    0    0 -0.20851543196E+01 -0.49649702728E+02 -0.18263905564E+02  0.52943576192E+02  0.10566000000E+00 0. -1.
         22    1    1    0    0    0 -0.10639314394E+02  0.24676846668E+02 -0.13182802480E+02  0.29932057288E+02  0.00000000000E+00 0. -1.
</event>
<event>
 5    1  0.1764311E-003  0.9118800E+02  0.7818608E-02  0.1130116E+00
         25   -1    0    0    0    0  0.00000000000E+00  0.00000000000E+00  0.99999998245E-14  0.12500000000E+03  0.12500000000E+03 0.  0.
        -13    1    3    3    0    0  0.10995998839E+02 -0.34354764101E+02  0.33872570531E+02  0.49482562639E+02  0.10566000000E+00 0. -1.
         23    2    1    0    0    0 -0.12379961249E+01  0.97851398123E+01  0.27570775879E+02  0.95718106651E+02  0.91129175694E+02 0.  0.
         13    1    3    3    0    0 -0.12233994964E+02  0.44139903913E+02 -0.63017946519E+01  0.46235544012E+02  0.10566000000E+00 0.  1.
         22    1    1    0    0    0  0.12379961249E+01 -0.97851398123E+01 -0.27570775879E+02  0.29281893349E+02  0.00000000000E+00 0.  1.
</event>
<event>
 5    1  0.1764311E-003  0.9118800E+02  0.7818608E-02  0.1130116E+00
         25   -1    0    0    0    0  0.00000000000E+00  0.00000000000E+00  0.99999998245E-14  0.12500000000E+03  0.12500000000E+03 0.  0.
        -13    1    3    3    0    0  0.16944742985E+02 -0.21931483497E+02 -0.51524684293E+02  0.58505713727E+02  0.10566000000E+00 0. -1.
         23    2    1    0    0    0  0.37706740867E+01 -0.24818290005E+02 -0.19635646762E+02  0.93129572868E+02  0.87506532424E+02 0.  0.
         13    1    3    3    0    0 -0.13174068898E+02 -0.28868065081E+01  0.31889037530E+02  0.34623859141E+02  0.10566000000E+00 0.  1.
         22    1    1    0    0    0 -0.37706740867E+01  0.24818290005E+02  0.19635646762E+02  0.31870427132E+02  0.00000000000E+00 0. -1.
</event>
<event>
 5    1  0.1764311E-003  0.9118800E+02  0.7818608E-02  0.1130116E+00
         25   -1    0    0    0    0  0.00000000000E+00  0.00000000000E+00  0.99999998245E-14  0.12500000000E+03  0.12500000000E+03 0.  0.
        -13    1    3    3    0    0  0.65213201901E+01 -0.36814814157E+02  0.99322437054E+00  0.37401280956E+02  0.10566000000E+00 0.  1.
         23    2    1    0    0    0  0.45632647989E+01 -0.17558601694E+02  0.40072938296E+02  0.81011725850E+02  0.68028901670E+02 0.  0.
         13    1    3    3    0    0 -0.19580553912E+01  0.19256212464E+02  0.39079713925E+02  0.43610444894E+02  0.10566000000E+00 0. -1.
         22    1    1    0    0    0 -0.45632647989E+01  0.17558601694E+02 -0.40072938296E+02  0.43988274150E+02  0.00000000000E+00 0.  1.
</event>
<event>
 5    1  0.1764311E-003  0.9118800E+02  0.7818608E-02  0.1130116E+00
         25   -1    0    0    0    0  0.00000000000E+00  0.00000000000E+00  0.99999998245E-14  0.12500000000E+03  0.12500000000E+03 0.  0.
        -13    1    3    3    0    0  0.24591084775E+02 -0.45369681681E+02  0.22994267439E+02  0.56496698712E+02  0.10566000000E+00 0. -1.
         23    2    1    0    0    0  0.13748959173E+02 -0.23988399088E+02 -0.84969047738E+01  0.96074672692E+02  0.91616964439E+02 0.  0.
         13    1    3    3    0    0 -0.10842125602E+02  0.21381282593E+02 -0.31491172213E+02  0.39577973979E+02  0.10566000000E+00 0.  1.
         22    1    1    0    0    0 -0.13748959173E+02  0.23988399088E+02  0.84969047738E+01  0.28925327308E+02  0.00000000000E+00 0. -1.
</event>
<event>
 5    1  0.1764311E-003  0.9118800E+02  0.7818608E-02  0.1130116E+00
         25   -1    0    0    0    0  0.00000000000E+00  0.00000000000E+00  0.99999998245E-14  0.12500000000E+03  0.12500000000E+03 0.  0.
        -13    1    3    3    0    0  0.30209488977E+01  0.33544290072E+02 -0.61760072200E+01  0.34241783801E+02  0.10566000000E+00 0.  1.
         23    2    1    0    0    0 -0.24950980328E+02 -0.18480211337E+02  0.20668406854E+01  0.93881814629E+02  0.88574565521E+02 0.  0.
         13    1    3    3    0    0 -0.27971929225E+02 -0.52024501409E+02  0.82428479054E+01  0.59640030827E+02  0.10566000000E+00 0. -1.
         22    1    1    0    0    0  0.24950980328E+02  0.18480211337E+02 -0.20668406854E+01  0.31118185371E+02  0.00000000000E+00 0. -1.
</event>
<event>
 5    1  0.1764311E-003  0.9118800E+02  0.7818608E-02  0.1130116E+00
         25   -1    0    0    0    0  0.00000000000E+00  0.00000000000E+00  0.99999998245E-14  0.12500000000E+03  0.12500000000E+03 0.  0.
        -13    1    3    3    0    0 -0.16169553128E+02  0.47600758172E+02  0.23956331357E+02  0.55688451254E+02  0.10566000000E+00 0.  1.
         23    2    1    0    0    0 -0.69264660535E+01  0.28083036585E+02 -0.86603873536E+01  0.94806702980E+02  0.89870327389E+02 0.  0.
         13    1    3    3    0    0  0.92430870747E+01 -0.19517721587E+02 -0.32616718711E+02  0.39118251726E+02  0.10566000000E+00 0. -1.
         22    1    1    0    0    0  0.69264660535E+01 -0.28083036585E+02  0.86603873536E+01  0.30193297020E+02  0.00000000000E+00 0.  1.
</event>
<event>
 5    1  0.1764311E-003  0.9118800E+02  0.7818608E-02  0.1130116E+00
         25   -1    0    0    0    0  0.00000000000E+00  0.00000000000E+00  0.99999998245E-14  0.12500000000E+03  0.12500000000E+03 0.  0.
        -13    1    3    3    0    0  0.40300201985E+02 -0.17363433475E+02  0.24402602697E+02  0.50210489785E+02  0.10566000000E+00 0. -1.
         23    2    1    0    0    0 -0.30131412396E+01 -0.25319751702E+02  0.15563858148E+02  0.95126892916E+02  0.90314579272E+02 0.  0.
         13    1    3    3    0    0 -0.43313343224E+02 -0.79563182270E+01 -0.88387445487E+01  0.44916403131E+02  0.10566000000E+00 0.  1.
         22    1    1    0    0    0  0.30131412396E+01  0.25319751702E+02 -0.15563858148E+02  0.29873107084E+02  0.00000000000E+00 0.  1.
</event>
<event>
 5    1  0.1764311E-003  0.9118800E+02  0.7818608E-02  0.1130116E+00
         25   -1    0    0    0    0  0.00000000000E+00  0.00000000000E+00  0.99999998245E-14  0.12500000000E+03  0.12500000000E+03 0.  0.
        -13    1    3    3    0    0  0.28563615867E+02 -0.47892531998E+02 -0.10335442077E+02  0.56713378488E+02  0.10566000000E+00 0. -1.
         23    2    1    0    0    0  0.21683749094E+02 -0.13432943961E+02  0.10330953231E+02  0.97479870042E+02  0.93514531013E+02 0.  0.
         13    1    3    3    0    0 -0.68798667729E+01  0.34459588038E+02  0.20666395308E+02  0.40766491554E+02  0.10566000000E+00 0.  1.
         22    1    1    0    0    0 -0.21683749094E+02  0.13432943961E+02 -0.10330953231E+02  0.27520129958E+02  0.00000000000E+00 0. -1.
</event>
<event>
 5    1  0.1764311E-003  0.9118800E+02  0.7818608E-02  0.1130116E+00
         25   -1    0    0    0    0  0.00000000000E+00  0.00000000000E+00  0.99999998245E-14  0.12500000000E+03  0.12500000000E+03 0.  0.
        -13    1    3    3    0    0  0.18059563354E+01  0.11381129037E+02 -0.57221355349E+02  0.58370251400E+02  0.10566000000E+00 0.  1.
         23    2    1    0    0    0  0.14421463658E+02  0.13068221421E+02 -0.23063642060E+02  0.94822382297E+02  0.89892132994E+02 0.  0.
         13    1    3    3    0    0  0.12615507323E+02  0.16870923840E+01  0.34157713289E+02  0.36452130897E+02  0.10566000000E+00 0. -1.
         22    1    1    0    0    0 -0.14421463658E+02 -0.13068221421E+02  0.23063642060E+02  0.30177617703E+02  0.00000000000E+00 0.  1.
</event>
<event>
 5    1  0.1764311E-003  0.9118800E+02  0.7818608E-02  0.1130116E+00
         25   -1    0    0    0    0  0.00000000000E+00  0.00000000000E+00  0.99999998245E-14  0.12500000000E+03  0.12500000000E+03 0.  0.
        -13    1    3    3    0    0  0.49791549102E+02  0.32126574881E+02  0.65756104092E+01  0.59620172692E+02  0.10566000000E+00 0. -1.
         23    2    1    0    0    0  0.35072934055E+02  0.34708561939E+02  0.77485853258E+00  0.75650274764E+02  0.57337323717E+02 0.  0.
         13    1    3    3    0    0 -0.14718615047E+02  0.25819870577E+01 -0.58007518766E+01  0.16030102072E+02  0.10566000000E+00 0.  1.
         22    1    1    0    0    0 -0.35072934055E+02 -0.34708561939E+02 -0.77485853258E+00  0.49349725236E+02  0.00000000000E+00 0. -1.
</event>
<event>
 5    1  0.1764311E-003  0.9118800E+02  0.7818608E-02  0.1130116E+00
         25   -1    0    0    0    0  0.00000000000E+00  0.00000000000E+00  0.99999998245E-14  0.12500000000E+03  0.12500000000E+03 0.  0.
        -13    1    3    3    0    0  0.46750363470E+02 -0.25054826573E+02  0.24756773947E+02  0.58534176679E+02  0.10566000000E+00 0. -1.
         23    2    1    0    0    0  0.25313082155E+02  0.37372078180E+01  0.12947962683E+02  0.96323030353E+02  0.91955193373E+02 0.  0.
         13    1    3    3    0    0 -0.21437281314E+02  0.28792034391E+02 -0.11808811264E+02  0.37788853674E+02  0.10566000000E+00 0.  1.
         22    1    1    0    0    0 -0.25313082155E+02 -0.37372078180E+01 -0.12947962683E+02  0.28676969647E+02  0.00000000000E+00 0. -1.
</event>
<event>
 5    1  0.1764311E-003  0.9118800E+02  0.7818608E-02  0.1130116E+00
         25   -1    0    0    0    0  0.00000000000E+00  0.00000000000E+00  0.99999998245E-14  0.12500000000E+03  0.12500000000E+03 0.  0.
        -13    1    3    3    0    0 -0.41617855179E+02 -0.84789839162E+01  0.43926168950E+02  0.61102033686E+02  0.10566000000E+00 0. -1.
         23    2    1    0    0    0 -0.13443834549E+02  0.10755002668E+01  0.25657947312E+02  0.96013388462E+02  0.91533311508E+02 0.  0.
         13    1    3    3    0    0  0.28174020630E+02  0.95544841830E+01 -0.18268221638E+02  0.34911354776E+02  0.10566000000E+00 0.  1.
         22    1    1    0    0    0  0.13443834549E+02 -0.10755002668E+01 -0.25657947312E+02  0.28986611538E+02  0.00000000000E+00 0. -1.
</event>
<event>
 5    1  0.1764311E-003  0.9118800E+02  0.7818608E-02  0.1130116E+00
         25   -1    0    0    0    0  0.00000000000E+00  0.00000000000E+00  0.99999998245E-14  0.12500000000E+03  0.12500000000E+03 0.  0.
        -13    1    3    3    0    0  0.25464689103E+02  0.47320134003E+02 -0.30240750114E+02  0.61661654249E+02  0.10566000000E+00 0.  1.
         23    2    1    0    0    0  0.11081249911E+02  0.27309403199E+02 -0.90324681281E+01  0.94174960127E+02  0.88987302644E+02 0.  0.
         13    1    3    3    0    0 -0.14383439192E+02 -0.20010730804E+02  0.21208281986E+02  0.32513305878E+02  0.10566000000E+00 0. -1.
         22    1    1    0    0    0 -0.11081249911E+02 -0.27309403199E+02  0.90324681281E+01  0.30825039873E+02  0.00000000000E+00 0.  1.
</event>
<event>
 5    1  0.1764311E-003  0.9118800E+02  0.7818608E-02  0.1130116E+00
         25   -1    0    0    0    0  0.00000000000E+00  0.00000000000E+00  0.99999998245E-14  0.12500000000E+03  0.12500000000E+03 0.  0.
        -13    1    3    3    0    0  0.88056294962E+01 -0.10522356665E+02 -0.38941513954E+02  0.41288155368E+02  0.10566000000E+00 0.  1.
         23    2    1    0    0    0 -0.59928157375E+01  0.28578017187E+02 -0.44988862128E+01  0.95455848566E+02  0.90768728875E+02 0.  0.
         13    1    3    3    0    0 -0.14798445234E+02  0.39100373851E+02  0.34442627741E+02  0.54167693198E+02  0.10566000000E+00 0. -1.
         22    1    1    0    0    0  0.59928157375E+01 -0.28578017187E+02  0.44988862128E+01  0.29544151434E+02  0.00000000000E+00 0. -1.
</event>
<event>
 5    1  0.1764311E-003  0.9118800E+02  0.7818608E-02  0.1130116E+00
         25   -1    0    0    0    0  0.00000000000E+00  0.00000000000E+00  0.99999998245E-14  0.12500000000E+03  0.12500000000E+03 0.  0.
        -13    1    3    3    0    0  0.79929858212E+01 -0.30026719844E+02 -0.28945202006E+02  0.42465605025E+02  0.10566000000E+00 0.  1.
         23    2    1    0    0    0 -0.25979523833E+02  0.71342205396E+01 -0.98469948299E+01  0.96315577948E+02  0.91945062331E+02 0.  0.
         13    1    3    3    0    0 -0.33972509654E+02  0.37160940384E+02  0.19098207176E+02  0.53849972923E+02  0.10566000000E+00 0. -1.
         22    1    1    0    0    0  0.25979523833E+02 -0.71342205396E+01  0.98469948299E+01  0.28684422052E+02  0.00000000000E+00 0. -1.
</event>
<event>
 5    1  0.1764311E-003  0.9118800E+02  0.7818608E-02  0.1130116E+00
         25   -1    0    0    0    0  0.00000000000E+00  0.00000000000E+00  0.99999998245E-14  0.12500000000E+03  0.12500000000E+03 0.  0.
        -13    1    3    3    0    0 -0.54816390999E+02  0.16982682008E+02 -0.98537252943E+00  0.57395385994E+02  0.10566000000E+00 0.  1.
         23    2    1    0    0    0 -0.28100314439E+02 -0.83123305602E+01 -0.74822434517E+01  0.94755885234E+02  0.89799617530E+02 0.  0.
         13    1    3    3    0    0  0.26716076560E+02 -0.25295012568E+02 -0.64968709222E+01  0.37360499240E+02  0.10566000000E+00 0. -1.
         22    1    1    0    0    0  0.28100314439E+02  0.83123305602E+01  0.74822434517E+01  0.30244114766E+02  0.00000000000E+00 0.  1.
</event>
<event>
 5    1  0.1764311E-003  0.9118800E+02  0.7818608E-02  0.1130116E+00
         25   -1    0    0    0    0  0.00000000000E+00  0.00000000000E+00  0.99999998245E-14  0.12500000000E+03  0.12500000000E+03 0.  0.
        -13    1    3    3    0    0  0.30782484038E+02  0.91813391014E+01 -0.21490133342E+01  0.32194529560E+02  0.10566000000E+00 0.  1.
         23    2    1    0    0    0 -0.21993670573E+02  0.27944099172E+02  0.64367721244E+01  0.88861014690E+02  0.81180377387E+02 0.  0.
         13    1    3    3    0    0 -0.52776154611E+02  0.18762760071E+02  0.85857854586E+01  0.56666485130E+02  0.10566000000E+00 0. -1.
         22    1    1    0    0    0  0.21993670573E+02 -0.27944099172E+02 -0.64367721244E+01  0.36138985310E+02  0.00000000000E+00 0. -1.
</event>
<event>
 5    1  0.1764311E-003  0.9118800E+02  0.7818608E-02  0.1130116E+00
         25   -1    0    0    0    0  0.00000000000E+00  0.00000000000E+00  0.99999998245E-14  0.12500000000E+03  0.12500000000E+03 0.  0.
        -13    1    3    3    0    0 -0.49411054461E+02 -0.23935330118E+02  0.14554228879E+01  0.54922506776E+02  0.10566000000E+00 0. -1.
         23    2    1    0    0    0 -0.31674116974E+02  0.87589507167E+01  0.32249340117E+00  0.92135537343E+02  0.86074876334E+02 0.  0.
         13    1    3    3    0    0  0.17736937487E+02  0.32694280835E+02 -0.11329294868E+01  0.37213030567E+02  0.10566000000E+00 0.  1.
         22    1    1    0    0    0  0.31674116974E+02 -0.87589507167E+01 -0.32249340117E+00  0.32864462657E+02  0.00000000000E+00 0.  1.
</event>
<event>
 5    1  0.1764311E-003  0.9118800E+02  0.7818608E-02  0.1130116E+00
         25   -1    0    0    0    0  0.00000000000E+00  0.00000000000E+00  0.99999998245E-14  0.12500000000E+03  0.12500000000E+03 0.  0.
        -13    1    3    3    0    0 -0.88807324294E+01 -0.49340672246E+02  0.12978976854E+02  0.51786430176E+02  0.10566000000E+00 0. -1.
         23    2    1    0    0    0  0.11206603136E+02 -0.12822758523E+02  0.24623988911E+02  0.95060863074E+02  0.90223144306E+02 0.  0.
         13    1    3    3    0    0  0.20087335565E+02  0.36517913723E+02  0.11645012057E+02  0.43274432898E+02  0.10566000000E+00 0.  1.
         22    1    1    0    0    0 -0.11206603136E+02  0.12822758523E+02 -0.24623988911E+02  0.29939136926E+02  0.00000000000E+00 0. -1.
</event>
<event>
 5    1  0.1764311E-003  0.9118800E+02  0.7818608E-02  0.1130116E+00
         25   -1    0    0    0    0  0.00000000000E+00  0.00000000000E+00  0.99999998245E-14  0.12500000000E+03  0.12500000000E+03 0.  0.
        -13    1    3    3    0    0 -0.12953332007E+02 -0.11339704536E+01 -0.34764803744E+02  0.37117077504E+02  0.10566000000E+00 0. -1.
         23    2    1    0    0    0  0.30700344656E+02 -0.15159179285E+02 -0.95048656025E+01  0.89466152070E+02  0.82106869490E+02 0.  0.
         13    1    3    3    0    0  0.43653676662E+02 -0.14025208832E+02  0.25259938142E+02  0.52349074566E+02  0.10566000000E+00 0.  1.
         22    1    1    0    0    0 -0.30700344656E+02  0.15159179285E+02  0.95048656025E+01  0.35533847930E+02  0.00000000000E+00 0.  1.
</event>
<event>
 5    1  0.1764311E-003  0.9118800E+02  0.7818608E-02  0.1130116E+00
         25   -1    0    0    0    0  0.00000000000E+00  0.00000000000E+00  0.99999998245E-14  0.12500000000E+03  0.12500000000E+03 0.  0.
        -13    1    3    3    0    0  0.34804199544E+02 -0.61308964914E+01  0.42084684084E+02  0.54954999738E+02  0.10566000000E+00 0. -1.
         23    2    1    0    0    0 -0.43606841633E+00  0.98974077597E+01  0.26535978020E+02  0.96674976337E+02  0.92432375736E+02 0.  0.
         13    1    3    3    0    0 -0.35240267961E+02  0.16028304251E+02 -0.15548706064E+02  0.41719976599E+02  0.10566000000E+00 0.  1.
         22    1    1    0    0    0  0.43606841633E+00 -0.98974077597E+01 -0.26535978020E+02  0.28325023663E+02  0.00000000000E+00 0. -1.
</event>
<event>
 5    1  0.1764311E-003  0.9118800E+02  0.7818608E-02  0.1130116E+00
         25   -1    0    0    0    0  0.00000000000E+00  0.00000000000E+00  0.99999998245E-14  0.12500000000E+03  0.12500000000E+03 0.  0.
        -13    1    3    3    0    0  0.22857492032E+02 -0.33653759829E+02  0.35918281869E+02  0.54269463136E+02  0.10566000000E+00 0. -1.
         23    2    1    0    0    0  0.20042224918E+02 -0.21366370910E+02 -0.33520680490E+01  0.95513580317E+02  0.90848197996E+02 0.  0.
         13    1    3    3    0    0 -0.28152671134E+01  0.12287388919E+02 -0.39270349918E+02  0.41244117181E+02  0.10566000000E+00 0.  1.
         22    1    1    0    0    0 -0.20042224918E+02  0.21366370910E+02  0.33520680490E+01  0.29486419683E+02  0.00000000000E+00 0. -1.
</event>
<event>
 5    1  0.1764311E-003  0.9118800E+02  0.7818608E-02  0.1130116E+00
         25   -1    0    0    0    0  0.00000000000E+00  0.00000000000E+00  0.99999998245E-14  0.12500000000E+03  0.12500000000E+03 0.  0.
        -13    1    3    3    0    0 -0.28667036713E+02  0.19587287337E+02  0.27111745453E+01  0.34825600506E+02  0.10566000000E+00 0. -1.
         23    2    1    0    0    0  0.26159231841E+02 -0.29377989776E+01 -0.12261623022E+02  0.95960656473E+02  0.91461271138E+02 0.  0.
         13    1    3    3    0    0  0.54826268554E+02 -0.22525086315E+02 -0.14972797567E+02  0.61135055967E+02  0.10566000000E+00 0.  1.
         22    1    1    0    0    0 -0.26159231841E+02  0.29377989776E+01  0.12261623022E+02  0.29039343527E+02  0.00000000000E+00 0.  1.
</event>
<event>
 5    1  0.1764311E-003  0.9118800E+02  0.7818608E-02  0.1130116E+00
         25   -1    0    0    0    0  0.00000000000E+00  0.00000000000E+00  0.99999998245E-14  0.12500000000E+03  0.12500000000E+03 0.  0.
        -13    1    3    3    0    0  0.69079921467E+01  0.50288266714E+02 -0.73124569320E+01  0.51284630397E+02  0.10566000000E+00 0.  1.
         23    2    1    0    0    0 -0.22961432111E+02  0.17672518997E+02 -0.59005183415E+00  0.96019084668E+02  0.91541090048E+02 0.  0.
         13    1    3    3    0    0 -0.29869424258E+02 -0.32615747717E+02  0.67224050979E+01  0.44734454271E+02  0.10566000000E+00 0. -1.
         22    1    1    0    0    0  0.22961432111E+02 -0.17672518997E+02  0.59005183415E+00  0.28980915332E+02  0.00000000000E+00 0.  1.
</event>
<event>
 5    1  0.1764311E-003  0.9118800E+02  0.7818608E-02  0.1130116E+00
         25   -1    0    0    0    0  0.00000000000E+00  0.00000000000E+00  0.99999998245E-14  0.12500000000E+03  0.12500000000E+03 0.  0.
        -13    1    3    3    0    0 -0.35193777886E+02 -0.15937689311E+02 -0.80228735880E+01  0.39458707621E+02  0.10566000000E+00 0.  1.
         23    2    1    0    0    0 -0.56936832769E+01  0.23368787818E+02  0.17896268148E+02  0.95020095281E+02  0.90166644720E+02 0.  0.
         13    1    3    3    0    0  0.29500094609E+02  0.39306477129E+02  0.25919141736E+02  0.55561387660E+02  0.10566000000E+00 0. -1.
         22    1    1    0    0    0  0.56936832769E+01 -0.23368787818E+02 -0.17896268148E+02  0.29979904719E+02  0.00000000000E+00 0. -1.
</event>
<event>
 5    1  0.1764311E-003  0.9118800E+02  0.7818608E-02  0.1130116E+00
         25   -1    0    0    0    0  0.00000000000E+00  0.00000000000E+00  0.99999998245E-14  0.12500000000E+03  0.12500000000E+03 0.  0.
        -13    1    3    3    0    0 -0.18749419431E+02 -0.15595742046E+02  0.49569193214E+02  0.55243859196E+02  0.10566000000E+00 0. -1.
         23    2    1    0    0    0 -0.21881354232E+02 -0.15591125033E+02  0.79501820041E+01  0.96980681009E+02  0.92844871976E+02 0.  0.
         13    1    3    3    0    0 -0.31319348012E+01  0.46170129792E-02 -0.41619011210E+02  0.41736821813E+02  0.10566000000E+00 0.  1.
         22    1    1    0    0    0  0.21881354232E+02  0.15591125033E+02 -0.79501820041E+01  0.28019318991E+02  0.00000000000E+00 0.  1.
</event>
<event>
 5    1  0.1764311E-003  0.9118800E+02  0.7818608E-02  0.1130116E+00
         25   -1    0    0    0    0  0.00000000000E+00  0.00000000000E+00  0.99999998245E-14  0.12500000000E+03  0.12500000000E+03 0.  0.
        -13    1    3    3    0    0  0.24545739838E+02 -0.38901790209E+02  0.22155023470E+02  0.51055840554E+02  0.10566000000E+00 0. -1.
         23    2    1    0    0    0  0.80902529699E+01 -0.23688850431E+02 -0.15989768549E+02  0.95296691664E+02  0.90549284458E+02 0.  0.
         13    1    3    3    0    0 -0.16455486868E+02  0.15212939777E+02 -0.38144792019E+02  0.44240851110E+02  0.10566000000E+00 0.  1.
         22    1    1    0    0    0 -0.80902529699E+01  0.23688850431E+02  0.15989768549E+02  0.29703308336E+02  0.00000000000E+00 0. -1.
</event>
<event>
 5    1  0.1764311E-003  0.9118800E+02  0.7818608E-02  0.1130116E+00
         25   -1    0    0    0    0  0.00000000000E+00  0.00000000000E+00  0.99999998245E-14  0.12500000000E+03  0.12500000000E+03 0.  0.
        -13    1    3    3    0    0  0.50931634410E+02  0.33187681585E+01  0.13361620110E+02  0.52759735232E+02  0.10566000000E+00 0. -1.
         23    2    1    0    0    0  0.14594088260E+02 -0.17468399728E+02  0.19445009997E+02  0.95062718644E+02  0.90225715076E+02 0.  0.
         13    1    3    3    0    0 -0.36337546150E+02 -0.20787167887E+02  0.60833898874E+01  0.42302983412E+02  0.10566000000E+00 0.  1.
         22    1    1    0    0    0 -0.14594088260E+02  0.17468399728E+02 -0.19445009997E+02  0.29937281356E+02  0.00000000000E+00 0. -1.
</event>
<event>
 5    1  0.1764311E-003  0.9118800E+02  0.7818608E-02  0.1130116E+00
         25   -1    0    0    0    0  0.00000000000E+00  0.00000000000E+00  0.99999998245E-14  0.12500000000E+03  0.12500000000E+03 0.  0.
        -13    1    3    3    0    0  0.26705824519E+02 -0.38522316580E+02 -0.58325001852E+01  0.47235570922E+02  0.10566000000E+00 0.  1.
         23    2    1    0    0    0 -0.48113524943E+00 -0.13000991780E+02  0.25781174272E+02  0.96122219178E+02  0.91681812779E+02 0.  0.
         13    1    3    3    0    0 -0.27186959768E+02  0.25521324800E+02  0.31613674457E+02  0.48886648256E+02  0.10566000000E+00 0. -1.
         22    1    1    0    0    0  0.48113524943E+00  0.13000991780E+02 -0.25781174272E+02  0.28877780822E+02  0.00000000000E+00 0.  1.
</event>
<event>
 5    1  0.1764311E-003  0.9118800E+02  0.7818608E-02  0.1130116E+00
         25   -1    0    0    0    0  0.00000000000E+00  0.00000000000E+00  0.99999998245E-14  0.12500000000E+03  0.12500000000E+03 0.  0.
        -13    1    3    3    0    0  0.15438654901E+02  0.34990322217E+02 -0.67165663950E+01  0.38830376540E+02  0.10566000000E+00 0.  1.
         23    2    1    0    0    0 -0.20125367901E+02  0.15408861311E+01  0.21734863337E+02  0.95338424730E+02  0.90606877125E+02 0.  0.
         13    1    3    3    0    0 -0.35564022803E+02 -0.33449436086E+02  0.28451429732E+02  0.56508048190E+02  0.10566000000E+00 0. -1.
         22    1    1    0    0    0  0.20125367901E+02 -0.15408861311E+01 -0.21734863337E+02  0.29661575270E+02  0.00000000000E+00 0. -1.
</event>
<event>
 5    1  0.1764311E-003  0.9118800E+02  0.7818608E-02  0.1130116E+00
         25   -1    0    0    0    0  0.00000000000E+00  0.00000000000E+00  0.99999998245E-14  0.12500000000E+03  0.12500000000E+03 0.  0.
        -13    1    3    3    0    0  0.37558567248E+02  0.19103269640E+02 -0.90413807924E+01  0.43096851572E+02  0.10566000000E+00 0.  1.
         23    2    1    0    0    0 -0.73760081644E+01  0.25403918351E+02  0.15148581849E+02  0.94516494689E+02  0.89465768159E+02 0.  0.
         13    1    3    3    0    0 -0.44934575413E+02  0.63006487104E+01  0.24189962641E+02  0.51419643117E+02  0.10566000000E+00 0. -1.
         22    1    1    0    0    0  0.73760081644E+01 -0.25403918351E+02 -0.15148581849E+02  0.30483505311E+02  0.00000000000E+00 0. -1.
</event>
<event>
 5    1  0.1764311E-003  0.9118800E+02  0.7818608E-02  0.1130116E+00
         25   -1    0    0    0    0  0.00000000000E+00  0.00000000000E+00  0.99999998245E-14  0.12500000000E+03  0.12500000000E+03 0.  0.
        -13    1    3    3    0    0 -0.14228560850E+02 -0.26996827077E+02 -0.14437017896E+02  0.33759728462E+02  0.10566000000E+00 0.  1.
         23    2    1    0    0    0 -0.13316174771E+02  0.18013598348E+02  0.23427770984E+02  0.92585949200E+02  0.86726508635E+02 0.  0.
         13    1    3    3    0    0  0.91238607875E+00  0.45010425425E+02  0.37864788881E+02  0.58826220738E+02  0.10566000000E+00 0. -1.
         22    1    1    0    0    0  0.13316174771E+02 -0.18013598348E+02 -0.23427770984E+02  0.32414050800E+02  0.00000000000E+00 0. -1.
</event>
<event>
 5    1  0.1764311E-003  0.9118800E+02  0.7818608E-02  0.1130116E+00
         25   -1    0    0    0    0  0.00000000000E+00  0.00000000000E+00  0.99999998245E-14  0.12500000000E+03  0.12500000000E+03 0.  0.
        -13    1    3    3    0    0 -0.41239096656E+01  0.33586566959E+02  0.25401771777E+02  0.42312235636E+02  0.10566000000E+00 0.  1.
         23    2    1    0    0    0 -0.28879058263E+02 -0.62993253189E+01  0.53129618350E+00  0.95437121567E+02  0.90742935768E+02 0.  0.
         13    1    3    3    0    0 -0.24755148597E+02 -0.39885892278E+02 -0.24870475594E+02  0.53124885931E+02  0.10566000000E+00 0. -1.
         22    1    1    0    0    0  0.28879058263E+02  0.62993253189E+01 -0.53129618350E+00  0.29562878433E+02  0.00000000000E+00 0. -1.
</event>
<event>
 5    1  0.1764311E-003  0.9118800E+02  0.7818608E-02  0.1130116E+00
         25   -1    0    0    0    0  0.00000000000E+00  0.00000000000E+00  0.99999998245E-14  0.12500000000E+03  0.12500000000E+03 0.  0.
        -13    1    3    3    0    0  0.45658925548E+02 -0.40916142395E+01  0.30108202125E+02  0.54845180176E+02  0.10566000000E+00 0.  1.
         23    2    1    0    0    0  0.18366215073E+02  0.19854183946E+02  0.12215562047E+02  0.95322964562E+02  0.90585545980E+02 0.  0.
         13    1    3    3    0    0 -0.27292710475E+02  0.23945798186E+02 -0.17892640078E+02  0.40477784386E+02  0.10566000000E+00 0. -1.
         22    1    1    0    0    0 -0.18366215073E+02 -0.19854183946E+02 -0.12215562047E+02  0.29677035438E+02  0.00000000000E+00 0.  1.
</event>
<event>
 5    1  0.1764311E-003  0.9118800E+02  0.7818608E-02  0.1130116E+00
         25   -1    0    0    0    0  0.00000000000E+00  0.00000000000E+00  0.99999998245E-14  0.12500000000E+03  0.12500000000E+03 0.  0.
        -13    1    3    3    0    0 -0.30213825194E+02 -0.77130682096E+01 -0.12637272383E+02  0.33646373823E+02  0.10566000000E+00 0. -1.
         23    2    1    0    0    0  0.22557103569E+02  0.20284806846E+02 -0.21355357748E+00  0.94662862440E+02  0.89670037415E+02 0.  0.
         13    1    3    3    0    0  0.52770928764E+02  0.27997875055E+02  0.12423718806E+02  0.61016488617E+02  0.10566000000E+00 0.  1.
         22    1    1    0    0    0 -0.22557103569E+02 -0.20284806846E+02  0.21355357748E+00  0.30337137560E+02  0.00000000000E+00 0.  1.
</event>
<event>
 5    1  0.1764311E-003  0.9118800E+02  0.7818608E-02  0.1130116E+00
         25   -1    0    0    0    0  0.00000000000E+00  0.00000000000E+00  0.99999998245E-14  0.12500000000E+03  0.12500000000E+03 0.  0.
        -13    1    3    3    0    0 -0.38805028873E+02  0.26905367176E+02 -0.33876377993E+02  0.58114965359E+02  0.10566000000E+00 0.  1.
         23    2    1    0    0    0 -0.29616432493E+02  0.18466566382E+01 -0.10724477271E+02  0.93447541663E+02  0.87959566937E+02 0.  0.
         13    1    3    3    0    0  0.91885963793E+01 -0.25058710538E+02  0.23151900721E+02  0.35332576304E+02  0.10566000000E+00 0. -1.
         22    1    1    0    0    0  0.29616432493E+02 -0.18466566382E+01  0.10724477271E+02  0.31552458337E+02  0.00000000000E+00 0.  1.
</event>
<event>
 5    1  0.1764311E-003  0.9118800E+02  0.7818608E-02  0.1130116E+00
         25   -1    0    0    0    0  0.00000000000E+00  0.00000000000E+00  0.99999998245E-14  0.12500000000E+03  0.12500000000E+03 0.  0.
        -13    1    3    3    0    0  0.90904217277E+01 -0.16941401961E+02  0.32710187467E+02  0.37942250800E+02  0.10566000000E+00 0.  1.
         23    2    1    0    0    0  0.22763979846E+02  0.71266529390E+01 -0.17594142696E+02  0.95359793898E+02  0.90636352941E+02 0.  0.
         13    1    3    3    0    0  0.13673558119E+02  0.24068054900E+02 -0.50304330163E+02  0.57417543098E+02  0.10566000000E+00 0. -1.
         22    1    1    0    0    0 -0.22763979846E+02 -0.71266529390E+01  0.17594142696E+02  0.29640206102E+02  0.00000000000E+00 0. -1.
</event>
<event>
 5    1  0.1764311E-003  0.9118800E+02  0.7818608E-02  0.1130116E+00
         25   -1    0    0    0    0  0.00000000000E+00  0.00000000000E+00  0.99999998245E-14  0.12500000000E+03  0.12500000000E+03 0.  0.
        -13    1    3    3    0    0 -0.22991000213E+01 -0.56398874244E+02  0.35623191948E+00  0.56446939174E+02  0.10566000000E+00 0. -1.
         23    2    1    0    0    0  0.11200025878E+02 -0.25342431756E+02  0.15173379147E+02  0.93410272846E+02  0.87906587986E+02 0.  0.
         13    1    3    3    0    0  0.13499125899E+02  0.31056442489E+02  0.14817147227E+02  0.36963333671E+02  0.10566000000E+00 0.  1.
         22    1    1    0    0    0 -0.11200025878E+02  0.25342431756E+02 -0.15173379147E+02  0.31589727154E+02  0.00000000000E+00 0. -1.
</event>
<event>
 5    1  0.1764311E-003  0.9118800E+02  0.7818608E-02  0.1130116E+00
         25   -1    0    0    0    0  0.00000000000E+00  0.00000000000E+00  0.99999998245E-14  0.12500000000E+03  0.12500000000E+03 0.  0.
        -13    1    3    3    0    0 -0.35610711469E+02  0.27669217986E+02 -0.51658431960E+01  0.45391689715E+02  0.10566000000E+00 0.  1.
         23    2    1    0    0    0  0.17523730846E+01  0.45571776046E+01 -0.29148701260E+02  0.95445212498E+02  0.90754080483E+02 0.  0.
         13    1    3    3    0    0  0.37363084553E+02 -0.23112040381E+02 -0.23982858064E+02  0.50053522782E+02  0.10566000000E+00 0. -1.
         22    1    1    0    0    0 -0.17523730846E+01 -0.45571776046E+01  0.29148701260E+02  0.29554787502E+02  0.00000000000E+00 0.  1.
</event>
<event>
 5    1  0.1764311E-003  0.9118800E+02  0.7818608E-02  0.1130116E+00
         25   -1    0    0    0    0  0.00000000000E+00  0.00000000000E+00  0.99999998245E-14  0.12500000000E+03  0.12500000000E+03 0.  0.
        -13    1    3    3    0    0 -0.31627543652E+02 -0.38840880852E+02  0.30777176677E+02  0.58789125789E+02  0.10566000000E+00 0. -1.
         23    2    1    0    0    0 -0.16202537234E+02 -0.26720200713E+02  0.19081077608E+01  0.93692936672E+02  0.88307611043E+02 0.  0.
         13    1    3    3    0    0  0.15425006418E+02  0.12120680139E+02 -0.28869068916E+02  0.34903810883E+02  0.10566000000E+00 0.  1.
         22    1    1    0    0    0  0.16202537234E+02  0.26720200713E+02 -0.19081077608E+01  0.31307063328E+02  0.00000000000E+00 0. -1.
</event>
<event>
 5    1  0.1764311E-003  0.9118800E+02  0.7818608E-02  0.1130116E+00
         25   -1    0    0    0    0  0.00000000000E+00  0.00000000000E+00  0.99999998245E-14  0.12500000000E+03  0.12500000000E+03 0.  0.
        -13    1    3    3    0    0 -0.85790753834E+01 -0.46076295290E+02  0.20904141198E+02  0.51318805572E+02  0.10566000000E+00 0.  1.
         23    2    1    0    0    0  0.60270431783E+01 -0.48286804259E+01  0.28271968309E+02  0.95692226353E+02  0.91093669309E+02 0.  0.
         13    1    3    3    0    0  0.14606118562E+02  0.41247614864E+02  0.73678271106E+01  0.44373420781E+02  0.10566000000E+00 0. -1.
         22    1    1    0    0    0 -0.60270431783E+01  0.48286804259E+01 -0.28271968309E+02  0.29307773647E+02  0.00000000000E+00 0.  1.
</event>
<event>
 5    1  0.1764311E-003  0.9118800E+02  0.7818608E-02  0.1130116E+00
         25   -1    0    0    0    0  0.00000000000E+00  0.00000000000E+00  0.99999998245E-14  0.12500000000E+03  0.12500000000E+03 0.  0.
        -13    1    3    3    0    0  0.45113502470E+02  0.32902092114E+02 -0.99239161192E+01  0.56712177226E+02  0.10566000000E+00 0.  1.
         23    2    1    0    0    0  0.11969985673E+02  0.24521947652E+02  0.95902841541E+01  0.96076306878E+02  0.91619194057E+02 0.  0.
         13    1    3    3    0    0 -0.33143516797E+02 -0.83801444624E+01  0.19514200273E+02  0.39364129652E+02  0.10566000000E+00 0. -1.
         22    1    1    0    0    0 -0.11969985673E+02 -0.24521947652E+02 -0.95902841541E+01  0.28923693122E+02  0.00000000000E+00 0.  1.
</event>
<event>
 5    1  0.1764311E-003  0.9118800E+02  0.7818608E-02  0.1130116E+00
         25   -1    0    0    0    0  0.00000000000E+00  0.00000000000E+00  0.99999998245E-14  0.12500000000E+03  0.12500000000E+03 0.  0.
        -13    1    3    3    0    0 -0.33700755545E+02 -0.36450443499E+02  0.99313250049E+01  0.50626259352E+02  0.10566000000E+00 0. -1.
         23    2    1    0    0    0 -0.14640223213E+02 -0.11943015010E+02 -0.22564699555E+02  0.95569787475E+02  0.90925501751E+02 0.  0.
         13    1    3    3    0    0  0.19060532332E+02  0.24507428489E+02 -0.32496024560E+02  0.44943528123E+02  0.10566000000E+00 0.  1.
         22    1    1    0    0    0  0.14640223213E+02  0.11943015010E+02  0.22564699555E+02  0.29430212525E+02  0.00000000000E+00 0. -1.
</event>
<event>
 5    1  0.1764311E-003  0.9118800E+02  0.7818608E-02  0.1130116E+00
         25   -1    0    0    0    0  0.00000000000E+00  0.00000000000E+00  0.99999998245E-14  0.12500000000E+03  0.12500000000E+03 0.  0.
        -13    1    3    3    0    0  0.11621910487E+02 -0.38637819521E+02 -0.27207313068E+02  0.48664144389E+02  0.10566000000E+00 0. -1.
         23    2    1    0    0    0  0.22257402470E+02 -0.12455974233E+02  0.11852395829E+02  0.96874876966E+02  0.92702315189E+02 0.  0.
         13    1    3    3    0    0  0.10635491982E+02  0.26181845288E+02  0.39059708897E+02  0.48210732577E+02  0.10566000000E+00 0.  1.
         22    1    1    0    0    0 -0.22257402470E+02  0.12455974233E+02 -0.11852395829E+02  0.28125123034E+02  0.00000000000E+00 0. -1.
</event>
<event>
 5    1  0.1764311E-003  0.9118800E+02  0.7818608E-02  0.1130116E+00
         25   -1    0    0    0    0  0.00000000000E+00  0.00000000000E+00  0.99999998245E-14  0.12500000000E+03  0.12500000000E+03 0.  0.
        -13    1    3    3    0    0  0.24832948956E+02 -0.22387199660E+02  0.41556795300E+01  0.33691881794E+02  0.10566000000E+00 0.  1.
         23    2    1    0    0    0 -0.14883405318E+02  0.20818252237E+02  0.17653198080E+02  0.93910600158E+02  0.88615179510E+02 0.  0.
         13    1    3    3    0    0 -0.39716354273E+02  0.43205451897E+02  0.13497518550E+02  0.60218718364E+02  0.10566000000E+00 0. -1.
         22    1    1    0    0    0  0.14883405318E+02 -0.20818252237E+02 -0.17653198080E+02  0.31089399842E+02  0.00000000000E+00 0. -1.
</event>
<event>
 5    1  0.1764311E-003  0.9118800E+02  0.7818608E-02  0.1130116E+00
         25   -1    0    0    0    0  0.00000000000E+00  0.00000000000E+00  0.99999998245E-14  0.12500000000E+03  0.12500000000E+03 0.  0.
        -13    1    3    3    0    0  0.26172569368E+01 -0.31745615564E+02 -0.53596834546E+02  0.62347942859E+02  0.10566000000E+00 0.  1.
         23    2    1    0    0    0  0.38727919195E+01 -0.18278438912E+02 -0.34739985429E+02  0.85554259622E+02  0.75918146089E+02 0.  0.
         13    1    3    3    0    0  0.12555349827E+01  0.13467176652E+02  0.18856849117E+02  0.23206316763E+02  0.10566000000E+00 0. -1.
         22    1    1    0    0    0 -0.38727919195E+01  0.18278438912E+02  0.34739985429E+02  0.39445740378E+02  0.00000000000E+00 0.  1.
</event>
<event>
 5    1  0.1764311E-003  0.9118800E+02  0.7818608E-02  0.1130116E+00
         25   -1    0    0    0    0  0.00000000000E+00  0.00000000000E+00  0.99999998245E-14  0.12500000000E+03  0.12500000000E+03 0.  0.
        -13    1    3    3    0    0 -0.31558641973E+01 -0.82072178365E+01 -0.59093352431E+02  0.59744065554E+02  0.10566000000E+00 0.  1.
         23    2    1    0    0    0  0.10978076324E+02 -0.74941235437E+01 -0.32903095481E+02  0.89513471011E+02  0.82178876561E+02 0.  0.
         13    1    3    3    0    0  0.14133940521E+02  0.71309429284E+00  0.26190256950E+02  0.29769405457E+02  0.10566000000E+00 0. -1.
         22    1    1    0    0    0 -0.10978076324E+02  0.74941235437E+01  0.32903095481E+02  0.35486528989E+02  0.00000000000E+00 0.  1.
</event>
<event>
 5    1  0.1764311E-003  0.9118800E+02  0.7818608E-02  0.1130116E+00
         25   -1    0    0    0    0  0.00000000000E+00  0.00000000000E+00  0.99999998245E-14  0.12500000000E+03  0.12500000000E+03 0.  0.
        -13    1    3    3    0    0 -0.38242945421E+01 -0.10366721349E+02 -0.34691632355E+02  0.36408991468E+02  0.10566000000E+00 0.  1.
         23    2    1    0    0    0  0.26291785170E+02  0.46389241777E+01  0.13419848689E+02  0.95119070902E+02  0.90303752555E+02 0.  0.
         13    1    3    3    0    0  0.30116079712E+02  0.15005645526E+02  0.48111481044E+02  0.58710079434E+02  0.10566000000E+00 0. -1.
         22    1    1    0    0    0 -0.26291785170E+02 -0.46389241777E+01 -0.13419848689E+02  0.29880929098E+02  0.00000000000E+00 0. -1.
</event>
<event>
 5    1  0.1764311E-003  0.9118800E+02  0.7818608E-02  0.1130116E+00
         25   -1    0    0    0    0  0.00000000000E+00  0.00000000000E+00  0.99999998245E-14  0.12500000000E+03  0.12500000000E+03 0.  0.
        -13    1    3    3    0    0 -0.49743108357E+02  0.25072741686E+02 -0.53132073107E+01  0.55957667399E+02  0.10566000000E+00 0. -1.
         23    2    1    0    0    0 -0.18834395731E+02  0.42179690077E+01 -0.21060483502E+02  0.96433066485E+02  0.92104650378E+02 0.  0.
         13    1    3    3    0    0  0.30908712627E+02 -0.20854772679E+02 -0.15747276192E+02  0.40475399086E+02  0.10566000000E+00 0.  1.
         22    1    1    0    0    0  0.18834395731E+02 -0.42179690077E+01  0.21060483502E+02  0.28566933515E+02  0.00000000000E+00 0. -1.
</event>
<event>
 5    1  0.1764311E-003  0.9118800E+02  0.7818608E-02  0.1130116E+00
         25   -1    0    0    0    0  0.00000000000E+00  0.00000000000E+00  0.99999998245E-14  0.12500000000E+03  0.12500000000E+03 0.  0.
        -13    1    3    3    0    0 -0.27705778254E+02  0.11716177993E+02  0.39105543253E+02  0.49336940040E+02  0.10566000000E+00 0. -1.
         23    2    1    0    0    0 -0.42895673072E+01  0.30716510556E+02  0.73555698300E+01  0.93125106809E+02  0.87500152584E+02 0.  0.
         13    1    3    3    0    0  0.23416210947E+02  0.19000332563E+02 -0.31749973423E+02  0.43788166769E+02  0.10566000000E+00 0.  1.
         22    1    1    0    0    0  0.42895673072E+01 -0.30716510556E+02 -0.73555698300E+01  0.31874893191E+02  0.00000000000E+00 0. -1.
</event>
<event>
 5    1  0.1764311E-003  0.9118800E+02  0.7818608E-02  0.1130116E+00
         25   -1    0    0    0    0  0.00000000000E+00  0.00000000000E+00  0.99999998245E-14  0.12500000000E+03  0.12500000000E+03 0.  0.
        -13    1    3    3    0    0  0.23696829279E+02 -0.13420297380E+01  0.23433236534E+02  0.33353687955E+02  0.10566000000E+00 0.  1.
         23    2    1    0    0    0 -0.18748990450E+02 -0.17339031685E+02 -0.17165831376E+02  0.94229357668E+02  0.89063681807E+02 0.  0.
         13    1    3    3    0    0 -0.42445819729E+02 -0.15997001947E+02 -0.40599067910E+02  0.60875669713E+02  0.10566000000E+00 0. -1.
         22    1    1    0    0    0  0.18748990450E+02  0.17339031685E+02  0.17165831376E+02  0.30770642332E+02  0.00000000000E+00 0. -1.
</event>
<event>
 5    1  0.1764311E-003  0.9118800E+02  0.7818608E-02  0.1130116E+00
         25   -1    0    0    0    0  0.00000000000E+00  0.00000000000E+00  0.99999998245E-14  0.12500000000E+03  0.12500000000E+03 0.  0.
        -13    1    3    3    0    0  0.24346996966E+02 -0.85752112763E+01  0.24439190019E+02  0.35547091056E+02  0.10566000000E+00 0.  1.
         23    2    1    0    0    0 -0.12297543163E+02  0.13216674086E+02 -0.20629568804E+02  0.97586697558E+02  0.93657217498E+02 0.  0.
         13    1    3    3    0    0 -0.36644540129E+02  0.21791885362E+02 -0.45068758824E+02  0.62039606502E+02  0.10566000000E+00 0. -1.
         22    1    1    0    0    0  0.12297543163E+02 -0.13216674086E+02  0.20629568804E+02  0.27413302442E+02  0.00000000000E+00 0. -1.
</event>
<event>
 5    1  0.1764311E-003  0.9118800E+02  0.7818608E-02  0.1130116E+00
         25   -1    0    0    0    0  0.00000000000E+00  0.00000000000E+00  0.99999998245E-14  0.12500000000E+03  0.12500000000E+03 0.  0.
        -13    1    3    3    0    0  0.19695628518E+02  0.23612660457E+01 -0.21453910597E+02  0.29219425114E+02  0.10566000000E+00 0. -1.
         23    2    1    0    0    0  0.32811034267E+01  0.19931730709E+02  0.31615640978E+02  0.87482160467E+02  0.79028729693E+02 0.  0.
         13    1    3    3    0    0 -0.16414525092E+02  0.17570464664E+02  0.53069551575E+02  0.58262735353E+02  0.10566000000E+00 0.  1.
         22    1    1    0    0    0 -0.32811034267E+01 -0.19931730709E+02 -0.31615640978E+02  0.37517839533E+02  0.00000000000E+00 0.  1.
</event>
<event>
 5    1  0.1764311E-003  0.9118800E+02  0.7818608E-02  0.1130116E+00
         25   -1    0    0    0    0  0.00000000000E+00  0.00000000000E+00  0.99999998245E-14  0.12500000000E+03  0.12500000000E+03 0.  0.
        -13    1    3    3    0    0  0.37340717513E+02 -0.31103941556E+02  0.33408006926E+02  0.58973642040E+02  0.10566000000E+00 0. -1.
         23    2    1    0    0    0  0.16512820185E+02 -0.24129330738E+01  0.24199904758E+02  0.95603897082E+02  0.90972381911E+02 0.  0.
         13    1    3    3    0    0 -0.20827897328E+02  0.28691008483E+02 -0.92081021684E+01  0.36630255042E+02  0.10566000000E+00 0.  1.
         22    1    1    0    0    0 -0.16512820185E+02  0.24129330738E+01 -0.24199904758E+02  0.29396102918E+02  0.00000000000E+00 0. -1.
</event>
<event>
 5    1  0.1764311E-003  0.9118800E+02  0.7818608E-02  0.1130116E+00
         25   -1    0    0    0    0  0.00000000000E+00  0.00000000000E+00  0.99999998245E-14  0.12500000000E+03  0.12500000000E+03 0.  0.
        -13    1    3    3    0    0 -0.77983538898E+01  0.26881987236E+02 -0.21769242985E+02  0.35459366397E+02  0.10566000000E+00 0. -1.
         23    2    1    0    0    0  0.24213866965E+02 -0.11500543158E+02  0.11846787309E+02  0.95692659352E+02  0.91094263475E+02 0.  0.
         13    1    3    3    0    0  0.32012220855E+02 -0.38382530394E+02  0.33616030293E+02  0.60233292955E+02  0.10566000000E+00 0.  1.
         22    1    1    0    0    0 -0.24213866965E+02  0.11500543158E+02 -0.11846787309E+02  0.29307340648E+02  0.00000000000E+00 0.  1.
</event>
<event>
 5    1  0.1764311E-003  0.9118800E+02  0.7818608E-02  0.1130116E+00
         25   -1    0    0    0    0  0.00000000000E+00  0.00000000000E+00  0.99999998245E-14  0.12500000000E+03  0.12500000000E+03 0.  0.
        -13    1    3    3    0    0 -0.95087468926E+01  0.30112382319E+02  0.70750872186E+01  0.32361085575E+02  0.10566000000E+00 0. -1.
         23    2    1    0    0    0 -0.36022787261E+01 -0.25747471196E+02  0.22506134999E+02  0.90613450339E+02  0.83835330170E+02 0.  0.
         13    1    3    3    0    0  0.59064681665E+01 -0.55859853515E+02  0.15431047780E+02  0.58252364764E+02  0.10566000000E+00 0.  1.
         22    1    1    0    0    0  0.36022787261E+01  0.25747471196E+02 -0.22506134999E+02  0.34386549661E+02  0.00000000000E+00 0.  1.
</event>
<event>
 5    1  0.1764311E-003  0.9118800E+02  0.7818608E-02  0.1130116E+00
         25   -1    0    0    0    0  0.00000000000E+00  0.00000000000E+00  0.99999998245E-14  0.12500000000E+03  0.12500000000E+03 0.  0.
        -13    1    3    3    0    0  0.15102120291E+02 -0.93260771232E+01  0.25038624982E+02  0.30691915170E+02  0.10566000000E+00 0.  1.
         23    2    1    0    0    0 -0.21734059680E+02  0.25851365731E+02 -0.65082274965E+01  0.90604949694E+02  0.83822654597E+02 0.  0.
         13    1    3    3    0    0 -0.36836179971E+02  0.35177442855E+02 -0.31546852478E+02  0.59913034525E+02  0.10566000000E+00 0. -1.
         22    1    1    0    0    0  0.21734059680E+02 -0.25851365731E+02  0.65082274965E+01  0.34395050306E+02  0.00000000000E+00 0. -1.
</event>
<event>
 5    1  0.1764311E-003  0.9118800E+02  0.7818608E-02  0.1130116E+00
         25   -1    0    0    0    0  0.00000000000E+00  0.00000000000E+00  0.99999998245E-14  0.12500000000E+03  0.12500000000E+03 0.  0.
        -13    1    3    3    0    0 -0.28825962713E+02  0.29381754351E+02 -0.23199611191E+02  0.47248880817E+02  0.10566000000E+00 0.  1.
         23    2    1    0    0    0  0.14483180806E+02  0.25259359642E+02 -0.15531606602E+01  0.95841637840E+02  0.91298463624E+02 0.  0.
         13    1    3    3    0    0  0.43309143519E+02 -0.41223947088E+01  0.21646450531E+02  0.48592757023E+02  0.10566000000E+00 0. -1.
         22    1    1    0    0    0 -0.14483180806E+02 -0.25259359642E+02  0.15531606602E+01  0.29158362160E+02  0.00000000000E+00 0. -1.
</event>
<event>
 5    1  0.1764311E-003  0.9118800E+02  0.7818608E-02  0.1130116E+00
         25   -1    0    0    0    0  0.00000000000E+00  0.00000000000E+00  0.99999998245E-14  0.12500000000E+03  0.12500000000E+03 0.  0.
        -13    1    3    3    0    0 -0.24614175876E+02 -0.15622283919E+02  0.21600322915E+02  0.36283584759E+02  0.10566000000E+00 0. -1.
         23    2    1    0    0    0  0.29166448522E+02  0.19748692263E+00  0.16524162560E+01  0.95786112892E+02  0.91222410750E+02 0.  0.
         13    1    3    3    0    0  0.53780624398E+02  0.15819770841E+02 -0.19947906659E+02  0.59502528133E+02  0.10566000000E+00 0.  1.
         22    1    1    0    0    0 -0.29166448522E+02 -0.19748692263E+00 -0.16524162560E+01  0.29213887108E+02  0.00000000000E+00 0.  1.
</event>
<event>
 5    1  0.1764311E-003  0.9118800E+02  0.7818608E-02  0.1130116E+00
         25   -1    0    0    0    0  0.00000000000E+00  0.00000000000E+00  0.99999998245E-14  0.12500000000E+03  0.12500000000E+03 0.  0.
        -13    1    3    3    0    0  0.14089533994E+02  0.13176806301E+02  0.29856505267E+02  0.35546663180E+02  0.10566000000E+00 0. -1.
         23    2    1    0    0    0  0.28846012313E+01  0.10604495461E+02 -0.28201912209E+02  0.94732457971E+02  0.89767001135E+02 0.  0.
         13    1    3    3    0    0 -0.11204932763E+02 -0.25723108402E+01 -0.58058417475E+02  0.59185794791E+02  0.10566000000E+00 0.  1.
         22    1    1    0    0    0 -0.28846012313E+01 -0.10604495461E+02  0.28201912209E+02  0.30267542029E+02  0.00000000000E+00 0.  1.
</event>
<event>
 5    1  0.1764311E-003  0.9118800E+02  0.7818608E-02  0.1130116E+00
         25   -1    0    0    0    0  0.00000000000E+00  0.00000000000E+00  0.99999998245E-14  0.12500000000E+03  0.12500000000E+03 0.  0.
        -13    1    3    3    0    0  0.95731272688E+01 -0.46882038301E+02  0.64708770596E-01  0.47849614755E+02  0.10566000000E+00 0.  1.
         23    2    1    0    0    0  0.13890898491E+02 -0.74149958513E+01  0.25520974854E+02  0.95012346176E+02  0.90155901326E+02 0.  0.
         13    1    3    3    0    0  0.43177712226E+01  0.39467042450E+02  0.25456266084E+02  0.47162731420E+02  0.10566000000E+00 0. -1.
         22    1    1    0    0    0 -0.13890898491E+02  0.74149958513E+01 -0.25520974854E+02  0.29987653824E+02  0.00000000000E+00 0. -1.
</event>
<event>
 5    1  0.1764311E-003  0.9118800E+02  0.7818608E-02  0.1130116E+00
         25   -1    0    0    0    0  0.00000000000E+00  0.00000000000E+00  0.99999998245E-14  0.12500000000E+03  0.12500000000E+03 0.  0.
        -13    1    3    3    0    0 -0.38785908770E+02  0.32083840019E+02  0.30423852948E+02  0.58816167010E+02  0.10566000000E+00 0. -1.
         23    2    1    0    0    0 -0.25286239630E+02  0.18432937604E+02  0.13219932052E+01  0.93680441105E+02  0.88289921714E+02 0.  0.
         13    1    3    3    0    0  0.13499669140E+02 -0.13650902416E+02 -0.29101859743E+02  0.34864274095E+02  0.10566000000E+00 0.  1.
         22    1    1    0    0    0  0.25286239630E+02 -0.18432937604E+02 -0.13219932052E+01  0.31319558895E+02  0.00000000000E+00 0. -1.
</event>
<event>
 5    1  0.1764311E-003  0.9118800E+02  0.7818608E-02  0.1130116E+00
         25   -1    0    0    0    0  0.00000000000E+00  0.00000000000E+00  0.99999998245E-14  0.12500000000E+03  0.12500000000E+03 0.  0.
        -13    1    3    3    0    0 -0.19870535424E+02  0.43414142307E+02 -0.33007011216E+02  0.58043947865E+02  0.10566000000E+00 0. -1.
         23    2    1    0    0    0 -0.14225970374E+02  0.25578465178E+02 -0.29203487254E+00  0.95730196477E+02  0.91145757549E+02 0.  0.
         13    1    3    3    0    0  0.56445650498E+01 -0.17835677129E+02  0.32714976344E+02  0.37686248612E+02  0.10566000000E+00 0.  1.
         22    1    1    0    0    0  0.14225970374E+02 -0.25578465178E+02  0.29203487254E+00  0.29269803523E+02  0.00000000000E+00 0. -1.
</event>
<event>
 5    1  0.1764311E-003  0.9118800E+02  0.7818608E-02  0.1130116E+00
         25   -1    0    0    0    0  0.00000000000E+00  0.00000000000E+00  0.99999998245E-14  0.12500000000E+03  0.12500000000E+03 0.  0.
        -13    1    3    3    0    0 -0.28506173611E+02  0.75333579138E+01  0.42233233079E+02  0.51507383507E+02  0.10566000000E+00 0. -1.
         23    2    1    0    0    0 -0.26519028280E+02 -0.97014460949E+01  0.43988137752E+00  0.96758710850E+02  0.92545543990E+02 0.  0.
         13    1    3    3    0    0  0.19871453311E+01 -0.17234804009E+02 -0.41793351701E+02  0.45251327343E+02  0.10566000000E+00 0.  1.
         22    1    1    0    0    0  0.26519028280E+02  0.97014460949E+01 -0.43988137752E+00  0.28241289150E+02  0.00000000000E+00 0. -1.
</event>
<event>
 5    1  0.1764311E-003  0.9118800E+02  0.7818608E-02  0.1130116E+00
         25   -1    0    0    0    0  0.00000000000E+00  0.00000000000E+00  0.99999998245E-14  0.12500000000E+03  0.12500000000E+03 0.  0.
        -13    1    3    3    0    0 -0.94121317104E+01 -0.60337933624E+02  0.48189518912E+01  0.61257553973E+02  0.10566000000E+00 0. -1.
         23    2    1    0    0    0 -0.12955860141E+02 -0.29264390270E+02  0.54295700014E+01  0.92538652519E+02  0.86658312525E+02 0.  0.
         13    1    3    3    0    0 -0.35437284307E+01  0.31073543354E+02  0.61061811016E+00  0.31281098546E+02  0.10566000000E+00 0.  1.
         22    1    1    0    0    0  0.12955860141E+02  0.29264390270E+02 -0.54295700014E+01  0.32461347481E+02  0.00000000000E+00 0. -1.
</event>
<event>
 5    1  0.1764311E-003  0.9118800E+02  0.7818608E-02  0.1130116E+00
         25   -1    0    0    0    0  0.00000000000E+00  0.00000000000E+00  0.99999998245E-14  0.12500000000E+03  0.12500000000E+03 0.  0.
        -13    1    3    3    0    0  0.29749566103E+02  0.26258626178E+02 -0.87877127679E+01  0.40642184880E+02  0.10566000000E+00 0. -1.
         23    2    1    0    0    0  0.42087492497E+01 -0.24374928062E+02  0.65915060671E+01  0.99401198456E+02  0.96048423277E+02 0.  0.
         13    1    3    3    0    0 -0.25540816853E+02 -0.50633554239E+02  0.15379218835E+02  0.58759013576E+02  0.10566000000E+00 0.  1.
         22    1    1    0    0    0 -0.42087492497E+01  0.24374928062E+02 -0.65915060671E+01  0.25598801544E+02  0.00000000000E+00 0.  1.
</event>
<event>
 5    1  0.1764311E-003  0.9118800E+02  0.7818608E-02  0.1130116E+00
         25   -1    0    0    0    0  0.00000000000E+00  0.00000000000E+00  0.99999998245E-14  0.12500000000E+03  0.12500000000E+03 0.  0.
        -13    1    3    3    0    0 -0.11474361557E+02  0.30140194084E+02 -0.16485388364E+02  0.36219766234E+02  0.10566000000E+00 0.  1.
         23    2    1    0    0    0  0.54965685321E+01 -0.15199891759E+02  0.21744207642E+02  0.97906466803E+02  0.94083030887E+02 0.  0.
         13    1    3    3    0    0  0.16970930089E+02 -0.45340085843E+02  0.38229596005E+02  0.61686700569E+02  0.10566000000E+00 0. -1.
         22    1    1    0    0    0 -0.54965685321E+01  0.15199891759E+02 -0.21744207642E+02  0.27093533197E+02  0.00000000000E+00 0. -1.
</event>
<event>
 5    1  0.1764311E-003  0.9118800E+02  0.7818608E-02  0.1130116E+00
         25   -1    0    0    0    0  0.00000000000E+00  0.00000000000E+00  0.99999998245E-14  0.12500000000E+03  0.12500000000E+03 0.  0.
        -13    1    3    3    0    0 -0.58049169777E+01  0.53487399294E+02 -0.23320960731E+02  0.58638531000E+02  0.10566000000E+00 0.  1.
         23    2    1    0    0    0  0.29787559765E+01  0.28306861615E+02  0.33317369916E+01  0.96342507558E+02  0.91981666051E+02 0.  0.
         13    1    3    3    0    0  0.87836729542E+01 -0.25180537679E+02  0.26652697723E+02  0.37703976558E+02  0.10566000000E+00 0. -1.
         22    1    1    0    0    0 -0.29787559765E+01 -0.28306861615E+02 -0.33317369916E+01  0.28657492442E+02  0.00000000000E+00 0.  1.
</event>
<event>
 5    1  0.1764311E-003  0.9118800E+02  0.7818608E-02  0.1130116E+00
         25   -1    0    0    0    0  0.00000000000E+00  0.00000000000E+00  0.99999998245E-14  0.12500000000E+03  0.12500000000E+03 0.  0.
        -13    1    3    3    0    0  0.24314359675E+01  0.36484793302E+02  0.43423411375E+02  0.56768440552E+02  0.10566000000E+00 0.  1.
         23    2    1    0    0    0  0.13137084119E+02  0.25932795294E+02  0.86215905894E+01  0.94677983655E+02  0.89691113907E+02 0.  0.
         13    1    3    3    0    0  0.10705648151E+02 -0.10551998008E+02 -0.34801820786E+02  0.37909543104E+02  0.10566000000E+00 0. -1.
         22    1    1    0    0    0 -0.13137084119E+02 -0.25932795294E+02 -0.86215905894E+01  0.30322016345E+02  0.00000000000E+00 0.  1.
</event>
<event>
 5    1  0.1764311E-003  0.9118800E+02  0.7818608E-02  0.1130116E+00
         25   -1    0    0    0    0  0.00000000000E+00  0.00000000000E+00  0.99999998245E-14  0.12500000000E+03  0.12500000000E+03 0.  0.
        -13    1    3    3    0    0  0.27161437251E+02  0.20777906959E+02  0.35300977692E+02  0.49149112720E+02  0.10566000000E+00 0. -1.
         23    2    1    0    0    0  0.23822216437E+02 -0.14040250509E+02  0.22755903448E+01  0.97254641078E+02  0.93212983374E+02 0.  0.
         13    1    3    3    0    0 -0.33392208143E+01 -0.34818157468E+02 -0.33025387347E+02  0.48105528358E+02  0.10566000000E+00 0.  1.
         22    1    1    0    0    0 -0.23822216437E+02  0.14040250509E+02 -0.22755903448E+01  0.27745358922E+02  0.00000000000E+00 0. -1.
</event>
<event>
 5    1  0.1764311E-003  0.9118800E+02  0.7818608E-02  0.1130116E+00
         25   -1    0    0    0    0  0.00000000000E+00  0.00000000000E+00  0.99999998245E-14  0.12500000000E+03  0.12500000000E+03 0.  0.
        -13    1    3    3    0    0  0.25050795019E+02 -0.40508551197E+02 -0.15667462148E+02  0.50139461359E+02  0.10566000000E+00 0. -1.
         23    2    1    0    0    0  0.26475565225E+02 -0.63528095909E+01  0.13069170799E+02  0.94798725705E+02  0.89859231169E+02 0.  0.
         13    1    3    3    0    0  0.14247702058E+01  0.34155741606E+02  0.28736632947E+02  0.44659264346E+02  0.10566000000E+00 0.  1.
         22    1    1    0    0    0 -0.26475565225E+02  0.63528095909E+01 -0.13069170799E+02  0.30201274295E+02  0.00000000000E+00 0.  1.
</event>
<event>
 5    1  0.1764311E-003  0.9118800E+02  0.7818608E-02  0.1130116E+00
         25   -1    0    0    0    0  0.00000000000E+00  0.00000000000E+00  0.99999998245E-14  0.12500000000E+03  0.12500000000E+03 0.  0.
        -13    1    3    3    0    0  0.63981322620E+01 -0.39714723778E+02  0.42375985956E+01  0.40449521469E+02  0.10566000000E+00 0.  1.
         23    2    1    0    0    0 -0.65024583848E+01 -0.23187125007E+01 -0.30886544555E+02  0.93351350309E+02  0.87822762295E+02 0.  0.
         13    1    3    3    0    0 -0.12900590647E+02  0.37396011277E+02 -0.35124143151E+02  0.52901828840E+02  0.10566000000E+00 0. -1.
         22    1    1    0    0    0  0.65024583848E+01  0.23187125007E+01  0.30886544555E+02  0.31648649691E+02  0.00000000000E+00 0. -1.
</event>
<event>
 5    1  0.1764311E-003  0.9118800E+02  0.7818608E-02  0.1130116E+00
         25   -1    0    0    0    0  0.00000000000E+00  0.00000000000E+00  0.99999998245E-14  0.12500000000E+03  0.12500000000E+03 0.  0.
        -13    1    3    3    0    0  0.30107150812E+01  0.87428285950E+01  0.39825022887E+02  0.40884533373E+02  0.10566000000E+00 0. -1.
         23    2    1    0    0    0  0.22326490467E+02  0.16929761344E+02 -0.10240400186E+02  0.95167889922E+02  0.90371303412E+02 0.  0.
         13    1    3    3    0    0  0.19315775386E+02  0.81869327488E+01 -0.50065423073E+02  0.54283356548E+02  0.10566000000E+00 0.  1.
         22    1    1    0    0    0 -0.22326490467E+02 -0.16929761344E+02  0.10240400186E+02  0.29832110078E+02  0.00000000000E+00 0.  1.
</event>
<event>
 5    1  0.1764311E-003  0.9118800E+02  0.7818608E-02  0.1130116E+00
         25   -1    0    0    0    0  0.00000000000E+00  0.00000000000E+00  0.99999998245E-14  0.12500000000E+03  0.12500000000E+03 0.  0.
        -13    1    3    3    0    0  0.80792750977E+01  0.34111594994E+02  0.11278892087E+02  0.36825265374E+02  0.10566000000E+00 0. -1.
         23    2    1    0    0    0 -0.85405870179E+01 -0.20889105670E+02  0.19883000835E+02  0.94922930919E+02  0.90031842865E+02 0.  0.
         13    1    3    3    0    0 -0.16619862116E+02 -0.55000700664E+02  0.86041087478E+01  0.58097665544E+02  0.10566000000E+00 0.  1.
         22    1    1    0    0    0  0.85405870179E+01  0.20889105670E+02 -0.19883000835E+02  0.30077069081E+02  0.00000000000E+00 0.  1.
</event>
<event>
 5    1  0.1764311E-003  0.9118800E+02  0.7818608E-02  0.1130116E+00
         25   -1    0    0    0    0  0.00000000000E+00  0.00000000000E+00  0.99999998245E-14  0.12500000000E+03  0.12500000000E+03 0.  0.
        -13    1    3    3    0    0 -0.61294904546E+01  0.18339416303E+02 -0.84351059369E+01  0.21096611571E+02  0.10566000000E+00 0.  1.
         23    2    1    0    0    0 -0.11838357027E+02  0.94309663473E+01  0.46012054601E+02  0.76562421696E+02  0.59292541049E+02 0.  0.
         13    1    3    3    0    0 -0.57088665728E+01 -0.89084499558E+01  0.54447160538E+02  0.55465810125E+02  0.10566000000E+00 0. -1.
         22    1    1    0    0    0  0.11838357027E+02 -0.94309663473E+01 -0.46012054601E+02  0.48437578304E+02  0.00000000000E+00 0. -1.
</event>
<event>
 5    1  0.1764311E-003  0.9118800E+02  0.7818608E-02  0.1130116E+00
         25   -1    0    0    0    0  0.00000000000E+00  0.00000000000E+00  0.99999998245E-14  0.12500000000E+03  0.12500000000E+03 0.  0.
        -13    1    3    3    0    0 -0.19289791779E+02  0.27294631787E+02 -0.40391029661E+01  0.33666281471E+02  0.10566000000E+00 0.  1.
         23    2    1    0    0    0  0.29457837065E+01 -0.29551732047E+02  0.31793903896E+01  0.95132107006E+02  0.90321795551E+02 0.  0.
         13    1    3    3    0    0  0.22235575485E+02 -0.56846363835E+02  0.72184933557E+01  0.61465825535E+02  0.10566000000E+00 0. -1.
         22    1    1    0    0    0 -0.29457837065E+01  0.29551732047E+02 -0.31793903896E+01  0.29867892994E+02  0.00000000000E+00 0. -1.
</event>
<event>
 5    1  0.1764311E-003  0.9118800E+02  0.7818608E-02  0.1130116E+00
         25   -1    0    0    0    0  0.00000000000E+00  0.00000000000E+00  0.99999998245E-14  0.12500000000E+03  0.12500000000E+03 0.  0.
        -13    1    3    3    0    0  0.27058265828E+01  0.13755374753E+02  0.25793351176E+02  0.29357110910E+02  0.10566000000E+00 0. -1.
         23    2    1    0    0    0 -0.34318642123E+02  0.24010229474E+02 -0.10079994902E+02  0.81920229645E+02  0.69678242023E+02 0.  0.
         13    1    3    3    0    0 -0.37024468706E+02  0.10254854721E+02 -0.35873346078E+02  0.52563118735E+02  0.10566000000E+00 0.  1.
         22    1    1    0    0    0  0.34318642123E+02 -0.24010229474E+02  0.10079994902E+02  0.43079770355E+02  0.00000000000E+00 0.  1.
</event>
<event>
 5    1  0.1764311E-003  0.9118800E+02  0.7818608E-02  0.1130116E+00
         25   -1    0    0    0    0  0.00000000000E+00  0.00000000000E+00  0.99999998245E-14  0.12500000000E+03  0.12500000000E+03 0.  0.
        -13    1    3    3    0    0  0.18797135335E+02  0.29235314551E+02 -0.41570555916E+02  0.54186328506E+02  0.10566000000E+00 0. -1.
         23    2    1    0    0    0 -0.93908966494E+01  0.47777330467E+01 -0.29915076143E+02  0.93283640600E+02  0.87726336695E+02 0.  0.
         13    1    3    3    0    0 -0.28188031985E+02 -0.24457581504E+02  0.11655479773E+02  0.39097312094E+02  0.10566000000E+00 0.  1.
         22    1    1    0    0    0  0.93908966494E+01 -0.47777330467E+01  0.29915076143E+02  0.31716359400E+02  0.00000000000E+00 0. -1.
</event>
<event>
 5    1  0.1764311E-003  0.9118800E+02  0.7818608E-02  0.1130116E+00
         25   -1    0    0    0    0  0.00000000000E+00  0.00000000000E+00  0.99999998245E-14  0.12500000000E+03  0.12500000000E+03 0.  0.
        -13    1    3    3    0    0 -0.15536463877E+02  0.21468094670E+00 -0.34177959564E+02  0.37544265630E+02  0.10566000000E+00 0.  1.
         23    2    1    0    0    0  0.12281427455E+02  0.20491102691E+02  0.14417612815E+02  0.97096840518E+02  0.93001129721E+02 0.  0.
         13    1    3    3    0    0  0.27817891332E+02  0.20276421744E+02  0.48595572379E+02  0.59552574888E+02  0.10566000000E+00 0. -1.
         22    1    1    0    0    0 -0.12281427455E+02 -0.20491102691E+02 -0.14417612815E+02  0.27903159482E+02  0.00000000000E+00 0. -1.
</event>
<event>
 5    1  0.1764311E-003  0.9118800E+02  0.7818608E-02  0.1130116E+00
         25   -1    0    0    0    0  0.00000000000E+00  0.00000000000E+00  0.99999998245E-14  0.12500000000E+03  0.12500000000E+03 0.  0.
        -13    1    3    3    0    0  0.50496704233E+02  0.87612508067E+01 -0.14468246605E+02  0.53254276617E+02  0.10566000000E+00 0.  1.
         23    2    1    0    0    0  0.14603533579E+02 -0.12423371926E+02 -0.22224010350E+02  0.95648509424E+02  0.91033660565E+02 0.  0.
         13    1    3    3    0    0 -0.35893170654E+02 -0.21184622733E+02 -0.77557637451E+01  0.42394232807E+02  0.10566000000E+00 0. -1.
         22    1    1    0    0    0 -0.14603533579E+02  0.12423371926E+02  0.22224010350E+02  0.29351490576E+02  0.00000000000E+00 0.  1.
</event>
<event>
 5    1  0.1764311E-003  0.9118800E+02  0.7818608E-02  0.1130116E+00
         25   -1    0    0    0    0  0.00000000000E+00  0.00000000000E+00  0.99999998245E-14  0.12500000000E+03  0.12500000000E+03 0.  0.
        -13    1    3    3    0    0 -0.16892976854E+02  0.20440873627E+02  0.18114142671E+01  0.26579961763E+02  0.10566000000E+00 0.  1.
         23    2    1    0    0    0  0.32003150500E+02 -0.17211555713E+02 -0.33454384900E+01  0.88508477003E+02  0.80635719446E+02 0.  0.
         13    1    3    3    0    0  0.48896127354E+02 -0.37652429340E+02 -0.51568527570E+01  0.61928515240E+02  0.10566000000E+00 0. -1.
         22    1    1    0    0    0 -0.32003150500E+02  0.17211555713E+02  0.33454384900E+01  0.36491522997E+02  0.00000000000E+00 0. -1.
</event>
<event>
 5    1  0.1764311E-003  0.9118800E+02  0.7818608E-02  0.1130116E+00
         25   -1    0    0    0    0  0.00000000000E+00  0.00000000000E+00  0.99999998245E-14  0.12500000000E+03  0.12500000000E+03 0.  0.
        -13    1    3    3    0    0  0.49653855275E+02 -0.15721427659E+02 -0.28445549986E+01  0.52161013109E+02  0.10566000000E+00 0.  1.
         23    2    1    0    0    0  0.28253602209E+02 -0.14507532209E+02 -0.26175102075E+02  0.83843342006E+02  0.73046803500E+02 0.  0.
         13    1    3    3    0    0 -0.21400253066E+02  0.12138954501E+01 -0.23330547076E+02  0.31682328897E+02  0.10566000000E+00 0. -1.
         22    1    1    0    0    0 -0.28253602209E+02  0.14507532209E+02  0.26175102075E+02  0.41156657994E+02  0.00000000000E+00 0.  1.
</event>
<event>
 5    1  0.1764311E-003  0.9118800E+02  0.7818608E-02  0.1130116E+00
         25   -1    0    0    0    0  0.00000000000E+00  0.00000000000E+00  0.99999998245E-14  0.12500000000E+03  0.12500000000E+03 0.  0.
        -13    1    3    3    0    0  0.30670174084E+02  0.30399518748E+02 -0.14749501045E+02  0.45632765242E+02  0.10566000000E+00 0. -1.
         23    2    1    0    0    0  0.28084862149E+02  0.57513566652E+01  0.21233629863E+02  0.89325014049E+02  0.81891718216E+02 0.  0.
         13    1    3    3    0    0 -0.25853119353E+01 -0.24648162083E+02  0.35983130908E+02  0.43692248808E+02  0.10566000000E+00 0.  1.
         22    1    1    0    0    0 -0.28084862149E+02 -0.57513566652E+01 -0.21233629863E+02  0.35674985951E+02  0.00000000000E+00 0.  1.
</event>
<event>
 5    1  0.1764311E-003  0.9118800E+02  0.7818608E-02  0.1130116E+00
         25   -1    0    0    0    0  0.00000000000E+00  0.00000000000E+00  0.99999998245E-14  0.12500000000E+03  0.12500000000E+03 0.  0.
        -13    1    3    3    0    0 -0.26699315766E+01  0.37186112355E+02  0.14439566244E+02  0.39980591843E+02  0.10566000000E+00 0. -1.
         23    2    1    0    0    0 -0.25200740908E+02  0.89002083565E+01 -0.21300158142E+02  0.90824163683E+02  0.84148921090E+02 0.  0.
         13    1    3    3    0    0 -0.22530809331E+02 -0.28285903999E+02 -0.35739724387E+02  0.50843571840E+02  0.10566000000E+00 0.  1.
         22    1    1    0    0    0  0.25200740908E+02 -0.89002083565E+01  0.21300158142E+02  0.34175836317E+02  0.00000000000E+00 0.  1.
</event>
<event>
 5    1  0.1764311E-003  0.9118800E+02  0.7818608E-02  0.1130116E+00
         25   -1    0    0    0    0  0.00000000000E+00  0.00000000000E+00  0.99999998245E-14  0.12500000000E+03  0.12500000000E+03 0.  0.
        -13    1    3    3    0    0 -0.79266051129E+01 -0.18409100125E+02  0.33312054714E+02  0.38877116526E+02  0.10566000000E+00 0.  1.
         23    2    1    0    0    0  0.26761135264E+02  0.11901746474E+02  0.23011029123E-01  0.95711598554E+02  0.91120248236E+02 0.  0.
         13    1    3    3    0    0  0.34687740377E+02  0.30310846599E+02 -0.33289043685E+02  0.56834482029E+02  0.10566000000E+00 0. -1.
         22    1    1    0    0    0 -0.26761135264E+02 -0.11901746474E+02 -0.23011029123E-01  0.29288401446E+02  0.00000000000E+00 0. -1.
</event>
<event>
 5    1  0.1764311E-003  0.9118800E+02  0.7818608E-02  0.1130116E+00
         25   -1    0    0    0    0  0.00000000000E+00  0.00000000000E+00  0.99999998245E-14  0.12500000000E+03  0.12500000000E+03 0.  0.
        -13    1    3    3    0    0 -0.35371144890E+01 -0.57705541619E+02 -0.12598894391E+02  0.59170803749E+02  0.10566000000E+00 0.  1.
         23    2    1    0    0    0  0.12135270470E+02 -0.26121267347E+02 -0.99421888125E+01  0.94529809394E+02  0.89484369297E+02 0.  0.
         13    1    3    3    0    0  0.15672384959E+02  0.31584274272E+02  0.26567055789E+01  0.35359005645E+02  0.10566000000E+00 0. -1.
         22    1    1    0    0    0 -0.12135270470E+02  0.26121267347E+02  0.99421888125E+01  0.30470190606E+02  0.00000000000E+00 0.  1.
</event>
<event>
 5    1  0.1764311E-003  0.9118800E+02  0.7818608E-02  0.1130116E+00
         25   -1    0    0    0    0  0.00000000000E+00  0.00000000000E+00  0.99999998245E-14  0.12500000000E+03  0.12500000000E+03 0.  0.
        -13    1    3    3    0    0 -0.11942977150E+02  0.39283403385E+02  0.11606755239E+02  0.42667885065E+02  0.10566000000E+00 0.  1.
         23    2    1    0    0    0 -0.10410986052E+02 -0.14634907059E+02  0.20943493996E+02  0.97410163538E+02  0.93421308515E+02 0.  0.
         13    1    3    3    0    0  0.15319910980E+01 -0.53918310444E+02  0.93367387576E+01  0.54742278474E+02  0.10566000000E+00 0. -1.
         22    1    1    0    0    0  0.10410986052E+02  0.14634907059E+02 -0.20943493996E+02  0.27589836462E+02  0.00000000000E+00 0. -1.
</event>
<event>
 5    1  0.1764311E-003  0.9118800E+02  0.7818608E-02  0.1130116E+00
         25   -1    0    0    0    0  0.00000000000E+00  0.00000000000E+00  0.99999998245E-14  0.12500000000E+03  0.12500000000E+03 0.  0.
        -13    1    3    3    0    0  0.14119841823E+02 -0.21420878511E+02  0.33768485809E+02  0.42409265110E+02  0.10566000000E+00 0.  1.
         23    2    1    0    0    0 -0.42351177537E+01 -0.34087034282E+02 -0.79756740708E+01  0.89737080305E+02  0.82518301463E+02 0.  0.
         13    1    3    3    0    0 -0.18354959576E+02 -0.12666155771E+02 -0.41744159880E+02  0.47327815195E+02  0.10566000000E+00 0. -1.
         22    1    1    0    0    0  0.42351177537E+01  0.34087034282E+02  0.79756740708E+01  0.35262919695E+02  0.00000000000E+00 0.  1.
</event>
<event>
 5    1  0.1764311E-003  0.9118800E+02  0.7818608E-02  0.1130116E+00
         25   -1    0    0    0    0  0.00000000000E+00  0.00000000000E+00  0.99999998245E-14  0.12500000000E+03  0.12500000000E+03 0.  0.
        -13    1    3    3    0    0 -0.25434448620E+00 -0.59873620947E+02  0.57381196556E+01  0.60148585666E+02  0.10566000000E+00 0. -1.
         23    2    1    0    0    0 -0.18581923716E+01 -0.26598350094E+02 -0.93833371026E+01  0.96733905084E+02  0.92512033114E+02 0.  0.
         13    1    3    3    0    0 -0.16038478854E+01  0.33275270853E+02 -0.15121456758E+02  0.36585319418E+02  0.10566000000E+00 0.  1.
         22    1    1    0    0    0  0.18581923716E+01  0.26598350094E+02  0.93833371026E+01  0.28266094916E+02  0.00000000000E+00 0. -1.
</event>
<event>
 5    1  0.1764311E-003  0.9118800E+02  0.7818608E-02  0.1130116E+00
         25   -1    0    0    0    0  0.00000000000E+00  0.00000000000E+00  0.99999998245E-14  0.12500000000E+03  0.12500000000E+03 0.  0.
        -13    1    3    3    0    0 -0.87506777948E+01  0.10252457142E+02 -0.47904100088E+02  0.49764457282E+02  0.10566000000E+00 0.  1.
         23    2    1    0    0    0  0.22514209922E+02 -0.51838758087E+01 -0.17692591681E+02  0.95900343349E+02  0.91378804092E+02 0.  0.
         13    1    3    3    0    0  0.31264887717E+02 -0.15436332951E+02  0.30211508407E+02  0.46135886067E+02  0.10566000000E+00 0. -1.
         22    1    1    0    0    0 -0.22514209922E+02  0.51838758087E+01  0.17692591681E+02  0.29099656651E+02  0.00000000000E+00 0.  1.
</event>
<event>
 5    1  0.1764311E-003  0.9118800E+02  0.7818608E-02  0.1130116E+00
         25   -1    0    0    0    0  0.00000000000E+00  0.00000000000E+00  0.99999998245E-14  0.12500000000E+03  0.12500000000E+03 0.  0.
        -13    1    3    3    0    0 -0.11409366166E+01  0.19414177922E+01 -0.23663412285E+02  0.23770550780E+02  0.10566000000E+00 0. -1.
         23    2    1    0    0    0 -0.46838297358E+01 -0.25851788757E+02  0.30495639406E+02  0.84747829056E+02  0.74578530852E+02 0.  0.
         13    1    3    3    0    0 -0.35428931192E+01 -0.27793206549E+02  0.54159051690E+02  0.60977278276E+02  0.10566000000E+00 0.  1.
         22    1    1    0    0    0  0.46838297358E+01  0.25851788757E+02 -0.30495639406E+02  0.40252170944E+02  0.00000000000E+00 0.  1.
</event>
<event>
 5    1  0.1764311E-003  0.9118800E+02  0.7818608E-02  0.1130116E+00
         25   -1    0    0    0    0  0.00000000000E+00  0.00000000000E+00  0.99999998245E-14  0.12500000000E+03  0.12500000000E+03 0.  0.
        -13    1    3    3    0    0  0.18367964999E+01  0.22100091113E+02 -0.26347635195E+02  0.34438305606E+02  0.10566000000E+00 0.  1.
         23    2    1    0    0    0 -0.67549757481E+01 -0.24172128532E+02  0.13851922116E+02  0.96332993853E+02  0.91968736336E+02 0.  0.
         13    1    3    3    0    0 -0.85917722481E+01 -0.46272219645E+02  0.40199557311E+02  0.61894688247E+02  0.10566000000E+00 0. -1.
         22    1    1    0    0    0  0.67549757481E+01  0.24172128532E+02 -0.13851922116E+02  0.28667006147E+02  0.00000000000E+00 0. -1.
</event>
<event>
 5    1  0.1764311E-003  0.9118800E+02  0.7818608E-02  0.1130116E+00
         25   -1    0    0    0    0  0.00000000000E+00  0.00000000000E+00  0.99999998245E-14  0.12500000000E+03  0.12500000000E+03 0.  0.
        -13    1    3    3    0    0 -0.21187018480E+02 -0.10723778393E+02  0.25530097051E+02  0.34866691764E+02  0.10566000000E+00 0.  1.
         23    2    1    0    0    0  0.28811799734E+02  0.18690420553E+01 -0.62832713302E+01  0.95451859268E+02  0.90763234941E+02 0.  0.
         13    1    3    3    0    0  0.49998818214E+02  0.12592820448E+02 -0.31813368382E+02  0.60585167504E+02  0.10566000000E+00 0. -1.
         22    1    1    0    0    0 -0.28811799734E+02 -0.18690420553E+01  0.62832713302E+01  0.29548140732E+02  0.00000000000E+00 0. -1.
</event>
<event>
 5    1  0.1764311E-003  0.9118800E+02  0.7818608E-02  0.1130116E+00
         25   -1    0    0    0    0  0.00000000000E+00  0.00000000000E+00  0.99999998245E-14  0.12500000000E+03  0.12500000000E+03 0.  0.
        -13    1    3    3    0    0 -0.28650630940E+02 -0.30051545130E+02 -0.19986617980E+02  0.46080690970E+02  0.10566000000E+00 0. -1.
         23    2    1    0    0    0  0.10461254653E+02  0.15649789751E+01 -0.26190064666E+02  0.96754531420E+02  0.92539898719E+02 0.  0.
         13    1    3    3    0    0  0.39111885593E+02  0.31616524105E+02 -0.62034466857E+01  0.50673840450E+02  0.10566000000E+00 0.  1.
         22    1    1    0    0    0 -0.10461254653E+02 -0.15649789751E+01  0.26190064666E+02  0.28245468580E+02  0.00000000000E+00 0.  1.
</event>
<event>
 5    1  0.1764311E-003  0.9118800E+02  0.7818608E-02  0.1130116E+00
         25   -1    0    0    0    0  0.00000000000E+00  0.00000000000E+00  0.99999998245E-14  0.12500000000E+03  0.12500000000E+03 0.  0.
        -13    1    3    3    0    0 -0.12645333223E+02 -0.34041363101E+02  0.22886768604E+02  0.42924750381E+02  0.10566000000E+00 0. -1.
         23    2    1    0    0    0 -0.95601908370E+01  0.19979095909E+02  0.16441518110E+02  0.97415855280E+02  0.93428923894E+02 0.  0.
         13    1    3    3    0    0  0.30851423865E+01  0.54020459010E+02 -0.64452504940E+01  0.54491104899E+02  0.10566000000E+00 0.  1.
         22    1    1    0    0    0  0.95601908370E+01 -0.19979095909E+02 -0.16441518110E+02  0.27584144720E+02  0.00000000000E+00 0.  1.
</event>
<event>
 5    1  0.1764311E-003  0.9118800E+02  0.7818608E-02  0.1130116E+00
         25   -1    0    0    0    0  0.00000000000E+00  0.00000000000E+00  0.99999998245E-14  0.12500000000E+03  0.12500000000E+03 0.  0.
        -13    1    3    3    0    0 -0.41001338132E+02  0.20939678562E+02 -0.26764605712E+02  0.53253498945E+02  0.10566000000E+00 0.  1.
         23    2    1    0    0    0 -0.91983425962E+01  0.26884644712E+02  0.19586309778E+01  0.96517902761E+02  0.92219714217E+02 0.  0.
         13    1    3    3    0    0  0.31802995536E+02  0.59449661507E+01  0.28723236690E+02  0.43264403816E+02  0.10566000000E+00 0. -1.
         22    1    1    0    0    0  0.91983425962E+01 -0.26884644712E+02 -0.19586309778E+01  0.28482097239E+02  0.00000000000E+00 0.  1.
</event>
<event>
 5    1  0.1764311E-003  0.9118800E+02  0.7818608E-02  0.1130116E+00
         25   -1    0    0    0    0  0.00000000000E+00  0.00000000000E+00  0.99999998245E-14  0.12500000000E+03  0.12500000000E+03 0.  0.
        -13    1    3    3    0    0 -0.30790825026E+02  0.51743370860E+02  0.11625348276E+01  0.60223035336E+02  0.10566000000E+00 0. -1.
         23    2    1    0    0    0 -0.84422426616E+01  0.28740980665E+02  0.98788141333E+01  0.93457863112E+02  0.87974233603E+02 0.  0.
         13    1    3    3    0    0  0.22348582365E+02 -0.23002390195E+02  0.87162793057E+01  0.33234827777E+02  0.10566000000E+00 0.  1.
         22    1    1    0    0    0  0.84422426616E+01 -0.28740980665E+02 -0.98788141333E+01  0.31542136888E+02  0.00000000000E+00 0. -1.
</event>
<event>
 5    1  0.1764311E-003  0.9118800E+02  0.7818608E-02  0.1130116E+00
         25   -1    0    0    0    0  0.00000000000E+00  0.00000000000E+00  0.99999998245E-14  0.12500000000E+03  0.12500000000E+03 0.  0.
        -13    1    3    3    0    0 -0.14288927256E+02  0.38575885562E+02 -0.19737351733E+01  0.41184695988E+02  0.10566000000E+00 0.  1.
         23    2    1    0    0    0 -0.23870196524E+01 -0.29054564143E+01  0.29918887564E+02  0.94845740386E+02  0.89924607847E+02 0.  0.
         13    1    3    3    0    0  0.11901907603E+02 -0.41481341977E+02  0.31892622737E+02  0.53661044398E+02  0.10566000000E+00 0. -1.
         22    1    1    0    0    0  0.23870196524E+01  0.29054564143E+01 -0.29918887564E+02  0.30154259614E+02  0.00000000000E+00 0. -1.
</event>
<event>
 5    1  0.1764311E-003  0.9118800E+02  0.7818608E-02  0.1130116E+00
         25   -1    0    0    0    0  0.00000000000E+00  0.00000000000E+00  0.99999998245E-14  0.12500000000E+03  0.12500000000E+03 0.  0.
        -13    1    3    3    0    0  0.24602063887E+02 -0.17256918834E+02  0.20891849656E+02  0.36599772421E+02  0.10566000000E+00 0.  1.
         23    2    1    0    0    0 -0.16058709678E+02  0.23071752555E+02  0.23665987319E+01  0.96790272741E+02  0.92588164390E+02 0.  0.
         13    1    3    3    0    0 -0.40660773565E+02  0.40328671390E+02 -0.18525250924E+02  0.60190500320E+02  0.10566000000E+00 0. -1.
         22    1    1    0    0    0  0.16058709678E+02 -0.23071752555E+02 -0.23665987319E+01  0.28209727259E+02  0.00000000000E+00 0. -1.
</event>
<event>
 5    1  0.1764311E-003  0.9118800E+02  0.7818608E-02  0.1130116E+00
         25   -1    0    0    0    0  0.00000000000E+00  0.00000000000E+00  0.99999998245E-14  0.12500000000E+03  0.12500000000E+03 0.  0.
        -13    1    3    3    0    0  0.20646156744E+02 -0.12787932906E+02 -0.21282032820E+02  0.32291347158E+02  0.10566000000E+00 0.  1.
         23    2    1    0    0    0 -0.19200940467E+02  0.14550605754E+02  0.18291506639E+02  0.94751438749E+02  0.89793427862E+02 0.  0.
         13    1    3    3    0    0 -0.39847097211E+02  0.27338538659E+02  0.39573539459E+02  0.62460091591E+02  0.10566000000E+00 0. -1.
         22    1    1    0    0    0  0.19200940467E+02 -0.14550605754E+02 -0.18291506639E+02  0.30248561251E+02  0.00000000000E+00 0. -1.
</event>
<event>
 5    1  0.1764311E-003  0.9118800E+02  0.7818608E-02  0.1130116E+00
         25   -1    0    0    0    0  0.00000000000E+00  0.00000000000E+00  0.99999998245E-14  0.12500000000E+03  0.12500000000E+03 0.  0.
        -13    1    3    3    0    0  0.17755688734E+02  0.73033610531E+01 -0.35918049197E+02  0.40727398484E+02  0.10566000000E+00 0.  1.
         23    2    1    0    0    0 -0.25322306675E+02  0.26541492528E+01  0.34954941127E+01  0.99300151699E+02  0.95916828162E+02 0.  0.
         13    1    3    3    0    0 -0.43077995409E+02 -0.46492118003E+01  0.39413543310E+02  0.58572753215E+02  0.10566000000E+00 0. -1.
         22    1    1    0    0    0  0.25322306675E+02 -0.26541492528E+01 -0.34954941127E+01  0.25699848301E+02  0.00000000000E+00 0. -1.
</event>
<event>
 5    1  0.1764311E-003  0.9118800E+02  0.7818608E-02  0.1130116E+00
         25   -1    0    0    0    0  0.00000000000E+00  0.00000000000E+00  0.99999998245E-14  0.12500000000E+03  0.12500000000E+03 0.  0.
        -13    1    3    3    0    0  0.75587094484E+01 -0.25088193762E+02  0.49068272266E+02  0.55626055603E+02  0.10566000000E+00 0. -1.
         23    2    1    0    0    0 -0.84925110189E+00 -0.31394444741E+01  0.45481387336E+02  0.79402478871E+02  0.65004766886E+02 0.  0.
         13    1    3    3    0    0 -0.84079605503E+01  0.21948749288E+02 -0.35868849293E+01  0.23776423269E+02  0.10566000000E+00 0.  1.
         22    1    1    0    0    0  0.84925110189E+00  0.31394444741E+01 -0.45481387336E+02  0.45597521129E+02  0.00000000000E+00 0. -1.
</event>
<event>
 5    1  0.1764311E-003  0.9118800E+02  0.7818608E-02  0.1130116E+00
         25   -1    0    0    0    0  0.00000000000E+00  0.00000000000E+00  0.99999998245E-14  0.12500000000E+03  0.12500000000E+03 0.  0.
        -13    1    3    3    0    0 -0.28795042714E+02 -0.23062430427E+02 -0.71115755681E+01  0.37571476591E+02  0.10566000000E+00 0. -1.
         23    2    1    0    0    0  0.19009862731E+02 -0.77803576302E+01  0.21436546223E+02  0.95311039764E+02  0.90569089325E+02 0.  0.
         13    1    3    3    0    0  0.47804905446E+02  0.15282072797E+02  0.28548121791E+02  0.57739563173E+02  0.10566000000E+00 0.  1.
         22    1    1    0    0    0 -0.19009862731E+02  0.77803576302E+01 -0.21436546223E+02  0.29688960236E+02  0.00000000000E+00 0.  1.
</event>
<event>
 5    1  0.1764311E-003  0.9118800E+02  0.7818608E-02  0.1130116E+00
         25   -1    0    0    0    0  0.00000000000E+00  0.00000000000E+00  0.99999998245E-14  0.12500000000E+03  0.12500000000E+03 0.  0.
        -13    1    3    3    0    0  0.23319189622E+02  0.20523534523E+02  0.76149240350E+01  0.31984344702E+02  0.10566000000E+00 0.  1.
         23    2    1    0    0    0 -0.82045163367E+01 -0.29714180241E+02 -0.76752270669E+01  0.93232788819E+02  0.87653848773E+02 0.  0.
         13    1    3    3    0    0 -0.31523705958E+02 -0.50237714764E+02 -0.15290151102E+02  0.61248444117E+02  0.10566000000E+00 0. -1.
         22    1    1    0    0    0  0.82045163367E+01  0.29714180241E+02  0.76752270669E+01  0.31767211181E+02  0.00000000000E+00 0. -1.
</event>
<event>
 5    1  0.1764311E-003  0.9118800E+02  0.7818608E-02  0.1130116E+00
         25   -1    0    0    0    0  0.00000000000E+00  0.00000000000E+00  0.99999998245E-14  0.12500000000E+03  0.12500000000E+03 0.  0.
        -13    1    3    3    0    0 -0.12731191732E+02 -0.11476349453E+02  0.37917069028E+02  0.41611358154E+02  0.10566000000E+00 0. -1.
         23    2    1    0    0    0  0.16628210610E+02 -0.13709193657E+02 -0.12565594832E+02  0.10005338596E+03  0.96893480115E+02 0.  0.
         13    1    3    3    0    0  0.29359402343E+02 -0.22328442039E+01 -0.50482663860E+02  0.58442027801E+02  0.10566000000E+00 0.  1.
         22    1    1    0    0    0 -0.16628210610E+02  0.13709193657E+02  0.12565594832E+02  0.24946614045E+02  0.00000000000E+00 0.  1.
</event>
<event>
 5    1  0.1764311E-003  0.9118800E+02  0.7818608E-02  0.1130116E+00
         25   -1    0    0    0    0  0.00000000000E+00  0.00000000000E+00  0.99999998245E-14  0.12500000000E+03  0.12500000000E+03 0.  0.
        -13    1    3    3    0    0 -0.45259640334E+02 -0.29690310118E+02 -0.15988222009E+02  0.56440977713E+02  0.10566000000E+00 0.  1.
         23    2    1    0    0    0 -0.11412068603E+02 -0.26274549314E+02  0.42730818775E+01  0.96037153452E+02  0.91565759773E+02 0.  0.
         13    1    3    3    0    0  0.33847571731E+02  0.34157608044E+01  0.20261303886E+02  0.39596175739E+02  0.10566000000E+00 0. -1.
         22    1    1    0    0    0  0.11412068603E+02  0.26274549314E+02 -0.42730818775E+01  0.28962846548E+02  0.00000000000E+00 0.  1.
</event>
<event>
 5    1  0.1764311E-003  0.9118800E+02  0.7818608E-02  0.1130116E+00
         25   -1    0    0    0    0  0.00000000000E+00  0.00000000000E+00  0.99999998245E-14  0.12500000000E+03  0.12500000000E+03 0.  0.
        -13    1    3    3    0    0  0.14257605354E+02 -0.27358144097E+02  0.14966257055E+02  0.34289172827E+02  0.10566000000E+00 0. -1.
         23    2    1    0    0    0  0.46269800484E+01  0.29975246100E+02 -0.12462627678E+01  0.94644152227E+02  0.89643951590E+02 0.  0.
         13    1    3    3    0    0 -0.96306253059E+01  0.57333390197E+02 -0.16212519823E+02  0.60354979400E+02  0.10566000000E+00 0.  1.
         22    1    1    0    0    0 -0.46269800484E+01 -0.29975246100E+02  0.12462627678E+01  0.30355847773E+02  0.00000000000E+00 0.  1.
</event>
<event>
 5    1  0.1764311E-003  0.9118800E+02  0.7818608E-02  0.1130116E+00
         25   -1    0    0    0    0  0.00000000000E+00  0.00000000000E+00  0.99999998245E-14  0.12500000000E+03  0.12500000000E+03 0.  0.
        -13    1    3    3    0    0 -0.20822355782E+02  0.24927223064E+01  0.33473256614E+02  0.39500053635E+02  0.10566000000E+00 0.  1.
         23    2    1    0    0    0  0.23510252926E+01 -0.29660632862E+02 -0.51073638796E+01  0.94811167172E+02  0.89876536388E+02 0.  0.
         13    1    3    3    0    0  0.23173381075E+02 -0.32153355168E+02 -0.38580620493E+02  0.55311113537E+02  0.10566000000E+00 0. -1.
         22    1    1    0    0    0 -0.23510252926E+01  0.29660632862E+02  0.51073638796E+01  0.30188832828E+02  0.00000000000E+00 0. -1.
</event>
<event>
 5    1  0.1764311E-003  0.9118800E+02  0.7818608E-02  0.1130116E+00
         25   -1    0    0    0    0  0.00000000000E+00  0.00000000000E+00  0.99999998245E-14  0.12500000000E+03  0.12500000000E+03 0.  0.
        -13    1    3    3    0    0 -0.16060000990E+02  0.32598063666E+02 -0.37658580446E+00  0.36341579045E+02  0.10566000000E+00 0. -1.
         23    2    1    0    0    0 -0.15143132112E+02 -0.24036479743E+02 -0.11994363880E+02  0.94162821571E+02  0.88970250043E+02 0.  0.
         13    1    3    3    0    0  0.91686887853E+00 -0.56634543409E+02 -0.11617778075E+02  0.57821242525E+02  0.10566000000E+00 0.  1.
         22    1    1    0    0    0  0.15143132112E+02  0.24036479743E+02  0.11994363880E+02  0.30837178429E+02  0.00000000000E+00 0.  1.
</event>
<event>
 5    1  0.1764311E-003  0.9118800E+02  0.7818608E-02  0.1130116E+00
         25   -1    0    0    0    0  0.00000000000E+00  0.00000000000E+00  0.99999998245E-14  0.12500000000E+03  0.12500000000E+03 0.  0.
        -13    1    3    3    0    0  0.63207601218E+01  0.35002026145E+02 -0.11540754457E+02  0.37393769805E+02  0.10566000000E+00 0.  1.
         23    2    1    0    0    0 -0.27533828006E+00 -0.23642782562E+02 -0.15800708243E+02  0.96562008520E+02  0.92279478380E+02 0.  0.
         13    1    3    3    0    0 -0.65960984019E+01 -0.58644808707E+02 -0.42599537852E+01  0.59168238715E+02  0.10566000000E+00 0. -1.
         22    1    1    0    0    0  0.27533828006E+00  0.23642782562E+02  0.15800708243E+02  0.28437991480E+02  0.00000000000E+00 0. -1.
</event>
<event>
 5    1  0.1764311E-003  0.9118800E+02  0.7818608E-02  0.1130116E+00
         25   -1    0    0    0    0  0.00000000000E+00  0.00000000000E+00  0.99999998245E-14  0.12500000000E+03  0.12500000000E+03 0.  0.
        -13    1    3    3    0    0  0.71555765598E+01  0.18051600328E+01 -0.57643721825E+02  0.58114290055E+02  0.10566000000E+00 0. -1.
         23    2    1    0    0    0 -0.10034149283E+02  0.10376088434E+02 -0.29062734976E+02  0.92550193724E+02  0.86674958501E+02 0.  0.
         13    1    3    3    0    0 -0.17189725843E+02  0.85709284015E+01  0.28580986849E+02  0.34435903670E+02  0.10566000000E+00 0.  1.
         22    1    1    0    0    0  0.10034149283E+02 -0.10376088434E+02  0.29062734976E+02  0.32449806276E+02  0.00000000000E+00 0. -1.
</event>
<event>
 5    1  0.1764311E-003  0.9118800E+02  0.7818608E-02  0.1130116E+00
         25   -1    0    0    0    0  0.00000000000E+00  0.00000000000E+00  0.99999998245E-14  0.12500000000E+03  0.12500000000E+03 0.  0.
        -13    1    3    3    0    0  0.37227329637E+02 -0.15578327042E+02 -0.21977556911E+02  0.45951958796E+02  0.10566000000E+00 0.  1.
         23    2    1    0    0    0 -0.10679492748E+02 -0.22609305994E+02 -0.17292676903E+02  0.94598207991E+02  0.89579863796E+02 0.  0.
         13    1    3    3    0    0 -0.47906822385E+02 -0.70309789519E+01  0.46848800071E+01  0.48646249195E+02  0.10566000000E+00 0. -1.
         22    1    1    0    0    0  0.10679492748E+02  0.22609305994E+02  0.17292676903E+02  0.30401792009E+02  0.00000000000E+00 0. -1.
</event>
<event>
 5    1  0.1764311E-003  0.9118800E+02  0.7818608E-02  0.1130116E+00
         25   -1    0    0    0    0  0.00000000000E+00  0.00000000000E+00  0.99999998245E-14  0.12500000000E+03  0.12500000000E+03 0.  0.
        -13    1    3    3    0    0  0.16461879356E+02 -0.39892132519E+01 -0.28797494761E+02  0.33409791422E+02  0.10566000000E+00 0.  1.
         23    2    1    0    0    0 -0.19389025583E+01  0.14480583301E+02  0.26609081470E+02  0.94643948667E+02  0.89643667745E+02 0.  0.
         13    1    3    3    0    0 -0.18400781915E+02  0.18469796553E+02  0.55406576231E+02  0.61234157245E+02  0.10566000000E+00 0. -1.
         22    1    1    0    0    0  0.19389025583E+01 -0.14480583301E+02 -0.26609081470E+02  0.30356051333E+02  0.00000000000E+00 0. -1.
</event>
<event>
 5    1  0.1764311E-003  0.9118800E+02  0.7818608E-02  0.1130116E+00
         25   -1    0    0    0    0  0.00000000000E+00  0.00000000000E+00  0.99999998245E-14  0.12500000000E+03  0.12500000000E+03 0.  0.
        -13    1    3    3    0    0  0.26333372274E+02  0.13577870341E+02 -0.39446690399E+02  0.49334142394E+02  0.10566000000E+00 0.  1.
         23    2    1    0    0    0 -0.10337865159E+02  0.24191974439E+02 -0.14193410188E+02  0.95107258807E+02  0.90287400570E+02 0.  0.
         13    1    3    3    0    0 -0.36671237433E+02  0.10614104098E+02  0.25253280211E+02  0.45773116412E+02  0.10566000000E+00 0. -1.
         22    1    1    0    0    0  0.10337865159E+02 -0.24191974439E+02  0.14193410188E+02  0.29892741193E+02  0.00000000000E+00 0.  1.
</event>
<event>
 5    1  0.1764311E-003  0.9118800E+02  0.7818608E-02  0.1130116E+00
         25   -1    0    0    0    0  0.00000000000E+00  0.00000000000E+00  0.99999998245E-14  0.12500000000E+03  0.12500000000E+03 0.  0.
        -13    1    3    3    0    0  0.44588320586E+02  0.15256512647E+02 -0.33634404364E+02  0.57897874156E+02  0.10566000000E+00 0. -1.
         23    2    1    0    0    0  0.22149373281E+02 -0.99478663865E+01 -0.15265675764E+02  0.96319071861E+02  0.91949812208E+02 0.  0.
         13    1    3    3    0    0 -0.22438947305E+02 -0.25204379033E+02  0.18368728600E+02  0.38421197704E+02  0.10566000000E+00 0.  1.
         22    1    1    0    0    0 -0.22149373281E+02  0.99478663865E+01  0.15265675764E+02  0.28680928139E+02  0.00000000000E+00 0. -1.
</event>
<event>
 5    1  0.1764311E-003  0.9118800E+02  0.7818608E-02  0.1130116E+00
         25   -1    0    0    0    0  0.00000000000E+00  0.00000000000E+00  0.99999998245E-14  0.12500000000E+03  0.12500000000E+03 0.  0.
        -13    1    3    3    0    0 -0.30988376730E+02 -0.18348867141E+02  0.10307006981E+02  0.37459391007E+02  0.10566000000E+00 0.  1.
         23    2    1    0    0    0  0.86901007770E+01 -0.13122624615E+00 -0.28086187778E+02  0.95599846672E+02  0.90966816301E+02 0.  0.
         13    1    3    3    0    0  0.39678477507E+02  0.18217640895E+02 -0.38393194759E+02  0.58140455664E+02  0.10566000000E+00 0. -1.
         22    1    1    0    0    0 -0.86901007770E+01  0.13122624615E+00  0.28086187778E+02  0.29400153328E+02  0.00000000000E+00 0. -1.
</event>
<event>
 5    1  0.1764311E-003  0.9118800E+02  0.7818608E-02  0.1130116E+00
         25   -1    0    0    0    0  0.00000000000E+00  0.00000000000E+00  0.99999998245E-14  0.12500000000E+03  0.12500000000E+03 0.  0.
        -13    1    3    3    0    0  0.27124541208E+02  0.61752823452E+01  0.47296506343E+02  0.54871172068E+02  0.10566000000E+00 0.  1.
         23    2    1    0    0    0  0.11842553269E+02 -0.18938369690E+02  0.18978468874E+02  0.95689759550E+02  0.91090284266E+02 0.  0.
         13    1    3    3    0    0 -0.15281987939E+02 -0.25113652035E+02 -0.28318037470E+02  0.40818587482E+02  0.10566000000E+00 0. -1.
         22    1    1    0    0    0 -0.11842553269E+02  0.18938369690E+02 -0.18978468874E+02  0.29310240450E+02  0.00000000000E+00 0.  1.
</event>
<event>
 5    1  0.1764311E-003  0.9118800E+02  0.7818608E-02  0.1130116E+00
         25   -1    0    0    0    0  0.00000000000E+00  0.00000000000E+00  0.99999998245E-14  0.12500000000E+03  0.12500000000E+03 0.  0.
        -13    1    3    3    0    0 -0.21688694534E+02  0.94566870949E+01  0.24938431620E+02  0.34376808128E+02  0.10566000000E+00 0.  1.
         23    2    1    0    0    0  0.21523518149E+02  0.21799053408E+02 -0.11545575907E+02  0.92262240669E+02  0.86258681692E+02 0.  0.
         13    1    3    3    0    0  0.43212212683E+02  0.12342366313E+02 -0.36484007528E+02  0.57885432541E+02  0.10566000000E+00 0. -1.
         22    1    1    0    0    0 -0.21523518149E+02 -0.21799053408E+02  0.11545575907E+02  0.32737759331E+02  0.00000000000E+00 0. -1.
</event>
<event>
 5    1  0.1764311E-003  0.9118800E+02  0.7818608E-02  0.1130116E+00
         25   -1    0    0    0    0  0.00000000000E+00  0.00000000000E+00  0.99999998245E-14  0.12500000000E+03  0.12500000000E+03 0.  0.
        -13    1    3    3    0    0 -0.19339735274E+02 -0.30265774015E+02  0.18136390669E+02  0.40236578728E+02  0.10566000000E+00 0.  1.
         23    2    1    0    0    0  0.26439344300E+02 -0.17374403148E+01  0.15633525449E+02  0.94235332867E+02  0.89072067545E+02 0.  0.
         13    1    3    3    0    0  0.45779079573E+02  0.28528333700E+02 -0.25028652196E+01  0.53998754139E+02  0.10566000000E+00 0. -1.
         22    1    1    0    0    0 -0.26439344300E+02  0.17374403148E+01 -0.15633525449E+02  0.30764667133E+02  0.00000000000E+00 0. -1.
</event>
<event>
 5    1  0.1764311E-003  0.9118800E+02  0.7818608E-02  0.1130116E+00
         25   -1    0    0    0    0  0.00000000000E+00  0.00000000000E+00  0.99999998245E-14  0.12500000000E+03  0.12500000000E+03 0.  0.
        -13    1    3    3    0    0 -0.22851052517E+01  0.48666470861E+02 -0.66901686868E+00  0.48724796969E+02  0.10566000000E+00 0. -1.
         23    2    1    0    0    0 -0.27458245270E+02  0.92399095380E+01 -0.45937905135E+01  0.95666843455E+02  0.91058831882E+02 0.  0.
         13    1    3    3    0    0 -0.25173140019E+02 -0.39426561323E+02 -0.39247736448E+01  0.46942046486E+02  0.10566000000E+00 0.  1.
         22    1    1    0    0    0  0.27458245270E+02 -0.92399095380E+01  0.45937905135E+01  0.29333156545E+02  0.00000000000E+00 0. -1.
</event>
<event>
 5    1  0.1764311E-003  0.9118800E+02  0.7818608E-02  0.1130116E+00
         25   -1    0    0    0    0  0.00000000000E+00  0.00000000000E+00  0.99999998245E-14  0.12500000000E+03  0.12500000000E+03 0.  0.
        -13    1    3    3    0    0 -0.82833063209E+01 -0.12226131012E+02 -0.54596453158E+02  0.56558600625E+02  0.10566000000E+00 0. -1.
         23    2    1    0    0    0  0.90908786652E+01 -0.19009990127E+02 -0.19567215238E+02  0.96244136047E+02  0.91847885178E+02 0.  0.
         13    1    3    3    0    0  0.17374184986E+02 -0.67838591150E+01  0.35029237920E+02  0.39685535422E+02  0.10566000000E+00 0.  1.
         22    1    1    0    0    0 -0.90908786652E+01  0.19009990127E+02  0.19567215238E+02  0.28755863953E+02  0.00000000000E+00 0. -1.
</event>
<event>
 5    1  0.1764311E-003  0.9118800E+02  0.7818608E-02  0.1130116E+00
         25   -1    0    0    0    0  0.00000000000E+00  0.00000000000E+00  0.99999998245E-14  0.12500000000E+03  0.12500000000E+03 0.  0.
        -13    1    3    3    0    0  0.94130324312E+01  0.39495020687E+02 -0.28067636041E+02  0.49358537211E+02  0.10566000000E+00 0.  1.
         23    2    1    0    0    0 -0.12959574218E+02  0.69888061640E+00 -0.27994396121E+02  0.94143473750E+02  0.88943062897E+02 0.  0.
         13    1    3    3    0    0 -0.22372606649E+02 -0.38796140071E+02  0.73239920435E-01  0.44784936539E+02  0.10566000000E+00 0. -1.
         22    1    1    0    0    0  0.12959574218E+02 -0.69888061640E+00  0.27994396121E+02  0.30856526250E+02  0.00000000000E+00 0. -1.
</event>
<event>
 5    1  0.1764311E-003  0.9118800E+02  0.7818608E-02  0.1130116E+00
         25   -1    0    0    0    0  0.00000000000E+00  0.00000000000E+00  0.99999998245E-14  0.12500000000E+03  0.12500000000E+03 0.  0.
        -13    1    3    3    0    0  0.12437790513E+02  0.10579775588E+02 -0.54216428400E+02  0.56622103077E+02  0.10566000000E+00 0. -1.
         23    2    1    0    0    0  0.13912843298E+01  0.22676844549E+02 -0.19304382807E+02  0.95186678375E+02  0.90397287535E+02 0.  0.
         13    1    3    3    0    0 -0.11046506184E+02  0.12097068961E+02  0.34912045594E+02  0.38564575298E+02  0.10566000000E+00 0.  1.
         22    1    1    0    0    0 -0.13912843298E+01 -0.22676844549E+02  0.19304382807E+02  0.29813321625E+02  0.00000000000E+00 0. -1.
</event>
<event>
 5    1  0.1764311E-003  0.9118800E+02  0.7818608E-02  0.1130116E+00
         25   -1    0    0    0    0  0.00000000000E+00  0.00000000000E+00  0.99999998245E-14  0.12500000000E+03  0.12500000000E+03 0.  0.
        -13    1    3    3    0    0  0.33398758840E+02 -0.12033271621E+01  0.33903565474E+02  0.47606596226E+02  0.10566000000E+00 0.  1.
         23    2    1    0    0    0  0.26046191719E+02 -0.25320285672E+01 -0.13471317092E+02  0.95567167042E+02  0.90921899235E+02 0.  0.
         13    1    3    3    0    0 -0.73525671213E+01 -0.13287014051E+01 -0.47374882567E+02  0.47960570816E+02  0.10566000000E+00 0. -1.
         22    1    1    0    0    0 -0.26046191719E+02  0.25320285672E+01  0.13471317092E+02  0.29432832958E+02  0.00000000000E+00 0.  1.
</event>
<event>
 5    1  0.1764311E-003  0.9118800E+02  0.7818608E-02  0.1130116E+00
         25   -1    0    0    0    0  0.00000000000E+00  0.00000000000E+00  0.99999998245E-14  0.12500000000E+03  0.12500000000E+03 0.  0.
        -13    1    3    3    0    0  0.13447850446E+02 -0.31937629516E+02  0.49833956644E+02  0.60698362907E+02  0.10566000000E+00 0.  1.
         23    2    1    0    0    0  0.34353090829E+01 -0.22868311404E+02  0.16715404017E+02  0.96466410209E+02  0.92149891764E+02 0.  0.
         13    1    3    3    0    0 -0.10012541364E+02  0.90693181127E+01 -0.33118552627E+02  0.35768047301E+02  0.10566000000E+00 0. -1.
         22    1    1    0    0    0 -0.34353090829E+01  0.22868311404E+02 -0.16715404017E+02  0.28533589791E+02  0.00000000000E+00 0.  1.
</event>
<event>
 5    1  0.1764311E-003  0.9118800E+02  0.7818608E-02  0.1130116E+00
         25   -1    0    0    0    0  0.00000000000E+00  0.00000000000E+00  0.99999998245E-14  0.12500000000E+03  0.12500000000E+03 0.  0.
        -13    1    3    3    0    0  0.30228338266E+02  0.13960240329E+02 -0.42719128431E+02  0.54162494794E+02  0.10566000000E+00 0. -1.
         23    2    1    0    0    0  0.16642119979E+02  0.24035780527E+02 -0.52163320938E+01  0.95303383637E+02  0.90558522013E+02 0.  0.
         13    1    3    3    0    0 -0.13586218287E+02  0.10075540198E+02  0.37502796337E+02  0.41140888843E+02  0.10566000000E+00 0.  1.
         22    1    1    0    0    0 -0.16642119979E+02 -0.24035780527E+02  0.52163320938E+01  0.29696616363E+02  0.00000000000E+00 0. -1.
</event>
<event>
 5    1  0.1764311E-003  0.9118800E+02  0.7818608E-02  0.1130116E+00
         25   -1    0    0    0    0  0.00000000000E+00  0.00000000000E+00  0.99999998245E-14  0.12500000000E+03  0.12500000000E+03 0.  0.
        -13    1    3    3    0    0  0.19709095373E+02 -0.23492260629E+02 -0.36864904017E+02  0.47951715945E+02  0.10566000000E+00 0. -1.
         23    2    1    0    0    0  0.29330764266E+02 -0.21782027581E+01  0.42806455264E+01  0.95278589774E+02  0.90524292008E+02 0.  0.
         13    1    3    3    0    0  0.96216688934E+01  0.21314057871E+02  0.41145549543E+02  0.47326873829E+02  0.10566000000E+00 0.  1.
         22    1    1    0    0    0 -0.29330764266E+02  0.21782027581E+01 -0.42806455264E+01  0.29721410226E+02  0.00000000000E+00 0.  1.
</event>
<event>
 5    1  0.1764311E-003  0.9118800E+02  0.7818608E-02  0.1130116E+00
         25   -1    0    0    0    0  0.00000000000E+00  0.00000000000E+00  0.99999998245E-14  0.12500000000E+03  0.12500000000E+03 0.  0.
        -13    1    3    3    0    0  0.37951708763E+02  0.31351764763E+02  0.13825264193E+02  0.51131345042E+02  0.10566000000E+00 0.  1.
         23    2    1    0    0    0  0.22576357093E+01  0.10690342140E+02  0.28160210312E+02  0.94794408152E+02  0.89853224973E+02 0.  0.
         13    1    3    3    0    0 -0.35694073053E+02 -0.20661422623E+02  0.14334946118E+02  0.43663063110E+02  0.10566000000E+00 0. -1.
         22    1    1    0    0    0 -0.22576357093E+01 -0.10690342140E+02 -0.28160210312E+02  0.30205591848E+02  0.00000000000E+00 0.  1.
</event>
<event>
 5    1  0.1764311E-003  0.9118800E+02  0.7818608E-02  0.1130116E+00
         25   -1    0    0    0    0  0.00000000000E+00  0.00000000000E+00  0.99999998245E-14  0.12500000000E+03  0.12500000000E+03 0.  0.
        -13    1    3    3    0    0 -0.16186729601E+02  0.18257190286E+02 -0.36542659860E+02  0.43939872166E+02  0.10566000000E+00 0.  1.
         23    2    1    0    0    0 -0.16612845640E+02  0.16512815579E+02  0.16076811361E+02  0.96590079512E+02  0.92317494972E+02 0.  0.
         13    1    3    3    0    0 -0.42611603956E+00 -0.17443747067E+01  0.52619471220E+02  0.52650207346E+02  0.10566000000E+00 0. -1.
         22    1    1    0    0    0  0.16612845640E+02 -0.16512815579E+02 -0.16076811361E+02  0.28409920488E+02  0.00000000000E+00 0. -1.
</event>
<event>
 5    1  0.1764311E-003  0.9118800E+02  0.7818608E-02  0.1130116E+00
         25   -1    0    0    0    0  0.00000000000E+00  0.00000000000E+00  0.99999998245E-14  0.12500000000E+03  0.12500000000E+03 0.  0.
        -13    1    3    3    0    0  0.11190171981E+02 -0.28554979830E+02  0.18564048832E+02  0.35850270503E+02  0.10566000000E+00 0. -1.
         23    2    1    0    0    0  0.52365224956E+01  0.28847065985E+02  0.36590610343E+01  0.95454050846E+02  0.90766253153E+02 0.  0.
         13    1    3    3    0    0 -0.59536494854E+01  0.57402045815E+02 -0.14904987798E+02  0.59603780343E+02  0.10566000000E+00 0.  1.
         22    1    1    0    0    0 -0.52365224956E+01 -0.28847065985E+02 -0.36590610343E+01  0.29545949154E+02  0.00000000000E+00 0.  1.
</event>
<event>
 5    1  0.1764311E-003  0.9118800E+02  0.7818608E-02  0.1130116E+00
         25   -1    0    0    0    0  0.00000000000E+00  0.00000000000E+00  0.99999998245E-14  0.12500000000E+03  0.12500000000E+03 0.  0.
        -13    1    3    3    0    0 -0.33455001595E+02 -0.10920593723E+02 -0.38249380014E+01  0.35399686633E+02  0.10566000000E+00 0.  1.
         23    2    1    0    0    0  0.18011291009E+02  0.21885491439E+02  0.11299327639E+01  0.96633504140E+02  0.92376274199E+02 0.  0.
         13    1    3    3    0    0  0.51466292604E+02  0.32806085162E+02  0.49548707653E+01  0.61233817506E+02  0.10566000000E+00 0. -1.
         22    1    1    0    0    0 -0.18011291009E+02 -0.21885491439E+02 -0.11299327639E+01  0.28366495860E+02  0.00000000000E+00 0. -1.
</event>
<event>
 5    1  0.1764311E-003  0.9118800E+02  0.7818608E-02  0.1130116E+00
         25   -1    0    0    0    0  0.00000000000E+00  0.00000000000E+00  0.99999998245E-14  0.12500000000E+03  0.12500000000E+03 0.  0.
        -13    1    3    3    0    0 -0.13906199630E+02  0.47063054319E+02 -0.23511399613E+02  0.54416087196E+02  0.10566000000E+00 0.  1.
         23    2    1    0    0    0 -0.25565781709E+02  0.13832760490E+02 -0.16103914537E+01  0.95887325479E+02  0.91360994794E+02 0.  0.
         13    1    3    3    0    0 -0.11659582079E+02 -0.33230293829E+02  0.21901008159E+02  0.41471238282E+02  0.10566000000E+00 0. -1.
         22    1    1    0    0    0  0.25565781709E+02 -0.13832760490E+02  0.16103914537E+01  0.29112674521E+02  0.00000000000E+00 0.  1.
</event>
<event>
 5    1  0.1764311E-003  0.9118800E+02  0.7818608E-02  0.1130116E+00
         25   -1    0    0    0    0  0.00000000000E+00  0.00000000000E+00  0.99999998245E-14  0.12500000000E+03  0.12500000000E+03 0.  0.
        -13    1    3    3    0    0  0.18578523142E+02 -0.22228795659E+02  0.15821845398E+02  0.33009435536E+02  0.10566000000E+00 0.  1.
         23    2    1    0    0    0 -0.20351267515E+02  0.22946372638E+02  0.17679286791E+01  0.94278091229E+02  0.89132052637E+02 0.  0.
         13    1    3    3    0    0 -0.38929790657E+02  0.45175168297E+02 -0.14053916719E+02  0.61268655693E+02  0.10566000000E+00 0. -1.
         22    1    1    0    0    0  0.20351267515E+02 -0.22946372638E+02 -0.17679286791E+01  0.30721908771E+02  0.00000000000E+00 0. -1.
</event>
<event>
 5    1  0.1764311E-003  0.9118800E+02  0.7818608E-02  0.1130116E+00
         25   -1    0    0    0    0  0.00000000000E+00  0.00000000000E+00  0.99999998245E-14  0.12500000000E+03  0.12500000000E+03 0.  0.
        -13    1    3    3    0    0 -0.23346208505E+02  0.36939860345E+02 -0.41605122677E+02  0.60337352700E+02  0.10566000000E+00 0.  1.
         23    2    1    0    0    0 -0.20682722271E+02  0.14171965117E+02 -0.13775034301E+02  0.96392812690E+02  0.92050003653E+02 0.  0.
         13    1    3    3    0    0  0.26634862340E+01 -0.22767895228E+02  0.27830088376E+02  0.36055459990E+02  0.10566000000E+00 0. -1.
         22    1    1    0    0    0  0.20682722271E+02 -0.14171965117E+02  0.13775034301E+02  0.28607187310E+02  0.00000000000E+00 0.  1.
</event>
<event>
 5    1  0.1764311E-003  0.9118800E+02  0.7818608E-02  0.1130116E+00
         25   -1    0    0    0    0  0.00000000000E+00  0.00000000000E+00  0.99999998245E-14  0.12500000000E+03  0.12500000000E+03 0.  0.
        -13    1    3    3    0    0  0.17524096851E+00  0.19431478446E+02 -0.33576993982E+02  0.38794828945E+02  0.10566000000E+00 0. -1.
         23    2    1    0    0    0 -0.11997234642E+02  0.14905646977E+02  0.21985116931E+02  0.95854548943E+02  0.91316138966E+02 0.  0.
         13    1    3    3    0    0 -0.12172475610E+02 -0.45258314687E+01  0.55562110914E+02  0.57059719997E+02  0.10566000000E+00 0.  1.
         22    1    1    0    0    0  0.11997234642E+02 -0.14905646977E+02 -0.21985116931E+02  0.29145451057E+02  0.00000000000E+00 0. -1.
</event>
<event>
 5    1  0.1764311E-003  0.9118800E+02  0.7818608E-02  0.1130116E+00
         25   -1    0    0    0    0  0.00000000000E+00  0.00000000000E+00  0.99999998245E-14  0.12500000000E+03  0.12500000000E+03 0.  0.
        -13    1    3    3    0    0 -0.49009177259E+02 -0.34433040349E+02 -0.14243763038E+02  0.61566465489E+02  0.10566000000E+00 0.  1.
         23    2    1    0    0    0 -0.28876655166E+02 -0.14669566777E+02 -0.13571342537E+01  0.92582424267E+02  0.86721427956E+02 0.  0.
         13    1    3    3    0    0  0.20132522092E+02  0.19763473573E+02  0.12886628785E+02  0.31015958778E+02  0.10566000000E+00 0. -1.
         22    1    1    0    0    0  0.28876655166E+02  0.14669566777E+02  0.13571342537E+01  0.32417575733E+02  0.00000000000E+00 0.  1.
</event>
<event>
 5    1  0.1764311E-003  0.9118800E+02  0.7818608E-02  0.1130116E+00
         25   -1    0    0    0    0  0.00000000000E+00  0.00000000000E+00  0.99999998245E-14  0.12500000000E+03  0.12500000000E+03 0.  0.
        -13    1    3    3    0    0  0.42643897001E+02  0.28251511231E+02  0.34685575859E+02  0.61804127491E+02  0.10566000000E+00 0.  1.
         23    2    1    0    0    0  0.21882302206E+02  0.73500432155E+01  0.18497704033E+02  0.95419206576E+02  0.90718254194E+02 0.  0.
         13    1    3    3    0    0 -0.20761594795E+02 -0.20901468015E+02 -0.16187871826E+02  0.33615079085E+02  0.10566000000E+00 0. -1.
         22    1    1    0    0    0 -0.21882302206E+02 -0.73500432155E+01 -0.18497704033E+02  0.29580793424E+02  0.00000000000E+00 0.  1.
</event>
<event>
 5    1  0.1764311E-003  0.9118800E+02  0.7818608E-02  0.1130116E+00
         25   -1    0    0    0    0  0.00000000000E+00  0.00000000000E+00  0.99999998245E-14  0.12500000000E+03  0.12500000000E+03 0.  0.
        -13    1    3    3    0    0 -0.26407959473E+02  0.54973202566E+02 -0.12326517447E+02  0.62220475089E+02  0.10566000000E+00 0.  1.
         23    2    1    0    0    0 -0.14045081423E+02  0.26748301522E+02 -0.10221463730E+02  0.93106203311E+02  0.87473143465E+02 0.  0.
         13    1    3    3    0    0  0.12362878050E+02 -0.28224901044E+02  0.21050537169E+01  0.30885728222E+02  0.10566000000E+00 0. -1.
         22    1    1    0    0    0  0.14045081423E+02 -0.26748301522E+02  0.10221463730E+02  0.31893796689E+02  0.00000000000E+00 0.  1.
</event>
<event>
 5    1  0.1764311E-003  0.9118800E+02  0.7818608E-02  0.1130116E+00
         25   -1    0    0    0    0  0.00000000000E+00  0.00000000000E+00  0.99999998245E-14  0.12500000000E+03  0.12500000000E+03 0.  0.
        -13    1    3    3    0    0  0.46836432104E+01 -0.36433006894E+02  0.65753661680E+01  0.37316847527E+02  0.10566000000E+00 0. -1.
         23    2    1    0    0    0 -0.22884654885E+02  0.14411684765E+02  0.12008704793E+02  0.95409239993E+02  0.90704520275E+02 0.  0.
         13    1    3    3    0    0 -0.27568298096E+02  0.50844691659E+02  0.54333386254E+01  0.58092392466E+02  0.10566000000E+00 0.  1.
         22    1    1    0    0    0  0.22884654885E+02 -0.14411684765E+02 -0.12008704793E+02  0.29590760007E+02  0.00000000000E+00 0.  1.
</event>
<event>
 5    1  0.1764311E-003  0.9118800E+02  0.7818608E-02  0.1130116E+00
         25   -1    0    0    0    0  0.00000000000E+00  0.00000000000E+00  0.99999998245E-14  0.12500000000E+03  0.12500000000E+03 0.  0.
        -13    1    3    3    0    0  0.43417372464E+02 -0.20437259039E+00 -0.25974323856E+02  0.50594334304E+02  0.10566000000E+00 0.  1.
         23    2    1    0    0    0  0.22949449298E+01 -0.17042315644E+02 -0.24515790346E+02  0.95054528372E+02  0.90214367442E+02 0.  0.
         13    1    3    3    0    0 -0.41122427534E+02 -0.16837943054E+02  0.14585335102E+01  0.44460194068E+02  0.10566000000E+00 0. -1.
         22    1    1    0    0    0 -0.22949449298E+01  0.17042315644E+02  0.24515790346E+02  0.29945471628E+02  0.00000000000E+00 0. -1.
</event>
<event>
 5    1  0.1764311E-003  0.9118800E+02  0.7818608E-02  0.1130116E+00
         25   -1    0    0    0    0  0.00000000000E+00  0.00000000000E+00  0.99999998245E-14  0.12500000000E+03  0.12500000000E+03 0.  0.
        -13    1    3    3    0    0 -0.47034077476E+02 -0.35103641695E+02 -0.75850831762E+01  0.59177823169E+02  0.10566000000E+00 0.  1.
         23    2    1    0    0    0 -0.23896326520E+02 -0.19393694058E+02  0.10499130552E+02  0.92482596464E+02  0.86577416894E+02 0.  0.
         13    1    3    3    0    0  0.23137750956E+02  0.15709947637E+02  0.18084213728E+02  0.33304773295E+02  0.10566000000E+00 0. -1.
         22    1    1    0    0    0  0.23896326520E+02  0.19393694058E+02 -0.10499130552E+02  0.32517403536E+02  0.00000000000E+00 0.  1.
</event>
<event>
 5    1  0.1764311E-003  0.9118800E+02  0.7818608E-02  0.1130116E+00
         25   -1    0    0    0    0  0.00000000000E+00  0.00000000000E+00  0.99999998245E-14  0.12500000000E+03  0.12500000000E+03 0.  0.
        -13    1    3    3    0    0 -0.64389056705E+01  0.54377028397E+01 -0.58244566985E+02  0.58851243536E+02  0.10566000000E+00 0.  1.
         23    2    1    0    0    0 -0.16020037580E+02 -0.44543222398E+01 -0.23618912795E+02  0.96115131430E+02  0.91672148755E+02 0.  0.
         13    1    3    3    0    0 -0.95811319097E+01 -0.98920250794E+01  0.34625654190E+02  0.37263887894E+02  0.10566000000E+00 0. -1.
         22    1    1    0    0    0  0.16020037580E+02  0.44543222398E+01  0.23618912795E+02  0.28884868570E+02  0.00000000000E+00 0.  1.
</event>
<event>
 5    1  0.1764311E-003  0.9118800E+02  0.7818608E-02  0.1130116E+00
         25   -1    0    0    0    0  0.00000000000E+00  0.00000000000E+00  0.99999998245E-14  0.12500000000E+03  0.12500000000E+03 0.  0.
        -13    1    3    3    0    0  0.27994109697E+02  0.33931619905E+02 -0.67069640562E+00  0.43994158758E+02  0.10566000000E+00 0.  1.
         23    2    1    0    0    0  0.13547732018E+02 -0.11961975364E+02  0.21451574457E+02  0.96950045559E+02  0.92803617332E+02 0.  0.
         13    1    3    3    0    0 -0.14446377679E+02 -0.45893595269E+02  0.22122270863E+02  0.52955886802E+02  0.10566000000E+00 0. -1.
         22    1    1    0    0    0 -0.13547732018E+02  0.11961975364E+02 -0.21451574457E+02  0.28049954441E+02  0.00000000000E+00 0. -1.
</event>
<event>
 5    1  0.1764311E-003  0.9118800E+02  0.7818608E-02  0.1130116E+00
         25   -1    0    0    0    0  0.00000000000E+00  0.00000000000E+00  0.99999998245E-14  0.12500000000E+03  0.12500000000E+03 0.  0.
        -13    1    3    3    0    0  0.36762534411E+02 -0.13936112248E+02 -0.15603584559E+02  0.42298725466E+02  0.10566000000E+00 0.  1.
         23    2    1    0    0    0 -0.10089915021E+02 -0.26042325061E+02  0.77292163962E+01  0.96021562054E+02  0.91544472872E+02 0.  0.
         13    1    3    3    0    0 -0.46852449433E+02 -0.12106212812E+02  0.23332800955E+02  0.53722836587E+02  0.10566000000E+00 0. -1.
         22    1    1    0    0    0  0.10089915021E+02  0.26042325061E+02 -0.77292163962E+01  0.28978437946E+02  0.00000000000E+00 0. -1.
</event>
<event>
 5    1  0.1764311E-003  0.9118800E+02  0.7818608E-02  0.1130116E+00
         25   -1    0    0    0    0  0.00000000000E+00  0.00000000000E+00  0.99999998245E-14  0.12500000000E+03  0.12500000000E+03 0.  0.
        -13    1    3    3    0    0  0.45400813855E+01  0.39131414867E+02  0.42841493360E+01  0.39626317872E+02  0.10566000000E+00 0.  1.
         23    2    1    0    0    0 -0.13564481942E+02 -0.39258630835E+01 -0.26083675027E+02  0.95339155875E+02  0.90607885797E+02 0.  0.
         13    1    3    3    0    0 -0.18104563328E+02 -0.43057277951E+02 -0.30367824363E+02  0.55712838003E+02  0.10566000000E+00 0. -1.
         22    1    1    0    0    0  0.13564481942E+02  0.39258630835E+01  0.26083675027E+02  0.29660844125E+02  0.00000000000E+00 0. -1.
</event>
<event>
 5    1  0.1764311E-003  0.9118800E+02  0.7818608E-02  0.1130116E+00
         25   -1    0    0    0    0  0.00000000000E+00  0.00000000000E+00  0.99999998245E-14  0.12500000000E+03  0.12500000000E+03 0.  0.
        -13    1    3    3    0    0  0.15904935924E+02 -0.68862600044E-01 -0.35299967850E+02  0.38717833398E+02  0.10566000000E+00 0.  1.
         23    2    1    0    0    0 -0.24147006446E+02  0.21151873069E+02 -0.70284773359E+01  0.92138485301E+02  0.86079157322E+02 0.  0.
         13    1    3    3    0    0 -0.40051942369E+02  0.21220735669E+02  0.28271490514E+02  0.53420651904E+02  0.10566000000E+00 0. -1.
         22    1    1    0    0    0  0.24147006446E+02 -0.21151873069E+02  0.70284773359E+01  0.32861514699E+02  0.00000000000E+00 0. -1.
</event>
<event>
 5    1  0.1764311E-003  0.9118800E+02  0.7818608E-02  0.1130116E+00
         25   -1    0    0    0    0  0.00000000000E+00  0.00000000000E+00  0.99999998245E-14  0.12500000000E+03  0.12500000000E+03 0.  0.
        -13    1    3    3    0    0  0.54080099937E+02  0.20982736592E+00 -0.11611789215E+02  0.55313163438E+02  0.10566000000E+00 0.  1.
         23    2    1    0    0    0  0.19866453537E+02  0.71839770199E+01  0.14894649204E+02  0.99151671682E+02  0.95723131585E+02 0.  0.
         13    1    3    3    0    0 -0.34213646400E+02  0.69741496539E+01  0.26506438418E+02  0.43838508244E+02  0.10566000000E+00 0. -1.
         22    1    1    0    0    0 -0.19866453537E+02 -0.71839770199E+01 -0.14894649204E+02  0.25848328318E+02  0.00000000000E+00 0.  1.
</event>
<event>
 5    1  0.1764311E-003  0.9118800E+02  0.7818608E-02  0.1130116E+00
         25   -1    0    0    0    0  0.00000000000E+00  0.00000000000E+00  0.99999998245E-14  0.12500000000E+03  0.12500000000E+03 0.  0.
        -13    1    3    3    0    0 -0.49716666301E+01  0.10341809619E+02  0.25125580380E+02  0.27622028324E+02  0.10566000000E+00 0.  1.
         23    2    1    0    0    0  0.30620629132E+01 -0.41223212453E+02  0.16376077655E+02  0.80537595728E+02  0.67152058286E+02 0.  0.
         13    1    3    3    0    0  0.80337295433E+01 -0.51565022073E+02 -0.87495027250E+01  0.52915567404E+02  0.10566000000E+00 0. -1.
         22    1    1    0    0    0 -0.30620629132E+01  0.41223212453E+02 -0.16376077655E+02  0.44462404272E+02  0.00000000000E+00 0. -1.
</event>
<event>
 5    1  0.1764311E-003  0.9118800E+02  0.7818608E-02  0.1130116E+00
         25   -1    0    0    0    0  0.00000000000E+00  0.00000000000E+00  0.99999998245E-14  0.12500000000E+03  0.12500000000E+03 0.  0.
        -13    1    3    3    0    0 -0.46434865108E+02  0.22273700229E+01 -0.41569373747E+02  0.62363305497E+02  0.10566000000E+00 0.  1.
         23    2    1    0    0    0 -0.21860854150E+02  0.37933947049E+01 -0.18367354101E+02  0.96196415428E+02  0.91782917021E+02 0.  0.
         13    1    3    3    0    0  0.24574010958E+02  0.15660246820E+01  0.23202019646E+02  0.33833109930E+02  0.10566000000E+00 0. -1.
         22    1    1    0    0    0  0.21860854150E+02 -0.37933947049E+01  0.18367354101E+02  0.28803584572E+02  0.00000000000E+00 0.  1.
</event>
<event>
 5    1  0.1764311E-003  0.9118800E+02  0.7818608E-02  0.1130116E+00
         25   -1    0    0    0    0  0.00000000000E+00  0.00000000000E+00  0.99999998245E-14  0.12500000000E+03  0.12500000000E+03 0.  0.
        -13    1    3    3    0    0 -0.46364934656E+01 -0.13097032086E+02  0.41745066523E+02  0.43996489225E+02  0.10566000000E+00 0.  1.
         23    2    1    0    0    0 -0.26318680262E+02 -0.10202412009E+02 -0.56654051214E+01  0.96210089324E+02  0.91801537737E+02 0.  0.
         13    1    3    3    0    0 -0.21682186797E+02  0.28946200765E+01 -0.47410471644E+02  0.52213600098E+02  0.10566000000E+00 0. -1.
         22    1    1    0    0    0  0.26318680262E+02  0.10202412009E+02  0.56654051214E+01  0.28789910676E+02  0.00000000000E+00 0. -1.
</event>
<event>
 5    1  0.1764311E-003  0.9118800E+02  0.7818608E-02  0.1130116E+00
         25   -1    0    0    0    0  0.00000000000E+00  0.00000000000E+00  0.99999998245E-14  0.12500000000E+03  0.12500000000E+03 0.  0.
        -13    1    3    3    0    0  0.14627572960E+02  0.22461418124E+02 -0.45669355222E+02  0.52954531111E+02  0.10566000000E+00 0. -1.
         23    2    1    0    0    0  0.10802857437E+01  0.28714139632E+02 -0.55824747285E+01  0.95728292565E+02  0.91143146430E+02 0.  0.
         13    1    3    3    0    0 -0.13547287216E+02  0.62527215082E+01  0.40086880493E+02  0.42773761453E+02  0.10566000000E+00 0.  1.
         22    1    1    0    0    0 -0.10802857437E+01 -0.28714139632E+02  0.55824747285E+01  0.29271707435E+02  0.00000000000E+00 0. -1.
</event>
<event>
 5    1  0.1764311E-003  0.9118800E+02  0.7818608E-02  0.1130116E+00
         25   -1    0    0    0    0  0.00000000000E+00  0.00000000000E+00  0.99999998245E-14  0.12500000000E+03  0.12500000000E+03 0.  0.
        -13    1    3    3    0    0 -0.13507407414E+01  0.87776757999E+01  0.36673797556E+02  0.37733946047E+02  0.10566000000E+00 0.  1.
         23    2    1    0    0    0 -0.13489282223E+02  0.17216079828E+02 -0.19424909747E+02  0.95747970015E+02  0.91170129449E+02 0.  0.
         13    1    3    3    0    0 -0.12138541482E+02  0.84384040279E+01 -0.56098707304E+02  0.58014023969E+02  0.10566000000E+00 0. -1.
         22    1    1    0    0    0  0.13489282223E+02 -0.17216079828E+02  0.19424909747E+02  0.29252029985E+02  0.00000000000E+00 0. -1.
</event>
<event>
 5    1  0.1764311E-003  0.9118800E+02  0.7818608E-02  0.1130116E+00
         25   -1    0    0    0    0  0.00000000000E+00  0.00000000000E+00  0.99999998245E-14  0.12500000000E+03  0.12500000000E+03 0.  0.
        -13    1    3    3    0    0 -0.14507060935E+02 -0.38797219578E+02  0.74601057057E+01  0.42087330696E+02  0.10566000000E+00 0.  1.
         23    2    1    0    0    0 -0.27153486429E+02  0.12128738494E+02 -0.10322686110E+01  0.95242921830E+02  0.90475026707E+02 0.  0.
         13    1    3    3    0    0 -0.12646425495E+02  0.50925958071E+02 -0.84923743167E+01  0.53155591134E+02  0.10566000000E+00 0. -1.
         22    1    1    0    0    0  0.27153486429E+02 -0.12128738494E+02  0.10322686110E+01  0.29757078170E+02  0.00000000000E+00 0. -1.
</event>
<event>
 5    1  0.1764311E-003  0.9118800E+02  0.7818608E-02  0.1130116E+00
         25   -1    0    0    0    0  0.00000000000E+00  0.00000000000E+00  0.99999998245E-14  0.12500000000E+03  0.12500000000E+03 0.  0.
        -13    1    3    3    0    0 -0.22633491088E+01 -0.23338156679E+02 -0.53037748689E+02  0.57989708194E+02  0.10566000000E+00 0.  1.
         23    2    1    0    0    0 -0.15427269574E+02 -0.15965290710E+02 -0.17066709516E+02  0.96997076445E+02  0.92866943048E+02 0.  0.
         13    1    3    3    0    0 -0.13163920465E+02  0.73728659693E+01  0.35971039173E+02  0.39007368251E+02  0.10566000000E+00 0. -1.
         22    1    1    0    0    0  0.15427269574E+02  0.15965290710E+02  0.17066709516E+02  0.28002923555E+02  0.00000000000E+00 0.  1.
</event>
<event>
 5    1  0.1764311E-003  0.9118800E+02  0.7818608E-02  0.1130116E+00
         25   -1    0    0    0    0  0.00000000000E+00  0.00000000000E+00  0.99999998245E-14  0.12500000000E+03  0.12500000000E+03 0.  0.
        -13    1    3    3    0    0 -0.57372873551E+00 -0.39650142383E+02 -0.94972804993E+01  0.40775880819E+02  0.10566000000E+00 0.  1.
         23    2    1    0    0    0  0.87467715155E+01 -0.35181639359E+00  0.27862931621E+02  0.95794302863E+02  0.91233632591E+02 0.  0.
         13    1    3    3    0    0  0.93205002510E+01  0.39298325990E+02  0.37360212120E+02  0.55018422044E+02  0.10566000000E+00 0. -1.
         22    1    1    0    0    0 -0.87467715155E+01  0.35181639359E+00 -0.27862931621E+02  0.29205697137E+02  0.00000000000E+00 0. -1.
</event>
<event>
 5    1  0.1764311E-003  0.9118800E+02  0.7818608E-02  0.1130116E+00
         25   -1    0    0    0    0  0.00000000000E+00  0.00000000000E+00  0.99999998245E-14  0.12500000000E+03  0.12500000000E+03 0.  0.
        -13    1    3    3    0    0 -0.23653460880E+02 -0.36270977620E+02  0.42452196264E+02  0.60640499345E+02  0.10566000000E+00 0.  1.
         23    2    1    0    0    0 -0.56616572535E+01 -0.18115933995E+02  0.31004825230E+02  0.88646999919E+02  0.80850169942E+02 0.  0.
         13    1    3    3    0    0  0.17991803626E+02  0.18155043625E+02 -0.11447371034E+02  0.28006500574E+02  0.10566000000E+00 0. -1.
         22    1    1    0    0    0  0.56616572535E+01  0.18115933995E+02 -0.31004825230E+02  0.36353000081E+02  0.00000000000E+00 0.  1.
</event>
<event>
 5    1  0.1764311E-003  0.9118800E+02  0.7818608E-02  0.1130116E+00
         25   -1    0    0    0    0  0.00000000000E+00  0.00000000000E+00  0.99999998245E-14  0.12500000000E+03  0.12500000000E+03 0.  0.
        -13    1    3    3    0    0 -0.18359593878E+02 -0.30750885602E+02  0.18671507219E+02  0.40389701639E+02  0.10566000000E+00 0. -1.
         23    2    1    0    0    0 -0.18658892889E+02  0.88023995419E+01 -0.20398929403E+02  0.95987022863E+02  0.91497298954E+02 0.  0.
         13    1    3    3    0    0 -0.29929901193E+00  0.39553285143E+02 -0.39070436621E+02  0.55597321225E+02  0.10566000000E+00 0.  1.
         22    1    1    0    0    0  0.18658892889E+02 -0.88023995419E+01  0.20398929403E+02  0.29012977137E+02  0.00000000000E+00 0.  1.
</event>
<event>
 5    1  0.1764311E-003  0.9118800E+02  0.7818608E-02  0.1130116E+00
         25   -1    0    0    0    0  0.00000000000E+00  0.00000000000E+00  0.99999998245E-14  0.12500000000E+03  0.12500000000E+03 0.  0.
        -13    1    3    3    0    0 -0.28376373363E+02 -0.39091534287E+02 -0.39562830584E+02  0.62438732739E+02  0.10566000000E+00 0. -1.
         23    2    1    0    0    0 -0.13342891736E+02 -0.15771976271E+02 -0.18417224846E+02  0.97323617173E+02  0.93305435496E+02 0.  0.
         13    1    3    3    0    0  0.15033481626E+02  0.23319558016E+02  0.21145605739E+02  0.34884884434E+02  0.10566000000E+00 0.  1.
         22    1    1    0    0    0  0.13342891736E+02  0.15771976271E+02  0.18417224846E+02  0.27676382827E+02  0.00000000000E+00 0. -1.
</event>
<event>
 5    1  0.1764311E-003  0.9118800E+02  0.7818608E-02  0.1130116E+00
         25   -1    0    0    0    0  0.00000000000E+00  0.00000000000E+00  0.99999998245E-14  0.12500000000E+03  0.12500000000E+03 0.  0.
        -13    1    3    3    0    0 -0.32329497919E+02  0.83689694053E+00 -0.10600537931E+02  0.34033504090E+02  0.10566000000E+00 0.  1.
         23    2    1    0    0    0  0.26813829303E+02  0.18201094817E+01  0.94813604290E+01  0.96501045001E+02  0.92196861391E+02 0.  0.
         13    1    3    3    0    0  0.59143327222E+02  0.98321254118E+00  0.20081898360E+02  0.62467540912E+02  0.10566000000E+00 0. -1.
         22    1    1    0    0    0 -0.26813829303E+02 -0.18201094817E+01 -0.94813604290E+01  0.28498954999E+02  0.00000000000E+00 0. -1.
</event>
<event>
 5    1  0.1764311E-003  0.9118800E+02  0.7818608E-02  0.1130116E+00
         25   -1    0    0    0    0  0.00000000000E+00  0.00000000000E+00  0.99999998245E-14  0.12500000000E+03  0.12500000000E+03 0.  0.
        -13    1    3    3    0    0  0.32126059230E+02  0.29371608881E+02  0.10854313682E+02  0.44862037175E+02  0.10566000000E+00 0.  1.
         23    2    1    0    0    0 -0.73278604499E+01  0.20423023289E+02 -0.19804495278E+02  0.95622875358E+02  0.90998455149E+02 0.  0.
         13    1    3    3    0    0 -0.39453919680E+02 -0.89485855924E+01 -0.30658808960E+02  0.50760838183E+02  0.10566000000E+00 0. -1.
         22    1    1    0    0    0  0.73278604499E+01 -0.20423023289E+02  0.19804495278E+02  0.29377124642E+02  0.00000000000E+00 0. -1.
</event>
<event>
 5    1  0.1764311E-003  0.9118800E+02  0.7818608E-02  0.1130116E+00
         25   -1    0    0    0    0  0.00000000000E+00  0.00000000000E+00  0.99999998245E-14  0.12500000000E+03  0.12500000000E+03 0.  0.
        -13    1    3    3    0    0  0.12758616952E+02  0.35445634897E+02 -0.34621477196E+01  0.37830846814E+02  0.10566000000E+00 0.  1.
         23    2    1    0    0    0 -0.29881822369E+02 -0.24610568941E+01  0.38911045291E+00  0.95014478226E+02  0.90158857338E+02 0.  0.
         13    1    3    3    0    0 -0.42640439320E+02 -0.37906691791E+02  0.38512581725E+01  0.57183631412E+02  0.10566000000E+00 0. -1.
         22    1    1    0    0    0  0.29881822369E+02  0.24610568941E+01 -0.38911045291E+00  0.29985521774E+02  0.00000000000E+00 0. -1.
</event>
<event>
 5    1  0.1764311E-003  0.9118800E+02  0.7818608E-02  0.1130116E+00
         25   -1    0    0    0    0  0.00000000000E+00  0.00000000000E+00  0.99999998245E-14  0.12500000000E+03  0.12500000000E+03 0.  0.
        -13    1    3    3    0    0 -0.41135781150E+02 -0.14714845969E+01  0.67795106136E+01  0.41716791415E+02  0.10566000000E+00 0.  1.
         23    2    1    0    0    0 -0.21137692103E+00 -0.18655558784E+02 -0.23162818786E+02  0.95257930000E+02  0.90495759570E+02 0.  0.
         13    1    3    3    0    0  0.40924404229E+02 -0.17184074187E+02 -0.29942329400E+02  0.53541138586E+02  0.10566000000E+00 0. -1.
         22    1    1    0    0    0  0.21137692103E+00  0.18655558784E+02  0.23162818786E+02  0.29742070000E+02  0.00000000000E+00 0. -1.
</event>
<event>
 5    1  0.1764311E-003  0.9118800E+02  0.7818608E-02  0.1130116E+00
         25   -1    0    0    0    0  0.00000000000E+00  0.00000000000E+00  0.99999998245E-14  0.12500000000E+03  0.12500000000E+03 0.  0.
        -13    1    3    3    0    0  0.55746266809E+02 -0.11747039445E+02 -0.11487212630E+02  0.58117178329E+02  0.10566000000E+00 0. -1.
         23    2    1    0    0    0  0.11635187849E+02  0.17339035737E+01 -0.16739448135E+02  0.10454045109E+03  0.10251884106E+03 0.  0.
         13    1    3    3    0    0 -0.44111078960E+02  0.13480943019E+02 -0.52522355048E+01  0.46423272758E+02  0.10566000000E+00 0.  1.
         22    1    1    0    0    0 -0.11635187849E+02 -0.17339035737E+01  0.16739448135E+02  0.20459548913E+02  0.00000000000E+00 0. -1.
</event>
<event>
 5    1  0.1764311E-003  0.9118800E+02  0.7818608E-02  0.1130116E+00
         25   -1    0    0    0    0  0.00000000000E+00  0.00000000000E+00  0.99999998245E-14  0.12500000000E+03  0.12500000000E+03 0.  0.
        -13    1    3    3    0    0 -0.55386312322E+02 -0.12121671271E+02  0.10967781727E+02  0.57748436404E+02  0.10566000000E+00 0.  1.
         23    2    1    0    0    0 -0.21501473786E+02  0.22781800596E+01  0.19878263796E+02  0.95629115592E+02  0.91007026641E+02 0.  0.
         13    1    3    3    0    0  0.33884838536E+02  0.14399851331E+02  0.89104820687E+01  0.37880679188E+02  0.10566000000E+00 0. -1.
         22    1    1    0    0    0  0.21501473786E+02 -0.22781800596E+01 -0.19878263796E+02  0.29370884408E+02  0.00000000000E+00 0.  1.
</event>
<event>
 5    1  0.1764311E-003  0.9118800E+02  0.7818608E-02  0.1130116E+00
         25   -1    0    0    0    0  0.00000000000E+00  0.00000000000E+00  0.99999998245E-14  0.12500000000E+03  0.12500000000E+03 0.  0.
        -13    1    3    3    0    0  0.14643387588E+02 -0.29173007644E+02 -0.31613653025E+01  0.32794794856E+02  0.10566000000E+00 0.  1.
         23    2    1    0    0    0 -0.84852365832E+01  0.28642798910E+02 -0.48170923573E+00  0.95122898182E+02  0.90309050186E+02 0.  0.
         13    1    3    3    0    0 -0.23128624171E+02  0.57815806554E+02  0.26796560668E+01  0.62328103326E+02  0.10566000000E+00 0. -1.
         22    1    1    0    0    0  0.84852365832E+01 -0.28642798910E+02  0.48170923573E+00  0.29877101818E+02  0.00000000000E+00 0. -1.
</event>
<event>
 5    1  0.1764311E-003  0.9118800E+02  0.7818608E-02  0.1130116E+00
         25   -1    0    0    0    0  0.00000000000E+00  0.00000000000E+00  0.99999998245E-14  0.12500000000E+03  0.12500000000E+03 0.  0.
        -13    1    3    3    0    0  0.11124200917E+02 -0.34102336750E+02  0.12313021257E+02  0.37925438354E+02  0.10566000000E+00 0. -1.
         23    2    1    0    0    0  0.42378304813E+02 -0.85303361495E+01  0.16937335141E+02  0.78571983939E+02  0.63387664295E+02 0.  0.
         13    1    3    3    0    0  0.31254103896E+02  0.25572000600E+02  0.46243138838E+01  0.40646545585E+02  0.10566000000E+00 0.  1.
         22    1    1    0    0    0 -0.42378304813E+02  0.85303361495E+01 -0.16937335141E+02  0.46428016061E+02  0.00000000000E+00 0. -1.
</event>
<event>
 5    1  0.1764311E-003  0.9118800E+02  0.7818608E-02  0.1130116E+00
         25   -1    0    0    0    0  0.00000000000E+00  0.00000000000E+00  0.99999998245E-14  0.12500000000E+03  0.12500000000E+03 0.  0.
        -13    1    3    3    0    0  0.24528406406E+02  0.16062692226E+02 -0.18660056754E+02  0.34754304546E+02  0.10566000000E+00 0.  1.
         23    2    1    0    0    0 -0.22236424066E+02 -0.18791658439E+02 -0.35379854353E+00  0.95884537518E+02  0.91357180229E+02 0.  0.
         13    1    3    3    0    0 -0.46764830473E+02 -0.34854350666E+02  0.18306258211E+02  0.61130232971E+02  0.10566000000E+00 0. -1.
         22    1    1    0    0    0  0.22236424066E+02  0.18791658439E+02  0.35379854353E+00  0.29115462482E+02  0.00000000000E+00 0. -1.
</event>
<event>
 5    1  0.1764311E-003  0.9118800E+02  0.7818608E-02  0.1130116E+00
         25   -1    0    0    0    0  0.00000000000E+00  0.00000000000E+00  0.99999998245E-14  0.12500000000E+03  0.12500000000E+03 0.  0.
        -13    1    3    3    0    0  0.11691421404E+00  0.26753914065E+02  0.32707649608E+02  0.42256207753E+02  0.10566000000E+00 0. -1.
         23    2    1    0    0    0 -0.47964262140E+01  0.17736198143E+02 -0.21092211308E+02  0.97027516970E+02  0.92907907319E+02 0.  0.
         13    1    3    3    0    0 -0.49133404280E+01 -0.90177159221E+01 -0.53799860917E+02  0.54771309216E+02  0.10566000000E+00 0.  1.
         22    1    1    0    0    0  0.47964262140E+01 -0.17736198143E+02  0.21092211308E+02  0.27972483030E+02  0.00000000000E+00 0.  1.
</event>
<event>
 5    1  0.1764311E-003  0.9118800E+02  0.7818608E-02  0.1130116E+00
         25   -1    0    0    0    0  0.00000000000E+00  0.00000000000E+00  0.99999998245E-14  0.12500000000E+03  0.12500000000E+03 0.  0.
        -13    1    3    3    0    0  0.46968267826E+02  0.12147670547E+01 -0.38684311339E+02  0.60860339708E+02  0.10566000000E+00 0.  1.
         23    2    1    0    0    0  0.21823884878E+02 -0.95183289807E+01 -0.17316801163E+02  0.95559345452E+02  0.90911145427E+02 0.  0.
         13    1    3    3    0    0 -0.25144382949E+02 -0.10733096035E+02  0.21367510177E+02  0.34699005743E+02  0.10566000000E+00 0. -1.
         22    1    1    0    0    0 -0.21823884878E+02  0.95183289807E+01  0.17316801163E+02  0.29440654548E+02  0.00000000000E+00 0.  1.
</event>
<event>
 5    1  0.1764311E-003  0.9118800E+02  0.7818608E-02  0.1130116E+00
         25   -1    0    0    0    0  0.00000000000E+00  0.00000000000E+00  0.99999998245E-14  0.12500000000E+03  0.12500000000E+03 0.  0.
        -13    1    3    3    0    0  0.85526003309E+01 -0.71045315074E+01  0.55086291710E+02  0.56197260064E+02  0.10566000000E+00 0.  1.
         23    2    1    0    0    0 -0.36134987721E+01  0.15096912848E+02  0.25604276236E+02  0.95057503236E+02  0.90218489285E+02 0.  0.
         13    1    3    3    0    0 -0.12166099103E+02  0.22201444356E+02 -0.29482015474E+02  0.38860243171E+02  0.10566000000E+00 0. -1.
         22    1    1    0    0    0  0.36134987721E+01 -0.15096912848E+02 -0.25604276236E+02  0.29942496764E+02  0.00000000000E+00 0.  1.
</event>
<event>
 5    1  0.1764311E-003  0.9118800E+02  0.7818608E-02  0.1130116E+00
         25   -1    0    0    0    0  0.00000000000E+00  0.00000000000E+00  0.99999998245E-14  0.12500000000E+03  0.12500000000E+03 0.  0.
        -13    1    3    3    0    0 -0.22765746003E+02  0.26828296987E+02 -0.16870704678E+02  0.39021385812E+02  0.10566000000E+00 0.  1.
         23    2    1    0    0    0  0.25294779933E+02  0.13470943798E+02  0.86657716103E+01  0.95060263591E+02  0.90222313746E+02 0.  0.
         13    1    3    3    0    0  0.48060525936E+02 -0.13357353188E+02  0.25536476289E+02  0.56038877779E+02  0.10566000000E+00 0. -1.
         22    1    1    0    0    0 -0.25294779933E+02 -0.13470943798E+02 -0.86657716103E+01  0.29939736409E+02  0.00000000000E+00 0. -1.
</event>
<event>
 5    1  0.1764311E-003  0.9118800E+02  0.7818608E-02  0.1130116E+00
         25   -1    0    0    0    0  0.00000000000E+00  0.00000000000E+00  0.99999998245E-14  0.12500000000E+03  0.12500000000E+03 0.  0.
        -13    1    3    3    0    0  0.16180235965E+02  0.44603725465E+02 -0.78298610479E+01  0.48089606458E+02  0.10566000000E+00 0.  1.
         23    2    1    0    0    0  0.98418037591E+01  0.23271311260E+02  0.26104331167E+02  0.88670244500E+02  0.80886099702E+02 0.  0.
         13    1    3    3    0    0 -0.63384322061E+01 -0.21332414204E+02  0.33934192215E+02  0.40580638042E+02  0.10566000000E+00 0. -1.
         22    1    1    0    0    0 -0.98418037591E+01 -0.23271311260E+02 -0.26104331167E+02  0.36329755500E+02  0.00000000000E+00 0.  1.
</event>
<event>
 5    1  0.1764311E-003  0.9118800E+02  0.7818608E-02  0.1130116E+00
         25   -1    0    0    0    0  0.00000000000E+00  0.00000000000E+00  0.99999998245E-14  0.12500000000E+03  0.12500000000E+03 0.  0.
        -13    1    3    3    0    0  0.14768675296E+02  0.52942506585E+02 -0.20773814768E+02  0.58758704185E+02  0.10566000000E+00 0.  1.
         23    2    1    0    0    0  0.17211971261E+02  0.21513591728E+02 -0.21120539602E+02  0.90284531159E+02  0.83343462790E+02 0.  0.
         13    1    3    3    0    0  0.24432959656E+01 -0.31428914857E+02 -0.34672483443E+00  0.31525826974E+02  0.10566000000E+00 0. -1.
         22    1    1    0    0    0 -0.17211971261E+02 -0.21513591728E+02  0.21120539602E+02  0.34715468841E+02  0.00000000000E+00 0.  1.
</event>
<event>
 5    1  0.1764311E-003  0.9118800E+02  0.7818608E-02  0.1130116E+00
         25   -1    0    0    0    0  0.00000000000E+00  0.00000000000E+00  0.99999998245E-14  0.12500000000E+03  0.12500000000E+03 0.  0.
        -13    1    3    3    0    0 -0.21280180560E+02  0.43914493752E+02 -0.31703863424E+02  0.58193427174E+02  0.10566000000E+00 0. -1.
         23    2    1    0    0    0 -0.14591195053E+02  0.70896733011E+01 -0.23392838601E+02  0.96532626774E+02  0.92239669847E+02 0.  0.
         13    1    3    3    0    0  0.66889855065E+01 -0.36824820451E+02  0.83110248234E+01  0.38339199600E+02  0.10566000000E+00 0.  1.
         22    1    1    0    0    0  0.14591195053E+02 -0.70896733011E+01  0.23392838601E+02  0.28467373226E+02  0.00000000000E+00 0. -1.
</event>
<event>
 5    1  0.1764311E-003  0.9118800E+02  0.7818608E-02  0.1130116E+00
         25   -1    0    0    0    0  0.00000000000E+00  0.00000000000E+00  0.99999998245E-14  0.12500000000E+03  0.12500000000E+03 0.  0.
        -13    1    3    3    0    0 -0.39594530526E+02  0.19572414172E+02 -0.15676275332E+02  0.46867504909E+02  0.10566000000E+00 0.  1.
         23    2    1    0    0    0  0.57197638510E+01  0.28458508131E+02  0.97658029438E+00  0.95955962873E+02  0.91454856176E+02 0.  0.
         13    1    3    3    0    0  0.45314294377E+02  0.88860939594E+01  0.16652855627E+02  0.49088457964E+02  0.10566000000E+00 0. -1.
         22    1    1    0    0    0 -0.57197638510E+01 -0.28458508131E+02 -0.97658029438E+00  0.29044037127E+02  0.00000000000E+00 0.  1.
</event>
<event>
 5    1  0.1764311E-003  0.9118800E+02  0.7818608E-02  0.1130116E+00
         25   -1    0    0    0    0  0.00000000000E+00  0.00000000000E+00  0.99999998245E-14  0.12500000000E+03  0.12500000000E+03 0.  0.
        -13    1    3    3    0    0 -0.98095072601E+01  0.77778255016E+01 -0.33533401573E+02  0.35794150183E+02  0.10566000000E+00 0. -1.
         23    2    1    0    0    0  0.49848717975E+01  0.15035715618E+02  0.24335212952E+02  0.95963397575E+02  0.91465017322E+02 0.  0.
         13    1    3    3    0    0  0.14794379058E+02  0.72578901165E+01  0.57868614525E+02  0.60169247392E+02  0.10566000000E+00 0.  1.
         22    1    1    0    0    0 -0.49848717975E+01 -0.15035715618E+02 -0.24335212952E+02  0.29036602425E+02  0.00000000000E+00 0.  1.
</event>
<event>
 5    1  0.1764311E-003  0.9118800E+02  0.7818608E-02  0.1130116E+00
         25   -1    0    0    0    0  0.00000000000E+00  0.00000000000E+00  0.99999998245E-14  0.12500000000E+03  0.12500000000E+03 0.  0.
        -13    1    3    3    0    0 -0.59774119409E+02 -0.10711094154E+02 -0.35829407894E+01  0.60831912002E+02  0.10566000000E+00 0. -1.
         23    2    1    0    0    0 -0.27822921011E+02 -0.97467537186E+01 -0.10801522374E+02  0.93602754464E+02  0.88179865139E+02 0.  0.
         13    1    3    3    0    0  0.31951198398E+02  0.96434043545E+00 -0.72185815848E+01  0.32770842462E+02  0.10566000000E+00 0.  1.
         22    1    1    0    0    0  0.27822921011E+02  0.97467537186E+01  0.10801522374E+02  0.31397245536E+02  0.00000000000E+00 0. -1.
</event>
<event>
 5    1  0.1764311E-003  0.9118800E+02  0.7818608E-02  0.1130116E+00
         25   -1    0    0    0    0  0.00000000000E+00  0.00000000000E+00  0.99999998245E-14  0.12500000000E+03  0.12500000000E+03 0.  0.
        -13    1    3    3    0    0  0.15825154717E+02 -0.28998042621E+02  0.11862207753E+02  0.35100500487E+02  0.10566000000E+00 0. -1.
         23    2    1    0    0    0  0.63511575035E+01  0.91966006101E+01 -0.30258216655E+02  0.92743615523E+02  0.86953458130E+02 0.  0.
         13    1    3    3    0    0 -0.94739972134E+01  0.38194643231E+02 -0.42120424407E+02  0.57643115036E+02  0.10566000000E+00 0.  1.
         22    1    1    0    0    0 -0.63511575035E+01 -0.91966006101E+01  0.30258216655E+02  0.32256384477E+02  0.00000000000E+00 0.  1.
</event>
<event>
 5    1  0.1764311E-003  0.9118800E+02  0.7818608E-02  0.1130116E+00
         25   -1    0    0    0    0  0.00000000000E+00  0.00000000000E+00  0.99999998245E-14  0.12500000000E+03  0.12500000000E+03 0.  0.
        -13    1    3    3    0    0 -0.23271795031E+02  0.27283624662E+02  0.17228137811E+02  0.39784324993E+02  0.10566000000E+00 0.  1.
         23    2    1    0    0    0  0.27725916494E+02  0.95709948110E+01  0.37305458104E+01  0.95432325773E+02  0.90736329237E+02 0.  0.
         13    1    3    3    0    0  0.50997711525E+02 -0.17712629851E+02 -0.13497592001E+02  0.55648000781E+02  0.10566000000E+00 0. -1.
         22    1    1    0    0    0 -0.27725916494E+02 -0.95709948110E+01 -0.37305458104E+01  0.29567674227E+02  0.00000000000E+00 0. -1.
</event>
<event>
 5    1  0.1764311E-003  0.9118800E+02  0.7818608E-02  0.1130116E+00
         25   -1    0    0    0    0  0.00000000000E+00  0.00000000000E+00  0.99999998245E-14  0.12500000000E+03  0.12500000000E+03 0.  0.
        -13    1    3    3    0    0  0.15310370743E+02 -0.20145385077E+02 -0.30244483351E+02  0.39433284537E+02  0.10566000000E+00 0. -1.
         23    2    1    0    0    0  0.59511108849E+01  0.27787034431E+02 -0.57491511422E+00  0.96577024600E+02  0.92299816630E+02 0.  0.
         13    1    3    3    0    0 -0.93592598578E+01  0.47932419508E+02  0.29669568236E+02  0.57143740063E+02  0.10566000000E+00 0.  1.
         22    1    1    0    0    0 -0.59511108849E+01 -0.27787034431E+02  0.57491511422E+00  0.28422975400E+02  0.00000000000E+00 0.  1.
</event>
<event>
 5    1  0.1764311E-003  0.9118800E+02  0.7818608E-02  0.1130116E+00
         25   -1    0    0    0    0  0.00000000000E+00  0.00000000000E+00  0.99999998245E-14  0.12500000000E+03  0.12500000000E+03 0.  0.
        -13    1    3    3    0    0 -0.31367589381E+02 -0.16058571040E+02  0.12001259445E+02  0.37226935943E+02  0.10566000000E+00 0. -1.
         23    2    1    0    0    0  0.25835395518E+01  0.29335130834E+02 -0.15519767808E+01  0.95510455928E+02  0.90843898981E+02 0.  0.
         13    1    3    3    0    0  0.33951128933E+02  0.45393701873E+02 -0.13553236226E+02  0.58283519985E+02  0.10566000000E+00 0.  1.
         22    1    1    0    0    0 -0.25835395518E+01 -0.29335130834E+02  0.15519767808E+01  0.29489544072E+02  0.00000000000E+00 0.  1.
</event>
<event>
 5    1  0.1764311E-003  0.9118800E+02  0.7818608E-02  0.1130116E+00
         25   -1    0    0    0    0  0.00000000000E+00  0.00000000000E+00  0.99999998245E-14  0.12500000000E+03  0.12500000000E+03 0.  0.
        -13    1    3    3    0    0 -0.40484988323E+02  0.34487827320E+02 -0.19149896648E+02  0.56525872116E+02  0.10566000000E+00 0.  1.
         23    2    1    0    0    0 -0.29717288940E+01  0.21218476401E+02 -0.19069784220E+02  0.96317050647E+02  0.91947064454E+02 0.  0.
         13    1    3    3    0    0  0.37513259430E+02 -0.13269350919E+02  0.80112428376E-01  0.39791178531E+02  0.10566000000E+00 0. -1.
         22    1    1    0    0    0  0.29717288940E+01 -0.21218476401E+02  0.19069784220E+02  0.28682949353E+02  0.00000000000E+00 0.  1.
</event>
<event>
 5    1  0.1764311E-003  0.9118800E+02  0.7818608E-02  0.1130116E+00
         25   -1    0    0    0    0  0.00000000000E+00  0.00000000000E+00  0.99999998245E-14  0.12500000000E+03  0.12500000000E+03 0.  0.
        -13    1    3    3    0    0 -0.24847415116E+02 -0.20078829788E+02  0.20735356538E+02  0.38085687842E+02  0.10566000000E+00 0.  1.
         23    2    1    0    0    0 -0.14600951075E+02  0.27268671128E+02 -0.61104411411E+01  0.93470558388E+02  0.87992270099E+02 0.  0.
         13    1    3    3    0    0  0.10246464041E+02  0.47347500916E+02 -0.26845797679E+02  0.55384870546E+02  0.10566000000E+00 0. -1.
         22    1    1    0    0    0  0.14600951075E+02 -0.27268671128E+02  0.61104411411E+01  0.31529441612E+02  0.00000000000E+00 0. -1.
</event>
<event>
 5    1  0.1764311E-003  0.9118800E+02  0.7818608E-02  0.1130116E+00
         25   -1    0    0    0    0  0.00000000000E+00  0.00000000000E+00  0.99999998245E-14  0.12500000000E+03  0.12500000000E+03 0.  0.
        -13    1    3    3    0    0 -0.27484682383E+02  0.47888822872E+01 -0.13930791501E+02  0.31183637940E+02  0.10566000000E+00 0. -1.
         23    2    1    0    0    0 -0.15396576312E+02  0.40841083599E+01  0.37624798844E+02  0.84142197914E+02  0.73556437370E+02 0.  0.
         13    1    3    3    0    0  0.12088106072E+02 -0.70477392723E+00  0.51555590345E+02  0.52958559974E+02  0.10566000000E+00 0.  1.
         22    1    1    0    0    0  0.15396576312E+02 -0.40841083599E+01 -0.37624798844E+02  0.40857802086E+02  0.00000000000E+00 0.  1.
</event>
<event>
 5    1  0.1764311E-003  0.9118800E+02  0.7818608E-02  0.1130116E+00
         25   -1    0    0    0    0  0.00000000000E+00  0.00000000000E+00  0.99999998245E-14  0.12500000000E+03  0.12500000000E+03 0.  0.
        -13    1    3    3    0    0 -0.50575196197E+02  0.38309771547E+01  0.18965830873E+02  0.54150168615E+02  0.10566000000E+00 0. -1.
         23    2    1    0    0    0 -0.15807549824E+02 -0.18607654375E+02  0.16355929661E+02  0.95612249697E+02  0.90983858042E+02 0.  0.
         13    1    3    3    0    0  0.34767646373E+02 -0.22438631530E+02 -0.26099012113E+01  0.41462081082E+02  0.10566000000E+00 0.  1.
         22    1    1    0    0    0  0.15807549824E+02  0.18607654375E+02 -0.16355929661E+02  0.29387750303E+02  0.00000000000E+00 0. -1.
</event>
<event>
 5    1  0.1764311E-003  0.9118800E+02  0.7818608E-02  0.1130116E+00
         25   -1    0    0    0    0  0.00000000000E+00  0.00000000000E+00  0.99999998245E-14  0.12500000000E+03  0.12500000000E+03 0.  0.
        -13    1    3    3    0    0 -0.10801493076E+01  0.26536712932E+02 -0.25443797358E+02  0.36779910873E+02  0.10566000000E+00 0.  1.
         23    2    1    0    0    0 -0.29679966430E+02  0.86801580541E+00  0.14281401020E+02  0.92051369166E+02  0.85952558377E+02 0.  0.
         13    1    3    3    0    0 -0.28599817123E+02 -0.25668697127E+02  0.39725198378E+02  0.55271458293E+02  0.10566000000E+00 0. -1.
         22    1    1    0    0    0  0.29679966430E+02 -0.86801580541E+00 -0.14281401020E+02  0.32948630834E+02  0.00000000000E+00 0. -1.
</event>
<event>
 5    1  0.1764311E-003  0.9118800E+02  0.7818608E-02  0.1130116E+00
         25   -1    0    0    0    0  0.00000000000E+00  0.00000000000E+00  0.99999998245E-14  0.12500000000E+03  0.12500000000E+03 0.  0.
        -13    1    3    3    0    0 -0.23303275896E+02 -0.13355164673E+02  0.21495568364E+02  0.34401652784E+02  0.10566000000E+00 0. -1.
         23    2    1    0    0    0  0.28721308736E+02  0.83714195050E+01 -0.90980369153E+00  0.95069714622E+02  0.90235406884E+02 0.  0.
         13    1    3    3    0    0  0.52024584632E+02  0.21726584178E+02 -0.22405372056E+02  0.60668061838E+02  0.10566000000E+00 0.  1.
         22    1    1    0    0    0 -0.28721308736E+02 -0.83714195050E+01  0.90980369153E+00  0.29930285378E+02  0.00000000000E+00 0.  1.
</event>
<event>
 5    1  0.1764311E-003  0.9118800E+02  0.7818608E-02  0.1130116E+00
         25   -1    0    0    0    0  0.00000000000E+00  0.00000000000E+00  0.99999998245E-14  0.12500000000E+03  0.12500000000E+03 0.  0.
        -13    1    3    3    0    0  0.30965234599E+02 -0.13472332911E+02  0.37538514731E+02  0.50492581238E+02  0.10566000000E+00 0.  1.
         23    2    1    0    0    0  0.24342889430E+02 -0.14666612810E+02 -0.71577468666E+01  0.95692677752E+02  0.91094288724E+02 0.  0.
         13    1    3    3    0    0 -0.66223451685E+01 -0.11942798983E+01 -0.44696261598E+02  0.45200096514E+02  0.10566000000E+00 0. -1.
         22    1    1    0    0    0 -0.24342889430E+02  0.14666612810E+02  0.71577468666E+01  0.29307322248E+02  0.00000000000E+00 0.  1.
</event>
<event>
 5    1  0.1764311E-003  0.9118800E+02  0.7818608E-02  0.1130116E+00
         25   -1    0    0    0    0  0.00000000000E+00  0.00000000000E+00  0.99999998245E-14  0.12500000000E+03  0.12500000000E+03 0.  0.
        -13    1    3    3    0    0  0.27426485075E+02  0.29682185945E+01  0.21230681630E+02  0.34810564656E+02  0.10566000000E+00 0. -1.
         23    2    1    0    0    0 -0.65867146686E+00  0.31895949540E+02 -0.15661197956E+02  0.89460464739E+02  0.82098210606E+02 0.  0.
         13    1    3    3    0    0 -0.28085156542E+02  0.28927730945E+02 -0.36891879586E+02  0.54649900083E+02  0.10566000000E+00 0.  1.
         22    1    1    0    0    0  0.65867146686E+00 -0.31895949540E+02  0.15661197956E+02  0.35539535261E+02  0.00000000000E+00 0.  1.
</event>
<event>
 5    1  0.1764311E-003  0.9118800E+02  0.7818608E-02  0.1130116E+00
         25   -1    0    0    0    0  0.00000000000E+00  0.00000000000E+00  0.99999998245E-14  0.12500000000E+03  0.12500000000E+03 0.  0.
        -13    1    3    3    0    0 -0.29456877474E+02  0.28791943548E+02 -0.23581203944E+02  0.47463333082E+02  0.10566000000E+00 0.  1.
         23    2    1    0    0    0  0.56030234961E+01  0.26767482999E+02  0.98331134279E+01  0.95938304625E+02  0.91430717793E+02 0.  0.
         13    1    3    3    0    0  0.35059900970E+02 -0.20244605491E+01  0.33414317372E+02  0.48474971542E+02  0.10566000000E+00 0. -1.
         22    1    1    0    0    0 -0.56030234961E+01 -0.26767482999E+02 -0.98331134279E+01  0.29061695375E+02  0.00000000000E+00 0.  1.
</event>
<event>
 5    1  0.1764311E-003  0.9118800E+02  0.7818608E-02  0.1130116E+00
         25   -1    0    0    0    0  0.00000000000E+00  0.00000000000E+00  0.99999998245E-14  0.12500000000E+03  0.12500000000E+03 0.  0.
        -13    1    3    3    0    0 -0.99609757659E+01 -0.10575711384E+01 -0.53146073938E+02  0.54081936301E+02  0.10566000000E+00 0. -1.
         23    2    1    0    0    0 -0.94188299317E+01  0.20775327902E+02 -0.16123605853E+02  0.97066162591E+02  0.92959887305E+02 0.  0.
         13    1    3    3    0    0  0.54214583420E+00  0.21832899040E+02  0.37022468085E+02  0.42984226290E+02  0.10566000000E+00 0.  1.
         22    1    1    0    0    0  0.94188299317E+01 -0.20775327902E+02  0.16123605853E+02  0.27933837409E+02  0.00000000000E+00 0. -1.
</event>
<event>
 5    1  0.1764311E-003  0.9118800E+02  0.7818608E-02  0.1130116E+00
         25   -1    0    0    0    0  0.00000000000E+00  0.00000000000E+00  0.99999998245E-14  0.12500000000E+03  0.12500000000E+03 0.  0.
        -13    1    3    3    0    0 -0.14528008418E+02 -0.17718626699E+01  0.35423791921E+02  0.38328301867E+02  0.10566000000E+00 0.  1.
         23    2    1    0    0    0  0.21379312870E+02 -0.26077428090E+02  0.59483115287E+01  0.90758363289E+02  0.84051120292E+02 0.  0.
         13    1    3    3    0    0  0.35907321287E+02 -0.24305565420E+02 -0.29475480392E+02  0.52430061423E+02  0.10566000000E+00 0. -1.
         22    1    1    0    0    0 -0.21379312870E+02  0.26077428090E+02 -0.59483115287E+01  0.34241636711E+02  0.00000000000E+00 0. -1.
</event>
<event>
 5    1  0.1764311E-003  0.9118800E+02  0.7818608E-02  0.1130116E+00
         25   -1    0    0    0    0  0.00000000000E+00  0.00000000000E+00  0.99999998245E-14  0.12500000000E+03  0.12500000000E+03 0.  0.
        -13    1    3    3    0    0 -0.32521259283E+02  0.16989184701E+02  0.64406590766E+01  0.37252623472E+02  0.10566000000E+00 0. -1.
         23    2    1    0    0    0  0.11240965528E+01 -0.26716606808E+02 -0.12381914067E+02  0.95532179104E+02  0.90873784866E+02 0.  0.
         13    1    3    3    0    0  0.33645355836E+02 -0.43705791509E+02 -0.18822573144E+02  0.58279555631E+02  0.10566000000E+00 0.  1.
         22    1    1    0    0    0 -0.11240965528E+01  0.26716606808E+02  0.12381914067E+02  0.29467820896E+02  0.00000000000E+00 0.  1.
</event>
<event>
 5    1  0.1764311E-003  0.9118800E+02  0.7818608E-02  0.1130116E+00
         25   -1    0    0    0    0  0.00000000000E+00  0.00000000000E+00  0.99999998245E-14  0.12500000000E+03  0.12500000000E+03 0.  0.
        -13    1    3    3    0    0 -0.36289774618E+02 -0.45896207909E+02 -0.21290995747E+02  0.62263370501E+02  0.10566000000E+00 0. -1.
         23    2    1    0    0    0 -0.23275906138E+02 -0.23913207731E+02 -0.10281211468E+02  0.90081342812E+02  0.83038158115E+02 0.  0.
         13    1    3    3    0    0  0.13013868480E+02  0.21983000177E+02  0.11009784279E+02  0.27817972311E+02  0.10566000000E+00 0.  1.
         22    1    1    0    0    0  0.23275906138E+02  0.23913207731E+02  0.10281211468E+02  0.34918657188E+02  0.00000000000E+00 0. -1.
</event>
<event>
 5    1  0.1764311E-003  0.9118800E+02  0.7818608E-02  0.1130116E+00
         25   -1    0    0    0    0  0.00000000000E+00  0.00000000000E+00  0.99999998245E-14  0.12500000000E+03  0.12500000000E+03 0.  0.
        -13    1    3    3    0    0 -0.53301379036E+02 -0.19480285961E+02  0.15363314062E+02  0.58792526152E+02  0.10566000000E+00 0.  1.
         23    2    1    0    0    0 -0.26880474492E+02 -0.78870486282E+01 -0.79425190355E+01  0.95882152319E+02  0.91353916608E+02 0.  0.
         13    1    3    3    0    0  0.26420904545E+02  0.11593237333E+02 -0.23305833098E+02  0.37089626167E+02  0.10566000000E+00 0. -1.
         22    1    1    0    0    0  0.26880474492E+02  0.78870486282E+01  0.79425190355E+01  0.29117847681E+02  0.00000000000E+00 0.  1.
</event>
<event>
 5    1  0.1764311E-003  0.9118800E+02  0.7818608E-02  0.1130116E+00
         25   -1    0    0    0    0  0.00000000000E+00  0.00000000000E+00  0.99999998245E-14  0.12500000000E+03  0.12500000000E+03 0.  0.
        -13    1    3    3    0    0 -0.56117210430E+02 -0.25279470211E+02  0.84631698371E+01  0.62127524724E+02  0.10566000000E+00 0.  1.
         23    2    1    0    0    0 -0.23559042842E+02 -0.15846134641E+02  0.44317658646E+01  0.96263802768E+02  0.91874646622E+02 0.  0.
         13    1    3    3    0    0  0.32558167588E+02  0.94333355699E+01 -0.40314039725E+01  0.34136278044E+02  0.10566000000E+00 0. -1.
         22    1    1    0    0    0  0.23559042842E+02  0.15846134641E+02 -0.44317658646E+01  0.28736197232E+02  0.00000000000E+00 0.  1.
</event>
<event>
 5    1  0.1764311E-003  0.9118800E+02  0.7818608E-02  0.1130116E+00
         25   -1    0    0    0    0  0.00000000000E+00  0.00000000000E+00  0.99999998245E-14  0.12500000000E+03  0.12500000000E+03 0.  0.
        -13    1    3    3    0    0  0.34722898234E+02 -0.49364108223E+02  0.85316392974E+00  0.60359207211E+02  0.10566000000E+00 0. -1.
         23    2    1    0    0    0  0.24128990974E+02 -0.16929230284E+02 -0.53586242269E+01  0.95041330185E+02  0.90196078331E+02 0.  0.
         13    1    3    3    0    0 -0.10593907259E+02  0.32434877938E+02 -0.62117881566E+01  0.34682122975E+02  0.10566000000E+00 0.  1.
         22    1    1    0    0    0 -0.24128990974E+02  0.16929230284E+02  0.53586242269E+01  0.29958669815E+02  0.00000000000E+00 0. -1.
</event>
<event>
 5    1  0.1764311E-003  0.9118800E+02  0.7818608E-02  0.1130116E+00
         25   -1    0    0    0    0  0.00000000000E+00  0.00000000000E+00  0.99999998245E-14  0.12500000000E+03  0.12500000000E+03 0.  0.
        -13    1    3    3    0    0 -0.48540690101E+02  0.18114385313E+02  0.23295973145E+02  0.56807068922E+02  0.10566000000E+00 0.  1.
         23    2    1    0    0    0 -0.13477597134E+02  0.39120831352E+01  0.26747319513E+02  0.94794551483E+02  0.89853424369E+02 0.  0.
         13    1    3    3    0    0  0.35063092967E+02 -0.14202302178E+02  0.34513463678E+01  0.37987482561E+02  0.10566000000E+00 0. -1.
         22    1    1    0    0    0  0.13477597134E+02 -0.39120831352E+01 -0.26747319513E+02  0.30205448517E+02  0.00000000000E+00 0.  1.
</event>
<event>
 5    1  0.1764311E-003  0.9118800E+02  0.7818608E-02  0.1130116E+00
         25   -1    0    0    0    0  0.00000000000E+00  0.00000000000E+00  0.99999998245E-14  0.12500000000E+03  0.12500000000E+03 0.  0.
        -13    1    3    3    0    0 -0.49900293975E+02 -0.23438945123E+02 -0.24934445386E+01  0.55187425352E+02  0.10566000000E+00 0.  1.
         23    2    1    0    0    0 -0.27972587379E+02  0.90793236881E+01  0.51423159267E+01  0.95144629019E+02  0.90339123611E+02 0.  0.
         13    1    3    3    0    0  0.21927706596E+02  0.32518268811E+02  0.76357604654E+01  0.39957203668E+02  0.10566000000E+00 0. -1.
         22    1    1    0    0    0  0.27972587379E+02 -0.90793236881E+01 -0.51423159267E+01  0.29855370981E+02  0.00000000000E+00 0.  1.
</event>
<event>
 5    1  0.1764311E-003  0.9118800E+02  0.7818608E-02  0.1130116E+00
         25   -1    0    0    0    0  0.00000000000E+00  0.00000000000E+00  0.99999998245E-14  0.12500000000E+03  0.12500000000E+03 0.  0.
        -13    1    3    3    0    0  0.48850452819E+01  0.36215320624E+02  0.49730027691E+02  0.61713045083E+02  0.10566000000E+00 0. -1.
         23    2    1    0    0    0 -0.26775875608E+01  0.19969546185E+02  0.33592987877E+02  0.85828057433E+02  0.76367626375E+02 0.  0.
         13    1    3    3    0    0 -0.75626328428E+01 -0.16245774439E+02 -0.16137039813E+02  0.24115012350E+02  0.10566000000E+00 0.  1.
         22    1    1    0    0    0  0.26775875608E+01 -0.19969546185E+02 -0.33592987877E+02  0.39171942567E+02  0.00000000000E+00 0. -1.
</event>
<event>
 5    1  0.1764311E-003  0.9118800E+02  0.7818608E-02  0.1130116E+00
         25   -1    0    0    0    0  0.00000000000E+00  0.00000000000E+00  0.99999998245E-14  0.12500000000E+03  0.12500000000E+03 0.  0.
        -13    1    3    3    0    0  0.29881161230E+01 -0.20342286120E+02  0.26718386877E+02  0.33713807318E+02  0.10566000000E+00 0.  1.
         23    2    1    0    0    0 -0.24592725802E+02  0.16325465209E+02 -0.11392066353E+02  0.93359801637E+02  0.87834790426E+02 0.  0.
         13    1    3    3    0    0 -0.27580841925E+02  0.36667751329E+02 -0.38110453230E+02  0.59645994319E+02  0.10566000000E+00 0. -1.
         22    1    1    0    0    0  0.24592725802E+02 -0.16325465209E+02  0.11392066353E+02  0.31640198363E+02  0.00000000000E+00 0. -1.
</event>
<event>
 5    1  0.1764311E-003  0.9118800E+02  0.7818608E-02  0.1130116E+00
         25   -1    0    0    0    0  0.00000000000E+00  0.00000000000E+00  0.99999998245E-14  0.12500000000E+03  0.12500000000E+03 0.  0.
        -13    1    3    3    0    0 -0.16240880938E+02  0.35723838938E+02 -0.35496120118E+02  0.52914502640E+02  0.10566000000E+00 0. -1.
         23    2    1    0    0    0 -0.95455108486E+01 -0.61976057662E+01 -0.26287426206E+02  0.96354653587E+02  0.91998170617E+02 0.  0.
         13    1    3    3    0    0  0.66953700896E+01 -0.41921444704E+02  0.92086939125E+01  0.43440150948E+02  0.10566000000E+00 0.  1.
         22    1    1    0    0    0  0.95455108486E+01  0.61976057662E+01  0.26287426206E+02  0.28645346413E+02  0.00000000000E+00 0. -1.
</event>
<event>
 5    1  0.1764311E-003  0.9118800E+02  0.7818608E-02  0.1130116E+00
         25   -1    0    0    0    0  0.00000000000E+00  0.00000000000E+00  0.99999998245E-14  0.12500000000E+03  0.12500000000E+03 0.  0.
        -13    1    3    3    0    0 -0.11372486976E+02  0.51924654530E+02  0.25698204699E+02  0.59041613265E+02  0.10566000000E+00 0. -1.
         23    2    1    0    0    0  0.85894479694E+01  0.26900774097E+02  0.78568272875E+01  0.95688568809E+02  0.91088650239E+02 0.  0.
         13    1    3    3    0    0  0.19961934945E+02 -0.25023880434E+02 -0.17841377411E+02  0.36646955545E+02  0.10566000000E+00 0.  1.
         22    1    1    0    0    0 -0.85894479694E+01 -0.26900774097E+02 -0.78568272875E+01  0.29311431191E+02  0.00000000000E+00 0. -1.
</event>
<event>
 5    1  0.1764311E-003  0.9118800E+02  0.7818608E-02  0.1130116E+00
         25   -1    0    0    0    0  0.00000000000E+00  0.00000000000E+00  0.99999998245E-14  0.12500000000E+03  0.12500000000E+03 0.  0.
        -13    1    3    3    0    0 -0.23589880315E+02  0.42590077326E+02 -0.10840582815E+02  0.49879119276E+02  0.10566000000E+00 0.  1.
         23    2    1    0    0    0  0.10262737178E+02  0.31424057311E+02  0.90850471658E+01  0.90716866621E+02  0.83989384182E+02 0.  0.
         13    1    3    3    0    0  0.33852617493E+02 -0.11166020015E+02  0.19925629981E+02  0.40837747345E+02  0.10566000000E+00 0. -1.
         22    1    1    0    0    0 -0.10262737178E+02 -0.31424057311E+02 -0.90850471658E+01  0.34283133379E+02  0.00000000000E+00 0.  1.
</event>
<event>
 5    1  0.1764311E-003  0.9118800E+02  0.7818608E-02  0.1130116E+00
         25   -1    0    0    0    0  0.00000000000E+00  0.00000000000E+00  0.99999998245E-14  0.12500000000E+03  0.12500000000E+03 0.  0.
        -13    1    3    3    0    0 -0.26631655401E+02 -0.34867271410E+02 -0.22063189204E+02  0.49109746149E+02  0.10566000000E+00 0.  1.
         23    2    1    0    0    0 -0.26275351101E+02 -0.22264585951E+01  0.11769959824E+02  0.96122965048E+02  0.91682829701E+02 0.  0.
         13    1    3    3    0    0  0.35630429969E+00  0.32640812815E+02  0.33833149029E+02  0.47013218898E+02  0.10566000000E+00 0. -1.
         22    1    1    0    0    0  0.26275351101E+02  0.22264585951E+01 -0.11769959824E+02  0.28877034952E+02  0.00000000000E+00 0.  1.
</event>
<event>
 5    1  0.1764311E-003  0.9118800E+02  0.7818608E-02  0.1130116E+00
         25   -1    0    0    0    0  0.00000000000E+00  0.00000000000E+00  0.99999998245E-14  0.12500000000E+03  0.12500000000E+03 0.  0.
        -13    1    3    3    0    0 -0.39595216972E+02  0.46313643064E+02 -0.24866962877E+01  0.60983026847E+02  0.10566000000E+00 0.  1.
         23    2    1    0    0    0 -0.20067522319E+02  0.21030738902E+02 -0.10794029899E+02  0.93991799274E+02  0.88729644530E+02 0.  0.
         13    1    3    3    0    0  0.19527694653E+02 -0.25282904162E+02 -0.83073336115E+01  0.33008772426E+02  0.10566000000E+00 0. -1.
         22    1    1    0    0    0  0.20067522319E+02 -0.21030738902E+02  0.10794029899E+02  0.31008200726E+02  0.00000000000E+00 0.  1.
</event>
<event>
 5    1  0.1764311E-003  0.9118800E+02  0.7818608E-02  0.1130116E+00
         25   -1    0    0    0    0  0.00000000000E+00  0.00000000000E+00  0.99999998245E-14  0.12500000000E+03  0.12500000000E+03 0.  0.
        -13    1    3    3    0    0  0.26403122557E+02 -0.19423500411E+02  0.21691125626E+02  0.39305385686E+02  0.10566000000E+00 0. -1.
         23    2    1    0    0    0 -0.47745759486E+01 -0.13130758928E+02 -0.25329054558E+02  0.96072946740E+02  0.91614609561E+02 0.  0.
         13    1    3    3    0    0 -0.31177698506E+02  0.62927414836E+01 -0.47020180184E+02  0.56767561054E+02  0.10566000000E+00 0.  1.
         22    1    1    0    0    0  0.47745759486E+01  0.13130758928E+02  0.25329054558E+02  0.28927053260E+02  0.00000000000E+00 0.  1.
</event>
<event>
 5    1  0.1764311E-003  0.9118800E+02  0.7818608E-02  0.1130116E+00
         25   -1    0    0    0    0  0.00000000000E+00  0.00000000000E+00  0.99999998245E-14  0.12500000000E+03  0.12500000000E+03 0.  0.
        -13    1    3    3    0    0  0.48528146891E+02 -0.23735300220E+02  0.80477945010E+01  0.54617979435E+02  0.10566000000E+00 0. -1.
         23    2    1    0    0    0  0.36186388746E+02  0.62484634677E+01 -0.94290783872E+00  0.88265995299E+02  0.80258948565E+02 0.  0.
         13    1    3    3    0    0 -0.12341758145E+02  0.29983763688E+02 -0.89907023397E+01  0.33648015864E+02  0.10566000000E+00 0.  1.
         22    1    1    0    0    0 -0.36186388746E+02 -0.62484634677E+01  0.94290783872E+00  0.36734004701E+02  0.00000000000E+00 0. -1.
</event>
<event>
 5    1  0.1764311E-003  0.9118800E+02  0.7818608E-02  0.1130116E+00
         25   -1    0    0    0    0  0.00000000000E+00  0.00000000000E+00  0.99999998245E-14  0.12500000000E+03  0.12500000000E+03 0.  0.
        -13    1    3    3    0    0 -0.17607960675E+02  0.23575465975E+02  0.92474774523E+00  0.29439925229E+02  0.10566000000E+00 0. -1.
         23    2    1    0    0    0  0.23022636887E+02 -0.22888176993E+02  0.79935733854E+01  0.91566369165E+02  0.85244309436E+02 0.  0.
         13    1    3    3    0    0  0.40630597563E+02 -0.46463642968E+02  0.70688256402E+01  0.62126443936E+02  0.10566000000E+00 0.  1.
         22    1    1    0    0    0 -0.23022636887E+02  0.22888176993E+02 -0.79935733854E+01  0.33433630835E+02  0.00000000000E+00 0.  1.
</event>
<event>
 5    1  0.1764311E-003  0.9118800E+02  0.7818608E-02  0.1130116E+00
         25   -1    0    0    0    0  0.00000000000E+00  0.00000000000E+00  0.99999998245E-14  0.12500000000E+03  0.12500000000E+03 0.  0.
        -13    1    3    3    0    0 -0.51363439683E+00  0.12321542503E+02  0.34815476588E+02  0.36935251509E+02  0.10566000000E+00 0. -1.
         23    2    1    0    0    0  0.27341741303E+02 -0.26991110997E+01 -0.13260529553E+02  0.94492662157E+02  0.89432463565E+02 0.  0.
         13    1    3    3    0    0  0.27855375700E+02 -0.15020653603E+02 -0.48076006141E+02  0.57557410648E+02  0.10566000000E+00 0.  1.
         22    1    1    0    0    0 -0.27341741303E+02  0.26991110997E+01  0.13260529553E+02  0.30507337843E+02  0.00000000000E+00 0.  1.
</event>
<event>
 5    1  0.1764311E-003  0.9118800E+02  0.7818608E-02  0.1130116E+00
         25   -1    0    0    0    0  0.00000000000E+00  0.00000000000E+00  0.99999998245E-14  0.12500000000E+03  0.12500000000E+03 0.  0.
        -13    1    3    3    0    0 -0.94624224310E+01  0.16478753712E+02 -0.26508010896E+02  0.32615526485E+02  0.10566000000E+00 0.  1.
         23    2    1    0    0    0  0.29090481942E+01 -0.24951469452E+02  0.17558044017E+02  0.94351618331E+02  0.89235108465E+02 0.  0.
         13    1    3    3    0    0  0.12371470625E+02 -0.41430223164E+02  0.44066054913E+02  0.61736091847E+02  0.10566000000E+00 0. -1.
         22    1    1    0    0    0 -0.29090481942E+01  0.24951469452E+02 -0.17558044017E+02  0.30648381669E+02  0.00000000000E+00 0. -1.
</event>
<event>
 5    1  0.1764311E-003  0.9118800E+02  0.7818608E-02  0.1130116E+00
         25   -1    0    0    0    0  0.00000000000E+00  0.00000000000E+00  0.99999998245E-14  0.12500000000E+03  0.12500000000E+03 0.  0.
        -13    1    3    3    0    0 -0.31793559781E+02 -0.45670750133E+02 -0.81690313688E+01  0.56244040562E+02  0.10566000000E+00 0. -1.
         23    2    1    0    0    0 -0.25319395032E+02 -0.12320776193E+02  0.10427086875E+02  0.94973387946E+02  0.90101870049E+02 0.  0.
         13    1    3    3    0    0  0.64741647497E+01  0.33349973939E+02  0.18596118244E+02  0.38729347383E+02  0.10566000000E+00 0.  1.
         22    1    1    0    0    0  0.25319395032E+02  0.12320776193E+02 -0.10427086875E+02  0.30026612054E+02  0.00000000000E+00 0. -1.
</event>
<event>
 5    1  0.1764311E-003  0.9118800E+02  0.7818608E-02  0.1130116E+00
         25   -1    0    0    0    0  0.00000000000E+00  0.00000000000E+00  0.99999998245E-14  0.12500000000E+03  0.12500000000E+03 0.  0.
        -13    1    3    3    0    0  0.22009009883E+02  0.50508597866E+02  0.28790756875E+02  0.62164570456E+02  0.10566000000E+00 0.  1.
         23    2    1    0    0    0  0.74106200818E+01  0.23939432790E+02  0.89795971818E+01  0.98379577429E+02  0.94709526223E+02 0.  0.
         13    1    3    3    0    0 -0.14598389801E+02 -0.26569165077E+02 -0.19811159694E+02  0.36215006974E+02  0.10566000000E+00 0. -1.
         22    1    1    0    0    0 -0.74106200818E+01 -0.23939432790E+02 -0.89795971818E+01  0.26620422571E+02  0.00000000000E+00 0.  1.
</event>
<event>
 5    1  0.1764311E-003  0.9118800E+02  0.7818608E-02  0.1130116E+00
         25   -1    0    0    0    0  0.00000000000E+00  0.00000000000E+00  0.99999998245E-14  0.12500000000E+03  0.12500000000E+03 0.  0.
        -13    1    3    3    0    0  0.26915729206E+02  0.32131910527E+01  0.28333649062E+02  0.39212088807E+02  0.10566000000E+00 0. -1.
         23    2    1    0    0    0 -0.31977472967E+01  0.82099615966E+01 -0.23798057443E+02  0.99623306061E+02  0.96337046432E+02 0.  0.
         13    1    3    3    0    0 -0.30113476503E+02  0.49967705439E+01 -0.52131706505E+02  0.60411217254E+02  0.10566000000E+00 0.  1.
         22    1    1    0    0    0  0.31977472967E+01 -0.82099615966E+01  0.23798057443E+02  0.25376693939E+02  0.00000000000E+00 0.  1.
</event>
<event>
 5    1  0.1764311E-003  0.9118800E+02  0.7818608E-02  0.1130116E+00
         25   -1    0    0    0    0  0.00000000000E+00  0.00000000000E+00  0.99999998245E-14  0.12500000000E+03  0.12500000000E+03 0.  0.
        -13    1    3    3    0    0  0.59259715334E+01 -0.33559183166E+02  0.26962710607E+01  0.34185039931E+02  0.10566000000E+00 0.  1.
         23    2    1    0    0    0 -0.23238853708E+02  0.19239208683E+02  0.43077932148E+01  0.94524623795E+02  0.89477125283E+02 0.  0.
         13    1    3    3    0    0 -0.29164825241E+02  0.52798391850E+02  0.16115221541E+01  0.60339583865E+02  0.10566000000E+00 0. -1.
         22    1    1    0    0    0  0.23238853708E+02 -0.19239208683E+02 -0.43077932148E+01  0.30475376205E+02  0.00000000000E+00 0. -1.
</event>
<event>
 5    1  0.1764311E-003  0.9118800E+02  0.7818608E-02  0.1130116E+00
         25   -1    0    0    0    0  0.00000000000E+00  0.00000000000E+00  0.99999998245E-14  0.12500000000E+03  0.12500000000E+03 0.  0.
        -13    1    3    3    0    0 -0.44778385111E+02  0.30109088913E+02  0.90479033450E+01  0.54713222600E+02  0.10566000000E+00 0. -1.
         23    2    1    0    0    0 -0.26174073238E+02 -0.42571945575E+01  0.15444366822E+02  0.94312310581E+02  0.89180029408E+02 0.  0.
         13    1    3    3    0    0  0.18604311873E+02 -0.34366283470E+02  0.63964634769E+01  0.39599087980E+02  0.10566000000E+00 0.  1.
         22    1    1    0    0    0  0.26174073238E+02  0.42571945575E+01 -0.15444366822E+02  0.30687689419E+02  0.00000000000E+00 0.  1.
</event>
<event>
 5    1  0.1764311E-003  0.9118800E+02  0.7818608E-02  0.1130116E+00
         25   -1    0    0    0    0  0.00000000000E+00  0.00000000000E+00  0.99999998245E-14  0.12500000000E+03  0.12500000000E+03 0.  0.
        -13    1    3    3    0    0 -0.97173588324E+01  0.57278527810E+02  0.13355138136E+02  0.59612311559E+02  0.10566000000E+00 0.  1.
         23    2    1    0    0    0  0.23508384683E+01  0.23475401223E+02  0.17332294459E+02  0.95724936630E+02  0.91138543754E+02 0.  0.
         13    1    3    3    0    0  0.12068197301E+02 -0.33803126586E+02  0.39771563224E+01  0.36112625071E+02  0.10566000000E+00 0. -1.
         22    1    1    0    0    0 -0.23508384683E+01 -0.23475401223E+02 -0.17332294459E+02  0.29275063370E+02  0.00000000000E+00 0.  1.
</event>
<event>
 5    1  0.1764311E-003  0.9118800E+02  0.7818608E-02  0.1130116E+00
         25   -1    0    0    0    0  0.00000000000E+00  0.00000000000E+00  0.99999998245E-14  0.12500000000E+03  0.12500000000E+03 0.  0.
        -13    1    3    3    0    0 -0.29761368323E+02  0.59747183669E+00 -0.13462258124E+02  0.32670163374E+02  0.10566000000E+00 0. -1.
         23    2    1    0    0    0  0.24522894641E+02  0.11478342269E+02  0.14052292818E+02  0.94494399919E+02  0.89434892407E+02 0.  0.
         13    1    3    3    0    0  0.54284262964E+02  0.10880870433E+02  0.27514550942E+02  0.61824236546E+02  0.10566000000E+00 0.  1.
         22    1    1    0    0    0 -0.24522894641E+02 -0.11478342269E+02 -0.14052292818E+02  0.30505600081E+02  0.00000000000E+00 0.  1.
</event>
<event>
 5    1  0.1764311E-003  0.9118800E+02  0.7818608E-02  0.1130116E+00
         25   -1    0    0    0    0  0.00000000000E+00  0.00000000000E+00  0.99999998245E-14  0.12500000000E+03  0.12500000000E+03 0.  0.
        -13    1    3    3    0    0 -0.48779479437E+02 -0.35021529083E+01 -0.12307137647E+02  0.50429946363E+02  0.10566000000E+00 0. -1.
         23    2    1    0    0    0 -0.15962403476E+02  0.24365731322E+02  0.20113147691E+01  0.95801839532E+02  0.91243958063E+02 0.  0.
         13    1    3    3    0    0  0.32817075961E+02  0.27867884230E+02  0.14318452416E+02  0.45371893169E+02  0.10566000000E+00 0.  1.
         22    1    1    0    0    0  0.15962403476E+02 -0.24365731322E+02 -0.20113147691E+01  0.29198160468E+02  0.00000000000E+00 0.  1.
</event>
<event>
 5    1  0.1764311E-003  0.9118800E+02  0.7818608E-02  0.1130116E+00
         25   -1    0    0    0    0  0.00000000000E+00  0.00000000000E+00  0.99999998245E-14  0.12500000000E+03  0.12500000000E+03 0.  0.
        -13    1    3    3    0    0  0.80229049674E+01  0.49380706542E+02  0.36092631056E+02  0.61688818787E+02  0.10566000000E+00 0. -1.
         23    2    1    0    0    0  0.10306130045E+02  0.22823726847E+02  0.13998368396E+02  0.96310400118E+02  0.91938022762E+02 0.  0.
         13    1    3    3    0    0  0.22832250773E+01 -0.26556979695E+02 -0.22094262661E+02  0.34621581331E+02  0.10566000000E+00 0.  1.
         22    1    1    0    0    0 -0.10306130045E+02 -0.22823726847E+02 -0.13998368396E+02  0.28689599882E+02  0.00000000000E+00 0. -1.
</event>
<event>
 5    1  0.1764311E-003  0.9118800E+02  0.7818608E-02  0.1130116E+00
         25   -1    0    0    0    0  0.00000000000E+00  0.00000000000E+00  0.99999998245E-14  0.12500000000E+03  0.12500000000E+03 0.  0.
        -13    1    3    3    0    0  0.11246614173E+02  0.13785075160E+01  0.41919980444E+02  0.43424446315E+02  0.10566000000E+00 0. -1.
         23    2    1    0    0    0  0.21124714208E+02 -0.15794753469E+02 -0.82489288566E+01  0.97363563638E+02  0.93358935884E+02 0.  0.
         13    1    3    3    0    0  0.98781000354E+01 -0.17173260985E+02 -0.50168909300E+02  0.53939117323E+02  0.10566000000E+00 0.  1.
         22    1    1    0    0    0 -0.21124714208E+02  0.15794753469E+02  0.82489288566E+01  0.27636436362E+02  0.00000000000E+00 0.  1.
</event>
<event>
 5    1  0.1764311E-003  0.9118800E+02  0.7818608E-02  0.1130116E+00
         25   -1    0    0    0    0  0.00000000000E+00  0.00000000000E+00  0.99999998245E-14  0.12500000000E+03  0.12500000000E+03 0.  0.
        -13    1    3    3    0    0 -0.13087059527E+02  0.34793126518E+01 -0.32111278876E+02  0.34849994816E+02  0.10566000000E+00 0.  1.
         23    2    1    0    0    0 -0.47020332070E+00  0.15758990902E+02  0.25460239368E+02  0.95053536534E+02  0.90212993153E+02 0.  0.
         13    1    3    3    0    0  0.12616856207E+02  0.12279678251E+02  0.57571518244E+02  0.60203541718E+02  0.10566000000E+00 0. -1.
         22    1    1    0    0    0  0.47020332070E+00 -0.15758990902E+02 -0.25460239368E+02  0.29946463466E+02  0.00000000000E+00 0. -1.
</event>
<event>
 5    1  0.1764311E-003  0.9118800E+02  0.7818608E-02  0.1130116E+00
         25   -1    0    0    0    0  0.00000000000E+00  0.00000000000E+00  0.99999998245E-14  0.12500000000E+03  0.12500000000E+03 0.  0.
        -13    1    3    3    0    0 -0.17321783094E+02 -0.36731036898E+02  0.12997674855E+02  0.42639933828E+02  0.10566000000E+00 0.  1.
         23    2    1    0    0    0 -0.17611127395E+02  0.17006293630E+02  0.14770636868E+02  0.96407386537E+02  0.92069792192E+02 0.  0.
         13    1    3    3    0    0 -0.28934430086E+00  0.53737330529E+02  0.17729620134E+01  0.53767452709E+02  0.10566000000E+00 0. -1.
         22    1    1    0    0    0  0.17611127395E+02 -0.17006293630E+02 -0.14770636868E+02  0.28592613463E+02  0.00000000000E+00 0. -1.
</event>
<event>
 5    1  0.1764311E-003  0.9118800E+02  0.7818608E-02  0.1130116E+00
         25   -1    0    0    0    0  0.00000000000E+00  0.00000000000E+00  0.99999998245E-14  0.12500000000E+03  0.12500000000E+03 0.  0.
        -13    1    3    3    0    0 -0.45597497815E+02 -0.29220783197E+02 -0.20173880612E+02  0.57792582574E+02  0.10566000000E+00 0. -1.
         23    2    1    0    0    0 -0.91097809763E+01 -0.23729292133E+02 -0.16091961681E+02  0.94916472193E+02  0.90022875139E+02 0.  0.
         13    1    3    3    0    0  0.36487716839E+02  0.54914910633E+01  0.40819189309E+01  0.37123889619E+02  0.10566000000E+00 0.  1.
         22    1    1    0    0    0  0.91097809763E+01  0.23729292133E+02  0.16091961681E+02  0.30083527807E+02  0.00000000000E+00 0. -1.
</event>
<event>
 5    1  0.1764311E-003  0.9118800E+02  0.7818608E-02  0.1130116E+00
         25   -1    0    0    0    0  0.00000000000E+00  0.00000000000E+00  0.99999998245E-14  0.12500000000E+03  0.12500000000E+03 0.  0.
        -13    1    3    3    0    0 -0.25890903755E+02  0.28820364036E+02 -0.29048683807E+01  0.38851019353E+02  0.10566000000E+00 0. -1.
         23    2    1    0    0    0 -0.29558511747E+02 -0.18909597203E+02  0.10153575814E+02  0.88470921379E+02  0.80577480383E+02 0.  0.
         13    1    3    3    0    0 -0.36676079914E+01 -0.47729961239E+02  0.13058444195E+02  0.49619902026E+02  0.10566000000E+00 0.  1.
         22    1    1    0    0    0  0.29558511747E+02  0.18909597203E+02 -0.10153575814E+02  0.36529078621E+02  0.00000000000E+00 0.  1.
</event>
<event>
 5    1  0.1764311E-003  0.9118800E+02  0.7818608E-02  0.1130116E+00
         25   -1    0    0    0    0  0.00000000000E+00  0.00000000000E+00  0.99999998245E-14  0.12500000000E+03  0.12500000000E+03 0.  0.
        -13    1    3    3    0    0 -0.15729646743E+02  0.32615625534E+02 -0.11216885847E+02  0.37908185235E+02  0.10566000000E+00 0. -1.
         23    2    1    0    0    0  0.14559969367E+02 -0.16252731019E+02 -0.19175951440E+02  0.95950712794E+02  0.91447680115E+02 0.  0.
         13    1    3    3    0    0  0.30289616110E+02 -0.48868356553E+02 -0.79590655926E+01  0.58042527559E+02  0.10566000000E+00 0.  1.
         22    1    1    0    0    0 -0.14559969367E+02  0.16252731019E+02  0.19175951440E+02  0.29049287206E+02  0.00000000000E+00 0.  1.
</event>
<event>
 5    1  0.1764311E-003  0.9118800E+02  0.7818608E-02  0.1130116E+00
         25   -1    0    0    0    0  0.00000000000E+00  0.00000000000E+00  0.99999998245E-14  0.12500000000E+03  0.12500000000E+03 0.  0.
        -13    1    3    3    0    0  0.23451679178E+02  0.23507879046E+02 -0.73848961151E+01  0.34016900037E+02  0.10566000000E+00 0.  1.
         23    2    1    0    0    0 -0.76556649339E+01 -0.27358888901E+02  0.77883327074E+01  0.95541959776E+02  0.90887237520E+02 0.  0.
         13    1    3    3    0    0 -0.31107344112E+02 -0.50866767946E+02  0.15173228823E+02  0.61525059739E+02  0.10566000000E+00 0. -1.
         22    1    1    0    0    0  0.76556649339E+01  0.27358888901E+02 -0.77883327074E+01  0.29458040224E+02  0.00000000000E+00 0. -1.
</event>
<event>
 5    1  0.1764311E-003  0.9118800E+02  0.7818608E-02  0.1130116E+00
         25   -1    0    0    0    0  0.00000000000E+00  0.00000000000E+00  0.99999998245E-14  0.12500000000E+03  0.12500000000E+03 0.  0.
        -13    1    3    3    0    0  0.18820056699E+02  0.12020727150E+01  0.29201914550E+02  0.34762084092E+02  0.10566000000E+00 0.  1.
         23    2    1    0    0    0 -0.13849438786E+02  0.12370603799E+02 -0.21807314380E+02  0.96357413638E+02  0.92001920684E+02 0.  0.
         13    1    3    3    0    0 -0.32669495485E+02  0.11168531084E+02 -0.51009228930E+02  0.61595329546E+02  0.10566000000E+00 0. -1.
         22    1    1    0    0    0  0.13849438786E+02 -0.12370603799E+02  0.21807314380E+02  0.28642586362E+02  0.00000000000E+00 0. -1.
</event>
<event>
 5    1  0.1764311E-003  0.9118800E+02  0.7818608E-02  0.1130116E+00
         25   -1    0    0    0    0  0.00000000000E+00  0.00000000000E+00  0.99999998245E-14  0.12500000000E+03  0.12500000000E+03 0.  0.
        -13    1    3    3    0    0  0.36088839233E+02  0.32057635548E+02  0.32040859206E+02  0.57937243090E+02  0.10566000000E+00 0.  1.
         23    2    1    0    0    0  0.18685643727E+02  0.24236536347E+02  0.99140793742E+00  0.94380629247E+02  0.89275737531E+02 0.  0.
         13    1    3    3    0    0 -0.17403195506E+02 -0.78210992011E+01 -0.31049451268E+02  0.36443386157E+02  0.10566000000E+00 0. -1.
         22    1    1    0    0    0 -0.18685643727E+02 -0.24236536347E+02 -0.99140793742E+00  0.30619370753E+02  0.00000000000E+00 0. -1.
</event>
<event>
 5    1  0.1764311E-003  0.9118800E+02  0.7818608E-02  0.1130116E+00
         25   -1    0    0    0    0  0.00000000000E+00  0.00000000000E+00  0.99999998245E-14  0.12500000000E+03  0.12500000000E+03 0.  0.
        -13    1    3    3    0    0 -0.31339968775E+02  0.10780558567E+02  0.19560415427E+02  0.38484218863E+02  0.10566000000E+00 0.  1.
         23    2    1    0    0    0  0.16700203687E+02 -0.19885740428E+02  0.13309681933E+02  0.95819747967E+02  0.91268488492E+02 0.  0.
         13    1    3    3    0    0  0.48040172462E+02 -0.30666298995E+02 -0.62507334937E+01  0.57335529103E+02  0.10566000000E+00 0. -1.
         22    1    1    0    0    0 -0.16700203687E+02  0.19885740428E+02 -0.13309681933E+02  0.29180252033E+02  0.00000000000E+00 0. -1.
</event>
<event>
 5    1  0.1764311E-003  0.9118800E+02  0.7818608E-02  0.1130116E+00
         25   -1    0    0    0    0  0.00000000000E+00  0.00000000000E+00  0.99999998245E-14  0.12500000000E+03  0.12500000000E+03 0.  0.
        -13    1    3    3    0    0  0.54183098245E+02  0.28432067575E+02  0.26858026428E+01  0.61248798371E+02  0.10566000000E+00 0. -1.
         23    2    1    0    0    0  0.25744412313E+02  0.46278481165E+01  0.48444985908E+01  0.98398103261E+02  0.94733973923E+02 0.  0.
         13    1    3    3    0    0 -0.28438685932E+02 -0.23804219458E+02  0.21586959479E+01  0.37149304890E+02  0.10566000000E+00 0.  1.
         22    1    1    0    0    0 -0.25744412313E+02 -0.46278481165E+01 -0.48444985908E+01  0.26601896739E+02  0.00000000000E+00 0. -1.
</event>
<event>
 5    1  0.1764311E-003  0.9118800E+02  0.7818608E-02  0.1130116E+00
         25   -1    0    0    0    0  0.00000000000E+00  0.00000000000E+00  0.99999998245E-14  0.12500000000E+03  0.12500000000E+03 0.  0.
        -13    1    3    3    0    0  0.40707586751E+02  0.64366508695E+01 -0.45705968004E+02  0.61543356820E+02  0.10566000000E+00 0.  1.
         23    2    1    0    0    0  0.20754078137E+02  0.96706272385E+01 -0.17815211429E+02  0.95989061567E+02  0.91500084108E+02 0.  0.
         13    1    3    3    0    0 -0.19953508615E+02  0.32339763690E+01  0.27890756574E+02  0.34445704747E+02  0.10566000000E+00 0. -1.
         22    1    1    0    0    0 -0.20754078137E+02 -0.96706272385E+01  0.17815211429E+02  0.29010938433E+02  0.00000000000E+00 0.  1.
</event>
<event>
 5    1  0.1764311E-003  0.9118800E+02  0.7818608E-02  0.1130116E+00
         25   -1    0    0    0    0  0.00000000000E+00  0.00000000000E+00  0.99999998245E-14  0.12500000000E+03  0.12500000000E+03 0.  0.
        -13    1    3    3    0    0  0.20418266527E+02  0.23921638060E+02  0.26587202592E+02  0.41183016902E+02  0.10566000000E+00 0. -1.
         23    2    1    0    0    0 -0.27125817008E+02  0.10531312946E+02  0.35472243236E+01  0.95686158541E+02  0.91085342592E+02 0.  0.
         13    1    3    3    0    0 -0.47544083535E+02 -0.13390325114E+02 -0.23039978269E+02  0.54503141639E+02  0.10566000000E+00 0.  1.
         22    1    1    0    0    0  0.27125817008E+02 -0.10531312946E+02 -0.35472243236E+01  0.29313841459E+02  0.00000000000E+00 0.  1.
</event>
<event>
 5    1  0.1764311E-003  0.9118800E+02  0.7818608E-02  0.1130116E+00
         25   -1    0    0    0    0  0.00000000000E+00  0.00000000000E+00  0.99999998245E-14  0.12500000000E+03  0.12500000000E+03 0.  0.
        -13    1    3    3    0    0  0.57609184453E+01  0.61685279935E+02 -0.66200869874E+01  0.62306489692E+02  0.10566000000E+00 0. -1.
         23    2    1    0    0    0 -0.67647231479E+00  0.29741078683E+02 -0.36511751150E+01  0.95028005476E+02  0.90177610132E+02 0.  0.
         13    1    3    3    0    0 -0.64373907601E+01 -0.31944201253E+02  0.29689118724E+01  0.32721515784E+02  0.10566000000E+00 0.  1.
         22    1    1    0    0    0  0.67647231479E+00 -0.29741078683E+02  0.36511751150E+01  0.29971994524E+02  0.00000000000E+00 0. -1.
</event>
<event>
 5    1  0.1764311E-003  0.9118800E+02  0.7818608E-02  0.1130116E+00
         25   -1    0    0    0    0  0.00000000000E+00  0.00000000000E+00  0.99999998245E-14  0.12500000000E+03  0.12500000000E+03 0.  0.
        -13    1    3    3    0    0 -0.52471588219E+02  0.10686937813E+02 -0.18783772497E+02  0.56747858844E+02  0.10566000000E+00 0.  1.
         23    2    1    0    0    0 -0.24824005311E+02  0.13497559391E+02  0.82970022495E+01  0.95550796352E+02  0.90899389921E+02 0.  0.
         13    1    3    3    0    0  0.27647582909E+02  0.28106215788E+01  0.27080774747E+02  0.38802937508E+02  0.10566000000E+00 0. -1.
         22    1    1    0    0    0  0.24824005311E+02 -0.13497559391E+02 -0.82970022495E+01  0.29449203648E+02  0.00000000000E+00 0.  1.
</event>
<event>
 5    1  0.1764311E-003  0.9118800E+02  0.7818608E-02  0.1130116E+00
         25   -1    0    0    0    0  0.00000000000E+00  0.00000000000E+00  0.99999998245E-14  0.12500000000E+03  0.12500000000E+03 0.  0.
        -13    1    3    3    0    0  0.41926138653E+02 -0.32774235650E+02 -0.31792184475E+02  0.61989561884E+02  0.10566000000E+00 0.  1.
         23    2    1    0    0    0  0.23492055308E+02 -0.12125025246E+02 -0.12316078058E+02  0.95835317959E+02  0.91289810438E+02 0.  0.
         13    1    3    3    0    0 -0.18434083345E+02  0.20649210404E+02  0.19476106417E+02  0.33845756075E+02  0.10566000000E+00 0. -1.
         22    1    1    0    0    0 -0.23492055308E+02  0.12125025246E+02  0.12316078058E+02  0.29164682041E+02  0.00000000000E+00 0.  1.
</event>
<event>
 5    1  0.1764311E-003  0.9118800E+02  0.7818608E-02  0.1130116E+00
         25   -1    0    0    0    0  0.00000000000E+00  0.00000000000E+00  0.99999998245E-14  0.12500000000E+03  0.12500000000E+03 0.  0.
        -13    1    3    3    0    0  0.38042228042E+02  0.55296182559E+01 -0.45099945999E+02  0.59260476589E+02  0.10566000000E+00 0.  1.
         23    2    1    0    0    0  0.25813370789E+02 -0.53559866892E+01 -0.12323155970E+02  0.95898850917E+02  0.91376762523E+02 0.  0.
         13    1    3    3    0    0 -0.12228857253E+02 -0.10885604945E+02  0.32776790029E+02  0.36638374327E+02  0.10566000000E+00 0. -1.
         22    1    1    0    0    0 -0.25813370789E+02  0.53559866892E+01  0.12323155970E+02  0.29101149083E+02  0.00000000000E+00 0.  1.
</event>
<event>
 5    1  0.1764311E-003  0.9118800E+02  0.7818608E-02  0.1130116E+00
         25   -1    0    0    0    0  0.00000000000E+00  0.00000000000E+00  0.99999998245E-14  0.12500000000E+03  0.12500000000E+03 0.  0.
        -13    1    3    3    0    0  0.88445323772E+01 -0.23251580172E+02 -0.40239215247E+02  0.47308216424E+02  0.10566000000E+00 0. -1.
         23    2    1    0    0    0 -0.10395480840E+02  0.17319748692E+02 -0.20043786175E+02  0.96543136489E+02  0.92253911149E+02 0.  0.
         13    1    3    3    0    0 -0.19240013217E+02  0.40571328864E+02  0.20195429072E+02  0.49234920065E+02  0.10566000000E+00 0.  1.
         22    1    1    0    0    0  0.10395480840E+02 -0.17319748692E+02  0.20043786175E+02  0.28456863511E+02  0.00000000000E+00 0.  1.
</event>
<event>
 5    1  0.1764311E-003  0.9118800E+02  0.7818608E-02  0.1130116E+00
         25   -1    0    0    0    0  0.00000000000E+00  0.00000000000E+00  0.99999998245E-14  0.12500000000E+03  0.12500000000E+03 0.  0.
        -13    1    3    3    0    0  0.56011923935E+02 -0.97566428046E+01  0.23951451655E+02  0.61694496531E+02  0.10566000000E+00 0.  1.
         23    2    1    0    0    0  0.22850017529E+02 -0.14316433600E+01  0.16740660264E+02  0.96637655071E+02  0.92381890908E+02 0.  0.
         13    1    3    3    0    0 -0.33161906406E+02  0.83249994446E+01 -0.72107913911E+01  0.34943158540E+02  0.10566000000E+00 0. -1.
         22    1    1    0    0    0 -0.22850017529E+02  0.14316433600E+01 -0.16740660264E+02  0.28362344929E+02  0.00000000000E+00 0.  1.
</event>
<event>
 5    1  0.1764311E-003  0.9118800E+02  0.7818608E-02  0.1130116E+00
         25   -1    0    0    0    0  0.00000000000E+00  0.00000000000E+00  0.99999998245E-14  0.12500000000E+03  0.12500000000E+03 0.  0.
        -13    1    3    3    0    0  0.19854437849E+02  0.24328430472E+02  0.24184799978E+02  0.39635677684E+02  0.10566000000E+00 0. -1.
         23    2    1    0    0    0  0.20809047167E+02 -0.11344079257E+02 -0.18254749463E+02  0.95084444579E+02  0.90255809479E+02 0.  0.
         13    1    3    3    0    0  0.95460931862E+00 -0.35672509729E+02 -0.42439549441E+02  0.55448766894E+02  0.10566000000E+00 0.  1.
         22    1    1    0    0    0 -0.20809047167E+02  0.11344079257E+02  0.18254749463E+02  0.29915555421E+02  0.00000000000E+00 0.  1.
</event>
<event>
 5    1  0.1764311E-003  0.9118800E+02  0.7818608E-02  0.1130116E+00
         25   -1    0    0    0    0  0.00000000000E+00  0.00000000000E+00  0.99999998245E-14  0.12500000000E+03  0.12500000000E+03 0.  0.
        -13    1    3    3    0    0  0.33737229905E+02 -0.37023511790E+02 -0.32481559346E+02  0.59699279464E+02  0.10566000000E+00 0.  1.
         23    2    1    0    0    0  0.21816556526E+02 -0.55523287097E+01 -0.17248955197E+02  0.96639517843E+02  0.92384411352E+02 0.  0.
         13    1    3    3    0    0 -0.11920673379E+02  0.31471183080E+02  0.15232604149E+02  0.36940238379E+02  0.10566000000E+00 0. -1.
         22    1    1    0    0    0 -0.21816556526E+02  0.55523287097E+01  0.17248955197E+02  0.28360482157E+02  0.00000000000E+00 0.  1.
</event>
<event>
 5    1  0.1764311E-003  0.9118800E+02  0.7818608E-02  0.1130116E+00
         25   -1    0    0    0    0  0.00000000000E+00  0.00000000000E+00  0.99999998245E-14  0.12500000000E+03  0.12500000000E+03 0.  0.
        -13    1    3    3    0    0 -0.26424963578E+02  0.20163772834E+02 -0.17358274799E+02  0.37499030694E+02  0.10566000000E+00 0.  1.
         23    2    1    0    0    0 -0.12426938021E+02 -0.23712424702E+02  0.15491796087E+02  0.94069374080E+02  0.88838862668E+02 0.  0.
         13    1    3    3    0    0  0.13998025557E+02 -0.43876197535E+02  0.32850070885E+02  0.56570343386E+02  0.10566000000E+00 0. -1.
         22    1    1    0    0    0  0.12426938021E+02  0.23712424702E+02 -0.15491796087E+02  0.30930625920E+02  0.00000000000E+00 0. -1.
</event>
<event>
 5    1  0.1764311E-003  0.9118800E+02  0.7818608E-02  0.1130116E+00
         25   -1    0    0    0    0  0.00000000000E+00  0.00000000000E+00  0.99999998245E-14  0.12500000000E+03  0.12500000000E+03 0.  0.
        -13    1    3    3    0    0 -0.54945227725E+02 -0.51325066264E+01  0.69192690545E+01  0.55616617322E+02  0.10566000000E+00 0. -1.
         23    2    1    0    0    0 -0.23866006336E+02  0.22025283579E+01 -0.17085543260E+02  0.95566121933E+02  0.90920462402E+02 0.  0.
         13    1    3    3    0    0  0.31079221390E+02  0.73350349843E+01 -0.24004812314E+02  0.39949504611E+02  0.10566000000E+00 0.  1.
         22    1    1    0    0    0  0.23866006336E+02 -0.22025283579E+01  0.17085543260E+02  0.29433878067E+02  0.00000000000E+00 0. -1.
</event>
<event>
 5    1  0.1764311E-003  0.9118800E+02  0.7818608E-02  0.1130116E+00
         25   -1    0    0    0    0  0.00000000000E+00  0.00000000000E+00  0.99999998245E-14  0.12500000000E+03  0.12500000000E+03 0.  0.
        -13    1    3    3    0    0 -0.39573431815E+02 -0.12700159062E+02 -0.91582707973E+01  0.42558614097E+02  0.10566000000E+00 0. -1.
         23    2    1    0    0    0 -0.20349723234E+00  0.56531271893E+01 -0.32596394144E+02  0.91916406342E+02  0.85756058594E+02 0.  0.
         13    1    3    3    0    0  0.39369934583E+02  0.18353286251E+02 -0.23438123346E+02  0.49357792245E+02  0.10566000000E+00 0.  1.
         22    1    1    0    0    0  0.20349723234E+00 -0.56531271893E+01  0.32596394144E+02  0.33083593658E+02  0.00000000000E+00 0.  1.
</event>
<event>
 5    1  0.1764311E-003  0.9118800E+02  0.7818608E-02  0.1130116E+00
         25   -1    0    0    0    0  0.00000000000E+00  0.00000000000E+00  0.99999998245E-14  0.12500000000E+03  0.12500000000E+03 0.  0.
        -13    1    3    3    0    0 -0.56730518082E+02  0.12559675173E+02 -0.10916868462E+02  0.59120946401E+02  0.10566000000E+00 0.  1.
         23    2    1    0    0    0 -0.27270383853E+02 -0.59302331550E+01  0.36973221177E+01  0.96848415824E+02  0.92666628060E+02 0.  0.
         13    1    3    3    0    0  0.29460134229E+02 -0.18489908328E+02  0.14614190580E+02  0.37727469423E+02  0.10566000000E+00 0. -1.
         22    1    1    0    0    0  0.27270383853E+02  0.59302331550E+01 -0.36973221177E+01  0.28151584176E+02  0.00000000000E+00 0.  1.
</event>
<event>
 5    1  0.1764311E-003  0.9118800E+02  0.7818608E-02  0.1130116E+00
         25   -1    0    0    0    0  0.00000000000E+00  0.00000000000E+00  0.99999998245E-14  0.12500000000E+03  0.12500000000E+03 0.  0.
        -13    1    3    3    0    0 -0.48581711663E+02  0.19729085758E+01  0.24956538977E+02  0.54652676770E+02  0.10566000000E+00 0.  1.
         23    2    1    0    0    0 -0.77342282398E+01 -0.45207208312E+01  0.27486403473E+02  0.96090527864E+02  0.91638594304E+02 0.  0.
         13    1    3    3    0    0  0.40847483423E+02 -0.64936294069E+01  0.25298644958E+01  0.41437851094E+02  0.10566000000E+00 0. -1.
         22    1    1    0    0    0  0.77342282398E+01  0.45207208312E+01 -0.27486403473E+02  0.28909472136E+02  0.00000000000E+00 0.  1.
</event>
<event>
 5    1  0.1764311E-003  0.9118800E+02  0.7818608E-02  0.1130116E+00
         25   -1    0    0    0    0  0.00000000000E+00  0.00000000000E+00  0.99999998245E-14  0.12500000000E+03  0.12500000000E+03 0.  0.
        -13    1    3    3    0    0 -0.36888581842E+02  0.13759638753E+02 -0.16148755873E+02  0.42554536882E+02  0.10566000000E+00 0.  1.
         23    2    1    0    0    0 -0.49254041970E+00 -0.98380837283E+01 -0.34105038640E+02  0.89500927503E+02  0.82159794765E+02 0.  0.
         13    1    3    3    0    0  0.36396041423E+02 -0.23597722481E+02 -0.17956282767E+02  0.46946390621E+02  0.10566000000E+00 0. -1.
         22    1    1    0    0    0  0.49254041970E+00  0.98380837283E+01  0.34105038640E+02  0.35499072497E+02  0.00000000000E+00 0.  1.
</event>
<event>
 5    1  0.1764311E-003  0.9118800E+02  0.7818608E-02  0.1130116E+00
         25   -1    0    0    0    0  0.00000000000E+00  0.00000000000E+00  0.99999998245E-14  0.12500000000E+03  0.12500000000E+03 0.  0.
        -13    1    3    3    0    0  0.50264188200E+02 -0.16794413987E+02 -0.11150576909E+02  0.54156139874E+02  0.10566000000E+00 0.  1.
         23    2    1    0    0    0  0.11074419615E+02 -0.12941065803E+02 -0.23992686791E+02  0.95576149582E+02  0.90934247650E+02 0.  0.
         13    1    3    3    0    0 -0.39189768585E+02  0.38533481833E+01 -0.12842109883E+02  0.41420009709E+02  0.10566000000E+00 0. -1.
         22    1    1    0    0    0 -0.11074419615E+02  0.12941065803E+02  0.23992686791E+02  0.29423850418E+02  0.00000000000E+00 0.  1.
</event>
<event>
 5    1  0.1764311E-003  0.9118800E+02  0.7818608E-02  0.1130116E+00
         25   -1    0    0    0    0  0.00000000000E+00  0.00000000000E+00  0.99999998245E-14  0.12500000000E+03  0.12500000000E+03 0.  0.
        -13    1    3    3    0    0  0.16297240316E+02  0.25731314386E+02  0.36713462456E+02  0.47703145300E+02  0.10566000000E+00 0.  1.
         23    2    1    0    0    0 -0.22560091241E+02  0.16471968649E+02  0.12660808143E+02  0.94331130917E+02  0.89206405204E+02 0.  0.
         13    1    3    3    0    0 -0.38857331557E+02 -0.92593457376E+01 -0.24052654313E+02  0.46627985618E+02  0.10566000000E+00 0. -1.
         22    1    1    0    0    0  0.22560091241E+02 -0.16471968649E+02 -0.12660808143E+02  0.30668869083E+02  0.00000000000E+00 0. -1.
</event>
<event>
 5    1  0.1764311E-003  0.9118800E+02  0.7818608E-02  0.1130116E+00
         25   -1    0    0    0    0  0.00000000000E+00  0.00000000000E+00  0.99999998245E-14  0.12500000000E+03  0.12500000000E+03 0.  0.
        -13    1    3    3    0    0  0.42295338417E+02  0.12796524234E+02  0.41420470980E+02  0.60566601890E+02  0.10566000000E+00 0.  1.
         23    2    1    0    0    0  0.80839701278E+01  0.10109401929E+02  0.20493259519E+02  0.10076110015E+03  0.97802224089E+02 0.  0.
         13    1    3    3    0    0 -0.34211368289E+02 -0.26871223054E+01 -0.20927211461E+02  0.40194498257E+02  0.10566000000E+00 0. -1.
         22    1    1    0    0    0 -0.80839701278E+01 -0.10109401929E+02 -0.20493259519E+02  0.24238899853E+02  0.00000000000E+00 0.  1.
</event>
<event>
 5    1  0.1764311E-003  0.9118800E+02  0.7818608E-02  0.1130116E+00
         25   -1    0    0    0    0  0.00000000000E+00  0.00000000000E+00  0.99999998245E-14  0.12500000000E+03  0.12500000000E+03 0.  0.
        -13    1    3    3    0    0 -0.74993114582E+01 -0.30521041442E+02  0.12488457837E+02  0.33819319718E+02  0.10566000000E+00 0. -1.
         23    2    1    0    0    0 -0.64895735278E+01  0.24649786730E+02 -0.14954822234E+02  0.95447110827E+02  0.90756695107E+02 0.  0.
         13    1    3    3    0    0  0.10097379304E+01  0.55170828172E+02 -0.27443280071E+02  0.61627791109E+02  0.10566000000E+00 0.  1.
         22    1    1    0    0    0  0.64895735278E+01 -0.24649786730E+02  0.14954822234E+02  0.29552889173E+02  0.00000000000E+00 0.  1.
</event>
<event>
 5    1  0.1764311E-003  0.9118800E+02  0.7818608E-02  0.1130116E+00
         25   -1    0    0    0    0  0.00000000000E+00  0.00000000000E+00  0.99999998245E-14  0.12500000000E+03  0.12500000000E+03 0.  0.
        -13    1    3    3    0    0 -0.13625528164E+02 -0.31478619345E+02  0.22415414035E+02  0.40975851962E+02  0.10566000000E+00 0.  1.
         23    2    1    0    0    0 -0.23180972570E+02  0.14793535277E+02 -0.69884360587E+01  0.96626695401E+02  0.92367060418E+02 0.  0.
         13    1    3    3    0    0 -0.95554444063E+01  0.46272154622E+02 -0.29403850094E+02  0.55650843440E+02  0.10566000000E+00 0. -1.
         22    1    1    0    0    0  0.23180972570E+02 -0.14793535277E+02  0.69884360587E+01  0.28373304599E+02  0.00000000000E+00 0. -1.
</event>
<event>
 5    1  0.1764311E-003  0.9118800E+02  0.7818608E-02  0.1130116E+00
         25   -1    0    0    0    0  0.00000000000E+00  0.00000000000E+00  0.99999998245E-14  0.12500000000E+03  0.12500000000E+03 0.  0.
        -13    1    3    3    0    0 -0.20177044697E+02  0.41653731286E+01  0.25432973234E+02  0.32730883849E+02  0.10566000000E+00 0. -1.
         23    2    1    0    0    0  0.25662678649E+02 -0.14529820970E+02 -0.10275066897E+02  0.93770754531E+02  0.88417694116E+02 0.  0.
         13    1    3    3    0    0  0.45839723346E+02 -0.18695194099E+02 -0.35708040130E+02  0.61039870681E+02  0.10566000000E+00 0.  1.
         22    1    1    0    0    0 -0.25662678649E+02  0.14529820970E+02  0.10275066897E+02  0.31229245469E+02  0.00000000000E+00 0.  1.
</event>
<event>
 5    1  0.1764311E-003  0.9118800E+02  0.7818608E-02  0.1130116E+00
         25   -1    0    0    0    0  0.00000000000E+00  0.00000000000E+00  0.99999998245E-14  0.12500000000E+03  0.12500000000E+03 0.  0.
        -13    1    3    3    0    0 -0.22383138134E+02  0.40378192729E+02 -0.28392633784E+02  0.54199226361E+02  0.10566000000E+00 0.  1.
         23    2    1    0    0    0 -0.27769057180E+02  0.80069335089E+01 -0.25165107575E+01  0.95990271507E+02  0.91501737015E+02 0.  0.
         13    1    3    3    0    0 -0.53859190451E+01 -0.32371259220E+02  0.25876123027E+02  0.41791045146E+02  0.10566000000E+00 0. -1.
         22    1    1    0    0    0  0.27769057180E+02 -0.80069335089E+01  0.25165107575E+01  0.29009728493E+02  0.00000000000E+00 0. -1.
</event>
<event>
 5    1  0.1764311E-003  0.9118800E+02  0.7818608E-02  0.1130116E+00
         25   -1    0    0    0    0  0.00000000000E+00  0.00000000000E+00  0.99999998245E-14  0.12500000000E+03  0.12500000000E+03 0.  0.
        -13    1    3    3    0    0  0.16328635739E+02  0.29169699546E+02  0.13521091586E+02  0.36060044348E+02  0.10566000000E+00 0.  1.
         23    2    1    0    0    0 -0.14784377844E+02 -0.19541231732E+02 -0.10095159254E+02  0.98498116931E+02  0.94865848612E+02 0.  0.
         13    1    3    3    0    0 -0.31113013583E+02 -0.48710931277E+02 -0.23616250840E+02  0.62438072583E+02  0.10566000000E+00 0. -1.
         22    1    1    0    0    0  0.14784377844E+02  0.19541231732E+02  0.10095159254E+02  0.26501883069E+02  0.00000000000E+00 0. -1.
</event>
<event>
 5    1  0.1764311E-003  0.9118800E+02  0.7818608E-02  0.1130116E+00
         25   -1    0    0    0    0  0.00000000000E+00  0.00000000000E+00  0.99999998245E-14  0.12500000000E+03  0.12500000000E+03 0.  0.
        -13    1    3    3    0    0 -0.11409276335E+02 -0.32582294742E+02  0.25288485163E+02  0.42793646292E+02  0.10566000000E+00 0. -1.
         23    2    1    0    0    0 -0.27817075619E+02  0.67798508918E+01 -0.60763289140E+01  0.95730940446E+02  0.91146777845E+02 0.  0.
         13    1    3    3    0    0 -0.16407799284E+02  0.39362145633E+02 -0.31364814077E+02  0.52937294154E+02  0.10566000000E+00 0.  1.
         22    1    1    0    0    0  0.27817075619E+02 -0.67798508918E+01  0.60763289140E+01  0.29269059554E+02  0.00000000000E+00 0. -1.
</event>
<event>
 5    1  0.1764311E-003  0.9118800E+02  0.7818608E-02  0.1130116E+00
         25   -1    0    0    0    0  0.00000000000E+00  0.00000000000E+00  0.99999998245E-14  0.12500000000E+03  0.12500000000E+03 0.  0.
        -13    1    3    3    0    0 -0.57477592699E+01 -0.21066728003E+02  0.27026981429E+02  0.34746404915E+02  0.10566000000E+00 0. -1.
         23    2    1    0    0    0  0.14392503239E+02  0.17414516473E+02 -0.17102389971E+02  0.96664487367E+02  0.92418189994E+02 0.  0.
         13    1    3    3    0    0  0.20140262508E+02  0.38481244475E+02 -0.44129371400E+02  0.61918082452E+02  0.10566000000E+00 0.  1.
         22    1    1    0    0    0 -0.14392503239E+02 -0.17414516473E+02  0.17102389971E+02  0.28335512633E+02  0.00000000000E+00 0.  1.
</event>
<event>
 5    1  0.1764311E-003  0.9118800E+02  0.7818608E-02  0.1130116E+00
         25   -1    0    0    0    0  0.00000000000E+00  0.00000000000E+00  0.99999998245E-14  0.12500000000E+03  0.12500000000E+03 0.  0.
        -13    1    3    3    0    0 -0.44679384898E+02  0.18252456849E+02  0.26880181841E+02  0.55244501588E+02  0.10566000000E+00 0.  1.
         23    2    1    0    0    0 -0.21436463309E+02  0.17131855448E+02 -0.73095111565E+01  0.96601912324E+02  0.92333515481E+02 0.  0.
         13    1    3    3    0    0  0.23242921590E+02 -0.11206014002E+01 -0.34189692997E+02  0.41357410736E+02  0.10566000000E+00 0. -1.
         22    1    1    0    0    0  0.21436463309E+02 -0.17131855448E+02  0.73095111565E+01  0.28398087676E+02  0.00000000000E+00 0.  1.
</event>
<event>
 5    1  0.1764311E-003  0.9118800E+02  0.7818608E-02  0.1130116E+00
         25   -1    0    0    0    0  0.00000000000E+00  0.00000000000E+00  0.99999998245E-14  0.12500000000E+03  0.12500000000E+03 0.  0.
        -13    1    3    3    0    0 -0.16443466899E+02 -0.15200005525E+02 -0.34810053820E+02  0.41390563932E+02  0.10566000000E+00 0.  1.
         23    2    1    0    0    0  0.21389965418E+02 -0.19509728468E+02  0.40149371821E+01  0.95771933932E+02  0.91202979573E+02 0.  0.
         13    1    3    3    0    0  0.37833432318E+02 -0.43097229439E+01  0.38824991002E+02  0.54381370000E+02  0.10566000000E+00 0. -1.
         22    1    1    0    0    0 -0.21389965418E+02  0.19509728468E+02 -0.40149371821E+01  0.29228066068E+02  0.00000000000E+00 0. -1.
</event>
<event>
 5    1  0.1764311E-003  0.9118800E+02  0.7818608E-02  0.1130116E+00
         25   -1    0    0    0    0  0.00000000000E+00  0.00000000000E+00  0.99999998245E-14  0.12500000000E+03  0.12500000000E+03 0.  0.
        -13    1    3    3    0    0  0.92115816980E+00  0.13727385947E+02 -0.33488163650E+02  0.36204390977E+02  0.10566000000E+00 0. -1.
         23    2    1    0    0    0 -0.12774311416E+02  0.11650601451E+02  0.24046528869E+02  0.95383195699E+02  0.90668621501E+02 0.  0.
         13    1    3    3    0    0 -0.13695469586E+02 -0.20767844967E+01  0.57534692519E+02  0.59178804722E+02  0.10566000000E+00 0.  1.
         22    1    1    0    0    0  0.12774311416E+02 -0.11650601451E+02 -0.24046528869E+02  0.29616804301E+02  0.00000000000E+00 0.  1.
</event>
<event>
 5    1  0.1764311E-003  0.9118800E+02  0.7818608E-02  0.1130116E+00
         25   -1    0    0    0    0  0.00000000000E+00  0.00000000000E+00  0.99999998245E-14  0.12500000000E+03  0.12500000000E+03 0.  0.
        -13    1    3    3    0    0  0.49297541062E+02  0.11492237294E+01 -0.18834609041E+02  0.52785622396E+02  0.10566000000E+00 0.  1.
         23    2    1    0    0    0  0.10011534461E+02  0.14906841832E+02 -0.24318084071E+02  0.94770643928E+02  0.89820159106E+02 0.  0.
         13    1    3    3    0    0 -0.39286006602E+02  0.13757618102E+02 -0.54834750300E+01  0.41985021531E+02  0.10566000000E+00 0. -1.
         22    1    1    0    0    0 -0.10011534461E+02 -0.14906841832E+02  0.24318084071E+02  0.30229356072E+02  0.00000000000E+00 0.  1.
</event>
<event>
 5    1  0.1764311E-003  0.9118800E+02  0.7818608E-02  0.1130116E+00
         25   -1    0    0    0    0  0.00000000000E+00  0.00000000000E+00  0.99999998245E-14  0.12500000000E+03  0.12500000000E+03 0.  0.
        -13    1    3    3    0    0  0.23314144347E+02 -0.39830377601E+02 -0.17128494419E+02  0.49228089457E+02  0.10566000000E+00 0. -1.
         23    2    1    0    0    0  0.20882674100E+02  0.62423530200E+01 -0.19951678947E+02  0.95451352965E+02  0.90762537653E+02 0.  0.
         13    1    3    3    0    0 -0.24314702468E+01  0.46072730621E+02 -0.28231845274E+01  0.46223263508E+02  0.10566000000E+00 0.  1.
         22    1    1    0    0    0 -0.20882674100E+02 -0.62423530200E+01  0.19951678947E+02  0.29548647035E+02  0.00000000000E+00 0. -1.
</event>
<event>
 5    1  0.1764311E-003  0.9118800E+02  0.7818608E-02  0.1130116E+00
         25   -1    0    0    0    0  0.00000000000E+00  0.00000000000E+00  0.99999998245E-14  0.12500000000E+03  0.12500000000E+03 0.  0.
        -13    1    3    3    0    0 -0.32950204485E+02  0.38986043997E+02 -0.34243666343E+02  0.61467613023E+02  0.10566000000E+00 0.  1.
         23    2    1    0    0    0 -0.17390624929E+02  0.15883535517E+02 -0.24598258868E+02  0.90944238736E+02  0.84327099345E+02 0.  0.
         13    1    3    3    0    0  0.15559579555E+02 -0.23102508480E+02  0.96454074753E+01  0.29476625713E+02  0.10566000000E+00 0. -1.
         22    1    1    0    0    0  0.17390624929E+02 -0.15883535517E+02  0.24598258868E+02  0.34055761264E+02  0.00000000000E+00 0.  1.
</event>
<event>
 5    1  0.1764311E-003  0.9118800E+02  0.7818608E-02  0.1130116E+00
         25   -1    0    0    0    0  0.00000000000E+00  0.00000000000E+00  0.99999998245E-14  0.12500000000E+03  0.12500000000E+03 0.  0.
        -13    1    3    3    0    0 -0.11926014894E+02  0.15086866284E+02 -0.34272886385E+02  0.39299939831E+02  0.10566000000E+00 0.  1.
         23    2    1    0    0    0  0.24593152226E+02 -0.15701548104E+02 -0.47923070747E+01  0.95430962877E+02  0.90734451667E+02 0.  0.
         13    1    3    3    0    0  0.36519167120E+02 -0.30788414388E+02  0.29480579311E+02  0.56131023046E+02  0.10566000000E+00 0. -1.
         22    1    1    0    0    0 -0.24593152226E+02  0.15701548104E+02  0.47923070747E+01  0.29569037123E+02  0.00000000000E+00 0. -1.
</event>
<event>
 5    1  0.1764311E-003  0.9118800E+02  0.7818608E-02  0.1130116E+00
         25   -1    0    0    0    0  0.00000000000E+00  0.00000000000E+00  0.99999998245E-14  0.12500000000E+03  0.12500000000E+03 0.  0.
        -13    1    3    3    0    0  0.11758478258E+02 -0.31123007394E+02 -0.13257901393E+02  0.35814613129E+02  0.10566000000E+00 0. -1.
         23    2    1    0    0    0 -0.53966297329E+01  0.91479674741E+01  0.27435139794E+02  0.95580689728E+02  0.90940488409E+02 0.  0.
         13    1    3    3    0    0 -0.17155107991E+02  0.40270974868E+02  0.40693041187E+02  0.59766076599E+02  0.10566000000E+00 0.  1.
         22    1    1    0    0    0  0.53966297329E+01 -0.91479674741E+01 -0.27435139794E+02  0.29419310272E+02  0.00000000000E+00 0.  1.
</event>
<event>
 5    1  0.1764311E-003  0.9118800E+02  0.7818608E-02  0.1130116E+00
         25   -1    0    0    0    0  0.00000000000E+00  0.00000000000E+00  0.99999998245E-14  0.12500000000E+03  0.12500000000E+03 0.  0.
        -13    1    3    3    0    0  0.27706409502E+02 -0.15215308896E+02  0.44031035355E+02  0.54202343037E+02  0.10566000000E+00 0. -1.
         23    2    1    0    0    0  0.74687459062E+01 -0.21596331076E+02  0.10637763428E+01  0.10212391420E+03  0.99528782522E+02 0.  0.
         13    1    3    3    0    0 -0.20237663595E+02 -0.63810221803E+01 -0.42967259012E+02  0.47921571165E+02  0.10566000000E+00 0.  1.
         22    1    1    0    0    0 -0.74687459062E+01  0.21596331076E+02 -0.10637763428E+01  0.22876085799E+02  0.00000000000E+00 0. -1.
</event>
<event>
 5    1  0.1764311E-003  0.9118800E+02  0.7818608E-02  0.1130116E+00
         25   -1    0    0    0    0  0.00000000000E+00  0.00000000000E+00  0.99999998245E-14  0.12500000000E+03  0.12500000000E+03 0.  0.
        -13    1    3    3    0    0  0.34382680632E+01 -0.36102143060E+02 -0.92851267940E+00  0.36277537411E+02  0.10566000000E+00 0.  1.
         23    2    1    0    0    0 -0.14866270031E+02  0.18758301408E+02 -0.16205589984E+02  0.96094965783E+02  0.91644647666E+02 0.  0.
         13    1    3    3    0    0 -0.18304538094E+02  0.54860444468E+02 -0.15277077305E+02  0.59817428372E+02  0.10566000000E+00 0. -1.
         22    1    1    0    0    0  0.14866270031E+02 -0.18758301408E+02  0.16205589984E+02  0.28905034217E+02  0.00000000000E+00 0. -1.
</event>
<event>
 5    1  0.1764311E-003  0.9118800E+02  0.7818608E-02  0.1130116E+00
         25   -1    0    0    0    0  0.00000000000E+00  0.00000000000E+00  0.99999998245E-14  0.12500000000E+03  0.12500000000E+03 0.  0.
        -13    1    3    3    0    0 -0.95535482560E+01 -0.15964752216E+02 -0.36036515422E+02  0.40555951541E+02  0.10566000000E+00 0.  1.
         23    2    1    0    0    0 -0.70899037231E+01 -0.25799193968E+02  0.16169853649E+02  0.93737733427E+02  0.88370998392E+02 0.  0.
         13    1    3    3    0    0  0.24636445329E+01 -0.98344417522E+01  0.52206369071E+02  0.53181781886E+02  0.10566000000E+00 0. -1.
         22    1    1    0    0    0  0.70899037231E+01  0.25799193968E+02 -0.16169853649E+02  0.31262266573E+02  0.00000000000E+00 0. -1.
</event>
<event>
 5    1  0.1764311E-003  0.9118800E+02  0.7818608E-02  0.1130116E+00
         25   -1    0    0    0    0  0.00000000000E+00  0.00000000000E+00  0.99999998245E-14  0.12500000000E+03  0.12500000000E+03 0.  0.
        -13    1    3    3    0    0 -0.26267122280E+02 -0.76114920001E+01  0.28764560760E+02  0.39690145415E+02  0.10566000000E+00 0.  1.
         23    2    1    0    0    0 -0.79325363627E+01 -0.11242989459E+02 -0.24918982346E+02  0.96534483559E+02  0.92242186063E+02 0.  0.
         13    1    3    3    0    0  0.18334585917E+02 -0.36314974592E+01 -0.53683543106E+02  0.56844338143E+02  0.10566000000E+00 0. -1.
         22    1    1    0    0    0  0.79325363627E+01  0.11242989459E+02  0.24918982346E+02  0.28465516441E+02  0.00000000000E+00 0. -1.
</event>
<event>
 5    1  0.1764311E-003  0.9118800E+02  0.7818608E-02  0.1130116E+00
         25   -1    0    0    0    0  0.00000000000E+00  0.00000000000E+00  0.99999998245E-14  0.12500000000E+03  0.12500000000E+03 0.  0.
        -13    1    3    3    0    0  0.19234495701E+02 -0.17753113616E+02  0.21567361059E+02  0.33916089029E+02  0.10566000000E+00 0. -1.
         23    2    1    0    0    0  0.10342984224E+02  0.26059444125E+02 -0.16356602397E+02  0.92540634745E+02  0.86661171734E+02 0.  0.
         13    1    3    3    0    0 -0.88915114777E+01  0.43812557741E+02 -0.37923963456E+02  0.58624545716E+02  0.10566000000E+00 0.  1.
         22    1    1    0    0    0 -0.10342984224E+02 -0.26059444125E+02  0.16356602397E+02  0.32459365255E+02  0.00000000000E+00 0.  1.
</event>
<event>
 5    1  0.1764311E-003  0.9118800E+02  0.7818608E-02  0.1130116E+00
         25   -1    0    0    0    0  0.00000000000E+00  0.00000000000E+00  0.99999998245E-14  0.12500000000E+03  0.12500000000E+03 0.  0.
        -13    1    3    3    0    0  0.18599521631E+02  0.21572701244E+02  0.32611434465E+02  0.43299428007E+02  0.10566000000E+00 0. -1.
         23    2    1    0    0    0 -0.10811477413E+02  0.23200973939E+02 -0.11977802972E+02  0.96739762924E+02  0.92519947746E+02 0.  0.
         13    1    3    3    0    0 -0.29410999045E+02  0.16282726947E+01 -0.44589237437E+02  0.53440334917E+02  0.10566000000E+00 0.  1.
         22    1    1    0    0    0  0.10811477413E+02 -0.23200973939E+02  0.11977802972E+02  0.28260237076E+02  0.00000000000E+00 0.  1.
</event>
<event>
 5    1  0.1764311E-003  0.9118800E+02  0.7818608E-02  0.1130116E+00
         25   -1    0    0    0    0  0.00000000000E+00  0.00000000000E+00  0.99999998245E-14  0.12500000000E+03  0.12500000000E+03 0.  0.
        -13    1    3    3    0    0  0.30637255085E+02  0.30187771285E+02  0.42269092945E+02  0.60304480072E+02  0.10566000000E+00 0. -1.
         23    2    1    0    0    0  0.23350708977E+02  0.10871861187E+02  0.12929824565E+02  0.96179289761E+02  0.91759590454E+02 0.  0.
         13    1    3    3    0    0 -0.72865461081E+01 -0.19315910099E+02 -0.29339268380E+02  0.35874809689E+02  0.10566000000E+00 0.  1.
         22    1    1    0    0    0 -0.23350708977E+02 -0.10871861187E+02 -0.12929824565E+02  0.28820710239E+02  0.00000000000E+00 0. -1.
</event>
<event>
 5    1  0.1764311E-003  0.9118800E+02  0.7818608E-02  0.1130116E+00
         25   -1    0    0    0    0  0.00000000000E+00  0.00000000000E+00  0.99999998245E-14  0.12500000000E+03  0.12500000000E+03 0.  0.
        -13    1    3    3    0    0  0.11624933239E+02  0.40805006294E+02  0.39135524796E+02  0.57721643051E+02  0.10566000000E+00 0. -1.
         23    2    1    0    0    0  0.20459177355E+02  0.18816542198E+02  0.95910341528E+01  0.95595440244E+02  0.90960761107E+02 0.  0.
         13    1    3    3    0    0  0.88342441155E+01 -0.21988464096E+02 -0.29544490643E+02  0.37873797193E+02  0.10566000000E+00 0.  1.
         22    1    1    0    0    0 -0.20459177355E+02 -0.18816542198E+02 -0.95910341528E+01  0.29404559756E+02  0.00000000000E+00 0. -1.
</event>
<event>
 5    1  0.1764311E-003  0.9118800E+02  0.7818608E-02  0.1130116E+00
         25   -1    0    0    0    0  0.00000000000E+00  0.00000000000E+00  0.99999998245E-14  0.12500000000E+03  0.12500000000E+03 0.  0.
        -13    1    3    3    0    0 -0.57057431250E+01  0.40138246448E+02  0.37397835574E+02  0.55156537257E+02  0.10566000000E+00 0.  1.
         23    2    1    0    0    0 -0.23788344958E+02  0.15753336020E+02  0.16113293448E+02  0.92232772816E+02  0.86215968381E+02 0.  0.
         13    1    3    3    0    0 -0.18082601833E+02 -0.24384910428E+02 -0.21284542126E+02  0.37076235558E+02  0.10566000000E+00 0. -1.
         22    1    1    0    0    0  0.23788344958E+02 -0.15753336020E+02 -0.16113293448E+02  0.32767227184E+02  0.00000000000E+00 0.  1.
</event>
<event>
 5    1  0.1764311E-003  0.9118800E+02  0.7818608E-02  0.1130116E+00
         25   -1    0    0    0    0  0.00000000000E+00  0.00000000000E+00  0.99999998245E-14  0.12500000000E+03  0.12500000000E+03 0.  0.
        -13    1    3    3    0    0  0.35510880349E+02  0.16648669423E+02  0.29973835800E+02  0.49362362314E+02  0.10566000000E+00 0.  1.
         23    2    1    0    0    0 -0.35196813921E+01  0.27895304162E+02  0.70108996981E+01  0.96022614577E+02  0.91545910035E+02 0.  0.
         13    1    3    3    0    0 -0.39030561741E+02  0.11246634739E+02 -0.22962936102E+02  0.46660252262E+02  0.10566000000E+00 0. -1.
         22    1    1    0    0    0  0.35196813921E+01 -0.27895304162E+02 -0.70108996981E+01  0.28977385423E+02  0.00000000000E+00 0.  1.
</event>
<event>
 5    1  0.1764311E-003  0.9118800E+02  0.7818608E-02  0.1130116E+00
         25   -1    0    0    0    0  0.00000000000E+00  0.00000000000E+00  0.99999998245E-14  0.12500000000E+03  0.12500000000E+03 0.  0.
        -13    1    3    3    0    0 -0.76873141563E+01  0.37787416013E+02  0.57056847317E+01  0.38981400824E+02  0.10566000000E+00 0. -1.
         23    2    1    0    0    0 -0.11999717041E+02 -0.22430732323E+02  0.24950165517E+01  0.99439169239E+02  0.96097826769E+02 0.  0.
         13    1    3    3    0    0 -0.43124028847E+01 -0.60218148336E+02 -0.32106681801E+01  0.60457768416E+02  0.10566000000E+00 0.  1.
         22    1    1    0    0    0  0.11999717041E+02  0.22430732323E+02 -0.24950165517E+01  0.25560830761E+02  0.00000000000E+00 0.  1.
</event>
<event>
 5    1  0.1764311E-003  0.9118800E+02  0.7818608E-02  0.1130116E+00
         25   -1    0    0    0    0  0.00000000000E+00  0.00000000000E+00  0.99999998245E-14  0.12500000000E+03  0.12500000000E+03 0.  0.
        -13    1    3    3    0    0 -0.10794546890E+02 -0.18624490809E+02  0.33425679553E+02  0.39757780598E+02  0.10566000000E+00 0. -1.
         23    2    1    0    0    0  0.83844862551E+01 -0.22656212316E+02 -0.18053582181E+02  0.94841495464E+02  0.89918706986E+02 0.  0.
         13    1    3    3    0    0  0.19179033145E+02 -0.40317215070E+01 -0.51479261734E+02  0.55083714866E+02  0.10566000000E+00 0.  1.
         22    1    1    0    0    0 -0.83844862551E+01  0.22656212316E+02  0.18053582181E+02  0.30158504536E+02  0.00000000000E+00 0.  1.
</event>
<event>
 5    1  0.1764311E-003  0.9118800E+02  0.7818608E-02  0.1130116E+00
         25   -1    0    0    0    0  0.00000000000E+00  0.00000000000E+00  0.99999998245E-14  0.12500000000E+03  0.12500000000E+03 0.  0.
        -13    1    3    3    0    0 -0.12408966571E+02  0.82089690728E+01  0.50718452106E+02  0.52855862235E+02  0.10566000000E+00 0. -1.
         23    2    1    0    0    0  0.81018614992E+01  0.19780522694E+02  0.41825223158E+02  0.78029173629E+02  0.62308052507E+02 0.  0.
         13    1    3    3    0    0  0.20510828070E+02  0.11571553622E+02 -0.88932289481E+01  0.25173311393E+02  0.10566000000E+00 0.  1.
         22    1    1    0    0    0 -0.81018614992E+01 -0.19780522694E+02 -0.41825223158E+02  0.46970826371E+02  0.00000000000E+00 0. -1.
</event>
<event>
 5    1  0.1764311E-003  0.9118800E+02  0.7818608E-02  0.1130116E+00
         25   -1    0    0    0    0  0.00000000000E+00  0.00000000000E+00  0.99999998245E-14  0.12500000000E+03  0.12500000000E+03 0.  0.
        -13    1    3    3    0    0  0.12869352321E+02  0.26415775087E+02 -0.31435723904E+02  0.43030562441E+02  0.10566000000E+00 0.  1.
         23    2    1    0    0    0 -0.54600651563E+01  0.97269735312E+01  0.21106687583E+02  0.10112703231E+03  0.98268805211E+02 0.  0.
         13    1    3    3    0    0 -0.18329417477E+02 -0.16688801556E+02  0.52542411486E+02  0.58096469869E+02  0.10566000000E+00 0. -1.
         22    1    1    0    0    0  0.54600651563E+01 -0.97269735312E+01 -0.21106687583E+02  0.23872967689E+02  0.00000000000E+00 0. -1.
</event>
<event>
 5    1  0.1764311E-003  0.9118800E+02  0.7818608E-02  0.1130116E+00
         25   -1    0    0    0    0  0.00000000000E+00  0.00000000000E+00  0.99999998245E-14  0.12500000000E+03  0.12500000000E+03 0.  0.
        -13    1    3    3    0    0 -0.58862899396E+01 -0.40759137214E+02  0.32058738142E+02  0.52189362240E+02  0.10566000000E+00 0.  1.
         23    2    1    0    0    0 -0.30216716897E+01 -0.26275488987E+02 -0.99688767904E+01  0.96734998218E+02  0.92513510118E+02 0.  0.
         13    1    3    3    0    0  0.28646182499E+01  0.14483648228E+02 -0.42027614933E+02  0.44545635978E+02  0.10566000000E+00 0. -1.
         22    1    1    0    0    0  0.30216716897E+01  0.26275488987E+02  0.99688767904E+01  0.28265001782E+02  0.00000000000E+00 0. -1.
</event>
<event>
 5    1  0.1764311E-003  0.9118800E+02  0.7818608E-02  0.1130116E+00
         25   -1    0    0    0    0  0.00000000000E+00  0.00000000000E+00  0.99999998245E-14  0.12500000000E+03  0.12500000000E+03 0.  0.
        -13    1    3    3    0    0  0.13838056409E+02  0.37902626229E+02  0.19456547626E+02  0.44795862418E+02  0.10566000000E+00 0.  1.
         23    2    1    0    0    0 -0.26578445568E+02  0.87752794580E+01  0.69684260735E+01  0.96155966643E+02  0.91727812907E+02 0.  0.
         13    1    3    3    0    0 -0.40416501977E+02 -0.29127346771E+02 -0.12488121552E+02  0.51360104224E+02  0.10566000000E+00 0. -1.
         22    1    1    0    0    0  0.26578445568E+02 -0.87752794580E+01 -0.69684260735E+01  0.28844033357E+02  0.00000000000E+00 0. -1.
</event>
<event>
 5    1  0.1764311E-003  0.9118800E+02  0.7818608E-02  0.1130116E+00
         25   -1    0    0    0    0  0.00000000000E+00  0.00000000000E+00  0.99999998245E-14  0.12500000000E+03  0.12500000000E+03 0.  0.
        -13    1    3    3    0    0  0.26210194328E+02  0.38007516723E+02 -0.33161206070E+02  0.56843841937E+02  0.10566000000E+00 0. -1.
         23    2    1    0    0    0  0.12020115272E+02  0.31400707664E+02 -0.24817390721E+01  0.91285809490E+02  0.84831906571E+02 0.  0.
         13    1    3    3    0    0 -0.14190079056E+02 -0.66068090593E+01  0.30679466998E+02  0.34441967552E+02  0.10566000000E+00 0.  1.
         22    1    1    0    0    0 -0.12020115272E+02 -0.31400707664E+02  0.24817390721E+01  0.33714190510E+02  0.00000000000E+00 0. -1.
</event>
<event>
 5    1  0.1764311E-003  0.9118800E+02  0.7818608E-02  0.1130116E+00
         25   -1    0    0    0    0  0.00000000000E+00  0.00000000000E+00  0.99999998245E-14  0.12500000000E+03  0.12500000000E+03 0.  0.
        -13    1    3    3    0    0  0.20144896163E+02  0.35903318271E+02  0.46680702828E+02  0.62241178370E+02  0.10566000000E+00 0.  1.
         23    2    1    0    0    0  0.36472906053E+01  0.14289802176E+02  0.15801462731E+02  0.10338548174E+03  0.10110079345E+03 0.  0.
         13    1    3    3    0    0 -0.16497605558E+02 -0.21613516095E+02 -0.30879240097E+02  0.41144303374E+02  0.10566000000E+00 0. -1.
         22    1    1    0    0    0 -0.36472906053E+01 -0.14289802176E+02 -0.15801462731E+02  0.21614518256E+02  0.00000000000E+00 0.  1.
</event>
<event>
 5    1  0.1764311E-003  0.9118800E+02  0.7818608E-02  0.1130116E+00
         25   -1    0    0    0    0  0.00000000000E+00  0.00000000000E+00  0.99999998245E-14  0.12500000000E+03  0.12500000000E+03 0.  0.
        -13    1    3    3    0    0 -0.28330713167E+02 -0.36892234783E+02 -0.82911448183E+01  0.47248497778E+02  0.10566000000E+00 0. -1.
         23    2    1    0    0    0 -0.21147150071E+02  0.11076455152E+02 -0.15860289976E+02  0.96339249609E+02  0.91977238501E+02 0.  0.
         13    1    3    3    0    0  0.71835630962E+01  0.47968689936E+02 -0.75691451575E+01  0.49090751831E+02  0.10566000000E+00 0.  1.
         22    1    1    0    0    0  0.21147150071E+02 -0.11076455152E+02  0.15860289976E+02  0.28660750391E+02  0.00000000000E+00 0. -1.
</event>
<event>
 5    1  0.1764311E-003  0.9118800E+02  0.7818608E-02  0.1130116E+00
         25   -1    0    0    0    0  0.00000000000E+00  0.00000000000E+00  0.99999998245E-14  0.12500000000E+03  0.12500000000E+03 0.  0.
        -13    1    3    3    0    0  0.37449302401E+02  0.20134767771E+02 -0.15226409610E+02  0.45163191176E+02  0.10566000000E+00 0.  1.
         23    2    1    0    0    0  0.94641807434E+01 -0.20367369252E+02 -0.20393414277E+02  0.94663688536E+02  0.89671188985E+02 0.  0.
         13    1    3    3    0    0 -0.27985121658E+02 -0.40502137023E+02 -0.51670046663E+01  0.49500497360E+02  0.10566000000E+00 0. -1.
         22    1    1    0    0    0 -0.94641807434E+01  0.20367369252E+02  0.20393414277E+02  0.30336311464E+02  0.00000000000E+00 0. -1.
</event>
<event>
 5    1  0.1764311E-003  0.9118800E+02  0.7818608E-02  0.1130116E+00
         25   -1    0    0    0    0  0.00000000000E+00  0.00000000000E+00  0.99999998245E-14  0.12500000000E+03  0.12500000000E+03 0.  0.
        -13    1    3    3    0    0  0.12304426865E+02 -0.20791187273E+02  0.44242958824E+02  0.50409552251E+02  0.10566000000E+00 0. -1.
         23    2    1    0    0    0 -0.12528781791E+02 -0.27353148494E+02  0.98353495170E+01  0.93347208562E+02  0.87816867061E+02 0.  0.
         13    1    3    3    0    0 -0.24833208655E+02 -0.65619612218E+01 -0.34407609307E+02  0.42937656310E+02  0.10566000000E+00 0.  1.
         22    1    1    0    0    0  0.12528781791E+02  0.27353148494E+02 -0.98353495170E+01  0.31652791438E+02  0.00000000000E+00 0. -1.
</event>
<event>
 5    1  0.1764311E-003  0.9118800E+02  0.7818608E-02  0.1130116E+00
         25   -1    0    0    0    0  0.00000000000E+00  0.00000000000E+00  0.99999998245E-14  0.12500000000E+03  0.12500000000E+03 0.  0.
        -13    1    3    3    0    0  0.45103633015E+00  0.18873222009E+02 -0.56297011947E+02  0.59378166534E+02  0.10566000000E+00 0.  1.
         23    2    1    0    0    0 -0.71297043432E+01 -0.23167811079E+01 -0.30406969597E+02  0.93682529496E+02  0.88292878388E+02 0.  0.
         13    1    3    3    0    0 -0.75807406734E+01 -0.21190003117E+02  0.25890042351E+02  0.34304362961E+02  0.10566000000E+00 0. -1.
         22    1    1    0    0    0  0.71297043432E+01  0.23167811079E+01  0.30406969597E+02  0.31317470504E+02  0.00000000000E+00 0.  1.
</event>
<event>
 5    1  0.1764311E-003  0.9118800E+02  0.7818608E-02  0.1130116E+00
         25   -1    0    0    0    0  0.00000000000E+00  0.00000000000E+00  0.99999998245E-14  0.12500000000E+03  0.12500000000E+03 0.  0.
        -13    1    3    3    0    0  0.54306099245E+02 -0.92893560425E+01  0.13040797238E+02  0.56617295128E+02  0.10566000000E+00 0. -1.
         23    2    1    0    0    0  0.26213163514E+02 -0.37318465231E+01 -0.13160246805E+02  0.95432302832E+02  0.90736297632E+02 0.  0.
         13    1    3    3    0    0 -0.28092935732E+02  0.55575095194E+01 -0.26201044043E+02  0.38815007704E+02  0.10566000000E+00 0.  1.
         22    1    1    0    0    0 -0.26213163514E+02  0.37318465231E+01  0.13160246805E+02  0.29567697168E+02  0.00000000000E+00 0. -1.
</event>
<event>
 5    1  0.1764311E-003  0.9118800E+02  0.7818608E-02  0.1130116E+00
         25   -1    0    0    0    0  0.00000000000E+00  0.00000000000E+00  0.99999998245E-14  0.12500000000E+03  0.12500000000E+03 0.  0.
        -13    1    3    3    0    0  0.49701994136E+02  0.85769361454E+01 -0.91522190787E+01  0.51260377807E+02  0.10566000000E+00 0.  1.
         23    2    1    0    0    0  0.18578324626E+02  0.29607451278E+01  0.22273151137E+02  0.95845010390E+02  0.91303080985E+02 0.  0.
         13    1    3    3    0    0 -0.31123669511E+02 -0.56161910176E+01  0.31425370216E+02  0.44584632583E+02  0.10566000000E+00 0. -1.
         22    1    1    0    0    0 -0.18578324626E+02 -0.29607451278E+01 -0.22273151137E+02  0.29154989610E+02  0.00000000000E+00 0. -1.
</event>
<event>
 5    1  0.1764311E-003  0.9118800E+02  0.7818608E-02  0.1130116E+00
         25   -1    0    0    0    0  0.00000000000E+00  0.00000000000E+00  0.99999998245E-14  0.12500000000E+03  0.12500000000E+03 0.  0.
        -13    1    3    3    0    0  0.15360957627E+02 -0.35402194319E+02 -0.12968421024E+02  0.40711982139E+02  0.10566000000E+00 0.  1.
         23    2    1    0    0    0  0.18979345730E+02  0.11772055633E+02  0.17187717214E+02  0.96818188823E+02  0.92625845237E+02 0.  0.
         13    1    3    3    0    0  0.36183881028E+01  0.47174249952E+02  0.30156138238E+02  0.56106206684E+02  0.10566000000E+00 0. -1.
         22    1    1    0    0    0 -0.18979345730E+02 -0.11772055633E+02 -0.17187717214E+02  0.28181811177E+02  0.00000000000E+00 0. -1.
</event>
<event>
 5    1  0.1764311E-003  0.9118800E+02  0.7818608E-02  0.1130116E+00
         25   -1    0    0    0    0  0.00000000000E+00  0.00000000000E+00  0.99999998245E-14  0.12500000000E+03  0.12500000000E+03 0.  0.
        -13    1    3    3    0    0  0.50523305724E+02  0.21214845527E+02  0.24317207898E+01  0.54850692995E+02  0.10566000000E+00 0. -1.
         23    2    1    0    0    0  0.32112232886E+02 -0.99553666678E+01  0.43311495611E+01  0.91102158137E+02  0.84560862899E+02 0.  0.
         13    1    3    3    0    0 -0.18411072837E+02 -0.31170212195E+02  0.18994287712E+01  0.36251465142E+02  0.10566000000E+00 0.  1.
         22    1    1    0    0    0 -0.32112232886E+02  0.99553666678E+01 -0.43311495611E+01  0.33897841863E+02  0.00000000000E+00 0. -1.
</event>
<event>
 5    1  0.1764311E-003  0.9118800E+02  0.7818608E-02  0.1130116E+00
         25   -1    0    0    0    0  0.00000000000E+00  0.00000000000E+00  0.99999998245E-14  0.12500000000E+03  0.12500000000E+03 0.  0.
        -13    1    3    3    0    0  0.11042515906E+02  0.52976682692E+02  0.13968523050E+02  0.55889148024E+02  0.10566000000E+00 0. -1.
         23    2    1    0    0    0  0.63741004944E+01  0.24001216956E+02 -0.14052096882E+02  0.96466703673E+02  0.92150289844E+02 0.  0.
         13    1    3    3    0    0 -0.46684154113E+01 -0.28975465736E+02 -0.28020619932E+02  0.40577555649E+02  0.10566000000E+00 0.  1.
         22    1    1    0    0    0 -0.63741004944E+01 -0.24001216956E+02  0.14052096882E+02  0.28533296327E+02  0.00000000000E+00 0. -1.
</event>
<event>
 5    1  0.1764311E-003  0.9118800E+02  0.7818608E-02  0.1130116E+00
         25   -1    0    0    0    0  0.00000000000E+00  0.00000000000E+00  0.99999998245E-14  0.12500000000E+03  0.12500000000E+03 0.  0.
        -13    1    3    3    0    0 -0.13518323537E+02 -0.20146885793E+02 -0.38750940545E+02  0.45719674491E+02  0.10566000000E+00 0. -1.
         23    2    1    0    0    0  0.25088205689E+02 -0.11338488339E+01 -0.20967932603E+02  0.92283675702E+02  0.86289738241E+02 0.  0.
         13    1    3    3    0    0  0.38606529227E+02  0.19013036960E+02  0.17783007941E+02  0.46564001211E+02  0.10566000000E+00 0.  1.
         22    1    1    0    0    0 -0.25088205689E+02  0.11338488339E+01  0.20967932603E+02  0.32716324298E+02  0.00000000000E+00 0.  1.
</event>
<event>
 5    1  0.1764311E-003  0.9118800E+02  0.7818608E-02  0.1130116E+00
         25   -1    0    0    0    0  0.00000000000E+00  0.00000000000E+00  0.99999998245E-14  0.12500000000E+03  0.12500000000E+03 0.  0.
        -13    1    3    3    0    0 -0.12798643153E+01 -0.62940270638E+01  0.37196938824E+02  0.37747533048E+02  0.10566000000E+00 0. -1.
         23    2    1    0    0    0  0.16999439818E+02 -0.19756690646E+02 -0.15183709243E+02  0.94836233561E+02  0.89911391882E+02 0.  0.
         13    1    3    3    0    0  0.18279304133E+02 -0.13462663583E+02 -0.52380648066E+02  0.57088700513E+02  0.10566000000E+00 0.  1.
         22    1    1    0    0    0 -0.16999439818E+02  0.19756690646E+02  0.15183709243E+02  0.30163766439E+02  0.00000000000E+00 0.  1.
</event>
<event>
 5    1  0.1764311E-003  0.9118800E+02  0.7818608E-02  0.1130116E+00
         25   -1    0    0    0    0  0.00000000000E+00  0.00000000000E+00  0.99999998245E-14  0.12500000000E+03  0.12500000000E+03 0.  0.
        -13    1    3    3    0    0 -0.51206165250E+01 -0.51544430171E+02  0.31834031368E+02  0.60798566697E+02  0.10566000000E+00 0. -1.
         23    2    1    0    0    0 -0.25842665168E+01 -0.13091319096E+02  0.19710449467E+02  0.10119741847E+03  0.98358297151E+02 0.  0.
         13    1    3    3    0    0  0.25363500082E+01  0.38453111075E+02 -0.12123581901E+02  0.40398851777E+02  0.10566000000E+00 0.  1.
         22    1    1    0    0    0  0.25842665168E+01  0.13091319096E+02 -0.19710449467E+02  0.23802581526E+02  0.00000000000E+00 0. -1.
</event>
<event>
 5    1  0.1764311E-003  0.9118800E+02  0.7818608E-02  0.1130116E+00
         25   -1    0    0    0    0  0.00000000000E+00  0.00000000000E+00  0.99999998245E-14  0.12500000000E+03  0.12500000000E+03 0.  0.
        -13    1    3    3    0    0  0.11064934978E+02 -0.29863719630E+02  0.23586589747E+02  0.39630959061E+02  0.10566000000E+00 0. -1.
         23    2    1    0    0    0  0.24578858130E+02  0.15882647863E+02 -0.51025404660E+01  0.95294534352E+02  0.90546306319E+02 0.  0.
         13    1    3    3    0    0  0.13513923153E+02  0.45746367493E+02 -0.28689130213E+02  0.55663575291E+02  0.10566000000E+00 0.  1.
         22    1    1    0    0    0 -0.24578858130E+02 -0.15882647863E+02  0.51025404660E+01  0.29705465648E+02  0.00000000000E+00 0.  1.
</event>
<event>
 5    1  0.1764311E-003  0.9118800E+02  0.7818608E-02  0.1130116E+00
         25   -1    0    0    0    0  0.00000000000E+00  0.00000000000E+00  0.99999998245E-14  0.12500000000E+03  0.12500000000E+03 0.  0.
        -13    1    3    3    0    0 -0.19418150785E+02 -0.48616696031E+02 -0.41574975062E+01  0.52516127641E+02  0.10566000000E+00 0.  1.
         23    2    1    0    0    0  0.11733664139E+02 -0.24270418944E+02  0.12333459948E+02  0.95354657295E+02  0.90629268582E+02 0.  0.
         13    1    3    3    0    0  0.31151814924E+02  0.24346277087E+02  0.16490957454E+02  0.42838529653E+02  0.10566000000E+00 0. -1.
         22    1    1    0    0    0 -0.11733664139E+02  0.24270418944E+02 -0.12333459948E+02  0.29645342705E+02  0.00000000000E+00 0.  1.
</event>
<event>
 5    1  0.1764311E-003  0.9118800E+02  0.7818608E-02  0.1130116E+00
         25   -1    0    0    0    0  0.00000000000E+00  0.00000000000E+00  0.99999998245E-14  0.12500000000E+03  0.12500000000E+03 0.  0.
        -13    1    3    3    0    0 -0.40928900477E+01  0.25628472243E+02 -0.33135211604E+02  0.42089473155E+02  0.10566000000E+00 0. -1.
         23    2    1    0    0    0  0.11325790965E+02 -0.22342031477E+02 -0.15841764400E+02  0.95362162514E+02  0.90639619530E+02 0.  0.
         13    1    3    3    0    0  0.15418681013E+02 -0.47970503720E+02  0.17293447203E+02  0.53272689359E+02  0.10566000000E+00 0.  1.
         22    1    1    0    0    0 -0.11325790965E+02  0.22342031477E+02  0.15841764400E+02  0.29637837486E+02  0.00000000000E+00 0.  1.
</event>
<event>
 5    1  0.1764311E-003  0.9118800E+02  0.7818608E-02  0.1130116E+00
         25   -1    0    0    0    0  0.00000000000E+00  0.00000000000E+00  0.99999998245E-14  0.12500000000E+03  0.12500000000E+03 0.  0.
        -13    1    3    3    0    0  0.46774472088E+02 -0.55860106661E+01  0.32497027376E+02  0.57228687793E+02  0.10566000000E+00 0. -1.
         23    2    1    0    0    0  0.11069014080E+02  0.77272811880E+01  0.25746845218E+02  0.95928811755E+02  0.91417738644E+02 0.  0.
         13    1    3    3    0    0 -0.35705458007E+02  0.13313291854E+02 -0.67501821578E+01  0.38700123962E+02  0.10566000000E+00 0.  1.
         22    1    1    0    0    0 -0.11069014080E+02 -0.77272811880E+01 -0.25746845218E+02  0.29071188245E+02  0.00000000000E+00 0. -1.
</event>
<event>
 5    1  0.1764311E-003  0.9118800E+02  0.7818608E-02  0.1130116E+00
         25   -1    0    0    0    0  0.00000000000E+00  0.00000000000E+00  0.99999998245E-14  0.12500000000E+03  0.12500000000E+03 0.  0.
        -13    1    3    3    0    0  0.27194792859E+02 -0.48861110921E+02 -0.23396333004E+02  0.60616536367E+02  0.10566000000E+00 0.  1.
         23    2    1    0    0    0  0.55597525975E+01 -0.27732059947E+02 -0.42771545748E+01  0.96394545116E+02  0.92052356184E+02 0.  0.
         13    1    3    3    0    0 -0.21635040261E+02  0.21129050974E+02  0.19119178429E+02  0.35778008749E+02  0.10566000000E+00 0. -1.
         22    1    1    0    0    0 -0.55597525975E+01  0.27732059947E+02  0.42771545748E+01  0.28605454884E+02  0.00000000000E+00 0.  1.
</event>
<event>
 5    1  0.1764311E-003  0.9118800E+02  0.7818608E-02  0.1130116E+00
         25   -1    0    0    0    0  0.00000000000E+00  0.00000000000E+00  0.99999998245E-14  0.12500000000E+03  0.12500000000E+03 0.  0.
        -13    1    3    3    0    0 -0.52026855780E+01  0.23644389857E+02 -0.28139925404E+02  0.37121310250E+02  0.10566000000E+00 0. -1.
         23    2    1    0    0    0  0.22268278602E+02 -0.18316821645E+02  0.27675434778E+01  0.96033787200E+02  0.91561164256E+02 0.  0.
         13    1    3    3    0    0  0.27470964180E+02 -0.41961211501E+02  0.30907468882E+02  0.58912476950E+02  0.10566000000E+00 0.  1.
         22    1    1    0    0    0 -0.22268278602E+02  0.18316821645E+02 -0.27675434778E+01  0.28966212800E+02  0.00000000000E+00 0.  1.
</event>
<event>
 5    1  0.1764311E-003  0.9118800E+02  0.7818608E-02  0.1130116E+00
         25   -1    0    0    0    0  0.00000000000E+00  0.00000000000E+00  0.99999998245E-14  0.12500000000E+03  0.12500000000E+03 0.  0.
        -13    1    3    3    0    0 -0.15637001918E+02 -0.14699306781E+02 -0.15685914329E+02  0.26582786182E+02  0.10566000000E+00 0. -1.
         23    2    1    0    0    0  0.53232283281E+01  0.18608078352E+02 -0.45236996970E+02  0.75796511967E+02  0.57655251207E+02 0.  0.
         13    1    3    3    0    0  0.20960230246E+02  0.33307385133E+02 -0.29551082641E+02  0.49213725785E+02  0.10566000000E+00 0.  1.
         22    1    1    0    0    0 -0.53232283281E+01 -0.18608078352E+02  0.45236996970E+02  0.49203488033E+02  0.00000000000E+00 0.  1.
</event>
<event>
 5    1  0.1764311E-003  0.9118800E+02  0.7818608E-02  0.1130116E+00
         25   -1    0    0    0    0  0.00000000000E+00  0.00000000000E+00  0.99999998245E-14  0.12500000000E+03  0.12500000000E+03 0.  0.
        -13    1    3    3    0    0  0.10702310661E+02  0.34303878959E+02  0.75106759019E+01  0.36711265051E+02  0.10566000000E+00 0.  1.
         23    2    1    0    0    0 -0.19587395086E+02 -0.15007969409E+02  0.16554551131E+02  0.95285384822E+02  0.90533674428E+02 0.  0.
         13    1    3    3    0    0 -0.30289705747E+02 -0.49311848368E+02  0.90438752288E+01  0.58574119771E+02  0.10566000000E+00 0. -1.
         22    1    1    0    0    0  0.19587395086E+02  0.15007969409E+02 -0.16554551131E+02  0.29714615178E+02  0.00000000000E+00 0. -1.
</event>
<event>
 5    1  0.1764311E-003  0.9118800E+02  0.7818608E-02  0.1130116E+00
         25   -1    0    0    0    0  0.00000000000E+00  0.00000000000E+00  0.99999998245E-14  0.12500000000E+03  0.12500000000E+03 0.  0.
        -13    1    3    3    0    0 -0.25286581562E+02 -0.38347020494E+02  0.36067594843E+02  0.58401949879E+02  0.10566000000E+00 0.  1.
         23    2    1    0    0    0  0.26299436394E+01 -0.16300759543E+02  0.23806468118E+02  0.96027956760E+02  0.91553204150E+02 0.  0.
         13    1    3    3    0    0  0.27916525202E+02  0.22046260951E+02 -0.12261126725E+02  0.37626006881E+02  0.10566000000E+00 0. -1.
         22    1    1    0    0    0 -0.26299436394E+01  0.16300759543E+02 -0.23806468118E+02  0.28972043240E+02  0.00000000000E+00 0.  1.
</event>
<event>
 5    1  0.1764311E-003  0.9118800E+02  0.7818608E-02  0.1130116E+00
         25   -1    0    0    0    0  0.00000000000E+00  0.00000000000E+00  0.99999998245E-14  0.12500000000E+03  0.12500000000E+03 0.  0.
        -13    1    3    3    0    0  0.56646833524E+01  0.13511419044E+02  0.57318063901E+02  0.59160955837E+02  0.10566000000E+00 0. -1.
         23    2    1    0    0    0 -0.10916925525E+02  0.11218565189E+02  0.27390513139E+02  0.93452009924E+02  0.87965916587E+02 0.  0.
         13    1    3    3    0    0 -0.16581608878E+02 -0.22928538548E+01 -0.29927550762E+02  0.34291054087E+02  0.10566000000E+00 0.  1.
         22    1    1    0    0    0  0.10916925525E+02 -0.11218565189E+02 -0.27390513139E+02  0.31547990076E+02  0.00000000000E+00 0. -1.
</event>
<event>
 5    1  0.1764311E-003  0.9118800E+02  0.7818608E-02  0.1130116E+00
         25   -1    0    0    0    0  0.00000000000E+00  0.00000000000E+00  0.99999998245E-14  0.12500000000E+03  0.12500000000E+03 0.  0.
        -13    1    3    3    0    0 -0.30441831558E+02  0.32202556640E+02 -0.31412150466E+02  0.54317990792E+02  0.10566000000E+00 0.  1.
         23    2    1    0    0    0  0.40689904521E+01  0.64881062061E+01 -0.26239873770E+02  0.97665348348E+02  0.93762130346E+02 0.  0.
         13    1    3    3    0    0  0.34510822010E+02 -0.25714450433E+02  0.51722766954E+01  0.43347357557E+02  0.10566000000E+00 0. -1.
         22    1    1    0    0    0 -0.40689904521E+01 -0.64881062061E+01  0.26239873770E+02  0.27334651652E+02  0.00000000000E+00 0.  1.
</event>
<event>
 5    1  0.1764311E-003  0.9118800E+02  0.7818608E-02  0.1130116E+00
         25   -1    0    0    0    0  0.00000000000E+00  0.00000000000E+00  0.99999998245E-14  0.12500000000E+03  0.12500000000E+03 0.  0.
        -13    1    3    3    0    0 -0.21704165659E+02  0.29255398866E+02  0.70216703230E+01  0.37098034826E+02  0.10566000000E+00 0. -1.
         23    2    1    0    0    0  0.16994187943E+02  0.40769962798E+01 -0.25866685029E+02  0.93782861809E+02  0.88434809052E+02 0.  0.
         13    1    3    3    0    0  0.38698353602E+02 -0.25178402587E+02 -0.32888355352E+02  0.56684826983E+02  0.10566000000E+00 0.  1.
         22    1    1    0    0    0 -0.16994187943E+02 -0.40769962798E+01  0.25866685029E+02  0.31217138191E+02  0.00000000000E+00 0.  1.
</event>
<event>
 5    1  0.1764311E-003  0.9118800E+02  0.7818608E-02  0.1130116E+00
         25   -1    0    0    0    0  0.00000000000E+00  0.00000000000E+00  0.99999998245E-14  0.12500000000E+03  0.12500000000E+03 0.  0.
        -13    1    3    3    0    0  0.17134329892E+02 -0.50219751799E+02 -0.24633960730E+02  0.58501725760E+02  0.10566000000E+00 0.  1.
         23    2    1    0    0    0  0.12296683701E+02 -0.14770083550E+02 -0.23957351407E+02  0.94286509730E+02  0.89143858075E+02 0.  0.
         13    1    3    3    0    0 -0.48376461913E+01  0.35449668249E+02  0.67660932335E+00  0.35784783970E+02  0.10566000000E+00 0. -1.
         22    1    1    0    0    0 -0.12296683701E+02  0.14770083550E+02  0.23957351407E+02  0.30713490270E+02  0.00000000000E+00 0.  1.
</event>
<event>
 5    1  0.1764311E-003  0.9118800E+02  0.7818608E-02  0.1130116E+00
         25   -1    0    0    0    0  0.00000000000E+00  0.00000000000E+00  0.99999998245E-14  0.12500000000E+03  0.12500000000E+03 0.  0.
        -13    1    3    3    0    0 -0.14175876094E+02 -0.54436338064E+02  0.18622237793E+02  0.59254276380E+02  0.10566000000E+00 0. -1.
         23    2    1    0    0    0 -0.42574338969E+01 -0.27505185884E+02 -0.53609126389E+01  0.96655681730E+02  0.92406279183E+02 0.  0.
         13    1    3    3    0    0  0.99184421973E+01  0.26931152181E+02 -0.23983150432E+02  0.37401405349E+02  0.10566000000E+00 0.  1.
         22    1    1    0    0    0  0.42574338969E+01  0.27505185884E+02  0.53609126389E+01  0.28344318270E+02  0.00000000000E+00 0. -1.
</event>
<event>
 5    1  0.1764311E-003  0.9118800E+02  0.7818608E-02  0.1130116E+00
         25   -1    0    0    0    0  0.00000000000E+00  0.00000000000E+00  0.99999998245E-14  0.12500000000E+03  0.12500000000E+03 0.  0.
        -13    1    3    3    0    0 -0.91582016221E+01  0.99575488148E+01 -0.40100689760E+02  0.42321412058E+02  0.10566000000E+00 0.  1.
         23    2    1    0    0    0  0.10526154363E+02  0.26089374165E+02  0.71344801211E+01  0.95976627064E+02  0.91483095521E+02 0.  0.
         13    1    3    3    0    0  0.19684355985E+02  0.16131825350E+02  0.47235169881E+02  0.53655215006E+02  0.10566000000E+00 0. -1.
         22    1    1    0    0    0 -0.10526154363E+02 -0.26089374165E+02 -0.71344801211E+01  0.29023372936E+02  0.00000000000E+00 0. -1.
</event>
<event>
 5    1  0.1764311E-003  0.9118800E+02  0.7818608E-02  0.1130116E+00
         25   -1    0    0    0    0  0.00000000000E+00  0.00000000000E+00  0.99999998245E-14  0.12500000000E+03  0.12500000000E+03 0.  0.
        -13    1    3    3    0    0 -0.12411225987E+02 -0.18295615184E+02  0.25763911592E+02  0.33949350067E+02  0.10566000000E+00 0.  1.
         23    2    1    0    0    0  0.68650364258E+01  0.21315048202E+02 -0.18168082242E+02  0.96163578285E+02  0.91738184914E+02 0.  0.
         13    1    3    3    0    0  0.19276262413E+02  0.39610663385E+02 -0.43931993834E+02  0.62214228218E+02  0.10566000000E+00 0. -1.
         22    1    1    0    0    0 -0.68650364258E+01 -0.21315048202E+02  0.18168082242E+02  0.28836421715E+02  0.00000000000E+00 0. -1.
</event>
<event>
 5    1  0.1764311E-003  0.9118800E+02  0.7818608E-02  0.1130116E+00
         25   -1    0    0    0    0  0.00000000000E+00  0.00000000000E+00  0.99999998245E-14  0.12500000000E+03  0.12500000000E+03 0.  0.
        -13    1    3    3    0    0 -0.10814146459E+02 -0.21195874714E+01  0.48097009221E+02  0.49343407611E+02  0.10566000000E+00 0. -1.
         23    2    1    0    0    0  0.20832690900E+02 -0.12629147076E+02  0.14655114846E+02  0.96569932164E+02  0.92290210971E+02 0.  0.
         13    1    3    3    0    0  0.31646837359E+02 -0.10509559604E+02 -0.33441894375E+02  0.47226524553E+02  0.10566000000E+00 0.  1.
         22    1    1    0    0    0 -0.20832690900E+02  0.12629147076E+02 -0.14655114846E+02  0.28430067836E+02  0.00000000000E+00 0. -1.
</event>
<event>
 5    1  0.1764311E-003  0.9118800E+02  0.7818608E-02  0.1130116E+00
         25   -1    0    0    0    0  0.00000000000E+00  0.00000000000E+00  0.99999998245E-14  0.12500000000E+03  0.12500000000E+03 0.  0.
        -13    1    3    3    0    0 -0.81243696539E+01  0.29752594493E+02  0.43506203992E+02  0.53329384125E+02  0.10566000000E+00 0. -1.
         23    2    1    0    0    0 -0.72672904542E+01  0.26847191415E+02 -0.24506577092E+00  0.97185520774E+02  0.93120245884E+02 0.  0.
         13    1    3    3    0    0  0.85707919967E+00 -0.29054030782E+01 -0.43751269763E+02  0.43856136648E+02  0.10566000000E+00 0.  1.
         22    1    1    0    0    0  0.72672904542E+01 -0.26847191415E+02  0.24506577092E+00  0.27814479226E+02  0.00000000000E+00 0. -1.
</event>
<event>
 5    1  0.1764311E-003  0.9118800E+02  0.7818608E-02  0.1130116E+00
         25   -1    0    0    0    0  0.00000000000E+00  0.00000000000E+00  0.99999998245E-14  0.12500000000E+03  0.12500000000E+03 0.  0.
        -13    1    3    3    0    0 -0.13267375479E+02  0.44444478299E+02  0.18908392611E+02  0.50088655188E+02  0.10566000000E+00 0.  1.
         23    2    1    0    0    0  0.12208129527E+02  0.65451822814E+01  0.25257167200E+02  0.96193710190E+02  0.91779232659E+02 0.  0.
         13    1    3    3    0    0  0.25475505006E+02 -0.37899296018E+02  0.63487745897E+01  0.46105055002E+02  0.10566000000E+00 0. -1.
         22    1    1    0    0    0 -0.12208129527E+02 -0.65451822814E+01 -0.25257167200E+02  0.28806289810E+02  0.00000000000E+00 0.  1.
</event>
<event>
 5    1  0.1764311E-003  0.9118800E+02  0.7818608E-02  0.1130116E+00
         25   -1    0    0    0    0  0.00000000000E+00  0.00000000000E+00  0.99999998245E-14  0.12500000000E+03  0.12500000000E+03 0.  0.
        -13    1    3    3    0    0  0.42073172364E+02  0.38021163156E+02 -0.23543033466E+02  0.61400702515E+02  0.10566000000E+00 0.  1.
         23    2    1    0    0    0  0.19532589715E+02  0.19998698071E+02 -0.20320447658E+02  0.90440043714E+02  0.83576377813E+02 0.  0.
         13    1    3    3    0    0 -0.22540582649E+02 -0.18022465085E+02  0.32225858079E+01  0.29039341199E+02  0.10566000000E+00 0. -1.
         22    1    1    0    0    0 -0.19532589715E+02 -0.19998698071E+02  0.20320447658E+02  0.34559956286E+02  0.00000000000E+00 0.  1.
</event>
<event>
 5    1  0.1764311E-003  0.9118800E+02  0.7818608E-02  0.1130116E+00
         25   -1    0    0    0    0  0.00000000000E+00  0.00000000000E+00  0.99999998245E-14  0.12500000000E+03  0.12500000000E+03 0.  0.
        -13    1    3    3    0    0 -0.11345532606E+02  0.12074274361E+02 -0.32432910454E+02  0.36419967820E+02  0.10566000000E+00 0. -1.
         23    2    1    0    0    0 -0.27695715867E+02 -0.80065093198E+00  0.18664291456E+02  0.91592673037E+02  0.85282872015E+02 0.  0.
         13    1    3    3    0    0 -0.16350183261E+02 -0.12874925293E+02  0.51097201910E+02  0.55172705217E+02  0.10566000000E+00 0.  1.
         22    1    1    0    0    0  0.27695715867E+02  0.80065093198E+00 -0.18664291456E+02  0.33407326963E+02  0.00000000000E+00 0.  1.
</event>
<event>
 5    1  0.1764311E-003  0.9118800E+02  0.7818608E-02  0.1130116E+00
         25   -1    0    0    0    0  0.00000000000E+00  0.00000000000E+00  0.99999998245E-14  0.12500000000E+03  0.12500000000E+03 0.  0.
        -13    1    3    3    0    0  0.34142048883E+01  0.24345548682E+02  0.21410077385E+02  0.32600078425E+02  0.10566000000E+00 0. -1.
         23    2    1    0    0    0  0.13709431035E+01 -0.16126561767E+02 -0.25629558146E+02  0.94687960640E+02  0.89705017474E+02 0.  0.
         13    1    3    3    0    0 -0.20432617848E+01 -0.40472110449E+02 -0.47039635531E+02  0.62087882214E+02  0.10566000000E+00 0.  1.
         22    1    1    0    0    0 -0.13709431035E+01  0.16126561767E+02  0.25629558146E+02  0.30312039360E+02  0.00000000000E+00 0.  1.
</event>
<event>
 5    1  0.1764311E-003  0.9118800E+02  0.7818608E-02  0.1130116E+00
         25   -1    0    0    0    0  0.00000000000E+00  0.00000000000E+00  0.99999998245E-14  0.12500000000E+03  0.12500000000E+03 0.  0.
        -13    1    3    3    0    0  0.30278532029E+02 -0.10673041108E+02 -0.47928224482E+02  0.57687339810E+02  0.10566000000E+00 0.  1.
         23    2    1    0    0    0  0.21005356274E+02 -0.17290434110E+02 -0.12208278006E+02  0.95180104699E+02  0.90388197098E+02 0.  0.
         13    1    3    3    0    0 -0.92731757552E+01 -0.66173930028E+01  0.35719946476E+02  0.37492764889E+02  0.10566000000E+00 0. -1.
         22    1    1    0    0    0 -0.21005356274E+02  0.17290434110E+02  0.12208278006E+02  0.29819895301E+02  0.00000000000E+00 0.  1.
</event>
<event>
 5    1  0.1764311E-003  0.9118800E+02  0.7818608E-02  0.1130116E+00
         25   -1    0    0    0    0  0.00000000000E+00  0.00000000000E+00  0.99999998245E-14  0.12500000000E+03  0.12500000000E+03 0.  0.
        -13    1    3    3    0    0 -0.21147355679E+02  0.38412981316E+01 -0.31357143835E+02  0.38016415626E+02  0.10566000000E+00 0. -1.
         23    2    1    0    0    0  0.22696264151E+01 -0.21913799022E+02  0.16699203322E+02  0.97355304610E+02  0.93347877065E+02 0.  0.
         13    1    3    3    0    0  0.23416982094E+02 -0.25755097154E+02  0.48056347156E+02  0.59338888984E+02  0.10566000000E+00 0.  1.
         22    1    1    0    0    0 -0.22696264151E+01  0.21913799022E+02 -0.16699203322E+02  0.27644695390E+02  0.00000000000E+00 0.  1.
</event>
<event>
 5    1  0.1764311E-003  0.9118800E+02  0.7818608E-02  0.1130116E+00
         25   -1    0    0    0    0  0.00000000000E+00  0.00000000000E+00  0.99999998245E-14  0.12500000000E+03  0.12500000000E+03 0.  0.
        -13    1    3    3    0    0 -0.17790796613E+02 -0.40834967098E+02  0.42087938413E+02  0.61281422192E+02  0.10566000000E+00 0.  1.
         23    2    1    0    0    0 -0.15878562372E+02 -0.17427922544E+02  0.15361237199E+02  0.96860546639E+02  0.92682990131E+02 0.  0.
         13    1    3    3    0    0  0.19122342411E+01  0.23407044554E+02 -0.26726701214E+02  0.35579124447E+02  0.10566000000E+00 0. -1.
         22    1    1    0    0    0  0.15878562372E+02  0.17427922544E+02 -0.15361237199E+02  0.28139453361E+02  0.00000000000E+00 0.  1.
</event>
<event>
 5    1  0.1764311E-003  0.9118800E+02  0.7818608E-02  0.1130116E+00
         25   -1    0    0    0    0  0.00000000000E+00  0.00000000000E+00  0.99999998245E-14  0.12500000000E+03  0.12500000000E+03 0.  0.
        -13    1    3    3    0    0 -0.16033476657E+02  0.55605192949E+02 -0.36193891669E+01  0.57983799450E+02  0.10566000000E+00 0. -1.
         23    2    1    0    0    0 -0.47991062775E+01  0.21895107983E+02 -0.17935871400E+02  0.96292463402E+02  0.91913632561E+02 0.  0.
         13    1    3    3    0    0  0.11234370380E+02 -0.33710084966E+02 -0.14316482233E+02  0.38308663952E+02  0.10566000000E+00 0.  1.
         22    1    1    0    0    0  0.47991062775E+01 -0.21895107983E+02  0.17935871400E+02  0.28707536598E+02  0.00000000000E+00 0. -1.
</event>
<event>
 5    1  0.1764311E-003  0.9118800E+02  0.7818608E-02  0.1130116E+00
         25   -1    0    0    0    0  0.00000000000E+00  0.00000000000E+00  0.99999998245E-14  0.12500000000E+03  0.12500000000E+03 0.  0.
        -13    1    3    3    0    0  0.24962015328E+02  0.78738980775E+01  0.40849874699E+02  0.48516223133E+02  0.10566000000E+00 0. -1.
         23    2    1    0    0    0 -0.11190182534E+02  0.22910118573E+02  0.15468126987E+02  0.95177916394E+02  0.90385170788E+02 0.  0.
         13    1    3    3    0    0 -0.36152197861E+02  0.15036220495E+02 -0.25381747712E+02  0.46661693261E+02  0.10566000000E+00 0.  1.
         22    1    1    0    0    0  0.11190182534E+02 -0.22910118573E+02 -0.15468126987E+02  0.29822083606E+02  0.00000000000E+00 0. -1.
</event>
<event>
 5    1  0.1764311E-003  0.9118800E+02  0.7818608E-02  0.1130116E+00
         25   -1    0    0    0    0  0.00000000000E+00  0.00000000000E+00  0.99999998245E-14  0.12500000000E+03  0.12500000000E+03 0.  0.
        -13    1    3    3    0    0  0.82974424360E+01  0.57772259754E+01 -0.31249415016E+02  0.32844497162E+02  0.10566000000E+00 0.  1.
         23    2    1    0    0    0  0.60616113610E+01  0.66047763720E+01  0.29769459327E+02  0.93910019108E+02  0.88614359880E+02 0.  0.
         13    1    3    3    0    0 -0.22358310750E+01  0.82755039658E+00  0.61018874344E+02  0.61065521946E+02  0.10566000000E+00 0. -1.
         22    1    1    0    0    0 -0.60616113610E+01 -0.66047763720E+01 -0.29769459327E+02  0.31089980892E+02  0.00000000000E+00 0. -1.
</event>
<event>
 5    1  0.1764311E-003  0.9118800E+02  0.7818608E-02  0.1130116E+00
         25   -1    0    0    0    0  0.00000000000E+00  0.00000000000E+00  0.99999998245E-14  0.12500000000E+03  0.12500000000E+03 0.  0.
        -13    1    3    3    0    0  0.37159186499E+02  0.22301806015E+02 -0.36853652054E+02  0.56889177587E+02  0.10566000000E+00 0.  1.
         23    2    1    0    0    0 -0.33452115949E+01  0.14548695857E+02 -0.16055102908E+02  0.10307692264E+03  0.10071857157E+03 0.  0.
         13    1    3    3    0    0 -0.40504398094E+02 -0.77531101576E+01  0.20798549146E+02  0.46187745048E+02  0.10566000000E+00 0. -1.
         22    1    1    0    0    0  0.33452115949E+01 -0.14548695857E+02  0.16055102908E+02  0.21923077365E+02  0.00000000000E+00 0.  1.
</event>
<event>
 5    1  0.1764311E-003  0.9118800E+02  0.7818608E-02  0.1130116E+00
         25   -1    0    0    0    0  0.00000000000E+00  0.00000000000E+00  0.99999998245E-14  0.12500000000E+03  0.12500000000E+03 0.  0.
        -13    1    3    3    0    0  0.59580279258E+01 -0.10783931140E+01 -0.41893011883E+02  0.42328437688E+02  0.10566000000E+00 0.  1.
         23    2    1    0    0    0  0.13890601572E+02  0.25447868625E+02  0.38046682930E+01  0.95759303524E+02  0.91185667081E+02 0.  0.
         13    1    3    3    0    0  0.79325736463E+01  0.26526261739E+02  0.45697680176E+02  0.53430865836E+02  0.10566000000E+00 0. -1.
         22    1    1    0    0    0 -0.13890601572E+02 -0.25447868625E+02 -0.38046682930E+01  0.29240696476E+02  0.00000000000E+00 0. -1.
</event>
<event>
 5    1  0.1764311E-003  0.9118800E+02  0.7818608E-02  0.1130116E+00
         25   -1    0    0    0    0  0.00000000000E+00  0.00000000000E+00  0.99999998245E-14  0.12500000000E+03  0.12500000000E+03 0.  0.
        -13    1    3    3    0    0  0.13645507882E+02  0.43693487360E+02  0.35179017675E+01  0.45909775864E+02  0.10566000000E+00 0. -1.
         23    2    1    0    0    0  0.33103581714E+01  0.33420878626E+01  0.29582007738E+02  0.95046315680E+02  0.90202987312E+02 0.  0.
         13    1    3    3    0    0 -0.10335149711E+02 -0.40351399497E+02  0.26064105971E+02  0.49136539816E+02  0.10566000000E+00 0.  1.
         22    1    1    0    0    0 -0.33103581714E+01 -0.33420878626E+01 -0.29582007738E+02  0.29953684320E+02  0.00000000000E+00 0.  1.
</event>
<event>
 5    1  0.1764311E-003  0.9118800E+02  0.7818608E-02  0.1130116E+00
         25   -1    0    0    0    0  0.00000000000E+00  0.00000000000E+00  0.99999998245E-14  0.12500000000E+03  0.12500000000E+03 0.  0.
        -13    1    3    3    0    0  0.44125918616E+02  0.42878254345E+02 -0.10760649128E+02  0.62461541152E+02  0.10566000000E+00 0.  1.
         23    2    1    0    0    0  0.22195819877E+02  0.19433177023E+02 -0.49210538679E+01  0.95091480137E+02  0.90265552866E+02 0.  0.
         13    1    3    3    0    0 -0.21930098739E+02 -0.23445077322E+02  0.58395952600E+01  0.32629938985E+02  0.10566000000E+00 0. -1.
         22    1    1    0    0    0 -0.22195819877E+02 -0.19433177023E+02  0.49210538679E+01  0.29908519863E+02  0.00000000000E+00 0.  1.
</event>
<event>
 5    1  0.1764311E-003  0.9118800E+02  0.7818608E-02  0.1130116E+00
         25   -1    0    0    0    0  0.00000000000E+00  0.00000000000E+00  0.99999998245E-14  0.12500000000E+03  0.12500000000E+03 0.  0.
        -13    1    3    3    0    0  0.16792317891E+02  0.23897666103E+02  0.24098875285E+02  0.37866176720E+02  0.10566000000E+00 0. -1.
         23    2    1    0    0    0 -0.40464310693E+01 -0.26716129965E+02 -0.72797388729E+00  0.97969366439E+02  0.94166563120E+02 0.  0.
         13    1    3    3    0    0 -0.20838748960E+02 -0.50613796068E+02 -0.24826849172E+02  0.60103189720E+02  0.10566000000E+00 0.  1.
         22    1    1    0    0    0  0.40464310693E+01  0.26716129965E+02  0.72797388729E+00  0.27030633561E+02  0.00000000000E+00 0.  1.
</event>
<event>
 5    1  0.1764311E-003  0.9118800E+02  0.7818608E-02  0.1130116E+00
         25   -1    0    0    0    0  0.00000000000E+00  0.00000000000E+00  0.99999998245E-14  0.12500000000E+03  0.12500000000E+03 0.  0.
        -13    1    3    3    0    0  0.46344376818E+02  0.15434499208E+02 -0.17586722335E+02  0.51916558004E+02  0.10566000000E+00 0. -1.
         23    2    1    0    0    0  0.51232232917E+01  0.27195717615E+02 -0.10684405977E+02  0.95335020570E+02  0.90602180672E+02 0.  0.
         13    1    3    3    0    0 -0.41221153526E+02  0.11761218407E+02  0.69023163578E+01  0.43418462566E+02  0.10566000000E+00 0.  1.
         22    1    1    0    0    0 -0.51232232917E+01 -0.27195717615E+02  0.10684405977E+02  0.29664979430E+02  0.00000000000E+00 0.  1.
</event>
<event>
 5    1  0.1764311E-003  0.9118800E+02  0.7818608E-02  0.1130116E+00
         25   -1    0    0    0    0  0.00000000000E+00  0.00000000000E+00  0.99999998245E-14  0.12500000000E+03  0.12500000000E+03 0.  0.
        -13    1    3    3    0    0 -0.19486461574E+01  0.51207231990E+02 -0.30215492138E+02  0.59489200357E+02  0.10566000000E+00 0. -1.
         23    2    1    0    0    0 -0.62967754351E+00  0.15182663457E+02 -0.24760502134E+02  0.95948455646E+02  0.91444594763E+02 0.  0.
         13    1    3    3    0    0  0.13189686139E+01 -0.36024568534E+02  0.54549900035E+01  0.36459255289E+02  0.10566000000E+00 0.  1.
         22    1    1    0    0    0  0.62967754351E+00 -0.15182663457E+02  0.24760502134E+02  0.29051544354E+02  0.00000000000E+00 0. -1.
</event>
<event>
 5    1  0.1764311E-003  0.9118800E+02  0.7818608E-02  0.1130116E+00
         25   -1    0    0    0    0  0.00000000000E+00  0.00000000000E+00  0.99999998245E-14  0.12500000000E+03  0.12500000000E+03 0.  0.
        -13    1    3    3    0    0 -0.15615092063E+01  0.53014353556E+02  0.21214755736E+02  0.57122999037E+02  0.10566000000E+00 0. -1.
         23    2    1    0    0    0 -0.17709996397E+02  0.24150964652E+02  0.29460313588E+01  0.94906941552E+02  0.90009640528E+02 0.  0.
         13    1    3    3    0    0 -0.16148487191E+02 -0.28863388904E+02 -0.18268724378E+02  0.37783942515E+02  0.10566000000E+00 0.  1.
         22    1    1    0    0    0  0.17709996397E+02 -0.24150964652E+02 -0.29460313588E+01  0.30093058448E+02  0.00000000000E+00 0. -1.
</event>
<event>
 5    1  0.1764311E-003  0.9118800E+02  0.7818608E-02  0.1130116E+00
         25   -1    0    0    0    0  0.00000000000E+00  0.00000000000E+00  0.99999998245E-14  0.12500000000E+03  0.12500000000E+03 0.  0.
        -13    1    3    3    0    0 -0.19997943350E+02 -0.94237297893E+01 -0.24919113199E+02  0.33312126741E+02  0.10566000000E+00 0. -1.
         23    2    1    0    0    0  0.13158581645E+02 -0.19503143586E-01  0.26615668329E+02  0.95309219413E+02  0.90566576910E+02 0.  0.
         13    1    3    3    0    0  0.33156524995E+02  0.94042266457E+01  0.51534781528E+02  0.61997092671E+02  0.10566000000E+00 0.  1.
         22    1    1    0    0    0 -0.13158581645E+02  0.19503143586E-01 -0.26615668329E+02  0.29690780587E+02  0.00000000000E+00 0.  1.
</event>
<event>
 5    1  0.1764311E-003  0.9118800E+02  0.7818608E-02  0.1130116E+00
         25   -1    0    0    0    0  0.00000000000E+00  0.00000000000E+00  0.99999998245E-14  0.12500000000E+03  0.12500000000E+03 0.  0.
        -13    1    3    3    0    0 -0.33265807861E+02 -0.32946587705E+02 -0.40764536598E+01  0.46997023869E+02  0.10566000000E+00 0.  1.
         23    2    1    0    0    0 -0.19699221348E+02  0.86091838937E+01  0.18893946247E+02  0.96379053583E+02  0.92031317472E+02 0.  0.
         13    1    3    3    0    0  0.13566586513E+02  0.41555771598E+02  0.22970399907E+02  0.49382029714E+02  0.10566000000E+00 0. -1.
         22    1    1    0    0    0  0.19699221348E+02 -0.86091838937E+01 -0.18893946247E+02  0.28620946417E+02  0.00000000000E+00 0. -1.
</event>
<event>
 5    1  0.1764311E-003  0.9118800E+02  0.7818608E-02  0.1130116E+00
         25   -1    0    0    0    0  0.00000000000E+00  0.00000000000E+00  0.99999998245E-14  0.12500000000E+03  0.12500000000E+03 0.  0.
        -13    1    3    3    0    0 -0.14065442972E+02 -0.38445521860E+02  0.31982853348E+02  0.51950061688E+02  0.10566000000E+00 0.  1.
         23    2    1    0    0    0 -0.44114036209E+01 -0.28112564351E+02 -0.88794883201E+01  0.95190235339E+02  0.90402205918E+02 0.  0.
         13    1    3    3    0    0  0.96540393515E+01  0.10332957508E+02 -0.40862341669E+02  0.43240173651E+02  0.10566000000E+00 0. -1.
         22    1    1    0    0    0  0.44114036209E+01  0.28112564351E+02  0.88794883201E+01  0.29809764661E+02  0.00000000000E+00 0.  1.
</event>
<event>
 5    1  0.1764311E-003  0.9118800E+02  0.7818608E-02  0.1130116E+00
         25   -1    0    0    0    0  0.00000000000E+00  0.00000000000E+00  0.99999998245E-14  0.12500000000E+03  0.12500000000E+03 0.  0.
        -13    1    3    3    0    0 -0.38795831033E+02 -0.10803697551E+02  0.32418623379E+01  0.40402440790E+02  0.10566000000E+00 0. -1.
         23    2    1    0    0    0  0.15054273339E+02 -0.21211919024E+02  0.12692202936E+02  0.96057493719E+02  0.91593522859E+02 0.  0.
         13    1    3    3    0    0  0.53850104372E+02 -0.10408221473E+02  0.94503405977E+01  0.55655052929E+02  0.10566000000E+00 0.  1.
         22    1    1    0    0    0 -0.15054273339E+02  0.21211919024E+02 -0.12692202936E+02  0.28942506281E+02  0.00000000000E+00 0.  1.
</event>
<event>
 4    1  0.1764311E-003  0.9118800E+02  0.7818608E-02  0.1130116E+00
         25   -1    0    0    0    0  0.00000000000E+00  0.00000000000E+00  0.99999998245E-14  0.12500000000E+03  0.12500000000E+03 0.  0.
        -13    1    1    0    0    0 -0.11868320264E+02  0.15017042725E+02 -0.10785130003E+02  0.21970407172E+02  0.10566000000E+00 0.  1.
         13    1    1    0    0    0 -0.40324162950E+02  0.78175711482E+01 -0.10192791406E+02  0.42320877791E+02  0.10566000000E+00 0. -1.
         22    1    1    0    0    0  0.52192483214E+02 -0.22834613873E+02  0.20977921409E+02  0.60708715037E+02  0.00000000000E+00 0. -1.
</event>
<event>
 5    1  0.1764311E-003  0.9118800E+02  0.7818608E-02  0.1130116E+00
         25   -1    0    0    0    0  0.00000000000E+00  0.00000000000E+00  0.99999998245E-14  0.12500000000E+03  0.12500000000E+03 0.  0.
        -13    1    3    3    0    0  0.30588390973E+02  0.24284163121E+02  0.46878546255E+01  0.39336463820E+02  0.10566000000E+00 0.  1.
         23    2    1    0    0    0 -0.23904335385E+02  0.10270742102E+02  0.12488645795E+02  0.96140483938E+02  0.91706711774E+02 0.  0.
         13    1    3    3    0    0 -0.54492726359E+02 -0.14013421019E+02  0.78007911698E+01  0.56804020118E+02  0.10566000000E+00 0. -1.
         22    1    1    0    0    0  0.23904335385E+02 -0.10270742102E+02 -0.12488645795E+02  0.28859516062E+02  0.00000000000E+00 0. -1.
</event>
<event>
 5    1  0.1764311E-003  0.9118800E+02  0.7818608E-02  0.1130116E+00
         25   -1    0    0    0    0  0.00000000000E+00  0.00000000000E+00  0.99999998245E-14  0.12500000000E+03  0.12500000000E+03 0.  0.
        -13    1    3    3    0    0 -0.56423881624E+01 -0.12367267559E+02  0.31657107249E+02  0.34452423057E+02  0.10566000000E+00 0. -1.
         23    2    1    0    0    0 -0.71120482613E+01  0.31455652791E+02 -0.59351229596E+01  0.92208766301E+02  0.86181155569E+02 0.  0.
         13    1    3    3    0    0 -0.14696600989E+01  0.43822920350E+02 -0.37592230209E+02  0.57756343244E+02  0.10566000000E+00 0.  1.
         22    1    1    0    0    0  0.71120482613E+01 -0.31455652791E+02  0.59351229596E+01  0.32791233699E+02  0.00000000000E+00 0.  1.
</event>
<event>
 5    1  0.1764311E-003  0.9118800E+02  0.7818608E-02  0.1130116E+00
         25   -1    0    0    0    0  0.00000000000E+00  0.00000000000E+00  0.99999998245E-14  0.12500000000E+03  0.12500000000E+03 0.  0.
        -13    1    3    3    0    0 -0.25135419871E+02 -0.13610039165E+02 -0.21002213019E+02  0.35470080545E+02  0.10566000000E+00 0.  1.
         23    2    1    0    0    0  0.73858719565E+01 -0.42669839980E+02 -0.12754961249E+02  0.79856280781E+02  0.65871619042E+02 0.  0.
         13    1    3    3    0    0  0.32521291828E+02 -0.29059800815E+02  0.82472517694E+01  0.44386200236E+02  0.10566000000E+00 0. -1.
         22    1    1    0    0    0 -0.73858719565E+01  0.42669839980E+02  0.12754961249E+02  0.45143719219E+02  0.00000000000E+00 0. -1.
</event>
<event>
 5    1  0.1764311E-003  0.9118800E+02  0.7818608E-02  0.1130116E+00
         25   -1    0    0    0    0  0.00000000000E+00  0.00000000000E+00  0.99999998245E-14  0.12500000000E+03  0.12500000000E+03 0.  0.
        -13    1    3    3    0    0  0.33329713878E+02 -0.11975557284E+02 -0.39869762364E+02  0.53328162489E+02  0.10566000000E+00 0.  1.
         23    2    1    0    0    0  0.29542485834E+02 -0.21065971824E+01  0.82245590613E+00  0.95371084147E+02  0.90651922410E+02 0.  0.
         13    1    3    3    0    0 -0.37872280447E+01  0.98689601012E+01  0.40692218270E+02  0.42042921658E+02  0.10566000000E+00 0. -1.
         22    1    1    0    0    0 -0.29542485834E+02  0.21065971824E+01 -0.82245590613E+00  0.29628915853E+02  0.00000000000E+00 0. -1.
</event>
<event>
 5    1  0.1764311E-003  0.9118800E+02  0.7818608E-02  0.1130116E+00
         25   -1    0    0    0    0  0.00000000000E+00  0.00000000000E+00  0.99999998245E-14  0.12500000000E+03  0.12500000000E+03 0.  0.
        -13    1    3    3    0    0  0.48782334431E+02 -0.13105003503E+02  0.25520834040E+02  0.56593121521E+02  0.10566000000E+00 0.  1.
         23    2    1    0    0    0  0.23753191760E+02  0.13181331154E+02  0.10459521252E+02  0.95890496490E+02  0.91365333264E+02 0.  0.
         13    1    3    3    0    0 -0.25029142671E+02  0.26286334657E+02 -0.15061312788E+02  0.39297374969E+02  0.10566000000E+00 0. -1.
         22    1    1    0    0    0 -0.23753191760E+02 -0.13181331154E+02 -0.10459521252E+02  0.29109503510E+02  0.00000000000E+00 0.  1.
</event>
<event>
 5    1  0.1764311E-003  0.9118800E+02  0.7818608E-02  0.1130116E+00
         25   -1    0    0    0    0  0.00000000000E+00  0.00000000000E+00  0.99999998245E-14  0.12500000000E+03  0.12500000000E+03 0.  0.
        -13    1    3    3    0    0  0.11055597375E+02  0.37606104000E+02 -0.29666562402E+02  0.49158533136E+02  0.10566000000E+00 0.  1.
         23    2    1    0    0    0 -0.17528969833E+01  0.25936315162E+02  0.13525198033E+02  0.95696483592E+02  0.91099510965E+02 0.  0.
         13    1    3    3    0    0 -0.12808494358E+02 -0.11669788837E+02  0.43191760434E+02  0.46537950456E+02  0.10566000000E+00 0. -1.
         22    1    1    0    0    0  0.17528969833E+01 -0.25936315162E+02 -0.13525198033E+02  0.29303516408E+02  0.00000000000E+00 0. -1.
</event>
<event>
 5    1  0.1764311E-003  0.9118800E+02  0.7818608E-02  0.1130116E+00
         25   -1    0    0    0    0  0.00000000000E+00  0.00000000000E+00  0.99999998245E-14  0.12500000000E+03  0.12500000000E+03 0.  0.
        -13    1    3    3    0    0  0.62553234853E+01 -0.16063773451E+02  0.32329109731E+02  0.36638182125E+02  0.10566000000E+00 0.  1.
         23    2    1    0    0    0 -0.16426244810E+02  0.17161667762E+01 -0.21614544253E+02  0.97797881144E+02  0.93938651715E+02 0.  0.
         13    1    3    3    0    0 -0.22681568296E+02  0.17779940227E+02 -0.53943653985E+02  0.61159699019E+02  0.10566000000E+00 0. -1.
         22    1    1    0    0    0  0.16426244810E+02 -0.17161667762E+01  0.21614544253E+02  0.27202118856E+02  0.00000000000E+00 0. -1.
</event>
<event>
 5    1  0.1764311E-003  0.9118800E+02  0.7818608E-02  0.1130116E+00
         25   -1    0    0    0    0  0.00000000000E+00  0.00000000000E+00  0.99999998245E-14  0.12500000000E+03  0.12500000000E+03 0.  0.
        -13    1    3    3    0    0 -0.20092264225E+01 -0.34359136421E+02 -0.39086138014E+02  0.52079982673E+02  0.10566000000E+00 0.  1.
         23    2    1    0    0    0 -0.17615518168E+02 -0.42541071931E+01 -0.34139649022E+02  0.86348744604E+02  0.77215193783E+02 0.  0.
         13    1    3    3    0    0 -0.15606291746E+02  0.30105029228E+02  0.49464889913E+01  0.34268761930E+02  0.10566000000E+00 0. -1.
         22    1    1    0    0    0  0.17615518168E+02  0.42541071931E+01  0.34139649022E+02  0.38651255396E+02  0.00000000000E+00 0.  1.
</event>
<event>
 5    1  0.1764311E-003  0.9118800E+02  0.7818608E-02  0.1130116E+00
         25   -1    0    0    0    0  0.00000000000E+00  0.00000000000E+00  0.99999998245E-14  0.12500000000E+03  0.12500000000E+03 0.  0.
        -13    1    3    3    0    0  0.33341905231E+02 -0.81491732566E+01 -0.21287134140E+02  0.40388673080E+02  0.10566000000E+00 0. -1.
         23    2    1    0    0    0 -0.45199831894E+01 -0.23365065292E+02  0.16530850026E+02  0.96023707506E+02  0.91547402347E+02 0.  0.
         13    1    3    3    0    0 -0.37861888421E+02 -0.15215892036E+02  0.37817984166E+02  0.55635034426E+02  0.10566000000E+00 0.  1.
         22    1    1    0    0    0  0.45199831894E+01  0.23365065292E+02 -0.16530850026E+02  0.28976292494E+02  0.00000000000E+00 0.  1.
</event>
<event>
 5    1  0.1764311E-003  0.9118800E+02  0.7818608E-02  0.1130116E+00
         25   -1    0    0    0    0  0.00000000000E+00  0.00000000000E+00  0.99999998245E-14  0.12500000000E+03  0.12500000000E+03 0.  0.
        -13    1    3    3    0    0 -0.48627203372E+02 -0.26336603588E+01 -0.10303737621E+02  0.49776693821E+02  0.10566000000E+00 0.  1.
         23    2    1    0    0    0 -0.57076529932E+01  0.22455690848E+02 -0.10666501529E+02  0.99492949818E+02  0.96167756834E+02 0.  0.
         13    1    3    3    0    0  0.42919550379E+02  0.25089351206E+02 -0.36276390740E+00  0.49716255997E+02  0.10566000000E+00 0. -1.
         22    1    1    0    0    0  0.57076529932E+01 -0.22455690848E+02  0.10666501529E+02  0.25507050182E+02  0.00000000000E+00 0. -1.
</event>
<event>
 5    1  0.1764311E-003  0.9118800E+02  0.7818608E-02  0.1130116E+00
         25   -1    0    0    0    0  0.00000000000E+00  0.00000000000E+00  0.99999998245E-14  0.12500000000E+03  0.12500000000E+03 0.  0.
        -13    1    3    3    0    0  0.50956136024E+01 -0.39551251115E+02 -0.23750616485E+02  0.46415188142E+02  0.10566000000E+00 0.  1.
         23    2    1    0    0    0  0.27229479399E+02 -0.12329230474E+02  0.83451951364E+01  0.93966199809E+02  0.88693573342E+02 0.  0.
         13    1    3    3    0    0  0.22133865797E+02  0.27222020641E+02  0.32095811621E+02  0.47551011667E+02  0.10566000000E+00 0. -1.
         22    1    1    0    0    0 -0.27229479399E+02  0.12329230474E+02 -0.83451951364E+01  0.31033800191E+02  0.00000000000E+00 0. -1.
</event>
<event>
 5    1  0.1764311E-003  0.9118800E+02  0.7818608E-02  0.1130116E+00
         25   -1    0    0    0    0  0.00000000000E+00  0.00000000000E+00  0.99999998245E-14  0.12500000000E+03  0.12500000000E+03 0.  0.
        -13    1    3    3    0    0  0.55604091297E+01  0.25316031288E+02  0.24640909329E+02  0.35763181716E+02  0.10566000000E+00 0.  1.
         23    2    1    0    0    0 -0.22738707416E+02 -0.19310357124E+02 -0.23041643082E+01  0.95079306820E+02  0.90248693647E+02 0.  0.
         13    1    3    3    0    0 -0.28299116546E+02 -0.44626388412E+02 -0.26945073638E+02  0.59316125104E+02  0.10566000000E+00 0. -1.
         22    1    1    0    0    0  0.22738707416E+02  0.19310357124E+02  0.23041643082E+01  0.29920693180E+02  0.00000000000E+00 0. -1.
</event>
<event>
 5    1  0.1764311E-003  0.9118800E+02  0.7818608E-02  0.1130116E+00
         25   -1    0    0    0    0  0.00000000000E+00  0.00000000000E+00  0.99999998245E-14  0.12500000000E+03  0.12500000000E+03 0.  0.
        -13    1    3    3    0    0 -0.17967963695E+02  0.37798522791E+02  0.36173522587E+02  0.55318269540E+02  0.10566000000E+00 0. -1.
         23    2    1    0    0    0  0.80905244914E+01  0.28336989897E+02  0.88808162123E+01  0.94221590691E+02  0.89052780265E+02 0.  0.
         13    1    3    3    0    0  0.26058488186E+02 -0.94615328941E+01 -0.27292706375E+02  0.38903321151E+02  0.10566000000E+00 0.  1.
         22    1    1    0    0    0 -0.80905244914E+01 -0.28336989897E+02 -0.88808162123E+01  0.30778409309E+02  0.00000000000E+00 0. -1.
</event>
<event>
 5    1  0.1764311E-003  0.9118800E+02  0.7818608E-02  0.1130116E+00
         25   -1    0    0    0    0  0.00000000000E+00  0.00000000000E+00  0.99999998245E-14  0.12500000000E+03  0.12500000000E+03 0.  0.
        -13    1    3    3    0    0 -0.41062354036E+02 -0.38006240613E+02  0.21384857807E+02  0.59899203267E+02  0.10566000000E+00 0.  1.
         23    2    1    0    0    0 -0.20258955467E+02 -0.19755442097E+02 -0.26842802288E+01  0.96576275237E+02  0.92298801775E+02 0.  0.
         13    1    3    3    0    0  0.20803398570E+02  0.18250798515E+02 -0.24069138036E+02  0.36677071970E+02  0.10566000000E+00 0. -1.
         22    1    1    0    0    0  0.20258955467E+02  0.19755442097E+02  0.26842802288E+01  0.28423724763E+02  0.00000000000E+00 0.  1.
</event>
<event>
 5    1  0.1764311E-003  0.9118800E+02  0.7818608E-02  0.1130116E+00
         25   -1    0    0    0    0  0.00000000000E+00  0.00000000000E+00  0.99999998245E-14  0.12500000000E+03  0.12500000000E+03 0.  0.
        -13    1    3    3    0    0  0.92938205232E+01  0.95848638212E+01  0.60217421363E+02  0.61679767461E+02  0.10566000000E+00 0. -1.
         23    2    1    0    0    0  0.68497289262E+01 -0.22054182396E+01  0.28487065669E+02  0.95618108188E+02  0.90991906492E+02 0.  0.
         13    1    3    3    0    0 -0.24440915970E+01 -0.11790282061E+02 -0.31730355694E+02  0.33938340727E+02  0.10566000000E+00 0.  1.
         22    1    1    0    0    0 -0.68497289262E+01  0.22054182396E+01 -0.28487065669E+02  0.29381891812E+02  0.00000000000E+00 0. -1.
</event>
<event>
 5    1  0.1764311E-003  0.9118800E+02  0.7818608E-02  0.1130116E+00
         25   -1    0    0    0    0  0.00000000000E+00  0.00000000000E+00  0.99999998245E-14  0.12500000000E+03  0.12500000000E+03 0.  0.
        -13    1    3    3    0    0 -0.32554752440E+02 -0.16822125896E+02 -0.47457409116E+00  0.36647403874E+02  0.10566000000E+00 0.  1.
         23    2    1    0    0    0  0.14666303279E+02  0.49522626104E+01 -0.26127964883E+02  0.94630674921E+02  0.89625156793E+02 0.  0.
         13    1    3    3    0    0  0.47221055720E+02  0.21774388506E+02 -0.25653390792E+02  0.57983271047E+02  0.10566000000E+00 0. -1.
         22    1    1    0    0    0 -0.14666303279E+02 -0.49522626104E+01  0.26127964883E+02  0.30369325079E+02  0.00000000000E+00 0. -1.
</event>
<event>
 5    1  0.1764311E-003  0.9118800E+02  0.7818608E-02  0.1130116E+00
         25   -1    0    0    0    0  0.00000000000E+00  0.00000000000E+00  0.99999998245E-14  0.12500000000E+03  0.12500000000E+03 0.  0.
        -13    1    3    3    0    0 -0.17229903678E+02  0.26664572519E+02 -0.52588093131E+02  0.61427906619E+02  0.10566000000E+00 0. -1.
         23    2    1    0    0    0 -0.42401918456E+01  0.18771919708E+02 -0.20802698135E+02  0.96660690796E+02  0.92413054809E+02 0.  0.
         13    1    3    3    0    0  0.12989711833E+02 -0.78926528104E+01  0.31785394995E+02  0.35232784178E+02  0.10566000000E+00 0.  1.
         22    1    1    0    0    0  0.42401918456E+01 -0.18771919708E+02  0.20802698135E+02  0.28339309204E+02  0.00000000000E+00 0. -1.
</event>
<event>
 5    1  0.1764311E-003  0.9118800E+02  0.7818608E-02  0.1130116E+00
         25   -1    0    0    0    0  0.00000000000E+00  0.00000000000E+00  0.99999998245E-14  0.12500000000E+03  0.12500000000E+03 0.  0.
        -13    1    3    3    0    0  0.45309915707E+02  0.33443319562E+02  0.70301336588E+01  0.56752779914E+02  0.10566000000E+00 0.  1.
         23    2    1    0    0    0  0.18274852938E+02  0.14408905613E+02 -0.15745515808E+02  0.96901813601E+02  0.92738629492E+02 0.  0.
         13    1    3    3    0    0 -0.27035062769E+02 -0.19034413948E+02 -0.22775649467E+02  0.40149033686E+02  0.10566000000E+00 0. -1.
         22    1    1    0    0    0 -0.18274852938E+02 -0.14408905613E+02  0.15745515808E+02  0.28098186399E+02  0.00000000000E+00 0.  1.
</event>
<event>
 5    1  0.1764311E-003  0.9118800E+02  0.7818608E-02  0.1130116E+00
         25   -1    0    0    0    0  0.00000000000E+00  0.00000000000E+00  0.99999998245E-14  0.12500000000E+03  0.12500000000E+03 0.  0.
        -13    1    3    3    0    0 -0.18818984618E+02 -0.48329119673E+02 -0.99357897283E+01  0.52807093008E+02  0.10566000000E+00 0.  1.
         23    2    1    0    0    0  0.49274081710E+01 -0.22338800765E+02  0.16467781587E+02  0.96813315177E+02  0.92619267943E+02 0.  0.
         13    1    3    3    0    0  0.23746392789E+02  0.25990318907E+02  0.26403571315E+02  0.44006222169E+02  0.10566000000E+00 0. -1.
         22    1    1    0    0    0 -0.49274081710E+01  0.22338800765E+02 -0.16467781587E+02  0.28186684823E+02  0.00000000000E+00 0.  1.
</event>
<event>
 5    1  0.1764311E-003  0.9118800E+02  0.7818608E-02  0.1130116E+00
         25   -1    0    0    0    0  0.00000000000E+00  0.00000000000E+00  0.99999998245E-14  0.12500000000E+03  0.12500000000E+03 0.  0.
        -13    1    3    3    0    0  0.35840045669E+02 -0.42283672526E+02 -0.14548272215E+02  0.57306903810E+02  0.10566000000E+00 0. -1.
         23    2    1    0    0    0  0.32136020945E+02 -0.11702358251E+02 -0.14847975857E+01  0.90767359805E+02  0.84064498757E+02 0.  0.
         13    1    3    3    0    0 -0.37040247233E+01  0.30581314275E+02  0.13063474630E+02  0.33460455995E+02  0.10566000000E+00 0.  1.
         22    1    1    0    0    0 -0.32136020945E+02  0.11702358251E+02  0.14847975857E+01  0.34232640195E+02  0.00000000000E+00 0. -1.
</event>
<event>
 5    1  0.1764311E-003  0.9118800E+02  0.7818608E-02  0.1130116E+00
         25   -1    0    0    0    0  0.00000000000E+00  0.00000000000E+00  0.99999998245E-14  0.12500000000E+03  0.12500000000E+03 0.  0.
        -13    1    3    3    0    0 -0.55175939756E+02 -0.22683654663E+01 -0.25070608596E+02  0.60647146588E+02  0.10566000000E+00 0. -1.
         23    2    1    0    0    0 -0.21786360151E+02  0.42132021323E+01 -0.20172853021E+02  0.95010992683E+02  0.90154024707E+02 0.  0.
         13    1    3    3    0    0  0.33389579605E+02  0.64815675986E+01  0.48977555753E+01  0.34363846095E+02  0.10566000000E+00 0.  1.
         22    1    1    0    0    0  0.21786360151E+02 -0.42132021323E+01  0.20172853021E+02  0.29989007317E+02  0.00000000000E+00 0. -1.
</event>
<event>
 5    1  0.1764311E-003  0.9118800E+02  0.7818608E-02  0.1130116E+00
         25   -1    0    0    0    0  0.00000000000E+00  0.00000000000E+00  0.99999998245E-14  0.12500000000E+03  0.12500000000E+03 0.  0.
        -13    1    3    3    0    0 -0.46624959678E+02 -0.89348777427E+01 -0.89895923705E+01  0.48317107118E+02  0.10566000000E+00 0. -1.
         23    2    1    0    0    0 -0.35699387082E+01 -0.27875739321E+02  0.26465317886E+01  0.96772257696E+02  0.92563839721E+02 0.  0.
         13    1    3    3    0    0  0.43055020970E+02 -0.18940861578E+02  0.11636124159E+02  0.48455150578E+02  0.10566000000E+00 0.  1.
         22    1    1    0    0    0  0.35699387082E+01  0.27875739321E+02 -0.26465317886E+01  0.28227742304E+02  0.00000000000E+00 0. -1.
</event>
<event>
 5    1  0.1764311E-003  0.9118800E+02  0.7818608E-02  0.1130116E+00
         25   -1    0    0    0    0  0.00000000000E+00  0.00000000000E+00  0.99999998245E-14  0.12500000000E+03  0.12500000000E+03 0.  0.
        -13    1    3    3    0    0 -0.41046190702E+02  0.22132638423E+01  0.42411946608E+02  0.59063293906E+02  0.10566000000E+00 0.  1.
         23    2    1    0    0    0 -0.12528261926E+02 -0.10395652409E+02  0.26062470320E+02  0.94270872205E+02  0.89121928004E+02 0.  0.
         13    1    3    3    0    0  0.28517928776E+02 -0.12608916251E+02 -0.16349476288E+02  0.35207578298E+02  0.10566000000E+00 0. -1.
         22    1    1    0    0    0  0.12528261926E+02  0.10395652409E+02 -0.26062470320E+02  0.30729127795E+02  0.00000000000E+00 0.  1.
</event>
<event>
 5    1  0.1764311E-003  0.9118800E+02  0.7818608E-02  0.1130116E+00
         25   -1    0    0    0    0  0.00000000000E+00  0.00000000000E+00  0.99999998245E-14  0.12500000000E+03  0.12500000000E+03 0.  0.
        -13    1    3    3    0    0 -0.57723099359E+02  0.17702286419E+02 -0.37127773450E+01  0.60490685429E+02  0.10566000000E+00 0. -1.
         23    2    1    0    0    0 -0.29769193396E+02  0.53933871534E+01  0.87907390696E+01  0.93494911620E+02  0.88026858997E+02 0.  0.
         13    1    3    3    0    0  0.27953905962E+02 -0.12308899266E+02  0.12503516415E+02  0.33004226191E+02  0.10566000000E+00 0.  1.
         22    1    1    0    0    0  0.29769193396E+02 -0.53933871534E+01 -0.87907390696E+01  0.31505088380E+02  0.00000000000E+00 0. -1.
</event>
<event>
 5    1  0.1764311E-003  0.9118800E+02  0.7818608E-02  0.1130116E+00
         25   -1    0    0    0    0  0.00000000000E+00  0.00000000000E+00  0.99999998245E-14  0.12500000000E+03  0.12500000000E+03 0.  0.
        -13    1    3    3    0    0  0.36713955727E+02 -0.39388444242E+01  0.15796476084E+02  0.40161783591E+02  0.10566000000E+00 0.  1.
         23    2    1    0    0    0 -0.17207124774E+02 -0.14260420094E+02  0.19710817549E+02  0.95201324649E+02  0.90417537913E+02 0.  0.
         13    1    3    3    0    0 -0.53921080501E+02 -0.10321575670E+02  0.39143414644E+01  0.55039541058E+02  0.10566000000E+00 0. -1.
         22    1    1    0    0    0  0.17207124774E+02  0.14260420094E+02 -0.19710817549E+02  0.29798675351E+02  0.00000000000E+00 0. -1.
</event>
<event>
 5    1  0.1764311E-003  0.9118800E+02  0.7818608E-02  0.1130116E+00
         25   -1    0    0    0    0  0.00000000000E+00  0.00000000000E+00  0.99999998245E-14  0.12500000000E+03  0.12500000000E+03 0.  0.
        -13    1    3    3    0    0  0.19131507714E+02  0.26948409428E+02  0.11116892807E+02  0.34868722773E+02  0.10566000000E+00 0. -1.
         23    2    1    0    0    0 -0.43662778031E+01 -0.28404956785E+02  0.83763297336E+01  0.95065590842E+02  0.90229694173E+02 0.  0.
         13    1    3    3    0    0 -0.23497785517E+02 -0.55353366213E+02 -0.27405630735E+01  0.60196868069E+02  0.10566000000E+00 0.  1.
         22    1    1    0    0    0  0.43662778031E+01  0.28404956785E+02 -0.83763297336E+01  0.29934409158E+02  0.00000000000E+00 0.  1.
</event>
<event>
 5    1  0.1764311E-003  0.9118800E+02  0.7818608E-02  0.1130116E+00
         25   -1    0    0    0    0  0.00000000000E+00  0.00000000000E+00  0.99999998245E-14  0.12500000000E+03  0.12500000000E+03 0.  0.
        -13    1    3    3    0    0 -0.49203606769E+01 -0.12007680569E+02  0.42740002012E+02  0.44666690921E+02  0.10566000000E+00 0. -1.
         23    2    1    0    0    0 -0.24243970972E+02  0.76985168068E+01 -0.42965342071E+01  0.99202761859E+02  0.95789824433E+02 0.  0.
         13    1    3    3    0    0 -0.19323610295E+02  0.19706197376E+02 -0.47036536219E+02  0.54536070938E+02  0.10566000000E+00 0.  1.
         22    1    1    0    0    0  0.24243970972E+02 -0.76985168068E+01  0.42965342071E+01  0.25797238141E+02  0.00000000000E+00 0. -1.
</event>
<event>
 5    1  0.1764311E-003  0.9118800E+02  0.7818608E-02  0.1130116E+00
         25   -1    0    0    0    0  0.00000000000E+00  0.00000000000E+00  0.99999998245E-14  0.12500000000E+03  0.12500000000E+03 0.  0.
        -13    1    3    3    0    0 -0.25496082000E+02 -0.23273637620E+02 -0.24305018557E+02  0.42219160301E+02  0.10566000000E+00 0. -1.
         23    2    1    0    0    0 -0.27235771257E+01  0.24436682019E+02 -0.15820051058E+02  0.95762296330E+02  0.91189769615E+02 0.  0.
         13    1    3    3    0    0  0.22772504874E+02  0.47710319639E+02  0.84849674988E+01  0.53543136029E+02  0.10566000000E+00 0.  1.
         22    1    1    0    0    0  0.27235771257E+01 -0.24436682019E+02  0.15820051058E+02  0.29237703670E+02  0.00000000000E+00 0.  1.
</event>
<event>
 5    1  0.1764311E-003  0.9118800E+02  0.7818608E-02  0.1130116E+00
         25   -1    0    0    0    0  0.00000000000E+00  0.00000000000E+00  0.99999998245E-14  0.12500000000E+03  0.12500000000E+03 0.  0.
        -13    1    3    3    0    0 -0.36955183125E+02  0.38093209829E+02  0.31571426555E+02  0.61753901364E+02  0.10566000000E+00 0.  1.
         23    2    1    0    0    0 -0.12351984004E+02  0.18128124462E+02  0.19464550107E+02  0.95673065005E+02  0.91067372045E+02 0.  0.
         13    1    3    3    0    0  0.24603199121E+02 -0.19965085368E+02 -0.12106876448E+02  0.33919163641E+02  0.10566000000E+00 0. -1.
         22    1    1    0    0    0  0.12351984004E+02 -0.18128124462E+02 -0.19464550107E+02  0.29326934995E+02  0.00000000000E+00 0.  1.
</event>
<event>
 5    1  0.1764311E-003  0.9118800E+02  0.7818608E-02  0.1130116E+00
         25   -1    0    0    0    0  0.00000000000E+00  0.00000000000E+00  0.99999998245E-14  0.12500000000E+03  0.12500000000E+03 0.  0.
        -13    1    3    3    0    0 -0.25458483895E+02  0.21443475567E+02 -0.19564420161E+01  0.33343603225E+02  0.10566000000E+00 0. -1.
         23    2    1    0    0    0  0.26913325454E+02 -0.45040493248E+01  0.14548070322E+02  0.94076547777E+02  0.88848955786E+02 0.  0.
         13    1    3    3    0    0  0.52371809348E+02 -0.25947524891E+02  0.16504512339E+02  0.60732944552E+02  0.10566000000E+00 0.  1.
         22    1    1    0    0    0 -0.26913325454E+02  0.45040493248E+01 -0.14548070322E+02  0.30923452223E+02  0.00000000000E+00 0.  1.
</event>
<event>
 5    1  0.1764311E-003  0.9118800E+02  0.7818608E-02  0.1130116E+00
         25   -1    0    0    0    0  0.00000000000E+00  0.00000000000E+00  0.99999998245E-14  0.12500000000E+03  0.12500000000E+03 0.  0.
        -13    1    3    3    0    0  0.19979833270E+02 -0.38754252835E+02 -0.31774142878E+02  0.53950840308E+02  0.10566000000E+00 0.  1.
         23    2    1    0    0    0  0.17390483147E+02  0.22688673570E+01 -0.23160548273E+02  0.95948534297E+02  0.91444702276E+02 0.  0.
         13    1    3    3    0    0 -0.25893501235E+01  0.41023120192E+02  0.86135946050E+01  0.41997693989E+02  0.10566000000E+00 0. -1.
         22    1    1    0    0    0 -0.17390483147E+02 -0.22688673570E+01  0.23160548273E+02  0.29051465703E+02  0.00000000000E+00 0.  1.
</event>
<event>
 5    1  0.1764311E-003  0.9118800E+02  0.7818608E-02  0.1130116E+00
         25   -1    0    0    0    0  0.00000000000E+00  0.00000000000E+00  0.99999998245E-14  0.12500000000E+03  0.12500000000E+03 0.  0.
        -13    1    3    3    0    0  0.44232243702E+02 -0.38143190740E+02  0.16365970439E+02  0.60656825957E+02  0.10566000000E+00 0. -1.
         23    2    1    0    0    0  0.20570739090E+02 -0.13761826884E+02  0.17560818151E+02  0.94653245313E+02  0.89656630142E+02 0.  0.
         13    1    3    3    0    0 -0.23661504612E+02  0.24381363856E+02  0.11948477125E+01  0.33996419357E+02  0.10566000000E+00 0.  1.
         22    1    1    0    0    0 -0.20570739090E+02  0.13761826884E+02 -0.17560818151E+02  0.30346754687E+02  0.00000000000E+00 0. -1.
</event>
<event>
 5    1  0.1764311E-003  0.9118800E+02  0.7818608E-02  0.1130116E+00
         25   -1    0    0    0    0  0.00000000000E+00  0.00000000000E+00  0.99999998245E-14  0.12500000000E+03  0.12500000000E+03 0.  0.
        -13    1    3    3    0    0  0.15106829550E+02  0.17802642514E+02 -0.38820633131E+02  0.45301248330E+02  0.10566000000E+00 0. -1.
         23    2    1    0    0    0  0.27317068946E+01 -0.24882253327E+02 -0.16349540993E+02  0.95101902337E+02  0.90279984405E+02 0.  0.
         13    1    3    3    0    0 -0.12375122655E+02 -0.42684895841E+02  0.22471092137E+02  0.49800654007E+02  0.10566000000E+00 0.  1.
         22    1    1    0    0    0 -0.27317068946E+01  0.24882253327E+02  0.16349540993E+02  0.29898097663E+02  0.00000000000E+00 0. -1.
</event>
<event>
 5    1  0.1764311E-003  0.9118800E+02  0.7818608E-02  0.1130116E+00
         25   -1    0    0    0    0  0.00000000000E+00  0.00000000000E+00  0.99999998245E-14  0.12500000000E+03  0.12500000000E+03 0.  0.
        -13    1    3    3    0    0  0.50374270406E+02  0.12781507664E+02 -0.34190015661E+02  0.62208539543E+02  0.10566000000E+00 0. -1.
         23    2    1    0    0    0  0.22033954278E+02  0.99749138011E+01 -0.15492161123E+02  0.96277167571E+02  0.91892828299E+02 0.  0.
         13    1    3    3    0    0 -0.28340316128E+02 -0.28065938630E+01  0.18697854538E+02  0.34068628028E+02  0.10566000000E+00 0.  1.
         22    1    1    0    0    0 -0.22033954278E+02 -0.99749138011E+01  0.15492161123E+02  0.28722832429E+02  0.00000000000E+00 0. -1.
</event>
<event>
 5    1  0.1764311E-003  0.9118800E+02  0.7818608E-02  0.1130116E+00
         25   -1    0    0    0    0  0.00000000000E+00  0.00000000000E+00  0.99999998245E-14  0.12500000000E+03  0.12500000000E+03 0.  0.
        -13    1    3    3    0    0  0.97291252090E+01  0.57361124103E+01  0.32097350592E+02  0.34026606383E+02  0.10566000000E+00 0.  1.
         23    2    1    0    0    0 -0.13351538822E+02  0.27030928990E+01 -0.25466230177E+02  0.96119224741E+02  0.91677730039E+02 0.  0.
         13    1    3    3    0    0 -0.23080664031E+02 -0.30330195113E+01 -0.57563580769E+02  0.62092618357E+02  0.10566000000E+00 0. -1.
         22    1    1    0    0    0  0.13351538822E+02 -0.27030928990E+01  0.25466230177E+02  0.28880775259E+02  0.00000000000E+00 0. -1.
</event>
<event>
 5    1  0.1764311E-003  0.9118800E+02  0.7818608E-02  0.1130116E+00
         25   -1    0    0    0    0  0.00000000000E+00  0.00000000000E+00  0.99999998245E-14  0.12500000000E+03  0.12500000000E+03 0.  0.
        -13    1    3    3    0    0  0.37132461647E+01 -0.33190542803E+02 -0.51078152019E+01  0.33786110590E+02  0.10566000000E+00 0. -1.
         23    2    1    0    0    0  0.10647074402E+02  0.27729089304E+02 -0.18439872212E+00  0.95296522260E+02  0.90549050603E+02 0.  0.
         13    1    3    3    0    0  0.69338282375E+01  0.60919632106E+02  0.49234164797E+01  0.61510411671E+02  0.10566000000E+00 0.  1.
         22    1    1    0    0    0 -0.10647074402E+02 -0.27729089304E+02  0.18439872212E+00  0.29703477740E+02  0.00000000000E+00 0.  1.
</event>
<event>
 5    1  0.1764311E-003  0.9118800E+02  0.7818608E-02  0.1130116E+00
         25   -1    0    0    0    0  0.00000000000E+00  0.00000000000E+00  0.99999998245E-14  0.12500000000E+03  0.12500000000E+03 0.  0.
        -13    1    3    3    0    0 -0.14011353593E+02 -0.24956743903E+02  0.53757479733E+02  0.60901846335E+02  0.10566000000E+00 0. -1.
         23    2    1    0    0    0 -0.14367712874E+02 -0.15083710015E+02  0.19827586786E+02  0.96240954835E+02  0.91843555619E+02 0.  0.
         13    1    3    3    0    0 -0.35635928154E+00  0.98730338876E+01 -0.33929892948E+02  0.35339108500E+02  0.10566000000E+00 0.  1.
         22    1    1    0    0    0  0.14367712874E+02  0.15083710015E+02 -0.19827586786E+02  0.28759045165E+02  0.00000000000E+00 0. -1.
</event>
<event>
 5    1  0.1764311E-003  0.9118800E+02  0.7818608E-02  0.1130116E+00
         25   -1    0    0    0    0  0.00000000000E+00  0.00000000000E+00  0.99999998245E-14  0.12500000000E+03  0.12500000000E+03 0.  0.
        -13    1    3    3    0    0 -0.31573979280E+02 -0.10214189242E+02 -0.20533770006E+02  0.39024257894E+02  0.10566000000E+00 0.  1.
         23    2    1    0    0    0  0.87267811440E+01 -0.21081664865E+02  0.18081716366E+02  0.95887429359E+02  0.91361136922E+02 0.  0.
         13    1    3    3    0    0  0.40300760425E+02 -0.10867475623E+02  0.38615486372E+02  0.56863171464E+02  0.10566000000E+00 0. -1.
         22    1    1    0    0    0 -0.87267811440E+01  0.21081664865E+02 -0.18081716366E+02  0.29112570641E+02  0.00000000000E+00 0. -1.
</event>
<event>
 5    1  0.1764311E-003  0.9118800E+02  0.7818608E-02  0.1130116E+00
         25   -1    0    0    0    0  0.00000000000E+00  0.00000000000E+00  0.99999998245E-14  0.12500000000E+03  0.12500000000E+03 0.  0.
        -13    1    3    3    0    0  0.18455053680E+02 -0.40500607806E+02 -0.66022997897E+01  0.44994330371E+02  0.10566000000E+00 0.  1.
         23    2    1    0    0    0 -0.77767270806E+01 -0.40366915361E+01 -0.28655325311E+02  0.95035019918E+02  0.90187332700E+02 0.  0.
         13    1    3    3    0    0 -0.26231780761E+02  0.36463916270E+02 -0.22053025521E+02  0.50040689547E+02  0.10566000000E+00 0. -1.
         22    1    1    0    0    0  0.77767270806E+01  0.40366915361E+01  0.28655325311E+02  0.29964980082E+02  0.00000000000E+00 0. -1.
</event>
<event>
 5    1  0.1764311E-003  0.9118800E+02  0.7818608E-02  0.1130116E+00
         25   -1    0    0    0    0  0.00000000000E+00  0.00000000000E+00  0.99999998245E-14  0.12500000000E+03  0.12500000000E+03 0.  0.
        -13    1    3    3    0    0 -0.12775404593E+02  0.32581672263E+02  0.41462173589E+02  0.54257712196E+02  0.10566000000E+00 0.  1.
         23    2    1    0    0    0 -0.18691830405E+02  0.26620241517E+02  0.44991982166E+01  0.92163060939E+02  0.86114837483E+02 0.  0.
         13    1    3    3    0    0 -0.59164258119E+01 -0.59614307454E+01 -0.36962975372E+02  0.37905348743E+02  0.10566000000E+00 0. -1.
         22    1    1    0    0    0  0.18691830405E+02 -0.26620241517E+02 -0.44991982166E+01  0.32836939061E+02  0.00000000000E+00 0.  1.
</event>
<event>
 5    1  0.1764311E-003  0.9118800E+02  0.7818608E-02  0.1130116E+00
         25   -1    0    0    0    0  0.00000000000E+00  0.00000000000E+00  0.99999998245E-14  0.12500000000E+03  0.12500000000E+03 0.  0.
        -13    1    3    3    0    0  0.44681761327E+01  0.48571102062E+02 -0.16866749751E+02  0.51610221514E+02  0.10566000000E+00 0. -1.
         23    2    1    0    0    0 -0.20167991088E+02  0.11512941457E+02 -0.17182920857E+02  0.96111447688E+02  0.91667125634E+02 0.  0.
         13    1    3    3    0    0 -0.24636167221E+02 -0.37058160605E+02 -0.31617110651E+00  0.44501226174E+02  0.10566000000E+00 0.  1.
         22    1    1    0    0    0  0.20167991088E+02 -0.11512941457E+02  0.17182920857E+02  0.28888552312E+02  0.00000000000E+00 0. -1.
</event>
<event>
 5    1  0.1764311E-003  0.9118800E+02  0.7818608E-02  0.1130116E+00
         25   -1    0    0    0    0  0.00000000000E+00  0.00000000000E+00  0.99999998245E-14  0.12500000000E+03  0.12500000000E+03 0.  0.
        -13    1    3    3    0    0  0.32691864867E+02 -0.10924360703E+02 -0.97673385836E+01  0.35826132254E+02  0.10566000000E+00 0.  1.
         23    2    1    0    0    0 -0.23091663829E+02  0.13576211160E+02 -0.89464204649E+01  0.96758596229E+02  0.92545389173E+02 0.  0.
         13    1    3    3    0    0 -0.55783528696E+02  0.24500571862E+02  0.82091811879E+00  0.60932463974E+02  0.10566000000E+00 0. -1.
         22    1    1    0    0    0  0.23091663829E+02 -0.13576211160E+02  0.89464204649E+01  0.28241403771E+02  0.00000000000E+00 0. -1.
</event>
<event>
 5    1  0.1764311E-003  0.9118800E+02  0.7818608E-02  0.1130116E+00
         25   -1    0    0    0    0  0.00000000000E+00  0.00000000000E+00  0.99999998245E-14  0.12500000000E+03  0.12500000000E+03 0.  0.
        -13    1    3    3    0    0 -0.22320612235E+02  0.12121352995E+02  0.50439132223E+02  0.56473481851E+02  0.10566000000E+00 0. -1.
         23    2    1    0    0    0 -0.25159487424E+02 -0.33484689921E+01  0.14345739134E+02  0.95845029869E+02  0.91303107654E+02 0.  0.
         13    1    3    3    0    0 -0.28388751890E+01 -0.15469821987E+02 -0.36093393089E+02  0.39371548018E+02  0.10566000000E+00 0.  1.
         22    1    1    0    0    0  0.25159487424E+02  0.33484689921E+01 -0.14345739134E+02  0.29154970131E+02  0.00000000000E+00 0. -1.
</event>
<event>
 5    1  0.1764311E-003  0.9118800E+02  0.7818608E-02  0.1130116E+00
         25   -1    0    0    0    0  0.00000000000E+00  0.00000000000E+00  0.99999998245E-14  0.12500000000E+03  0.12500000000E+03 0.  0.
        -13    1    3    3    0    0  0.38477145816E+02 -0.37156255087E+02 -0.84090534312E+01  0.54146111457E+02  0.10566000000E+00 0.  1.
         23    2    1    0    0    0  0.24869966755E+02  0.27185043848E+01  0.70210487217E+01  0.99015376900E+02  0.95544985348E+02 0.  0.
         13    1    3    3    0    0 -0.13607179061E+02  0.39874759472E+02  0.15430102153E+02  0.44869265444E+02  0.10566000000E+00 0. -1.
         22    1    1    0    0    0 -0.24869966755E+02 -0.27185043848E+01 -0.70210487217E+01  0.25984623100E+02  0.00000000000E+00 0.  1.
</event>
<event>
 5    1  0.1764311E-003  0.9118800E+02  0.7818608E-02  0.1130116E+00
         25   -1    0    0    0    0  0.00000000000E+00  0.00000000000E+00  0.99999998245E-14  0.12500000000E+03  0.12500000000E+03 0.  0.
        -13    1    3    3    0    0  0.11369408327E+02 -0.33984798820E+02 -0.27935123081E+02  0.45438004601E+02  0.10566000000E+00 0. -1.
         23    2    1    0    0    0 -0.23128623261E+02 -0.38960942789E+01 -0.24094127734E+02  0.91375012924E+02  0.84963246355E+02 0.  0.
         13    1    3    3    0    0 -0.34498031588E+02  0.30088704541E+02  0.38409953468E+01  0.45937008323E+02  0.10566000000E+00 0.  1.
         22    1    1    0    0    0  0.23128623261E+02  0.38960942789E+01  0.24094127734E+02  0.33624987076E+02  0.00000000000E+00 0.  1.
</event>
<event>
 5    1  0.1764311E-003  0.9118800E+02  0.7818608E-02  0.1130116E+00
         25   -1    0    0    0    0  0.00000000000E+00  0.00000000000E+00  0.99999998245E-14  0.12500000000E+03  0.12500000000E+03 0.  0.
        -13    1    3    3    0    0  0.58299650739E+02 -0.87552278154E+01  0.18491052373E+02  0.61785382351E+02  0.10566000000E+00 0.  1.
         23    2    1    0    0    0  0.28025332822E+02  0.23077097046E+01  0.68315341895E+01  0.96061882175E+02  0.91599511700E+02 0.  0.
         13    1    3    3    0    0 -0.30274317916E+02  0.11062937520E+02 -0.11659518184E+02  0.34276499824E+02  0.10566000000E+00 0. -1.
         22    1    1    0    0    0 -0.28025332822E+02 -0.23077097046E+01 -0.68315341895E+01  0.28938117825E+02  0.00000000000E+00 0.  1.
</event>
<event>
 5    1  0.1764311E-003  0.9118800E+02  0.7818608E-02  0.1130116E+00
         25   -1    0    0    0    0  0.00000000000E+00  0.00000000000E+00  0.99999998245E-14  0.12500000000E+03  0.12500000000E+03 0.  0.
        -13    1    3    3    0    0 -0.36709203026E+02  0.35334015288E+01  0.39890095923E+02  0.54325697694E+02  0.10566000000E+00 0.  1.
         23    2    1    0    0    0 -0.85627213759E+01 -0.19726536400E+02  0.18425320920E+02  0.96681297934E+02  0.92440924289E+02 0.  0.
         13    1    3    3    0    0  0.28146481650E+02 -0.23259937929E+02 -0.21464775003E+02  0.42355600240E+02  0.10566000000E+00 0. -1.
         22    1    1    0    0    0  0.85627213759E+01  0.19726536400E+02 -0.18425320920E+02  0.28318702066E+02  0.00000000000E+00 0.  1.
</event>
<event>
 5    1  0.1764311E-003  0.9118800E+02  0.7818608E-02  0.1130116E+00
         25   -1    0    0    0    0  0.00000000000E+00  0.00000000000E+00  0.99999998245E-14  0.12500000000E+03  0.12500000000E+03 0.  0.
        -13    1    3    3    0    0 -0.11300370208E+02  0.38596965090E+02 -0.54779772443E+01  0.40588711235E+02  0.10566000000E+00 0.  1.
         23    2    1    0    0    0  0.28448267340E+02 -0.38065541935E+00 -0.39131269701E+01  0.96281340980E+02  0.91898505130E+02 0.  0.
         13    1    3    3    0    0  0.39748637548E+02 -0.38977620509E+02  0.15648502741E+01  0.55692629745E+02  0.10566000000E+00 0. -1.
         22    1    1    0    0    0 -0.28448267340E+02  0.38065541935E+00  0.39131269701E+01  0.28718659020E+02  0.00000000000E+00 0. -1.
</event>
<event>
 5    1  0.1764311E-003  0.9118800E+02  0.7818608E-02  0.1130116E+00
         25   -1    0    0    0    0  0.00000000000E+00  0.00000000000E+00  0.99999998245E-14  0.12500000000E+03  0.12500000000E+03 0.  0.
        -13    1    3    3    0    0 -0.26918627249E+02  0.29947788449E+02 -0.66274064281E+01  0.40809511219E+02  0.10566000000E+00 0. -1.
         23    2    1    0    0    0  0.25207148538E+02  0.90916919431E+01 -0.82057707583E+01  0.96975120455E+02  0.92837385323E+02 0.  0.
         13    1    3    3    0    0  0.52125775787E+02 -0.20856096505E+02 -0.15783643302E+01  0.56165609236E+02  0.10566000000E+00 0.  1.
         22    1    1    0    0    0 -0.25207148538E+02 -0.90916919431E+01  0.82057707583E+01  0.28024879545E+02  0.00000000000E+00 0. -1.
</event>
<event>
 5    1  0.1764311E-003  0.9118800E+02  0.7818608E-02  0.1130116E+00
         25   -1    0    0    0    0  0.00000000000E+00  0.00000000000E+00  0.99999998245E-14  0.12500000000E+03  0.12500000000E+03 0.  0.
        -13    1    3    3    0    0  0.19014891518E+02  0.26866643717E+01  0.40524982530E+02  0.44844951087E+02  0.10566000000E+00 0.  1.
         23    2    1    0    0    0  0.10955612954E+02 -0.27886653339E+02  0.15963539830E+01  0.94996013004E+02  0.90133252748E+02 0.  0.
         13    1    3    3    0    0 -0.80592785648E+01 -0.30573317710E+02 -0.38928628547E+02  0.50151061917E+02  0.10566000000E+00 0. -1.
         22    1    1    0    0    0 -0.10955612954E+02  0.27886653339E+02 -0.15963539830E+01  0.30003986996E+02  0.00000000000E+00 0. -1.
</event>
<event>
 5    1  0.1764311E-003  0.9118800E+02  0.7818608E-02  0.1130116E+00
         25   -1    0    0    0    0  0.00000000000E+00  0.00000000000E+00  0.99999998245E-14  0.12500000000E+03  0.12500000000E+03 0.  0.
        -13    1    3    3    0    0  0.14016561031E+02  0.51797186914E+01 -0.29336644641E+02  0.32923294970E+02  0.10566000000E+00 0.  1.
         23    2    1    0    0    0 -0.27596852386E+02 -0.49946168602E+00  0.14659140767E+02  0.93747382004E+02  0.88384645166E+02 0.  0.
         13    1    3    3    0    0 -0.41613413417E+02 -0.56791803774E+01  0.43995785407E+02  0.60824087035E+02  0.10566000000E+00 0. -1.
         22    1    1    0    0    0  0.27596852386E+02  0.49946168602E+00 -0.14659140767E+02  0.31252617996E+02  0.00000000000E+00 0. -1.
</event>
<event>
 5    1  0.1764311E-003  0.9118800E+02  0.7818608E-02  0.1130116E+00
         25   -1    0    0    0    0  0.00000000000E+00  0.00000000000E+00  0.99999998245E-14  0.12500000000E+03  0.12500000000E+03 0.  0.
        -13    1    3    3    0    0  0.49969851687E+02 -0.17122401326E+02  0.67284394290E+01  0.53248903894E+02  0.10566000000E+00 0.  1.
         23    2    1    0    0    0  0.12623516286E+02 -0.43284921860E+01  0.24932195457E+02  0.96720972818E+02  0.92494557702E+02 0.  0.
         13    1    3    3    0    0 -0.37346335400E+02  0.12793909140E+02  0.18203756028E+02  0.43472068924E+02  0.10566000000E+00 0. -1.
         22    1    1    0    0    0 -0.12623516286E+02  0.43284921860E+01 -0.24932195457E+02  0.28279027182E+02  0.00000000000E+00 0.  1.
</event>
<event>
 5    1  0.1764311E-003  0.9118800E+02  0.7818608E-02  0.1130116E+00
         25   -1    0    0    0    0  0.00000000000E+00  0.00000000000E+00  0.99999998245E-14  0.12500000000E+03  0.12500000000E+03 0.  0.
        -13    1    3    3    0    0 -0.21973795354E+02 -0.53587871385E+01 -0.46587353117E+02  0.51787613542E+02  0.10566000000E+00 0.  1.
         23    2    1    0    0    0  0.15902587684E+02 -0.50849232226E+01 -0.23588543597E+02  0.96100724433E+02  0.91652501921E+02 0.  0.
         13    1    3    3    0    0  0.37876383038E+02  0.27386391585E+00  0.22998809520E+02  0.44313110891E+02  0.10566000000E+00 0. -1.
         22    1    1    0    0    0 -0.15902587684E+02  0.50849232226E+01  0.23588543597E+02  0.28899275567E+02  0.00000000000E+00 0.  1.
</event>
<event>
 5    1  0.1764311E-003  0.9118800E+02  0.7818608E-02  0.1130116E+00
         25   -1    0    0    0    0  0.00000000000E+00  0.00000000000E+00  0.99999998245E-14  0.12500000000E+03  0.12500000000E+03 0.  0.
        -13    1    3    3    0    0  0.90580163428E+01  0.63598954995E+01 -0.58847841900E+02  0.59879675944E+02  0.10566000000E+00 0. -1.
         23    2    1    0    0    0  0.16745885980E+02  0.14401127714E+01 -0.25462464746E+02  0.94490399331E+02  0.89429300751E+02 0.  0.
         13    1    3    3    0    0  0.76878696368E+01 -0.49197827281E+01  0.33385377154E+02  0.34610723388E+02  0.10566000000E+00 0.  1.
         22    1    1    0    0    0 -0.16745885980E+02 -0.14401127714E+01  0.25462464746E+02  0.30509600669E+02  0.00000000000E+00 0. -1.
</event>
<event>
 5    1  0.1764311E-003  0.9118800E+02  0.7818608E-02  0.1130116E+00
         25   -1    0    0    0    0  0.00000000000E+00  0.00000000000E+00  0.99999998245E-14  0.12500000000E+03  0.12500000000E+03 0.  0.
        -13    1    3    3    0    0 -0.19747137464E+01 -0.28763248971E+02 -0.13699271030E+02  0.31920294117E+02  0.10566000000E+00 0. -1.
         23    2    1    0    0    0  0.15998932956E+02  0.24372391718E+02  0.11813563869E+02  0.93543051244E+02  0.88095191758E+02 0.  0.
         13    1    3    3    0    0  0.17973646702E+02  0.53135640689E+02  0.25512834899E+02  0.61622757126E+02  0.10566000000E+00 0.  1.
         22    1    1    0    0    0 -0.15998932956E+02 -0.24372391718E+02 -0.11813563869E+02  0.31456948756E+02  0.00000000000E+00 0.  1.
</event>
<event>
 5    1  0.1764311E-003  0.9118800E+02  0.7818608E-02  0.1130116E+00
         25   -1    0    0    0    0  0.00000000000E+00  0.00000000000E+00  0.99999998245E-14  0.12500000000E+03  0.12500000000E+03 0.  0.
        -13    1    3    3    0    0 -0.34161804905E+02  0.17372181468E+02  0.21366695496E+02  0.43879020543E+02  0.10566000000E+00 0.  1.
         23    2    1    0    0    0 -0.13207296957E+02 -0.26515568459E+02  0.81159065752E+01  0.94285573371E+02  0.89142545077E+02 0.  0.
         13    1    3    3    0    0  0.20954507948E+02 -0.43887749927E+02 -0.13250788921E+02  0.50406552828E+02  0.10566000000E+00 0. -1.
         22    1    1    0    0    0  0.13207296957E+02  0.26515568459E+02 -0.81159065752E+01  0.30714426629E+02  0.00000000000E+00 0. -1.
</event>
<event>
 5    1  0.1764311E-003  0.9118800E+02  0.7818608E-02  0.1130116E+00
         25   -1    0    0    0    0  0.00000000000E+00  0.00000000000E+00  0.99999998245E-14  0.12500000000E+03  0.12500000000E+03 0.  0.
        -13    1    3    3    0    0 -0.54620372437E+02  0.89235567711E+01  0.28867085911E+02  0.62420627709E+02  0.10566000000E+00 0. -1.
         23    2    1    0    0    0 -0.27401991969E+02  0.22227934059E+01  0.14401439376E+02  0.93964352262E+02  0.88690969470E+02 0.  0.
         13    1    3    3    0    0  0.27218380467E+02 -0.67007633653E+01 -0.14465646535E+02  0.31543724553E+02  0.10566000000E+00 0.  1.
         22    1    1    0    0    0  0.27401991969E+02 -0.22227934059E+01 -0.14401439376E+02  0.31035647738E+02  0.00000000000E+00 0. -1.
</event>
<event>
 5    1  0.1764311E-003  0.9118800E+02  0.7818608E-02  0.1130116E+00
         25   -1    0    0    0    0  0.00000000000E+00  0.00000000000E+00  0.99999998245E-14  0.12500000000E+03  0.12500000000E+03 0.  0.
        -13    1    3    3    0    0  0.90912306161E+01 -0.11956262411E+02  0.59480724898E+02  0.61347946041E+02  0.10566000000E+00 0.  1.
         23    2    1    0    0    0 -0.59845995062E+00 -0.12909877120E+02  0.34392550720E+02  0.88259414449E+02  0.80248698509E+02 0.  0.
         13    1    3    3    0    0 -0.96896905668E+01 -0.95361470902E+00 -0.25088174178E+02  0.26911468409E+02  0.10566000000E+00 0. -1.
         22    1    1    0    0    0  0.59845995062E+00  0.12909877120E+02 -0.34392550720E+02  0.36740585551E+02  0.00000000000E+00 0.  1.
</event>
<event>
 5    1  0.1764311E-003  0.9118800E+02  0.7818608E-02  0.1130116E+00
         25   -1    0    0    0    0  0.00000000000E+00  0.00000000000E+00  0.99999998245E-14  0.12500000000E+03  0.12500000000E+03 0.  0.
        -13    1    3    3    0    0  0.26323513115E+02 -0.16193043849E+02 -0.15570860964E+02  0.34606428406E+02  0.10566000000E+00 0. -1.
         23    2    1    0    0    0 -0.27694953326E+02 -0.11111883124E+01  0.90296658275E+01  0.95849012982E+02  0.91308560636E+02 0.  0.
         13    1    3    3    0    0 -0.54018466441E+02  0.15081855537E+02  0.24600526792E+02  0.61242584576E+02  0.10566000000E+00 0.  1.
         22    1    1    0    0    0  0.27694953326E+02  0.11111883124E+01 -0.90296658275E+01  0.29150987018E+02  0.00000000000E+00 0.  1.
</event>
<event>
 5    1  0.1764311E-003  0.9118800E+02  0.7818608E-02  0.1130116E+00
         25   -1    0    0    0    0  0.00000000000E+00  0.00000000000E+00  0.99999998245E-14  0.12500000000E+03  0.12500000000E+03 0.  0.
        -13    1    3    3    0    0  0.44941752894E+01 -0.26835085606E+02  0.18651851673E+02  0.32988212529E+02  0.10566000000E+00 0. -1.
         23    2    1    0    0    0 -0.14322305807E+02  0.27527765837E+02 -0.14736174510E+01  0.93934297304E+02  0.88648600248E+02 0.  0.
         13    1    3    3    0    0 -0.18816481096E+02  0.54362851443E+02 -0.20125469124E+02  0.60946084775E+02  0.10566000000E+00 0.  1.
         22    1    1    0    0    0  0.14322305807E+02 -0.27527765837E+02  0.14736174510E+01  0.31065702696E+02  0.00000000000E+00 0.  1.
</event>
<event>
 5    1  0.1764311E-003  0.9118800E+02  0.7818608E-02  0.1130116E+00
         25   -1    0    0    0    0  0.00000000000E+00  0.00000000000E+00  0.99999998245E-14  0.12500000000E+03  0.12500000000E+03 0.  0.
        -13    1    3    3    0    0  0.20789365608E+01  0.14077193623E+02 -0.51379963414E+02  0.53314174119E+02  0.10566000000E+00 0.  1.
         23    2    1    0    0    0 -0.16066874407E+02 -0.92488071381E+01 -0.29786352672E+02  0.89915648899E+02  0.82788358027E+02 0.  0.
         13    1    3    3    0    0 -0.18145810967E+02 -0.23326000761E+02  0.21593610742E+02  0.36601474780E+02  0.10566000000E+00 0. -1.
         22    1    1    0    0    0  0.16066874407E+02  0.92488071381E+01  0.29786352672E+02  0.35084351101E+02  0.00000000000E+00 0.  1.
</event>
<event>
 5    1  0.1764311E-003  0.9118800E+02  0.7818608E-02  0.1130116E+00
         25   -1    0    0    0    0  0.00000000000E+00  0.00000000000E+00  0.99999998245E-14  0.12500000000E+03  0.12500000000E+03 0.  0.
        -13    1    3    3    0    0  0.20486991639E+02  0.23507259039E+02  0.22894481691E+02  0.38684318656E+02  0.10566000000E+00 0.  1.
         23    2    1    0    0    0 -0.28168529263E+02  0.36135831085E+01 -0.13437333152E+01  0.96568861385E+02  0.92288760672E+02 0.  0.
         13    1    3    3    0    0 -0.48655520902E+02 -0.19893675931E+02 -0.24238215006E+02  0.57884542729E+02  0.10566000000E+00 0. -1.
         22    1    1    0    0    0  0.28168529263E+02 -0.36135831085E+01  0.13437333152E+01  0.28431138615E+02  0.00000000000E+00 0. -1.
</event>
<event>
 5    1  0.1764311E-003  0.9118800E+02  0.7818608E-02  0.1130116E+00
         25   -1    0    0    0    0  0.00000000000E+00  0.00000000000E+00  0.99999998245E-14  0.12500000000E+03  0.12500000000E+03 0.  0.
        -13    1    3    3    0    0  0.12837137798E+02 -0.17021449627E+02  0.42826983197E+02  0.47840187165E+02  0.10566000000E+00 0. -1.
         23    2    1    0    0    0 -0.15988938264E+02  0.13972116521E+02  0.19508327927E+02  0.96165280557E+02  0.91740504354E+02 0.  0.
         13    1    3    3    0    0 -0.28826076062E+02  0.30993566148E+02 -0.23318655270E+02  0.48325093392E+02  0.10566000000E+00 0.  1.
         22    1    1    0    0    0  0.15988938264E+02 -0.13972116521E+02 -0.19508327927E+02  0.28834719443E+02  0.00000000000E+00 0. -1.
</event>
<event>
 5    1  0.1764311E-003  0.9118800E+02  0.7818608E-02  0.1130116E+00
         25   -1    0    0    0    0  0.00000000000E+00  0.00000000000E+00  0.99999998245E-14  0.12500000000E+03  0.12500000000E+03 0.  0.
        -13    1    3    3    0    0  0.30798710736E+02 -0.33152583745E+01 -0.28613394855E+02  0.42169764646E+02  0.10566000000E+00 0. -1.
         23    2    1    0    0    0  0.79551447476E+01  0.27396971075E+02 -0.33770789271E+02  0.80792030582E+02  0.67624016780E+02 0.  0.
         13    1    3    3    0    0 -0.22843565989E+02  0.30712229450E+02 -0.51573944158E+01  0.38622265936E+02  0.10566000000E+00 0.  1.
         22    1    1    0    0    0 -0.79551447476E+01 -0.27396971075E+02  0.33770789271E+02  0.44207969418E+02  0.00000000000E+00 0. -1.
</event>
<event>
 5    1  0.1764311E-003  0.9118800E+02  0.7818608E-02  0.1130116E+00
         25   -1    0    0    0    0  0.00000000000E+00  0.00000000000E+00  0.99999998245E-14  0.12500000000E+03  0.12500000000E+03 0.  0.
        -13    1    3    3    0    0 -0.51529351280E+02 -0.74299856466E+01  0.20195602543E+02  0.55842208554E+02  0.10566000000E+00 0. -1.
         23    2    1    0    0    0 -0.27962480720E+02 -0.12177162785E+02  0.30380985620E+02  0.81951330929E+02  0.69734014171E+02 0.  0.
         13    1    3    3    0    0  0.23566870560E+02 -0.47471771389E+01  0.10185383077E+02  0.26109122376E+02  0.10566000000E+00 0.  1.
         22    1    1    0    0    0  0.27962480720E+02  0.12177162785E+02 -0.30380985620E+02  0.43048669071E+02  0.00000000000E+00 0. -1.
</event>
<event>
 5    1  0.1764311E-003  0.9118800E+02  0.7818608E-02  0.1130116E+00
         25   -1    0    0    0    0  0.00000000000E+00  0.00000000000E+00  0.99999998245E-14  0.12500000000E+03  0.12500000000E+03 0.  0.
        -13    1    3    3    0    0  0.36700891704E+02  0.84571726947E+01  0.10071323608E+01  0.37676314861E+02  0.10566000000E+00 0. -1.
         23    2    1    0    0    0  0.20501157871E+01  0.33718108166E+02 -0.20331049943E+02  0.85573290972E+02  0.75949474935E+02 0.  0.
         13    1    3    3    0    0 -0.34650775917E+02  0.25260935471E+02 -0.21338182303E+02  0.47896976111E+02  0.10566000000E+00 0.  1.
         22    1    1    0    0    0 -0.20501157871E+01 -0.33718108166E+02  0.20331049943E+02  0.39426709028E+02  0.00000000000E+00 0.  1.
</event>
<event>
 5    1  0.1764311E-003  0.9118800E+02  0.7818608E-02  0.1130116E+00
         25   -1    0    0    0    0  0.00000000000E+00  0.00000000000E+00  0.99999998245E-14  0.12500000000E+03  0.12500000000E+03 0.  0.
        -13    1    3    3    0    0  0.34900662900E+02 -0.57494517675E+01 -0.15217353292E+02  0.38505732972E+02  0.10566000000E+00 0. -1.
         23    2    1    0    0    0 -0.23614384821E+01  0.95621423153E+01  0.26638433004E+02  0.96598995260E+02  0.92329566309E+02 0.  0.
         13    1    3    3    0    0 -0.37262101382E+02  0.15311594083E+02  0.41855786296E+02  0.58093262288E+02  0.10566000000E+00 0.  1.
         22    1    1    0    0    0  0.23614384821E+01 -0.95621423153E+01 -0.26638433004E+02  0.28401004740E+02  0.00000000000E+00 0.  1.
</event>
<event>
 5    1  0.1764311E-003  0.9118800E+02  0.7818608E-02  0.1130116E+00
         25   -1    0    0    0    0  0.00000000000E+00  0.00000000000E+00  0.99999998245E-14  0.12500000000E+03  0.12500000000E+03 0.  0.
        -13    1    3    3    0    0 -0.40962278931E+02  0.26404122841E+02 -0.64855201322E+01  0.49164612616E+02  0.10566000000E+00 0.  1.
         23    2    1    0    0    0 -0.19155669117E+01  0.33930942328E+02  0.52179989487E+01  0.90616780883E+02  0.83840295925E+02 0.  0.
         13    1    3    3    0    0  0.39046712020E+02  0.75268194869E+01  0.11703519081E+02  0.41452168267E+02  0.10566000000E+00 0. -1.
         22    1    1    0    0    0  0.19155669117E+01 -0.33930942328E+02 -0.52179989487E+01  0.34383219117E+02  0.00000000000E+00 0.  1.
</event>
<event>
 5    1  0.1764311E-003  0.9118800E+02  0.7818608E-02  0.1130116E+00
         25   -1    0    0    0    0  0.00000000000E+00  0.00000000000E+00  0.99999998245E-14  0.12500000000E+03  0.12500000000E+03 0.  0.
        -13    1    3    3    0    0 -0.16161312271E+02 -0.57485496970E+01 -0.54392485682E+02  0.57033214013E+02  0.10566000000E+00 0.  1.
         23    2    1    0    0    0 -0.20127710454E+02  0.81990252189E+01 -0.16179011010E+02  0.97905551493E+02  0.94081814785E+02 0.  0.
         13    1    3    3    0    0 -0.39663981823E+01  0.13947574916E+02  0.38213474672E+02  0.40872337480E+02  0.10566000000E+00 0. -1.
         22    1    1    0    0    0  0.20127710454E+02 -0.81990252189E+01  0.16179011010E+02  0.27094448507E+02  0.00000000000E+00 0.  1.
</event>
<event>
 5    1  0.1764311E-003  0.9118800E+02  0.7818608E-02  0.1130116E+00
         25   -1    0    0    0    0  0.00000000000E+00  0.00000000000E+00  0.99999998245E-14  0.12500000000E+03  0.12500000000E+03 0.  0.
        -13    1    3    3    0    0 -0.19774576516E+02 -0.32763241072E+02 -0.48649019344E+01  0.38576447177E+02  0.10566000000E+00 0.  1.
         23    2    1    0    0    0  0.14915297952E+02  0.96293005118E+01 -0.22698244141E+02  0.96183341130E+02  0.91765109287E+02 0.  0.
         13    1    3    3    0    0  0.34689874468E+02  0.42392541584E+02 -0.17833342207E+02  0.57606893953E+02  0.10566000000E+00 0. -1.
         22    1    1    0    0    0 -0.14915297952E+02 -0.96293005118E+01  0.22698244141E+02  0.28816658870E+02  0.00000000000E+00 0. -1.
</event>
<event>
 5    1  0.1764311E-003  0.9118800E+02  0.7818608E-02  0.1130116E+00
         25   -1    0    0    0    0  0.00000000000E+00  0.00000000000E+00  0.99999998245E-14  0.12500000000E+03  0.12500000000E+03 0.  0.
        -13    1    3    3    0    0 -0.32764052850E+02  0.27115121690E+02 -0.39323551921E+02  0.57922930547E+02  0.10566000000E+00 0. -1.
         23    2    1    0    0    0 -0.22103449073E+01  0.23202203948E+02 -0.20019032728E+02  0.94275586840E+02  0.89128540378E+02 0.  0.
         13    1    3    3    0    0  0.30553707942E+02 -0.39129177417E+01  0.19304519192E+02  0.36352656293E+02  0.10566000000E+00 0.  1.
         22    1    1    0    0    0  0.22103449073E+01 -0.23202203948E+02  0.20019032728E+02  0.30724413160E+02  0.00000000000E+00 0. -1.
</event>
<event>
 5    1  0.1764311E-003  0.9118800E+02  0.7818608E-02  0.1130116E+00
         25   -1    0    0    0    0  0.00000000000E+00  0.00000000000E+00  0.99999998245E-14  0.12500000000E+03  0.12500000000E+03 0.  0.
        -13    1    3    3    0    0  0.42338818199E+02 -0.29353515958E+02 -0.89490556786E+01  0.52290545868E+02  0.10566000000E+00 0. -1.
         23    2    1    0    0    0  0.13825391836E+01 -0.22977813205E+02 -0.19240242703E+02  0.94998695803E+02  0.90136973272E+02 0.  0.
         13    1    3    3    0    0 -0.40956279016E+02  0.63757027530E+01 -0.10291187024E+02  0.42708149934E+02  0.10566000000E+00 0.  1.
         22    1    1    0    0    0 -0.13825391836E+01  0.22977813205E+02  0.19240242703E+02  0.30001304197E+02  0.00000000000E+00 0. -1.
</event>
<event>
 5    1  0.1764311E-003  0.9118800E+02  0.7818608E-02  0.1130116E+00
         25   -1    0    0    0    0  0.00000000000E+00  0.00000000000E+00  0.99999998245E-14  0.12500000000E+03  0.12500000000E+03 0.  0.
        -13    1    3    3    0    0  0.44893780899E+02 -0.38074960264E+02  0.15908120503E+02  0.60977320575E+02  0.10566000000E+00 0. -1.
         23    2    1    0    0    0  0.14472792674E+02 -0.24786007641E+02  0.54292749315E+01  0.95788958785E+02  0.91226310329E+02 0.  0.
         13    1    3    3    0    0 -0.30420988224E+02  0.13288952623E+02 -0.10478845571E+02  0.34811638211E+02  0.10566000000E+00 0.  1.
         22    1    1    0    0    0 -0.14472792674E+02  0.24786007641E+02 -0.54292749315E+01  0.29211041215E+02  0.00000000000E+00 0. -1.
</event>
<event>
 5    1  0.1764311E-003  0.9118800E+02  0.7818608E-02  0.1130116E+00
         25   -1    0    0    0    0  0.00000000000E+00  0.00000000000E+00  0.99999998245E-14  0.12500000000E+03  0.12500000000E+03 0.  0.
        -13    1    3    3    0    0  0.46342688935E+01  0.73319405171E+01 -0.39627015162E+02  0.40565321331E+02  0.10566000000E+00 0.  1.
         23    2    1    0    0    0  0.18460518903E+02 -0.21178564494E+02  0.61508272673E+01  0.96239697006E+02  0.91841843686E+02 0.  0.
         13    1    3    3    0    0  0.13826250010E+02 -0.28510505011E+02  0.45777842430E+02  0.55674375676E+02  0.10566000000E+00 0. -1.
         22    1    1    0    0    0 -0.18460518903E+02  0.21178564494E+02 -0.61508272673E+01  0.28760302994E+02  0.00000000000E+00 0. -1.
</event>
<event>
 5    1  0.1764311E-003  0.9118800E+02  0.7818608E-02  0.1130116E+00
         25   -1    0    0    0    0  0.00000000000E+00  0.00000000000E+00  0.99999998245E-14  0.12500000000E+03  0.12500000000E+03 0.  0.
        -13    1    3    3    0    0  0.32244655208E+02  0.20180384655E+02  0.21079427179E+02  0.43489299011E+02  0.10566000000E+00 0.  1.
         23    2    1    0    0    0 -0.13816876679E+02  0.10478694045E+02  0.28987813707E+02  0.91221272174E+02  0.84736757334E+02 0.  0.
         13    1    3    3    0    0 -0.46061531887E+02 -0.97016906097E+01  0.79083865284E+01  0.47731973162E+02  0.10566000000E+00 0. -1.
         22    1    1    0    0    0  0.13816876679E+02 -0.10478694045E+02 -0.28987813707E+02  0.33778727826E+02  0.00000000000E+00 0.  1.
</event>
<event>
 5    1  0.1764311E-003  0.9118800E+02  0.7818608E-02  0.1130116E+00
         25   -1    0    0    0    0  0.00000000000E+00  0.00000000000E+00  0.99999998245E-14  0.12500000000E+03  0.12500000000E+03 0.  0.
        -13    1    3    3    0    0  0.15937223725E+02  0.28549517019E+02  0.91354107901E+01  0.33949034101E+02  0.10566000000E+00 0. -1.
         23    2    1    0    0    0 -0.65252754443E+01 -0.28235165614E+02 -0.17075799122E+01  0.95970366415E+02  0.91474540741E+02 0.  0.
         13    1    3    3    0    0 -0.22462499169E+02 -0.56784682633E+02 -0.10842990702E+02  0.62021332314E+02  0.10566000000E+00 0.  1.
         22    1    1    0    0    0  0.65252754443E+01  0.28235165614E+02  0.17075799122E+01  0.29029633585E+02  0.00000000000E+00 0.  1.
</event>
<event>
 5    1  0.1764311E-003  0.9118800E+02  0.7818608E-02  0.1130116E+00
         25   -1    0    0    0    0  0.00000000000E+00  0.00000000000E+00  0.99999998245E-14  0.12500000000E+03  0.12500000000E+03 0.  0.
        -13    1    3    3    0    0 -0.45723855735E+02  0.41074267050E+02 -0.97284156606E+00  0.61471326501E+02  0.10566000000E+00 0.  1.
         23    2    1    0    0    0 -0.19443567961E+02  0.19148149108E+02  0.74371985706E+01  0.96715448176E+02  0.92487091229E+02 0.  0.
         13    1    3    3    0    0  0.26280287774E+02 -0.21926117943E+02  0.84100401367E+01  0.35244121675E+02  0.10566000000E+00 0. -1.
         22    1    1    0    0    0  0.19443567961E+02 -0.19148149108E+02 -0.74371985706E+01  0.28284551824E+02  0.00000000000E+00 0.  1.
</event>
<event>
 5    1  0.1764311E-003  0.9118800E+02  0.7818608E-02  0.1130116E+00
         25   -1    0    0    0    0  0.00000000000E+00  0.00000000000E+00  0.99999998245E-14  0.12500000000E+03  0.12500000000E+03 0.  0.
        -13    1    3    3    0    0  0.35182398059E+02 -0.45440894805E+02  0.70912396214E+00  0.57473385794E+02  0.10566000000E+00 0.  1.
         23    2    1    0    0    0  0.26067231756E+02 -0.57603608524E+01  0.21878942591E+01  0.98214384274E+02  0.94491248634E+02 0.  0.
         13    1    3    3    0    0 -0.91151663031E+01  0.39680533952E+02  0.14787702970E+01  0.40740998479E+02  0.10566000000E+00 0. -1.
         22    1    1    0    0    0 -0.26067231756E+02  0.57603608524E+01 -0.21878942591E+01  0.26785615726E+02  0.00000000000E+00 0.  1.
</event>
<event>
 5    1  0.1764311E-003  0.9118800E+02  0.7818608E-02  0.1130116E+00
         25   -1    0    0    0    0  0.00000000000E+00  0.00000000000E+00  0.99999998245E-14  0.12500000000E+03  0.12500000000E+03 0.  0.
        -13    1    3    3    0    0  0.69361213501E+01  0.36923376253E+02 -0.69393377274E+01  0.38204856569E+02  0.10566000000E+00 0.  1.
         23    2    1    0    0    0 -0.14108577704E+02 -0.16180653646E+02 -0.18705498981E+02  0.96526131113E+02  0.92230866733E+02 0.  0.
         13    1    3    3    0    0 -0.21044699054E+02 -0.53104029899E+02 -0.11766161254E+02  0.58321274545E+02  0.10566000000E+00 0. -1.
         22    1    1    0    0    0  0.14108577704E+02  0.16180653646E+02  0.18705498981E+02  0.28473868887E+02  0.00000000000E+00 0. -1.
</event>
<event>
 5    1  0.1764311E-003  0.9118800E+02  0.7818608E-02  0.1130116E+00
         25   -1    0    0    0    0  0.00000000000E+00  0.00000000000E+00  0.99999998245E-14  0.12500000000E+03  0.12500000000E+03 0.  0.
        -13    1    3    3    0    0  0.37379100817E+02  0.37395704769E+02 -0.16156769626E+02  0.55287324785E+02  0.10566000000E+00 0. -1.
         23    2    1    0    0    0  0.14150139937E+02  0.22383606180E+01 -0.22926122938E+02  0.97965876536E+02  0.94161930386E+02 0.  0.
         13    1    3    3    0    0 -0.23228960880E+02 -0.35157344151E+02 -0.67693533121E+01  0.42678551752E+02  0.10566000000E+00 0.  1.
         22    1    1    0    0    0 -0.14150139937E+02 -0.22383606180E+01  0.22926122938E+02  0.27034123464E+02  0.00000000000E+00 0. -1.
</event>
<event>
 5    1  0.1764311E-003  0.9118800E+02  0.7818608E-02  0.1130116E+00
         25   -1    0    0    0    0  0.00000000000E+00  0.00000000000E+00  0.99999998245E-14  0.12500000000E+03  0.12500000000E+03 0.  0.
        -13    1    3    3    0    0 -0.25790638329E+02 -0.25336747711E+02  0.33652655681E+02  0.49392511663E+02  0.10566000000E+00 0. -1.
         23    2    1    0    0    0 -0.21284711316E+02 -0.16051377023E+02 -0.11686936452E+02  0.95892095166E+02  0.91367520441E+02 0.  0.
         13    1    3    3    0    0  0.45059270123E+01  0.92853706881E+01 -0.45339592134E+02  0.46499583503E+02  0.10566000000E+00 0.  1.
         22    1    1    0    0    0  0.21284711316E+02  0.16051377023E+02  0.11686936452E+02  0.29107904834E+02  0.00000000000E+00 0. -1.
</event>
<event>
 5    1  0.1764311E-003  0.9118800E+02  0.7818608E-02  0.1130116E+00
         25   -1    0    0    0    0  0.00000000000E+00  0.00000000000E+00  0.99999998245E-14  0.12500000000E+03  0.12500000000E+03 0.  0.
        -13    1    3    3    0    0  0.29454928640E+02  0.52638068376E+02 -0.24409550066E+01  0.60368273860E+02  0.10566000000E+00 0.  1.
         23    2    1    0    0    0  0.23978018539E+02  0.19462344767E+02 -0.27569382662E+01  0.93994694881E+02  0.88733723692E+02 0.  0.
         13    1    3    3    0    0 -0.54769101005E+01 -0.33175723608E+02 -0.31598325964E+00  0.33626421021E+02  0.10566000000E+00 0. -1.
         22    1    1    0    0    0 -0.23978018539E+02 -0.19462344767E+02  0.27569382662E+01  0.31005305119E+02  0.00000000000E+00 0.  1.
</event>
<event>
 5    1  0.1764311E-003  0.9118800E+02  0.7818608E-02  0.1130116E+00
         25   -1    0    0    0    0  0.00000000000E+00  0.00000000000E+00  0.99999998245E-14  0.12500000000E+03  0.12500000000E+03 0.  0.
        -13    1    3    3    0    0  0.18246518634E+02  0.24726866846E+02  0.38976346172E+02  0.49633860531E+02  0.10566000000E+00 0.  1.
         23    2    1    0    0    0  0.88104901779E+00 -0.11818610485E+02  0.32237817376E+02  0.90652763280E+02  0.83893926001E+02 0.  0.
         13    1    3    3    0    0 -0.17365469616E+02 -0.36545477331E+02 -0.67385287962E+01  0.41018902748E+02  0.10566000000E+00 0. -1.
         22    1    1    0    0    0 -0.88104901779E+00  0.11818610485E+02 -0.32237817376E+02  0.34347236720E+02  0.00000000000E+00 0.  1.
</event>
<event>
 5    1  0.1764311E-003  0.9118800E+02  0.7818608E-02  0.1130116E+00
         25   -1    0    0    0    0  0.00000000000E+00  0.00000000000E+00  0.99999998245E-14  0.12500000000E+03  0.12500000000E+03 0.  0.
        -13    1    3    3    0    0 -0.91252022814E+01 -0.29481795876E+02 -0.25408646908E+02  0.39975693946E+02  0.10566000000E+00 0. -1.
         23    2    1    0    0    0 -0.23391377286E+02  0.97313828670E+00  0.18413089268E+02  0.95215014087E+02  0.90436461241E+02 0.  0.
         13    1    3    3    0    0 -0.14266175004E+02  0.30454934163E+02  0.43821736176E+02  0.55239320141E+02  0.10566000000E+00 0.  1.
         22    1    1    0    0    0  0.23391377286E+02 -0.97313828670E+00 -0.18413089268E+02  0.29784985913E+02  0.00000000000E+00 0.  1.
</event>
<event>
 5    1  0.1764311E-003  0.9118800E+02  0.7818608E-02  0.1130116E+00
         25   -1    0    0    0    0  0.00000000000E+00  0.00000000000E+00  0.99999998245E-14  0.12500000000E+03  0.12500000000E+03 0.  0.
        -13    1    3    3    0    0 -0.36437253165E+02  0.32016736678E+02  0.57156336854E+01  0.48840807509E+02  0.10566000000E+00 0. -1.
         23    2    1    0    0    0 -0.15535110414E+02 -0.49883397587E+00  0.27646858148E+02  0.93283486063E+02  0.87726116497E+02 0.  0.
         13    1    3    3    0    0  0.20902142751E+02 -0.32515570654E+02  0.21931224462E+02  0.44442678553E+02  0.10566000000E+00 0.  1.
         22    1    1    0    0    0  0.15535110414E+02  0.49883397587E+00 -0.27646858148E+02  0.31716513937E+02  0.00000000000E+00 0. -1.
</event>
<event>
 5    1  0.1764311E-003  0.9118800E+02  0.7818608E-02  0.1130116E+00
         25   -1    0    0    0    0  0.00000000000E+00  0.00000000000E+00  0.99999998245E-14  0.12500000000E+03  0.12500000000E+03 0.  0.
        -13    1    3    3    0    0  0.24287445188E+02 -0.28208118986E+02  0.48510932377E+02  0.61146542785E+02  0.10566000000E+00 0.  1.
         23    2    1    0    0    0  0.71503940854E+01 -0.55909624055E+01  0.26287241685E+02  0.97189820720E+02  0.93126017739E+02 0.  0.
         13    1    3    3    0    0 -0.17137051103E+02  0.22617156580E+02 -0.22223690692E+02  0.36043277934E+02  0.10566000000E+00 0. -1.
         22    1    1    0    0    0 -0.71503940854E+01  0.55909624055E+01 -0.26287241685E+02  0.27810179280E+02  0.00000000000E+00 0.  1.
</event>
<event>
 5    1  0.1764311E-003  0.9118800E+02  0.7818608E-02  0.1130116E+00
         25   -1    0    0    0    0  0.00000000000E+00  0.00000000000E+00  0.99999998245E-14  0.12500000000E+03  0.12500000000E+03 0.  0.
        -13    1    3    3    0    0  0.27411917675E+02  0.40356498339E+00 -0.53630499764E+02  0.60231368607E+02  0.10566000000E+00 0.  1.
         23    2    1    0    0    0  0.16338131417E+02 -0.10971130697E+02 -0.23014362072E+02  0.94718634302E+02  0.89747749695E+02 0.  0.
         13    1    3    3    0    0 -0.11073786258E+02 -0.11374695681E+02  0.30616137692E+02  0.34487265695E+02  0.10566000000E+00 0. -1.
         22    1    1    0    0    0 -0.16338131417E+02  0.10971130697E+02  0.23014362072E+02  0.30281365698E+02  0.00000000000E+00 0.  1.
</event>
<event>
 5    1  0.1764311E-003  0.9118800E+02  0.7818608E-02  0.1130116E+00
         25   -1    0    0    0    0  0.00000000000E+00  0.00000000000E+00  0.99999998245E-14  0.12500000000E+03  0.12500000000E+03 0.  0.
        -13    1    3    3    0    0 -0.21399723447E+02  0.27612429831E+02  0.48643894476E+02  0.59888513745E+02  0.10566000000E+00 0.  1.
         23    2    1    0    0    0 -0.42577242591E-01  0.81094531121E+01  0.29090223546E+02  0.94800560459E+02  0.89861783394E+02 0.  0.
         13    1    3    3    0    0  0.21357146205E+02 -0.19502976719E+02 -0.19553670929E+02  0.34912046714E+02  0.10566000000E+00 0. -1.
         22    1    1    0    0    0  0.42577242591E-01 -0.81094531121E+01 -0.29090223546E+02  0.30199439541E+02  0.00000000000E+00 0.  1.
</event>
<event>
 5    1  0.1764311E-003  0.9118800E+02  0.7818608E-02  0.1130116E+00
         25   -1    0    0    0    0  0.00000000000E+00  0.00000000000E+00  0.99999998245E-14  0.12500000000E+03  0.12500000000E+03 0.  0.
        -13    1    3    3    0    0  0.25207506298E+02 -0.31801992395E+02 -0.23363512145E+02  0.46825740334E+02  0.10566000000E+00 0. -1.
         23    2    1    0    0    0  0.88038782652E+00 -0.21090913413E+02  0.18842401950E+02  0.96704455783E+02  0.92472233376E+02 0.  0.
         13    1    3    3    0    0 -0.24327118471E+02  0.10711078983E+02  0.42205914096E+02  0.49878715448E+02  0.10566000000E+00 0.  1.
         22    1    1    0    0    0 -0.88038782652E+00  0.21090913413E+02 -0.18842401950E+02  0.28295544217E+02  0.00000000000E+00 0.  1.
</event>
<event>
 5    1  0.1764311E-003  0.9118800E+02  0.7818608E-02  0.1130116E+00
         25   -1    0    0    0    0  0.00000000000E+00  0.00000000000E+00  0.99999998245E-14  0.12500000000E+03  0.12500000000E+03 0.  0.
        -13    1    3    3    0    0 -0.17539129193E+02 -0.30618869848E+02 -0.17428620620E+02  0.39356120545E+02  0.10566000000E+00 0.  1.
         23    2    1    0    0    0  0.16017599897E-01 -0.66300522871E+01  0.29421245658E+02  0.94840962450E+02  0.89917966016E+02 0.  0.
         13    1    3    3    0    0  0.17555146793E+02  0.23988817561E+02  0.46849866278E+02  0.55484841905E+02  0.10566000000E+00 0. -1.
         22    1    1    0    0    0 -0.16017599897E-01  0.66300522871E+01 -0.29421245658E+02  0.30159037550E+02  0.00000000000E+00 0. -1.
</event>
<event>
 5    1  0.1764311E-003  0.9118800E+02  0.7818608E-02  0.1130116E+00
         25   -1    0    0    0    0  0.00000000000E+00  0.00000000000E+00  0.99999998245E-14  0.12500000000E+03  0.12500000000E+03 0.  0.
        -13    1    3    3    0    0 -0.23856380537E+02 -0.34171681369E+02  0.39260086241E+02  0.57255534541E+02  0.10566000000E+00 0.  1.
         23    2    1    0    0    0  0.64727086611E+01 -0.25259084383E+01  0.17455994824E+02  0.10621202709E+03  0.10453710715E+03 0.  0.
         13    1    3    3    0    0  0.30329089198E+02  0.31645772931E+02 -0.21804091417E+02  0.48956492547E+02  0.10566000000E+00 0. -1.
         22    1    1    0    0    0 -0.64727086611E+01  0.25259084383E+01 -0.17455994824E+02  0.18787972912E+02  0.00000000000E+00 0. -1.
</event>
<event>
 5    1  0.1764311E-003  0.9118800E+02  0.7818608E-02  0.1130116E+00
         25   -1    0    0    0    0  0.00000000000E+00  0.00000000000E+00  0.99999998245E-14  0.12500000000E+03  0.12500000000E+03 0.  0.
        -13    1    3    3    0    0  0.21831761042E+02 -0.17141714243E+02  0.50271933386E+02  0.57425975027E+02  0.10566000000E+00 0.  1.
         23    2    1    0    0    0  0.10854888679E+02 -0.15982667869E+02  0.36486084799E+01  0.10533819377E+03  0.10348694817E+03 0.  0.
         13    1    3    3    0    0 -0.10976872364E+02  0.11590463748E+01 -0.46623324906E+02  0.47912218742E+02  0.10566000000E+00 0. -1.
         22    1    1    0    0    0 -0.10854888679E+02  0.15982667869E+02 -0.36486084799E+01  0.19661806231E+02  0.00000000000E+00 0.  1.
</event>
<event>
 5    1  0.1764311E-003  0.9118800E+02  0.7818608E-02  0.1130116E+00
         25   -1    0    0    0    0  0.00000000000E+00  0.00000000000E+00  0.99999998245E-14  0.12500000000E+03  0.12500000000E+03 0.  0.
        -13    1    3    3    0    0 -0.62174583490E+02 -0.23771268897E+01  0.58542947837E+01  0.62494907760E+02  0.10566000000E+00 0. -1.
         23    2    1    0    0    0 -0.29552059525E+02 -0.16521828976E+01  0.25772780100E+01  0.95289794810E+02  0.90539763102E+02 0.  0.
         13    1    3    3    0    0  0.32622523966E+02  0.72494399219E+00 -0.32770167737E+01  0.32794887051E+02  0.10566000000E+00 0.  1.
         22    1    1    0    0    0  0.29552059525E+02  0.16521828976E+01 -0.25772780100E+01  0.29710205190E+02  0.00000000000E+00 0. -1.
</event>
<event>
 5    1  0.1764311E-003  0.9118800E+02  0.7818608E-02  0.1130116E+00
         25   -1    0    0    0    0  0.00000000000E+00  0.00000000000E+00  0.99999998245E-14  0.12500000000E+03  0.12500000000E+03 0.  0.
        -13    1    3    3    0    0  0.65756078627E+01  0.40671053432E+02  0.92431690176E+01  0.42223459635E+02  0.10566000000E+00 0.  1.
         23    2    1    0    0    0 -0.28915425446E+02  0.31429063616E+01 -0.42400955427E+01  0.95606835840E+02  0.90976419802E+02 0.  0.
         13    1    3    3    0    0 -0.35491033309E+02 -0.37528147070E+02 -0.13483264560E+02  0.53383376205E+02  0.10566000000E+00 0. -1.
         22    1    1    0    0    0  0.28915425446E+02 -0.31429063616E+01  0.42400955427E+01  0.29393164160E+02  0.00000000000E+00 0. -1.
</event>
<event>
 5    1  0.1764311E-003  0.9118800E+02  0.7818608E-02  0.1130116E+00
         25   -1    0    0    0    0  0.00000000000E+00  0.00000000000E+00  0.99999998245E-14  0.12500000000E+03  0.12500000000E+03 0.  0.
        -13    1    3    3    0    0 -0.49835142033E+02 -0.82424812228E+01  0.17195673782E+02  0.53358993984E+02  0.10566000000E+00 0.  1.
         23    2    1    0    0    0 -0.82750675192E+01 -0.52054006958E+01  0.27099739845E+02  0.96190820238E+02  0.91775296565E+02 0.  0.
         13    1    3    3    0    0  0.41560074513E+02  0.30370805270E+01  0.99040660637E+01  0.42831826255E+02  0.10566000000E+00 0. -1.
         22    1    1    0    0    0  0.82750675192E+01  0.52054006958E+01 -0.27099739845E+02  0.28809179762E+02  0.00000000000E+00 0. -1.
</event>
<event>
 5    1  0.1764311E-003  0.9118800E+02  0.7818608E-02  0.1130116E+00
         25   -1    0    0    0    0  0.00000000000E+00  0.00000000000E+00  0.99999998245E-14  0.12500000000E+03  0.12500000000E+03 0.  0.
        -13    1    3    3    0    0  0.11136931718E+02  0.19243207687E+02  0.26257244473E+02  0.34406196267E+02  0.10566000000E+00 0. -1.
         23    2    1    0    0    0 -0.11445865275E+02 -0.24167423622E+02 -0.11178040256E+02  0.96016888014E+02  0.91538090451E+02 0.  0.
         13    1    3    3    0    0 -0.22582796994E+02 -0.43410631310E+02 -0.37435284729E+02  0.61610691747E+02  0.10566000000E+00 0.  1.
         22    1    1    0    0    0  0.11445865275E+02  0.24167423622E+02  0.11178040256E+02  0.28983111986E+02  0.00000000000E+00 0.  1.
</event>
<event>
 5    1  0.1764311E-003  0.9118800E+02  0.7818608E-02  0.1130116E+00
         25   -1    0    0    0    0  0.00000000000E+00  0.00000000000E+00  0.99999998245E-14  0.12500000000E+03  0.12500000000E+03 0.  0.
        -13    1    3    3    0    0  0.36875281859E+02  0.34247371269E+02  0.16892541248E+02  0.53085195345E+02  0.10566000000E+00 0.  1.
         23    2    1    0    0    0  0.24584839532E+02 -0.64537802484E+01  0.14653920570E+02  0.95660555520E+02  0.91050199780E+02 0.  0.
         13    1    3    3    0    0 -0.12290442326E+02 -0.40701151517E+02 -0.22386206785E+01  0.42575360175E+02  0.10566000000E+00 0. -1.
         22    1    1    0    0    0 -0.24584839532E+02  0.64537802484E+01 -0.14653920570E+02  0.29339444480E+02  0.00000000000E+00 0.  1.
</event>
<event>
 5    1  0.1764311E-003  0.9118800E+02  0.7818608E-02  0.1130116E+00
         25   -1    0    0    0    0  0.00000000000E+00  0.00000000000E+00  0.99999998245E-14  0.12500000000E+03  0.12500000000E+03 0.  0.
        -13    1    3    3    0    0  0.14809956058E+01  0.38203491839E+02 -0.26626184438E+02  0.46590395989E+02  0.10566000000E+00 0.  1.
         23    2    1    0    0    0 -0.22373872157E+02  0.13422651815E+02  0.10203341582E+02  0.96984541473E+02  0.92850069296E+02 0.  0.
         13    1    3    3    0    0 -0.23854867763E+02 -0.24780840024E+02  0.36829526019E+02  0.50394145485E+02  0.10566000000E+00 0. -1.
         22    1    1    0    0    0  0.22373872157E+02 -0.13422651815E+02 -0.10203341582E+02  0.28015458527E+02  0.00000000000E+00 0. -1.
</event>
<event>
 5    1  0.1764311E-003  0.9118800E+02  0.7818608E-02  0.1130116E+00
         25   -1    0    0    0    0  0.00000000000E+00  0.00000000000E+00  0.99999998245E-14  0.12500000000E+03  0.12500000000E+03 0.  0.
        -13    1    3    3    0    0 -0.11324198525E+02 -0.32305498453E+02  0.71255559477E+01  0.34966661467E+02  0.10566000000E+00 0. -1.
         23    2    1    0    0    0 -0.62466546354E+01  0.28265900488E+02  0.14316230769E+01  0.96016705343E+02  0.91537841004E+02 0.  0.
         13    1    3    3    0    0  0.50775438898E+01  0.60571398941E+02 -0.56939328708E+01  0.61050043876E+02  0.10566000000E+00 0.  1.
         22    1    1    0    0    0  0.62466546354E+01 -0.28265900488E+02 -0.14316230769E+01  0.28983294657E+02  0.00000000000E+00 0.  1.
</event>
<event>
 5    1  0.1764311E-003  0.9118800E+02  0.7818608E-02  0.1130116E+00
         25   -1    0    0    0    0  0.00000000000E+00  0.00000000000E+00  0.99999998245E-14  0.12500000000E+03  0.12500000000E+03 0.  0.
        -13    1    3    3    0    0 -0.43564782424E+02 -0.12941045294E+02  0.83331162037E+01  0.46204035654E+02  0.10566000000E+00 0. -1.
         23    2    1    0    0    0 -0.13705503887E+02  0.24419477620E+02  0.12744053183E+02  0.94233742256E+02  0.89069835320E+02 0.  0.
         13    1    3    3    0    0  0.29859278537E+02  0.37360522915E+02  0.44109369795E+01  0.48029706602E+02  0.10566000000E+00 0.  1.
         22    1    1    0    0    0  0.13705503887E+02 -0.24419477620E+02 -0.12744053183E+02  0.30766257744E+02  0.00000000000E+00 0.  1.
</event>
<event>
 5    1  0.1764311E-003  0.9118800E+02  0.7818608E-02  0.1130116E+00
         25   -1    0    0    0    0  0.00000000000E+00  0.00000000000E+00  0.99999998245E-14  0.12500000000E+03  0.12500000000E+03 0.  0.
        -13    1    3    3    0    0  0.21398062404E+02  0.19777928681E+02  0.27241884428E+02  0.39889534577E+02  0.10566000000E+00 0. -1.
         23    2    1    0    0    0 -0.17562660499E+02 -0.16621024891E+02  0.19845287070E+02  0.93718361118E+02  0.88343592182E+02 0.  0.
         13    1    3    3    0    0 -0.38960722903E+02 -0.36398953573E+02 -0.73965973576E+01  0.53828826541E+02  0.10566000000E+00 0.  1.
         22    1    1    0    0    0  0.17562660499E+02  0.16621024891E+02 -0.19845287070E+02  0.31281638882E+02  0.00000000000E+00 0. -1.
</event>
<event>
 5    1  0.1764311E-003  0.9118800E+02  0.7818608E-02  0.1130116E+00
         25   -1    0    0    0    0  0.00000000000E+00  0.00000000000E+00  0.99999998245E-14  0.12500000000E+03  0.12500000000E+03 0.  0.
        -13    1    3    3    0    0  0.30888359194E+02 -0.22258594792E+02 -0.15764298383E+02  0.41207524111E+02  0.10566000000E+00 0. -1.
         23    2    1    0    0    0  0.13681485165E+02  0.61642049900E+01  0.26244934475E+02  0.94767946727E+02  0.89816405415E+02 0.  0.
         13    1    3    3    0    0 -0.17206874029E+02  0.28422799783E+02  0.42009232859E+02  0.53560422615E+02  0.10566000000E+00 0.  1.
         22    1    1    0    0    0 -0.13681485165E+02 -0.61642049900E+01 -0.26244934475E+02  0.30232053273E+02  0.00000000000E+00 0.  1.
</event>
<event>
 5    1  0.1764311E-003  0.9118800E+02  0.7818608E-02  0.1130116E+00
         25   -1    0    0    0    0  0.00000000000E+00  0.00000000000E+00  0.99999998245E-14  0.12500000000E+03  0.12500000000E+03 0.  0.
        -13    1    3    3    0    0  0.30348695305E+02 -0.40874039984E+02 -0.93206850314E+01  0.51755355132E+02  0.10566000000E+00 0.  1.
         23    2    1    0    0    0  0.15822225366E+02 -0.12442561458E+02  0.21088459406E+02  0.95847242475E+02  0.91306136808E+02 0.  0.
         13    1    3    3    0    0 -0.14526469939E+02  0.28431478526E+02  0.30409144438E+02  0.44091887344E+02  0.10566000000E+00 0. -1.
         22    1    1    0    0    0 -0.15822225366E+02  0.12442561458E+02 -0.21088459406E+02  0.29152757525E+02  0.00000000000E+00 0. -1.
</event>
<event>
 5    1  0.1764311E-003  0.9118800E+02  0.7818608E-02  0.1130116E+00
         25   -1    0    0    0    0  0.00000000000E+00  0.00000000000E+00  0.99999998245E-14  0.12500000000E+03  0.12500000000E+03 0.  0.
        -13    1    3    3    0    0 -0.48607435854E+02  0.52132589158E+01 -0.84548695121E+01  0.49612063768E+02  0.10566000000E+00 0. -1.
         23    2    1    0    0    0 -0.14662241253E+02  0.20482671988E+02  0.16915610022E+02  0.94657636335E+02  0.89662751931E+02 0.  0.
         13    1    3    3    0    0  0.33945194601E+02  0.15269413073E+02  0.25370479534E+02  0.45045572567E+02  0.10566000000E+00 0.  1.
         22    1    1    0    0    0  0.14662241253E+02 -0.20482671988E+02 -0.16915610022E+02  0.30342363665E+02  0.00000000000E+00 0. -1.
</event>
<event>
 5    1  0.1764311E-003  0.9118800E+02  0.7818608E-02  0.1130116E+00
         25   -1    0    0    0    0  0.00000000000E+00  0.00000000000E+00  0.99999998245E-14  0.12500000000E+03  0.12500000000E+03 0.  0.
        -13    1    3    3    0    0  0.10332485148E+02  0.35289946935E+02  0.11413890074E+02  0.38502320121E+02  0.10566000000E+00 0.  1.
         23    2    1    0    0    0  0.16429212890E+02 -0.18283392319E+02 -0.12426507395E+02  0.97456950842E+02  0.93483890112E+02 0.  0.
         13    1    3    3    0    0  0.60967277417E+01 -0.53573339254E+02 -0.23840397468E+02  0.58954630721E+02  0.10566000000E+00 0. -1.
         22    1    1    0    0    0 -0.16429212890E+02  0.18283392319E+02  0.12426507395E+02  0.27543049158E+02  0.00000000000E+00 0. -1.
</event>
<event>
 5    1  0.1764311E-003  0.9118800E+02  0.7818608E-02  0.1130116E+00
         25   -1    0    0    0    0  0.00000000000E+00  0.00000000000E+00  0.99999998245E-14  0.12500000000E+03  0.12500000000E+03 0.  0.
        -13    1    3    3    0    0 -0.22675402369E+02 -0.64255637928E+01 -0.18275917973E+02  0.29824186233E+02  0.10566000000E+00 0. -1.
         23    2    1    0    0    0  0.27351070124E+02  0.13936050307E+02  0.12347145734E+02  0.91913045730E+02  0.85751159948E+02 0.  0.
         13    1    3    3    0    0  0.50026472493E+02  0.20361614100E+02  0.30623063707E+02  0.62088859497E+02  0.10566000000E+00 0.  1.
         22    1    1    0    0    0 -0.27351070124E+02 -0.13936050307E+02 -0.12347145734E+02  0.33086954270E+02  0.00000000000E+00 0.  1.
</event>
<event>
 5    1  0.1764311E-003  0.9118800E+02  0.7818608E-02  0.1130116E+00
         25   -1    0    0    0    0  0.00000000000E+00  0.00000000000E+00  0.99999998245E-14  0.12500000000E+03  0.12500000000E+03 0.  0.
        -13    1    3    3    0    0  0.42517632282E+02 -0.14764463606E+02 -0.33849799144E+02  0.56316591752E+02  0.10566000000E+00 0.  1.
         23    2    1    0    0    0  0.22543481554E+02 -0.18212371134E+02  0.28671755012E+00  0.96017570325E+02  0.91539022178E+02 0.  0.
         13    1    3    3    0    0 -0.19974150728E+02 -0.34479075277E+01  0.34136516694E+02  0.39700978573E+02  0.10566000000E+00 0. -1.
         22    1    1    0    0    0 -0.22543481554E+02  0.18212371134E+02 -0.28671755012E+00  0.28982429675E+02  0.00000000000E+00 0.  1.
</event>
<event>
 5    1  0.1764311E-003  0.9118800E+02  0.7818608E-02  0.1130116E+00
         25   -1    0    0    0    0  0.00000000000E+00  0.00000000000E+00  0.99999998245E-14  0.12500000000E+03  0.12500000000E+03 0.  0.
        -13    1    3    3    0    0 -0.16850596488E+02  0.48465566110E+01  0.32272711641E+02  0.36728337747E+02  0.10566000000E+00 0.  1.
         23    2    1    0    0    0  0.26651939663E+02 -0.14871524029E+02 -0.19061690049E+00  0.94479114536E+02  0.89413526012E+02 0.  0.
         13    1    3    3    0    0  0.43502536151E+02 -0.19718080640E+02 -0.32463328541E+02  0.57750776788E+02  0.10566000000E+00 0. -1.
         22    1    1    0    0    0 -0.26651939663E+02  0.14871524029E+02  0.19061690049E+00  0.30520885464E+02  0.00000000000E+00 0. -1.
</event>
<event>
 5    1  0.1764311E-003  0.9118800E+02  0.7818608E-02  0.1130116E+00
         25   -1    0    0    0    0  0.00000000000E+00  0.00000000000E+00  0.99999998245E-14  0.12500000000E+03  0.12500000000E+03 0.  0.
        -13    1    3    3    0    0 -0.30908458386E+02 -0.16958752320E+02 -0.39015822943E+01  0.35470629942E+02  0.10566000000E+00 0. -1.
         23    2    1    0    0    0  0.25708687607E+02  0.59593109045E+01  0.74100162342E+01  0.97589083461E+02  0.93660401799E+02 0.  0.
         13    1    3    3    0    0  0.56617145993E+02  0.22918063224E+02  0.11311598529E+02  0.62118453519E+02  0.10566000000E+00 0.  1.
         22    1    1    0    0    0 -0.25708687607E+02 -0.59593109045E+01 -0.74100162342E+01  0.27410916539E+02  0.00000000000E+00 0.  1.
</event>
<event>
 5    1  0.1764311E-003  0.9118800E+02  0.7818608E-02  0.1130116E+00
         25   -1    0    0    0    0  0.00000000000E+00  0.00000000000E+00  0.99999998245E-14  0.12500000000E+03  0.12500000000E+03 0.  0.
        -13    1    3    3    0    0  0.10420751000E+02 -0.45471379918E+02 -0.21173912950E+02  0.51230695845E+02  0.10566000000E+00 0.  1.
         23    2    1    0    0    0  0.23253529278E+02 -0.15023921812E+02  0.89107579764E+01  0.95916560413E+02  0.91400985242E+02 0.  0.
         13    1    3    3    0    0  0.12832778278E+02  0.30447458106E+02  0.30084670926E+02  0.44685864568E+02  0.10566000000E+00 0. -1.
         22    1    1    0    0    0 -0.23253529278E+02  0.15023921812E+02 -0.89107579764E+01  0.29083439587E+02  0.00000000000E+00 0.  1.
</event>
<event>
 5    1  0.1764311E-003  0.9118800E+02  0.7818608E-02  0.1130116E+00
         25   -1    0    0    0    0  0.00000000000E+00  0.00000000000E+00  0.99999998245E-14  0.12500000000E+03  0.12500000000E+03 0.  0.
        -13    1    3    3    0    0 -0.47679755917E+02  0.13753057568E+01  0.20179703127E+02  0.51792684547E+02  0.10566000000E+00 0.  1.
         23    2    1    0    0    0 -0.11188940365E+02 -0.22762073717E+02  0.14146072228E+02  0.95958379077E+02  0.91458158571E+02 0.  0.
         13    1    3    3    0    0  0.36490815552E+02 -0.24137379473E+02 -0.60336308998E+01  0.44165694530E+02  0.10566000000E+00 0. -1.
         22    1    1    0    0    0  0.11188940365E+02  0.22762073717E+02 -0.14146072228E+02  0.29041620923E+02  0.00000000000E+00 0.  1.
</event>
<event>
 5    1  0.1764311E-003  0.9118800E+02  0.7818608E-02  0.1130116E+00
         25   -1    0    0    0    0  0.00000000000E+00  0.00000000000E+00  0.99999998245E-14  0.12500000000E+03  0.12500000000E+03 0.  0.
        -13    1    3    3    0    0 -0.17178630139E+02  0.21807995008E+02 -0.51776007102E+02  0.58749128123E+02  0.10566000000E+00 0.  1.
         23    2    1    0    0    0 -0.65972725394E+01  0.23381668716E+02 -0.16448587848E+02  0.95660905278E+02  0.91050679951E+02 0.  0.
         13    1    3    3    0    0  0.10581357600E+02  0.15736737077E+01  0.35327419254E+02  0.36911777156E+02  0.10566000000E+00 0. -1.
         22    1    1    0    0    0  0.65972725394E+01 -0.23381668716E+02  0.16448587848E+02  0.29339094722E+02  0.00000000000E+00 0.  1.
</event>
<event>
 5    1  0.1764311E-003  0.9118800E+02  0.7818608E-02  0.1130116E+00
         25   -1    0    0    0    0  0.00000000000E+00  0.00000000000E+00  0.99999998245E-14  0.12500000000E+03  0.12500000000E+03 0.  0.
        -13    1    3    3    0    0 -0.10833112332E+02 -0.15554956535E+02 -0.29748074364E+02  0.35274241140E+02  0.10566000000E+00 0. -1.
         23    2    1    0    0    0  0.47580598621E+01 -0.14017593320E+01  0.27907658225E+02  0.96654957215E+02  0.92405299111E+02 0.  0.
         13    1    3    3    0    0  0.15591172195E+02  0.14153197203E+02  0.57655732589E+02  0.61380716075E+02  0.10566000000E+00 0.  1.
         22    1    1    0    0    0 -0.47580598621E+01  0.14017593320E+01 -0.27907658225E+02  0.28345042785E+02  0.00000000000E+00 0.  1.
</event>
<event>
 5    1  0.1764311E-003  0.9118800E+02  0.7818608E-02  0.1130116E+00
         25   -1    0    0    0    0  0.00000000000E+00  0.00000000000E+00  0.99999998245E-14  0.12500000000E+03  0.12500000000E+03 0.  0.
        -13    1    3    3    0    0  0.37434152726E+02  0.95840897811E+01 -0.17050284125E+02  0.42236168387E+02  0.10566000000E+00 0. -1.
         23    2    1    0    0    0  0.83392851000E+01 -0.22535630461E+02  0.15472457944E+02  0.96420369648E+02  0.92087417229E+02 0.  0.
         13    1    3    3    0    0 -0.29094867625E+02 -0.32119720242E+02  0.32522742069E+02  0.54184201261E+02  0.10566000000E+00 0.  1.
         22    1    1    0    0    0 -0.83392851000E+01  0.22535630461E+02 -0.15472457944E+02  0.28579630352E+02  0.00000000000E+00 0.  1.
</event>
<event>
 5    1  0.1764311E-003  0.9118800E+02  0.7818608E-02  0.1130116E+00
         25   -1    0    0    0    0  0.00000000000E+00  0.00000000000E+00  0.99999998245E-14  0.12500000000E+03  0.12500000000E+03 0.  0.
        -13    1    3    3    0    0 -0.30725237889E+02  0.94715344440E+01  0.22878560041E+02  0.39461245313E+02  0.10566000000E+00 0.  1.
         23    2    1    0    0    0  0.11278456059E+02  0.22318235899E+02 -0.13579182253E+02  0.96544747139E+02  0.92256093483E+02 0.  0.
         13    1    3    3    0    0  0.42003693948E+02  0.12846701455E+02 -0.36457742294E+02  0.57083501826E+02  0.10566000000E+00 0. -1.
         22    1    1    0    0    0 -0.11278456059E+02 -0.22318235899E+02  0.13579182253E+02  0.28455252861E+02  0.00000000000E+00 0. -1.
</event>
<event>
 5    1  0.1764311E-003  0.9118800E+02  0.7818608E-02  0.1130116E+00
         25   -1    0    0    0    0  0.00000000000E+00  0.00000000000E+00  0.99999998245E-14  0.12500000000E+03  0.12500000000E+03 0.  0.
        -13    1    3    3    0    0  0.16326112848E+02  0.45511080035E+02 -0.15418051307E+02  0.50749658490E+02  0.10566000000E+00 0.  1.
         23    2    1    0    0    0  0.44718411742E+00  0.18275828652E+01 -0.26419172912E+02  0.98513914406E+02  0.94886661873E+02 0.  0.
         13    1    3    3    0    0 -0.15878928731E+02 -0.43683497170E+02 -0.11001121605E+02  0.47764255916E+02  0.10566000000E+00 0. -1.
         22    1    1    0    0    0 -0.44718411742E+00 -0.18275828652E+01  0.26419172912E+02  0.26486085594E+02  0.00000000000E+00 0.  1.
</event>
<event>
 5    1  0.1764311E-003  0.9118800E+02  0.7818608E-02  0.1130116E+00
         25   -1    0    0    0    0  0.00000000000E+00  0.00000000000E+00  0.99999998245E-14  0.12500000000E+03  0.12500000000E+03 0.  0.
        -13    1    3    3    0    0 -0.42411439620E+02 -0.52745726483E+01 -0.42011717809E+02  0.59929516305E+02  0.10566000000E+00 0.  1.
         23    2    1    0    0    0 -0.22838603179E+02 -0.12785398805E+02 -0.12858293348E+02  0.95838314082E+02  0.91293912833E+02 0.  0.
         13    1    3    3    0    0  0.19572836441E+02 -0.75108261570E+01  0.29153424461E+02  0.35908797776E+02  0.10566000000E+00 0. -1.
         22    1    1    0    0    0  0.22838603179E+02  0.12785398805E+02  0.12858293348E+02  0.29161685918E+02  0.00000000000E+00 0.  1.
</event>
<event>
 5    1  0.1764311E-003  0.9118800E+02  0.7818608E-02  0.1130116E+00
         25   -1    0    0    0    0  0.00000000000E+00  0.00000000000E+00  0.99999998245E-14  0.12500000000E+03  0.12500000000E+03 0.  0.
        -13    1    3    3    0    0 -0.19573992952E+01  0.91458949829E+01  0.33880562424E+02  0.35148008212E+02  0.10566000000E+00 0. -1.
         23    2    1    0    0    0  0.13413997404E+02 -0.88269950315E+01 -0.23114598860E+02  0.96855091969E+02  0.92675633217E+02 0.  0.
         13    1    3    3    0    0  0.15371396700E+02 -0.17972890014E+02 -0.56995161284E+02  0.61707083757E+02  0.10566000000E+00 0.  1.
         22    1    1    0    0    0 -0.13413997404E+02  0.88269950315E+01  0.23114598860E+02  0.28144908031E+02  0.00000000000E+00 0.  1.
</event>
<event>
 5    1  0.1764311E-003  0.9118800E+02  0.7818608E-02  0.1130116E+00
         25   -1    0    0    0    0  0.00000000000E+00  0.00000000000E+00  0.99999998245E-14  0.12500000000E+03  0.12500000000E+03 0.  0.
        -13    1    3    3    0    0 -0.50275668840E+01 -0.13183868370E+02  0.50618614448E+02  0.52548511936E+02  0.10566000000E+00 0.  1.
         23    2    1    0    0    0 -0.23686582276E+02 -0.13330321959E+02  0.12305312898E+02  0.95164243114E+02  0.90366259071E+02 0.  0.
         13    1    3    3    0    0 -0.18659015392E+02 -0.14645358969E+00 -0.38313301551E+02  0.42615731178E+02  0.10566000000E+00 0. -1.
         22    1    1    0    0    0  0.23686582276E+02  0.13330321959E+02 -0.12305312898E+02  0.29835756886E+02  0.00000000000E+00 0.  1.
</event>
<event>
 5    1  0.1764311E-003  0.9118800E+02  0.7818608E-02  0.1130116E+00
         25   -1    0    0    0    0  0.00000000000E+00  0.00000000000E+00  0.99999998245E-14  0.12500000000E+03  0.12500000000E+03 0.  0.
        -13    1    3    3    0    0 -0.44990571823E+02  0.30966709125E+02 -0.19272039812E+02  0.57918143181E+02  0.10566000000E+00 0. -1.
         23    2    1    0    0    0 -0.28842082528E+02 -0.50103509417E+00 -0.75118933827E+01  0.95191522969E+02  0.90403986319E+02 0.  0.
         13    1    3    3    0    0  0.16148489296E+02 -0.31467744219E+02  0.11760146429E+02  0.37273379788E+02  0.10566000000E+00 0.  1.
         22    1    1    0    0    0  0.28842082528E+02  0.50103509417E+00  0.75118933827E+01  0.29808477031E+02  0.00000000000E+00 0. -1.
</event>
<event>
 5    1  0.1764311E-003  0.9118800E+02  0.7818608E-02  0.1130116E+00
         25   -1    0    0    0    0  0.00000000000E+00  0.00000000000E+00  0.99999998245E-14  0.12500000000E+03  0.12500000000E+03 0.  0.
        -13    1    3    3    0    0  0.56426224024E+02 -0.99511658364E+01  0.35189552007E+01  0.57405040449E+02  0.10566000000E+00 0. -1.
         23    2    1    0    0    0  0.23058191299E+02  0.11916089291E+01 -0.15300004707E+02  0.97301800386E+02  0.93276203270E+02 0.  0.
         13    1    3    3    0    0 -0.33368032725E+02  0.11142774766E+02 -0.18818959908E+02  0.39896759937E+02  0.10566000000E+00 0.  1.
         22    1    1    0    0    0 -0.23058191299E+02 -0.11916089291E+01  0.15300004707E+02  0.27698199614E+02  0.00000000000E+00 0. -1.
</event>
<event>
 5    1  0.1764311E-003  0.9118800E+02  0.7818608E-02  0.1130116E+00
         25   -1    0    0    0    0  0.00000000000E+00  0.00000000000E+00  0.99999998245E-14  0.12500000000E+03  0.12500000000E+03 0.  0.
        -13    1    3    3    0    0 -0.31355246166E+02  0.12903732863E+02 -0.30915937040E+02  0.45885336558E+02  0.10566000000E+00 0.  1.
         23    2    1    0    0    0  0.84695220047E+01 -0.13912134089E+02 -0.26229311616E+02  0.94125138611E+02  0.88917291079E+02 0.  0.
         13    1    3    3    0    0  0.39824768171E+02 -0.26815866952E+02  0.46866254237E+01  0.48239802053E+02  0.10566000000E+00 0. -1.
         22    1    1    0    0    0 -0.84695220047E+01  0.13912134089E+02  0.26229311616E+02  0.30874861389E+02  0.00000000000E+00 0. -1.
</event>
<event>
 5    1  0.1764311E-003  0.9118800E+02  0.7818608E-02  0.1130116E+00
         25   -1    0    0    0    0  0.00000000000E+00  0.00000000000E+00  0.99999998245E-14  0.12500000000E+03  0.12500000000E+03 0.  0.
        -13    1    3    3    0    0  0.25777140197E+02  0.44030198114E+02 -0.28971427272E+02  0.58672600632E+02  0.10566000000E+00 0. -1.
         23    2    1    0    0    0 -0.28606126338E+01  0.25151250726E+02 -0.13665357716E+02  0.96233517434E+02  0.91833432684E+02 0.  0.
         13    1    3    3    0    0 -0.28637752831E+02 -0.18878947389E+02  0.15306069557E+02  0.37560916802E+02  0.10566000000E+00 0.  1.
         22    1    1    0    0    0  0.28606126338E+01 -0.25151250726E+02  0.13665357716E+02  0.28766482566E+02  0.00000000000E+00 0. -1.
</event>
<event>
 5    1  0.1764311E-003  0.9118800E+02  0.7818608E-02  0.1130116E+00
         25   -1    0    0    0    0  0.00000000000E+00  0.00000000000E+00  0.99999998245E-14  0.12500000000E+03  0.12500000000E+03 0.  0.
        -13    1    3    3    0    0  0.35964540050E+02  0.25945904436E+02  0.56178072319E-01  0.44346955003E+02  0.10566000000E+00 0.  1.
         23    2    1    0    0    0 -0.11613631269E+02  0.22059027372E+02  0.16803423100E+02  0.94936198715E+02  0.90050261958E+02 0.  0.
         13    1    3    3    0    0 -0.47578171318E+02 -0.38868770640E+01  0.16747245027E+02  0.50589243712E+02  0.10566000000E+00 0. -1.
         22    1    1    0    0    0  0.11613631269E+02 -0.22059027372E+02 -0.16803423100E+02  0.30063801285E+02  0.00000000000E+00 0.  1.
</event>
<event>
 5    1  0.1764311E-003  0.9118800E+02  0.7818608E-02  0.1130116E+00
         25   -1    0    0    0    0  0.00000000000E+00  0.00000000000E+00  0.99999998245E-14  0.12500000000E+03  0.12500000000E+03 0.  0.
        -13    1    3    3    0    0  0.21115889909E+02 -0.10477985791E+02 -0.27240061453E+02  0.36023618709E+02  0.10566000000E+00 0. -1.
         23    2    1    0    0    0 -0.78810110299E+01  0.22056998738E+02  0.15378390367E+02  0.96980071049E+02  0.92844050764E+02 0.  0.
         13    1    3    3    0    0 -0.28996900939E+02  0.32534984528E+02  0.42618451820E+02  0.60956452340E+02  0.10566000000E+00 0.  1.
         22    1    1    0    0    0  0.78810110299E+01 -0.22056998738E+02 -0.15378390367E+02  0.28019928951E+02  0.00000000000E+00 0.  1.
</event>
<event>
 5    1  0.1764311E-003  0.9118800E+02  0.7818608E-02  0.1130116E+00
         25   -1    0    0    0    0  0.00000000000E+00  0.00000000000E+00  0.99999998245E-14  0.12500000000E+03  0.12500000000E+03 0.  0.
        -13    1    3    3    0    0 -0.18422069139E+02 -0.28732135916E+00  0.31771641834E+02  0.36727422641E+02  0.10566000000E+00 0. -1.
         23    2    1    0    0    0  0.19414540561E+02  0.76131727885E+01 -0.16386051081E+02  0.98478547265E+02  0.94840059133E+02 0.  0.
         13    1    3    3    0    0  0.37836609700E+02  0.79004941477E+01 -0.48157692916E+02  0.61751124625E+02  0.10566000000E+00 0.  1.
         22    1    1    0    0    0 -0.19414540561E+02 -0.76131727885E+01  0.16386051081E+02  0.26521452735E+02  0.00000000000E+00 0.  1.
</event>
<event>
 5    1  0.1764311E-003  0.9118800E+02  0.7818608E-02  0.1130116E+00
         25   -1    0    0    0    0  0.00000000000E+00  0.00000000000E+00  0.99999998245E-14  0.12500000000E+03  0.12500000000E+03 0.  0.
        -13    1    3    3    0    0  0.11492654890E+02  0.33869532565E+01 -0.48074409634E+02  0.49545056206E+02  0.10566000000E+00 0.  1.
         23    2    1    0    0    0  0.74810919558E+01  0.26817677041E+02 -0.81858397237E+01  0.95979963634E+02  0.91487654404E+02 0.  0.
         13    1    3    3    0    0 -0.40115629347E+01  0.23430723784E+02  0.39888569910E+02  0.46434907427E+02  0.10566000000E+00 0. -1.
         22    1    1    0    0    0 -0.74810919558E+01 -0.26817677041E+02  0.81858397237E+01  0.29020036366E+02  0.00000000000E+00 0.  1.
</event>
<event>
 5    1  0.1764311E-003  0.9118800E+02  0.7818608E-02  0.1130116E+00
         25   -1    0    0    0    0  0.00000000000E+00  0.00000000000E+00  0.99999998245E-14  0.12500000000E+03  0.12500000000E+03 0.  0.
        -13    1    3    3    0    0  0.43676127871E+02  0.55299075351E+01  0.37052542239E+02  0.57542037447E+02  0.10566000000E+00 0. -1.
         23    2    1    0    0    0  0.21168278227E+02 -0.14413541632E+02  0.11836689244E+02  0.96787353939E+02  0.92584223736E+02 0.  0.
         13    1    3    3    0    0 -0.22507849644E+02 -0.19943449168E+02 -0.25215852995E+02  0.39245316492E+02  0.10566000000E+00 0.  1.
         22    1    1    0    0    0 -0.21168278227E+02  0.14413541632E+02 -0.11836689244E+02  0.28212646061E+02  0.00000000000E+00 0. -1.
</event>
<event>
 5    1  0.1764311E-003  0.9118800E+02  0.7818608E-02  0.1130116E+00
         25   -1    0    0    0    0  0.00000000000E+00  0.00000000000E+00  0.99999998245E-14  0.12500000000E+03  0.12500000000E+03 0.  0.
        -13    1    3    3    0    0 -0.37448088289E+02  0.26937124869E+02  0.31873487719E+02  0.56070477045E+02  0.10566000000E+00 0.  1.
         23    2    1    0    0    0 -0.12932436381E+02 -0.31301694444E+01  0.26646271185E+02  0.95216285665E+02  0.90438218781E+02 0.  0.
         13    1    3    3    0    0  0.24515651907E+02 -0.30067294313E+02 -0.52272165342E+01  0.39145808620E+02  0.10566000000E+00 0. -1.
         22    1    1    0    0    0  0.12932436381E+02  0.31301694444E+01 -0.26646271185E+02  0.29783714335E+02  0.00000000000E+00 0.  1.
</event>
<event>
 5    1  0.1764311E-003  0.9118800E+02  0.7818608E-02  0.1130116E+00
         25   -1    0    0    0    0  0.00000000000E+00  0.00000000000E+00  0.99999998245E-14  0.12500000000E+03  0.12500000000E+03 0.  0.
        -13    1    3    3    0    0 -0.15846234653E+02  0.89582696255E+01  0.47567413055E+02  0.50931558940E+02  0.10566000000E+00 0. -1.
         23    2    1    0    0    0 -0.29546644397E+02  0.90395497547E+01  0.76022795717E+01  0.93180001420E+02  0.87578538211E+02 0.  0.
         13    1    3    3    0    0 -0.13700409745E+02  0.81280129158E-01 -0.39965133483E+02  0.42248442480E+02  0.10566000000E+00 0.  1.
         22    1    1    0    0    0  0.29546644397E+02 -0.90395497547E+01 -0.76022795717E+01  0.31819998580E+02  0.00000000000E+00 0.  1.
</event>
<event>
 5    1  0.1764311E-003  0.9118800E+02  0.7818608E-02  0.1130116E+00
         25   -1    0    0    0    0  0.00000000000E+00  0.00000000000E+00  0.99999998245E-14  0.12500000000E+03  0.12500000000E+03 0.  0.
        -13    1    3    3    0    0 -0.37980810101E+02 -0.44484793380E+02  0.29883232809E+01  0.58569446114E+02  0.10566000000E+00 0. -1.
         23    2    1    0    0    0 -0.28016737276E+02 -0.10561629800E+02  0.72826353988E+01  0.94185679142E+02  0.89002358314E+02 0.  0.
         13    1    3    3    0    0  0.99640728255E+01  0.33923163579E+02  0.42943121179E+01  0.35616233028E+02  0.10566000000E+00 0.  1.
         22    1    1    0    0    0  0.28016737276E+02  0.10561629800E+02 -0.72826353988E+01  0.30814320858E+02  0.00000000000E+00 0. -1.
</event>
<event>
 5    1  0.1764311E-003  0.9118800E+02  0.7818608E-02  0.1130116E+00
         25   -1    0    0    0    0  0.00000000000E+00  0.00000000000E+00  0.99999998245E-14  0.12500000000E+03  0.12500000000E+03 0.  0.
        -13    1    3    3    0    0  0.28537457501E+02 -0.31904918789E+02 -0.20664777101E+02  0.47532667716E+02  0.10566000000E+00 0. -1.
         23    2    1    0    0    0  0.28489586933E+02  0.90667931532E+01  0.31730741213E+01  0.94934543059E+02  0.90047963691E+02 0.  0.
         13    1    3    3    0    0 -0.47870568120E-01  0.40971711943E+02  0.23837851222E+02  0.47401875343E+02  0.10566000000E+00 0.  1.
         22    1    1    0    0    0 -0.28489586933E+02 -0.90667931532E+01 -0.31730741213E+01  0.30065456941E+02  0.00000000000E+00 0.  1.
</event>
<event>
 5    1  0.1764311E-003  0.9118800E+02  0.7818608E-02  0.1130116E+00
         25   -1    0    0    0    0  0.00000000000E+00  0.00000000000E+00  0.99999998245E-14  0.12500000000E+03  0.12500000000E+03 0.  0.
        -13    1    3    3    0    0 -0.25958731505E+02 -0.38031918302E+02  0.37530305385E+02  0.59403851200E+02  0.10566000000E+00 0. -1.
         23    2    1    0    0    0  0.82142805869E+00 -0.16695934729E+02  0.22921488301E+02  0.96630586780E+02  0.92372326456E+02 0.  0.
         13    1    3    3    0    0  0.26780159564E+02  0.21335983573E+02 -0.14608817084E+02  0.37226735580E+02  0.10566000000E+00 0.  1.
         22    1    1    0    0    0 -0.82142805869E+00  0.16695934729E+02 -0.22921488301E+02  0.28369413220E+02  0.00000000000E+00 0. -1.
</event>
<event>
 5    1  0.1764311E-003  0.9118800E+02  0.7818608E-02  0.1130116E+00
         25   -1    0    0    0    0  0.00000000000E+00  0.00000000000E+00  0.99999998245E-14  0.12500000000E+03  0.12500000000E+03 0.  0.
        -13    1    3    3    0    0 -0.48524391861E+02  0.38473801375E+02  0.48118304190E+01  0.62112920345E+02  0.10566000000E+00 0. -1.
         23    2    1    0    0    0 -0.26457823815E+02  0.15231712187E+02  0.36638388291E+00  0.94468774438E+02  0.89399069399E+02 0.  0.
         13    1    3    3    0    0  0.22066568046E+02 -0.23242089188E+02 -0.44454465361E+01  0.32355854093E+02  0.10566000000E+00 0.  1.
         22    1    1    0    0    0  0.26457823815E+02 -0.15231712187E+02 -0.36638388291E+00  0.30531225562E+02  0.00000000000E+00 0. -1.
</event>
<event>
 5    1  0.1764311E-003  0.9118800E+02  0.7818608E-02  0.1130116E+00
         25   -1    0    0    0    0  0.00000000000E+00  0.00000000000E+00  0.99999998245E-14  0.12500000000E+03  0.12500000000E+03 0.  0.
        -13    1    3    3    0    0  0.38170134860E+02  0.95927515303E+01  0.11241209041E+02  0.40931113128E+02  0.10566000000E+00 0.  1.
         23    2    1    0    0    0  0.90019370762E-01  0.40025914831E+01 -0.28479677815E+02  0.96240290500E+02  0.91842651448E+02 0.  0.
         13    1    3    3    0    0 -0.38080115489E+02 -0.55901600472E+01 -0.39720886856E+02  0.55309177373E+02  0.10566000000E+00 0. -1.
         22    1    1    0    0    0 -0.90019370762E-01 -0.40025914831E+01  0.28479677815E+02  0.28759709500E+02  0.00000000000E+00 0. -1.
</event>
<event>
 5    1  0.1764311E-003  0.9118800E+02  0.7818608E-02  0.1130116E+00
         25   -1    0    0    0    0  0.00000000000E+00  0.00000000000E+00  0.99999998245E-14  0.12500000000E+03  0.12500000000E+03 0.  0.
        -13    1    3    3    0    0  0.48349054388E+02 -0.10128101666E+02 -0.31732844286E+02  0.58712810136E+02  0.10566000000E+00 0. -1.
         23    2    1    0    0    0  0.24618887562E+02 -0.15320697840E+02 -0.37610143948E+01  0.95760324278E+02  0.91187066349E+02 0.  0.
         13    1    3    3    0    0 -0.23730166826E+02 -0.51925961742E+01  0.27971829891E+02  0.37047514142E+02  0.10566000000E+00 0.  1.
         22    1    1    0    0    0 -0.24618887562E+02  0.15320697840E+02  0.37610143948E+01  0.29239675722E+02  0.00000000000E+00 0. -1.
</event>
<event>
 5    1  0.1764311E-003  0.9118800E+02  0.7818608E-02  0.1130116E+00
         25   -1    0    0    0    0  0.00000000000E+00  0.00000000000E+00  0.99999998245E-14  0.12500000000E+03  0.12500000000E+03 0.  0.
        -13    1    3    3    0    0 -0.18722000566E+01 -0.13711742003E+02  0.60514438953E+02  0.62076770918E+02  0.10566000000E+00 0. -1.
         23    2    1    0    0    0  0.29105175198E+01 -0.28539700212E+01  0.28323179326E+02  0.96384990927E+02  0.92039381418E+02 0.  0.
         13    1    3    3    0    0  0.47827175764E+01  0.10857771982E+02 -0.32191259627E+02  0.34308220010E+02  0.10566000000E+00 0.  1.
         22    1    1    0    0    0 -0.29105175198E+01  0.28539700212E+01 -0.28323179326E+02  0.28615009073E+02  0.00000000000E+00 0. -1.
</event>
<event>
 5    1  0.1764311E-003  0.9118800E+02  0.7818608E-02  0.1130116E+00
         25   -1    0    0    0    0  0.00000000000E+00  0.00000000000E+00  0.99999998245E-14  0.12500000000E+03  0.12500000000E+03 0.  0.
        -13    1    3    3    0    0 -0.31224071938E+01 -0.25196648128E+02  0.56947331053E+02  0.62350863520E+02  0.10566000000E+00 0. -1.
         23    2    1    0    0    0 -0.28567688881E+01 -0.93340213813E+01  0.27796351037E+02  0.95539480409E+02  0.90883827507E+02 0.  0.
         13    1    3    3    0    0  0.26563830568E+00  0.15862626747E+02 -0.29150980017E+02  0.33188616889E+02  0.10566000000E+00 0.  1.
         22    1    1    0    0    0  0.28567688881E+01  0.93340213813E+01 -0.27796351037E+02  0.29460519591E+02  0.00000000000E+00 0. -1.
</event>
<event>
 5    1  0.1764311E-003  0.9118800E+02  0.7818608E-02  0.1130116E+00
         25   -1    0    0    0    0  0.00000000000E+00  0.00000000000E+00  0.99999998245E-14  0.12500000000E+03  0.12500000000E+03 0.  0.
        -13    1    3    3    0    0 -0.28062384457E+01 -0.45776418276E+01  0.35069390484E+02  0.35478205871E+02  0.10566000000E+00 0. -1.
         23    2    1    0    0    0  0.18631731138E+02 -0.18187898104E+02 -0.17341143771E+02  0.93716516979E+02  0.88340982815E+02 0.  0.
         13    1    3    3    0    0  0.21437969584E+02 -0.13610256276E+02 -0.52410534255E+02  0.58238311108E+02  0.10566000000E+00 0.  1.
         22    1    1    0    0    0 -0.18631731138E+02  0.18187898104E+02  0.17341143771E+02  0.31283483021E+02  0.00000000000E+00 0.  1.
</event>
<event>
 5    1  0.1764311E-003  0.9118800E+02  0.7818608E-02  0.1130116E+00
         25   -1    0    0    0    0  0.00000000000E+00  0.00000000000E+00  0.99999998245E-14  0.12500000000E+03  0.12500000000E+03 0.  0.
        -13    1    3    3    0    0  0.25628749761E+02 -0.31921971092E+02  0.19406757900E+02  0.45304287534E+02  0.10566000000E+00 0.  1.
         23    2    1    0    0    0 -0.21653262946E+02 -0.14825709291E+02  0.12070211960E+02  0.96114788058E+02  0.91671680548E+02 0.  0.
         13    1    3    3    0    0 -0.47282012707E+02  0.17096261801E+02 -0.73365459400E+01  0.50810500524E+02  0.10566000000E+00 0. -1.
         22    1    1    0    0    0  0.21653262946E+02  0.14825709291E+02 -0.12070211960E+02  0.28885211942E+02  0.00000000000E+00 0. -1.
</event>
<event>
 5    1  0.1764311E-003  0.9118800E+02  0.7818608E-02  0.1130116E+00
         25   -1    0    0    0    0  0.00000000000E+00  0.00000000000E+00  0.99999998245E-14  0.12500000000E+03  0.12500000000E+03 0.  0.
        -13    1    3    3    0    0  0.37167435070E+02  0.19727226919E+02  0.60132678696E+01  0.42505908602E+02  0.10566000000E+00 0. -1.
         23    2    1    0    0    0  0.11179608130E+02 -0.20212681528E+02 -0.17859818302E+02  0.95802239088E+02  0.91244505434E+02 0.  0.
         13    1    3    3    0    0 -0.25987826940E+02 -0.39939908447E+02 -0.23873086172E+02  0.53296330486E+02  0.10566000000E+00 0.  1.
         22    1    1    0    0    0 -0.11179608130E+02  0.20212681528E+02  0.17859818302E+02  0.29197760912E+02  0.00000000000E+00 0.  1.
</event>
<event>
 5    1  0.1764311E-003  0.9118800E+02  0.7818608E-02  0.1130116E+00
         25   -1    0    0    0    0  0.00000000000E+00  0.00000000000E+00  0.99999998245E-14  0.12500000000E+03  0.12500000000E+03 0.  0.
        -13    1    3    3    0    0 -0.12363864034E+01  0.13303026772E+02 -0.41853640934E+02  0.43934469339E+02  0.10566000000E+00 0. -1.
         23    2    1    0    0    0 -0.38574514891E-01  0.29003336748E+02  0.69162923513E+01  0.95183391702E+02  0.90392742659E+02 0.  0.
         13    1    3    3    0    0  0.11978118885E+01  0.15700309977E+02  0.48769933285E+02  0.51248922363E+02  0.10566000000E+00 0.  1.
         22    1    1    0    0    0  0.38574514891E-01 -0.29003336748E+02 -0.69162923513E+01  0.29816608298E+02  0.00000000000E+00 0. -1.
</event>
<event>
 5    1  0.1764311E-003  0.9118800E+02  0.7818608E-02  0.1130116E+00
         25   -1    0    0    0    0  0.00000000000E+00  0.00000000000E+00  0.99999998245E-14  0.12500000000E+03  0.12500000000E+03 0.  0.
        -13    1    3    3    0    0  0.20273738906E+02  0.85954280292E+01 -0.52103349356E+02  0.56565679085E+02  0.10566000000E+00 0. -1.
         23    2    1    0    0    0  0.35573377683E+01 -0.14507937653E+02 -0.24817261845E+02  0.96033961395E+02  0.91561402069E+02 0.  0.
         13    1    3    3    0    0 -0.16716401138E+02 -0.23103365682E+02  0.27286087510E+02  0.39468282310E+02  0.10566000000E+00 0.  1.
         22    1    1    0    0    0 -0.35573377683E+01  0.14507937653E+02  0.24817261845E+02  0.28966038605E+02  0.00000000000E+00 0. -1.
</event>
<event>
 5    1  0.1764311E-003  0.9118800E+02  0.7818608E-02  0.1130116E+00
         25   -1    0    0    0    0  0.00000000000E+00  0.00000000000E+00  0.99999998245E-14  0.12500000000E+03  0.12500000000E+03 0.  0.
        -13    1    3    3    0    0 -0.38966625053E+02 -0.37212665816E+02 -0.77751503156E+01  0.54439365276E+02  0.10566000000E+00 0. -1.
         23    2    1    0    0    0 -0.23292624186E+02 -0.18248574398E+02 -0.26437644396E+02  0.85319956524E+02  0.75531378453E+02 0.  0.
         13    1    3    3    0    0  0.15674000867E+02  0.18964091418E+02 -0.18662494081E+02  0.30880591249E+02  0.10566000000E+00 0.  1.
         22    1    1    0    0    0  0.23292624186E+02  0.18248574398E+02  0.26437644396E+02  0.39680043476E+02  0.00000000000E+00 0. -1.
</event>
<event>
 5    1  0.1764311E-003  0.9118800E+02  0.7818608E-02  0.1130116E+00
         25   -1    0    0    0    0  0.00000000000E+00  0.00000000000E+00  0.99999998245E-14  0.12500000000E+03  0.12500000000E+03 0.  0.
        -13    1    3    3    0    0  0.11659288160E+02  0.25829110795E+02  0.20392575356E+02  0.34913468154E+02  0.10566000000E+00 0.  1.
         23    2    1    0    0    0 -0.29507938635E+01 -0.82782153285E+01 -0.27862194619E+02  0.95784628661E+02  0.91220376920E+02 0.  0.
         13    1    3    3    0    0 -0.14610082024E+02 -0.34107326124E+02 -0.48254769975E+02  0.60871160507E+02  0.10566000000E+00 0. -1.
         22    1    1    0    0    0  0.29507938635E+01  0.82782153285E+01  0.27862194619E+02  0.29215371339E+02  0.00000000000E+00 0. -1.
</event>
<event>
 5    1  0.1764311E-003  0.9118800E+02  0.7818608E-02  0.1130116E+00
         25   -1    0    0    0    0  0.00000000000E+00  0.00000000000E+00  0.99999998245E-14  0.12500000000E+03  0.12500000000E+03 0.  0.
        -13    1    3    3    0    0 -0.49502755675E+01 -0.23474048537E+02  0.31967261478E+02  0.39968151738E+02  0.10566000000E+00 0. -1.
         23    2    1    0    0    0  0.10364933377E+02 -0.13046415604E+02 -0.22214764162E+02  0.97230654477E+02  0.93180811433E+02 0.  0.
         13    1    3    3    0    0  0.15315208944E+02  0.10427632933E+02 -0.54182025639E+02  0.57262502740E+02  0.10566000000E+00 0.  1.
         22    1    1    0    0    0 -0.10364933377E+02  0.13046415604E+02  0.22214764162E+02  0.27769345523E+02  0.00000000000E+00 0.  1.
</event>
<event>
 5    1  0.1764311E-003  0.9118800E+02  0.7818608E-02  0.1130116E+00
         25   -1    0    0    0    0  0.00000000000E+00  0.00000000000E+00  0.99999998245E-14  0.12500000000E+03  0.12500000000E+03 0.  0.
        -13    1    3    3    0    0  0.13476093285E+02 -0.52537660254E+02  0.29779138270E+02  0.61875835956E+02  0.10566000000E+00 0.  1.
         23    2    1    0    0    0  0.11771801711E+02 -0.21037811094E+02  0.13318675298E+02  0.97458178658E+02  0.93485531845E+02 0.  0.
         13    1    3    3    0    0 -0.17042915742E+01  0.31499849159E+02 -0.16460462972E+02  0.35582342701E+02  0.10566000000E+00 0. -1.
         22    1    1    0    0    0 -0.11771801711E+02  0.21037811094E+02 -0.13318675298E+02  0.27541821342E+02  0.00000000000E+00 0.  1.
</event>
<event>
 5    1  0.1764311E-003  0.9118800E+02  0.7818608E-02  0.1130116E+00
         25   -1    0    0    0    0  0.00000000000E+00  0.00000000000E+00  0.99999998245E-14  0.12500000000E+03  0.12500000000E+03 0.  0.
        -13    1    3    3    0    0  0.47127744112E+02 -0.15796720091E+02  0.24063141939E+02  0.55223243248E+02  0.10566000000E+00 0.  1.
         23    2    1    0    0    0  0.19821424867E+02 -0.17356360346E+02 -0.80934850565E+01  0.97438493717E+02  0.93459207301E+02 0.  0.
         13    1    3    3    0    0 -0.27306319245E+02 -0.15596402547E+01 -0.32156626996E+02  0.42215250470E+02  0.10566000000E+00 0. -1.
         22    1    1    0    0    0 -0.19821424867E+02  0.17356360346E+02  0.80934850565E+01  0.27561506283E+02  0.00000000000E+00 0.  1.
</event>
<event>
 5    1  0.1764311E-003  0.9118800E+02  0.7818608E-02  0.1130116E+00
         25   -1    0    0    0    0  0.00000000000E+00  0.00000000000E+00  0.99999998245E-14  0.12500000000E+03  0.12500000000E+03 0.  0.
        -13    1    3    3    0    0 -0.16752487425E+02 -0.54044031342E+02  0.10813306052E+02  0.57605051084E+02  0.10566000000E+00 0.  1.
         23    2    1    0    0    0 -0.68619259240E+01 -0.25143446757E+02 -0.12560576171E+02  0.96068235174E+02  0.91608180822E+02 0.  0.
         13    1    3    3    0    0  0.98905615007E+01  0.28900584585E+02 -0.23373882223E+02  0.38463184090E+02  0.10566000000E+00 0. -1.
         22    1    1    0    0    0  0.68619259240E+01  0.25143446757E+02  0.12560576171E+02  0.28931764826E+02  0.00000000000E+00 0.  1.
</event>
<event>
 5    1  0.1764311E-003  0.9118800E+02  0.7818608E-02  0.1130116E+00
         25   -1    0    0    0    0  0.00000000000E+00  0.00000000000E+00  0.99999998245E-14  0.12500000000E+03  0.12500000000E+03 0.  0.
        -13    1    3    3    0    0  0.27651340965E+02  0.36274130584E+02 -0.32563329232E+02  0.56042758511E+02  0.10566000000E+00 0.  1.
         23    2    1    0    0    0 -0.48654884992E+01  0.10235916752E+02 -0.23839130294E+02  0.98603956675E+02  0.95005206008E+02 0.  0.
         13    1    3    3    0    0 -0.32516829464E+02 -0.26038213832E+02  0.87241989386E+01  0.42561198164E+02  0.10566000000E+00 0. -1.
         22    1    1    0    0    0  0.48654884992E+01 -0.10235916752E+02  0.23839130294E+02  0.26396043325E+02  0.00000000000E+00 0. -1.
</event>
<event>
 5    1  0.1764311E-003  0.9118800E+02  0.7818608E-02  0.1130116E+00
         25   -1    0    0    0    0  0.00000000000E+00  0.00000000000E+00  0.99999998245E-14  0.12500000000E+03  0.12500000000E+03 0.  0.
        -13    1    3    3    0    0 -0.30448473015E+02 -0.50912588090E+02  0.13051190258E+02  0.60741632067E+02  0.10566000000E+00 0.  1.
         23    2    1    0    0    0 -0.12284246880E+02 -0.26170467256E+02 -0.39365969654E+01  0.95823076353E+02  0.91273046889E+02 0.  0.
         13    1    3    3    0    0  0.18164226134E+02  0.24742120834E+02 -0.16987787223E+02  0.35081444286E+02  0.10566000000E+00 0. -1.
         22    1    1    0    0    0  0.12284246880E+02  0.26170467256E+02  0.39365969654E+01  0.29176923647E+02  0.00000000000E+00 0.  1.
</event>
<event>
 5    1  0.1764311E-003  0.9118800E+02  0.7818608E-02  0.1130116E+00
         25   -1    0    0    0    0  0.00000000000E+00  0.00000000000E+00  0.99999998245E-14  0.12500000000E+03  0.12500000000E+03 0.  0.
        -13    1    3    3    0    0  0.53525584784E+00  0.23765972975E+02 -0.53231253270E+02  0.58298245763E+02  0.10566000000E+00 0.  1.
         23    2    1    0    0    0 -0.14077777824E+02  0.16439691640E+02 -0.19135229779E+02  0.96110480994E+02  0.91665807413E+02 0.  0.
         13    1    3    3    0    0 -0.14613033672E+02 -0.73262813350E+01  0.34096023491E+02  0.37812235232E+02  0.10566000000E+00 0. -1.
         22    1    1    0    0    0  0.14077777824E+02 -0.16439691640E+02  0.19135229779E+02  0.28889519006E+02  0.00000000000E+00 0.  1.
</event>
<event>
 5    1  0.1764311E-003  0.9118800E+02  0.7818608E-02  0.1130116E+00
         25   -1    0    0    0    0  0.00000000000E+00  0.00000000000E+00  0.99999998245E-14  0.12500000000E+03  0.12500000000E+03 0.  0.
        -13    1    3    3    0    0  0.37553650622E+02  0.40805644859E+02  0.57715831521E+01  0.55755714179E+02  0.10566000000E+00 0. -1.
         23    2    1    0    0    0  0.17546934009E+01  0.30888229269E+02  0.82350123376E+01  0.92984736695E+02  0.87299393891E+02 0.  0.
         13    1    3    3    0    0 -0.35798957221E+02 -0.99174155907E+01  0.24634291854E+01  0.37229022516E+02  0.10566000000E+00 0.  1.
         22    1    1    0    0    0 -0.17546934009E+01 -0.30888229269E+02 -0.82350123376E+01  0.32015263305E+02  0.00000000000E+00 0. -1.
</event>
<event>
 5    1  0.1764311E-003  0.9118800E+02  0.7818608E-02  0.1130116E+00
         25   -1    0    0    0    0  0.00000000000E+00  0.00000000000E+00  0.99999998245E-14  0.12500000000E+03  0.12500000000E+03 0.  0.
        -13    1    3    3    0    0  0.22028135101E+02  0.26886337928E+02 -0.36020204234E+02  0.50055770699E+02  0.10566000000E+00 0. -1.
         23    2    1    0    0    0 -0.14939521540E+01 -0.11568719411E+02 -0.26383290715E+02  0.96153073114E+02  0.91723869731E+02 0.  0.
         13    1    3    3    0    0 -0.23522087255E+02 -0.38455057338E+02  0.96369135189E+01  0.46097302415E+02  0.10566000000E+00 0.  1.
         22    1    1    0    0    0  0.14939521540E+01  0.11568719411E+02  0.26383290715E+02  0.28846926886E+02  0.00000000000E+00 0. -1.
</event>
<event>
 5    1  0.1764311E-003  0.9118800E+02  0.7818608E-02  0.1130116E+00
         25   -1    0    0    0    0  0.00000000000E+00  0.00000000000E+00  0.99999998245E-14  0.12500000000E+03  0.12500000000E+03 0.  0.
        -13    1    3    3    0    0  0.17229168828E+02  0.31699919930E+02 -0.22838237164E+02  0.42700414786E+02  0.10566000000E+00 0.  1.
         23    2    1    0    0    0  0.25388273673E+02 -0.10253321775E+02  0.92002828608E+01  0.96115051459E+02  0.91672039710E+02 0.  0.
         13    1    3    3    0    0  0.81591048456E+01 -0.41953241705E+02  0.32038520025E+02  0.53414636673E+02  0.10566000000E+00 0. -1.
         22    1    1    0    0    0 -0.25388273673E+02  0.10253321775E+02 -0.92002828608E+01  0.28884948541E+02  0.00000000000E+00 0. -1.
</event>
<event>
 5    1  0.1764311E-003  0.9118800E+02  0.7818608E-02  0.1130116E+00
         25   -1    0    0    0    0  0.00000000000E+00  0.00000000000E+00  0.99999998245E-14  0.12500000000E+03  0.12500000000E+03 0.  0.
        -13    1    3    3    0    0  0.51192775527E+02  0.92630039905E+01 -0.11251608799E+02  0.53226998541E+02  0.10566000000E+00 0.  1.
         23    2    1    0    0    0  0.18945840326E+02  0.14438333863E+02  0.16449067056E+02  0.96052078530E+02  0.91586132316E+02 0.  0.
         13    1    3    3    0    0 -0.32246935201E+02  0.51753298724E+01  0.27700675856E+02  0.42825079989E+02  0.10566000000E+00 0. -1.
         22    1    1    0    0    0 -0.18945840326E+02 -0.14438333863E+02 -0.16449067056E+02  0.28947921470E+02  0.00000000000E+00 0.  1.
</event>
<event>
 5    1  0.1764311E-003  0.9118800E+02  0.7818608E-02  0.1130116E+00
         25   -1    0    0    0    0  0.00000000000E+00  0.00000000000E+00  0.99999998245E-14  0.12500000000E+03  0.12500000000E+03 0.  0.
        -13    1    3    3    0    0 -0.12490927636E+02  0.35919671258E+02  0.72278348461E+01  0.38710448423E+02  0.10566000000E+00 0.  1.
         23    2    1    0    0    0  0.25756988361E+02 -0.13799900360E+01 -0.13343985197E+02  0.95958843637E+02  0.91458793505E+02 0.  0.
         13    1    3    3    0    0  0.38247915997E+02 -0.37299661294E+02 -0.20571820043E+02  0.57248395215E+02  0.10566000000E+00 0. -1.
         22    1    1    0    0    0 -0.25756988361E+02  0.13799900360E+01  0.13343985197E+02  0.29041156363E+02  0.00000000000E+00 0. -1.
</event>
<event>
 5    1  0.1764311E-003  0.9118800E+02  0.7818608E-02  0.1130116E+00
         25   -1    0    0    0    0  0.00000000000E+00  0.00000000000E+00  0.99999998245E-14  0.12500000000E+03  0.12500000000E+03 0.  0.
        -13    1    3    3    0    0  0.81824771296E+00 -0.29078112458E+02 -0.17482819409E+02  0.33939155735E+02  0.10566000000E+00 0. -1.
         23    2    1    0    0    0 -0.53661929875E+01  0.26596459357E+02  0.96773789590E+01  0.96193414971E+02  0.91778830581E+02 0.  0.
         13    1    3    3    0    0 -0.61844407004E+01  0.55674571816E+02  0.27160198368E+02  0.62254259236E+02  0.10566000000E+00 0.  1.
         22    1    1    0    0    0  0.53661929875E+01 -0.26596459357E+02 -0.96773789590E+01  0.28806585029E+02  0.00000000000E+00 0.  1.
</event>
<event>
 5    1  0.1764311E-003  0.9118800E+02  0.7818608E-02  0.1130116E+00
         25   -1    0    0    0    0  0.00000000000E+00  0.00000000000E+00  0.99999998245E-14  0.12500000000E+03  0.12500000000E+03 0.  0.
        -13    1    3    3    0    0 -0.94437956777E+01  0.45398600921E+02  0.20986434883E+02  0.50898525082E+02  0.10566000000E+00 0. -1.
         23    2    1    0    0    0  0.15370477322E+02  0.70321826865E+01  0.22790029774E+02  0.96625916340E+02  0.92366006111E+02 0.  0.
         13    1    3    3    0    0  0.24814273000E+02 -0.38366418235E+02  0.18035948917E+01  0.45727391258E+02  0.10566000000E+00 0.  1.
         22    1    1    0    0    0 -0.15370477322E+02 -0.70321826865E+01 -0.22790029774E+02  0.28374083660E+02  0.00000000000E+00 0. -1.
</event>
<event>
 5    1  0.1764311E-003  0.9118800E+02  0.7818608E-02  0.1130116E+00
         25   -1    0    0    0    0  0.00000000000E+00  0.00000000000E+00  0.99999998245E-14  0.12500000000E+03  0.12500000000E+03 0.  0.
        -13    1    3    3    0    0  0.56235886179E+02 -0.58689569184E+01 -0.20966694722E+01  0.56580268084E+02  0.10566000000E+00 0. -1.
         23    2    1    0    0    0  0.27462203570E+02  0.15530052475E+02 -0.67411426995E+01  0.92738596440E+02  0.86946242644E+02 0.  0.
         13    1    3    3    0    0 -0.28773682609E+02  0.21399009393E+02 -0.46444732273E+01  0.36158328355E+02  0.10566000000E+00 0.  1.
         22    1    1    0    0    0 -0.27462203570E+02 -0.15530052475E+02  0.67411426995E+01  0.32261403560E+02  0.00000000000E+00 0. -1.
</event>
<event>
 5    1  0.1764311E-003  0.9118800E+02  0.7818608E-02  0.1130116E+00
         25   -1    0    0    0    0  0.00000000000E+00  0.00000000000E+00  0.99999998245E-14  0.12500000000E+03  0.12500000000E+03 0.  0.
        -13    1    3    3    0    0 -0.43811701062E+02  0.28716931733E+02  0.10007257296E+02  0.53331826152E+02  0.10566000000E+00 0. -1.
         23    2    1    0    0    0 -0.32590669673E+02 -0.32192110655E+01 -0.74434025046E+01  0.91415490022E+02  0.85022776393E+02 0.  0.
         13    1    3    3    0    0  0.11221031389E+02 -0.31936142799E+02 -0.17450659800E+02  0.38083663870E+02  0.10566000000E+00 0.  1.
         22    1    1    0    0    0  0.32590669673E+02  0.32192110655E+01  0.74434025046E+01  0.33584509978E+02  0.00000000000E+00 0. -1.
</event>
<event>
 5    1  0.1764311E-003  0.9118800E+02  0.7818608E-02  0.1130116E+00
         25   -1    0    0    0    0  0.00000000000E+00  0.00000000000E+00  0.99999998245E-14  0.12500000000E+03  0.12500000000E+03 0.  0.
        -13    1    3    3    0    0  0.53399239570E+02  0.85133844241E+01 -0.14534730747E+02  0.55993089422E+02  0.10566000000E+00 0. -1.
         23    2    1    0    0    0  0.24033619519E+02  0.21619681816E+02  0.28473071670E+01  0.92547994405E+02  0.86671786651E+02 0.  0.
         13    1    3    3    0    0 -0.29365620051E+02  0.13106297392E+02  0.17382037914E+02  0.36554904984E+02  0.10566000000E+00 0.  1.
         22    1    1    0    0    0 -0.24033619519E+02 -0.21619681816E+02 -0.28473071670E+01  0.32452005595E+02  0.00000000000E+00 0. -1.
</event>
<event>
 5    1  0.1764311E-003  0.9118800E+02  0.7818608E-02  0.1130116E+00
         25   -1    0    0    0    0  0.00000000000E+00  0.00000000000E+00  0.99999998245E-14  0.12500000000E+03  0.12500000000E+03 0.  0.
        -13    1    3    3    0    0  0.18383069134E+02 -0.35782851781E+02 -0.35224559462E+02  0.53470837526E+02  0.10566000000E+00 0.  1.
         23    2    1    0    0    0 -0.14001475107E+02 -0.23820550537E+02 -0.13646248354E+02  0.94183121067E+02  0.88998765535E+02 0.  0.
         13    1    3    3    0    0 -0.32384544241E+02  0.11962301244E+02  0.21578311109E+02  0.40712283541E+02  0.10566000000E+00 0. -1.
         22    1    1    0    0    0  0.14001475107E+02  0.23820550537E+02  0.13646248354E+02  0.30816878933E+02  0.00000000000E+00 0.  1.
</event>
<event>
 5    1  0.1764311E-003  0.9118800E+02  0.7818608E-02  0.1130116E+00
         25   -1    0    0    0    0  0.00000000000E+00  0.00000000000E+00  0.99999998245E-14  0.12500000000E+03  0.12500000000E+03 0.  0.
        -13    1    3    3    0    0  0.23839713158E+02  0.28400078546E+02  0.46949973790E+02  0.59826478986E+02  0.10566000000E+00 0. -1.
         23    2    1    0    0    0  0.11285946493E+02  0.22749724223E+02  0.12980849123E+02  0.96479393688E+02  0.92167501984E+02 0.  0.
         13    1    3    3    0    0 -0.12553766664E+02 -0.56503543234E+01 -0.33969124667E+02  0.36652914702E+02  0.10566000000E+00 0.  1.
         22    1    1    0    0    0 -0.11285946493E+02 -0.22749724223E+02 -0.12980849123E+02  0.28520606312E+02  0.00000000000E+00 0. -1.
</event>
<event>
 4    1  0.1764311E-003  0.9118800E+02  0.7818608E-02  0.1130116E+00
         25   -1    0    0    0    0  0.00000000000E+00  0.00000000000E+00  0.99999998245E-14  0.12500000000E+03  0.12500000000E+03 0.  0.
        -13    1    1    0    0    0 -0.88575576679E+01 -0.14371526147E+02 -0.77342283077E+01  0.18569505733E+02  0.10566000000E+00 0. -1.
         13    1    1    0    0    0 -0.24456059202E+02  0.10993832183E+02  0.47438293362E+02  0.54491889478E+02  0.10566000000E+00 0.  1.
         22    1    1    0    0    0  0.33313616870E+02  0.33776939636E+01 -0.39704065055E+02  0.51938604788E+02  0.00000000000E+00 0.  1.
</event>
<event>
 5    1  0.1764311E-003  0.9118800E+02  0.7818608E-02  0.1130116E+00
         25   -1    0    0    0    0  0.00000000000E+00  0.00000000000E+00  0.99999998245E-14  0.12500000000E+03  0.12500000000E+03 0.  0.
        -13    1    3    3    0    0  0.43881478209E+02 -0.32848266469E+02  0.10796247322E+02  0.55867368473E+02  0.10566000000E+00 0. -1.
         23    2    1    0    0    0  0.68253700219E+01 -0.24985028064E+02  0.16665971405E+02  0.94200780754E+02  0.89023565354E+02 0.  0.
         13    1    3    3    0    0 -0.37056108187E+02  0.78632384047E+01  0.58697240827E+01  0.38333412280E+02  0.10566000000E+00 0.  1.
         22    1    1    0    0    0 -0.68253700219E+01  0.24985028064E+02 -0.16665971405E+02  0.30799219246E+02  0.00000000000E+00 0. -1.
</event>
<event>
 5    1  0.1764311E-003  0.9118800E+02  0.7818608E-02  0.1130116E+00
         25   -1    0    0    0    0  0.00000000000E+00  0.00000000000E+00  0.99999998245E-14  0.12500000000E+03  0.12500000000E+03 0.  0.
        -13    1    3    3    0    0  0.23521452610E+02  0.82350136330E+01  0.56029106746E+02  0.61321661338E+02  0.10566000000E+00 0.  1.
         23    2    1    0    0    0  0.75300670370E+01  0.11627535148E+02  0.23719490888E+02  0.97531550259E+02  0.93583585980E+02 0.  0.
         13    1    3    3    0    0 -0.15991385573E+02  0.33925215145E+01 -0.32309615858E+02  0.36209888922E+02  0.10566000000E+00 0. -1.
         22    1    1    0    0    0 -0.75300670370E+01 -0.11627535148E+02 -0.23719490888E+02  0.27468449741E+02  0.00000000000E+00 0.  1.
</event>
<event>
 5    1  0.1764311E-003  0.9118800E+02  0.7818608E-02  0.1130116E+00
         25   -1    0    0    0    0  0.00000000000E+00  0.00000000000E+00  0.99999998245E-14  0.12500000000E+03  0.12500000000E+03 0.  0.
        -13    1    3    3    0    0  0.48417515677E+01  0.18235954824E+02  0.48684666662E+02  0.52213030353E+02  0.10566000000E+00 0.  1.
         23    2    1    0    0    0 -0.17840952571E+02 -0.75998147258E+01  0.21533555828E+02  0.96021545950E+02  0.91544450884E+02 0.  0.
         13    1    3    3    0    0 -0.22682704139E+02 -0.25835769549E+02 -0.27151110835E+02  0.43808515598E+02  0.10566000000E+00 0. -1.
         22    1    1    0    0    0  0.17840952571E+02  0.75998147258E+01 -0.21533555828E+02  0.28978454050E+02  0.00000000000E+00 0. -1.
</event>
<event>
 5    1  0.1764311E-003  0.9118800E+02  0.7818608E-02  0.1130116E+00
         25   -1    0    0    0    0  0.00000000000E+00  0.00000000000E+00  0.99999998245E-14  0.12500000000E+03  0.12500000000E+03 0.  0.
        -13    1    3    3    0    0 -0.18037415292E+02  0.26541517108E+02 -0.29779803996E+02  0.43779542835E+02  0.10566000000E+00 0.  1.
         23    2    1    0    0    0  0.71697563038E+01 -0.19206635229E+02 -0.18862667152E+02  0.97141420453E+02  0.93061028972E+02 0.  0.
         13    1    3    3    0    0  0.25207171595E+02 -0.45748152337E+02  0.10917136843E+02  0.53361877618E+02  0.10566000000E+00 0. -1.
         22    1    1    0    0    0 -0.71697563038E+01  0.19206635229E+02  0.18862667152E+02  0.27858579547E+02  0.00000000000E+00 0. -1.
</event>
<event>
 5    1  0.1764311E-003  0.9118800E+02  0.7818608E-02  0.1130116E+00
         25   -1    0    0    0    0  0.00000000000E+00  0.00000000000E+00  0.99999998245E-14  0.12500000000E+03  0.12500000000E+03 0.  0.
        -13    1    3    3    0    0  0.35943922398E+02  0.87851919661E+01 -0.47264213120E+02  0.60025512586E+02  0.10566000000E+00 0. -1.
         23    2    1    0    0    0  0.24610953848E+02  0.61971445634E+01 -0.12445784130E+02  0.96733390853E+02  0.92511338296E+02 0.  0.
         13    1    3    3    0    0 -0.11332968551E+02 -0.25880474027E+01  0.34818428990E+02  0.36707878267E+02  0.10566000000E+00 0.  1.
         22    1    1    0    0    0 -0.24610953848E+02 -0.61971445634E+01  0.12445784130E+02  0.28266609147E+02  0.00000000000E+00 0. -1.
</event>
<event>
 5    1  0.1764311E-003  0.9118800E+02  0.7818608E-02  0.1130116E+00
         25   -1    0    0    0    0  0.00000000000E+00  0.00000000000E+00  0.99999998245E-14  0.12500000000E+03  0.12500000000E+03 0.  0.
        -13    1    3    3    0    0 -0.43820124962E+02  0.20895039845E+02 -0.33262894750E+02  0.58849276741E+02  0.10566000000E+00 0.  1.
         23    2    1    0    0    0 -0.17098541523E+02 -0.58573616009E+01 -0.17585845022E+02  0.99782332537E+02  0.96543167206E+02 0.  0.
         13    1    3    3    0    0  0.26721583438E+02 -0.26752401446E+02  0.15677049728E+02  0.40933055796E+02  0.10566000000E+00 0. -1.
         22    1    1    0    0    0  0.17098541523E+02  0.58573616009E+01  0.17585845022E+02  0.25217667463E+02  0.00000000000E+00 0.  1.
</event>
<event>
 5    1  0.1764311E-003  0.9118800E+02  0.7818608E-02  0.1130116E+00
         25   -1    0    0    0    0  0.00000000000E+00  0.00000000000E+00  0.99999998245E-14  0.12500000000E+03  0.12500000000E+03 0.  0.
        -13    1    3    3    0    0 -0.97130350693E+01 -0.66397488794E+01  0.34901763694E+02  0.36831692717E+02  0.10566000000E+00 0.  1.
         23    2    1    0    0    0  0.15488819512E+02  0.28939938082E+02  0.83194658235E+00  0.92165328064E+02  0.86118128265E+02 0.  0.
         13    1    3    3    0    0  0.25201854581E+02  0.35579686961E+02 -0.34069817111E+02  0.55333635346E+02  0.10566000000E+00 0. -1.
         22    1    1    0    0    0 -0.15488819512E+02 -0.28939938082E+02 -0.83194658235E+00  0.32834671936E+02  0.00000000000E+00 0. -1.
</event>
<event>
 5    1  0.1764311E-003  0.9118800E+02  0.7818608E-02  0.1130116E+00
         25   -1    0    0    0    0  0.00000000000E+00  0.00000000000E+00  0.99999998245E-14  0.12500000000E+03  0.12500000000E+03 0.  0.
        -13    1    3    3    0    0 -0.51593605143E+02 -0.32783583122E+02 -0.12897226186E+02  0.62474098803E+02  0.10566000000E+00 0.  1.
         23    2    1    0    0    0 -0.24085996040E+02 -0.15187030138E+02 -0.47160809999E+01  0.96137870667E+02  0.91703149710E+02 0.  0.
         13    1    3    3    0    0  0.27507609103E+02  0.17596552984E+02  0.81811451864E+01  0.33663771863E+02  0.10566000000E+00 0. -1.
         22    1    1    0    0    0  0.24085996040E+02  0.15187030138E+02  0.47160809999E+01  0.28862129333E+02  0.00000000000E+00 0.  1.
</event>
<event>
 5    1  0.1764311E-003  0.9118800E+02  0.7818608E-02  0.1130116E+00
         25   -1    0    0    0    0  0.00000000000E+00  0.00000000000E+00  0.99999998245E-14  0.12500000000E+03  0.12500000000E+03 0.  0.
        -13    1    3    3    0    0 -0.35869002080E+02  0.70525631867E+00  0.17474932904E+02  0.39905728169E+02  0.10566000000E+00 0.  1.
         23    2    1    0    0    0 -0.24837028169E+01 -0.82445665631E+01 -0.27245317902E+02  0.96426428206E+02  0.92095640785E+02 0.  0.
         13    1    3    3    0    0  0.33385299263E+02 -0.89498228818E+01 -0.44720250805E+02  0.56520700037E+02  0.10566000000E+00 0. -1.
         22    1    1    0    0    0  0.24837028169E+01  0.82445665631E+01  0.27245317902E+02  0.28573571794E+02  0.00000000000E+00 0. -1.
</event>
<event>
 5    1  0.1764311E-003  0.9118800E+02  0.7818608E-02  0.1130116E+00
         25   -1    0    0    0    0  0.00000000000E+00  0.00000000000E+00  0.99999998245E-14  0.12500000000E+03  0.12500000000E+03 0.  0.
        -13    1    3    3    0    0 -0.26419375182E+02 -0.74183661210E+01 -0.51809343419E+02  0.58627935069E+02  0.10566000000E+00 0.  1.
         23    2    1    0    0    0 -0.24123363340E+02 -0.72013664297E+01 -0.14622867342E+02  0.95886007031E+02  0.91359190877E+02 0.  0.
         13    1    3    3    0    0  0.22960118420E+01  0.21699969125E+00  0.37186476077E+02  0.37258071962E+02  0.10566000000E+00 0. -1.
         22    1    1    0    0    0  0.24123363340E+02  0.72013664297E+01  0.14622867342E+02  0.29113992969E+02  0.00000000000E+00 0.  1.
</event>
<event>
 5    1  0.1764311E-003  0.9118800E+02  0.7818608E-02  0.1130116E+00
         25   -1    0    0    0    0  0.00000000000E+00  0.00000000000E+00  0.99999998245E-14  0.12500000000E+03  0.12500000000E+03 0.  0.
        -13    1    3    3    0    0  0.25008132642E+02 -0.13478449237E+02  0.22174016157E+02  0.36038499533E+02  0.10566000000E+00 0.  1.
         23    2    1    0    0    0 -0.22160092795E+02 -0.13835923505E+02 -0.13887257001E+02  0.95413543656E+02  0.90710450964E+02 0.  0.
         13    1    3    3    0    0 -0.47168225437E+02 -0.35747426874E+00 -0.36061273159E+02  0.59375044123E+02  0.10566000000E+00 0. -1.
         22    1    1    0    0    0  0.22160092795E+02  0.13835923505E+02  0.13887257001E+02  0.29586456344E+02  0.00000000000E+00 0. -1.
</event>
<event>
 5    1  0.1764311E-003  0.9118800E+02  0.7818608E-02  0.1130116E+00
         25   -1    0    0    0    0  0.00000000000E+00  0.00000000000E+00  0.99999998245E-14  0.12500000000E+03  0.12500000000E+03 0.  0.
        -13    1    3    3    0    0  0.25505890776E+02 -0.17217275999E+02 -0.21346697390E+02  0.37452339187E+02  0.10566000000E+00 0. -1.
         23    2    1    0    0    0  0.26881867638E+00  0.30711984187E+02 -0.67153328559E+01  0.93561267017E+02  0.88121034687E+02 0.  0.
         13    1    3    3    0    0 -0.25237072099E+02  0.47929260186E+02  0.14631364534E+02  0.56108927830E+02  0.10566000000E+00 0.  1.
         22    1    1    0    0    0 -0.26881867638E+00 -0.30711984187E+02  0.67153328559E+01  0.31438732983E+02  0.00000000000E+00 0.  1.
</event>
<event>
 5    1  0.1764311E-003  0.9118800E+02  0.7818608E-02  0.1130116E+00
         25   -1    0    0    0    0  0.00000000000E+00  0.00000000000E+00  0.99999998245E-14  0.12500000000E+03  0.12500000000E+03 0.  0.
        -13    1    3    3    0    0  0.10617748209E+02  0.17659968410E+02 -0.29597414321E+02  0.36064236576E+02  0.10566000000E+00 0. -1.
         23    2    1    0    0    0 -0.30794496759E+01  0.76896441963E+01  0.27842945963E+02  0.95951019328E+02  0.91448099117E+02 0.  0.
         13    1    3    3    0    0 -0.13697197885E+02 -0.99703242134E+01  0.57440360284E+02  0.59886782752E+02  0.10566000000E+00 0.  1.
         22    1    1    0    0    0  0.30794496759E+01 -0.76896441963E+01 -0.27842945963E+02  0.29048980672E+02  0.00000000000E+00 0.  1.
</event>
<event>
 5    1  0.1764311E-003  0.9118800E+02  0.7818608E-02  0.1130116E+00
         25   -1    0    0    0    0  0.00000000000E+00  0.00000000000E+00  0.99999998245E-14  0.12500000000E+03  0.12500000000E+03 0.  0.
        -13    1    3    3    0    0 -0.42527399451E+02 -0.31658212341E+02  0.28580265583E+02  0.60230099266E+02  0.10566000000E+00 0.  1.
         23    2    1    0    0    0 -0.27075444804E+02 -0.63512941286E+01  0.89738996865E+01  0.95777585246E+02  0.91210724762E+02 0.  0.
         13    1    3    3    0    0  0.15451954647E+02  0.25306918212E+02 -0.19606365897E+02  0.35547485980E+02  0.10566000000E+00 0. -1.
         22    1    1    0    0    0  0.27075444804E+02  0.63512941286E+01 -0.89738996865E+01  0.29222414754E+02  0.00000000000E+00 0.  1.
</event>
<event>
 5    1  0.1764311E-003  0.9118800E+02  0.7818608E-02  0.1130116E+00
         25   -1    0    0    0    0  0.00000000000E+00  0.00000000000E+00  0.99999998245E-14  0.12500000000E+03  0.12500000000E+03 0.  0.
        -13    1    3    3    0    0 -0.13833469642E+02 -0.26021096681E+02  0.19440526328E+02  0.35304498053E+02  0.10566000000E+00 0.  1.
         23    2    1    0    0    0 -0.71617948793E+01  0.19087122424E+02 -0.20621535831E+02  0.96002460650E+02  0.91518387019E+02 0.  0.
         13    1    3    3    0    0  0.66716747631E+01  0.45108219105E+02 -0.40062062159E+02  0.60697962597E+02  0.10566000000E+00 0. -1.
         22    1    1    0    0    0  0.71617948793E+01 -0.19087122424E+02  0.20621535831E+02  0.28997539350E+02  0.00000000000E+00 0. -1.
</event>
<event>
 5    1  0.1764311E-003  0.9118800E+02  0.7818608E-02  0.1130116E+00
         25   -1    0    0    0    0  0.00000000000E+00  0.00000000000E+00  0.99999998245E-14  0.12500000000E+03  0.12500000000E+03 0.  0.
        -13    1    3    3    0    0  0.22813011124E+02 -0.16707321302E+02  0.55365106637E+02  0.62168112876E+02  0.10566000000E+00 0.  1.
         23    2    1    0    0    0  0.91075676568E+01 -0.36520216439E+01  0.27029797035E+02  0.96244218348E+02  0.91847997185E+02 0.  0.
         13    1    3    3    0    0 -0.13705443467E+02  0.13055299658E+02 -0.28335309603E+02  0.34076105471E+02  0.10566000000E+00 0. -1.
         22    1    1    0    0    0 -0.91075676568E+01  0.36520216439E+01 -0.27029797035E+02  0.28755781652E+02  0.00000000000E+00 0.  1.
</event>
<event>
 5    1  0.1764311E-003  0.9118800E+02  0.7818608E-02  0.1130116E+00
         25   -1    0    0    0    0  0.00000000000E+00  0.00000000000E+00  0.99999998245E-14  0.12500000000E+03  0.12500000000E+03 0.  0.
        -13    1    3    3    0    0  0.82097368494E+01 -0.69687162386E+01  0.32154985697E+02  0.33910426926E+02  0.10566000000E+00 0. -1.
         23    2    1    0    0    0 -0.15203014528E+02  0.18899935417E+01 -0.24644640226E+02  0.95981695119E+02  0.91490020110E+02 0.  0.
         13    1    3    3    0    0 -0.23412751378E+02  0.88587097802E+01 -0.56799625922E+02  0.62071268192E+02  0.10566000000E+00 0.  1.
         22    1    1    0    0    0  0.15203014528E+02 -0.18899935417E+01  0.24644640226E+02  0.29018304881E+02  0.00000000000E+00 0.  1.
</event>
<event>
 5    1  0.1764311E-003  0.9118800E+02  0.7818608E-02  0.1130116E+00
         25   -1    0    0    0    0  0.00000000000E+00  0.00000000000E+00  0.99999998245E-14  0.12500000000E+03  0.12500000000E+03 0.  0.
        -13    1    3    3    0    0  0.40925150334E+02  0.10925914428E+02  0.33018375203E+02  0.53707241607E+02  0.10566000000E+00 0.  1.
         23    2    1    0    0    0  0.67765434258E+01 -0.13594639231E+02  0.23830570556E+02  0.96739924812E+02  0.92520166466E+02 0.  0.
         13    1    3    3    0    0 -0.34148606908E+02 -0.24520553660E+02 -0.91878046471E+01  0.43032683205E+02  0.10566000000E+00 0. -1.
         22    1    1    0    0    0 -0.67765434258E+01  0.13594639231E+02 -0.23830570556E+02  0.28260075188E+02  0.00000000000E+00 0.  1.
</event>
<event>
 5    1  0.1764311E-003  0.9118800E+02  0.7818608E-02  0.1130116E+00
         25   -1    0    0    0    0  0.00000000000E+00  0.00000000000E+00  0.99999998245E-14  0.12500000000E+03  0.12500000000E+03 0.  0.
        -13    1    3    3    0    0 -0.13410994599E+02 -0.24265131240E+02 -0.40649808712E+02  0.49204364466E+02  0.10566000000E+00 0.  1.
         23    2    1    0    0    0 -0.11506194420E+02  0.17170488952E+02 -0.22399298048E+02  0.94521372178E+02  0.89472582642E+02 0.  0.
         13    1    3    3    0    0  0.19048001791E+01  0.41435620192E+02  0.18250510664E+02  0.45317007712E+02  0.10566000000E+00 0. -1.
         22    1    1    0    0    0  0.11506194420E+02 -0.17170488952E+02  0.22399298048E+02  0.30478627822E+02  0.00000000000E+00 0.  1.
</event>
<event>
 5    1  0.1764311E-003  0.9118800E+02  0.7818608E-02  0.1130116E+00
         25   -1    0    0    0    0  0.00000000000E+00  0.00000000000E+00  0.99999998245E-14  0.12500000000E+03  0.12500000000E+03 0.  0.
        -13    1    3    3    0    0  0.45599783772E+02  0.12500622147E+02  0.14276244225E+02  0.49390567392E+02  0.10566000000E+00 0.  1.
         23    2    1    0    0    0  0.19996533487E+02 -0.19461179460E+02 -0.79507352956E+01  0.95985985297E+02  0.91495881460E+02 0.  0.
         13    1    3    3    0    0 -0.25603250285E+02 -0.31961801607E+02 -0.22226979520E+02  0.46595417905E+02  0.10566000000E+00 0. -1.
         22    1    1    0    0    0 -0.19996533487E+02  0.19461179460E+02  0.79507352956E+01  0.29014014703E+02  0.00000000000E+00 0.  1.
</event>
<event>
 5    1  0.1764311E-003  0.9118800E+02  0.7818608E-02  0.1130116E+00
         25   -1    0    0    0    0  0.00000000000E+00  0.00000000000E+00  0.99999998245E-14  0.12500000000E+03  0.12500000000E+03 0.  0.
        -13    1    3    3    0    0 -0.19411484161E+02  0.93309726558E+01  0.44559542180E+02  0.49491784483E+02  0.10566000000E+00 0.  1.
         23    2    1    0    0    0 -0.15216033064E+02 -0.22349162944E+02  0.11063646063E+02  0.95786698051E+02  0.91223212577E+02 0.  0.
         13    1    3    3    0    0  0.41954510966E+01 -0.31680135600E+02 -0.33495896117E+02  0.46294913568E+02  0.10566000000E+00 0. -1.
         22    1    1    0    0    0  0.15216033064E+02  0.22349162944E+02 -0.11063646063E+02  0.29213301949E+02  0.00000000000E+00 0. -1.
</event>
<event>
 5    1  0.1764311E-003  0.9118800E+02  0.7818608E-02  0.1130116E+00
         25   -1    0    0    0    0  0.00000000000E+00  0.00000000000E+00  0.99999998245E-14  0.12500000000E+03  0.12500000000E+03 0.  0.
        -13    1    3    3    0    0  0.27167989166E+02  0.33622584669E+02  0.39214782280E+02  0.58364271163E+02  0.10566000000E+00 0.  1.
         23    2    1    0    0    0  0.77246769725E+01  0.27670287605E+02  0.87930475470E+01  0.94956146458E+02  0.90077947438E+02 0.  0.
         13    1    3    3    0    0 -0.19443312193E+02 -0.59522970636E+01 -0.30421734733E+02  0.36591875295E+02  0.10566000000E+00 0. -1.
         22    1    1    0    0    0 -0.77246769725E+01 -0.27670287605E+02 -0.87930475470E+01  0.30043853542E+02  0.00000000000E+00 0.  1.
</event>
<event>
 5    1  0.1764311E-003  0.9118800E+02  0.7818608E-02  0.1130116E+00
         25   -1    0    0    0    0  0.00000000000E+00  0.00000000000E+00  0.99999998245E-14  0.12500000000E+03  0.12500000000E+03 0.  0.
        -13    1    3    3    0    0  0.39445013225E+02  0.15498065875E+02 -0.19320599410E+02  0.46576773609E+02  0.10566000000E+00 0.  1.
         23    2    1    0    0    0  0.35525281288E+00 -0.14380462125E+02 -0.25053288692E+02  0.96110708390E+02  0.91666117500E+02 0.  0.
         13    1    3    3    0    0 -0.39089760412E+02 -0.29878527999E+02 -0.57326892812E+01  0.49533934781E+02  0.10566000000E+00 0. -1.
         22    1    1    0    0    0 -0.35525281288E+00  0.14380462125E+02  0.25053288692E+02  0.28889291610E+02  0.00000000000E+00 0. -1.
</event>
<event>
 5    1  0.1764311E-003  0.9118800E+02  0.7818608E-02  0.1130116E+00
         25   -1    0    0    0    0  0.00000000000E+00  0.00000000000E+00  0.99999998245E-14  0.12500000000E+03  0.12500000000E+03 0.  0.
        -13    1    3    3    0    0  0.32349536604E+02 -0.44099060334E+02  0.23243639673E+02  0.59426404822E+02  0.10566000000E+00 0.  1.
         23    2    1    0    0    0  0.19877762183E+02 -0.10272604602E+02  0.18844809571E+02  0.95746304806E+02  0.91167846314E+02 0.  0.
         13    1    3    3    0    0 -0.12471774421E+02  0.33826455732E+02 -0.43988301022E+01  0.36319899984E+02  0.10566000000E+00 0. -1.
         22    1    1    0    0    0 -0.19877762183E+02  0.10272604602E+02 -0.18844809571E+02  0.29253695194E+02  0.00000000000E+00 0.  1.
</event>
<event>
 5    1  0.1764311E-003  0.9118800E+02  0.7818608E-02  0.1130116E+00
         25   -1    0    0    0    0  0.00000000000E+00  0.00000000000E+00  0.99999998245E-14  0.12500000000E+03  0.12500000000E+03 0.  0.
        -13    1    3    3    0    0  0.58368198461E+02  0.14497712630E+02  0.34267761090E+01  0.60239390947E+02  0.10566000000E+00 0.  1.
         23    2    1    0    0    0  0.25498372694E+02  0.60763319864E+01  0.13338487562E+02  0.95589048453E+02  0.90951976962E+02 0.  0.
         13    1    3    3    0    0 -0.32869825767E+02 -0.84213806432E+01  0.99117114526E+01  0.35349657507E+02  0.10566000000E+00 0. -1.
         22    1    1    0    0    0 -0.25498372694E+02 -0.60763319864E+01 -0.13338487562E+02  0.29410951547E+02  0.00000000000E+00 0.  1.
</event>
<event>
 5    1  0.1764311E-003  0.9118800E+02  0.7818608E-02  0.1130116E+00
         25   -1    0    0    0    0  0.00000000000E+00  0.00000000000E+00  0.99999998245E-14  0.12500000000E+03  0.12500000000E+03 0.  0.
        -13    1    3    3    0    0  0.29511016347E+02 -0.25148803823E+02  0.21483093095E+02  0.44327157280E+02  0.10566000000E+00 0.  1.
         23    2    1    0    0    0 -0.20643340262E+02 -0.16778029020E+02  0.10823705739E+02  0.96280627428E+02  0.91897534554E+02 0.  0.
         13    1    3    3    0    0 -0.50154356609E+02  0.83707748029E+01 -0.10659387356E+02  0.51953470148E+02  0.10566000000E+00 0. -1.
         22    1    1    0    0    0  0.20643340262E+02  0.16778029020E+02 -0.10823705739E+02  0.28719372572E+02  0.00000000000E+00 0.  1.
</event>
<event>
 5    1  0.1764311E-003  0.9118800E+02  0.7818608E-02  0.1130116E+00
         25   -1    0    0    0    0  0.00000000000E+00  0.00000000000E+00  0.99999998245E-14  0.12500000000E+03  0.12500000000E+03 0.  0.
        -13    1    3    3    0    0 -0.42249456523E+02 -0.12586878315E+02  0.25603316627E+01  0.44158946370E+02  0.10566000000E+00 0.  1.
         23    2    1    0    0    0 -0.28681919303E+01  0.97888440704E+01  0.27361683206E+02  0.95798806513E+02  0.91239802873E+02 0.  0.
         13    1    3    3    0    0  0.39381264593E+02  0.22375722385E+02  0.24801351543E+02  0.51639860143E+02  0.10566000000E+00 0. -1.
         22    1    1    0    0    0  0.28681919303E+01 -0.97888440704E+01 -0.27361683206E+02  0.29201193487E+02  0.00000000000E+00 0. -1.
</event>
<event>
 5    1  0.1764311E-003  0.9118800E+02  0.7818608E-02  0.1130116E+00
         25   -1    0    0    0    0  0.00000000000E+00  0.00000000000E+00  0.99999998245E-14  0.12500000000E+03  0.12500000000E+03 0.  0.
        -13    1    3    3    0    0  0.28441954309E+02  0.35363953994E+01  0.22017274757E+02  0.36141699034E+02  0.10566000000E+00 0.  1.
         23    2    1    0    0    0 -0.46099201014E+01 -0.24923245570E+02 -0.16850891350E+02  0.94563638977E+02  0.89531613099E+02 0.  0.
         13    1    3    3    0    0 -0.33051874410E+02 -0.28459640969E+02 -0.38868166106E+02  0.58421939942E+02  0.10566000000E+00 0. -1.
         22    1    1    0    0    0  0.46099201014E+01  0.24923245570E+02  0.16850891350E+02  0.30436361023E+02  0.00000000000E+00 0. -1.
</event>
<event>
 5    1  0.1764311E-003  0.9118800E+02  0.7818608E-02  0.1130116E+00
         25   -1    0    0    0    0  0.00000000000E+00  0.00000000000E+00  0.99999998245E-14  0.12500000000E+03  0.12500000000E+03 0.  0.
        -13    1    3    3    0    0  0.31948716109E+02 -0.83715646436E+01 -0.14279124698E+01  0.33058337128E+02  0.10566000000E+00 0.  1.
         23    2    1    0    0    0 -0.28673579851E+02  0.66889219498E+01  0.48122431889E+00  0.95552632797E+02  0.90901915268E+02 0.  0.
         13    1    3    3    0    0 -0.60622295960E+02  0.15060486593E+02  0.19091367887E+01  0.62494295669E+02  0.10566000000E+00 0. -1.
         22    1    1    0    0    0  0.28673579851E+02 -0.66889219498E+01 -0.48122431889E+00  0.29447367203E+02  0.00000000000E+00 0. -1.
</event>
<event>
 5    1  0.1764311E-003  0.9118800E+02  0.7818608E-02  0.1130116E+00
         25   -1    0    0    0    0  0.00000000000E+00  0.00000000000E+00  0.99999998245E-14  0.12500000000E+03  0.12500000000E+03 0.  0.
        -13    1    3    3    0    0  0.54300278252E+02 -0.20271863187E+02 -0.72910882458E+01  0.58417803683E+02  0.10566000000E+00 0.  1.
         23    2    1    0    0    0  0.28581395524E+02  0.61157480464E+01 -0.13612257003E+01  0.95739933703E+02  0.91159110493E+02 0.  0.
         13    1    3    3    0    0 -0.25718882728E+02  0.26387611234E+02  0.59298625455E+01  0.37322130020E+02  0.10566000000E+00 0. -1.
         22    1    1    0    0    0 -0.28581395524E+02 -0.61157480464E+01  0.13612257003E+01  0.29260066297E+02  0.00000000000E+00 0.  1.
</event>
<event>
 5    1  0.1764311E-003  0.9118800E+02  0.7818608E-02  0.1130116E+00
         25   -1    0    0    0    0  0.00000000000E+00  0.00000000000E+00  0.99999998245E-14  0.12500000000E+03  0.12500000000E+03 0.  0.
        -13    1    3    3    0    0 -0.28515363748E+01  0.19907621411E+02 -0.58242634184E+02  0.61617045131E+02  0.10566000000E+00 0. -1.
         23    2    1    0    0    0  0.59116133772E+01  0.79959941952E+01 -0.28111634210E+02  0.95181430721E+02  0.90390030867E+02 0.  0.
         13    1    3    3    0    0  0.87631497520E+01 -0.11911627216E+02  0.30130999974E+02  0.33564385589E+02  0.10566000000E+00 0.  1.
         22    1    1    0    0    0 -0.59116133772E+01 -0.79959941952E+01  0.28111634210E+02  0.29818569279E+02  0.00000000000E+00 0. -1.
</event>
<event>
 5    1  0.1764311E-003  0.9118800E+02  0.7818608E-02  0.1130116E+00
         25   -1    0    0    0    0  0.00000000000E+00  0.00000000000E+00  0.99999998245E-14  0.12500000000E+03  0.12500000000E+03 0.  0.
        -13    1    3    3    0    0  0.21240341511E+02 -0.46303019827E+02  0.31767949708E+02  0.60036118672E+02  0.10566000000E+00 0. -1.
         23    2    1    0    0    0  0.20566246121E+02 -0.15292106614E+02  0.15226169479E+02  0.95189678948E+02  0.90401436587E+02 0.  0.
         13    1    3    3    0    0 -0.67409538922E+00  0.31010913212E+02 -0.16541780229E+02  0.35153560275E+02  0.10566000000E+00 0.  1.
         22    1    1    0    0    0 -0.20566246121E+02  0.15292106614E+02 -0.15226169479E+02  0.29810321052E+02  0.00000000000E+00 0. -1.
</event>
<event>
 5    1  0.1764311E-003  0.9118800E+02  0.7818608E-02  0.1130116E+00
         25   -1    0    0    0    0  0.00000000000E+00  0.00000000000E+00  0.99999998245E-14  0.12500000000E+03  0.12500000000E+03 0.  0.
        -13    1    3    3    0    0  0.18326077985E+02  0.19618549567E+02 -0.23297722114E+02  0.35546133983E+02  0.10566000000E+00 0.  1.
         23    2    1    0    0    0  0.40998024880E+00  0.40054468882E-01  0.29953272307E+02  0.95043895279E+02  0.90199633147E+02 0.  0.
         13    1    3    3    0    0 -0.17916097736E+02 -0.19578495099E+02  0.53250994421E+02  0.59497761296E+02  0.10566000000E+00 0. -1.
         22    1    1    0    0    0 -0.40998024880E+00 -0.40054468882E-01 -0.29953272307E+02  0.29956104721E+02  0.00000000000E+00 0. -1.
</event>
<event>
 5    1  0.1764311E-003  0.9118800E+02  0.7818608E-02  0.1130116E+00
         25   -1    0    0    0    0  0.00000000000E+00  0.00000000000E+00  0.99999998245E-14  0.12500000000E+03  0.12500000000E+03 0.  0.
        -13    1    3    3    0    0  0.25164680274E+02 -0.28024386734E+02  0.23349191179E+02  0.44315045727E+02  0.10566000000E+00 0. -1.
         23    2    1    0    0    0  0.14345295269E+02 -0.11209854619E+02 -0.23511826636E+02  0.95263585813E+02  0.90503571494E+02 0.  0.
         13    1    3    3    0    0 -0.10819385004E+02  0.16814532115E+02 -0.46861017815E+02  0.50948540085E+02  0.10566000000E+00 0.  1.
         22    1    1    0    0    0 -0.14345295269E+02  0.11209854619E+02  0.23511826636E+02  0.29736414187E+02  0.00000000000E+00 0.  1.
</event>
<event>
 5    1  0.1764311E-003  0.9118800E+02  0.7818608E-02  0.1130116E+00
         25   -1    0    0    0    0  0.00000000000E+00  0.00000000000E+00  0.99999998245E-14  0.12500000000E+03  0.12500000000E+03 0.  0.
        -13    1    3    3    0    0  0.11601308877E+02  0.10571718707E+02 -0.32870419479E+02  0.36425639937E+02  0.10566000000E+00 0. -1.
         23    2    1    0    0    0  0.10369147436E+01 -0.19689958873E+02  0.19140749837E+02  0.97520226039E+02  0.93568458947E+02 0.  0.
         13    1    3    3    0    0 -0.10564394133E+02 -0.30261677580E+02  0.52011169316E+02  0.61094586102E+02  0.10566000000E+00 0.  1.
         22    1    1    0    0    0 -0.10369147436E+01  0.19689958873E+02 -0.19140749837E+02  0.27479773961E+02  0.00000000000E+00 0.  1.
</event>
<event>
 5    1  0.1764311E-003  0.9118800E+02  0.7818608E-02  0.1130116E+00
         25   -1    0    0    0    0  0.00000000000E+00  0.00000000000E+00  0.99999998245E-14  0.12500000000E+03  0.12500000000E+03 0.  0.
        -13    1    3    3    0    0 -0.24464192163E+02 -0.40668089539E+02 -0.23406079803E+02  0.52917350092E+02  0.10566000000E+00 0. -1.
         23    2    1    0    0    0 -0.79622438141E+00 -0.73136714469E+01 -0.29793346783E+02  0.94311773010E+02  0.89179275913E+02 0.  0.
         13    1    3    3    0    0  0.23667967782E+02  0.33354418092E+02 -0.63872669799E+01  0.41394422918E+02  0.10566000000E+00 0.  1.
         22    1    1    0    0    0  0.79622438141E+00  0.73136714469E+01  0.29793346783E+02  0.30688226990E+02  0.00000000000E+00 0.  1.
</event>
<event>
 5    1  0.1764311E-003  0.9118800E+02  0.7818608E-02  0.1130116E+00
         25   -1    0    0    0    0  0.00000000000E+00  0.00000000000E+00  0.99999998245E-14  0.12500000000E+03  0.12500000000E+03 0.  0.
        -13    1    3    3    0    0 -0.18797479390E+02  0.48917628843E+02 -0.13337022043E+02  0.54075567163E+02  0.10566000000E+00 0.  1.
         23    2    1    0    0    0  0.10628855098E+02  0.19600571141E+02 -0.18623272569E+02  0.95948644938E+02  0.91444853516E+02 0.  0.
         13    1    3    3    0    0  0.29426334488E+02 -0.29317057702E+02 -0.52862505260E+01  0.41873077775E+02  0.10566000000E+00 0. -1.
         22    1    1    0    0    0 -0.10628855098E+02 -0.19600571141E+02  0.18623272569E+02  0.29051355062E+02  0.00000000000E+00 0.  1.
</event>
<event>
 5    1  0.1764311E-003  0.9118800E+02  0.7818608E-02  0.1130116E+00
         25   -1    0    0    0    0  0.00000000000E+00  0.00000000000E+00  0.99999998245E-14  0.12500000000E+03  0.12500000000E+03 0.  0.
        -13    1    3    3    0    0  0.18226615993E+02 -0.38921920502E+02 -0.25999481916E+01  0.43056896320E+02  0.10566000000E+00 0.  1.
         23    2    1    0    0    0  0.38265632920E+01  0.42737859562E+01 -0.28830171679E+02  0.95604649482E+02  0.90973415736E+02 0.  0.
         13    1    3    3    0    0 -0.14400052701E+02  0.43195706458E+02 -0.26230223487E+02  0.52547753162E+02  0.10566000000E+00 0. -1.
         22    1    1    0    0    0 -0.38265632920E+01 -0.42737859562E+01  0.28830171679E+02  0.29395350518E+02  0.00000000000E+00 0. -1.
</event>
<event>
 5    1  0.1764311E-003  0.9118800E+02  0.7818608E-02  0.1130116E+00
         25   -1    0    0    0    0  0.00000000000E+00  0.00000000000E+00  0.99999998245E-14  0.12500000000E+03  0.12500000000E+03 0.  0.
        -13    1    3    3    0    0  0.16622761872E+01  0.23829830592E+02  0.33444644941E+02  0.41099628069E+02  0.10566000000E+00 0.  1.
         23    2    1    0    0    0 -0.18407930954E+02  0.14060534140E+02 -0.17003489664E+02  0.96265539799E+02  0.91877009909E+02 0.  0.
         13    1    3    3    0    0 -0.20070207141E+02 -0.97692964519E+01 -0.50448134605E+02  0.55165911730E+02  0.10566000000E+00 0. -1.
         22    1    1    0    0    0  0.18407930954E+02 -0.14060534140E+02  0.17003489664E+02  0.28734460201E+02  0.00000000000E+00 0.  1.
</event>
<event>
 5    1  0.1764311E-003  0.9118800E+02  0.7818608E-02  0.1130116E+00
         25   -1    0    0    0    0  0.00000000000E+00  0.00000000000E+00  0.99999998245E-14  0.12500000000E+03  0.12500000000E+03 0.  0.
        -13    1    3    3    0    0  0.25024701484E+02 -0.78811264492E+01 -0.24959943669E+02  0.36212674445E+02  0.10566000000E+00 0.  1.
         23    2    1    0    0    0 -0.17740388595E+02 -0.17291216634E+02  0.15455150826E+02  0.95801211545E+02  0.91243097746E+02 0.  0.
         13    1    3    3    0    0 -0.42765090079E+02 -0.94100901844E+01  0.40415094495E+02  0.59588537100E+02  0.10566000000E+00 0. -1.
         22    1    1    0    0    0  0.17740388595E+02  0.17291216634E+02 -0.15455150826E+02  0.29198788455E+02  0.00000000000E+00 0. -1.
</event>
<event>
 5    1  0.1764311E-003  0.9118800E+02  0.7818608E-02  0.1130116E+00
         25   -1    0    0    0    0  0.00000000000E+00  0.00000000000E+00  0.99999998245E-14  0.12500000000E+03  0.12500000000E+03 0.  0.
        -13    1    3    3    0    0  0.20159084580E+02 -0.42592310108E+02 -0.90397487797E+01  0.47981473440E+02  0.10566000000E+00 0.  1.
         23    2    1    0    0    0  0.22519474428E+02 -0.63978564375E+00  0.16429641737E+02  0.97116865639E+02  0.93028040986E+02 0.  0.
         13    1    3    3    0    0  0.23603898479E+01  0.41952524465E+02  0.25469390517E+02  0.49135392199E+02  0.10566000000E+00 0. -1.
         22    1    1    0    0    0 -0.22519474428E+02  0.63978564375E+00 -0.16429641737E+02  0.27883134361E+02  0.00000000000E+00 0. -1.
</event>
<event>
 5    1  0.1764311E-003  0.9118800E+02  0.7818608E-02  0.1130116E+00
         25   -1    0    0    0    0  0.00000000000E+00  0.00000000000E+00  0.99999998245E-14  0.12500000000E+03  0.12500000000E+03 0.  0.
        -13    1    3    3    0    0 -0.21481874899E+02 -0.22341150273E+02  0.24837873697E+02  0.39718120279E+02  0.10566000000E+00 0. -1.
         23    2    1    0    0    0  0.19785129316E+02  0.14924425200E+02  0.10528345843E+01  0.10019479348E+03  0.97075735233E+02 0.  0.
         13    1    3    3    0    0  0.41267004216E+02  0.37265575473E+02 -0.23785039113E+02  0.60476673205E+02  0.10566000000E+00 0.  1.
         22    1    1    0    0    0 -0.19785129316E+02 -0.14924425200E+02 -0.10528345843E+01  0.24805206516E+02  0.00000000000E+00 0.  1.
</event>
<event>
 5    1  0.1764311E-003  0.9118800E+02  0.7818608E-02  0.1130116E+00
         25   -1    0    0    0    0  0.00000000000E+00  0.00000000000E+00  0.99999998245E-14  0.12500000000E+03  0.12500000000E+03 0.  0.
        -13    1    3    3    0    0 -0.38052753871E+02 -0.35382437956E+02  0.15658994766E+02  0.54269183465E+02  0.10566000000E+00 0. -1.
         23    2    1    0    0    0 -0.28360446686E+02 -0.38126843832E+01 -0.84562903732E+01  0.95161093430E+02  0.90361902135E+02 0.  0.
         13    1    3    3    0    0  0.96923071848E+01  0.31569753573E+02 -0.24115285139E+02  0.40891909965E+02  0.10566000000E+00 0.  1.
         22    1    1    0    0    0  0.28360446686E+02  0.38126843832E+01  0.84562903732E+01  0.29838906570E+02  0.00000000000E+00 0. -1.
</event>
<event>
 5    1  0.1764311E-003  0.9118800E+02  0.7818608E-02  0.1130116E+00
         25   -1    0    0    0    0  0.00000000000E+00  0.00000000000E+00  0.99999998245E-14  0.12500000000E+03  0.12500000000E+03 0.  0.
        -13    1    3    3    0    0 -0.19082098036E+02 -0.22028140167E+02  0.30852686692E+02  0.42441310829E+02  0.10566000000E+00 0.  1.
         23    2    1    0    0    0  0.26806981907E+02 -0.10772099215E+02  0.74727532233E+01  0.95158846517E+02  0.90358793867E+02 0.  0.
         13    1    3    3    0    0  0.45889079944E+02  0.11256040952E+02 -0.23379933469E+02  0.52717535688E+02  0.10566000000E+00 0. -1.
         22    1    1    0    0    0 -0.26806981907E+02  0.10772099215E+02 -0.74727532233E+01  0.29841153483E+02  0.00000000000E+00 0. -1.
</event>
<event>
 5    1  0.1764311E-003  0.9118800E+02  0.7818608E-02  0.1130116E+00
         25   -1    0    0    0    0  0.00000000000E+00  0.00000000000E+00  0.99999998245E-14  0.12500000000E+03  0.12500000000E+03 0.  0.
        -13    1    3    3    0    0 -0.57774310917E+01  0.27017837864E+02  0.35838394606E+02  0.45252005092E+02  0.10566000000E+00 0. -1.
         23    2    1    0    0    0 -0.52985111957E+01 -0.20136272737E+02  0.51406305407E+00  0.10417194293E+03  0.10206853448E+03 0.  0.
         13    1    3    3    0    0  0.47891989596E+00 -0.47154110601E+02 -0.35324331552E+02  0.58919937835E+02  0.10566000000E+00 0.  1.
         22    1    1    0    0    0  0.52985111957E+01  0.20136272737E+02 -0.51406305407E+00  0.20828057074E+02  0.00000000000E+00 0.  1.
</event>
<event>
 5    1  0.1764311E-003  0.9118800E+02  0.7818608E-02  0.1130116E+00
         25   -1    0    0    0    0  0.00000000000E+00  0.00000000000E+00  0.99999998245E-14  0.12500000000E+03  0.12500000000E+03 0.  0.
        -13    1    3    3    0    0 -0.30180943229E+02  0.17327326501E+02 -0.50756910457E+02  0.61541861371E+02  0.10566000000E+00 0.  1.
         23    2    1    0    0    0 -0.10296690192E+02  0.18993978103E+01 -0.26543093150E+02  0.96466417419E+02  0.92149901545E+02 0.  0.
         13    1    3    3    0    0  0.19884253037E+02 -0.15427928691E+02  0.24213817307E+02  0.34924556048E+02  0.10566000000E+00 0. -1.
         22    1    1    0    0    0  0.10296690192E+02 -0.18993978103E+01  0.26543093150E+02  0.28533582581E+02  0.00000000000E+00 0.  1.
</event>
<event>
 5    1  0.1764311E-003  0.9118800E+02  0.7818608E-02  0.1130116E+00
         25   -1    0    0    0    0  0.00000000000E+00  0.00000000000E+00  0.99999998245E-14  0.12500000000E+03  0.12500000000E+03 0.  0.
        -13    1    3    3    0    0  0.16392896118E+02 -0.13450382248E+02 -0.41731464411E+02  0.46809893310E+02  0.10566000000E+00 0.  1.
         23    2    1    0    0    0 -0.22699898059E+02  0.32584532751E+01 -0.20074985717E+02  0.94522008905E+02  0.89473472193E+02 0.  0.
         13    1    3    3    0    0 -0.39092794177E+02  0.16708835523E+02  0.21656478693E+02  0.47712115595E+02  0.10566000000E+00 0. -1.
         22    1    1    0    0    0  0.22699898059E+02 -0.32584532751E+01  0.20074985717E+02  0.30477991095E+02  0.00000000000E+00 0. -1.
</event>
<event>
 5    1  0.1764311E-003  0.9118800E+02  0.7818608E-02  0.1130116E+00
         25   -1    0    0    0    0  0.00000000000E+00  0.00000000000E+00  0.99999998245E-14  0.12500000000E+03  0.12500000000E+03 0.  0.
        -13    1    3    3    0    0  0.30556753204E+02  0.81426202648E+01 -0.47338940758E+02  0.56929815627E+02  0.10566000000E+00 0. -1.
         23    2    1    0    0    0  0.11536887064E+02 -0.14351022617E+02 -0.25250875885E+02  0.93748466498E+02  0.88386178923E+02 0.  0.
         13    1    3    3    0    0 -0.19019866140E+02 -0.22493642882E+02  0.22088064873E+02  0.36818650871E+02  0.10566000000E+00 0.  1.
         22    1    1    0    0    0 -0.11536887064E+02  0.14351022617E+02  0.25250875885E+02  0.31251533502E+02  0.00000000000E+00 0. -1.
</event>
<event>
 5    1  0.1764311E-003  0.9118800E+02  0.7818608E-02  0.1130116E+00
         25   -1    0    0    0    0  0.00000000000E+00  0.00000000000E+00  0.99999998245E-14  0.12500000000E+03  0.12500000000E+03 0.  0.
        -13    1    3    3    0    0  0.68384739025E+01  0.23363588619E+02  0.56407531465E+02  0.61436493784E+02  0.10566000000E+00 0. -1.
         23    2    1    0    0    0  0.10220937965E+02  0.68178316884E+01  0.26699021494E+02  0.95609726940E+02  0.90980392036E+02 0.  0.
         13    1    3    3    0    0  0.33824640629E+01 -0.16545756930E+02 -0.29708509972E+02  0.34173233156E+02  0.10566000000E+00 0.  1.
         22    1    1    0    0    0 -0.10220937965E+02 -0.68178316884E+01 -0.26699021494E+02  0.29390273060E+02  0.00000000000E+00 0. -1.
</event>
<event>
 5    1  0.1764311E-003  0.9118800E+02  0.7818608E-02  0.1130116E+00
         25   -1    0    0    0    0  0.00000000000E+00  0.00000000000E+00  0.99999998245E-14  0.12500000000E+03  0.12500000000E+03 0.  0.
        -13    1    3    3    0    0  0.25951239815E+02 -0.53890837727E+01 -0.18247388596E+02  0.32178990451E+02  0.10566000000E+00 0. -1.
         23    2    1    0    0    0 -0.25787900224E+02 -0.36101844890E+00 -0.29963303562E+02  0.85465892035E+02  0.75772508264E+02 0.  0.
         13    1    3    3    0    0 -0.51739140039E+02  0.50280653238E+01 -0.11715914966E+02  0.53286901584E+02  0.10566000000E+00 0.  1.
         22    1    1    0    0    0  0.25787900224E+02  0.36101844890E+00  0.29963303562E+02  0.39534107965E+02  0.00000000000E+00 0.  1.
</event>
<event>
 5    1  0.1764311E-003  0.9118800E+02  0.7818608E-02  0.1130116E+00
         25   -1    0    0    0    0  0.00000000000E+00  0.00000000000E+00  0.99999998245E-14  0.12500000000E+03  0.12500000000E+03 0.  0.
        -13    1    3    3    0    0 -0.34451782552E+02  0.11576395831E+02 -0.19086111347E+01  0.36394947753E+02  0.10566000000E+00 0. -1.
         23    2    1    0    0    0  0.16004170067E+02  0.98440790751E+00 -0.26896116313E+02  0.93687006033E+02  0.88299215785E+02 0.  0.
         13    1    3    3    0    0  0.50455952619E+02 -0.10591987924E+02 -0.24987505178E+02  0.57292058280E+02  0.10566000000E+00 0.  1.
         22    1    1    0    0    0 -0.16004170067E+02 -0.98440790751E+00  0.26896116313E+02  0.31312993967E+02  0.00000000000E+00 0.  1.
</event>
<event>
 5    1  0.1764311E-003  0.9118800E+02  0.7818608E-02  0.1130116E+00
         25   -1    0    0    0    0  0.00000000000E+00  0.00000000000E+00  0.99999998245E-14  0.12500000000E+03  0.12500000000E+03 0.  0.
        -13    1    3    3    0    0 -0.46161433884E+02 -0.29530422038E+02  0.15938156066E+02  0.57069779979E+02  0.10566000000E+00 0. -1.
         23    2    1    0    0    0 -0.25057083636E+02  0.31942056568E+01  0.14141629517E+02  0.96050974533E+02  0.91584625528E+02 0.  0.
         13    1    3    3    0    0  0.21104350249E+02  0.32724627695E+02 -0.17965265481E+01  0.38981194554E+02  0.10566000000E+00 0.  1.
         22    1    1    0    0    0  0.25057083636E+02 -0.31942056568E+01 -0.14141629517E+02  0.28949025467E+02  0.00000000000E+00 0. -1.
</event>
<event>
 5    1  0.1764311E-003  0.9118800E+02  0.7818608E-02  0.1130116E+00
         25   -1    0    0    0    0  0.00000000000E+00  0.00000000000E+00  0.99999998245E-14  0.12500000000E+03  0.12500000000E+03 0.  0.
        -13    1    3    3    0    0  0.50752380772E+02  0.25950445049E+02 -0.31705923051E+00  0.57002995034E+02  0.10566000000E+00 0.  1.
         23    2    1    0    0    0  0.16922107910E+02  0.15090151058E+02  0.17127074216E+02  0.96585090775E+02  0.92310739861E+02 0.  0.
         13    1    3    3    0    0 -0.33830272862E+02 -0.10860293991E+02  0.17444133446E+02  0.39582095741E+02  0.10566000000E+00 0. -1.
         22    1    1    0    0    0 -0.16922107910E+02 -0.15090151058E+02 -0.17127074216E+02  0.28414909225E+02  0.00000000000E+00 0.  1.
</event>
<event>
 5    1  0.1764311E-003  0.9118800E+02  0.7818608E-02  0.1130116E+00
         25   -1    0    0    0    0  0.00000000000E+00  0.00000000000E+00  0.99999998245E-14  0.12500000000E+03  0.12500000000E+03 0.  0.
        -13    1    3    3    0    0 -0.57651845753E+01  0.34796059223E+02 -0.31175094302E+02  0.47073355090E+02  0.10566000000E+00 0. -1.
         23    2    1    0    0    0 -0.24818235584E+02  0.13805437395E+02  0.80605989060E+01  0.95478682721E+02  0.90800168944E+02 0.  0.
         13    1    3    3    0    0 -0.19053051009E+02 -0.20990621829E+02  0.39235693208E+02  0.48405327631E+02  0.10566000000E+00 0.  1.
         22    1    1    0    0    0  0.24818235584E+02 -0.13805437395E+02 -0.80605989060E+01  0.29521317279E+02  0.00000000000E+00 0. -1.
</event>
<event>
 5    1  0.1764311E-003  0.9118800E+02  0.7818608E-02  0.1130116E+00
         25   -1    0    0    0    0  0.00000000000E+00  0.00000000000E+00  0.99999998245E-14  0.12500000000E+03  0.12500000000E+03 0.  0.
        -13    1    3    3    0    0 -0.54518823990E+01 -0.38429059979E+02 -0.45359077256E+02  0.59699017799E+02  0.10566000000E+00 0.  1.
         23    2    1    0    0    0  0.70475945540E+00 -0.27130687592E+02 -0.12244133923E+02  0.95226022929E+02  0.90451676227E+02 0.  0.
         13    1    3    3    0    0  0.61566418544E+01  0.11298372388E+02  0.33114943333E+02  0.35527005130E+02  0.10566000000E+00 0. -1.
         22    1    1    0    0    0 -0.70475945540E+00  0.27130687592E+02  0.12244133923E+02  0.29773977071E+02  0.00000000000E+00 0.  1.
</event>
<event>
 5    1  0.1764311E-003  0.9118800E+02  0.7818608E-02  0.1130116E+00
         25   -1    0    0    0    0  0.00000000000E+00  0.00000000000E+00  0.99999998245E-14  0.12500000000E+03  0.12500000000E+03 0.  0.
        -13    1    3    3    0    0 -0.34037875773E+02  0.16417094781E+02  0.38870598902E+02  0.54212845445E+02  0.10566000000E+00 0. -1.
         23    2    1    0    0    0  0.11453155263E+01 -0.29233736276E+01  0.29359902715E+02  0.95472694866E+02  0.90791925393E+02 0.  0.
         13    1    3    3    0    0  0.35183191300E+02 -0.19340468408E+02 -0.95106961869E+01  0.41259849421E+02  0.10566000000E+00 0.  1.
         22    1    1    0    0    0 -0.11453155263E+01  0.29233736276E+01 -0.29359902715E+02  0.29527305134E+02  0.00000000000E+00 0. -1.
</event>
<event>
 5    1  0.1764311E-003  0.9118800E+02  0.7818608E-02  0.1130116E+00
         25   -1    0    0    0    0  0.00000000000E+00  0.00000000000E+00  0.99999998245E-14  0.12500000000E+03  0.12500000000E+03 0.  0.
        -13    1    3    3    0    0  0.52938821279E+02  0.16945585012E+02 -0.15859555984E+02  0.57803186157E+02  0.10566000000E+00 0.  1.
         23    2    1    0    0    0  0.18173472148E+02  0.22050100559E+02  0.17085248926E+00  0.96425339633E+02  0.92094163269E+02 0.  0.
         13    1    3    3    0    0 -0.34765349132E+02  0.51045155465E+01  0.16030408473E+02  0.38622153475E+02  0.10566000000E+00 0. -1.
         22    1    1    0    0    0 -0.18173472148E+02 -0.22050100559E+02 -0.17085248926E+00  0.28574660367E+02  0.00000000000E+00 0.  1.
</event>
<event>
 5    1  0.1764311E-003  0.9118800E+02  0.7818608E-02  0.1130116E+00
         25   -1    0    0    0    0  0.00000000000E+00  0.00000000000E+00  0.99999998245E-14  0.12500000000E+03  0.12500000000E+03 0.  0.
        -13    1    3    3    0    0 -0.99104800214E+01  0.43868895107E+02 -0.55874988684E+01  0.45320292142E+02  0.10566000000E+00 0. -1.
         23    2    1    0    0    0  0.14995318817E+02  0.10285184630E+02  0.22784567620E+02  0.95848994341E+02  0.91308535118E+02 0.  0.
         13    1    3    3    0    0  0.24905798838E+02 -0.33583710476E+02  0.28372066488E+02  0.50528702200E+02  0.10566000000E+00 0.  1.
         22    1    1    0    0    0 -0.14995318817E+02 -0.10285184630E+02 -0.22784567620E+02  0.29151005659E+02  0.00000000000E+00 0.  1.
</event>
<event>
 5    1  0.1764311E-003  0.9118800E+02  0.7818608E-02  0.1130116E+00
         25   -1    0    0    0    0  0.00000000000E+00  0.00000000000E+00  0.99999998245E-14  0.12500000000E+03  0.12500000000E+03 0.  0.
        -13    1    3    3    0    0 -0.58338908126E+01 -0.73332772916E+01  0.51861623405E+02  0.52701521648E+02  0.10566000000E+00 0.  1.
         23    2    1    0    0    0  0.14926693372E+02  0.13407914259E+02  0.14332249129E+02  0.10034251219E+03  0.97265759898E+02 0.  0.
         13    1    3    3    0    0  0.20760584185E+02  0.20741191550E+02 -0.37529374276E+02  0.47640990546E+02  0.10566000000E+00 0. -1.
         22    1    1    0    0    0 -0.14926693372E+02 -0.13407914259E+02 -0.14332249129E+02  0.24657487806E+02  0.00000000000E+00 0.  1.
</event>
<event>
 5    1  0.1764311E-003  0.9118800E+02  0.7818608E-02  0.1130116E+00
         25   -1    0    0    0    0  0.00000000000E+00  0.00000000000E+00  0.99999998245E-14  0.12500000000E+03  0.12500000000E+03 0.  0.
        -13    1    3    3    0    0  0.93466362867E+01  0.13285690175E+02  0.55730436287E+02  0.58049650008E+02  0.10566000000E+00 0. -1.
         23    2    1    0    0    0  0.19068225342E+02 -0.10928570175E+01  0.22946495435E+02  0.95144795983E+02  0.90339354634E+02 0.  0.
         13    1    3    3    0    0  0.97215890556E+01 -0.14378547192E+02 -0.32783940851E+02  0.37095145975E+02  0.10566000000E+00 0.  1.
         22    1    1    0    0    0 -0.19068225342E+02  0.10928570175E+01 -0.22946495435E+02  0.29855204017E+02  0.00000000000E+00 0. -1.
</event>
<event>
 5    1  0.1764311E-003  0.9118800E+02  0.7818608E-02  0.1130116E+00
         25   -1    0    0    0    0  0.00000000000E+00  0.00000000000E+00  0.99999998245E-14  0.12500000000E+03  0.12500000000E+03 0.  0.
        -13    1    3    3    0    0 -0.26408383219E+02 -0.12378043251E+02  0.35350658352E+02  0.45829017760E+02  0.10566000000E+00 0.  1.
         23    2    1    0    0    0 -0.24791037434E+02  0.12272879018E+02 -0.84151348177E+01  0.96085754541E+02  0.91632083002E+02 0.  0.
         13    1    3    3    0    0  0.16173457843E+01  0.24650922269E+02 -0.43765793169E+02  0.50256736781E+02  0.10566000000E+00 0. -1.
         22    1    1    0    0    0  0.24791037434E+02 -0.12272879018E+02  0.84151348177E+01  0.28914245459E+02  0.00000000000E+00 0. -1.
</event>
<event>
 5    1  0.1764311E-003  0.9118800E+02  0.7818608E-02  0.1130116E+00
         25   -1    0    0    0    0  0.00000000000E+00  0.00000000000E+00  0.99999998245E-14  0.12500000000E+03  0.12500000000E+03 0.  0.
        -13    1    3    3    0    0 -0.52213982996E+01 -0.20558299064E+02 -0.35659990181E+02  0.41491598238E+02  0.10566000000E+00 0.  1.
         23    2    1    0    0    0  0.27603384273E+02  0.83610953799E+01 -0.31688746611E+01  0.95984547119E+02  0.91493916627E+02 0.  0.
         13    1    3    3    0    0  0.32824782573E+02  0.28919394444E+02  0.32491115520E+02  0.54492948881E+02  0.10566000000E+00 0. -1.
         22    1    1    0    0    0 -0.27603384273E+02 -0.83610953799E+01  0.31688746611E+01  0.29015452881E+02  0.00000000000E+00 0. -1.
</event>
<event>
 5    1  0.1764311E-003  0.9118800E+02  0.7818608E-02  0.1130116E+00
         25   -1    0    0    0    0  0.00000000000E+00  0.00000000000E+00  0.99999998245E-14  0.12500000000E+03  0.12500000000E+03 0.  0.
        -13    1    3    3    0    0  0.31002081339E+02 -0.33278708790E+02 -0.14574123733E+02  0.47760001598E+02  0.10566000000E+00 0. -1.
         23    2    1    0    0    0  0.21160078163E+01  0.97684669666E+01 -0.22665510706E+02  0.10022852827E+03  0.97119164268E+02 0.  0.
         13    1    3    3    0    0 -0.28886073523E+02  0.43047175757E+02 -0.80913869740E+01  0.52468526674E+02  0.10566000000E+00 0.  1.
         22    1    1    0    0    0 -0.21160078163E+01 -0.97684669666E+01  0.22665510706E+02  0.24771471727E+02  0.00000000000E+00 0. -1.
</event>
<event>
 5    1  0.1764311E-003  0.9118800E+02  0.7818608E-02  0.1130116E+00
         25   -1    0    0    0    0  0.00000000000E+00  0.00000000000E+00  0.99999998245E-14  0.12500000000E+03  0.12500000000E+03 0.  0.
        -13    1    3    3    0    0 -0.30188137265E+00 -0.62246121156E+02  0.29524197062E+01  0.62316921277E+02  0.10566000000E+00 0.  1.
         23    2    1    0    0    0 -0.32756530955E+01 -0.29290132774E+02  0.13176690677E+00  0.95526976001E+02  0.90866627539E+02 0.  0.
         13    1    3    3    0    0 -0.29737717229E+01  0.32955988382E+02 -0.28206527995E+01  0.33210054724E+02  0.10566000000E+00 0. -1.
         22    1    1    0    0    0  0.32756530955E+01  0.29290132774E+02 -0.13176690677E+00  0.29473023999E+02  0.00000000000E+00 0.  1.
</event>
<event>
 5    1  0.1764311E-003  0.9118800E+02  0.7818608E-02  0.1130116E+00
         25   -1    0    0    0    0  0.00000000000E+00  0.00000000000E+00  0.99999998245E-14  0.12500000000E+03  0.12500000000E+03 0.  0.
        -13    1    3    3    0    0 -0.28294931555E+02  0.18445899972E+02 -0.12569931527E+02  0.36039821310E+02  0.10566000000E+00 0.  1.
         23    2    1    0    0    0  0.18470943523E+02  0.66009263621E+01  0.22101852265E+02  0.95449367908E+02  0.90759803752E+02 0.  0.
         13    1    3    3    0    0  0.46765875078E+02 -0.11844973610E+02  0.34671783792E+02  0.59409546598E+02  0.10566000000E+00 0. -1.
         22    1    1    0    0    0 -0.18470943523E+02 -0.66009263621E+01 -0.22101852265E+02  0.29550632092E+02  0.00000000000E+00 0. -1.
</event>
<event>
 5    1  0.1764311E-003  0.9118800E+02  0.7818608E-02  0.1130116E+00
         25   -1    0    0    0    0  0.00000000000E+00  0.00000000000E+00  0.99999998245E-14  0.12500000000E+03  0.12500000000E+03 0.  0.
        -13    1    3    3    0    0  0.89538086189E+01 -0.32988956424E+02 -0.11682578254E+02  0.36123894218E+02  0.10566000000E+00 0.  1.
         23    2    1    0    0    0 -0.65584718905E+01  0.87390508305E+01  0.27487091754E+02  0.95420872629E+02  0.90720549806E+02 0.  0.
         13    1    3    3    0    0 -0.15512280509E+02  0.41728007255E+02  0.39169670008E+02  0.59296978411E+02  0.10566000000E+00 0. -1.
         22    1    1    0    0    0  0.65584718905E+01 -0.87390508305E+01 -0.27487091754E+02  0.29579127371E+02  0.00000000000E+00 0. -1.
</event>
<event>
 5    1  0.1764311E-003  0.9118800E+02  0.7818608E-02  0.1130116E+00
         25   -1    0    0    0    0  0.00000000000E+00  0.00000000000E+00  0.99999998245E-14  0.12500000000E+03  0.12500000000E+03 0.  0.
        -13    1    3    3    0    0 -0.12163700357E+02  0.47959309001E+02  0.30242044309E+02  0.57988303427E+02  0.10566000000E+00 0.  1.
         23    2    1    0    0    0 -0.11973017411E+02  0.88647487678E+01  0.22767557852E+02  0.97791571027E+02  0.93930254747E+02 0.  0.
         13    1    3    3    0    0  0.19068294635E+00 -0.39094560234E+02 -0.74744864572E+01  0.39803267601E+02  0.10566000000E+00 0. -1.
         22    1    1    0    0    0  0.11973017411E+02 -0.88647487678E+01 -0.22767557852E+02  0.27208428973E+02  0.00000000000E+00 0.  1.
</event>
<event>
 5    1  0.1764311E-003  0.9118800E+02  0.7818608E-02  0.1130116E+00
         25   -1    0    0    0    0  0.00000000000E+00  0.00000000000E+00  0.99999998245E-14  0.12500000000E+03  0.12500000000E+03 0.  0.
        -13    1    3    3    0    0  0.34210705219E+02 -0.39231643523E+02  0.32310585480E+02  0.61265645375E+02  0.10566000000E+00 0. -1.
         23    2    1    0    0    0  0.11680908136E+02 -0.23970425281E+02  0.97684020270E+01  0.96601996880E+02  0.92333629951E+02 0.  0.
         13    1    3    3    0    0 -0.22529797082E+02  0.15261218242E+02 -0.22542183453E+02  0.35336351505E+02  0.10566000000E+00 0.  1.
         22    1    1    0    0    0 -0.11680908136E+02  0.23970425281E+02 -0.97684020270E+01  0.28398003120E+02  0.00000000000E+00 0. -1.
</event>
<event>
 5    1  0.1764311E-003  0.9118800E+02  0.7818608E-02  0.1130116E+00
         25   -1    0    0    0    0  0.00000000000E+00  0.00000000000E+00  0.99999998245E-14  0.12500000000E+03  0.12500000000E+03 0.  0.
        -13    1    3    3    0    0 -0.27464330646E+02  0.51548011213E+02  0.29847253644E+01  0.58484242898E+02  0.10566000000E+00 0.  1.
         23    2    1    0    0    0 -0.22715970631E+02  0.14838474764E+02  0.98566005671E+01  0.96132228528E+02  0.91695458622E+02 0.  0.
         13    1    3    3    0    0  0.47483600155E+01 -0.36709536449E+02  0.68718752027E+01  0.37647985630E+02  0.10566000000E+00 0. -1.
         22    1    1    0    0    0  0.22715970631E+02 -0.14838474764E+02 -0.98566005671E+01  0.28867771472E+02  0.00000000000E+00 0.  1.
</event>
<event>
 5    1  0.1764311E-003  0.9118800E+02  0.7818608E-02  0.1130116E+00
         25   -1    0    0    0    0  0.00000000000E+00  0.00000000000E+00  0.99999998245E-14  0.12500000000E+03  0.12500000000E+03 0.  0.
        -13    1    3    3    0    0 -0.35148905605E+02 -0.44203623718E+02 -0.23806052344E+01  0.56525077270E+02  0.10566000000E+00 0. -1.
         23    2    1    0    0    0 -0.79269037900E+01 -0.13056067721E+02  0.16948003649E+02  0.10218483978E+03  0.99605270673E+02 0.  0.
         13    1    3    3    0    0  0.27222001815E+02  0.31147555998E+02  0.19328608883E+02  0.45659762514E+02  0.10566000000E+00 0.  1.
         22    1    1    0    0    0  0.79269037900E+01  0.13056067721E+02 -0.16948003649E+02  0.22815160216E+02  0.00000000000E+00 0. -1.
</event>
<event>
 5    1  0.1764311E-003  0.9118800E+02  0.7818608E-02  0.1130116E+00
         25   -1    0    0    0    0  0.00000000000E+00  0.00000000000E+00  0.99999998245E-14  0.12500000000E+03  0.12500000000E+03 0.  0.
        -13    1    3    3    0    0 -0.37531129865E+02 -0.23673744715E+02  0.19404755226E+02  0.48431266628E+02  0.10566000000E+00 0.  1.
         23    2    1    0    0    0 -0.19150089106E+02  0.19330520619E+02  0.53145925789E+01  0.97275645464E+02  0.93241146314E+02 0.  0.
         13    1    3    3    0    0  0.18381040759E+02  0.43004265334E+02 -0.14090162647E+02  0.48844378835E+02  0.10566000000E+00 0. -1.
         22    1    1    0    0    0  0.19150089106E+02 -0.19330520619E+02 -0.53145925789E+01  0.27724354536E+02  0.00000000000E+00 0. -1.
</event>
<event>
 5    1  0.1764311E-003  0.9118800E+02  0.7818608E-02  0.1130116E+00
         25   -1    0    0    0    0  0.00000000000E+00  0.00000000000E+00  0.99999998245E-14  0.12500000000E+03  0.12500000000E+03 0.  0.
        -13    1    3    3    0    0  0.84926339419E+01 -0.74210645117E+01 -0.32817722865E+02  0.34701745314E+02  0.10566000000E+00 0. -1.
         23    2    1    0    0    0  0.47614651129E+01 -0.13730685759E+02  0.26663559845E+02  0.94633098527E+02  0.89628536928E+02 0.  0.
         13    1    3    3    0    0 -0.37311688291E+01 -0.63096212477E+01  0.59481282710E+02  0.59931353213E+02  0.10566000000E+00 0.  1.
         22    1    1    0    0    0 -0.47614651129E+01  0.13730685759E+02 -0.26663559845E+02  0.30366901473E+02  0.00000000000E+00 0.  1.
</event>
<event>
 5    1  0.1764311E-003  0.9118800E+02  0.7818608E-02  0.1130116E+00
         25   -1    0    0    0    0  0.00000000000E+00  0.00000000000E+00  0.99999998245E-14  0.12500000000E+03  0.12500000000E+03 0.  0.
        -13    1    3    3    0    0  0.38616125950E+02  0.92162168537E+01  0.21643864183E+02  0.45217384458E+02  0.10566000000E+00 0.  1.
         23    2    1    0    0    0 -0.11329862887E+02  0.17495204248E+01  0.26672379308E+02  0.95968251297E+02  0.91471650386E+02 0.  0.
         13    1    3    3    0    0 -0.49945988837E+02 -0.74666964288E+01  0.50285151255E+01  0.50750866839E+02  0.10566000000E+00 0. -1.
         22    1    1    0    0    0  0.11329862887E+02 -0.17495204248E+01 -0.26672379308E+02  0.29031748703E+02  0.00000000000E+00 0.  1.
</event>
<event>
 5    1  0.1764311E-003  0.9118800E+02  0.7818608E-02  0.1130116E+00
         25   -1    0    0    0    0  0.00000000000E+00  0.00000000000E+00  0.99999998245E-14  0.12500000000E+03  0.12500000000E+03 0.  0.
        -13    1    3    3    0    0  0.25891853557E+00 -0.32482313786E+02 -0.22777647112E+02  0.39673670358E+02  0.10566000000E+00 0. -1.
         23    2    1    0    0    0 -0.26336604569E+02 -0.20747326208E+01  0.14690575981E+02  0.94771962050E+02  0.89821993478E+02 0.  0.
         13    1    3    3    0    0 -0.26595523105E+02  0.30407581165E+02  0.37468223093E+02  0.55098291691E+02  0.10566000000E+00 0.  1.
         22    1    1    0    0    0  0.26336604569E+02  0.20747326208E+01 -0.14690575981E+02  0.30228037950E+02  0.00000000000E+00 0.  1.
</event>
<event>
 5    1  0.1764311E-003  0.9118800E+02  0.7818608E-02  0.1130116E+00
         25   -1    0    0    0    0  0.00000000000E+00  0.00000000000E+00  0.99999998245E-14  0.12500000000E+03  0.12500000000E+03 0.  0.
        -13    1    3    3    0    0 -0.10669641183E+02 -0.25976087669E+02 -0.34283674195E+02  0.44316812317E+02  0.10566000000E+00 0. -1.
         23    2    1    0    0    0 -0.25989198407E+02  0.13709842866E+02 -0.71995032892E+01  0.94747213800E+02  0.89787546186E+02 0.  0.
         13    1    3    3    0    0 -0.15319557224E+02  0.39685930536E+02  0.27084170906E+02  0.50430401483E+02  0.10566000000E+00 0.  1.
         22    1    1    0    0    0  0.25989198407E+02 -0.13709842866E+02  0.71995032892E+01  0.30252786200E+02  0.00000000000E+00 0.  1.
</event>
<event>
 5    1  0.1764311E-003  0.9118800E+02  0.7818608E-02  0.1130116E+00
         25   -1    0    0    0    0  0.00000000000E+00  0.00000000000E+00  0.99999998245E-14  0.12500000000E+03  0.12500000000E+03 0.  0.
        -13    1    3    3    0    0  0.42070543589E+02  0.19190094160E+02  0.29156953495E+02  0.54665614904E+02  0.10566000000E+00 0.  1.
         23    2    1    0    0    0  0.90693178527E+01  0.28192241497E+02  0.10878195335E+02  0.93450195869E+02  0.87963338769E+02 0.  0.
         13    1    3    3    0    0 -0.33001225736E+02  0.90021473371E+01 -0.18278758159E+02  0.38784580965E+02  0.10566000000E+00 0. -1.
         22    1    1    0    0    0 -0.90693178527E+01 -0.28192241497E+02 -0.10878195335E+02  0.31549804131E+02  0.00000000000E+00 0.  1.
</event>
<event>
 5    1  0.1764311E-003  0.9118800E+02  0.7818608E-02  0.1130116E+00
         25   -1    0    0    0    0  0.00000000000E+00  0.00000000000E+00  0.99999998245E-14  0.12500000000E+03  0.12500000000E+03 0.  0.
        -13    1    3    3    0    0 -0.13810141772E+01  0.33395838190E+02 -0.24237088184E+02  0.41287247622E+02  0.10566000000E+00 0.  1.
         23    2    1    0    0    0 -0.23688730644E+02 -0.14151032185E+02 -0.76134155312E+01  0.96375329391E+02  0.92026259012E+02 0.  0.
         13    1    3    3    0    0 -0.22307716467E+02 -0.47546870375E+02  0.16623672652E+02  0.55088081768E+02  0.10566000000E+00 0. -1.
         22    1    1    0    0    0  0.23688730644E+02  0.14151032185E+02  0.76134155312E+01  0.28624670609E+02  0.00000000000E+00 0. -1.
</event>
<event>
 5    1  0.1764311E-003  0.9118800E+02  0.7818608E-02  0.1130116E+00
         25   -1    0    0    0    0  0.00000000000E+00  0.00000000000E+00  0.99999998245E-14  0.12500000000E+03  0.12500000000E+03 0.  0.
        -13    1    3    3    0    0 -0.30624267141E+02  0.55054938243E+01 -0.37468241771E+02  0.48703557422E+02  0.10566000000E+00 0.  1.
         23    2    1    0    0    0 -0.28752017829E+02 -0.16082629160E+02  0.79501283985E-01  0.92055564804E+02  0.85958659837E+02 0.  0.
         13    1    3    3    0    0  0.18722493119E+01 -0.21588122984E+02  0.37547743055E+02  0.43352007381E+02  0.10566000000E+00 0. -1.
         22    1    1    0    0    0  0.28752017829E+02  0.16082629160E+02 -0.79501283985E-01  0.32944435196E+02  0.00000000000E+00 0.  1.
</event>
<event>
 5    1  0.1764311E-003  0.9118800E+02  0.7818608E-02  0.1130116E+00
         25   -1    0    0    0    0  0.00000000000E+00  0.00000000000E+00  0.99999998245E-14  0.12500000000E+03  0.12500000000E+03 0.  0.
        -13    1    3    3    0    0 -0.10599726993E+02 -0.15620046938E+02  0.39783046650E+02  0.44034555107E+02  0.10566000000E+00 0.  1.
         23    2    1    0    0    0 -0.23780729043E+02 -0.17335575828E+02 -0.87044010015E+01  0.94311046614E+02  0.89178257740E+02 0.  0.
         13    1    3    3    0    0 -0.13181002050E+02 -0.17155288907E+01 -0.48487447652E+02  0.50276491507E+02  0.10566000000E+00 0. -1.
         22    1    1    0    0    0  0.23780729043E+02  0.17335575828E+02  0.87044010015E+01  0.30688953386E+02  0.00000000000E+00 0. -1.
</event>
<event>
 5    1  0.1764311E-003  0.9118800E+02  0.7818608E-02  0.1130116E+00
         25   -1    0    0    0    0  0.00000000000E+00  0.00000000000E+00  0.99999998245E-14  0.12500000000E+03  0.12500000000E+03 0.  0.
        -13    1    3    3    0    0  0.32499678858E+02 -0.84725260925E+01 -0.35762438029E+01  0.33775930898E+02  0.10566000000E+00 0.  1.
         23    2    1    0    0    0 -0.18953824679E+02  0.23572573438E+02  0.22327890726E+01  0.94670162620E+02  0.89680213287E+02 0.  0.
         13    1    3    3    0    0 -0.51453503537E+02  0.32045099530E+02  0.58090328755E+01  0.60894231723E+02  0.10566000000E+00 0. -1.
         22    1    1    0    0    0  0.18953824679E+02 -0.23572573438E+02 -0.22327890726E+01  0.30329837380E+02  0.00000000000E+00 0. -1.
</event>
<event>
 5    1  0.1764311E-003  0.9118800E+02  0.7818608E-02  0.1130116E+00
         25   -1    0    0    0    0  0.00000000000E+00  0.00000000000E+00  0.99999998245E-14  0.12500000000E+03  0.12500000000E+03 0.  0.
        -13    1    3    3    0    0 -0.37563582355E+02 -0.89961369253E+01 -0.43958742082E+02  0.58517820947E+02  0.10566000000E+00 0.  1.
         23    2    1    0    0    0 -0.85178288142E+01 -0.17549689794E+02 -0.19169836139E+02  0.97649906085E+02  0.93741541065E+02 0.  0.
         13    1    3    3    0    0  0.29045753540E+02 -0.85535528687E+01  0.24788905943E+02  0.39132085138E+02  0.10566000000E+00 0. -1.
         22    1    1    0    0    0  0.85178288142E+01  0.17549689794E+02  0.19169836139E+02  0.27350093915E+02  0.00000000000E+00 0.  1.
</event>
<event>
 5    1  0.1764311E-003  0.9118800E+02  0.7818608E-02  0.1130116E+00
         25   -1    0    0    0    0  0.00000000000E+00  0.00000000000E+00  0.99999998245E-14  0.12500000000E+03  0.12500000000E+03 0.  0.
        -13    1    3    3    0    0  0.11614616043E+02 -0.36285466745E+02 -0.46136295639E+01  0.38377482258E+02  0.10566000000E+00 0. -1.
         23    2    1    0    0    0 -0.12355494578E+02  0.10403981688E+01  0.28622620965E+02  0.93807130534E+02  0.88469105532E+02 0.  0.
         13    1    3    3    0    0 -0.23970110622E+02  0.37325864913E+02  0.33236250529E+02  0.55429648276E+02  0.10566000000E+00 0.  1.
         22    1    1    0    0    0  0.12355494578E+02 -0.10403981688E+01 -0.28622620965E+02  0.31192869466E+02  0.00000000000E+00 0.  1.
</event>
<event>
 5    1  0.1764311E-003  0.9118800E+02  0.7818608E-02  0.1130116E+00
         25   -1    0    0    0    0  0.00000000000E+00  0.00000000000E+00  0.99999998245E-14  0.12500000000E+03  0.12500000000E+03 0.  0.
        -13    1    3    3    0    0 -0.10739529023E+02 -0.16219398605E+02 -0.28418121119E+02  0.34438454477E+02  0.10566000000E+00 0.  1.
         23    2    1    0    0    0  0.10963025943E+02 -0.20927190198E+02  0.23973237188E+02  0.91342143136E+02  0.84914873750E+02 0.  0.
         13    1    3    3    0    0  0.21702554966E+02 -0.47077915932E+01  0.52391358307E+02  0.56903688659E+02  0.10566000000E+00 0. -1.
         22    1    1    0    0    0 -0.10963025943E+02  0.20927190198E+02 -0.23973237188E+02  0.33657856864E+02  0.00000000000E+00 0. -1.
</event>
<event>
 5    1  0.1764311E-003  0.9118800E+02  0.7818608E-02  0.1130116E+00
         25   -1    0    0    0    0  0.00000000000E+00  0.00000000000E+00  0.99999998245E-14  0.12500000000E+03  0.12500000000E+03 0.  0.
        -13    1    3    3    0    0 -0.11851350289E+02  0.47020429926E+02 -0.33940844888E+02  0.59189251135E+02  0.10566000000E+00 0.  1.
         23    2    1    0    0    0 -0.41194671789E+01  0.11916515725E+02 -0.26149578169E+02  0.95969433432E+02  0.91473265810E+02 0.  0.
         13    1    3    3    0    0  0.77318831097E+01 -0.35103914201E+02  0.77912667189E+01  0.36780182297E+02  0.10566000000E+00 0. -1.
         22    1    1    0    0    0  0.41194671789E+01 -0.11916515725E+02  0.26149578169E+02  0.29030566568E+02  0.00000000000E+00 0.  1.
</event>
<event>
 5    1  0.1764311E-003  0.9118800E+02  0.7818608E-02  0.1130116E+00
         25   -1    0    0    0    0  0.00000000000E+00  0.00000000000E+00  0.99999998245E-14  0.12500000000E+03  0.12500000000E+03 0.  0.
        -13    1    3    3    0    0  0.17050440045E+02  0.21648813725E+02 -0.53008996010E+02  0.59744066345E+02  0.10566000000E+00 0.  1.
         23    2    1    0    0    0  0.72507483937E+01 -0.23292047995E+01 -0.28838342470E+02  0.95173023222E+02  0.90378403425E+02 0.  0.
         13    1    3    3    0    0 -0.97996916514E+01 -0.23978018524E+02  0.24170653540E+02  0.35428956877E+02  0.10566000000E+00 0. -1.
         22    1    1    0    0    0 -0.72507483937E+01  0.23292047995E+01  0.28838342470E+02  0.29826976778E+02  0.00000000000E+00 0.  1.
</event>
<event>
 5    1  0.1764311E-003  0.9118800E+02  0.7818608E-02  0.1130116E+00
         25   -1    0    0    0    0  0.00000000000E+00  0.00000000000E+00  0.99999998245E-14  0.12500000000E+03  0.12500000000E+03 0.  0.
        -13    1    3    3    0    0 -0.33188791798E+02  0.44736446991E+01  0.52575283800E+02  0.62335231039E+02  0.10566000000E+00 0.  1.
         23    2    1    0    0    0 -0.13330332375E+02  0.52410579403E+00  0.26330698381E+02  0.95482579290E+02  0.90805532995E+02 0.  0.
         13    1    3    3    0    0  0.19858459423E+02 -0.39495389051E+01 -0.26244585419E+02  0.33147348251E+02  0.10566000000E+00 0. -1.
         22    1    1    0    0    0  0.13330332375E+02 -0.52410579403E+00 -0.26330698381E+02  0.29517420710E+02  0.00000000000E+00 0.  1.
</event>
<event>
 5    1  0.1764311E-003  0.9118800E+02  0.7818608E-02  0.1130116E+00
         25   -1    0    0    0    0  0.00000000000E+00  0.00000000000E+00  0.99999998245E-14  0.12500000000E+03  0.12500000000E+03 0.  0.
        -13    1    3    3    0    0 -0.10508023949E+02 -0.37644757075E+02  0.46534673074E+00  0.39086749854E+02  0.10566000000E+00 0. -1.
         23    2    1    0    0    0  0.14098743378E+01  0.92052843869E+01 -0.28209080989E+02  0.95293481245E+02  0.90544852484E+02 0.  0.
         13    1    3    3    0    0  0.11917898286E+02  0.46850041462E+02 -0.28674427720E+02  0.56206731391E+02  0.10566000000E+00 0.  1.
         22    1    1    0    0    0 -0.14098743378E+01 -0.92052843869E+01  0.28209080989E+02  0.29706518755E+02  0.00000000000E+00 0.  1.
</event>
<event>
 5    1  0.1764311E-003  0.9118800E+02  0.7818608E-02  0.1130116E+00
         25   -1    0    0    0    0  0.00000000000E+00  0.00000000000E+00  0.99999998245E-14  0.12500000000E+03  0.12500000000E+03 0.  0.
        -13    1    3    3    0    0  0.36114068234E+02  0.99237917631E+01 -0.60324785092E+01  0.37935597114E+02  0.10566000000E+00 0.  1.
         23    2    1    0    0    0 -0.19701602349E+02  0.22207303147E+02 -0.12515875721E+01  0.95286637356E+02  0.90535403787E+02 0.  0.
         13    1    3    3    0    0 -0.55815670584E+02  0.12283511384E+02  0.47808909372E+01  0.57351040242E+02  0.10566000000E+00 0. -1.
         22    1    1    0    0    0  0.19701602349E+02 -0.22207303147E+02  0.12515875721E+01  0.29713362644E+02  0.00000000000E+00 0. -1.
</event>
<event>
 5    1  0.1764311E-003  0.9118800E+02  0.7818608E-02  0.1130116E+00
         25   -1    0    0    0    0  0.00000000000E+00  0.00000000000E+00  0.99999998245E-14  0.12500000000E+03  0.12500000000E+03 0.  0.
        -13    1    3    3    0    0 -0.15098917875E+02 -0.33250482406E+02 -0.15440963887E+02  0.39648536304E+02  0.10566000000E+00 0.  1.
         23    2    1    0    0    0  0.98544455107E+01  0.17783155960E+02 -0.19796602602E+02  0.96622963389E+02  0.92362009762E+02 0.  0.
         13    1    3    3    0    0  0.24953363386E+02  0.51033638365E+02 -0.43556387154E+01  0.56974427086E+02  0.10566000000E+00 0. -1.
         22    1    1    0    0    0 -0.98544455107E+01 -0.17783155960E+02  0.19796602602E+02  0.28377036611E+02  0.00000000000E+00 0. -1.
</event>
<event>
 5    1  0.1764311E-003  0.9118800E+02  0.7818608E-02  0.1130116E+00
         25   -1    0    0    0    0  0.00000000000E+00  0.00000000000E+00  0.99999998245E-14  0.12500000000E+03  0.12500000000E+03 0.  0.
        -13    1    3    3    0    0 -0.26526345351E+02 -0.56548920807E+01  0.27516855190E+02  0.38636941982E+02  0.10566000000E+00 0. -1.
         23    2    1    0    0    0  0.67711786642E+01 -0.24250625102E+02 -0.14951808148E+02  0.95716929034E+02  0.91127560367E+02 0.  0.
         13    1    3    3    0    0  0.33297524015E+02 -0.18595733021E+02 -0.42468663338E+02  0.57079987052E+02  0.10566000000E+00 0.  1.
         22    1    1    0    0    0 -0.67711786642E+01  0.24250625102E+02  0.14951808148E+02  0.29283070966E+02  0.00000000000E+00 0.  1.
</event>
<event>
 5    1  0.1764311E-003  0.9118800E+02  0.7818608E-02  0.1130116E+00
         25   -1    0    0    0    0  0.00000000000E+00  0.00000000000E+00  0.99999998245E-14  0.12500000000E+03  0.12500000000E+03 0.  0.
        -13    1    3    3    0    0 -0.14026392305E+01  0.57156477553E+02  0.13410013462E+01  0.57189507532E+02  0.10566000000E+00 0.  1.
         23    2    1    0    0    0 -0.71148747327E+01  0.24084179510E+02 -0.16255627515E+02  0.95084877218E+02  0.90256408661E+02 0.  0.
         13    1    3    3    0    0 -0.57122355022E+01 -0.33072298043E+02 -0.17596628862E+02  0.37895369686E+02  0.10566000000E+00 0. -1.
         22    1    1    0    0    0  0.71148747327E+01 -0.24084179510E+02  0.16255627515E+02  0.29915122782E+02  0.00000000000E+00 0.  1.
</event>
<event>
 5    1  0.1764311E-003  0.9118800E+02  0.7818608E-02  0.1130116E+00
         25   -1    0    0    0    0  0.00000000000E+00  0.00000000000E+00  0.99999998245E-14  0.12500000000E+03  0.12500000000E+03 0.  0.
        -13    1    3    3    0    0  0.21510489052E+02 -0.15098762912E+02  0.53261883901E+02  0.59392871807E+02  0.10566000000E+00 0. -1.
         23    2    1    0    0    0  0.22727273884E+02 -0.74321078879E+01  0.19183629921E+02  0.94344219749E+02  0.89224743974E+02 0.  0.
         13    1    3    3    0    0  0.12167848316E+01  0.76666550239E+01 -0.34078253981E+02  0.34951347942E+02  0.10566000000E+00 0.  1.
         22    1    1    0    0    0 -0.22727273884E+02  0.74321078879E+01 -0.19183629921E+02  0.30655780251E+02  0.00000000000E+00 0. -1.
</event>
<event>
 5    1  0.1764311E-003  0.9118800E+02  0.7818608E-02  0.1130116E+00
         25   -1    0    0    0    0  0.00000000000E+00  0.00000000000E+00  0.99999998245E-14  0.12500000000E+03  0.12500000000E+03 0.  0.
        -13    1    3    3    0    0  0.50111523177E+02  0.30377987045E+02  0.12167807834E+02  0.59850259511E+02  0.10566000000E+00 0. -1.
         23    2    1    0    0    0  0.24940814697E+02  0.54368829613E+01  0.14990285873E+02  0.95397422331E+02  0.90688232880E+02 0.  0.
         13    1    3    3    0    0 -0.25170708480E+02 -0.24941104083E+02  0.28224780384E+01  0.35547162821E+02  0.10566000000E+00 0.  1.
         22    1    1    0    0    0 -0.24940814697E+02 -0.54368829613E+01 -0.14990285873E+02  0.29602577669E+02  0.00000000000E+00 0. -1.
</event>
<event>
 5    1  0.1764311E-003  0.9118800E+02  0.7818608E-02  0.1130116E+00
         25   -1    0    0    0    0  0.00000000000E+00  0.00000000000E+00  0.99999998245E-14  0.12500000000E+03  0.12500000000E+03 0.  0.
        -13    1    3    3    0    0  0.56463134755E+02  0.12649518747E+02  0.75566347700E+01  0.58354175549E+02  0.10566000000E+00 0.  1.
         23    2    1    0    0    0  0.37362979842E+02 -0.50672397466E+01  0.13274765591E+02  0.85026401428E+02  0.75043989479E+02 0.  0.
         13    1    3    3    0    0 -0.19100154913E+02 -0.17716758493E+02  0.57181308213E+01  0.26672225879E+02  0.10566000000E+00 0. -1.
         22    1    1    0    0    0 -0.37362979842E+02  0.50672397466E+01 -0.13274765591E+02  0.39973598572E+02  0.00000000000E+00 0.  1.
</event>
<event>
 5    1  0.1764311E-003  0.9118800E+02  0.7818608E-02  0.1130116E+00
         25   -1    0    0    0    0  0.00000000000E+00  0.00000000000E+00  0.99999998245E-14  0.12500000000E+03  0.12500000000E+03 0.  0.
        -13    1    3    3    0    0 -0.32873246404E+02  0.60177377520E+01  0.14056286580E+02  0.36255397574E+02  0.10566000000E+00 0.  1.
         23    2    1    0    0    0  0.22851668240E+02 -0.14908458933E+02  0.10080226034E+02  0.95912685824E+02  0.91395686200E+02 0.  0.
         13    1    3    3    0    0  0.55724914644E+02 -0.20926196685E+02 -0.39760605466E+01  0.59657288250E+02  0.10566000000E+00 0. -1.
         22    1    1    0    0    0 -0.22851668240E+02  0.14908458933E+02 -0.10080226034E+02  0.29087314176E+02  0.00000000000E+00 0. -1.
</event>
<event>
 5    1  0.1764311E-003  0.9118800E+02  0.7818608E-02  0.1130116E+00
         25   -1    0    0    0    0  0.00000000000E+00  0.00000000000E+00  0.99999998245E-14  0.12500000000E+03  0.12500000000E+03 0.  0.
        -13    1    3    3    0    0  0.28452418467E+02 -0.22483001276E+01 -0.24112904580E+02  0.37363595938E+02  0.10566000000E+00 0. -1.
         23    2    1    0    0    0 -0.60214063561E+01 -0.28122437362E+02  0.12233782801E+02  0.93746292071E+02  0.88383103689E+02 0.  0.
         13    1    3    3    0    0 -0.34473824823E+02 -0.25874137235E+02  0.36346687382E+02  0.56382696133E+02  0.10566000000E+00 0.  1.
         22    1    1    0    0    0  0.60214063561E+01  0.28122437362E+02 -0.12233782801E+02  0.31253707929E+02  0.00000000000E+00 0.  1.
</event>
<event>
 5    1  0.1764311E-003  0.9118800E+02  0.7818608E-02  0.1130116E+00
         25   -1    0    0    0    0  0.00000000000E+00  0.00000000000E+00  0.99999998245E-14  0.12500000000E+03  0.12500000000E+03 0.  0.
        -13    1    3    3    0    0 -0.78422046220E+01  0.37948139029E+02  0.36964195876E+02  0.53553005237E+02  0.10566000000E+00 0. -1.
         23    2    1    0    0    0  0.11689056979E+02  0.27036974485E+02  0.14725804915E+01  0.95507619024E+02  0.90839995354E+02 0.  0.
         13    1    3    3    0    0  0.19531261601E+02 -0.10911164544E+02 -0.35491615384E+02  0.41954613787E+02  0.10566000000E+00 0.  1.
         22    1    1    0    0    0 -0.11689056979E+02 -0.27036974485E+02 -0.14725804915E+01  0.29492380976E+02  0.00000000000E+00 0.  1.
</event>
<event>
 5    1  0.1764311E-003  0.9118800E+02  0.7818608E-02  0.1130116E+00
         25   -1    0    0    0    0  0.00000000000E+00  0.00000000000E+00  0.99999998245E-14  0.12500000000E+03  0.12500000000E+03 0.  0.
        -13    1    3    3    0    0  0.46109754296E+01 -0.34540737593E+02 -0.35085803127E+02  0.49450464032E+02  0.10566000000E+00 0.  1.
         23    2    1    0    0    0 -0.30866309121E+01  0.11270730483E+02 -0.25594539369E+02  0.96863953698E+02  0.92687585062E+02 0.  0.
         13    1    3    3    0    0 -0.76976063417E+01  0.45811468075E+02  0.94912637584E+01  0.47413489667E+02  0.10566000000E+00 0. -1.
         22    1    1    0    0    0  0.30866309121E+01 -0.11270730483E+02  0.25594539369E+02  0.28136046302E+02  0.00000000000E+00 0. -1.
</event>
<event>
 5    1  0.1764311E-003  0.9118800E+02  0.7818608E-02  0.1130116E+00
         25   -1    0    0    0    0  0.00000000000E+00  0.00000000000E+00  0.99999998245E-14  0.12500000000E+03  0.12500000000E+03 0.  0.
        -13    1    3    3    0    0  0.18112189342E+02 -0.29919534689E+02 -0.35901801525E+01  0.35158647818E+02  0.10566000000E+00 0.  1.
         23    2    1    0    0    0 -0.70897449026E+01  0.20666461999E+02  0.19022315364E+02  0.96030781575E+02  0.91557060862E+02 0.  0.
         13    1    3    3    0    0 -0.25201934245E+02  0.50585996688E+02  0.22612495517E+02  0.60872133757E+02  0.10566000000E+00 0. -1.
         22    1    1    0    0    0  0.70897449026E+01 -0.20666461999E+02 -0.19022315364E+02  0.28969218425E+02  0.00000000000E+00 0. -1.
</event>
<event>
 5    1  0.1764311E-003  0.9118800E+02  0.7818608E-02  0.1130116E+00
         25   -1    0    0    0    0  0.00000000000E+00  0.00000000000E+00  0.99999998245E-14  0.12500000000E+03  0.12500000000E+03 0.  0.
        -13    1    3    3    0    0  0.11518774176E+02 -0.16997708645E+02  0.35875798991E+02  0.41336284001E+02  0.10566000000E+00 0. -1.
         23    2    1    0    0    0 -0.59213579333E+01  0.26939031311E+02  0.77193202013E+01  0.96358041406E+02  0.92002773607E+02 0.  0.
         13    1    3    3    0    0 -0.17440132110E+02  0.43936739956E+02 -0.28156478790E+02  0.55021757404E+02  0.10566000000E+00 0.  1.
         22    1    1    0    0    0  0.59213579333E+01 -0.26939031311E+02 -0.77193202013E+01  0.28641958594E+02  0.00000000000E+00 0.  1.
</event>
<event>
 5    1  0.1764311E-003  0.9118800E+02  0.7818608E-02  0.1130116E+00
         25   -1    0    0    0    0  0.00000000000E+00  0.00000000000E+00  0.99999998245E-14  0.12500000000E+03  0.12500000000E+03 0.  0.
        -13    1    3    3    0    0 -0.48969916877E+02  0.18051928017E+02  0.26847505479E+02  0.58691776072E+02  0.10566000000E+00 0. -1.
         23    2    1    0    0    0 -0.13558940676E+02  0.36089634617E+01  0.24200066079E+02  0.97026571755E+02  0.92906635602E+02 0.  0.
         13    1    3    3    0    0  0.35410976201E+02 -0.14442964556E+02 -0.26474393994E+01  0.38334795683E+02  0.10566000000E+00 0.  1.
         22    1    1    0    0    0  0.13558940676E+02 -0.36089634617E+01 -0.24200066079E+02  0.27973428245E+02  0.00000000000E+00 0. -1.
</event>
<event>
 5    1  0.1764311E-003  0.9118800E+02  0.7818608E-02  0.1130116E+00
         25   -1    0    0    0    0  0.00000000000E+00  0.00000000000E+00  0.99999998245E-14  0.12500000000E+03  0.12500000000E+03 0.  0.
        -13    1    3    3    0    0 -0.25644590061E+02  0.27869356610E+02 -0.37713696544E+02  0.53447919589E+02  0.10566000000E+00 0. -1.
         23    2    1    0    0    0 -0.12120178638E+02 -0.37136141985E+01 -0.34840737736E+02  0.87924851091E+02  0.79725860125E+02 0.  0.
         13    1    3    3    0    0  0.13524411423E+02 -0.31582970809E+02  0.28729588080E+01  0.34476931502E+02  0.10566000000E+00 0.  1.
         22    1    1    0    0    0  0.12120178638E+02  0.37136141985E+01  0.34840737736E+02  0.37075148909E+02  0.00000000000E+00 0. -1.
</event>
<event>
 5    1  0.1764311E-003  0.9118800E+02  0.7818608E-02  0.1130116E+00
         25   -1    0    0    0    0  0.00000000000E+00  0.00000000000E+00  0.99999998245E-14  0.12500000000E+03  0.12500000000E+03 0.  0.
        -13    1    3    3    0    0 -0.23433988020E+02  0.31486954199E+02 -0.47607003363E+02  0.61701037370E+02  0.10566000000E+00 0.  1.
         23    2    1    0    0    0 -0.74698030381E+01  0.20222480996E+02 -0.19505462109E+02  0.95927508756E+02  0.91415956971E+02 0.  0.
         13    1    3    3    0    0  0.15964184982E+02 -0.11264473204E+02  0.28101541254E+02  0.34226471386E+02  0.10566000000E+00 0. -1.
         22    1    1    0    0    0  0.74698030381E+01 -0.20222480996E+02  0.19505462109E+02  0.29072491244E+02  0.00000000000E+00 0.  1.
</event>
<event>
 5    1  0.1764311E-003  0.9118800E+02  0.7818608E-02  0.1130116E+00
         25   -1    0    0    0    0  0.00000000000E+00  0.00000000000E+00  0.99999998245E-14  0.12500000000E+03  0.12500000000E+03 0.  0.
        -13    1    3    3    0    0 -0.89876815117E+01  0.42880075404E+01  0.60683880280E+02  0.61495608928E+02  0.10566000000E+00 0.  1.
         23    2    1    0    0    0 -0.59152800671E+01 -0.56855070760E+01  0.29547075610E+02  0.94334951392E+02  0.89211758463E+02 0.  0.
         13    1    3    3    0    0  0.30724014446E+01 -0.99735146164E+01 -0.31136804669E+02  0.32839342464E+02  0.10566000000E+00 0. -1.
         22    1    1    0    0    0  0.59152800671E+01  0.56855070760E+01 -0.29547075610E+02  0.30665048608E+02  0.00000000000E+00 0.  1.
</event>
<event>
 5    1  0.1764311E-003  0.9118800E+02  0.7818608E-02  0.1130116E+00
         25   -1    0    0    0    0  0.00000000000E+00  0.00000000000E+00  0.99999998245E-14  0.12500000000E+03  0.12500000000E+03 0.  0.
        -13    1    3    3    0    0  0.38129340106E+02  0.45614712316E+02  0.57604567906E+00  0.59454953951E+02  0.10566000000E+00 0.  1.
         23    2    1    0    0    0  0.25225605680E+02  0.11861460272E+02  0.72395823138E+01  0.96200052538E+02  0.91787870302E+02 0.  0.
         13    1    3    3    0    0 -0.12903734426E+02 -0.33753252044E+02  0.66635366347E+01  0.36745098588E+02  0.10566000000E+00 0. -1.
         22    1    1    0    0    0 -0.25225605680E+02 -0.11861460272E+02 -0.72395823138E+01  0.28799947462E+02  0.00000000000E+00 0.  1.
</event>
<event>
 5    1  0.1764311E-003  0.9118800E+02  0.7818608E-02  0.1130116E+00
         25   -1    0    0    0    0  0.00000000000E+00  0.00000000000E+00  0.99999998245E-14  0.12500000000E+03  0.12500000000E+03 0.  0.
        -13    1    3    3    0    0 -0.24504402636E+02  0.38882305419E+02  0.38248532391E+02  0.59793484740E+02  0.10566000000E+00 0. -1.
         23    2    1    0    0    0 -0.31692198007E+00  0.19632339470E+02  0.24438393653E+02  0.93650928611E+02  0.88248128324E+02 0.  0.
         13    1    3    3    0    0  0.24187480656E+02 -0.19249965949E+02 -0.13810138738E+02  0.33857443871E+02  0.10566000000E+00 0.  1.
         22    1    1    0    0    0  0.31692198007E+00 -0.19632339470E+02 -0.24438393653E+02  0.31349071389E+02  0.00000000000E+00 0. -1.
</event>
<event>
 5    1  0.1764311E-003  0.9118800E+02  0.7818608E-02  0.1130116E+00
         25   -1    0    0    0    0  0.00000000000E+00  0.00000000000E+00  0.99999998245E-14  0.12500000000E+03  0.12500000000E+03 0.  0.
        -13    1    3    3    0    0  0.25452172655E+02  0.10160776417E+02 -0.55851131017E+02  0.62212655225E+02  0.10566000000E+00 0.  1.
         23    2    1    0    0    0  0.13586161464E+02  0.86981947554E+00 -0.26210934104E+02  0.95464370061E+02  0.90780463291E+02 0.  0.
         13    1    3    3    0    0 -0.11866011190E+02 -0.92909569418E+01  0.29640196913E+02  0.33251714836E+02  0.10566000000E+00 0. -1.
         22    1    1    0    0    0 -0.13586161464E+02 -0.86981947554E+00  0.26210934104E+02  0.29535629939E+02  0.00000000000E+00 0.  1.
</event>
<event>
 5    1  0.1764311E-003  0.9118800E+02  0.7818608E-02  0.1130116E+00
         25   -1    0    0    0    0  0.00000000000E+00  0.00000000000E+00  0.99999998245E-14  0.12500000000E+03  0.12500000000E+03 0.  0.
        -13    1    3    3    0    0 -0.18574856376E+02  0.13012317555E+01 -0.30988064221E+02  0.36152313642E+02  0.10566000000E+00 0.  1.
         23    2    1    0    0    0  0.54893236422E+01 -0.25182964770E+02  0.15581084972E+02  0.94882154832E+02  0.89975211630E+02 0.  0.
         13    1    3    3    0    0  0.24064180019E+02 -0.26484196526E+02  0.46569149193E+02  0.58729841190E+02  0.10566000000E+00 0. -1.
         22    1    1    0    0    0 -0.54893236422E+01  0.25182964770E+02 -0.15581084972E+02  0.30117845168E+02  0.00000000000E+00 0. -1.
</event>
<event>
 5    1  0.1764311E-003  0.9118800E+02  0.7818608E-02  0.1130116E+00
         25   -1    0    0    0    0  0.00000000000E+00  0.00000000000E+00  0.99999998245E-14  0.12500000000E+03  0.12500000000E+03 0.  0.
        -13    1    3    3    0    0 -0.17859161018E+02  0.39094699354E+02  0.39794570283E+02  0.58574432459E+02  0.10566000000E+00 0. -1.
         23    2    1    0    0    0 -0.18579562043E+02  0.21028333026E+02  0.69112192145E+01  0.96100936580E+02  0.91652791255E+02 0.  0.
         13    1    3    3    0    0 -0.72040102446E+00 -0.18066366328E+02 -0.32883351069E+02  0.37526504120E+02  0.10566000000E+00 0.  1.
         22    1    1    0    0    0  0.18579562043E+02 -0.21028333026E+02 -0.69112192145E+01  0.28899063420E+02  0.00000000000E+00 0. -1.
</event>
<event>
 5    1  0.1764311E-003  0.9118800E+02  0.7818608E-02  0.1130116E+00
         25   -1    0    0    0    0  0.00000000000E+00  0.00000000000E+00  0.99999998245E-14  0.12500000000E+03  0.12500000000E+03 0.  0.
        -13    1    3    3    0    0  0.27620657355E+02  0.44484178148E+02 -0.15270183071E+02  0.54542941553E+02  0.10566000000E+00 0.  1.
         23    2    1    0    0    0 -0.89774367644E+01  0.25912828240E+02 -0.94470989818E+01  0.95994539869E+02  0.91507567814E+02 0.  0.
         13    1    3    3    0    0 -0.36598094119E+02 -0.18571349909E+02  0.58230840897E+01  0.41451598316E+02  0.10566000000E+00 0. -1.
         22    1    1    0    0    0  0.89774367644E+01 -0.25912828240E+02  0.94470989818E+01  0.29005460131E+02  0.00000000000E+00 0.  1.
</event>
<event>
 5    1  0.1764311E-003  0.9118800E+02  0.7818608E-02  0.1130116E+00
         25   -1    0    0    0    0  0.00000000000E+00  0.00000000000E+00  0.99999998245E-14  0.12500000000E+03  0.12500000000E+03 0.  0.
        -13    1    3    3    0    0  0.20852431955E+02  0.56934146528E+02  0.49030032155E+01  0.60830679462E+02  0.10566000000E+00 0.  1.
         23    2    1    0    0    0  0.15969938906E+02  0.21847483667E+02  0.89743328891E+01  0.96488771650E+02  0.92180219747E+02 0.  0.
         13    1    3    3    0    0 -0.48824930490E+01 -0.35086662861E+02  0.40713296736E+01  0.35658092188E+02  0.10566000000E+00 0. -1.
         22    1    1    0    0    0 -0.15969938906E+02 -0.21847483667E+02 -0.89743328891E+01  0.28511228350E+02  0.00000000000E+00 0.  1.
</event>
<event>
 5    1  0.1764311E-003  0.9118800E+02  0.7818608E-02  0.1130116E+00
         25   -1    0    0    0    0  0.00000000000E+00  0.00000000000E+00  0.99999998245E-14  0.12500000000E+03  0.12500000000E+03 0.  0.
        -13    1    3    3    0    0 -0.31343439537E+02 -0.48927669616E+01 -0.14157902488E+02  0.34739138410E+02  0.10566000000E+00 0. -1.
         23    2    1    0    0    0  0.19556115033E+02  0.22321704206E+02 -0.13339412077E+02  0.92463251109E+02  0.86549481669E+02 0.  0.
         13    1    3    3    0    0  0.50899554570E+02  0.27214471168E+02  0.81849041127E+00  0.57724112699E+02  0.10566000000E+00 0.  1.
         22    1    1    0    0    0 -0.19556115033E+02 -0.22321704206E+02  0.13339412077E+02  0.32536748891E+02  0.00000000000E+00 0.  1.
</event>
<event>
 5    1  0.1764311E-003  0.9118800E+02  0.7818608E-02  0.1130116E+00
         25   -1    0    0    0    0  0.00000000000E+00  0.00000000000E+00  0.99999998245E-14  0.12500000000E+03  0.12500000000E+03 0.  0.
        -13    1    3    3    0    0 -0.30512328465E+02 -0.27541269688E+02 -0.42000677471E+02  0.58767268070E+02  0.10566000000E+00 0.  1.
         23    2    1    0    0    0 -0.17550219871E+00 -0.17664993913E+02 -0.23340666890E+02  0.95727665930E+02  0.91142287017E+02 0.  0.
         13    1    3    3    0    0  0.30336826266E+02  0.98762757746E+01  0.18660010580E+02  0.36960397860E+02  0.10566000000E+00 0. -1.
         22    1    1    0    0    0  0.17550219871E+00  0.17664993913E+02  0.23340666890E+02  0.29272334070E+02  0.00000000000E+00 0.  1.
</event>
<event>
 5    1  0.1764311E-003  0.9118800E+02  0.7818608E-02  0.1130116E+00
         25   -1    0    0    0    0  0.00000000000E+00  0.00000000000E+00  0.99999998245E-14  0.12500000000E+03  0.12500000000E+03 0.  0.
        -13    1    3    3    0    0 -0.36700847778E+02 -0.31125075488E+02  0.50041855989E+01  0.48381562493E+02  0.10566000000E+00 0.  1.
         23    2    1    0    0    0 -0.15007213373E+02  0.98378897984E+01  0.20963830674E+02  0.97405023547E+02  0.93414430827E+02 0.  0.
         13    1    3    3    0    0  0.21693634405E+02  0.40962965286E+02  0.15959645075E+02  0.49023461054E+02  0.10566000000E+00 0. -1.
         22    1    1    0    0    0  0.15007213373E+02 -0.98378897984E+01 -0.20963830674E+02  0.27594976453E+02  0.00000000000E+00 0. -1.
</event>
<event>
 5    1  0.1764311E-003  0.9118800E+02  0.7818608E-02  0.1130116E+00
         25   -1    0    0    0    0  0.00000000000E+00  0.00000000000E+00  0.99999998245E-14  0.12500000000E+03  0.12500000000E+03 0.  0.
        -13    1    3    3    0    0 -0.27984507919E+02 -0.27609064682E+02  0.17787121551E+01  0.39351850237E+02  0.10566000000E+00 0.  1.
         23    2    1    0    0    0 -0.15947243564E+02  0.25884154230E+02 -0.33078264163E+01  0.94418212396E+02  0.89328344320E+02 0.  0.
         13    1    3    3    0    0  0.12037264355E+02  0.53493218912E+02 -0.50865385714E+01  0.55066362159E+02  0.10566000000E+00 0. -1.
         22    1    1    0    0    0  0.15947243564E+02 -0.25884154230E+02  0.33078264163E+01  0.30581787604E+02  0.00000000000E+00 0.  1.
</event>
<event>
 5    1  0.1764311E-003  0.9118800E+02  0.7818608E-02  0.1130116E+00
         25   -1    0    0    0    0  0.00000000000E+00  0.00000000000E+00  0.99999998245E-14  0.12500000000E+03  0.12500000000E+03 0.  0.
        -13    1    3    3    0    0  0.21232563166E+02 -0.10715997479E+02 -0.32988930878E+02  0.40668600481E+02  0.10566000000E+00 0. -1.
         23    2    1    0    0    0 -0.11566789269E+02  0.25586022235E+02 -0.70276213639E+01  0.96054834430E+02  0.91589893589E+02 0.  0.
         13    1    3    3    0    0 -0.32799352435E+02  0.36302019714E+02  0.25961309514E+02  0.55386233950E+02  0.10566000000E+00 0.  1.
         22    1    1    0    0    0  0.11566789269E+02 -0.25586022235E+02  0.70276213639E+01  0.28945165570E+02  0.00000000000E+00 0.  1.
</event>
<event>
 5    1  0.1764311E-003  0.9118800E+02  0.7818608E-02  0.1130116E+00
         25   -1    0    0    0    0  0.00000000000E+00  0.00000000000E+00  0.99999998245E-14  0.12500000000E+03  0.12500000000E+03 0.  0.
        -13    1    3    3    0    0  0.17746806083E+02  0.39186311040E+02 -0.39409463853E+02  0.58340664243E+02  0.10566000000E+00 0.  1.
         23    2    1    0    0    0 -0.33014976873E+01  0.26357285441E+02 -0.10238549605E+02  0.96531872545E+02  0.92238647736E+02 0.  0.
         13    1    3    3    0    0 -0.21048303770E+02 -0.12829025599E+02  0.29170914248E+02  0.38191208302E+02  0.10566000000E+00 0. -1.
         22    1    1    0    0    0  0.33014976873E+01 -0.26357285441E+02  0.10238549605E+02  0.28468127455E+02  0.00000000000E+00 0.  1.
</event>
<event>
 5    1  0.1764311E-003  0.9118800E+02  0.7818608E-02  0.1130116E+00
         25   -1    0    0    0    0  0.00000000000E+00  0.00000000000E+00  0.99999998245E-14  0.12500000000E+03  0.12500000000E+03 0.  0.
        -13    1    3    3    0    0  0.83666945173E+01  0.13746194524E+02  0.29768889822E+02  0.33840174442E+02  0.10566000000E+00 0. -1.
         23    2    1    0    0    0 -0.12354640935E+02 -0.17008512275E+02 -0.20052237572E+02  0.95947997073E+02  0.91443967917E+02 0.  0.
         13    1    3    3    0    0 -0.20721335452E+02 -0.30754706799E+02 -0.49821127393E+02  0.62107822631E+02  0.10566000000E+00 0.  1.
         22    1    1    0    0    0  0.12354640935E+02  0.17008512275E+02  0.20052237572E+02  0.29052002927E+02  0.00000000000E+00 0.  1.
</event>
<event>
 5    1  0.1764311E-003  0.9118800E+02  0.7818608E-02  0.1130116E+00
         25   -1    0    0    0    0  0.00000000000E+00  0.00000000000E+00  0.99999998245E-14  0.12500000000E+03  0.12500000000E+03 0.  0.
        -13    1    3    3    0    0 -0.13117455814E+02  0.34471904431E+02  0.10348354886E+02  0.38307694462E+02  0.10566000000E+00 0.  1.
         23    2    1    0    0    0 -0.73139364615E+01 -0.10101940669E+02 -0.26031480231E+02  0.96135128012E+02  0.91699411138E+02 0.  0.
         13    1    3    3    0    0  0.58035193530E+01 -0.44573845100E+02 -0.36379835117E+02  0.57827433550E+02  0.10566000000E+00 0. -1.
         22    1    1    0    0    0  0.73139364615E+01  0.10101940669E+02  0.26031480231E+02  0.28864871988E+02  0.00000000000E+00 0. -1.
</event>
<event>
 5    1  0.1764311E-003  0.9118800E+02  0.7818608E-02  0.1130116E+00
         25   -1    0    0    0    0  0.00000000000E+00  0.00000000000E+00  0.99999998245E-14  0.12500000000E+03  0.12500000000E+03 0.  0.
        -13    1    3    3    0    0  0.27588675619E+02 -0.60188404396E+01 -0.29556819354E+02  0.40877600186E+02  0.10566000000E+00 0.  1.
         23    2    1    0    0    0 -0.42670342310E+01  0.30213790660E+02 -0.11522738856E+02  0.92383221528E+02  0.86433820823E+02 0.  0.
         13    1    3    3    0    0 -0.31855709850E+02  0.36232631099E+02  0.18034080498E+02  0.51505621342E+02  0.10566000000E+00 0. -1.
         22    1    1    0    0    0  0.42670342310E+01 -0.30213790660E+02  0.11522738856E+02  0.32616778472E+02  0.00000000000E+00 0. -1.
</event>
<event>
 5    1  0.1764311E-003  0.9118800E+02  0.7818608E-02  0.1130116E+00
         25   -1    0    0    0    0  0.00000000000E+00  0.00000000000E+00  0.99999998245E-14  0.12500000000E+03  0.12500000000E+03 0.  0.
        -13    1    3    3    0    0 -0.77552173765E+01  0.17356264211E+02  0.55397511604E+02  0.58568581679E+02  0.10566000000E+00 0. -1.
         23    2    1    0    0    0 -0.10092992251E+02 -0.48104808879E+01  0.32957544127E+02  0.90197572875E+02  0.83212939010E+02 0.  0.
         13    1    3    3    0    0 -0.23377748746E+01 -0.22166745099E+02 -0.22439967477E+02  0.31628991196E+02  0.10566000000E+00 0.  1.
         22    1    1    0    0    0  0.10092992251E+02  0.48104808879E+01 -0.32957544127E+02  0.34802427125E+02  0.00000000000E+00 0. -1.
</event>
<event>
 5    1  0.1764311E-003  0.9118800E+02  0.7818608E-02  0.1130116E+00
         25   -1    0    0    0    0  0.00000000000E+00  0.00000000000E+00  0.99999998245E-14  0.12500000000E+03  0.12500000000E+03 0.  0.
        -13    1    3    3    0    0  0.23716580906E+02 -0.35001570271E+02 -0.25590721272E+02  0.49421476207E+02  0.10566000000E+00 0. -1.
         23    2    1    0    0    0 -0.56916479112E+01 -0.33031447317E+02  0.40689071851E+01  0.91235708603E+02  0.84758050655E+02 0.  0.
         13    1    3    3    0    0 -0.29408228817E+02  0.19701229531E+01  0.29659628457E+02  0.41814232396E+02  0.10566000000E+00 0.  1.
         22    1    1    0    0    0  0.56916479112E+01  0.33031447317E+02 -0.40689071851E+01  0.33764291397E+02  0.00000000000E+00 0. -1.
</event>
<event>
 5    1  0.1764311E-003  0.9118800E+02  0.7818608E-02  0.1130116E+00
         25   -1    0    0    0    0  0.00000000000E+00  0.00000000000E+00  0.99999998245E-14  0.12500000000E+03  0.12500000000E+03 0.  0.
        -13    1    3    3    0    0  0.28775772125E+02  0.21647099167E+02 -0.19903342740E+02  0.41143604364E+02  0.10566000000E+00 0.  1.
         23    2    1    0    0    0 -0.38819572439E+01  0.15961914152E+02  0.23852317615E+02  0.96038208774E+02  0.91567200424E+02 0.  0.
         13    1    3    3    0    0 -0.32657729369E+02 -0.56851850158E+01  0.43755660355E+02  0.54894604410E+02  0.10566000000E+00 0. -1.
         22    1    1    0    0    0  0.38819572439E+01 -0.15961914152E+02 -0.23852317615E+02  0.28961791226E+02  0.00000000000E+00 0. -1.
</event>
<event>
 5    1  0.1764311E-003  0.9118800E+02  0.7818608E-02  0.1130116E+00
         25   -1    0    0    0    0  0.00000000000E+00  0.00000000000E+00  0.99999998245E-14  0.12500000000E+03  0.12500000000E+03 0.  0.
        -13    1    3    3    0    0  0.43383378198E+02  0.25985399070E+02  0.36682177865E+02  0.62473608873E+02  0.10566000000E+00 0.  1.
         23    2    1    0    0    0  0.22845473425E+02  0.14619746505E+02  0.18431559800E+02  0.92207088562E+02  0.86178722087E+02 0.  0.
         13    1    3    3    0    0 -0.20537904772E+02 -0.11365652564E+02 -0.18250618064E+02  0.29733479689E+02  0.10566000000E+00 0. -1.
         22    1    1    0    0    0 -0.22845473425E+02 -0.14619746505E+02 -0.18431559800E+02  0.32792911438E+02  0.00000000000E+00 0.  1.
</event>
<event>
 5    1  0.1764311E-003  0.9118800E+02  0.7818608E-02  0.1130116E+00
         25   -1    0    0    0    0  0.00000000000E+00  0.00000000000E+00  0.99999998245E-14  0.12500000000E+03  0.12500000000E+03 0.  0.
        -13    1    3    3    0    0 -0.17508069195E+02 -0.22557538832E+02  0.34656103548E+02  0.44904695993E+02  0.10566000000E+00 0.  1.
         23    2    1    0    0    0 -0.22873009066E+02  0.18325444602E+02  0.60939579654E+01  0.95064522933E+02  0.90228214729E+02 0.  0.
         13    1    3    3    0    0 -0.53649398705E+01  0.40882983434E+02 -0.28562145582E+02  0.50159826939E+02  0.10566000000E+00 0. -1.
         22    1    1    0    0    0  0.22873009066E+02 -0.18325444602E+02 -0.60939579654E+01  0.29935477067E+02  0.00000000000E+00 0. -1.
</event>
<event>
 5    1  0.1764311E-003  0.9118800E+02  0.7818608E-02  0.1130116E+00
         25   -1    0    0    0    0  0.00000000000E+00  0.00000000000E+00  0.99999998245E-14  0.12500000000E+03  0.12500000000E+03 0.  0.
        -13    1    3    3    0    0  0.33684092259E+02  0.20312121477E+02 -0.92908044304E+01  0.40416958832E+02  0.10566000000E+00 0. -1.
         23    2    1    0    0    0  0.82012493052E+01 -0.19776783751E+02  0.19564869864E+02  0.95997141546E+02  0.91511121654E+02 0.  0.
         13    1    3    3    0    0 -0.25482842954E+02 -0.40088905228E+02  0.28855674295E+02  0.55580182714E+02  0.10566000000E+00 0.  1.
         22    1    1    0    0    0 -0.82012493052E+01  0.19776783751E+02 -0.19564869864E+02  0.29002858454E+02  0.00000000000E+00 0.  1.
</event>
<event>
 5    1  0.1764311E-003  0.9118800E+02  0.7818608E-02  0.1130116E+00
         25   -1    0    0    0    0  0.00000000000E+00  0.00000000000E+00  0.99999998245E-14  0.12500000000E+03  0.12500000000E+03 0.  0.
        -13    1    3    3    0    0 -0.14832856801E+02 -0.21084295028E+02 -0.55214484902E+02  0.60936127582E+02  0.10566000000E+00 0.  1.
         23    2    1    0    0    0 -0.12796167066E+02 -0.17980796303E+02 -0.23903745153E+02  0.92466325759E+02  0.86553922151E+02 0.  0.
         13    1    3    3    0    0  0.20366897352E+01  0.31034987252E+01  0.31310739749E+02  0.31530198177E+02  0.10566000000E+00 0. -1.
         22    1    1    0    0    0  0.12796167066E+02  0.17980796303E+02  0.23903745153E+02  0.32533674241E+02  0.00000000000E+00 0.  1.
</event>
<event>
 5    1  0.1764311E-003  0.9118800E+02  0.7818608E-02  0.1130116E+00
         25   -1    0    0    0    0  0.00000000000E+00  0.00000000000E+00  0.99999998245E-14  0.12500000000E+03  0.12500000000E+03 0.  0.
        -13    1    3    3    0    0 -0.44720584475E+02 -0.12813261513E+02  0.11458814135E+02  0.47910603542E+02  0.10566000000E+00 0.  1.
         23    2    1    0    0    0 -0.17092714758E+02  0.23584577394E+02 -0.26952992046E+01  0.95748370533E+02  0.91170678583E+02 0.  0.
         13    1    3    3    0    0  0.27627869717E+02  0.36397838907E+02 -0.14154113339E+02  0.47837766991E+02  0.10566000000E+00 0. -1.
         22    1    1    0    0    0  0.17092714758E+02 -0.23584577394E+02  0.26952992046E+01  0.29251629467E+02  0.00000000000E+00 0. -1.
</event>
<event>
 5    1  0.1764311E-003  0.9118800E+02  0.7818608E-02  0.1130116E+00
         25   -1    0    0    0    0  0.00000000000E+00  0.00000000000E+00  0.99999998245E-14  0.12500000000E+03  0.12500000000E+03 0.  0.
        -13    1    3    3    0    0 -0.12744702651E+01 -0.40309175795E+02 -0.28398271418E+02  0.49324708932E+02  0.10566000000E+00 0.  1.
         23    2    1    0    0    0 -0.24851791419E+02 -0.15745966724E+02  0.27248703157E+01  0.95453901729E+02  0.90766047794E+02 0.  0.
         13    1    3    3    0    0 -0.23577321154E+02  0.24563209071E+02  0.31123141733E+02  0.46129192796E+02  0.10566000000E+00 0. -1.
         22    1    1    0    0    0  0.24851791419E+02  0.15745966724E+02 -0.27248703157E+01  0.29546098271E+02  0.00000000000E+00 0. -1.
</event>
<event>
 5    1  0.1764311E-003  0.9118800E+02  0.7818608E-02  0.1130116E+00
         25   -1    0    0    0    0  0.00000000000E+00  0.00000000000E+00  0.99999998245E-14  0.12500000000E+03  0.12500000000E+03 0.  0.
        -13    1    3    3    0    0  0.24210926116E+02 -0.10697421622E+02 -0.23793198055E+02  0.35591167591E+02  0.10566000000E+00 0.  1.
         23    2    1    0    0    0 -0.20022646923E+02 -0.46769820332E+01  0.18687666015E+02  0.97214942652E+02  0.93159731982E+02 0.  0.
         13    1    3    3    0    0 -0.44233573039E+02  0.60204395884E+01  0.42480864070E+02  0.61623775061E+02  0.10566000000E+00 0. -1.
         22    1    1    0    0    0  0.20022646923E+02  0.46769820332E+01 -0.18687666015E+02  0.27785057348E+02  0.00000000000E+00 0. -1.
</event>
<event>
 5    1  0.1764311E-003  0.9118800E+02  0.7818608E-02  0.1130116E+00
         25   -1    0    0    0    0  0.00000000000E+00  0.00000000000E+00  0.99999998245E-14  0.12500000000E+03  0.12500000000E+03 0.  0.
        -13    1    3    3    0    0 -0.12901802103E+02  0.21809143733E+02  0.29956516459E+02  0.39236453589E+02  0.10566000000E+00 0.  1.
         23    2    1    0    0    0  0.31092194064E+02 -0.30589783766E-01  0.14199751078E+02  0.90818742005E+02  0.84140867010E+02 0.  0.
         13    1    3    3    0    0  0.43993996167E+02 -0.21839733517E+02 -0.15756765381E+02  0.51582288415E+02  0.10566000000E+00 0. -1.
         22    1    1    0    0    0 -0.31092194064E+02  0.30589783766E-01 -0.14199751078E+02  0.34181257995E+02  0.00000000000E+00 0.  1.
</event>
<event>
 5    1  0.1764311E-003  0.9118800E+02  0.7818608E-02  0.1130116E+00
         25   -1    0    0    0    0  0.00000000000E+00  0.00000000000E+00  0.99999998245E-14  0.12500000000E+03  0.12500000000E+03 0.  0.
        -13    1    3    3    0    0  0.55146239215E+01 -0.10729968241E+02  0.42729314712E+02  0.44399873820E+02  0.10566000000E+00 0.  1.
         23    2    1    0    0    0 -0.86492434613E-01  0.28348651771E+02  0.13040501772E+02  0.93795701824E+02  0.88452956174E+02 0.  0.
         13    1    3    3    0    0 -0.56011163561E+01  0.39078620012E+02 -0.29688812939E+02  0.49395828004E+02  0.10566000000E+00 0. -1.
         22    1    1    0    0    0  0.86492434613E-01 -0.28348651771E+02 -0.13040501772E+02  0.31204298176E+02  0.00000000000E+00 0. -1.
</event>
<event>
 5    1  0.1764311E-003  0.9118800E+02  0.7818608E-02  0.1130116E+00
         25   -1    0    0    0    0  0.00000000000E+00  0.00000000000E+00  0.99999998245E-14  0.12500000000E+03  0.12500000000E+03 0.  0.
        -13    1    3    3    0    0  0.30283950202E+02 -0.89362199374E+01  0.27665994567E+02  0.41980853803E+02  0.10566000000E+00 0.  1.
         23    2    1    0    0    0 -0.18864266304E+02  0.10834882778E+02  0.19888025998E+02  0.95524776403E+02  0.90863601628E+02 0.  0.
         13    1    3    3    0    0 -0.49148216506E+02  0.19771102715E+02 -0.77779685692E+01  0.53543922600E+02  0.10566000000E+00 0. -1.
         22    1    1    0    0    0  0.18864266304E+02 -0.10834882778E+02 -0.19888025998E+02  0.29475223597E+02  0.00000000000E+00 0. -1.
</event>
<event>
 5    1  0.1764311E-003  0.9118800E+02  0.7818608E-02  0.1130116E+00
         25   -1    0    0    0    0  0.00000000000E+00  0.00000000000E+00  0.99999998245E-14  0.12500000000E+03  0.12500000000E+03 0.  0.
        -13    1    3    3    0    0 -0.32762190708E+02  0.13373528415E+00 -0.33262553872E+02  0.46688196358E+02  0.10566000000E+00 0.  1.
         23    2    1    0    0    0 -0.94751554986E+01 -0.26919873013E+02  0.13765010877E+01  0.96428110143E+02  0.92097923623E+02 0.  0.
         13    1    3    3    0    0  0.23287035209E+02 -0.27053608297E+02  0.34639054960E+02  0.49739913784E+02  0.10566000000E+00 0. -1.
         22    1    1    0    0    0  0.94751554986E+01  0.26919873013E+02 -0.13765010877E+01  0.28571889857E+02  0.00000000000E+00 0.  1.
</event>
<event>
 5    1  0.1764311E-003  0.9118800E+02  0.7818608E-02  0.1130116E+00
         25   -1    0    0    0    0  0.00000000000E+00  0.00000000000E+00  0.99999998245E-14  0.12500000000E+03  0.12500000000E+03 0.  0.
        -13    1    3    3    0    0 -0.36724564160E+02  0.21917023481E+02 -0.17321890786E+02  0.46142264741E+02  0.10566000000E+00 0.  1.
         23    2    1    0    0    0 -0.99549167411E+01 -0.22695649302E+02 -0.76641610790E+01  0.99059062669E+02  0.95602121667E+02 0.  0.
         13    1    3    3    0    0  0.26769647419E+02 -0.44612672783E+02  0.96577297070E+01  0.52916797928E+02  0.10566000000E+00 0. -1.
         22    1    1    0    0    0  0.99549167411E+01  0.22695649302E+02  0.76641610790E+01  0.25940937331E+02  0.00000000000E+00 0. -1.
</event>
<event>
 5    1  0.1764311E-003  0.9118800E+02  0.7818608E-02  0.1130116E+00
         25   -1    0    0    0    0  0.00000000000E+00  0.00000000000E+00  0.99999998245E-14  0.12500000000E+03  0.12500000000E+03 0.  0.
        -13    1    3    3    0    0 -0.33096682000E+02 -0.14235165300E+02 -0.40593701301E+02  0.54276054019E+02  0.10566000000E+00 0.  1.
         23    2    1    0    0    0 -0.12576618948E+02 -0.26877876964E+02 -0.90462131682E+01  0.93977015184E+02  0.88708814646E+02 0.  0.
         13    1    3    3    0    0  0.20520063053E+02 -0.12642711664E+02  0.31547488132E+02  0.39700961165E+02  0.10566000000E+00 0. -1.
         22    1    1    0    0    0  0.12576618948E+02  0.26877876964E+02  0.90462131682E+01  0.31022984816E+02  0.00000000000E+00 0.  1.
</event>
<event>
 5    1  0.1764311E-003  0.9118800E+02  0.7818608E-02  0.1130116E+00
         25   -1    0    0    0    0  0.00000000000E+00  0.00000000000E+00  0.99999998245E-14  0.12500000000E+03  0.12500000000E+03 0.  0.
        -13    1    3    3    0    0 -0.45606590843E+02  0.25342311660E+02 -0.30351787318E+02  0.60360881753E+02  0.10566000000E+00 0.  1.
         23    2    1    0    0    0 -0.22893163736E+02  0.20158789045E+01 -0.20025936567E+02  0.94517236855E+02  0.89466805093E+02 0.  0.
         13    1    3    3    0    0  0.22713427107E+02 -0.23326432755E+02  0.10325850751E+02  0.34156355101E+02  0.10566000000E+00 0. -1.
         22    1    1    0    0    0  0.22893163736E+02 -0.20158789045E+01  0.20025936567E+02  0.30482763145E+02  0.00000000000E+00 0.  1.
</event>
<event>
 5    1  0.1764311E-003  0.9118800E+02  0.7818608E-02  0.1130116E+00
         25   -1    0    0    0    0  0.00000000000E+00  0.00000000000E+00  0.99999998245E-14  0.12500000000E+03  0.12500000000E+03 0.  0.
        -13    1    3    3    0    0 -0.37414997922E+02  0.41472525335E+01  0.16740941769E+02  0.41198932856E+02  0.10566000000E+00 0.  1.
         23    2    1    0    0    0  0.12711510787E+02  0.24533624836E+02  0.94291168407E+01  0.95804289725E+02  0.91247314652E+02 0.  0.
         13    1    3    3    0    0  0.50126508709E+02  0.20386372303E+02 -0.73118249282E+01  0.54605356869E+02  0.10566000000E+00 0. -1.
         22    1    1    0    0    0 -0.12711510787E+02 -0.24533624836E+02 -0.94291168407E+01  0.29195710275E+02  0.00000000000E+00 0. -1.
</event>
<event>
 5    1  0.1764311E-003  0.9118800E+02  0.7818608E-02  0.1130116E+00
         25   -1    0    0    0    0  0.00000000000E+00  0.00000000000E+00  0.99999998245E-14  0.12500000000E+03  0.12500000000E+03 0.  0.
        -13    1    3    3    0    0 -0.98393211490E+01 -0.35041785686E+02 -0.10407986075E+02  0.37855994544E+02  0.10566000000E+00 0.  1.
         23    2    1    0    0    0  0.31226243358E+02 -0.58454237773E+00  0.43738311783E+01  0.93463507436E+02  0.87982253091E+02 0.  0.
         13    1    3    3    0    0  0.41065564507E+02  0.34457243308E+02  0.14781817254E+02  0.55607512892E+02  0.10566000000E+00 0. -1.
         22    1    1    0    0    0 -0.31226243358E+02  0.58454237773E+00 -0.43738311783E+01  0.31536492564E+02  0.00000000000E+00 0. -1.
</event>
<event>
 5    1  0.1764311E-003  0.9118800E+02  0.7818608E-02  0.1130116E+00
         25   -1    0    0    0    0  0.00000000000E+00  0.00000000000E+00  0.99999998245E-14  0.12500000000E+03  0.12500000000E+03 0.  0.
        -13    1    3    3    0    0 -0.26988422811E+02  0.20390554886E+02  0.17292587359E+01  0.33869620520E+02  0.10566000000E+00 0.  1.
         23    2    1    0    0    0  0.29524068760E+02 -0.24500452308E+01  0.51973524437E+01  0.94922004219E+02  0.90030556228E+02 0.  0.
         13    1    3    3    0    0  0.56512491571E+02 -0.22840600117E+02  0.34680937078E+01  0.61052383698E+02  0.10566000000E+00 0. -1.
         22    1    1    0    0    0 -0.29524068760E+02  0.24500452308E+01 -0.51973524437E+01  0.30077995781E+02  0.00000000000E+00 0. -1.
</event>
<event>
 5    1  0.1764311E-003  0.9118800E+02  0.7818608E-02  0.1130116E+00
         25   -1    0    0    0    0  0.00000000000E+00  0.00000000000E+00  0.99999998245E-14  0.12500000000E+03  0.12500000000E+03 0.  0.
        -13    1    3    3    0    0 -0.47726361467E+01  0.74497488980E+00  0.53698612469E+02  0.53915537543E+02  0.10566000000E+00 0. -1.
         23    2    1    0    0    0  0.88060629848E+01  0.20024249906E+02  0.18143718630E+02  0.96579728092E+02  0.92303477849E+02 0.  0.
         13    1    3    3    0    0  0.13578699131E+02  0.19279275016E+02 -0.35554893839E+02  0.42664190549E+02  0.10566000000E+00 0.  1.
         22    1    1    0    0    0 -0.88060629848E+01 -0.20024249906E+02 -0.18143718630E+02  0.28420271908E+02  0.00000000000E+00 0. -1.
</event>
<event>
 5    1  0.1764311E-003  0.9118800E+02  0.7818608E-02  0.1130116E+00
         25   -1    0    0    0    0  0.00000000000E+00  0.00000000000E+00  0.99999998245E-14  0.12500000000E+03  0.12500000000E+03 0.  0.
        -13    1    3    3    0    0  0.33476760171E+01  0.42613487148E+00 -0.36349428060E+02  0.36505898290E+02  0.10566000000E+00 0.  1.
         23    2    1    0    0    0  0.16345513441E+02 -0.46952092107E+00  0.22726737834E+02  0.97001770197E+02  0.92873260679E+02 0.  0.
         13    1    3    3    0    0  0.12997837424E+02 -0.89565579254E+00  0.59076165894E+02  0.60495871907E+02  0.10566000000E+00 0. -1.
         22    1    1    0    0    0 -0.16345513441E+02  0.46952092107E+00 -0.22726737834E+02  0.27998229803E+02  0.00000000000E+00 0. -1.
</event>
<event>
 5    1  0.1764311E-003  0.9118800E+02  0.7818608E-02  0.1130116E+00
         25   -1    0    0    0    0  0.00000000000E+00  0.00000000000E+00  0.99999998245E-14  0.12500000000E+03  0.12500000000E+03 0.  0.
        -13    1    3    3    0    0  0.27067549953E+00  0.44137728599E+02 -0.31469578350E+02  0.54208466836E+02  0.10566000000E+00 0.  1.
         23    2    1    0    0    0 -0.80541801478E+01  0.61157100194E+01 -0.30199696247E+02  0.93152027061E+02  0.87538601572E+02 0.  0.
         13    1    3    3    0    0 -0.83248556473E+01 -0.38022018580E+02  0.12698821024E+01  0.38943560225E+02  0.10566000000E+00 0. -1.
         22    1    1    0    0    0  0.80541801478E+01 -0.61157100194E+01  0.30199696247E+02  0.31847972939E+02  0.00000000000E+00 0.  1.
</event>
<event>
 5    1  0.1764311E-003  0.9118800E+02  0.7818608E-02  0.1130116E+00
         25   -1    0    0    0    0  0.00000000000E+00  0.00000000000E+00  0.99999998245E-14  0.12500000000E+03  0.12500000000E+03 0.  0.
        -13    1    3    3    0    0  0.14526539740E+02  0.16373478562E+02 -0.29848676303E+02  0.37014399875E+02  0.10566000000E+00 0. -1.
         23    2    1    0    0    0 -0.18095974116E+02 -0.22841098660E+02 -0.52029922189E+00  0.95854661119E+02  0.91316292521E+02 0.  0.
         13    1    3    3    0    0 -0.32622513856E+02 -0.39214577222E+02  0.29328377081E+02  0.58840261244E+02  0.10566000000E+00 0.  1.
         22    1    1    0    0    0  0.18095974116E+02  0.22841098660E+02  0.52029922189E+00  0.29145338881E+02  0.00000000000E+00 0.  1.
</event>
<event>
 5    1  0.1764311E-003  0.9118800E+02  0.7818608E-02  0.1130116E+00
         25   -1    0    0    0    0  0.00000000000E+00  0.00000000000E+00  0.99999998245E-14  0.12500000000E+03  0.12500000000E+03 0.  0.
        -13    1    3    3    0    0  0.22587770506E+02  0.45287544232E+02 -0.24453052934E+02  0.56206156254E+02  0.10566000000E+00 0.  1.
         23    2    1    0    0    0 -0.98525069968E+00  0.27729525781E+02  0.38211284367E+01  0.96991102458E+02  0.92858901644E+02 0.  0.
         13    1    3    3    0    0 -0.23573021205E+02 -0.17558018451E+02  0.28274181371E+02  0.40784946204E+02  0.10566000000E+00 0. -1.
         22    1    1    0    0    0  0.98525069968E+00 -0.27729525781E+02 -0.38211284367E+01  0.28008897542E+02  0.00000000000E+00 0.  1.
</event>
<event>
 5    1  0.1764311E-003  0.9118800E+02  0.7818608E-02  0.1130116E+00
         25   -1    0    0    0    0  0.00000000000E+00  0.00000000000E+00  0.99999998245E-14  0.12500000000E+03  0.12500000000E+03 0.  0.
        -13    1    3    3    0    0  0.49989804677E+02  0.71757602613E+01 -0.16972398454E+02  0.53278002781E+02  0.10566000000E+00 0. -1.
         23    2    1    0    0    0  0.11242782479E+02  0.49290035752E+00 -0.28587730899E+02  0.94277020545E+02  0.89130551082E+02 0.  0.
         13    1    3    3    0    0 -0.38747022198E+02 -0.66828599038E+01 -0.11615332445E+02  0.40999017763E+02  0.10566000000E+00 0.  1.
         22    1    1    0    0    0 -0.11242782479E+02 -0.49290035752E+00  0.28587730899E+02  0.30722979455E+02  0.00000000000E+00 0. -1.
</event>
<event>
 5    1  0.1764311E-003  0.9118800E+02  0.7818608E-02  0.1130116E+00
         25   -1    0    0    0    0  0.00000000000E+00  0.00000000000E+00  0.99999998245E-14  0.12500000000E+03  0.12500000000E+03 0.  0.
        -13    1    3    3    0    0  0.27089772603E+02 -0.37572018723E+02 -0.11665083288E+01  0.46334482584E+02  0.10566000000E+00 0. -1.
         23    2    1    0    0    0 -0.13171484732E+02 -0.16555971375E+02  0.19496205360E+02  0.96230394134E+02  0.91829181274E+02 0.  0.
         13    1    3    3    0    0 -0.40261257336E+02  0.21016047348E+02  0.20662713689E+02  0.49895911550E+02  0.10566000000E+00 0.  1.
         22    1    1    0    0    0  0.13171484732E+02  0.16555971375E+02 -0.19496205360E+02  0.28769605866E+02  0.00000000000E+00 0.  1.
</event>
<event>
 5    1  0.1764311E-003  0.9118800E+02  0.7818608E-02  0.1130116E+00
         25   -1    0    0    0    0  0.00000000000E+00  0.00000000000E+00  0.99999998245E-14  0.12500000000E+03  0.12500000000E+03 0.  0.
        -13    1    3    3    0    0 -0.27702339167E+02 -0.32968835327E+02  0.46338973067E+00  0.43064946212E+02  0.10566000000E+00 0. -1.
         23    2    1    0    0    0  0.14025244624E+02  0.12753044344E+02  0.57492027935E+01  0.10519088696E+03  0.10330886573E+03 0.  0.
         13    1    3    3    0    0  0.41727583791E+02  0.45721879671E+02  0.52858130629E+01  0.62125940745E+02  0.10566000000E+00 0.  1.
         22    1    1    0    0    0 -0.14025244624E+02 -0.12753044344E+02 -0.57492027935E+01  0.19809113043E+02  0.00000000000E+00 0.  1.
</event>
<event>
 5    1  0.1764311E-003  0.9118800E+02  0.7818608E-02  0.1130116E+00
         25   -1    0    0    0    0  0.00000000000E+00  0.00000000000E+00  0.99999998245E-14  0.12500000000E+03  0.12500000000E+03 0.  0.
        -13    1    3    3    0    0  0.19368823516E+02 -0.22353084079E+02  0.89856840557E+01  0.30912220467E+02  0.10566000000E+00 0.  1.
         23    2    1    0    0    0 -0.13439491902E+02  0.26459389866E+02 -0.11472814535E+02  0.93182634804E+02  0.87582296733E+02 0.  0.
         13    1    3    3    0    0 -0.32808315417E+02  0.48812473945E+02 -0.20458498591E+02  0.62270414337E+02  0.10566000000E+00 0. -1.
         22    1    1    0    0    0  0.13439491902E+02 -0.26459389866E+02  0.11472814535E+02  0.31817365196E+02  0.00000000000E+00 0. -1.
</event>
<event>
 5    1  0.1764311E-003  0.9118800E+02  0.7818608E-02  0.1130116E+00
         25   -1    0    0    0    0  0.00000000000E+00  0.00000000000E+00  0.99999998245E-14  0.12500000000E+03  0.12500000000E+03 0.  0.
        -13    1    3    3    0    0 -0.40065918973E+02 -0.12577607038E+02 -0.45312716659E+02  0.61779669124E+02  0.10566000000E+00 0.  1.
         23    2    1    0    0    0 -0.17945822696E+02 -0.12623886678E+02 -0.21513942969E+02  0.94271107909E+02  0.89122258596E+02 0.  0.
         13    1    3    3    0    0  0.22120096277E+02 -0.46279640306E-01  0.23798773691E+02  0.32491438785E+02  0.10566000000E+00 0. -1.
         22    1    1    0    0    0  0.17945822696E+02  0.12623886678E+02  0.21513942969E+02  0.30728892091E+02  0.00000000000E+00 0.  1.
</event>
<event>
 5    1  0.1764311E-003  0.9118800E+02  0.7818608E-02  0.1130116E+00
         25   -1    0    0    0    0  0.00000000000E+00  0.00000000000E+00  0.99999998245E-14  0.12500000000E+03  0.12500000000E+03 0.  0.
        -13    1    3    3    0    0  0.23911996846E+01  0.58159455259E+02 -0.81498187011E+01  0.58776447501E+02  0.10566000000E+00 0. -1.
         23    2    1    0    0    0  0.52734343735E+00  0.23947174689E+02 -0.18683272427E+02  0.94622213127E+02  0.89613354372E+02 0.  0.
         13    1    3    3    0    0 -0.18638562472E+01 -0.34212280570E+02 -0.10533453726E+02  0.35845765626E+02  0.10566000000E+00 0.  1.
         22    1    1    0    0    0 -0.52734343735E+00 -0.23947174689E+02  0.18683272427E+02  0.30377786873E+02  0.00000000000E+00 0. -1.
</event>
<event>
 5    1  0.1764311E-003  0.9118800E+02  0.7818608E-02  0.1130116E+00
         25   -1    0    0    0    0  0.00000000000E+00  0.00000000000E+00  0.99999998245E-14  0.12500000000E+03  0.12500000000E+03 0.  0.
        -13    1    3    3    0    0  0.29721413408E+02  0.27877530713E+02 -0.13236304675E+02  0.42845420515E+02  0.10566000000E+00 0. -1.
         23    2    1    0    0    0  0.52165555973E+01 -0.14674590511E+02 -0.26989873031E+02  0.93838977790E+02  0.88514091801E+02 0.  0.
         13    1    3    3    0    0 -0.24504857810E+02 -0.42552121224E+02 -0.13753568356E+02  0.50993557275E+02  0.10566000000E+00 0.  1.
         22    1    1    0    0    0 -0.52165555973E+01  0.14674590511E+02  0.26989873031E+02  0.31161022210E+02  0.00000000000E+00 0. -1.
</event>
<event>
 5    1  0.1764311E-003  0.9118800E+02  0.7818608E-02  0.1130116E+00
         25   -1    0    0    0    0  0.00000000000E+00  0.00000000000E+00  0.99999998245E-14  0.12500000000E+03  0.12500000000E+03 0.  0.
        -13    1    3    3    0    0  0.26234486613E+02 -0.22043102704E+02 -0.21593555312E+02  0.40502338941E+02  0.10566000000E+00 0. -1.
         23    2    1    0    0    0 -0.10057617616E+02 -0.21250720168E+02  0.18863071133E+02  0.94857600754E+02  0.89941092880E+02 0.  0.
         13    1    3    3    0    0 -0.36292104229E+02  0.79238253594E+00  0.40456626444E+02  0.54355261813E+02  0.10566000000E+00 0.  1.
         22    1    1    0    0    0  0.10057617616E+02  0.21250720168E+02 -0.18863071133E+02  0.30142399246E+02  0.00000000000E+00 0.  1.
</event>
<event>
 5    1  0.1764311E-003  0.9118800E+02  0.7818608E-02  0.1130116E+00
         25   -1    0    0    0    0  0.00000000000E+00  0.00000000000E+00  0.99999998245E-14  0.12500000000E+03  0.12500000000E+03 0.  0.
        -13    1    3    3    0    0  0.34648871090E+02  0.40693430851E+01 -0.15666615941E+02  0.38243402569E+02  0.10566000000E+00 0. -1.
         23    2    1    0    0    0 -0.64960437572E+01  0.31763363818E+02  0.54060638523E+01  0.92131544120E+02  0.86069077084E+02 0.  0.
         13    1    3    3    0    0 -0.41144914847E+02  0.27694020733E+02  0.21072679793E+02  0.53888141551E+02  0.10566000000E+00 0.  1.
         22    1    1    0    0    0  0.64960437572E+01 -0.31763363818E+02 -0.54060638523E+01  0.32868455880E+02  0.00000000000E+00 0.  1.
</event>
<event>
 5    1  0.1764311E-003  0.9118800E+02  0.7818608E-02  0.1130116E+00
         25   -1    0    0    0    0  0.00000000000E+00  0.00000000000E+00  0.99999998245E-14  0.12500000000E+03  0.12500000000E+03 0.  0.
        -13    1    3    3    0    0  0.27867305461E+02 -0.48223792795E+02 -0.12598756080E+01  0.55711034417E+02  0.10566000000E+00 0.  1.
         23    2    1    0    0    0  0.25942856750E+02 -0.95553944641E+01  0.92816848252E+01  0.95836888834E+02  0.91291961357E+02 0.  0.
         13    1    3    3    0    0 -0.19244487111E+01  0.38668398331E+02  0.10541560433E+02  0.40125854417E+02  0.10566000000E+00 0. -1.
         22    1    1    0    0    0 -0.25942856750E+02  0.95553944641E+01 -0.92816848252E+01  0.29163111166E+02  0.00000000000E+00 0.  1.
</event>
<event>
 5    1  0.1764311E-003  0.9118800E+02  0.7818608E-02  0.1130116E+00
         25   -1    0    0    0    0  0.00000000000E+00  0.00000000000E+00  0.99999998245E-14  0.12500000000E+03  0.12500000000E+03 0.  0.
        -13    1    3    3    0    0  0.12080902782E+02 -0.93518207087E+01 -0.48207202699E+02  0.50570251321E+02  0.10566000000E+00 0.  1.
         23    2    1    0    0    0 -0.15848550111E+02 -0.20318571566E+02 -0.15623644705E+02  0.94864984403E+02  0.89951354080E+02 0.  0.
         13    1    3    3    0    0 -0.27929452893E+02 -0.10966750858E+02  0.32583557993E+02  0.44294733082E+02  0.10566000000E+00 0. -1.
         22    1    1    0    0    0  0.15848550111E+02  0.20318571566E+02  0.15623644705E+02  0.30135015597E+02  0.00000000000E+00 0.  1.
</event>
<event>
 5    1  0.1764311E-003  0.9118800E+02  0.7818608E-02  0.1130116E+00
         25   -1    0    0    0    0  0.00000000000E+00  0.00000000000E+00  0.99999998245E-14  0.12500000000E+03  0.12500000000E+03 0.  0.
        -13    1    3    3    0    0 -0.18415156512E+02  0.30004527297E+02 -0.47385965982E+02  0.59032453649E+02  0.10566000000E+00 0. -1.
         23    2    1    0    0    0  0.56298897083E+01  0.14521697420E+02 -0.25800469272E+02  0.94862986731E+02  0.89948577992E+02 0.  0.
         13    1    3    3    0    0  0.24045046221E+02 -0.15482829876E+02  0.21585496710E+02  0.35830533083E+02  0.10566000000E+00 0.  1.
         22    1    1    0    0    0 -0.56298897083E+01 -0.14521697420E+02  0.25800469272E+02  0.30137013269E+02  0.00000000000E+00 0. -1.
</event>
<event>
 5    1  0.1764311E-003  0.9118800E+02  0.7818608E-02  0.1130116E+00
         25   -1    0    0    0    0  0.00000000000E+00  0.00000000000E+00  0.99999998245E-14  0.12500000000E+03  0.12500000000E+03 0.  0.
        -13    1    3    3    0    0  0.14072763026E+02  0.44290890810E+02  0.14343398584E+02  0.48636096831E+02  0.10566000000E+00 0.  1.
         23    2    1    0    0    0 -0.79628382552E+01  0.24991136850E+01  0.26330492817E+02  0.97378500868E+02  0.93378933475E+02 0.  0.
         13    1    3    3    0    0 -0.22035601281E+02 -0.41791777126E+02  0.11987094234E+02  0.48742404037E+02  0.10566000000E+00 0. -1.
         22    1    1    0    0    0  0.79628382552E+01 -0.24991136850E+01 -0.26330492817E+02  0.27621499132E+02  0.00000000000E+00 0.  1.
</event>
<event>
 5    1  0.1764311E-003  0.9118800E+02  0.7818608E-02  0.1130116E+00
         25   -1    0    0    0    0  0.00000000000E+00  0.00000000000E+00  0.99999998245E-14  0.12500000000E+03  0.12500000000E+03 0.  0.
        -13    1    3    3    0    0 -0.45201615267E+02  0.16565412307E+02  0.19606446413E+02  0.51980985106E+02  0.10566000000E+00 0. -1.
         23    2    1    0    0    0 -0.16406436659E+02  0.27284834796E+02 -0.67410866774E+01  0.92456557907E+02  0.86539814402E+02 0.  0.
         13    1    3    3    0    0  0.28795178608E+02  0.10719422488E+02 -0.26347533090E+02  0.40475572800E+02  0.10566000000E+00 0.  1.
         22    1    1    0    0    0  0.16406436659E+02 -0.27284834796E+02  0.67410866774E+01  0.32543442093E+02  0.00000000000E+00 0. -1.
</event>
<event>
 5    1  0.1764311E-003  0.9118800E+02  0.7818608E-02  0.1130116E+00
         25   -1    0    0    0    0  0.00000000000E+00  0.00000000000E+00  0.99999998245E-14  0.12500000000E+03  0.12500000000E+03 0.  0.
        -13    1    3    3    0    0  0.94805334848E+01 -0.14482429953E+01  0.58399131579E+02  0.59181480685E+02  0.10566000000E+00 0.  1.
         23    2    1    0    0    0  0.87482038297E+01  0.12805104670E+02  0.23982121692E+02  0.96440519320E+02  0.92114764452E+02 0.  0.
         13    1    3    3    0    0 -0.73232965508E+00  0.14253347665E+02 -0.34417009887E+02  0.37259038635E+02  0.10566000000E+00 0. -1.
         22    1    1    0    0    0 -0.87482038297E+01 -0.12805104670E+02 -0.23982121692E+02  0.28559480680E+02  0.00000000000E+00 0.  1.
</event>
<event>
 5    1  0.1764311E-003  0.9118800E+02  0.7818608E-02  0.1130116E+00
         25   -1    0    0    0    0  0.00000000000E+00  0.00000000000E+00  0.99999998245E-14  0.12500000000E+03  0.12500000000E+03 0.  0.
        -13    1    3    3    0    0 -0.47700318140E+02  0.32801313339E+01  0.25784937501E+02  0.54322681986E+02  0.10566000000E+00 0.  1.
         23    2    1    0    0    0 -0.27501057506E+02  0.18553891914E+02  0.30328865446E+02  0.80051194139E+02  0.66240459952E+02 0.  0.
         13    1    3    3    0    0  0.20199260633E+02  0.15273760580E+02  0.45439279457E+01  0.25728512153E+02  0.10566000000E+00 0. -1.
         22    1    1    0    0    0  0.27501057506E+02 -0.18553891914E+02 -0.30328865446E+02  0.44948805861E+02  0.00000000000E+00 0.  1.
</event>
<event>
 5    1  0.1764311E-003  0.9118800E+02  0.7818608E-02  0.1130116E+00
         25   -1    0    0    0    0  0.00000000000E+00  0.00000000000E+00  0.99999998245E-14  0.12500000000E+03  0.12500000000E+03 0.  0.
        -13    1    3    3    0    0  0.71489602011E+01 -0.43568394246E+02  0.25448533624E+02  0.50960294709E+02  0.10566000000E+00 0. -1.
         23    2    1    0    0    0 -0.22967640468E+02 -0.13515632461E+02  0.13352753418E+02  0.95192604050E+02  0.90405481097E+02 0.  0.
         13    1    3    3    0    0 -0.30116600670E+02  0.30052761785E+02 -0.12095780206E+02  0.44232309341E+02  0.10566000000E+00 0.  1.
         22    1    1    0    0    0  0.22967640468E+02  0.13515632461E+02 -0.13352753418E+02  0.29807395950E+02  0.00000000000E+00 0. -1.
</event>
<event>
 5    1  0.1764311E-003  0.9118800E+02  0.7818608E-02  0.1130116E+00
         25   -1    0    0    0    0  0.00000000000E+00  0.00000000000E+00  0.99999998245E-14  0.12500000000E+03  0.12500000000E+03 0.  0.
        -13    1    3    3    0    0  0.39606040363E+02  0.11818448225E+02 -0.57500618422E+01  0.41729947603E+02  0.10566000000E+00 0.  1.
         23    2    1    0    0    0 -0.62826506195E+01  0.23704450905E+02  0.17836074933E+02  0.94676770282E+02  0.89689422846E+02 0.  0.
         13    1    3    3    0    0 -0.45888690983E+02  0.11886002680E+02  0.23586136775E+02  0.52946822679E+02  0.10566000000E+00 0. -1.
         22    1    1    0    0    0  0.62826506195E+01 -0.23704450905E+02 -0.17836074933E+02  0.30323229718E+02  0.00000000000E+00 0. -1.
</event>
<event>
 5    1  0.1764311E-003  0.9118800E+02  0.7818608E-02  0.1130116E+00
         25   -1    0    0    0    0  0.00000000000E+00  0.00000000000E+00  0.99999998245E-14  0.12500000000E+03  0.12500000000E+03 0.  0.
        -13    1    3    3    0    0  0.28771848479E+02 -0.21365538566E+02  0.23207352720E+01  0.35912427924E+02  0.10566000000E+00 0.  1.
         23    2    1    0    0    0 -0.25500311943E+02  0.63867035959E+01 -0.75192903174E+01  0.97657805156E+02  0.93752073518E+02 0.  0.
         13    1    3    3    0    0 -0.54272160422E+02  0.27752242162E+02 -0.98400255895E+01  0.61745377232E+02  0.10566000000E+00 0. -1.
         22    1    1    0    0    0  0.25500311943E+02 -0.63867035959E+01  0.75192903174E+01  0.27342194844E+02  0.00000000000E+00 0. -1.
</event>
<event>
 5    1  0.1764311E-003  0.9118800E+02  0.7818608E-02  0.1130116E+00
         25   -1    0    0    0    0  0.00000000000E+00  0.00000000000E+00  0.99999998245E-14  0.12500000000E+03  0.12500000000E+03 0.  0.
        -13    1    3    3    0    0  0.13303986203E+02  0.11348328211E+02 -0.36037017956E+02  0.40055691597E+02  0.10566000000E+00 0. -1.
         23    2    1    0    0    0  0.20470506439E+02  0.82167060255E+01  0.19146867484E+02  0.95791124188E+02  0.91229277356E+02 0.  0.
         13    1    3    3    0    0  0.71665202356E+01 -0.31316221852E+01  0.55183885440E+02  0.55735432591E+02  0.10566000000E+00 0.  1.
         22    1    1    0    0    0 -0.20470506439E+02 -0.82167060255E+01 -0.19146867484E+02  0.29208875812E+02  0.00000000000E+00 0.  1.
</event>
<event>
 5    1  0.1764311E-003  0.9118800E+02  0.7818608E-02  0.1130116E+00
         25   -1    0    0    0    0  0.00000000000E+00  0.00000000000E+00  0.99999998245E-14  0.12500000000E+03  0.12500000000E+03 0.  0.
        -13    1    3    3    0    0 -0.18899355124E+02 -0.57678463040E+02  0.13745728344E+02  0.62233005186E+02  0.10566000000E+00 0.  1.
         23    2    1    0    0    0 -0.12053759053E+02 -0.31966250915E+02  0.38553920391E+01  0.90619797082E+02  0.83844792746E+02 0.  0.
         13    1    3    3    0    0  0.68455960707E+01  0.25712212125E+02 -0.98903363048E+01  0.28386791896E+02  0.10566000000E+00 0. -1.
         22    1    1    0    0    0  0.12053759053E+02  0.31966250915E+02 -0.38553920391E+01  0.34380202918E+02  0.00000000000E+00 0.  1.
</event>
<event>
 5    1  0.1764311E-003  0.9118800E+02  0.7818608E-02  0.1130116E+00
         25   -1    0    0    0    0  0.00000000000E+00  0.00000000000E+00  0.99999998245E-14  0.12500000000E+03  0.12500000000E+03 0.  0.
        -13    1    3    3    0    0 -0.49650936850E+02 -0.35539163135E+01  0.28135280500E+01  0.49857526567E+02  0.10566000000E+00 0.  1.
         23    2    1    0    0    0 -0.10901955236E+02  0.97915351773E+00  0.27072690931E+02  0.95798254096E+02  0.91239046049E+02 0.  0.
         13    1    3    3    0    0  0.38748981613E+02  0.45330698313E+01  0.24259162881E+02  0.45940727529E+02  0.10566000000E+00 0. -1.
         22    1    1    0    0    0  0.10901955236E+02 -0.97915351773E+00 -0.27072690931E+02  0.29201745904E+02  0.00000000000E+00 0.  1.
</event>
<event>
 5    1  0.1764311E-003  0.9118800E+02  0.7818608E-02  0.1130116E+00
         25   -1    0    0    0    0  0.00000000000E+00  0.00000000000E+00  0.99999998245E-14  0.12500000000E+03  0.12500000000E+03 0.  0.
        -13    1    3    3    0    0  0.28003263968E+02 -0.20599684224E+02 -0.14752297555E+01  0.34795362477E+02  0.10566000000E+00 0.  1.
         23    2    1    0    0    0 -0.29003335068E+02 -0.72778111989E+00  0.51682837396E+01  0.95530791201E+02  0.90871875738E+02 0.  0.
         13    1    3    3    0    0 -0.57006599037E+02  0.19871903104E+02  0.66435134951E+01  0.60735428724E+02  0.10566000000E+00 0. -1.
         22    1    1    0    0    0  0.29003335068E+02  0.72778111989E+00 -0.51682837396E+01  0.29469208799E+02  0.00000000000E+00 0. -1.
</event>
<event>
 5    1  0.1764311E-003  0.9118800E+02  0.7818608E-02  0.1130116E+00
         25   -1    0    0    0    0  0.00000000000E+00  0.00000000000E+00  0.99999998245E-14  0.12500000000E+03  0.12500000000E+03 0.  0.
        -13    1    3    3    0    0 -0.32181098752E+02 -0.51548368423E+02 -0.89305643036E+00  0.60775538811E+02  0.10566000000E+00 0. -1.
         23    2    1    0    0    0 -0.87833117993E+01 -0.28396187331E+02 -0.74916921206E+01  0.94346852169E+02  0.89228431805E+02 0.  0.
         13    1    3    3    0    0  0.23397786952E+02  0.23152181092E+02 -0.65986356902E+01  0.33571313358E+02  0.10566000000E+00 0.  1.
         22    1    1    0    0    0  0.87833117993E+01  0.28396187331E+02  0.74916921206E+01  0.30653147831E+02  0.00000000000E+00 0. -1.
</event>
<event>
 5    1  0.1764311E-003  0.9118800E+02  0.7818608E-02  0.1130116E+00
         25   -1    0    0    0    0  0.00000000000E+00  0.00000000000E+00  0.99999998245E-14  0.12500000000E+03  0.12500000000E+03 0.  0.
        -13    1    3    3    0    0  0.73145400429E+00  0.38275911323E+02  0.23176005667E+02  0.44751746505E+02  0.10566000000E+00 0. -1.
         23    2    1    0    0    0  0.17763267912E+02  0.18711782508E+02 -0.18087363583E+02  0.93490997907E+02  0.88021301267E+02 0.  0.
         13    1    3    3    0    0  0.17031813907E+02 -0.19564128815E+02 -0.41263369250E+02  0.48739251401E+02  0.10566000000E+00 0.  1.
         22    1    1    0    0    0 -0.17763267912E+02 -0.18711782508E+02  0.18087363583E+02  0.31509002093E+02  0.00000000000E+00 0.  1.
</event>
<event>
 5    1  0.1764311E-003  0.9118800E+02  0.7818608E-02  0.1130116E+00
         25   -1    0    0    0    0  0.00000000000E+00  0.00000000000E+00  0.99999998245E-14  0.12500000000E+03  0.12500000000E+03 0.  0.
        -13    1    3    3    0    0 -0.38302328908E+02 -0.23483586710E+02 -0.10893922290E+02  0.46230249312E+02  0.10566000000E+00 0.  1.
         23    2    1    0    0    0 -0.18203278783E+02  0.11166697355E+02  0.19160324708E+02  0.96309016553E+02  0.91936141632E+02 0.  0.
         13    1    3    3    0    0  0.20099050125E+02  0.34650284065E+02  0.30054246998E+02  0.50078767241E+02  0.10566000000E+00 0. -1.
         22    1    1    0    0    0  0.18203278783E+02 -0.11166697355E+02 -0.19160324708E+02  0.28690983447E+02  0.00000000000E+00 0. -1.
</event>
<event>
 5    1  0.1764311E-003  0.9118800E+02  0.7818608E-02  0.1130116E+00
         25   -1    0    0    0    0  0.00000000000E+00  0.00000000000E+00  0.99999998245E-14  0.12500000000E+03  0.12500000000E+03 0.  0.
        -13    1    3    3    0    0 -0.25787357777E+02  0.98777593941E+01  0.21901763096E+02  0.35245657073E+02  0.10566000000E+00 0. -1.
         23    2    1    0    0    0  0.12643763714E+02 -0.29359736273E+02  0.10620746374E+02  0.91315298303E+02  0.84875347279E+02 0.  0.
         13    1    3    3    0    0  0.38431121491E+02 -0.39237495668E+02 -0.11281016722E+02  0.56069641230E+02  0.10566000000E+00 0.  1.
         22    1    1    0    0    0 -0.12643763714E+02  0.29359736273E+02 -0.10620746374E+02  0.33684701697E+02  0.00000000000E+00 0.  1.
</event>
<event>
 5    1  0.1764311E-003  0.9118800E+02  0.7818608E-02  0.1130116E+00
         25   -1    0    0    0    0  0.00000000000E+00  0.00000000000E+00  0.99999998245E-14  0.12500000000E+03  0.12500000000E+03 0.  0.
        -13    1    3    3    0    0 -0.31963176760E+02  0.60198728352E+01 -0.64119841687E+01  0.33151293226E+02  0.10566000000E+00 0. -1.
         23    2    1    0    0    0  0.26973226859E+02 -0.10589087170E+02  0.54310027515E+01  0.95518149225E+02  0.90854484238E+02 0.  0.
         13    1    3    3    0    0  0.58936403619E+02 -0.16608960005E+02  0.11842986920E+02  0.62366855999E+02  0.10566000000E+00 0.  1.
         22    1    1    0    0    0 -0.26973226859E+02  0.10589087170E+02 -0.54310027515E+01  0.29481850775E+02  0.00000000000E+00 0.  1.
</event>
<event>
 5    1  0.1764311E-003  0.9118800E+02  0.7818608E-02  0.1130116E+00
         25   -1    0    0    0    0  0.00000000000E+00  0.00000000000E+00  0.99999998245E-14  0.12500000000E+03  0.12500000000E+03 0.  0.
        -13    1    3    3    0    0  0.18477998028E+02 -0.57065494933E+02 -0.26677619711E+00  0.59983243132E+02  0.10566000000E+00 0.  1.
         23    2    1    0    0    0  0.16829776724E+02 -0.22221437575E+02  0.83234045734E+01  0.95908545307E+02  0.91390023124E+02 0.  0.
         13    1    3    3    0    0 -0.16482213039E+01  0.34844057358E+02  0.85901807705E+01  0.35925302174E+02  0.10566000000E+00 0. -1.
         22    1    1    0    0    0 -0.16829776724E+02  0.22221437575E+02 -0.83234045734E+01  0.29091454693E+02  0.00000000000E+00 0.  1.
</event>
<event>
 5    1  0.1764311E-003  0.9118800E+02  0.7818608E-02  0.1130116E+00
         25   -1    0    0    0    0  0.00000000000E+00  0.00000000000E+00  0.99999998245E-14  0.12500000000E+03  0.12500000000E+03 0.  0.
        -13    1    3    3    0    0  0.31740342640E+02  0.44082563320E+02 -0.22479323919E+02  0.58788203814E+02  0.10566000000E+00 0. -1.
         23    2    1    0    0    0  0.13631842928E+01  0.27609372840E+02 -0.11656500027E+02  0.94999837786E+02  0.90138556935E+02 0.  0.
         13    1    3    3    0    0 -0.30377158347E+02 -0.16473190480E+02  0.10822823892E+02  0.36211633972E+02  0.10566000000E+00 0.  1.
         22    1    1    0    0    0 -0.13631842928E+01 -0.27609372840E+02  0.11656500027E+02  0.30000162214E+02  0.00000000000E+00 0. -1.
</event>
<event>
 5    1  0.1764311E-003  0.9118800E+02  0.7818608E-02  0.1130116E+00
         25   -1    0    0    0    0  0.00000000000E+00  0.00000000000E+00  0.99999998245E-14  0.12500000000E+03  0.12500000000E+03 0.  0.
        -13    1    3    3    0    0  0.18083555901E+02  0.16538808752E+02 -0.22513933083E+02  0.33278154033E+02  0.10566000000E+00 0. -1.
         23    2    1    0    0    0 -0.17678846314E+02 -0.11823451073E+02  0.20110137096E+02  0.95729652952E+02  0.91145012140E+02 0.  0.
         13    1    3    3    0    0 -0.35762402215E+02 -0.28362259825E+02  0.42624070179E+02  0.62451498919E+02  0.10566000000E+00 0.  1.
         22    1    1    0    0    0  0.17678846314E+02  0.11823451073E+02 -0.20110137096E+02  0.29270347048E+02  0.00000000000E+00 0.  1.
</event>
<event>
 5    1  0.1764311E-003  0.9118800E+02  0.7818608E-02  0.1130116E+00
         25   -1    0    0    0    0  0.00000000000E+00  0.00000000000E+00  0.99999998245E-14  0.12500000000E+03  0.12500000000E+03 0.  0.
        -13    1    3    3    0    0 -0.10177989718E+02 -0.12326838139E+01 -0.38594736289E+02  0.39933392260E+02  0.10566000000E+00 0. -1.
         23    2    1    0    0    0 -0.38737974983E+01  0.28190973698E+02  0.80366013115E+01  0.95431025285E+02  0.90734537642E+02 0.  0.
         13    1    3    3    0    0  0.63041922194E+01  0.29423657512E+02  0.46631337601E+02  0.55497633025E+02  0.10566000000E+00 0.  1.
         22    1    1    0    0    0  0.38737974983E+01 -0.28190973698E+02 -0.80366013115E+01  0.29568974715E+02  0.00000000000E+00 0.  1.
</event>
<event>
 5    1  0.1764311E-003  0.9118800E+02  0.7818608E-02  0.1130116E+00
         25   -1    0    0    0    0  0.00000000000E+00  0.00000000000E+00  0.99999998245E-14  0.12500000000E+03  0.12500000000E+03 0.  0.
        -13    1    3    3    0    0 -0.43696604383E+02 -0.29818098809E+02 -0.19753752914E+02  0.56468877884E+02  0.10566000000E+00 0. -1.
         23    2    1    0    0    0 -0.65058363861E+01 -0.25317847491E+02 -0.16534812059E+02  0.94069120309E+02  0.88838505600E+02 0.  0.
         13    1    3    3    0    0  0.37190767997E+02  0.45002513181E+01  0.32189408555E+01  0.37600242425E+02  0.10566000000E+00 0.  1.
         22    1    1    0    0    0  0.65058363861E+01  0.25317847491E+02  0.16534812059E+02  0.30930879691E+02  0.00000000000E+00 0. -1.
</event>
<event>
 5    1  0.1764311E-003  0.9118800E+02  0.7818608E-02  0.1130116E+00
         25   -1    0    0    0    0  0.00000000000E+00  0.00000000000E+00  0.99999998245E-14  0.12500000000E+03  0.12500000000E+03 0.  0.
        -13    1    3    3    0    0 -0.53622679481E+02 -0.19974192379E+01 -0.18186823416E+02  0.56658213424E+02  0.10566000000E+00 0.  1.
         23    2    1    0    0    0 -0.23223758191E+02  0.17693342864E+02 -0.41122460900E+01  0.95515972221E+02  0.90851489009E+02 0.  0.
         13    1    3    3    0    0  0.30398921291E+02  0.19690762102E+02  0.14074577326E+02  0.38857758797E+02  0.10566000000E+00 0. -1.
         22    1    1    0    0    0  0.23223758191E+02 -0.17693342864E+02  0.41122460900E+01  0.29484027779E+02  0.00000000000E+00 0.  1.
</event>
<event>
 5    1  0.1764311E-003  0.9118800E+02  0.7818608E-02  0.1130116E+00
         25   -1    0    0    0    0  0.00000000000E+00  0.00000000000E+00  0.99999998245E-14  0.12500000000E+03  0.12500000000E+03 0.  0.
        -13    1    3    3    0    0 -0.12237211676E+02 -0.18248968781E+02  0.29756250698E+02  0.36989455671E+02  0.10566000000E+00 0. -1.
         23    2    1    0    0    0  0.26421385565E+02  0.12198180150E+02 -0.24420746726E+01  0.95796422430E+02  0.91236536582E+02 0.  0.
         13    1    3    3    0    0  0.38658597241E+02  0.30447148931E+02 -0.32198325371E+02  0.58806966759E+02  0.10566000000E+00 0.  1.
         22    1    1    0    0    0 -0.26421385565E+02 -0.12198180150E+02  0.24420746726E+01  0.29203577570E+02  0.00000000000E+00 0.  1.
</event>
<event>
 5    1  0.1764311E-003  0.9118800E+02  0.7818608E-02  0.1130116E+00
         25   -1    0    0    0    0  0.00000000000E+00  0.00000000000E+00  0.99999998245E-14  0.12500000000E+03  0.12500000000E+03 0.  0.
        -13    1    3    3    0    0  0.68035327826E+01 -0.41974065981E+02 -0.44536326173E+02  0.61576016324E+02  0.10566000000E+00 0.  1.
         23    2    1    0    0    0  0.57476071998E+01 -0.24281722102E+02 -0.15406485321E+02  0.95674297848E+02  0.91069064242E+02 0.  0.
         13    1    3    3    0    0 -0.10559255828E+01  0.17692343879E+02  0.29129840852E+02  0.34098281524E+02  0.10566000000E+00 0. -1.
         22    1    1    0    0    0 -0.57476071998E+01  0.24281722102E+02  0.15406485321E+02  0.29325702152E+02  0.00000000000E+00 0.  1.
</event>
<event>
 5    1  0.1764311E-003  0.9118800E+02  0.7818608E-02  0.1130116E+00
         25   -1    0    0    0    0  0.00000000000E+00  0.00000000000E+00  0.99999998245E-14  0.12500000000E+03  0.12500000000E+03 0.  0.
        -13    1    3    3    0    0  0.13446094485E+02  0.24246153659E+02  0.44569785558E+02  0.52489526316E+02  0.10566000000E+00 0. -1.
         23    2    1    0    0    0 -0.15146021425E+02  0.30152107011E+00  0.27713490695E+02  0.93416294605E+02  0.87915150294E+02 0.  0.
         13    1    3    3    0    0 -0.28592115910E+02 -0.23944632588E+02 -0.16856294863E+02  0.40926768289E+02  0.10566000000E+00 0.  1.
         22    1    1    0    0    0  0.15146021425E+02 -0.30152107011E+00 -0.27713490695E+02  0.31583705395E+02  0.00000000000E+00 0. -1.
</event>
<event>
 5    1  0.1764311E-003  0.9118800E+02  0.7818608E-02  0.1130116E+00
         25   -1    0    0    0    0  0.00000000000E+00  0.00000000000E+00  0.99999998245E-14  0.12500000000E+03  0.12500000000E+03 0.  0.
        -13    1    3    3    0    0  0.45699708614E+02 -0.10742988867E+02 -0.10322455203E+02  0.48067030516E+02  0.10566000000E+00 0. -1.
         23    2    1    0    0    0  0.61659004275E+01 -0.24476542605E+02  0.13656542152E+02  0.96301208919E+02  0.91925525452E+02 0.  0.
         13    1    3    3    0    0 -0.39533808187E+02 -0.13733553738E+02  0.23978997354E+02  0.48234178402E+02  0.10566000000E+00 0.  1.
         22    1    1    0    0    0 -0.61659004275E+01  0.24476542605E+02 -0.13656542152E+02  0.28698791081E+02  0.00000000000E+00 0.  1.
</event>
<event>
 5    1  0.1764311E-003  0.9118800E+02  0.7818608E-02  0.1130116E+00
         25   -1    0    0    0    0  0.00000000000E+00  0.00000000000E+00  0.99999998245E-14  0.12500000000E+03  0.12500000000E+03 0.  0.
        -13    1    3    3    0    0 -0.18432790389E+02  0.39595809782E+02  0.65414054948E+00  0.43681059713E+02  0.10566000000E+00 0. -1.
         23    2    1    0    0    0  0.24019188541E+02  0.96083275736E+01  0.11357457282E+02  0.96746978695E+02  0.92529696172E+02 0.  0.
         13    1    3    3    0    0  0.42451978930E+02 -0.29987482208E+02  0.10703316733E+02  0.53065918982E+02  0.10566000000E+00 0.  1.
         22    1    1    0    0    0 -0.24019188541E+02 -0.96083275736E+01 -0.11357457282E+02  0.28253021305E+02  0.00000000000E+00 0.  1.
</event>
<event>
 5    1  0.1764311E-003  0.9118800E+02  0.7818608E-02  0.1130116E+00
         25   -1    0    0    0    0  0.00000000000E+00  0.00000000000E+00  0.99999998245E-14  0.12500000000E+03  0.12500000000E+03 0.  0.
        -13    1    3    3    0    0 -0.22424674566E+02  0.34063921330E+02 -0.38787397447E+02  0.56282236368E+02  0.10566000000E+00 0.  1.
         23    2    1    0    0    0  0.78967343428E+01  0.17698335334E+02 -0.24936212928E+02  0.93418293237E+02  0.87917991955E+02 0.  0.
         13    1    3    3    0    0  0.30321408909E+02 -0.16365585996E+02  0.13851184520E+02  0.37136056870E+02  0.10566000000E+00 0. -1.
         22    1    1    0    0    0 -0.78967343428E+01 -0.17698335334E+02  0.24936212928E+02  0.31581706763E+02  0.00000000000E+00 0.  1.
</event>
<event>
 5    1  0.1764311E-003  0.9118800E+02  0.7818608E-02  0.1130116E+00
         25   -1    0    0    0    0  0.00000000000E+00  0.00000000000E+00  0.99999998245E-14  0.12500000000E+03  0.12500000000E+03 0.  0.
        -13    1    3    3    0    0 -0.26716161092E+02 -0.20610175674E+02 -0.20778927175E+02  0.39627106674E+02  0.10566000000E+00 0. -1.
         23    2    1    0    0    0 -0.11035716850E+02  0.28453726465E+02 -0.21337769184E+01  0.94406624899E+02  0.89312128094E+02 0.  0.
         13    1    3    3    0    0  0.15680444242E+02  0.49063902139E+02  0.18645150257E+02  0.54779518224E+02  0.10566000000E+00 0.  1.
         22    1    1    0    0    0  0.11035716850E+02 -0.28453726465E+02  0.21337769184E+01  0.30593375101E+02  0.00000000000E+00 0.  1.
</event>
<event>
 5    1  0.1764311E-003  0.9118800E+02  0.7818608E-02  0.1130116E+00
         25   -1    0    0    0    0  0.00000000000E+00  0.00000000000E+00  0.99999998245E-14  0.12500000000E+03  0.12500000000E+03 0.  0.
        -13    1    3    3    0    0  0.35063899155E+02 -0.20889853681E+02 -0.33750302016E+02  0.52961845332E+02  0.10566000000E+00 0.  1.
         23    2    1    0    0    0  0.22317249865E+02  0.13971915828E+02 -0.11256340706E+02  0.96364719671E+02  0.92011846617E+02 0.  0.
         13    1    3    3    0    0 -0.12746649290E+02  0.34861769509E+02  0.22493961310E+02  0.43402874339E+02  0.10566000000E+00 0. -1.
         22    1    1    0    0    0 -0.22317249865E+02 -0.13971915828E+02  0.11256340706E+02  0.28635280329E+02  0.00000000000E+00 0. -1.
</event>
<event>
 5    1  0.1764311E-003  0.9118800E+02  0.7818608E-02  0.1130116E+00
         25   -1    0    0    0    0  0.00000000000E+00  0.00000000000E+00  0.99999998245E-14  0.12500000000E+03  0.12500000000E+03 0.  0.
        -13    1    3    3    0    0  0.38771410268E+02  0.27374900871E+02  0.30241741527E+01  0.47558009265E+02  0.10566000000E+00 0. -1.
         23    2    1    0    0    0 -0.44772569790E+01  0.14084557984E+01  0.22785787840E+02  0.10173582786E+03  0.99040178541E+02 0.  0.
         13    1    3    3    0    0 -0.43248667247E+02 -0.25966445073E+02  0.19761613687E+02  0.54177818597E+02  0.10566000000E+00 0.  1.
         22    1    1    0    0    0  0.44772569790E+01 -0.14084557984E+01 -0.22785787840E+02  0.23264172138E+02  0.00000000000E+00 0.  1.
</event>
<event>
 5    1  0.1764311E-003  0.9118800E+02  0.7818608E-02  0.1130116E+00
         25   -1    0    0    0    0  0.00000000000E+00  0.00000000000E+00  0.99999998245E-14  0.12500000000E+03  0.12500000000E+03 0.  0.
        -13    1    3    3    0    0 -0.31009829553E+02  0.37563749788E+02 -0.40883762020E+01  0.48881190770E+02  0.10566000000E+00 0.  1.
         23    2    1    0    0    0 -0.20125570536E+02 -0.23362338687E+00  0.21298680275E+02  0.95695956751E+02  0.91098788069E+02 0.  0.
         13    1    3    3    0    0  0.10884259017E+02 -0.37797373175E+02  0.25387056477E+02  0.46814765981E+02  0.10566000000E+00 0. -1.
         22    1    1    0    0    0  0.20125570536E+02  0.23362338687E+00 -0.21298680275E+02  0.29304043249E+02  0.00000000000E+00 0. -1.
</event>
<event>
 5    1  0.1764311E-003  0.9118800E+02  0.7818608E-02  0.1130116E+00
         25   -1    0    0    0    0  0.00000000000E+00  0.00000000000E+00  0.99999998245E-14  0.12500000000E+03  0.12500000000E+03 0.  0.
        -13    1    3    3    0    0 -0.15379863571E+02  0.40382673139E+01 -0.32013698124E+02  0.35745431008E+02  0.10566000000E+00 0. -1.
         23    2    1    0    0    0 -0.93296412341E+01 -0.11417741612E+02  0.25465848227E+02  0.95573541583E+02  0.90930662572E+02 0.  0.
         13    1    3    3    0    0  0.60502223371E+01 -0.15456008926E+02  0.57479546350E+02  0.59828110575E+02  0.10566000000E+00 0.  1.
         22    1    1    0    0    0  0.93296412341E+01  0.11417741612E+02 -0.25465848227E+02  0.29426458417E+02  0.00000000000E+00 0.  1.
</event>
<event>
 5    1  0.1764311E-003  0.9118800E+02  0.7818608E-02  0.1130116E+00
         25   -1    0    0    0    0  0.00000000000E+00  0.00000000000E+00  0.99999998245E-14  0.12500000000E+03  0.12500000000E+03 0.  0.
        -13    1    3    3    0    0  0.27750300080E+02  0.14423218832E+02 -0.35324852355E+02  0.47180130924E+02  0.10566000000E+00 0. -1.
         23    2    1    0    0    0  0.14524870882E+02  0.30138913483E+02  0.37594127461E+01  0.91333114723E+02  0.84901582321E+02 0.  0.
         13    1    3    3    0    0 -0.13225429198E+02  0.15715694651E+02  0.39084265101E+02  0.44152983799E+02  0.10566000000E+00 0.  1.
         22    1    1    0    0    0 -0.14524870882E+02 -0.30138913483E+02 -0.37594127461E+01  0.33666885277E+02  0.00000000000E+00 0. -1.
</event>
<event>
 5    1  0.1764311E-003  0.9118800E+02  0.7818608E-02  0.1130116E+00
         25   -1    0    0    0    0  0.00000000000E+00  0.00000000000E+00  0.99999998245E-14  0.12500000000E+03  0.12500000000E+03 0.  0.
        -13    1    3    3    0    0 -0.41824098872E+02 -0.10618631222E+01 -0.82554292879E+00  0.41845853856E+02  0.10566000000E+00 0.  1.
         23    2    1    0    0    0  0.48713340509E+01 -0.27394555511E+02  0.77041191320E+01  0.96128820275E+02  0.91690812347E+02 0.  0.
         13    1    3    3    0    0  0.46695432923E+02 -0.26332692389E+02  0.85296620608E+01  0.54282966419E+02  0.10566000000E+00 0. -1.
         22    1    1    0    0    0 -0.48713340509E+01  0.27394555511E+02 -0.77041191320E+01  0.28871179725E+02  0.00000000000E+00 0.  1.
</event>
<event>
 5    1  0.1764311E-003  0.9118800E+02  0.7818608E-02  0.1130116E+00
         25   -1    0    0    0    0  0.00000000000E+00  0.00000000000E+00  0.99999998245E-14  0.12500000000E+03  0.12500000000E+03 0.  0.
        -13    1    3    3    0    0 -0.33389031999E+02  0.16014962685E+02  0.20993653186E+02  0.42568193828E+02  0.10566000000E+00 0.  1.
         23    2    1    0    0    0  0.18530992207E+02  0.14163176228E+02  0.19590858318E+02  0.94540273103E+02  0.89498984774E+02 0.  0.
         13    1    3    3    0    0  0.51920024206E+02 -0.18517864562E+01 -0.14027948688E+01  0.51972079274E+02  0.10566000000E+00 0. -1.
         22    1    1    0    0    0 -0.18530992207E+02 -0.14163176228E+02 -0.19590858318E+02  0.30459726897E+02  0.00000000000E+00 0. -1.
</event>
<event>
 5    1  0.1764311E-003  0.9118800E+02  0.7818608E-02  0.1130116E+00
         25   -1    0    0    0    0  0.00000000000E+00  0.00000000000E+00  0.99999998245E-14  0.12500000000E+03  0.12500000000E+03 0.  0.
        -13    1    3    3    0    0 -0.14778759532E+02 -0.24957178417E+02 -0.27310790885E+02  0.39839213731E+02  0.10566000000E+00 0.  1.
         23    2    1    0    0    0  0.25360797397E+02  0.10109819428E+02 -0.76883698467E+01  0.96636475459E+02  0.92380294786E+02 0.  0.
         13    1    3    3    0    0  0.40139556929E+02  0.35066997845E+02  0.19622421038E+02  0.56797261728E+02  0.10566000000E+00 0. -1.
         22    1    1    0    0    0 -0.25360797397E+02 -0.10109819428E+02  0.76883698467E+01  0.28363524541E+02  0.00000000000E+00 0. -1.
</event>
<event>
 5    1  0.1764311E-003  0.9118800E+02  0.7818608E-02  0.1130116E+00
         25   -1    0    0    0    0  0.00000000000E+00  0.00000000000E+00  0.99999998245E-14  0.12500000000E+03  0.12500000000E+03 0.  0.
        -13    1    3    3    0    0  0.35744177051E+02 -0.11236540616E+02 -0.15523766834E+02  0.40557422734E+02  0.10566000000E+00 0. -1.
         23    2    1    0    0    0 -0.20985498788E+02 -0.59208236839E+01 -0.16679241416E+02  0.97547415301E+02  0.93604774586E+02 0.  0.
         13    1    3    3    0    0 -0.56729675839E+02  0.53157169319E+01 -0.11554745819E+01  0.56989992567E+02  0.10566000000E+00 0.  1.
         22    1    1    0    0    0  0.20985498788E+02  0.59208236839E+01  0.16679241416E+02  0.27452584699E+02  0.00000000000E+00 0.  1.
</event>
<event>
 5    1  0.1764311E-003  0.9118800E+02  0.7818608E-02  0.1130116E+00
         25   -1    0    0    0    0  0.00000000000E+00  0.00000000000E+00  0.99999998245E-14  0.12500000000E+03  0.12500000000E+03 0.  0.
        -13    1    3    3    0    0 -0.10509925693E+01  0.12340074011E+02 -0.43877011382E+02  0.45591504733E+02  0.10566000000E+00 0.  1.
         23    2    1    0    0    0 -0.23911478091E+02 -0.15128393385E+02 -0.95708138382E+01  0.95129821754E+02  0.90318632843E+02 0.  0.
         13    1    3    3    0    0 -0.22860485521E+02 -0.27468467397E+02  0.34306197543E+02  0.49538317021E+02  0.10566000000E+00 0. -1.
         22    1    1    0    0    0  0.23911478091E+02  0.15128393385E+02  0.95708138382E+01  0.29870178246E+02  0.00000000000E+00 0.  1.
</event>
<event>
 5    1  0.1764311E-003  0.9118800E+02  0.7818608E-02  0.1130116E+00
         25   -1    0    0    0    0  0.00000000000E+00  0.00000000000E+00  0.99999998245E-14  0.12500000000E+03  0.12500000000E+03 0.  0.
        -13    1    3    3    0    0 -0.72796151051E+01  0.35030512737E+02  0.23453539862E+02  0.42780945698E+02  0.10566000000E+00 0. -1.
         23    2    1    0    0    0 -0.17588916385E+02  0.11562374787E+02 -0.21741267362E+02  0.94738783950E+02  0.89775809589E+02 0.  0.
         13    1    3    3    0    0 -0.10309301280E+02 -0.23468137950E+02 -0.45194807224E+02  0.51957838252E+02  0.10566000000E+00 0.  1.
         22    1    1    0    0    0  0.17588916385E+02 -0.11562374787E+02  0.21741267362E+02  0.30261216050E+02  0.00000000000E+00 0.  1.
</event>
<event>
 5    1  0.1764311E-003  0.9118800E+02  0.7818608E-02  0.1130116E+00
         25   -1    0    0    0    0  0.00000000000E+00  0.00000000000E+00  0.99999998245E-14  0.12500000000E+03  0.12500000000E+03 0.  0.
        -13    1    3    3    0    0  0.12333889753E+02  0.25772116604E+02 -0.42022942322E+02  0.50815998231E+02  0.10566000000E+00 0.  1.
         23    2    1    0    0    0 -0.69125732996E+01  0.28748200696E+02 -0.19532187892E+01  0.95367960304E+02  0.90647614840E+02 0.  0.
         13    1    3    3    0    0 -0.19246463053E+02  0.29760840920E+01  0.40069723533E+02  0.44551962074E+02  0.10566000000E+00 0. -1.
         22    1    1    0    0    0  0.69125732996E+01 -0.28748200696E+02  0.19532187892E+01  0.29632039696E+02  0.00000000000E+00 0.  1.
</event>
<event>
 5    1  0.1764311E-003  0.9118800E+02  0.7818608E-02  0.1130116E+00
         25   -1    0    0    0    0  0.00000000000E+00  0.00000000000E+00  0.99999998245E-14  0.12500000000E+03  0.12500000000E+03 0.  0.
        -13    1    3    3    0    0 -0.90505346561E+01 -0.23499871087E+02 -0.53623114895E+02  0.59241925473E+02  0.10566000000E+00 0. -1.
         23    2    1    0    0    0 -0.14417395586E+02 -0.18781415447E+02 -0.18867256789E+02  0.94724989836E+02  0.89756601200E+02 0.  0.
         13    1    3    3    0    0 -0.53668609296E+01  0.47184556400E+01  0.34755858106E+02  0.35483064363E+02  0.10566000000E+00 0.  1.
         22    1    1    0    0    0  0.14417395586E+02  0.18781415447E+02  0.18867256789E+02  0.30275010164E+02  0.00000000000E+00 0. -1.
</event>
<event>
 5    1  0.1764311E-003  0.9118800E+02  0.7818608E-02  0.1130116E+00
         25   -1    0    0    0    0  0.00000000000E+00  0.00000000000E+00  0.99999998245E-14  0.12500000000E+03  0.12500000000E+03 0.  0.
        -13    1    3    3    0    0  0.48539274465E+02  0.12497649188E+01  0.34697649334E+02  0.59678816269E+02  0.10566000000E+00 0. -1.
         23    2    1    0    0    0  0.22345989970E+02  0.13829642661E+02  0.15970938272E+02  0.94248200815E+02  0.89090124052E+02 0.  0.
         13    1    3    3    0    0 -0.26193284495E+02  0.12579877742E+02 -0.18726711062E+02  0.34569384546E+02  0.10566000000E+00 0.  1.
         22    1    1    0    0    0 -0.22345989970E+02 -0.13829642661E+02 -0.15970938272E+02  0.30751799185E+02  0.00000000000E+00 0. -1.
</event>
<event>
 5    1  0.1764311E-003  0.9118800E+02  0.7818608E-02  0.1130116E+00
         25   -1    0    0    0    0  0.00000000000E+00  0.00000000000E+00  0.99999998245E-14  0.12500000000E+03  0.12500000000E+03 0.  0.
        -13    1    3    3    0    0  0.35575498418E+02 -0.55573242572E+01 -0.32003417662E+01  0.36149042754E+02  0.10566000000E+00 0.  1.
         23    2    1    0    0    0 -0.21827551288E+02 -0.19815925712E+02 -0.36184987539E+01  0.95298039790E+02  0.90551145479E+02 0.  0.
         13    1    3    3    0    0 -0.57403049706E+02 -0.14258601455E+02 -0.41815698762E+00  0.59148997036E+02  0.10566000000E+00 0. -1.
         22    1    1    0    0    0  0.21827551288E+02  0.19815925712E+02  0.36184987539E+01  0.29701960210E+02  0.00000000000E+00 0. -1.
</event>
<event>
 5    1  0.1764311E-003  0.9118800E+02  0.7818608E-02  0.1130116E+00
         25   -1    0    0    0    0  0.00000000000E+00  0.00000000000E+00  0.99999998245E-14  0.12500000000E+03  0.12500000000E+03 0.  0.
        -13    1    3    3    0    0  0.47228577986E+02  0.29344071942E+02  0.23012757742E+02  0.60176501391E+02  0.10566000000E+00 0. -1.
         23    2    1    0    0    0  0.27218952407E+02  0.13794135546E+02 -0.11469592388E+00  0.94485041361E+02  0.89421811322E+02 0.  0.
         13    1    3    3    0    0 -0.20009625579E+02 -0.15549936396E+02 -0.23127453666E+02  0.34308539969E+02  0.10566000000E+00 0.  1.
         22    1    1    0    0    0 -0.27218952407E+02 -0.13794135546E+02  0.11469592388E+00  0.30514958639E+02  0.00000000000E+00 0. -1.
</event>
<event>
 5    1  0.1764311E-003  0.9118800E+02  0.7818608E-02  0.1130116E+00
         25   -1    0    0    0    0  0.00000000000E+00  0.00000000000E+00  0.99999998245E-14  0.12500000000E+03  0.12500000000E+03 0.  0.
        -13    1    3    3    0    0 -0.26971604331E+02 -0.19963543369E+02  0.43588270632E+01  0.33838159546E+02  0.10566000000E+00 0. -1.
         23    2    1    0    0    0  0.27114023053E+02  0.86781163590E+01 -0.59883286038E+01  0.95908076221E+02  0.91389381524E+02 0.  0.
         13    1    3    3    0    0  0.54085627385E+02  0.28641659728E+02 -0.10347155667E+02  0.62069916675E+02  0.10566000000E+00 0.  1.
         22    1    1    0    0    0 -0.27114023053E+02 -0.86781163590E+01  0.59883286038E+01  0.29091923779E+02  0.00000000000E+00 0.  1.
</event>
<event>
 5    1  0.1764311E-003  0.9118800E+02  0.7818608E-02  0.1130116E+00
         25   -1    0    0    0    0  0.00000000000E+00  0.00000000000E+00  0.99999998245E-14  0.12500000000E+03  0.12500000000E+03 0.  0.
        -13    1    3    3    0    0  0.83642093440E+01  0.44233551171E+02 -0.62489157273E+01  0.45449171158E+02  0.10566000000E+00 0. -1.
         23    2    1    0    0    0  0.29730602277E+02  0.11270791773E+01  0.49304158344E+01  0.94842280929E+02  0.89919798890E+02 0.  0.
         13    1    3    3    0    0  0.21366392933E+02 -0.43106471994E+02  0.11179331562E+02  0.49393109772E+02  0.10566000000E+00 0.  1.
         22    1    1    0    0    0 -0.29730602277E+02 -0.11270791773E+01 -0.49304158344E+01  0.30157719071E+02  0.00000000000E+00 0. -1.
</event>
<event>
 5    1  0.1764311E-003  0.9118800E+02  0.7818608E-02  0.1130116E+00
         25   -1    0    0    0    0  0.00000000000E+00  0.00000000000E+00  0.99999998245E-14  0.12500000000E+03  0.12500000000E+03 0.  0.
        -13    1    3    3    0    0 -0.48395718026E+02  0.99609805153E+00  0.91227607896E+01  0.49258234470E+02  0.10566000000E+00 0.  1.
         23    2    1    0    0    0 -0.60593036725E+01 -0.17256989605E+02  0.21282118549E+02  0.96938506433E+02  0.92788073632E+02 0.  0.
         13    1    3    3    0    0  0.42336414354E+02 -0.18253087657E+02  0.12159357760E+02  0.47680271964E+02  0.10566000000E+00 0. -1.
         22    1    1    0    0    0  0.60593036725E+01  0.17256989605E+02 -0.21282118549E+02  0.28061493567E+02  0.00000000000E+00 0. -1.
</event>
<event>
 5    1  0.1764311E-003  0.9118800E+02  0.7818608E-02  0.1130116E+00
         25   -1    0    0    0    0  0.00000000000E+00  0.00000000000E+00  0.99999998245E-14  0.12500000000E+03  0.12500000000E+03 0.  0.
        -13    1    3    3    0    0 -0.15793556594E+02  0.10119827385E+02 -0.39077200795E+02  0.43346120036E+02  0.10566000000E+00 0.  1.
         23    2    1    0    0    0 -0.12062123292E+02  0.27797809381E+02  0.79059446853E+01  0.93683598769E+02  0.88294392190E+02 0.  0.
         13    1    3    3    0    0  0.37314333022E+01  0.17677981997E+02  0.46983145480E+02  0.50337478733E+02  0.10566000000E+00 0. -1.
         22    1    1    0    0    0  0.12062123292E+02 -0.27797809381E+02 -0.79059446853E+01  0.31316401231E+02  0.00000000000E+00 0.  1.
</event>
<event>
 5    1  0.1764311E-003  0.9118800E+02  0.7818608E-02  0.1130116E+00
         25   -1    0    0    0    0  0.00000000000E+00  0.00000000000E+00  0.99999998245E-14  0.12500000000E+03  0.12500000000E+03 0.  0.
        -13    1    3    3    0    0 -0.87124417577E+01 -0.34815954583E+02  0.66029478816E+01  0.36492018575E+02  0.10566000000E+00 0.  1.
         23    2    1    0    0    0 -0.21915673508E+02  0.21050964648E+02 -0.20327699267E+01  0.94543933093E+02  0.89504096404E+02 0.  0.
         13    1    3    3    0    0 -0.13203231750E+02  0.55866919231E+02 -0.86357178082E+01  0.58051914517E+02  0.10566000000E+00 0. -1.
         22    1    1    0    0    0  0.21915673508E+02 -0.21050964648E+02  0.20327699267E+01  0.30456066907E+02  0.00000000000E+00 0. -1.
</event>
<event>
 5    1  0.1764311E-003  0.9118800E+02  0.7818608E-02  0.1130116E+00
         25   -1    0    0    0    0  0.00000000000E+00  0.00000000000E+00  0.99999998245E-14  0.12500000000E+03  0.12500000000E+03 0.  0.
        -13    1    3    3    0    0 -0.34952750061E+02 -0.33127896536E+02 -0.23938186385E+02  0.53779179960E+02  0.10566000000E+00 0.  1.
         23    2    1    0    0    0 -0.20868268521E+02  0.72067719707E+01 -0.17162282001E+02  0.97036342929E+02  0.92919781167E+02 0.  0.
         13    1    3    3    0    0  0.14084481540E+02  0.40334668507E+02  0.67759043841E+01  0.43257162968E+02  0.10566000000E+00 0. -1.
         22    1    1    0    0    0  0.20868268521E+02 -0.72067719707E+01  0.17162282001E+02  0.27963657071E+02  0.00000000000E+00 0.  1.
</event>
<event>
 5    1  0.1764311E-003  0.9118800E+02  0.7818608E-02  0.1130116E+00
         25   -1    0    0    0    0  0.00000000000E+00  0.00000000000E+00  0.99999998245E-14  0.12500000000E+03  0.12500000000E+03 0.  0.
        -13    1    3    3    0    0  0.43106418896E+02 -0.25120736509E+02 -0.25135205733E+01  0.49955417149E+02  0.10566000000E+00 0. -1.
         23    2    1    0    0    0  0.23595897054E+02  0.96375164150E+01  0.17027342305E+02  0.94347455793E+02  0.89229277416E+02 0.  0.
         13    1    3    3    0    0 -0.19510521842E+02  0.34758252924E+02  0.19540862878E+02  0.44392038644E+02  0.10566000000E+00 0.  1.
         22    1    1    0    0    0 -0.23595897054E+02 -0.96375164150E+01 -0.17027342305E+02  0.30652544207E+02  0.00000000000E+00 0. -1.
</event>
<event>
 5    1  0.1764311E-003  0.9118800E+02  0.7818608E-02  0.1130116E+00
         25   -1    0    0    0    0  0.00000000000E+00  0.00000000000E+00  0.99999998245E-14  0.12500000000E+03  0.12500000000E+03 0.  0.
        -13    1    3    3    0    0  0.43098199000E-01 -0.19603293005E+02 -0.27911335474E+02  0.34107840243E+02  0.10566000000E+00 0. -1.
         23    2    1    0    0    0 -0.36538062245E+00  0.24670701806E+02  0.15293891507E+02  0.95971046384E+02  0.91475469914E+02 0.  0.
         13    1    3    3    0    0 -0.40847882145E+00  0.44273994811E+02  0.43205226981E+02  0.61863206141E+02  0.10566000000E+00 0.  1.
         22    1    1    0    0    0  0.36538062245E+00 -0.24670701806E+02 -0.15293891507E+02  0.29028953616E+02  0.00000000000E+00 0.  1.
</event>
<event>
 5    1  0.1764311E-003  0.9118800E+02  0.7818608E-02  0.1130116E+00
         25   -1    0    0    0    0  0.00000000000E+00  0.00000000000E+00  0.99999998245E-14  0.12500000000E+03  0.12500000000E+03 0.  0.
        -13    1    3    3    0    0  0.31670713565E+02  0.19544959910E+02  0.11229495768E+02  0.38873542350E+02  0.10566000000E+00 0.  1.
         23    2    1    0    0    0  0.39210552005E+01 -0.27686889416E+02 -0.61957216987E+01  0.96358675192E+02  0.92003634700E+02 0.  0.
         13    1    3    3    0    0 -0.27749658364E+02 -0.47231849326E+02 -0.17425217467E+02  0.57485132842E+02  0.10566000000E+00 0. -1.
         22    1    1    0    0    0 -0.39210552005E+01  0.27686889416E+02  0.61957216987E+01  0.28641324808E+02  0.00000000000E+00 0. -1.
</event>
<event>
 5    1  0.1764311E-003  0.9118800E+02  0.7818608E-02  0.1130116E+00
         25   -1    0    0    0    0  0.00000000000E+00  0.00000000000E+00  0.99999998245E-14  0.12500000000E+03  0.12500000000E+03 0.  0.
        -13    1    3    3    0    0  0.39845585686E+02 -0.11427013443E+02  0.46302611496E+01  0.41709684933E+02  0.10566000000E+00 0.  1.
         23    2    1    0    0    0 -0.61880361344E+01 -0.13431537796E+01  0.29384556568E+02  0.94940924532E+02  0.90056821691E+02 0.  0.
         13    1    3    3    0    0 -0.46033621820E+02  0.10083859663E+02  0.24754295418E+02  0.53231239599E+02  0.10566000000E+00 0. -1.
         22    1    1    0    0    0  0.61880361344E+01  0.13431537796E+01 -0.29384556568E+02  0.30059075468E+02  0.00000000000E+00 0. -1.
</event>
<event>
 5    1  0.1764311E-003  0.9118800E+02  0.7818608E-02  0.1130116E+00
         25   -1    0    0    0    0  0.00000000000E+00  0.00000000000E+00  0.99999998245E-14  0.12500000000E+03  0.12500000000E+03 0.  0.
        -13    1    3    3    0    0  0.53315543603E+02  0.27849631415E+02 -0.15401789415E+02  0.62091669657E+02  0.10566000000E+00 0.  1.
         23    2    1    0    0    0  0.23823661496E+02  0.15648227464E+02 -0.29750405269E+01  0.96341934190E+02  0.91980886859E+02 0.  0.
         13    1    3    3    0    0 -0.29491882106E+02 -0.12201403951E+02  0.12426748888E+02  0.34250264532E+02  0.10566000000E+00 0. -1.
         22    1    1    0    0    0 -0.23823661496E+02 -0.15648227464E+02  0.29750405269E+01  0.28658065810E+02  0.00000000000E+00 0.  1.
</event>
<event>
 5    1  0.1764311E-003  0.9118800E+02  0.7818608E-02  0.1130116E+00
         25   -1    0    0    0    0  0.00000000000E+00  0.00000000000E+00  0.99999998245E-14  0.12500000000E+03  0.12500000000E+03 0.  0.
        -13    1    3    3    0    0 -0.16676216014E+02  0.15432389983E+02 -0.16853727793E+02  0.28289824066E+02  0.10566000000E+00 0. -1.
         23    2    1    0    0    0 -0.34942225214E+02 -0.69968198167E+01  0.26628148753E+02  0.80514351792E+02  0.67108776983E+02 0.  0.
         13    1    3    3    0    0 -0.18266009200E+02 -0.22429209800E+02  0.43481876545E+02  0.52224527727E+02  0.10566000000E+00 0.  1.
         22    1    1    0    0    0  0.34942225214E+02  0.69968198167E+01 -0.26628148753E+02  0.44485648208E+02  0.00000000000E+00 0.  1.
</event>
<event>
 5    1  0.1764311E-003  0.9118800E+02  0.7818608E-02  0.1130116E+00
         25   -1    0    0    0    0  0.00000000000E+00  0.00000000000E+00  0.99999998245E-14  0.12500000000E+03  0.12500000000E+03 0.  0.
        -13    1    3    3    0    0 -0.10755091728E+02 -0.29537920231E+02 -0.12462444100E+02  0.33815446273E+02  0.10566000000E+00 0.  1.
         23    2    1    0    0    0 -0.46883336202E+01  0.28853830437E+02  0.55973560274E+01  0.95236693774E+02  0.90466421635E+02 0.  0.
         13    1    3    3    0    0  0.60667581081E+01  0.58391750667E+02  0.18059800128E+02  0.61421247501E+02  0.10566000000E+00 0. -1.
         22    1    1    0    0    0  0.46883336202E+01 -0.28853830437E+02 -0.55973560274E+01  0.29763306226E+02  0.00000000000E+00 0. -1.
</event>
<event>
 5    1  0.1764311E-003  0.9118800E+02  0.7818608E-02  0.1130116E+00
         25   -1    0    0    0    0  0.00000000000E+00  0.00000000000E+00  0.99999998245E-14  0.12500000000E+03  0.12500000000E+03 0.  0.
        -13    1    3    3    0    0 -0.33162867336E+02 -0.29451845031E+02 -0.22923873793E+02  0.49926967656E+02  0.10566000000E+00 0. -1.
         23    2    1    0    0    0 -0.25519493104E+02  0.16436070844E+01  0.11516936490E+02  0.96953863035E+02  0.92808759062E+02 0.  0.
         13    1    3    3    0    0  0.76433742311E+01  0.31095452116E+02  0.34440810283E+02  0.47026895378E+02  0.10566000000E+00 0.  1.
         22    1    1    0    0    0  0.25519493104E+02 -0.16436070844E+01 -0.11516936490E+02  0.28046136965E+02  0.00000000000E+00 0.  1.
</event>
<event>
 5    1  0.1764311E-003  0.9118800E+02  0.7818608E-02  0.1130116E+00
         25   -1    0    0    0    0  0.00000000000E+00  0.00000000000E+00  0.99999998245E-14  0.12500000000E+03  0.12500000000E+03 0.  0.
        -13    1    3    3    0    0  0.21984978907E+02 -0.40688697601E+02  0.36785126324E+02  0.59093706033E+02  0.10566000000E+00 0.  1.
         23    2    1    0    0    0 -0.32776562835E+01 -0.23964108792E+02  0.19149735405E+02  0.94149815122E+02  0.88951974573E+02 0.  0.
         13    1    3    3    0    0 -0.25262635190E+02  0.16724588809E+02 -0.17635390919E+02  0.35056109089E+02  0.10566000000E+00 0. -1.
         22    1    1    0    0    0  0.32776562835E+01  0.23964108792E+02 -0.19149735405E+02  0.30850184878E+02  0.00000000000E+00 0.  1.
</event>
<event>
 5    1  0.1764311E-003  0.9118800E+02  0.7818608E-02  0.1130116E+00
         25   -1    0    0    0    0  0.00000000000E+00  0.00000000000E+00  0.99999998245E-14  0.12500000000E+03  0.12500000000E+03 0.  0.
        -13    1    3    3    0    0 -0.11266197811E+02  0.27733346278E+02 -0.24731882355E+02  0.38829664919E+02  0.10566000000E+00 0. -1.
         23    2    1    0    0    0  0.24737904761E+02  0.66460522313E+01  0.14041353437E+02  0.95788811244E+02  0.91226108165E+02 0.  0.
         13    1    3    3    0    0  0.36004102571E+02 -0.21087294046E+02  0.38773235792E+02  0.56959146324E+02  0.10566000000E+00 0.  1.
         22    1    1    0    0    0 -0.24737904761E+02 -0.66460522313E+01 -0.14041353437E+02  0.29211188756E+02  0.00000000000E+00 0.  1.
</event>
<event>
 5    1  0.1764311E-003  0.9118800E+02  0.7818608E-02  0.1130116E+00
         25   -1    0    0    0    0  0.00000000000E+00  0.00000000000E+00  0.99999998245E-14  0.12500000000E+03  0.12500000000E+03 0.  0.
        -13    1    3    3    0    0  0.95246875969E+01 -0.46167760757E+01 -0.33594082285E+02  0.35222263184E+02  0.10566000000E+00 0.  1.
         23    2    1    0    0    0 -0.31795375640E+01  0.21560231645E+02  0.19493178662E+02  0.95760693201E+02  0.91187572072E+02 0.  0.
         13    1    3    3    0    0 -0.12704225161E+02  0.26177007721E+02  0.53087260947E+02  0.60538430018E+02  0.10566000000E+00 0. -1.
         22    1    1    0    0    0  0.31795375640E+01 -0.21560231645E+02 -0.19493178662E+02  0.29239306799E+02  0.00000000000E+00 0. -1.
</event>
<event>
 5    1  0.1764311E-003  0.9118800E+02  0.7818608E-02  0.1130116E+00
         25   -1    0    0    0    0  0.00000000000E+00  0.00000000000E+00  0.99999998245E-14  0.12500000000E+03  0.12500000000E+03 0.  0.
        -13    1    3    3    0    0 -0.39397152388E+02 -0.10358430264E+02 -0.18941459398E+02  0.44924634022E+02  0.10566000000E+00 0.  1.
         23    2    1    0    0    0  0.14070648410E+02 -0.89498069680E+01 -0.20673595790E+02  0.98439131145E+02  0.94788094116E+02 0.  0.
         13    1    3    3    0    0  0.53467800798E+02  0.14086232960E+01 -0.17321363919E+01  0.53514497123E+02  0.10566000000E+00 0. -1.
         22    1    1    0    0    0 -0.14070648410E+02  0.89498069680E+01  0.20673595790E+02  0.26560868855E+02  0.00000000000E+00 0.  1.
</event>
<event>
 5    1  0.1764311E-003  0.9118800E+02  0.7818608E-02  0.1130116E+00
         25   -1    0    0    0    0  0.00000000000E+00  0.00000000000E+00  0.99999998245E-14  0.12500000000E+03  0.12500000000E+03 0.  0.
        -13    1    3    3    0    0  0.29549386563E+02 -0.38306342886E+02  0.12622320315E+02  0.49998762842E+02  0.10566000000E+00 0. -1.
         23    2    1    0    0    0 -0.14579190399E+02 -0.20875745323E+02  0.10394036354E+02  0.97497535979E+02  0.93538141925E+02 0.  0.
         13    1    3    3    0    0 -0.44128576962E+02  0.17430597563E+02 -0.22282839607E+01  0.47498773137E+02  0.10566000000E+00 0.  1.
         22    1    1    0    0    0  0.14579190399E+02  0.20875745323E+02 -0.10394036354E+02  0.27502464021E+02  0.00000000000E+00 0.  1.
</event>
<event>
 5    1  0.1764311E-003  0.9118800E+02  0.7818608E-02  0.1130116E+00
         25   -1    0    0    0    0  0.00000000000E+00  0.00000000000E+00  0.99999998245E-14  0.12500000000E+03  0.12500000000E+03 0.  0.
        -13    1    3    3    0    0 -0.45402649065E+02  0.66539571926E+01 -0.24143543443E+02  0.51851687942E+02  0.10566000000E+00 0. -1.
         23    2    1    0    0    0 -0.26644755476E+02 -0.28814737250E+01  0.13510806176E+02  0.94986873394E+02  0.90120576720E+02 0.  0.
         13    1    3    3    0    0  0.18757893589E+02 -0.95354309176E+01  0.37654349619E+02  0.43135185452E+02  0.10566000000E+00 0.  1.
         22    1    1    0    0    0  0.26644755476E+02  0.28814737250E+01 -0.13510806176E+02  0.30013126606E+02  0.00000000000E+00 0.  1.
</event>
<event>
 5    1  0.1764311E-003  0.9118800E+02  0.7818608E-02  0.1130116E+00
         25   -1    0    0    0    0  0.00000000000E+00  0.00000000000E+00  0.99999998245E-14  0.12500000000E+03  0.12500000000E+03 0.  0.
        -13    1    3    3    0    0  0.49636160019E+02  0.41109103683E+01 -0.34866353414E+02  0.60797382591E+02  0.10566000000E+00 0.  1.
         23    2    1    0    0    0  0.16980455631E+02  0.32892726139E+01 -0.24384699779E+02  0.95104034200E+02  0.90282936096E+02 0.  0.
         13    1    3    3    0    0 -0.32655704388E+02 -0.82163775436E+00  0.10481653634E+02  0.34306651609E+02  0.10566000000E+00 0. -1.
         22    1    1    0    0    0 -0.16980455631E+02 -0.32892726139E+01  0.24384699779E+02  0.29895965800E+02  0.00000000000E+00 0.  1.
</event>
<event>
 5    1  0.1764311E-003  0.9118800E+02  0.7818608E-02  0.1130116E+00
         25   -1    0    0    0    0  0.00000000000E+00  0.00000000000E+00  0.99999998245E-14  0.12500000000E+03  0.12500000000E+03 0.  0.
        -13    1    3    3    0    0  0.84713232422E+00 -0.23404893862E+02  0.31624295104E+02  0.39352431878E+02  0.10566000000E+00 0.  1.
         23    2    1    0    0    0  0.29565672096E+02  0.82706877765E+01 -0.26985211687E+01  0.94180927021E+02  0.88995683914E+02 0.  0.
         13    1    3    3    0    0  0.28718539772E+02  0.31675581639E+02 -0.34322816272E+02  0.54828495143E+02  0.10566000000E+00 0. -1.
         22    1    1    0    0    0 -0.29565672096E+02 -0.82706877765E+01  0.26985211687E+01  0.30819072979E+02  0.00000000000E+00 0. -1.
</event>
<event>
 5    1  0.1764311E-003  0.9118800E+02  0.7818608E-02  0.1130116E+00
         25   -1    0    0    0    0  0.00000000000E+00  0.00000000000E+00  0.99999998245E-14  0.12500000000E+03  0.12500000000E+03 0.  0.
        -13    1    3    3    0    0  0.17796434655E+02  0.83952335026E+01  0.41147294832E+02  0.45610350449E+02  0.10566000000E+00 0. -1.
         23    2    1    0    0    0 -0.18016234495E+02  0.16385333461E+00  0.38548645527E+02  0.82448741203E+02  0.70620006377E+02 0.  0.
         13    1    3    3    0    0 -0.35812669150E+02 -0.82313801680E+01 -0.25986493057E+01  0.36838390754E+02  0.10566000000E+00 0.  1.
         22    1    1    0    0    0  0.18016234495E+02 -0.16385333461E+00 -0.38548645527E+02  0.42551258797E+02  0.00000000000E+00 0.  1.
</event>
<event>
 5    1  0.1764311E-003  0.9118800E+02  0.7818608E-02  0.1130116E+00
         25   -1    0    0    0    0  0.00000000000E+00  0.00000000000E+00  0.99999998245E-14  0.12500000000E+03  0.12500000000E+03 0.  0.
        -13    1    3    3    0    0 -0.96159177011E+01 -0.54833190800E+02 -0.15114426163E+02  0.57685368412E+02  0.10566000000E+00 0.  1.
         23    2    1    0    0    0  0.11457071353E+02 -0.22356778804E+02 -0.13609382447E+02  0.96428942388E+02  0.92099053182E+02 0.  0.
         13    1    3    3    0    0  0.21072989054E+02  0.32476411996E+02  0.15050437160E+01  0.38743573976E+02  0.10566000000E+00 0. -1.
         22    1    1    0    0    0 -0.11457071353E+02  0.22356778804E+02  0.13609382447E+02  0.28571057612E+02  0.00000000000E+00 0.  1.
</event>
<event>
 5    1  0.1764311E-003  0.9118800E+02  0.7818608E-02  0.1130116E+00
         25   -1    0    0    0    0  0.00000000000E+00  0.00000000000E+00  0.99999998245E-14  0.12500000000E+03  0.12500000000E+03 0.  0.
        -13    1    3    3    0    0  0.21230548576E+02  0.25895995483E+02 -0.47120331876E+01  0.33816463382E+02  0.10566000000E+00 0. -1.
         23    2    1    0    0    0 -0.75919130145E+01 -0.27712422043E+02 -0.91532797234E+01  0.94843773306E+02  0.89921873460E+02 0.  0.
         13    1    3    3    0    0 -0.28822461590E+02 -0.53608417526E+02 -0.44412465358E+01  0.61027309924E+02  0.10566000000E+00 0.  1.
         22    1    1    0    0    0  0.75919130145E+01  0.27712422043E+02  0.91532797234E+01  0.30156226694E+02  0.00000000000E+00 0.  1.
</event>
<event>
 5    1  0.1764311E-003  0.9118800E+02  0.7818608E-02  0.1130116E+00
         25   -1    0    0    0    0  0.00000000000E+00  0.00000000000E+00  0.99999998245E-14  0.12500000000E+03  0.12500000000E+03 0.  0.
        -13    1    3    3    0    0  0.11779282437E+02 -0.28368559799E+02 -0.38075718056E+02  0.48921346561E+02  0.10566000000E+00 0.  1.
         23    2    1    0    0    0 -0.19699940090E+02  0.26776543114E+01 -0.20334854298E+02  0.96561227673E+02  0.92278420653E+02 0.  0.
         13    1    3    3    0    0 -0.31479222527E+02  0.31046214110E+02  0.17740863758E+02  0.47639881112E+02  0.10566000000E+00 0. -1.
         22    1    1    0    0    0  0.19699940090E+02 -0.26776543114E+01  0.20334854298E+02  0.28438772327E+02  0.00000000000E+00 0.  1.
</event>
<event>
 5    1  0.1764311E-003  0.9118800E+02  0.7818608E-02  0.1130116E+00
         25   -1    0    0    0    0  0.00000000000E+00  0.00000000000E+00  0.99999998245E-14  0.12500000000E+03  0.12500000000E+03 0.  0.
        -13    1    3    3    0    0  0.27788620470E+02 -0.25267616097E+02  0.64091033248E+01  0.38101805998E+02  0.10566000000E+00 0. -1.
         23    2    1    0    0    0 -0.42957304891E+01  0.23723971434E+02 -0.99672930571E+01  0.98911169978E+02  0.95408555667E+02 0.  0.
         13    1    3    3    0    0 -0.32084350959E+02  0.48991587531E+02 -0.16376396382E+02  0.60809363980E+02  0.10566000000E+00 0.  1.
         22    1    1    0    0    0  0.42957304891E+01 -0.23723971434E+02  0.99672930571E+01  0.26088830022E+02  0.00000000000E+00 0.  1.
</event>
<event>
 5    1  0.1764311E-003  0.9118800E+02  0.7818608E-02  0.1130116E+00
         25   -1    0    0    0    0  0.00000000000E+00  0.00000000000E+00  0.99999998245E-14  0.12500000000E+03  0.12500000000E+03 0.  0.
        -13    1    3    3    0    0 -0.43358981111E+02  0.34801508776E+02  0.48496653203E+01  0.55809288419E+02  0.10566000000E+00 0. -1.
         23    2    1    0    0    0 -0.28853179097E+02  0.70997864853E+01 -0.13820895287E+02  0.92229127893E+02  0.86210683638E+02 0.  0.
         13    1    3    3    0    0  0.14505802014E+02 -0.27701722291E+02 -0.18670560607E+02  0.36419839474E+02  0.10566000000E+00 0.  1.
         22    1    1    0    0    0  0.28853179097E+02 -0.70997864853E+01  0.13820895287E+02  0.32770872107E+02  0.00000000000E+00 0. -1.
</event>
<event>
 5    1  0.1764311E-003  0.9118800E+02  0.7818608E-02  0.1130116E+00
         25   -1    0    0    0    0  0.00000000000E+00  0.00000000000E+00  0.99999998245E-14  0.12500000000E+03  0.12500000000E+03 0.  0.
        -13    1    3    3    0    0  0.40197826284E+02 -0.44554963377E+01 -0.17676326364E+02  0.44138196195E+02  0.10566000000E+00 0.  1.
         23    2    1    0    0    0  0.10316130798E+02 -0.16178528640E+02  0.22413454795E+02  0.95495249544E+02  0.90822972788E+02 0.  0.
         13    1    3    3    0    0 -0.29881695485E+02 -0.11723032303E+02  0.40089781158E+02  0.51357053350E+02  0.10566000000E+00 0. -1.
         22    1    1    0    0    0 -0.10316130798E+02  0.16178528640E+02 -0.22413454795E+02  0.29504750456E+02  0.00000000000E+00 0. -1.
</event>
<event>
 5    1  0.1764311E-003  0.9118800E+02  0.7818608E-02  0.1130116E+00
         25   -1    0    0    0    0  0.00000000000E+00  0.00000000000E+00  0.99999998245E-14  0.12500000000E+03  0.12500000000E+03 0.  0.
        -13    1    3    3    0    0  0.29955619684E+02  0.60090020766E+01 -0.48881403731E+02  0.57644167539E+02  0.10566000000E+00 0.  1.
         23    2    1    0    0    0  0.25095117017E+02 -0.10555757094E+02 -0.20279104337E+02  0.91052526182E+02  0.84487463836E+02 0.  0.
         13    1    3    3    0    0 -0.48605026669E+01 -0.16564759170E+02  0.28602299393E+02  0.33408358642E+02  0.10566000000E+00 0. -1.
         22    1    1    0    0    0 -0.25095117017E+02  0.10555757094E+02  0.20279104337E+02  0.33947473818E+02  0.00000000000E+00 0.  1.
</event>
<event>
 5    1  0.1764311E-003  0.9118800E+02  0.7818608E-02  0.1130116E+00
         25   -1    0    0    0    0  0.00000000000E+00  0.00000000000E+00  0.99999998245E-14  0.12500000000E+03  0.12500000000E+03 0.  0.
        -13    1    3    3    0    0  0.20625874054E+02  0.22050867194E+02 -0.15528605962E+02  0.33953147007E+02  0.10566000000E+00 0.  1.
         23    2    1    0    0    0  0.38234574162E+02  0.68239877315E+01  0.23650790191E+02  0.79526828277E+02  0.65243444646E+02 0.  0.
         13    1    3    3    0    0  0.17608700108E+02 -0.15226879463E+02  0.39179396152E+02  0.45573681271E+02  0.10566000000E+00 0. -1.
         22    1    1    0    0    0 -0.38234574162E+02 -0.68239877315E+01 -0.23650790191E+02  0.45473171723E+02  0.00000000000E+00 0. -1.
</event>
<event>
 5    1  0.1764311E-003  0.9118800E+02  0.7818608E-02  0.1130116E+00
         25   -1    0    0    0    0  0.00000000000E+00  0.00000000000E+00  0.99999998245E-14  0.12500000000E+03  0.12500000000E+03 0.  0.
        -13    1    3    3    0    0  0.38455444392E+02 -0.28310098838E+02  0.33498556609E+02  0.58330501100E+02  0.10566000000E+00 0.  1.
         23    2    1    0    0    0  0.11006054359E+02 -0.21515374272E+01  0.25584998204E+02  0.97065174442E+02  0.92958558565E+02 0.  0.
         13    1    3    3    0    0 -0.27449390033E+02  0.26158561411E+02 -0.79135584051E+01  0.38734673342E+02  0.10566000000E+00 0. -1.
         22    1    1    0    0    0 -0.11006054359E+02  0.21515374272E+01 -0.25584998204E+02  0.27934825558E+02  0.00000000000E+00 0.  1.
</event>
<event>
 5    1  0.1764311E-003  0.9118800E+02  0.7818608E-02  0.1130116E+00
         25   -1    0    0    0    0  0.00000000000E+00  0.00000000000E+00  0.99999998245E-14  0.12500000000E+03  0.12500000000E+03 0.  0.
        -13    1    3    3    0    0 -0.52648045471E+02 -0.63490748202E+01  0.22179539150E+02  0.57481045257E+02  0.10566000000E+00 0.  1.
         23    2    1    0    0    0 -0.23643495887E+02 -0.60777787780E+01  0.28812783522E+02  0.87235853155E+02  0.78638179587E+02 0.  0.
         13    1    3    3    0    0  0.29004549583E+02  0.27129604218E+00  0.66332443724E+01  0.29754807897E+02  0.10566000000E+00 0. -1.
         22    1    1    0    0    0  0.23643495887E+02  0.60777787780E+01 -0.28812783522E+02  0.37764146845E+02  0.00000000000E+00 0.  1.
</event>
<event>
 5    1  0.1764311E-003  0.9118800E+02  0.7818608E-02  0.1130116E+00
         25   -1    0    0    0    0  0.00000000000E+00  0.00000000000E+00  0.99999998245E-14  0.12500000000E+03  0.12500000000E+03 0.  0.
        -13    1    3    3    0    0 -0.18149650239E+02 -0.36983367803E+02  0.17552514080E+02  0.44780366372E+02  0.10566000000E+00 0.  1.
         23    2    1    0    0    0 -0.21469115912E+02  0.12972211902E+02 -0.45479670534E+01  0.99507153474E+02  0.96186217144E+02 0.  0.
         13    1    3    3    0    0 -0.33194656738E+01  0.49955579706E+02 -0.22100481133E+02  0.54726787102E+02  0.10566000000E+00 0. -1.
         22    1    1    0    0    0  0.21469115912E+02 -0.12972211902E+02  0.45479670534E+01  0.25492846526E+02  0.00000000000E+00 0. -1.
</event>
<event>
 5    1  0.1764311E-003  0.9118800E+02  0.7818608E-02  0.1130116E+00
         25   -1    0    0    0    0  0.00000000000E+00  0.00000000000E+00  0.99999998245E-14  0.12500000000E+03  0.12500000000E+03 0.  0.
        -13    1    3    3    0    0 -0.14514769725E+02 -0.25470807626E+02 -0.40559883926E+02  0.50045538556E+02  0.10566000000E+00 0. -1.
         23    2    1    0    0    0 -0.29209651393E+02 -0.30060555884E+01 -0.40559343843E+01  0.95357282371E+02  0.90632889134E+02 0.  0.
         13    1    3    3    0    0 -0.14694881668E+02  0.22464752038E+02  0.36503949542E+02  0.45311743815E+02  0.10566000000E+00 0.  1.
         22    1    1    0    0    0  0.29209651393E+02  0.30060555884E+01  0.40559343843E+01  0.29642717629E+02  0.00000000000E+00 0.  1.
</event>
<event>
 5    1  0.1764311E-003  0.9118800E+02  0.7818608E-02  0.1130116E+00
         25   -1    0    0    0    0  0.00000000000E+00  0.00000000000E+00  0.99999998245E-14  0.12500000000E+03  0.12500000000E+03 0.  0.
        -13    1    3    3    0    0 -0.16852997750E+02  0.46883438438E+01  0.56471890330E+02  0.59119283340E+02  0.10566000000E+00 0. -1.
         23    2    1    0    0    0 -0.17873776367E+02 -0.77762700098E+01  0.23000642368E+02  0.94850840704E+02  0.89931697282E+02 0.  0.
         13    1    3    3    0    0 -0.10207786173E+01 -0.12464613854E+02 -0.33471247962E+02  0.35731557364E+02  0.10566000000E+00 0.  1.
         22    1    1    0    0    0  0.17873776367E+02  0.77762700098E+01 -0.23000642368E+02  0.30149159296E+02  0.00000000000E+00 0. -1.
</event>
<event>
 5    1  0.1764311E-003  0.9118800E+02  0.7818608E-02  0.1130116E+00
         25   -1    0    0    0    0  0.00000000000E+00  0.00000000000E+00  0.99999998245E-14  0.12500000000E+03  0.12500000000E+03 0.  0.
        -13    1    3    3    0    0  0.27827275441E+02 -0.15697420384E+02  0.13677501676E+02  0.34754157755E+02  0.10566000000E+00 0.  1.
         23    2    1    0    0    0 -0.62392091090E+01 -0.24668012547E+01 -0.31460591021E+02  0.92831978207E+02  0.87080391316E+02 0.  0.
         13    1    3    3    0    0 -0.34066484550E+02  0.13230619129E+02 -0.45138092696E+02  0.58077820451E+02  0.10566000000E+00 0. -1.
         22    1    1    0    0    0  0.62392091090E+01  0.24668012547E+01  0.31460591021E+02  0.32168021793E+02  0.00000000000E+00 0. -1.
</event>
<event>
 5    1  0.1764311E-003  0.9118800E+02  0.7818608E-02  0.1130116E+00
         25   -1    0    0    0    0  0.00000000000E+00  0.00000000000E+00  0.99999998245E-14  0.12500000000E+03  0.12500000000E+03 0.  0.
        -13    1    3    3    0    0 -0.20836016675E+02 -0.27208340255E+02 -0.19889819121E+02  0.39623849371E+02  0.10566000000E+00 0.  1.
         23    2    1    0    0    0  0.18176111712E+02  0.15022601191E+02 -0.14381398319E+02  0.97379822572E+02  0.93380702734E+02 0.  0.
         13    1    3    3    0    0  0.39012128387E+02  0.42230941446E+02  0.55084208014E+01  0.57755973201E+02  0.10566000000E+00 0. -1.
         22    1    1    0    0    0 -0.18176111712E+02 -0.15022601191E+02  0.14381398319E+02  0.27620177428E+02  0.00000000000E+00 0. -1.
</event>
<event>
 5    1  0.1764311E-003  0.9118800E+02  0.7818608E-02  0.1130116E+00
         25   -1    0    0    0    0  0.00000000000E+00  0.00000000000E+00  0.99999998245E-14  0.12500000000E+03  0.12500000000E+03 0.  0.
        -13    1    3    3    0    0  0.21828960497E+02  0.19613132885E+02  0.13827955650E+02  0.32440746283E+02  0.10566000000E+00 0. -1.
         23    2    1    0    0    0  0.85268415098E+01 -0.42013982688E+01 -0.35196089826E+02  0.88542853752E+02  0.80688992049E+02 0.  0.
         13    1    3    3    0    0 -0.13302118987E+02 -0.23814531153E+02 -0.49024045475E+02  0.56102107469E+02  0.10566000000E+00 0.  1.
         22    1    1    0    0    0 -0.85268415098E+01  0.42013982688E+01  0.35196089826E+02  0.36457146248E+02  0.00000000000E+00 0.  1.
</event>
<event>
 5    1  0.1764311E-003  0.9118800E+02  0.7818608E-02  0.1130116E+00
         25   -1    0    0    0    0  0.00000000000E+00  0.00000000000E+00  0.99999998245E-14  0.12500000000E+03  0.12500000000E+03 0.  0.
        -13    1    3    3    0    0  0.15713686987E+02 -0.35601729726E+02  0.51481875566E+01  0.39254529896E+02  0.10566000000E+00 0. -1.
         23    2    1    0    0    0 -0.16014564764E+02 -0.17342993718E+02 -0.27816880994E+02  0.88516790384E+02  0.80648605666E+02 0.  0.
         13    1    3    3    0    0 -0.31728251751E+02  0.18258736008E+02 -0.32965068551E+02  0.49262260488E+02  0.10566000000E+00 0.  1.
         22    1    1    0    0    0  0.16014564764E+02  0.17342993718E+02  0.27816880994E+02  0.36483209616E+02  0.00000000000E+00 0. -1.
</event>
<event>
 5    1  0.1764311E-003  0.9118800E+02  0.7818608E-02  0.1130116E+00
         25   -1    0    0    0    0  0.00000000000E+00  0.00000000000E+00  0.99999998245E-14  0.12500000000E+03  0.12500000000E+03 0.  0.
        -13    1    3    3    0    0 -0.21111563122E+02 -0.35722136579E+02  0.37653888949E+02  0.56032094877E+02  0.10566000000E+00 0.  1.
         23    2    1    0    0    0 -0.76948675086E+01 -0.64757132862E+00  0.29560476063E+02  0.94447551985E+02  0.89369390713E+02 0.  0.
         13    1    3    3    0    0  0.13416695614E+02  0.35074565251E+02 -0.80934128856E+01  0.38415457109E+02  0.10566000000E+00 0. -1.
         22    1    1    0    0    0  0.76948675086E+01  0.64757132862E+00 -0.29560476063E+02  0.30552448015E+02  0.00000000000E+00 0.  1.
</event>
<event>
 5    1  0.1764311E-003  0.9118800E+02  0.7818608E-02  0.1130116E+00
         25   -1    0    0    0    0  0.00000000000E+00  0.00000000000E+00  0.99999998245E-14  0.12500000000E+03  0.12500000000E+03 0.  0.
        -13    1    3    3    0    0 -0.16535133476E+02 -0.20668784407E+02 -0.43554217601E+02  0.50966560830E+02  0.10566000000E+00 0.  1.
         23    2    1    0    0    0 -0.20167069508E+02 -0.20915134149E+02  0.12502496345E+01  0.95918792096E+02  0.91404037241E+02 0.  0.
         13    1    3    3    0    0 -0.36319360313E+01 -0.24634974195E+00  0.44804467235E+02  0.44952231266E+02  0.10566000000E+00 0. -1.
         22    1    1    0    0    0  0.20167069508E+02  0.20915134149E+02 -0.12502496345E+01  0.29081207904E+02  0.00000000000E+00 0. -1.
</event>
<event>
 5    1  0.1764311E-003  0.9118800E+02  0.7818608E-02  0.1130116E+00
         25   -1    0    0    0    0  0.00000000000E+00  0.00000000000E+00  0.99999998245E-14  0.12500000000E+03  0.12500000000E+03 0.  0.
        -13    1    3    3    0    0 -0.28239924372E+02 -0.43965857503E+01 -0.24395155928E+02  0.37576030812E+02  0.10566000000E+00 0. -1.
         23    2    1    0    0    0 -0.18264682473E+01  0.18055124409E+02  0.22626472291E+02  0.95995159852E+02  0.91508414712E+02 0.  0.
         13    1    3    3    0    0  0.26413456124E+02  0.22451710159E+02  0.47021628219E+02  0.58419129041E+02  0.10566000000E+00 0.  1.
         22    1    1    0    0    0  0.18264682473E+01 -0.18055124409E+02 -0.22626472291E+02  0.29004840148E+02  0.00000000000E+00 0.  1.
</event>
<event>
 5    1  0.1764311E-003  0.9118800E+02  0.7818608E-02  0.1130116E+00
         25   -1    0    0    0    0  0.00000000000E+00  0.00000000000E+00  0.99999998245E-14  0.12500000000E+03  0.12500000000E+03 0.  0.
        -13    1    3    3    0    0 -0.62642632644E+01 -0.50423413786E+02 -0.26258525986E+02  0.57195130938E+02  0.10566000000E+00 0. -1.
         23    2    1    0    0    0 -0.27523495739E+01 -0.13535227321E+02 -0.27451555718E+02  0.94269466028E+02  0.89119955718E+02 0.  0.
         13    1    3    3    0    0  0.35119136905E+01  0.36888186464E+02 -0.11930297324E+01  0.37074335090E+02  0.10566000000E+00 0.  1.
         22    1    1    0    0    0  0.27523495739E+01  0.13535227321E+02  0.27451555718E+02  0.30730533972E+02  0.00000000000E+00 0. -1.
</event>
<event>
 5    1  0.1764311E-003  0.9118800E+02  0.7818608E-02  0.1130116E+00
         25   -1    0    0    0    0  0.00000000000E+00  0.00000000000E+00  0.99999998245E-14  0.12500000000E+03  0.12500000000E+03 0.  0.
        -13    1    3    3    0    0 -0.28041656959E+02 -0.25436450856E+02  0.13879058573E+02  0.40323528964E+02  0.10566000000E+00 0.  1.
         23    2    1    0    0    0 -0.18518754915E+01  0.23193314450E+02  0.17812763790E+02  0.95697204368E+02  0.91100499955E+02 0.  0.
         13    1    3    3    0    0  0.26189781468E+02  0.48629765306E+02  0.39337052168E+01  0.55373675404E+02  0.10566000000E+00 0. -1.
         22    1    1    0    0    0  0.18518754915E+01 -0.23193314450E+02 -0.17812763790E+02  0.29302795632E+02  0.00000000000E+00 0. -1.
</event>
<event>
 5    1  0.1764311E-003  0.9118800E+02  0.7818608E-02  0.1130116E+00
         25   -1    0    0    0    0  0.00000000000E+00  0.00000000000E+00  0.99999998245E-14  0.12500000000E+03  0.12500000000E+03 0.  0.
        -13    1    3    3    0    0  0.60330840142E+01  0.41543642477E+02  0.43197847791E+02  0.60235683368E+02  0.10566000000E+00 0.  1.
         23    2    1    0    0    0  0.13955201163E+02  0.21576562554E+02  0.16671056911E+02  0.94369625701E+02  0.89260329516E+02 0.  0.
         13    1    3    3    0    0  0.79221171489E+01 -0.19967079923E+02 -0.26526790880E+02  0.34133942333E+02  0.10566000000E+00 0. -1.
         22    1    1    0    0    0 -0.13955201163E+02 -0.21576562554E+02 -0.16671056911E+02  0.30630374299E+02  0.00000000000E+00 0.  1.
</event>
<event>
 5    1  0.1764311E-003  0.9118800E+02  0.7818608E-02  0.1130116E+00
         25   -1    0    0    0    0  0.00000000000E+00  0.00000000000E+00  0.99999998245E-14  0.12500000000E+03  0.12500000000E+03 0.  0.
        -13    1    3    3    0    0  0.24025324950E+02  0.37548159661E+02  0.32402356222E+02  0.55109022725E+02  0.10566000000E+00 0.  1.
         23    2    1    0    0    0  0.11157677423E+02  0.27857737496E+02 -0.38170287421E+01  0.94749098984E+02  0.89790170653E+02 0.  0.
         13    1    3    3    0    0 -0.12867647527E+02 -0.96904221653E+01 -0.36219384964E+02  0.39640076259E+02  0.10566000000E+00 0. -1.
         22    1    1    0    0    0 -0.11157677423E+02 -0.27857737496E+02  0.38170287421E+01  0.30250901016E+02  0.00000000000E+00 0.  1.
</event>
<event>
 5    1  0.1764311E-003  0.9118800E+02  0.7818608E-02  0.1130116E+00
         25   -1    0    0    0    0  0.00000000000E+00  0.00000000000E+00  0.99999998245E-14  0.12500000000E+03  0.12500000000E+03 0.  0.
        -13    1    3    3    0    0  0.75480152298E+01  0.22125589874E+02 -0.47816420202E+02  0.53225327300E+02  0.10566000000E+00 0. -1.
         23    2    1    0    0    0  0.12246424105E+02 -0.11990612176E+02 -0.25546143633E+02  0.94237114273E+02  0.89074567461E+02 0.  0.
         13    1    3    3    0    0  0.46984088752E+01 -0.34116202050E+02  0.22270276569E+02  0.41011786973E+02  0.10566000000E+00 0.  1.
         22    1    1    0    0    0 -0.12246424105E+02  0.11990612176E+02  0.25546143633E+02  0.30762885727E+02  0.00000000000E+00 0. -1.
</event>
<event>
 5    1  0.1764311E-003  0.9118800E+02  0.7818608E-02  0.1130116E+00
         25   -1    0    0    0    0  0.00000000000E+00  0.00000000000E+00  0.99999998245E-14  0.12500000000E+03  0.12500000000E+03 0.  0.
        -13    1    3    3    0    0  0.21665103112E+02 -0.88530615801E+01 -0.28852581165E+02  0.37151527507E+02  0.10566000000E+00 0.  1.
         23    2    1    0    0    0 -0.25962609448E+02  0.12977190553E+01  0.75267336092E+01  0.97937241772E+02  0.94123910049E+02 0.  0.
         13    1    3    3    0    0 -0.47627712560E+02  0.10150780635E+02  0.36379314774E+02  0.60785714265E+02  0.10566000000E+00 0. -1.
         22    1    1    0    0    0  0.25962609448E+02 -0.12977190553E+01 -0.75267336092E+01  0.27062758228E+02  0.00000000000E+00 0. -1.
</event>
<event>
 5    1  0.1764311E-003  0.9118800E+02  0.7818608E-02  0.1130116E+00
         25   -1    0    0    0    0  0.00000000000E+00  0.00000000000E+00  0.99999998245E-14  0.12500000000E+03  0.12500000000E+03 0.  0.
        -13    1    3    3    0    0 -0.21560486286E+01 -0.44242210010E+02 -0.10140435784E+02  0.45440744868E+02  0.10566000000E+00 0. -1.
         23    2    1    0    0    0  0.60633451293E+01 -0.29584484678E+01 -0.31598930317E+02  0.92688872371E+02  0.86874726432E+02 0.  0.
         13    1    3    3    0    0  0.82193937578E+01  0.41283761542E+02 -0.21458494533E+02  0.47248127503E+02  0.10566000000E+00 0.  1.
         22    1    1    0    0    0 -0.60633451293E+01  0.29584484678E+01  0.31598930317E+02  0.32311127629E+02  0.00000000000E+00 0.  1.
</event>
<event>
 5    1  0.1764311E-003  0.9118800E+02  0.7818608E-02  0.1130116E+00
         25   -1    0    0    0    0  0.00000000000E+00  0.00000000000E+00  0.99999998245E-14  0.12500000000E+03  0.12500000000E+03 0.  0.
        -13    1    3    3    0    0  0.40398571050E+01  0.23640269506E+01 -0.54646669565E+02  0.54846866158E+02  0.10566000000E+00 0. -1.
         23    2    1    0    0    0 -0.41786228280E+01 -0.19680080633E+02 -0.20848293655E+02  0.96027291967E+02  0.91552296485E+02 0.  0.
         13    1    3    3    0    0 -0.82184799330E+01 -0.22044107584E+02  0.33798375910E+02  0.41180425808E+02  0.10566000000E+00 0.  1.
         22    1    1    0    0    0  0.41786228280E+01  0.19680080633E+02  0.20848293655E+02  0.28972708033E+02  0.00000000000E+00 0. -1.
</event>
<event>
 5    1  0.1764311E-003  0.9118800E+02  0.7818608E-02  0.1130116E+00
         25   -1    0    0    0    0  0.00000000000E+00  0.00000000000E+00  0.99999998245E-14  0.12500000000E+03  0.12500000000E+03 0.  0.
        -13    1    3    3    0    0 -0.27796931639E+02 -0.17039347657E+02 -0.18721728787E+02  0.37596849202E+02  0.10566000000E+00 0.  1.
         23    2    1    0    0    0 -0.14137649925E+01  0.30540226462E+02 -0.27195819506E+01  0.94306347728E+02  0.89171671129E+02 0.  0.
         13    1    3    3    0    0  0.26383166647E+02  0.47579574119E+02  0.16002146836E+02  0.56709498526E+02  0.10566000000E+00 0. -1.
         22    1    1    0    0    0  0.14137649925E+01 -0.30540226462E+02  0.27195819506E+01  0.30693652272E+02  0.00000000000E+00 0. -1.
</event>
<event>
 5    1  0.1764311E-003  0.9118800E+02  0.7818608E-02  0.1130116E+00
         25   -1    0    0    0    0  0.00000000000E+00  0.00000000000E+00  0.99999998245E-14  0.12500000000E+03  0.12500000000E+03 0.  0.
        -13    1    3    3    0    0  0.43081197200E+02  0.11124946295E+02  0.20417189944E+02  0.48955355084E+02  0.10566000000E+00 0. -1.
         23    2    1    0    0    0 -0.31412933034E+01  0.11466729119E+02  0.26860227612E+02  0.95626109763E+02  0.91002897979E+02 0.  0.
         13    1    3    3    0    0 -0.46222490503E+02  0.34178282456E+00  0.64430376683E+01  0.46670754678E+02  0.10566000000E+00 0.  1.
         22    1    1    0    0    0  0.31412933034E+01 -0.11466729119E+02 -0.26860227612E+02  0.29373890237E+02  0.00000000000E+00 0. -1.
</event>
<event>
 5    1  0.1764311E-003  0.9118800E+02  0.7818608E-02  0.1130116E+00
         25   -1    0    0    0    0  0.00000000000E+00  0.00000000000E+00  0.99999998245E-14  0.12500000000E+03  0.12500000000E+03 0.  0.
        -13    1    3    3    0    0  0.12149054939E+02 -0.23206883221E+02  0.23387472026E+02  0.35116149797E+02  0.10566000000E+00 0.  1.
         23    2    1    0    0    0 -0.24566261416E+02  0.50013877770E+01 -0.15452431814E+02  0.95550165898E+02  0.90898522950E+02 0.  0.
         13    1    3    3    0    0 -0.36715316356E+02  0.28208270998E+02 -0.38839903840E+02  0.60434016101E+02  0.10566000000E+00 0. -1.
         22    1    1    0    0    0  0.24566261416E+02 -0.50013877770E+01  0.15452431814E+02  0.29449834102E+02  0.00000000000E+00 0. -1.
</event>
<event>
 5    1  0.1764311E-003  0.9118800E+02  0.7818608E-02  0.1130116E+00
         25   -1    0    0    0    0  0.00000000000E+00  0.00000000000E+00  0.99999998245E-14  0.12500000000E+03  0.12500000000E+03 0.  0.
        -13    1    3    3    0    0 -0.19941972081E+02  0.46159107865E+02  0.18466171796E+02  0.53566371486E+02  0.10566000000E+00 0.  1.
         23    2    1    0    0    0  0.12438035824E+02  0.18695406975E+02  0.18311586536E+02  0.96025232035E+02  0.91549483935E+02 0.  0.
         13    1    3    3    0    0  0.32380007905E+02 -0.27463700889E+02 -0.15458525935E+00  0.42458860549E+02  0.10566000000E+00 0. -1.
         22    1    1    0    0    0 -0.12438035824E+02 -0.18695406975E+02 -0.18311586536E+02  0.28974767965E+02  0.00000000000E+00 0.  1.
</event>
<event>
 5    1  0.1764311E-003  0.9118800E+02  0.7818608E-02  0.1130116E+00
         25   -1    0    0    0    0  0.00000000000E+00  0.00000000000E+00  0.99999998245E-14  0.12500000000E+03  0.12500000000E+03 0.  0.
        -13    1    3    3    0    0  0.29632373488E+02  0.39865740171E+02 -0.29811801876E+02  0.57931938454E+02  0.10566000000E+00 0.  1.
         23    2    1    0    0    0  0.91600617554E+01  0.27509088078E+02 -0.18462227252E+00  0.96005332497E+02  0.91522309434E+02 0.  0.
         13    1    3    3    0    0 -0.20472311732E+02 -0.12356652093E+02  0.29627179604E+02  0.38073394043E+02  0.10566000000E+00 0. -1.
         22    1    1    0    0    0 -0.91600617554E+01 -0.27509088078E+02  0.18462227252E+00  0.28994667503E+02  0.00000000000E+00 0.  1.
</event>
<event>
 5    1  0.1764311E-003  0.9118800E+02  0.7818608E-02  0.1130116E+00
         25   -1    0    0    0    0  0.00000000000E+00  0.00000000000E+00  0.99999998245E-14  0.12500000000E+03  0.12500000000E+03 0.  0.
        -13    1    3    3    0    0 -0.47253320540E+02 -0.84274848717E+01  0.33456805593E+01  0.48115522918E+02  0.10566000000E+00 0. -1.
         23    2    1    0    0    0 -0.73228588810E+01 -0.30349015820E+02  0.25708484560E+01  0.93674351001E+02  0.88281298983E+02 0.  0.
         13    1    3    3    0    0  0.39930461658E+02 -0.21921530949E+02 -0.77483210326E+00  0.45558828082E+02  0.10566000000E+00 0.  1.
         22    1    1    0    0    0  0.73228588810E+01  0.30349015820E+02 -0.25708484560E+01  0.31325648999E+02  0.00000000000E+00 0. -1.
</event>
<event>
 5    1  0.1764311E-003  0.9118800E+02  0.7818608E-02  0.1130116E+00
         25   -1    0    0    0    0  0.00000000000E+00  0.00000000000E+00  0.99999998245E-14  0.12500000000E+03  0.12500000000E+03 0.  0.
        -13    1    3    3    0    0 -0.31964473607E+02 -0.45526130286E+02 -0.11318387776E+02  0.56766831668E+02  0.10566000000E+00 0.  1.
         23    2    1    0    0    0 -0.21959589543E+02 -0.16614054507E+02  0.11727877070E+02  0.95070190768E+02  0.90236066471E+02 0.  0.
         13    1    3    3    0    0  0.10004884063E+02  0.28912075779E+02  0.23046264846E+02  0.38303359100E+02  0.10566000000E+00 0. -1.
         22    1    1    0    0    0  0.21959589543E+02  0.16614054507E+02 -0.11727877070E+02  0.29929809232E+02  0.00000000000E+00 0. -1.
</event>
<event>
 5    1  0.1764311E-003  0.9118800E+02  0.7818608E-02  0.1130116E+00
         25   -1    0    0    0    0  0.00000000000E+00  0.00000000000E+00  0.99999998245E-14  0.12500000000E+03  0.12500000000E+03 0.  0.
        -13    1    3    3    0    0  0.17985417204E+02  0.61695763399E+01 -0.26537364693E+02  0.32646313622E+02  0.10566000000E+00 0.  1.
         23    2    1    0    0    0 -0.18998779818E+02 -0.15680642693E-01  0.23249751960E+02  0.94974929698E+02  0.90104008925E+02 0.  0.
         13    1    3    3    0    0 -0.36984197023E+02 -0.61852569826E+01  0.49787116652E+02  0.62328616076E+02  0.10566000000E+00 0. -1.
         22    1    1    0    0    0  0.18998779818E+02  0.15680642693E-01 -0.23249751960E+02  0.30025070302E+02  0.00000000000E+00 0. -1.
</event>
<event>
 5    1  0.1764311E-003  0.9118800E+02  0.7818608E-02  0.1130116E+00
         25   -1    0    0    0    0  0.00000000000E+00  0.00000000000E+00  0.99999998245E-14  0.12500000000E+03  0.12500000000E+03 0.  0.
        -13    1    3    3    0    0 -0.12716953645E+02 -0.54586965806E+02  0.39724924194E+01  0.56189408308E+02  0.10566000000E+00 0.  1.
         23    2    1    0    0    0 -0.22514818427E+02 -0.14640842312E+02  0.64006019327E+01  0.97391323510E+02  0.93396096693E+02 0.  0.
         13    1    3    3    0    0 -0.97978647814E+01  0.39946123494E+02  0.24281095133E+01  0.41201915202E+02  0.10566000000E+00 0. -1.
         22    1    1    0    0    0  0.22514818427E+02  0.14640842312E+02 -0.64006019327E+01  0.27608676490E+02  0.00000000000E+00 0.  1.
</event>
<event>
 5    1  0.1764311E-003  0.9118800E+02  0.7818608E-02  0.1130116E+00
         25   -1    0    0    0    0  0.00000000000E+00  0.00000000000E+00  0.99999998245E-14  0.12500000000E+03  0.12500000000E+03 0.  0.
        -13    1    3    3    0    0  0.19339557451E+00  0.26506484195E+02  0.54035959327E+02  0.60187433661E+02  0.10566000000E+00 0. -1.
         23    2    1    0    0    0 -0.75532423019E+01  0.24951300544E+02  0.31254849614E+02  0.84300067660E+02  0.73824229864E+02 0.  0.
         13    1    3    3    0    0 -0.77466378764E+01 -0.15551836510E+01 -0.22781109713E+02  0.24112633999E+02  0.10566000000E+00 0.  1.
         22    1    1    0    0    0  0.75532423019E+01 -0.24951300544E+02 -0.31254849614E+02  0.40699932340E+02  0.00000000000E+00 0. -1.
</event>
<event>
 5    1  0.1764311E-003  0.9118800E+02  0.7818608E-02  0.1130116E+00
         25   -1    0    0    0    0  0.00000000000E+00  0.00000000000E+00  0.99999998245E-14  0.12500000000E+03  0.12500000000E+03 0.  0.
        -13    1    3    3    0    0 -0.21003655896E+02  0.24570102339E+02 -0.30567071343E+02  0.44488206353E+02  0.10566000000E+00 0.  1.
         23    2    1    0    0    0 -0.50755831007E+01  0.30906890577E+02  0.12833647478E+02  0.91151810440E+02  0.84634228359E+02 0.  0.
         13    1    3    3    0    0  0.15928072796E+02  0.63367882376E+01  0.43400718821E+02  0.46663604087E+02  0.10566000000E+00 0. -1.
         22    1    1    0    0    0  0.50755831007E+01 -0.30906890577E+02 -0.12833647478E+02  0.33848189560E+02  0.00000000000E+00 0.  1.
</event>
<event>
 5    1  0.1764311E-003  0.9118800E+02  0.7818608E-02  0.1130116E+00
         25   -1    0    0    0    0  0.00000000000E+00  0.00000000000E+00  0.99999998245E-14  0.12500000000E+03  0.12500000000E+03 0.  0.
        -13    1    3    3    0    0  0.29225454575E+02 -0.16932629631E+02  0.19381839086E+02  0.38942367567E+02  0.10566000000E+00 0.  1.
         23    2    1    0    0    0 -0.20489103679E+02 -0.17155133188E+02 -0.97383279705E+01  0.96558182268E+02  0.92274295266E+02 0.  0.
         13    1    3    3    0    0 -0.49714558254E+02 -0.22250355670E+00 -0.29120167057E+02  0.57615814701E+02  0.10566000000E+00 0. -1.
         22    1    1    0    0    0  0.20489103679E+02  0.17155133188E+02  0.97383279705E+01  0.28441817732E+02  0.00000000000E+00 0. -1.
</event>
<event>
 5    1  0.1764311E-003  0.9118800E+02  0.7818608E-02  0.1130116E+00
         25   -1    0    0    0    0  0.00000000000E+00  0.00000000000E+00  0.99999998245E-14  0.12500000000E+03  0.12500000000E+03 0.  0.
        -13    1    3    3    0    0  0.34923869135E+02  0.29019625847E+02 -0.32018081414E+02  0.55560633735E+02  0.10566000000E+00 0.  1.
         23    2    1    0    0    0  0.17390196023E+00  0.25306421823E+02 -0.20730147699E+02  0.92286329295E+02  0.86293582170E+02 0.  0.
         13    1    3    3    0    0 -0.34749967174E+02 -0.37132040241E+01  0.11287933715E+02  0.36725695559E+02  0.10566000000E+00 0. -1.
         22    1    1    0    0    0 -0.17390196023E+00 -0.25306421823E+02  0.20730147699E+02  0.32713670705E+02  0.00000000000E+00 0.  1.
</event>
<event>
 5    1  0.1764311E-003  0.9118800E+02  0.7818608E-02  0.1130116E+00
         25   -1    0    0    0    0  0.00000000000E+00  0.00000000000E+00  0.99999998245E-14  0.12500000000E+03  0.12500000000E+03 0.  0.
        -13    1    3    3    0    0 -0.17004299274E+02 -0.28160756048E+02  0.29835774676E+02  0.44411248457E+02  0.10566000000E+00 0.  1.
         23    2    1    0    0    0 -0.76041461151E+01  0.19828391276E+02  0.22843780172E+02  0.93809834382E+02  0.88472925777E+02 0.  0.
         13    1    3    3    0    0  0.94001531590E+01  0.47989147323E+02 -0.69919945037E+01  0.49398585925E+02  0.10566000000E+00 0. -1.
         22    1    1    0    0    0  0.76041461151E+01 -0.19828391276E+02 -0.22843780172E+02  0.31190165618E+02  0.00000000000E+00 0. -1.
</event>
<event>
 5    1  0.1764311E-003  0.9118800E+02  0.7818608E-02  0.1130116E+00
         25   -1    0    0    0    0  0.00000000000E+00  0.00000000000E+00  0.99999998245E-14  0.12500000000E+03  0.12500000000E+03 0.  0.
        -13    1    3    3    0    0 -0.20621031158E+02 -0.14295857582E+02 -0.39274805200E+02  0.46606007741E+02  0.10566000000E+00 0.  1.
         23    2    1    0    0    0  0.10145469203E+02 -0.28011875922E+02 -0.47688356859E+01  0.94828199725E+02  0.89900222087E+02 0.  0.
         13    1    3    3    0    0  0.30766500361E+02 -0.13716018340E+02  0.34505969514E+02  0.48222191984E+02  0.10566000000E+00 0. -1.
         22    1    1    0    0    0 -0.10145469203E+02  0.28011875922E+02  0.47688356859E+01  0.30171800275E+02  0.00000000000E+00 0. -1.
</event>
<event>
 5    1  0.1764311E-003  0.9118800E+02  0.7818608E-02  0.1130116E+00
         25   -1    0    0    0    0  0.00000000000E+00  0.00000000000E+00  0.99999998245E-14  0.12500000000E+03  0.12500000000E+03 0.  0.
        -13    1    3    3    0    0  0.19623568009E+02  0.21479566837E+01  0.85204066184E+01  0.21501316990E+02  0.10566000000E+00 0.  1.
         23    2    1    0    0    0 -0.33518455641E+02 -0.14671811484E+01 -0.23854628104E+02  0.83833475115E+02  0.73029917012E+02 0.  0.
         13    1    3    3    0    0 -0.53142023650E+02 -0.36151378321E+01 -0.32375034723E+02  0.62332158125E+02  0.10566000000E+00 0. -1.
         22    1    1    0    0    0  0.33518455641E+02  0.14671811484E+01  0.23854628104E+02  0.41166524885E+02  0.00000000000E+00 0. -1.
</event>
<event>
 5    1  0.1764311E-003  0.9118800E+02  0.7818608E-02  0.1130116E+00
         25   -1    0    0    0    0  0.00000000000E+00  0.00000000000E+00  0.99999998245E-14  0.12500000000E+03  0.12500000000E+03 0.  0.
        -13    1    3    3    0    0 -0.29354211342E+02  0.88663106335E+01 -0.12703408582E+02  0.33191398606E+02  0.10566000000E+00 0.  1.
         23    2    1    0    0    0  0.23112798980E+02 -0.11319826057E+02  0.14301164674E+02  0.95557458505E+02  0.90908550897E+02 0.  0.
         13    1    3    3    0    0  0.52467010322E+02 -0.20186136690E+02  0.27004573255E+02  0.62366059899E+02  0.10566000000E+00 0. -1.
         22    1    1    0    0    0 -0.23112798980E+02  0.11319826057E+02 -0.14301164674E+02  0.29442541495E+02  0.00000000000E+00 0. -1.
</event>
<event>
 5    1  0.1764311E-003  0.9118800E+02  0.7818608E-02  0.1130116E+00
         25   -1    0    0    0    0  0.00000000000E+00  0.00000000000E+00  0.99999998245E-14  0.12500000000E+03  0.12500000000E+03 0.  0.
        -13    1    3    3    0    0 -0.33505360342E+02 -0.23841407872E+02  0.12382687049E+02  0.42946059232E+02  0.10566000000E+00 0.  1.
         23    2    1    0    0    0 -0.50502287574E+01  0.18964783658E+02  0.22298557476E+02  0.95294891092E+02  0.90546798801E+02 0.  0.
         13    1    3    3    0    0  0.28455131585E+02  0.42806191530E+02  0.99158704273E+01  0.52348831861E+02  0.10566000000E+00 0. -1.
         22    1    1    0    0    0  0.50502287574E+01 -0.18964783658E+02 -0.22298557476E+02  0.29705108908E+02  0.00000000000E+00 0. -1.
</event>
<event>
 5    1  0.1764311E-003  0.9118800E+02  0.7818608E-02  0.1130116E+00
         25   -1    0    0    0    0  0.00000000000E+00  0.00000000000E+00  0.99999998245E-14  0.12500000000E+03  0.12500000000E+03 0.  0.
        -13    1    3    3    0    0 -0.28156608339E+02 -0.46268949409E+02  0.27191325905E+02  0.60605194835E+02  0.10566000000E+00 0. -1.
         23    2    1    0    0    0 -0.35180272862E+01 -0.22715158973E+02  0.17702817313E+02  0.95987163118E+02  0.91497490563E+02 0.  0.
         13    1    3    3    0    0  0.24638581052E+02  0.23553790436E+02 -0.94885085913E+01  0.35381968282E+02  0.10566000000E+00 0.  1.
         22    1    1    0    0    0  0.35180272862E+01  0.22715158973E+02 -0.17702817313E+02  0.29012836882E+02  0.00000000000E+00 0. -1.
</event>
<event>
 5    1  0.1764311E-003  0.9118800E+02  0.7818608E-02  0.1130116E+00
         25   -1    0    0    0    0  0.00000000000E+00  0.00000000000E+00  0.99999998245E-14  0.12500000000E+03  0.12500000000E+03 0.  0.
        -13    1    3    3    0    0  0.40683158951E+02 -0.96286781487E+01  0.32308480331E+02  0.52836350465E+02  0.10566000000E+00 0.  1.
         23    2    1    0    0    0  0.23203270039E+01  0.71587562326E+01  0.29221303355E+02  0.94825237731E+02  0.89896103546E+02 0.  0.
         13    1    3    3    0    0 -0.38362831947E+02  0.16787434381E+02 -0.30871769759E+01  0.41988887266E+02  0.10566000000E+00 0. -1.
         22    1    1    0    0    0 -0.23203270039E+01 -0.71587562326E+01 -0.29221303355E+02  0.30174762269E+02  0.00000000000E+00 0.  1.
</event>
<event>
 5    1  0.1764311E-003  0.9118800E+02  0.7818608E-02  0.1130116E+00
         25   -1    0    0    0    0  0.00000000000E+00  0.00000000000E+00  0.99999998245E-14  0.12500000000E+03  0.12500000000E+03 0.  0.
        -13    1    3    3    0    0  0.31080300980E+02  0.16428558504E+02  0.23846563960E+01  0.35236066660E+02  0.10566000000E+00 0.  1.
         23    2    1    0    0    0 -0.20357474417E+02 -0.67659412267E+01 -0.19743136444E+02  0.95845306348E+02  0.91303486171E+02 0.  0.
         13    1    3    3    0    0 -0.51437775397E+02 -0.23194499731E+02 -0.22127792840E+02  0.60609239688E+02  0.10566000000E+00 0. -1.
         22    1    1    0    0    0  0.20357474417E+02  0.67659412267E+01  0.19743136444E+02  0.29154693652E+02  0.00000000000E+00 0. -1.
</event>
<event>
 5    1  0.1764311E-003  0.9118800E+02  0.7818608E-02  0.1130116E+00
         25   -1    0    0    0    0  0.00000000000E+00  0.00000000000E+00  0.99999998245E-14  0.12500000000E+03  0.12500000000E+03 0.  0.
        -13    1    3    3    0    0  0.27935159387E+02  0.23468780169E+02 -0.64979089119E+01  0.37059287052E+02  0.10566000000E+00 0. -1.
         23    2    1    0    0    0 -0.76005799698E+01 -0.74496869076E+01  0.27738043493E+02  0.95290309532E+02  0.90540473729E+02 0.  0.
         13    1    3    3    0    0 -0.35535739356E+02 -0.30918467076E+02  0.34235952405E+02  0.58231022480E+02  0.10566000000E+00 0.  1.
         22    1    1    0    0    0  0.76005799698E+01  0.74496869076E+01 -0.27738043493E+02  0.29709690468E+02  0.00000000000E+00 0.  1.
</event>
<event>
 5    1  0.1764311E-003  0.9118800E+02  0.7818608E-02  0.1130116E+00
         25   -1    0    0    0    0  0.00000000000E+00  0.00000000000E+00  0.99999998245E-14  0.12500000000E+03  0.12500000000E+03 0.  0.
        -13    1    3    3    0    0 -0.78408385008E+01  0.12616612978E+01  0.56308168581E+02  0.56865556804E+02  0.10566000000E+00 0.  1.
         23    2    1    0    0    0  0.57624782302E+01 -0.15635352929E+02  0.25088496500E+02  0.94881848111E+02  0.89974785511E+02 0.  0.
         13    1    3    3    0    0  0.13603316731E+02 -0.16897014227E+02 -0.31219672081E+02  0.38016291307E+02  0.10566000000E+00 0. -1.
         22    1    1    0    0    0 -0.57624782302E+01  0.15635352929E+02 -0.25088496500E+02  0.30118151889E+02  0.00000000000E+00 0.  1.
</event>
<event>
 5    1  0.1764311E-003  0.9118800E+02  0.7818608E-02  0.1130116E+00
         25   -1    0    0    0    0  0.00000000000E+00  0.00000000000E+00  0.99999998245E-14  0.12500000000E+03  0.12500000000E+03 0.  0.
        -13    1    3    3    0    0  0.14343855384E+02  0.12436898642E+02  0.29033839518E+02  0.34690022144E+02  0.10566000000E+00 0.  1.
         23    2    1    0    0    0 -0.18802060649E+02 -0.17299202430E+02 -0.13356027817E+02  0.96170095935E+02  0.91747065259E+02 0.  0.
         13    1    3    3    0    0 -0.33145916034E+02 -0.29736101072E+02 -0.42389867335E+02  0.61480073791E+02  0.10566000000E+00 0. -1.
         22    1    1    0    0    0  0.18802060649E+02  0.17299202430E+02  0.13356027817E+02  0.28829904065E+02  0.00000000000E+00 0. -1.
</event>
<event>
 5    1  0.1764311E-003  0.9118800E+02  0.7818608E-02  0.1130116E+00
         25   -1    0    0    0    0  0.00000000000E+00  0.00000000000E+00  0.99999998245E-14  0.12500000000E+03  0.12500000000E+03 0.  0.
        -13    1    3    3    0    0  0.83940602106E+01  0.39782318540E+02 -0.31889713940E+02  0.51672605261E+02  0.10566000000E+00 0. -1.
         23    2    1    0    0    0  0.25852054270E+02  0.14787404624E+02 -0.81478991872E+00  0.95206377728E+02  0.90424523400E+02 0.  0.
         13    1    3    3    0    0  0.17457994059E+02 -0.24994913916E+02  0.31074924022E+02  0.43533772467E+02  0.10566000000E+00 0.  1.
         22    1    1    0    0    0 -0.25852054270E+02 -0.14787404624E+02  0.81478991872E+00  0.29793622272E+02  0.00000000000E+00 0. -1.
</event>
<event>
 5    1  0.1764311E-003  0.9118800E+02  0.7818608E-02  0.1130116E+00
         25   -1    0    0    0    0  0.00000000000E+00  0.00000000000E+00  0.99999998245E-14  0.12500000000E+03  0.12500000000E+03 0.  0.
        -13    1    3    3    0    0 -0.27212171174E+02 -0.31328129491E+02 -0.57115489909E+01  0.41887789549E+02  0.10566000000E+00 0.  1.
         23    2    1    0    0    0 -0.19484027743E+02  0.21697170720E+02 -0.45474119054E+01  0.95486045514E+02  0.90810304363E+02 0.  0.
         13    1    3    3    0    0  0.77281434305E+01  0.53025300211E+02  0.11641370855E+01  0.53598255965E+02  0.10566000000E+00 0. -1.
         22    1    1    0    0    0  0.19484027743E+02 -0.21697170720E+02  0.45474119054E+01  0.29513954486E+02  0.00000000000E+00 0. -1.
</event>
<event>
 5    1  0.1764311E-003  0.9118800E+02  0.7818608E-02  0.1130116E+00
         25   -1    0    0    0    0  0.00000000000E+00  0.00000000000E+00  0.99999998245E-14  0.12500000000E+03  0.12500000000E+03 0.  0.
        -13    1    3    3    0    0 -0.32275965397E+02  0.10375507470E+02 -0.21658759306E+02  0.40230611682E+02  0.10566000000E+00 0.  1.
         23    2    1    0    0    0  0.67429650579E+01  0.26310739675E+02  0.13083963406E+02  0.94851820976E+02  0.89933059795E+02 0.  0.
         13    1    3    3    0    0  0.39018930455E+02  0.15935232206E+02  0.34742722712E+02  0.54621209294E+02  0.10566000000E+00 0. -1.
         22    1    1    0    0    0 -0.67429650579E+01 -0.26310739675E+02 -0.13083963406E+02  0.30148179024E+02  0.00000000000E+00 0. -1.
</event>
<event>
 5    1  0.1764311E-003  0.9118800E+02  0.7818608E-02  0.1130116E+00
         25   -1    0    0    0    0  0.00000000000E+00  0.00000000000E+00  0.99999998245E-14  0.12500000000E+03  0.12500000000E+03 0.  0.
        -13    1    3    3    0    0  0.38752261641E+02 -0.53567246973E+01  0.40776410968E+01  0.39332818393E+02  0.10566000000E+00 0. -1.
         23    2    1    0    0    0 -0.12199106344E+02 -0.26288639276E+02 -0.61898830914E+01  0.95365131968E+02  0.90643714575E+02 0.  0.
         13    1    3    3    0    0 -0.50951367985E+02 -0.20931914579E+02 -0.10267524188E+02  0.56032313575E+02  0.10566000000E+00 0.  1.
         22    1    1    0    0    0  0.12199106344E+02  0.26288639276E+02  0.61898830914E+01  0.29634868032E+02  0.00000000000E+00 0.  1.
</event>
<event>
 5    1  0.1764311E-003  0.9118800E+02  0.7818608E-02  0.1130116E+00
         25   -1    0    0    0    0  0.00000000000E+00  0.00000000000E+00  0.99999998245E-14  0.12500000000E+03  0.12500000000E+03 0.  0.
        -13    1    3    3    0    0  0.82644334189E+01 -0.31045926186E+02 -0.15456673508E+02  0.35652073046E+02  0.10566000000E+00 0. -1.
         23    2    1    0    0    0 -0.20362218965E+02  0.19447105490E+02  0.32988462258E+01  0.96650533346E+02  0.92399314590E+02 0.  0.
         13    1    3    3    0    0 -0.28626652384E+02  0.50493031676E+02  0.18755519734E+02  0.60998460301E+02  0.10566000000E+00 0.  1.
         22    1    1    0    0    0  0.20362218965E+02 -0.19447105490E+02 -0.32988462258E+01  0.28349466654E+02  0.00000000000E+00 0.  1.
</event>
<event>
 5    1  0.1764311E-003  0.9118800E+02  0.7818608E-02  0.1130116E+00
         25   -1    0    0    0    0  0.00000000000E+00  0.00000000000E+00  0.99999998245E-14  0.12500000000E+03  0.12500000000E+03 0.  0.
        -13    1    3    3    0    0 -0.14356189177E+02  0.74931543036E+00 -0.44964895621E+02  0.47207146107E+02  0.10566000000E+00 0.  1.
         23    2    1    0    0    0 -0.26196757146E+02  0.81558176078E+01  0.32194009864E+01  0.97374794326E+02  0.93373971649E+02 0.  0.
         13    1    3    3    0    0 -0.11840567968E+02  0.74065021775E+01  0.48184296607E+02  0.50167648220E+02  0.10566000000E+00 0. -1.
         22    1    1    0    0    0  0.26196757146E+02 -0.81558176078E+01 -0.32194009864E+01  0.27625205674E+02  0.00000000000E+00 0. -1.
</event>
<event>
 5    1  0.1764311E-003  0.9118800E+02  0.7818608E-02  0.1130116E+00
         25   -1    0    0    0    0  0.00000000000E+00  0.00000000000E+00  0.99999998245E-14  0.12500000000E+03  0.12500000000E+03 0.  0.
        -13    1    3    3    0    0  0.23713770805E+02  0.43994472807E+02  0.30872520718E+02  0.58745044581E+02  0.10566000000E+00 0.  1.
         23    2    1    0    0    0 -0.33019642481E+01  0.23466672163E+02  0.18770871607E+02  0.94768670370E+02  0.89817412525E+02 0.  0.
         13    1    3    3    0    0 -0.27015735053E+02 -0.20527800644E+02 -0.12101649111E+02  0.36023625789E+02  0.10566000000E+00 0. -1.
         22    1    1    0    0    0  0.33019642481E+01 -0.23466672163E+02 -0.18770871607E+02  0.30231329630E+02  0.00000000000E+00 0.  1.
</event>
<event>
 5    1  0.1764311E-003  0.9118800E+02  0.7818608E-02  0.1130116E+00
         25   -1    0    0    0    0  0.00000000000E+00  0.00000000000E+00  0.99999998245E-14  0.12500000000E+03  0.12500000000E+03 0.  0.
        -13    1    3    3    0    0 -0.16443469538E+02  0.16084170753E+01 -0.28055240191E+02  0.32558906035E+02  0.10566000000E+00 0. -1.
         23    2    1    0    0    0  0.22473128708E+02 -0.33500258883E+01  0.20094479032E+02  0.94667636509E+02  0.89676692218E+02 0.  0.
         13    1    3    3    0    0  0.38916598247E+02 -0.49584429636E+01  0.48149719224E+02  0.62108730474E+02  0.10566000000E+00 0.  1.
         22    1    1    0    0    0 -0.22473128708E+02  0.33500258883E+01 -0.20094479032E+02  0.30332363491E+02  0.00000000000E+00 0.  1.
</event>
<event>
 5    1  0.1764311E-003  0.9118800E+02  0.7818608E-02  0.1130116E+00
         25   -1    0    0    0    0  0.00000000000E+00  0.00000000000E+00  0.99999998245E-14  0.12500000000E+03  0.12500000000E+03 0.  0.
        -13    1    3    3    0    0 -0.19137008713E+02  0.31213026116E+02 -0.39109879890E+02  0.53573052656E+02  0.10566000000E+00 0. -1.
         23    2    1    0    0    0  0.14087292370E+02  0.20396251540E+02 -0.17504944026E+02  0.94653963215E+02  0.89657631041E+02 0.  0.
         13    1    3    3    0    0  0.33224301083E+02 -0.10816774577E+02  0.21604935864E+02  0.41080910560E+02  0.10566000000E+00 0.  1.
         22    1    1    0    0    0 -0.14087292370E+02 -0.20396251540E+02  0.17504944026E+02  0.30346036785E+02  0.00000000000E+00 0. -1.
</event>
<event>
 5    1  0.1764311E-003  0.9118800E+02  0.7818608E-02  0.1130116E+00
         25   -1    0    0    0    0  0.00000000000E+00  0.00000000000E+00  0.99999998245E-14  0.12500000000E+03  0.12500000000E+03 0.  0.
        -13    1    3    3    0    0  0.23253020339E+02  0.42211971995E+02  0.22716658631E+02  0.53278619333E+02  0.10566000000E+00 0.  1.
         23    2    1    0    0    0 -0.11632604379E+02  0.18544958205E+02  0.19711764416E+02  0.95541781862E+02  0.90886992830E+02 0.  0.
         13    1    3    3    0    0 -0.34885624718E+02 -0.23667013790E+02 -0.30048942148E+01  0.42263162530E+02  0.10566000000E+00 0. -1.
         22    1    1    0    0    0  0.11632604379E+02 -0.18544958205E+02 -0.19711764416E+02  0.29458218138E+02  0.00000000000E+00 0.  1.
</event>
<event>
 5    1  0.1764311E-003  0.9118800E+02  0.7818608E-02  0.1130116E+00
         25   -1    0    0    0    0  0.00000000000E+00  0.00000000000E+00  0.99999998245E-14  0.12500000000E+03  0.12500000000E+03 0.  0.
        -13    1    3    3    0    0 -0.11798502474E+02 -0.40841790926E+01  0.31241791347E+02  0.33644403251E+02  0.10566000000E+00 0. -1.
         23    2    1    0    0    0  0.15167299342E+02 -0.16370524045E+01 -0.24799434017E+02  0.95884044967E+02  0.91356506291E+02 0.  0.
         13    1    3    3    0    0  0.26965801817E+02  0.24471266881E+01 -0.56041225364E+02  0.62239641716E+02  0.10566000000E+00 0.  1.
         22    1    1    0    0    0 -0.15167299342E+02  0.16370524045E+01  0.24799434017E+02  0.29115955033E+02  0.00000000000E+00 0.  1.
</event>
<event>
 5    1  0.1764311E-003  0.9118800E+02  0.7818608E-02  0.1130116E+00
         25   -1    0    0    0    0  0.00000000000E+00  0.00000000000E+00  0.99999998245E-14  0.12500000000E+03  0.12500000000E+03 0.  0.
        -13    1    3    3    0    0 -0.20585515248E+02  0.86167104836E+01 -0.51295216628E+02  0.55939445389E+02  0.10566000000E+00 0.  1.
         23    2    1    0    0    0 -0.23551114681E+02 -0.57846712340E+01 -0.11905542140E+02  0.97984090656E+02  0.94186106534E+02 0.  0.
         13    1    3    3    0    0 -0.29655994333E+01 -0.14401381718E+02  0.39389674487E+02  0.42044645267E+02  0.10566000000E+00 0. -1.
         22    1    1    0    0    0  0.23551114681E+02  0.57846712340E+01  0.11905542140E+02  0.27015909344E+02  0.00000000000E+00 0.  1.
</event>
<event>
 5    1  0.1764311E-003  0.9118800E+02  0.7818608E-02  0.1130116E+00
         25   -1    0    0    0    0  0.00000000000E+00  0.00000000000E+00  0.99999998245E-14  0.12500000000E+03  0.12500000000E+03 0.  0.
        -13    1    3    3    0    0 -0.15518308302E+02  0.21372861840E+02 -0.25046949451E+02  0.36400246656E+02  0.10566000000E+00 0.  1.
         23    2    1    0    0    0 -0.78854549661E+01 -0.51218345848E+01  0.27606480065E+02  0.95836129695E+02  0.91290921914E+02 0.  0.
         13    1    3    3    0    0  0.76328533356E+01 -0.26494696425E+02  0.52653429517E+02  0.59435883039E+02  0.10566000000E+00 0. -1.
         22    1    1    0    0    0  0.78854549661E+01  0.51218345848E+01 -0.27606480065E+02  0.29163870305E+02  0.00000000000E+00 0. -1.
</event>
<event>
 5    1  0.1764311E-003  0.9118800E+02  0.7818608E-02  0.1130116E+00
         25   -1    0    0    0    0  0.00000000000E+00  0.00000000000E+00  0.99999998245E-14  0.12500000000E+03  0.12500000000E+03 0.  0.
        -13    1    3    3    0    0  0.11347561637E+01 -0.27368168561E+01  0.31424505639E+02  0.31564038981E+02  0.10566000000E+00 0. -1.
         23    2    1    0    0    0 -0.18382997291E+02  0.21040577840E+02 -0.19408476596E+02  0.90980454603E+02  0.84380765882E+02 0.  0.
         13    1    3    3    0    0 -0.19517753454E+02  0.23777394697E+02 -0.50832982235E+02  0.59416415622E+02  0.10566000000E+00 0.  1.
         22    1    1    0    0    0  0.18382997291E+02 -0.21040577840E+02  0.19408476596E+02  0.34019545397E+02  0.00000000000E+00 0.  1.
</event>
<event>
 5    1  0.1764311E-003  0.9118800E+02  0.7818608E-02  0.1130116E+00
         25   -1    0    0    0    0  0.00000000000E+00  0.00000000000E+00  0.99999998245E-14  0.12500000000E+03  0.12500000000E+03 0.  0.
        -13    1    3    3    0    0 -0.32860578485E+01  0.16116984117E+02  0.44176749087E+02  0.47139703830E+02  0.10566000000E+00 0. -1.
         23    2    1    0    0    0 -0.69150432127E+01  0.27655737563E+02 -0.34557352087E+01  0.96284155094E+02  0.91902332797E+02 0.  0.
         13    1    3    3    0    0 -0.36289853642E+01  0.11538753447E+02 -0.47632484296E+02  0.49144451265E+02  0.10566000000E+00 0.  1.
         22    1    1    0    0    0  0.69150432127E+01 -0.27655737563E+02  0.34557352087E+01  0.28715844906E+02  0.00000000000E+00 0. -1.
</event>
<event>
 5    1  0.1764311E-003  0.9118800E+02  0.7818608E-02  0.1130116E+00
         25   -1    0    0    0    0  0.00000000000E+00  0.00000000000E+00  0.99999998245E-14  0.12500000000E+03  0.12500000000E+03 0.  0.
        -13    1    3    3    0    0  0.50838204611E+01 -0.35146870950E+02  0.11411487415E+02  0.37301219513E+02  0.10566000000E+00 0. -1.
         23    2    1    0    0    0 -0.11321455298E+01  0.14986320309E+02 -0.22353793405E+02  0.98063711660E+02  0.94291717107E+02 0.  0.
         13    1    3    3    0    0 -0.62159659909E+01  0.50133191259E+02 -0.33765280821E+02  0.60762492148E+02  0.10566000000E+00 0.  1.
         22    1    1    0    0    0  0.11321455298E+01 -0.14986320309E+02  0.22353793405E+02  0.26936288340E+02  0.00000000000E+00 0.  1.
</event>
<event>
 5    1  0.1764311E-003  0.9118800E+02  0.7818608E-02  0.1130116E+00
         25   -1    0    0    0    0  0.00000000000E+00  0.00000000000E+00  0.99999998245E-14  0.12500000000E+03  0.12500000000E+03 0.  0.
        -13    1    3    3    0    0 -0.23663992916E+02  0.37215686157E+02 -0.11974536253E+02  0.45698933679E+02  0.10566000000E+00 0. -1.
         23    2    1    0    0    0 -0.16791429897E+02 -0.13431929739E+02 -0.17725228670E+02  0.97133306872E+02  0.93050130134E+02 0.  0.
         13    1    3    3    0    0  0.68725630192E+01 -0.50647615896E+02 -0.57506924170E+01  0.51434373193E+02  0.10566000000E+00 0.  1.
         22    1    1    0    0    0  0.16791429897E+02  0.13431929739E+02  0.17725228670E+02  0.27866693128E+02  0.00000000000E+00 0. -1.
</event>
<event>
 5    1  0.1764311E-003  0.9118800E+02  0.7818608E-02  0.1130116E+00
         25   -1    0    0    0    0  0.00000000000E+00  0.00000000000E+00  0.99999998245E-14  0.12500000000E+03  0.12500000000E+03 0.  0.
        -13    1    3    3    0    0  0.48470416899E+02 -0.18118712194E+02 -0.67533134280E+01  0.52185126734E+02  0.10566000000E+00 0. -1.
         23    2    1    0    0    0  0.19227730385E+02  0.10786248537E+02  0.14640271336E+02  0.98535187172E+02  0.94914681651E+02 0.  0.
         13    1    3    3    0    0 -0.29242686515E+02  0.28904960731E+02  0.21393584764E+02  0.46350060438E+02  0.10566000000E+00 0.  1.
         22    1    1    0    0    0 -0.19227730385E+02 -0.10786248537E+02 -0.14640271336E+02  0.26464812828E+02  0.00000000000E+00 0. -1.
</event>
<event>
 5    1  0.1764311E-003  0.9118800E+02  0.7818608E-02  0.1130116E+00
         25   -1    0    0    0    0  0.00000000000E+00  0.00000000000E+00  0.99999998245E-14  0.12500000000E+03  0.12500000000E+03 0.  0.
        -13    1    3    3    0    0 -0.38894538978E+02 -0.91809840409E+01 -0.17914067248E+02  0.43794983728E+02  0.10566000000E+00 0.  1.
         23    2    1    0    0    0 -0.17453626793E+02  0.16937107071E+02  0.19219143819E+02  0.94002094050E+02  0.88744146356E+02 0.  0.
         13    1    3    3    0    0  0.21440912185E+02  0.26118091112E+02  0.37133211067E+02  0.50207110322E+02  0.10566000000E+00 0. -1.
         22    1    1    0    0    0  0.17453626793E+02 -0.16937107071E+02 -0.19219143819E+02  0.30997905950E+02  0.00000000000E+00 0. -1.
</event>
<event>
 5    1  0.1764311E-003  0.9118800E+02  0.7818608E-02  0.1130116E+00
         25   -1    0    0    0    0  0.00000000000E+00  0.00000000000E+00  0.99999998245E-14  0.12500000000E+03  0.12500000000E+03 0.  0.
        -13    1    3    3    0    0  0.26115064420E+02 -0.19713029097E+02 -0.95726855329E+01  0.34091752348E+02  0.10566000000E+00 0. -1.
         23    2    1    0    0    0 -0.17058899498E+02  0.67179825661E+01  0.23972919809E+02  0.94819903479E+02  0.89888685994E+02 0.  0.
         13    1    3    3    0    0 -0.43173963918E+02  0.26431011663E+02  0.33545605342E+02  0.60728151130E+02  0.10566000000E+00 0.  1.
         22    1    1    0    0    0  0.17058899498E+02 -0.67179825661E+01 -0.23972919809E+02  0.30180096521E+02  0.00000000000E+00 0.  1.
</event>
<event>
 5    1  0.1764311E-003  0.9118800E+02  0.7818608E-02  0.1130116E+00
         25   -1    0    0    0    0  0.00000000000E+00  0.00000000000E+00  0.99999998245E-14  0.12500000000E+03  0.12500000000E+03 0.  0.
        -13    1    3    3    0    0  0.36631027969E+02 -0.25846798129E+02 -0.71508896471E+01  0.45398629609E+02  0.10566000000E+00 0.  1.
         23    2    1    0    0    0  0.22858326054E+01  0.12594758521E+01 -0.30087543113E+02  0.94799477476E+02  0.89860276925E+02 0.  0.
         13    1    3    3    0    0 -0.34345195364E+02  0.27106273981E+02 -0.22936653466E+02  0.49400847867E+02  0.10566000000E+00 0. -1.
         22    1    1    0    0    0 -0.22858326054E+01 -0.12594758521E+01  0.30087543113E+02  0.30200522524E+02  0.00000000000E+00 0. -1.
</event>
<event>
 5    1  0.1764311E-003  0.9118800E+02  0.7818608E-02  0.1130116E+00
         25   -1    0    0    0    0  0.00000000000E+00  0.00000000000E+00  0.99999998245E-14  0.12500000000E+03  0.12500000000E+03 0.  0.
        -13    1    3    3    0    0 -0.96696233482E+01  0.30802458957E+02 -0.27895374063E+02  0.42666803860E+02  0.10566000000E+00 0. -1.
         23    2    1    0    0    0  0.18246807211E+02  0.86032261844E+01  0.16018539350E+02  0.99240437172E+02  0.95838975856E+02 0.  0.
         13    1    3    3    0    0  0.27916430559E+02 -0.22199232773E+02  0.43913913413E+02  0.56573633312E+02  0.10566000000E+00 0.  1.
         22    1    1    0    0    0 -0.18246807211E+02 -0.86032261844E+01 -0.16018539350E+02  0.25759562828E+02  0.00000000000E+00 0.  1.
</event>
<event>
 5    1  0.1764311E-003  0.9118800E+02  0.7818608E-02  0.1130116E+00
         25   -1    0    0    0    0  0.00000000000E+00  0.00000000000E+00  0.99999998245E-14  0.12500000000E+03  0.12500000000E+03 0.  0.
        -13    1    3    3    0    0 -0.21805994009E+01  0.11724659856E+02 -0.34069094080E+02  0.36096218611E+02  0.10566000000E+00 0.  1.
         23    2    1    0    0    0  0.15045389139E+02  0.66941443494E+01  0.23447581029E+02  0.96347524382E+02  0.91988483494E+02 0.  0.
         13    1    3    3    0    0  0.17225988540E+02 -0.50305155068E+01  0.57516675110E+02  0.60251305771E+02  0.10566000000E+00 0. -1.
         22    1    1    0    0    0 -0.15045389139E+02 -0.66941443494E+01 -0.23447581029E+02  0.28652475618E+02  0.00000000000E+00 0. -1.
</event>
<event>
 5    1  0.1764311E-003  0.9118800E+02  0.7818608E-02  0.1130116E+00
         25   -1    0    0    0    0  0.00000000000E+00  0.00000000000E+00  0.99999998245E-14  0.12500000000E+03  0.12500000000E+03 0.  0.
        -13    1    3    3    0    0  0.10107036719E+02  0.81783575832E+01  0.53816025127E+02  0.55364369846E+02  0.10566000000E+00 0. -1.
         23    2    1    0    0    0  0.16311705167E+02 -0.13324331883E+02  0.19734477983E+02  0.96137235634E+02  0.91702284096E+02 0.  0.
         13    1    3    3    0    0  0.62046684482E+01 -0.21502689466E+02 -0.34081547144E+02  0.40772865788E+02  0.10566000000E+00 0.  1.
         22    1    1    0    0    0 -0.16311705167E+02  0.13324331883E+02 -0.19734477983E+02  0.28862764366E+02  0.00000000000E+00 0. -1.
</event>
<event>
 5    1  0.1764311E-003  0.9118800E+02  0.7818608E-02  0.1130116E+00
         25   -1    0    0    0    0  0.00000000000E+00  0.00000000000E+00  0.99999998245E-14  0.12500000000E+03  0.12500000000E+03 0.  0.
        -13    1    3    3    0    0 -0.23164926318E+02 -0.29819363509E+02  0.15154818462E+02  0.40687687794E+02  0.10566000000E+00 0.  1.
         23    2    1    0    0    0 -0.14533894144E+02  0.37329748302E+01 -0.26304286794E+02  0.94716593920E+02  0.89744907822E+02 0.  0.
         13    1    3    3    0    0  0.86310321734E+01  0.33552338339E+02 -0.41459105257E+02  0.54028906125E+02  0.10566000000E+00 0. -1.
         22    1    1    0    0    0  0.14533894144E+02 -0.37329748302E+01  0.26304286794E+02  0.30283406080E+02  0.00000000000E+00 0. -1.
</event>
<event>
 5    1  0.1764311E-003  0.9118800E+02  0.7818608E-02  0.1130116E+00
         25   -1    0    0    0    0  0.00000000000E+00  0.00000000000E+00  0.99999998245E-14  0.12500000000E+03  0.12500000000E+03 0.  0.
        -13    1    3    3    0    0 -0.40957487577E+01  0.10327622370E+02  0.50336831173E+02  0.51548449814E+02  0.10566000000E+00 0.  1.
         23    2    1    0    0    0 -0.24778743672E+02 -0.24055244671E+01  0.10992643268E+02  0.97785832882E+02  0.93922618258E+02 0.  0.
         13    1    3    3    0    0 -0.20682994914E+02 -0.12733146838E+02 -0.39344187905E+02  0.46237383067E+02  0.10566000000E+00 0. -1.
         22    1    1    0    0    0  0.24778743672E+02  0.24055244671E+01 -0.10992643268E+02  0.27214167118E+02  0.00000000000E+00 0. -1.
</event>
<event>
 5    1  0.1764311E-003  0.9118800E+02  0.7818608E-02  0.1130116E+00
         25   -1    0    0    0    0  0.00000000000E+00  0.00000000000E+00  0.99999998245E-14  0.12500000000E+03  0.12500000000E+03 0.  0.
        -13    1    3    3    0    0  0.33800919016E+02  0.24404401677E+01 -0.24834853810E+02  0.42014747438E+02  0.10566000000E+00 0.  1.
         23    2    1    0    0    0 -0.17456067068E+02  0.16073032208E+02 -0.17406428628E+02  0.95571435655E+02  0.90927767562E+02 0.  0.
         13    1    3    3    0    0 -0.51256986083E+02  0.13632592040E+02  0.74284251825E+01  0.53556688217E+02  0.10566000000E+00 0. -1.
         22    1    1    0    0    0  0.17456067068E+02 -0.16073032208E+02  0.17406428628E+02  0.29428564345E+02  0.00000000000E+00 0. -1.
</event>
<event>
 5    1  0.1764311E-003  0.9118800E+02  0.7818608E-02  0.1130116E+00
         25   -1    0    0    0    0  0.00000000000E+00  0.00000000000E+00  0.99999998245E-14  0.12500000000E+03  0.12500000000E+03 0.  0.
        -13    1    3    3    0    0  0.17800205799E+02 -0.50205306072E+02 -0.64280870315E+01  0.53653998464E+02  0.10566000000E+00 0. -1.
         23    2    1    0    0    0  0.26371495741E+02 -0.96145157706E+01 -0.97808082379E+01  0.95275281147E+02  0.90519723191E+02 0.  0.
         13    1    3    3    0    0  0.85712899425E+01  0.40590790302E+02 -0.33527212063E+01  0.41621282682E+02  0.10566000000E+00 0.  1.
         22    1    1    0    0    0 -0.26371495741E+02  0.96145157706E+01  0.97808082379E+01  0.29724718853E+02  0.00000000000E+00 0. -1.
</event>
<event>
 5    1  0.1764311E-003  0.9118800E+02  0.7818608E-02  0.1130116E+00
         25   -1    0    0    0    0  0.00000000000E+00  0.00000000000E+00  0.99999998245E-14  0.12500000000E+03  0.12500000000E+03 0.  0.
        -13    1    3    3    0    0 -0.38007644586E+01  0.32461114736E+01  0.42424088907E+02  0.42717648973E+02  0.10566000000E+00 0.  1.
         23    2    1    0    0    0 -0.25358037297E+02  0.15456110988E+02 -0.36987096581E+01  0.95073391847E+02  0.90240500673E+02 0.  0.
         13    1    3    3    0    0 -0.21557272838E+02  0.12209999515E+02 -0.46122798565E+02  0.52355742874E+02  0.10566000000E+00 0. -1.
         22    1    1    0    0    0  0.25358037297E+02 -0.15456110988E+02  0.36987096581E+01  0.29926608153E+02  0.00000000000E+00 0. -1.
</event>
<event>
 5    1  0.1764311E-003  0.9118800E+02  0.7818608E-02  0.1130116E+00
         25   -1    0    0    0    0  0.00000000000E+00  0.00000000000E+00  0.99999998245E-14  0.12500000000E+03  0.12500000000E+03 0.  0.
        -13    1    3    3    0    0  0.17651671929E+02 -0.34009457572E+02 -0.12701857707E+02  0.40367970960E+02  0.10566000000E+00 0.  1.
         23    2    1    0    0    0  0.30845084382E+01 -0.22571885933E+01  0.29556893160E+02  0.95196996361E+02  0.90411553964E+02 0.  0.
         13    1    3    3    0    0 -0.14567163490E+02  0.31752268978E+02  0.42258750868E+02  0.54829025400E+02  0.10566000000E+00 0. -1.
         22    1    1    0    0    0 -0.30845084382E+01  0.22571885933E+01 -0.29556893160E+02  0.29803003639E+02  0.00000000000E+00 0. -1.
</event>
<event>
 5    1  0.1764311E-003  0.9118800E+02  0.7818608E-02  0.1130116E+00
         25   -1    0    0    0    0  0.00000000000E+00  0.00000000000E+00  0.99999998245E-14  0.12500000000E+03  0.12500000000E+03 0.  0.
        -13    1    3    3    0    0 -0.46297404756E+02 -0.26171235883E+02 -0.21475317411E+02  0.57354892527E+02  0.10566000000E+00 0. -1.
         23    2    1    0    0    0 -0.99679226455E+01 -0.25916093614E+02 -0.10604758821E+02  0.95276872645E+02  0.90521920889E+02 0.  0.
         13    1    3    3    0    0  0.36329482111E+02  0.25514226920E+00  0.10870558590E+02  0.37921980119E+02  0.10566000000E+00 0.  1.
         22    1    1    0    0    0  0.99679226455E+01  0.25916093614E+02  0.10604758821E+02  0.29723127355E+02  0.00000000000E+00 0. -1.
</event>
<event>
 5    1  0.1764311E-003  0.9118800E+02  0.7818608E-02  0.1130116E+00
         25   -1    0    0    0    0  0.00000000000E+00  0.00000000000E+00  0.99999998245E-14  0.12500000000E+03  0.12500000000E+03 0.  0.
        -13    1    3    3    0    0  0.52786878625E+02  0.46164804553E+01 -0.26318207734E+02  0.59164395282E+02  0.10566000000E+00 0.  1.
         23    2    1    0    0    0  0.17273258774E+02  0.34538872910E+01 -0.24606277317E+02  0.94738412310E+02  0.89775292133E+02 0.  0.
         13    1    3    3    0    0 -0.35513619850E+02 -0.11625931642E+01  0.17119304165E+01  0.35574017028E+02  0.10566000000E+00 0. -1.
         22    1    1    0    0    0 -0.17273258774E+02 -0.34538872910E+01  0.24606277317E+02  0.30261587690E+02  0.00000000000E+00 0.  1.
</event>
<event>
 5    1  0.1764311E-003  0.9118800E+02  0.7818608E-02  0.1130116E+00
         25   -1    0    0    0    0  0.00000000000E+00  0.00000000000E+00  0.99999998245E-14  0.12500000000E+03  0.12500000000E+03 0.  0.
        -13    1    3    3    0    0 -0.42494244557E+02 -0.35998212868E+02  0.73358737792E+01  0.56173466675E+02  0.10566000000E+00 0.  1.
         23    2    1    0    0    0 -0.12750063422E+02 -0.31063875449E+02  0.16362872025E+02  0.87646659372E+02  0.79288491239E+02 0.  0.
         13    1    3    3    0    0  0.29744181135E+02  0.49343374192E+01  0.90269982462E+01  0.31473192697E+02  0.10566000000E+00 0. -1.
         22    1    1    0    0    0  0.12750063422E+02  0.31063875449E+02 -0.16362872025E+02  0.37353340628E+02  0.00000000000E+00 0.  1.
</event>
<event>
 5    1  0.1764311E-003  0.9118800E+02  0.7818608E-02  0.1130116E+00
         25   -1    0    0    0    0  0.00000000000E+00  0.00000000000E+00  0.99999998245E-14  0.12500000000E+03  0.12500000000E+03 0.  0.
        -13    1    3    3    0    0  0.28467226456E+02  0.16755134644E+02 -0.47427957978E+02  0.57797403757E+02  0.10566000000E+00 0.  1.
         23    2    1    0    0    0  0.14540383355E+02 -0.93776489711E+01 -0.23202854041E+02  0.96056339485E+02  0.91591947634E+02 0.  0.
         13    1    3    3    0    0 -0.13926843100E+02 -0.26132783615E+02  0.24225103938E+02  0.38258935728E+02  0.10566000000E+00 0. -1.
         22    1    1    0    0    0 -0.14540383355E+02  0.93776489711E+01  0.23202854041E+02  0.28943660515E+02  0.00000000000E+00 0.  1.
</event>
<event>
 5    1  0.1764311E-003  0.9118800E+02  0.7818608E-02  0.1130116E+00
         25   -1    0    0    0    0  0.00000000000E+00  0.00000000000E+00  0.99999998245E-14  0.12500000000E+03  0.12500000000E+03 0.  0.
        -13    1    3    3    0    0  0.29790064131E+02  0.48217463171E+02 -0.17419367351E+02  0.59294326867E+02  0.10566000000E+00 0. -1.
         23    2    1    0    0    0  0.21021998464E+02  0.19429207831E+02  0.38089094591E+01  0.96122217404E+02  0.91681810361E+02 0.  0.
         13    1    3    3    0    0 -0.87680656671E+01 -0.28788255340E+02  0.21228276811E+02  0.36827890538E+02  0.10566000000E+00 0.  1.
         22    1    1    0    0    0 -0.21021998464E+02 -0.19429207831E+02 -0.38089094591E+01  0.28877782596E+02  0.00000000000E+00 0. -1.
</event>
<event>
 5    1  0.1764311E-003  0.9118800E+02  0.7818608E-02  0.1130116E+00
         25   -1    0    0    0    0  0.00000000000E+00  0.00000000000E+00  0.99999998245E-14  0.12500000000E+03  0.12500000000E+03 0.  0.
        -13    1    3    3    0    0 -0.11379893475E+02 -0.15563400717E+02 -0.28132347976E+02  0.34105154802E+02  0.10566000000E+00 0.  1.
         23    2    1    0    0    0 -0.39222396174E+01  0.21354069213E+02  0.20176523454E+02  0.95360966037E+02  0.90637969468E+02 0.  0.
         13    1    3    3    0    0  0.74576538580E+01  0.36917469929E+02  0.48308871431E+02  0.61255811235E+02  0.10566000000E+00 0. -1.
         22    1    1    0    0    0  0.39222396174E+01 -0.21354069213E+02 -0.20176523454E+02  0.29639033963E+02  0.00000000000E+00 0. -1.
</event>
<event>
 5    1  0.1764311E-003  0.9118800E+02  0.7818608E-02  0.1130116E+00
         25   -1    0    0    0    0  0.00000000000E+00  0.00000000000E+00  0.99999998245E-14  0.12500000000E+03  0.12500000000E+03 0.  0.
        -13    1    3    3    0    0  0.11253495534E+00 -0.38297554593E+02  0.17626604125E+02  0.42159502950E+02  0.10566000000E+00 0.  1.
         23    2    1    0    0    0 -0.23268898990E+02  0.63512407061E+01 -0.91150600241E+01  0.99215038531E+02  0.95805843417E+02 0.  0.
         13    1    3    3    0    0 -0.23381433945E+02  0.44648795299E+02 -0.26741664149E+02  0.57055535582E+02  0.10566000000E+00 0. -1.
         22    1    1    0    0    0  0.23268898990E+02 -0.63512407061E+01  0.91150600241E+01  0.25784961469E+02  0.00000000000E+00 0. -1.
</event>
<event>
 5    1  0.1764311E-003  0.9118800E+02  0.7818608E-02  0.1130116E+00
         25   -1    0    0    0    0  0.00000000000E+00  0.00000000000E+00  0.99999998245E-14  0.12500000000E+03  0.12500000000E+03 0.  0.
        -13    1    3    3    0    0  0.79834983189E+01 -0.14777376829E+02 -0.43971894851E+02  0.47070647033E+02  0.10566000000E+00 0. -1.
         23    2    1    0    0    0 -0.24041289289E+02  0.76636259815E+01 -0.17388796625E+02  0.94355506173E+02  0.89240554364E+02 0.  0.
         13    1    3    3    0    0 -0.32024787608E+02  0.22441002811E+02  0.26583098226E+02  0.47284859139E+02  0.10566000000E+00 0.  1.
         22    1    1    0    0    0  0.24041289289E+02 -0.76636259815E+01  0.17388796625E+02  0.30644493827E+02  0.00000000000E+00 0.  1.
</event>
<event>
 5    1  0.1764311E-003  0.9118800E+02  0.7818608E-02  0.1130116E+00
         25   -1    0    0    0    0  0.00000000000E+00  0.00000000000E+00  0.99999998245E-14  0.12500000000E+03  0.12500000000E+03 0.  0.
        -13    1    3    3    0    0  0.22485302342E+01  0.36493624475E+02 -0.70845016667E+01  0.37243010666E+02  0.10566000000E+00 0. -1.
         23    2    1    0    0    0  0.57952173690E+01 -0.23875867250E+02 -0.11489939940E+02  0.97876941524E+02  0.94043795015E+02 0.  0.
         13    1    3    3    0    0  0.35466871348E+01 -0.60369491725E+02 -0.44054382733E+01  0.60633930857E+02  0.10566000000E+00 0.  1.
         22    1    1    0    0    0 -0.57952173690E+01  0.23875867250E+02  0.11489939940E+02  0.27123058476E+02  0.00000000000E+00 0.  1.
</event>
<event>
 5    1  0.1764311E-003  0.9118800E+02  0.7818608E-02  0.1130116E+00
         25   -1    0    0    0    0  0.00000000000E+00  0.00000000000E+00  0.99999998245E-14  0.12500000000E+03  0.12500000000E+03 0.  0.
        -13    1    3    3    0    0 -0.40217068425E+02  0.32652635250E+02 -0.23059677755E+02  0.56704206931E+02  0.10566000000E+00 0. -1.
         23    2    1    0    0    0 -0.44923134680E+01  0.24946641579E+02 -0.18680642823E+02  0.93512189301E+02  0.88051390251E+02 0.  0.
         13    1    3    3    0    0  0.35724754957E+02 -0.77059936708E+01  0.43790349324E+01  0.36807982370E+02  0.10566000000E+00 0.  1.
         22    1    1    0    0    0  0.44923134680E+01 -0.24946641579E+02  0.18680642823E+02  0.31487810699E+02  0.00000000000E+00 0. -1.
</event>
<event>
 5    1  0.1764311E-003  0.9118800E+02  0.7818608E-02  0.1130116E+00
         25   -1    0    0    0    0  0.00000000000E+00  0.00000000000E+00  0.99999998245E-14  0.12500000000E+03  0.12500000000E+03 0.  0.
        -13    1    3    3    0    0  0.30656329483E+02 -0.17928335972E+02 -0.15886606480E+02  0.38905413474E+02  0.10566000000E+00 0.  1.
         23    2    1    0    0    0 -0.53119604938E+00  0.28579466879E+02 -0.65404068117E+01  0.95676885950E+02  0.91072616563E+02 0.  0.
         13    1    3    3    0    0 -0.31187525532E+02  0.46507802851E+02  0.93461996683E+01  0.56771472476E+02  0.10566000000E+00 0. -1.
         22    1    1    0    0    0  0.53119604938E+00 -0.28579466879E+02  0.65404068117E+01  0.29323114050E+02  0.00000000000E+00 0. -1.
</event>
<event>
 5    1  0.1764311E-003  0.9118800E+02  0.7818608E-02  0.1130116E+00
         25   -1    0    0    0    0  0.00000000000E+00  0.00000000000E+00  0.99999998245E-14  0.12500000000E+03  0.12500000000E+03 0.  0.
        -13    1    3    3    0    0 -0.32430726109E+02  0.20114467284E+02  0.51408921040E+01  0.38506930879E+02  0.10566000000E+00 0.  1.
         23    2    1    0    0    0 -0.19221742350E+01 -0.28703292627E+02  0.21773526306E+01  0.96150136466E+02  0.91719867622E+02 0.  0.
         13    1    3    3    0    0  0.30508551874E+02 -0.48817759911E+02 -0.29635394734E+01  0.57643205587E+02  0.10566000000E+00 0. -1.
         22    1    1    0    0    0  0.19221742350E+01  0.28703292627E+02 -0.21773526306E+01  0.28849863534E+02  0.00000000000E+00 0. -1.
</event>
<event>
 5    1  0.1764311E-003  0.9118800E+02  0.7818608E-02  0.1130116E+00
         25   -1    0    0    0    0  0.00000000000E+00  0.00000000000E+00  0.99999998245E-14  0.12500000000E+03  0.12500000000E+03 0.  0.
        -13    1    3    3    0    0  0.37609454040E+02  0.23236366226E+02  0.41831709548E+02  0.60862984122E+02  0.10566000000E+00 0. -1.
         23    2    1    0    0    0  0.13473262831E+02  0.19769825116E+02  0.17109136541E+02  0.95587462714E+02  0.90949797572E+02 0.  0.
         13    1    3    3    0    0 -0.24136191209E+02 -0.34665411101E+01 -0.24722573007E+02  0.34724478591E+02  0.10566000000E+00 0.  1.
         22    1    1    0    0    0 -0.13473262831E+02 -0.19769825116E+02 -0.17109136541E+02  0.29412537286E+02  0.00000000000E+00 0. -1.
</event>
<event>
 5    1  0.1764311E-003  0.9118800E+02  0.7818608E-02  0.1130116E+00
         25   -1    0    0    0    0  0.00000000000E+00  0.00000000000E+00  0.99999998245E-14  0.12500000000E+03  0.12500000000E+03 0.  0.
        -13    1    3    3    0    0 -0.25282174576E+02  0.18533615677E+02  0.14467776553E+02  0.34525512071E+02  0.10566000000E+00 0.  1.
         23    2    1    0    0    0  0.94623524594E+01 -0.20711469532E+02 -0.17818223913E+02  0.96086505095E+02  0.91633106865E+02 0.  0.
         13    1    3    3    0    0  0.34744527035E+02 -0.39245085209E+02 -0.32286000466E+02  0.61560993024E+02  0.10566000000E+00 0. -1.
         22    1    1    0    0    0 -0.94623524594E+01  0.20711469532E+02  0.17818223913E+02  0.28913494905E+02  0.00000000000E+00 0. -1.
</event>
<event>
 5    1  0.1764311E-003  0.9118800E+02  0.7818608E-02  0.1130116E+00
         25   -1    0    0    0    0  0.00000000000E+00  0.00000000000E+00  0.99999998245E-14  0.12500000000E+03  0.12500000000E+03 0.  0.
        -13    1    3    3    0    0 -0.14138585292E+02 -0.17596585522E+01 -0.52431404927E+02  0.54332857268E+02  0.10566000000E+00 0. -1.
         23    2    1    0    0    0 -0.25377519404E+02  0.45764372246E+01 -0.12410565227E+02  0.96382096548E+02  0.92035450436E+02 0.  0.
         13    1    3    3    0    0 -0.11238934112E+02  0.63360957768E+01  0.40020839700E+02  0.42049239279E+02  0.10566000000E+00 0.  1.
         22    1    1    0    0    0  0.25377519404E+02 -0.45764372246E+01  0.12410565227E+02  0.28617903452E+02  0.00000000000E+00 0. -1.
</event>
<event>
 5    1  0.1764311E-003  0.9118800E+02  0.7818608E-02  0.1130116E+00
         25   -1    0    0    0    0  0.00000000000E+00  0.00000000000E+00  0.99999998245E-14  0.12500000000E+03  0.12500000000E+03 0.  0.
        -13    1    3    3    0    0  0.34786890129E+02  0.20968614351E+02  0.11515189639E+02  0.42218731259E+02  0.10566000000E+00 0. -1.
         23    2    1    0    0    0 -0.16455749405E+02  0.10679790638E+02  0.21998150572E+02  0.95525125189E+02  0.90864081448E+02 0.  0.
         13    1    3    3    0    0 -0.51242639534E+02 -0.10288823714E+02  0.10482960933E+02  0.53306393930E+02  0.10566000000E+00 0.  1.
         22    1    1    0    0    0  0.16455749405E+02 -0.10679790638E+02 -0.21998150572E+02  0.29474874811E+02  0.00000000000E+00 0.  1.
</event>
<event>
 5    1  0.1764311E-003  0.9118800E+02  0.7818608E-02  0.1130116E+00
         25   -1    0    0    0    0  0.00000000000E+00  0.00000000000E+00  0.99999998245E-14  0.12500000000E+03  0.12500000000E+03 0.  0.
        -13    1    3    3    0    0 -0.27770124483E+02 -0.17781681578E+02 -0.16642485240E+02  0.36937128915E+02  0.10566000000E+00 0.  1.
         23    2    1    0    0    0  0.57935443888E+01  0.23985130300E+02  0.11854168643E+02  0.97625322900E+02  0.93708754794E+02 0.  0.
         13    1    3    3    0    0  0.33563668872E+02  0.41766811878E+02  0.28496653883E+02  0.60688193985E+02  0.10566000000E+00 0. -1.
         22    1    1    0    0    0 -0.57935443888E+01 -0.23985130300E+02 -0.11854168643E+02  0.27374677100E+02  0.00000000000E+00 0. -1.
</event>
<event>
 5    1  0.1764311E-003  0.9118800E+02  0.7818608E-02  0.1130116E+00
         25   -1    0    0    0    0  0.00000000000E+00  0.00000000000E+00  0.99999998245E-14  0.12500000000E+03  0.12500000000E+03 0.  0.
        -13    1    3    3    0    0  0.48030600374E+02  0.16789363875E+02 -0.13095357905E+02  0.52538755927E+02  0.10566000000E+00 0.  1.
         23    2    1    0    0    0  0.13347509004E+02  0.30852090100E+02 -0.90824728365E+01  0.90179046926E+02  0.83185105226E+02 0.  0.
         13    1    3    3    0    0 -0.34683091370E+02  0.14062726226E+02  0.40128850686E+01  0.37640290999E+02  0.10566000000E+00 0. -1.
         22    1    1    0    0    0 -0.13347509004E+02 -0.30852090100E+02  0.90824728365E+01  0.34820953074E+02  0.00000000000E+00 0.  1.
</event>
<event>
 5    1  0.1764311E-003  0.9118800E+02  0.7818608E-02  0.1130116E+00
         25   -1    0    0    0    0  0.00000000000E+00  0.00000000000E+00  0.99999998245E-14  0.12500000000E+03  0.12500000000E+03 0.  0.
        -13    1    3    3    0    0 -0.21295098021E+02  0.45299354183E+02 -0.16178153686E+02  0.52604719464E+02  0.10566000000E+00 0.  1.
         23    2    1    0    0    0  0.76147192952E+01  0.26359317718E+02  0.98257597656E+01  0.95856507836E+02  0.91318820399E+02 0.  0.
         13    1    3    3    0    0  0.28909817317E+02 -0.18940036465E+02  0.26003913452E+02  0.43251788372E+02  0.10566000000E+00 0. -1.
         22    1    1    0    0    0 -0.76147192952E+01 -0.26359317718E+02 -0.98257597656E+01  0.29143492164E+02  0.00000000000E+00 0.  1.
</event>
<event>
 5    1  0.1764311E-003  0.9118800E+02  0.7818608E-02  0.1130116E+00
         25   -1    0    0    0    0  0.00000000000E+00  0.00000000000E+00  0.99999998245E-14  0.12500000000E+03  0.12500000000E+03 0.  0.
        -13    1    3    3    0    0  0.32420311424E+02  0.74345744885E+01  0.90114699888E+01  0.34461097575E+02  0.10566000000E+00 0.  1.
         23    2    1    0    0    0 -0.24317941623E+02 -0.14859146946E+02  0.78784299727E+01  0.95432683727E+02  0.90736822359E+02 0.  0.
         13    1    3    3    0    0 -0.56738253047E+02 -0.22293721435E+02 -0.11330400161E+01  0.60971586152E+02  0.10566000000E+00 0. -1.
         22    1    1    0    0    0  0.24317941623E+02  0.14859146946E+02 -0.78784299727E+01  0.29567316273E+02  0.00000000000E+00 0. -1.
</event>
<event>
 5    1  0.1764311E-003  0.9118800E+02  0.7818608E-02  0.1130116E+00
         25   -1    0    0    0    0  0.00000000000E+00  0.00000000000E+00  0.99999998245E-14  0.12500000000E+03  0.12500000000E+03 0.  0.
        -13    1    3    3    0    0 -0.80202416658E+01 -0.21870550550E+02 -0.46080688039E+02  0.51634157608E+02  0.10566000000E+00 0. -1.
         23    2    1    0    0    0  0.16083445606E+02  0.70673141773E+01 -0.23886341772E+02  0.95349005489E+02  0.90621473020E+02 0.  0.
         13    1    3    3    0    0  0.24103687271E+02  0.28937864727E+02  0.22194346266E+02  0.43714847881E+02  0.10566000000E+00 0.  1.
         22    1    1    0    0    0 -0.16083445606E+02 -0.70673141773E+01  0.23886341772E+02  0.29650994511E+02  0.00000000000E+00 0. -1.
</event>
<event>
 5    1  0.1764311E-003  0.9118800E+02  0.7818608E-02  0.1130116E+00
         25   -1    0    0    0    0  0.00000000000E+00  0.00000000000E+00  0.99999998245E-14  0.12500000000E+03  0.12500000000E+03 0.  0.
        -13    1    3    3    0    0  0.43416260238E+02  0.22617304609E+02  0.26625574275E+01  0.49026671281E+02  0.10566000000E+00 0. -1.
         23    2    1    0    0    0 -0.17901306687E+01  0.24809938326E+02  0.15019351154E+02  0.95942840527E+02  0.91436918866E+02 0.  0.
         13    1    3    3    0    0 -0.45206390907E+02  0.21926337168E+01  0.12356793727E+02  0.46916169246E+02  0.10566000000E+00 0.  1.
         22    1    1    0    0    0  0.17901306687E+01 -0.24809938326E+02 -0.15019351154E+02  0.29057159473E+02  0.00000000000E+00 0.  1.
</event>
<event>
 5    1  0.1764311E-003  0.9118800E+02  0.7818608E-02  0.1130116E+00
         25   -1    0    0    0    0  0.00000000000E+00  0.00000000000E+00  0.99999998245E-14  0.12500000000E+03  0.12500000000E+03 0.  0.
        -13    1    3    3    0    0  0.80692700143E+01  0.78657231406E+01  0.45047057483E+02  0.46435237385E+02  0.10566000000E+00 0.  1.
         23    2    1    0    0    0 -0.23689094243E+02 -0.11593351568E+02  0.12878699710E+02  0.95649703701E+02  0.91035300435E+02 0.  0.
         13    1    3    3    0    0 -0.31758364258E+02 -0.19459074708E+02 -0.32168357774E+02  0.49214466315E+02  0.10566000000E+00 0. -1.
         22    1    1    0    0    0  0.23689094243E+02  0.11593351568E+02 -0.12878699710E+02  0.29350296299E+02  0.00000000000E+00 0. -1.
</event>
<event>
 5    1  0.1764311E-003  0.9118800E+02  0.7818608E-02  0.1130116E+00
         25   -1    0    0    0    0  0.00000000000E+00  0.00000000000E+00  0.99999998245E-14  0.12500000000E+03  0.12500000000E+03 0.  0.
        -13    1    3    3    0    0 -0.22715593841E+02  0.16475449761E+02  0.11869060000E+02  0.30468416396E+02  0.10566000000E+00 0.  1.
         23    2    1    0    0    0  0.82900032106E+01 -0.16887744809E+02 -0.28179489715E+02  0.91117796432E+02  0.84583976663E+02 0.  0.
         13    1    3    3    0    0  0.31005597051E+02 -0.33363194571E+02 -0.40048549715E+02  0.60649380036E+02  0.10566000000E+00 0. -1.
         22    1    1    0    0    0 -0.82900032106E+01  0.16887744809E+02  0.28179489715E+02  0.33882203568E+02  0.00000000000E+00 0. -1.
</event>
<event>
 5    1  0.1764311E-003  0.9118800E+02  0.7818608E-02  0.1130116E+00
         25   -1    0    0    0    0  0.00000000000E+00  0.00000000000E+00  0.99999998245E-14  0.12500000000E+03  0.12500000000E+03 0.  0.
        -13    1    3    3    0    0 -0.47361610855E+02  0.36513413423E+01 -0.25468081157E+02  0.53898875668E+02  0.10566000000E+00 0. -1.
         23    2    1    0    0    0 -0.11736548174E+02 -0.18529548357E+02 -0.18219099156E+02  0.96486383965E+02  0.92176981895E+02 0.  0.
         13    1    3    3    0    0  0.35625062681E+02 -0.22180889699E+02  0.72489820016E+01  0.42587508297E+02  0.10566000000E+00 0.  1.
         22    1    1    0    0    0  0.11736548174E+02  0.18529548357E+02  0.18219099156E+02  0.28513616035E+02  0.00000000000E+00 0. -1.
</event>
<event>
 5    1  0.1764311E-003  0.9118800E+02  0.7818608E-02  0.1130116E+00
         25   -1    0    0    0    0  0.00000000000E+00  0.00000000000E+00  0.99999998245E-14  0.12500000000E+03  0.12500000000E+03 0.  0.
        -13    1    3    3    0    0  0.52135462417E+01  0.38465261369E+02  0.10740003684E+02  0.40275504215E+02  0.10566000000E+00 0.  1.
         23    2    1    0    0    0 -0.23947600663E+02 -0.82757111262E+01  0.15040582128E+02  0.95534866658E+02  0.90877481613E+02 0.  0.
         13    1    3    3    0    0 -0.29161146904E+02 -0.46740972495E+02  0.43005784446E+01  0.55259362443E+02  0.10566000000E+00 0. -1.
         22    1    1    0    0    0  0.23947600663E+02  0.82757111262E+01 -0.15040582128E+02  0.29465133342E+02  0.00000000000E+00 0. -1.
</event>
<event>
 5    1  0.1764311E-003  0.9118800E+02  0.7818608E-02  0.1130116E+00
         25   -1    0    0    0    0  0.00000000000E+00  0.00000000000E+00  0.99999998245E-14  0.12500000000E+03  0.12500000000E+03 0.  0.
        -13    1    3    3    0    0 -0.35017586717E+02 -0.28622191263E+02 -0.17269340119E+02  0.48411801086E+02  0.10566000000E+00 0. -1.
         23    2    1    0    0    0 -0.26498712620E+02  0.88027814870E+01  0.98309834617E+01  0.95397314847E+02  0.90688084729E+02 0.  0.
         13    1    3    3    0    0  0.85188740969E+01  0.37424972750E+02  0.27100323581E+02  0.46985513762E+02  0.10566000000E+00 0.  1.
         22    1    1    0    0    0  0.26498712620E+02 -0.88027814870E+01 -0.98309834617E+01  0.29602685153E+02  0.00000000000E+00 0.  1.
</event>
<event>
 5    1  0.1764311E-003  0.9118800E+02  0.7818608E-02  0.1130116E+00
         25   -1    0    0    0    0  0.00000000000E+00  0.00000000000E+00  0.99999998245E-14  0.12500000000E+03  0.12500000000E+03 0.  0.
        -13    1    3    3    0    0 -0.53082247525E+02  0.23919542987E+02  0.47324263467E+01  0.58414694745E+02  0.10566000000E+00 0. -1.
         23    2    1    0    0    0 -0.27760080790E+02 -0.23942342240E+01 -0.60406434825E+01  0.96489584067E+02  0.92181321409E+02 0.  0.
         13    1    3    3    0    0  0.25322166735E+02 -0.26313777211E+02 -0.10773069829E+02  0.38074889321E+02  0.10566000000E+00 0.  1.
         22    1    1    0    0    0  0.27760080790E+02  0.23942342240E+01  0.60406434825E+01  0.28510415933E+02  0.00000000000E+00 0. -1.
</event>
<event>
 5    1  0.1764311E-003  0.9118800E+02  0.7818608E-02  0.1130116E+00
         25   -1    0    0    0    0  0.00000000000E+00  0.00000000000E+00  0.99999998245E-14  0.12500000000E+03  0.12500000000E+03 0.  0.
        -13    1    3    3    0    0  0.72534582059E+01  0.30900367660E+02 -0.25228574315E+02  0.40545499176E+02  0.10566000000E+00 0. -1.
         23    2    1    0    0    0  0.23749656481E+02 -0.19347311078E+01  0.16400874511E+02  0.96072883791E+02  0.91614523673E+02 0.  0.
         13    1    3    3    0    0  0.16496198275E+02 -0.32835098767E+02  0.41629448826E+02  0.55527384615E+02  0.10566000000E+00 0.  1.
         22    1    1    0    0    0 -0.23749656481E+02  0.19347311078E+01 -0.16400874511E+02  0.28927116209E+02  0.00000000000E+00 0.  1.
</event>
<event>
 5    1  0.1764311E-003  0.9118800E+02  0.7818608E-02  0.1130116E+00
         25   -1    0    0    0    0  0.00000000000E+00  0.00000000000E+00  0.99999998245E-14  0.12500000000E+03  0.12500000000E+03 0.  0.
        -13    1    3    3    0    0  0.88609191954E+00  0.65293263181E+01  0.53168951533E+02  0.53575795209E+02  0.10566000000E+00 0. -1.
         23    2    1    0    0    0 -0.84845264865E+01 -0.18803563123E+02  0.21383249370E+02  0.95287973320E+02  0.90537248301E+02 0.  0.
         13    1    3    3    0    0 -0.93706184060E+01 -0.25332889441E+02 -0.31785702163E+02  0.41712178111E+02  0.10566000000E+00 0.  1.
         22    1    1    0    0    0  0.84845264865E+01  0.18803563123E+02 -0.21383249370E+02  0.29712026680E+02  0.00000000000E+00 0.  1.
</event>
<event>
 5    1  0.1764311E-003  0.9118800E+02  0.7818608E-02  0.1130116E+00
         25   -1    0    0    0    0  0.00000000000E+00  0.00000000000E+00  0.99999998245E-14  0.12500000000E+03  0.12500000000E+03 0.  0.
        -13    1    3    3    0    0  0.40535994683E+02 -0.12482469413E+02  0.19155951223E+02  0.46539666296E+02  0.10566000000E+00 0. -1.
         23    2    1    0    0    0 -0.18046324242E+01  0.10331497062E+02  0.27693138273E+02  0.95387393949E+02  0.90674409219E+02 0.  0.
         13    1    3    3    0    0 -0.42340627107E+02  0.22813966475E+02  0.85371870493E+01  0.48847727654E+02  0.10566000000E+00 0.  1.
         22    1    1    0    0    0  0.18046324242E+01 -0.10331497062E+02 -0.27693138273E+02  0.29612606051E+02  0.00000000000E+00 0. -1.
</event>
<event>
 5    1  0.1764311E-003  0.9118800E+02  0.7818608E-02  0.1130116E+00
         25   -1    0    0    0    0  0.00000000000E+00  0.00000000000E+00  0.99999998245E-14  0.12500000000E+03  0.12500000000E+03 0.  0.
        -13    1    3    3    0    0  0.40638049977E+02  0.45270006497E+02 -0.75359655423E+01  0.61299482337E+02  0.10566000000E+00 0.  1.
         23    2    1    0    0    0  0.24185351834E+02  0.16420776203E+02 -0.86015421194E+01  0.94527723070E+02  0.89481454880E+02 0.  0.
         13    1    3    3    0    0 -0.16452698142E+02 -0.28849230294E+02 -0.10655765771E+01  0.33228240733E+02  0.10566000000E+00 0. -1.
         22    1    1    0    0    0 -0.24185351834E+02 -0.16420776203E+02  0.86015421194E+01  0.30472276930E+02  0.00000000000E+00 0.  1.
</event>
<event>
 5    1  0.1764311E-003  0.9118800E+02  0.7818608E-02  0.1130116E+00
         25   -1    0    0    0    0  0.00000000000E+00  0.00000000000E+00  0.99999998245E-14  0.12500000000E+03  0.12500000000E+03 0.  0.
        -13    1    3    3    0    0 -0.10995381546E+02  0.37319794827E+02  0.10597675993E+02  0.40323534093E+02  0.10566000000E+00 0.  1.
         23    2    1    0    0    0 -0.28321648986E+01 -0.17477484019E+02  0.21870675221E+02  0.96860880606E+02  0.92683440546E+02 0.  0.
         13    1    3    3    0    0  0.81632166474E+01 -0.54797278846E+02  0.11272999229E+02  0.56537346512E+02  0.10566000000E+00 0. -1.
         22    1    1    0    0    0  0.28321648986E+01  0.17477484019E+02 -0.21870675221E+02  0.28139119394E+02  0.00000000000E+00 0.  1.
</event>
<event>
 5    1  0.1764311E-003  0.9118800E+02  0.7818608E-02  0.1130116E+00
         25   -1    0    0    0    0  0.00000000000E+00  0.00000000000E+00  0.99999998245E-14  0.12500000000E+03  0.12500000000E+03 0.  0.
        -13    1    3    3    0    0  0.99343619881E+01 -0.18739324106E+02  0.31137817170E+02  0.37675305416E+02  0.10566000000E+00 0.  1.
         23    2    1    0    0    0  0.17700831419E+02 -0.47843094966E+01 -0.23839014433E+02  0.94924966177E+02  0.90034668569E+02 0.  0.
         13    1    3    3    0    0  0.77664694308E+01  0.13955014610E+02 -0.54976831603E+02  0.57249660761E+02  0.10566000000E+00 0. -1.
         22    1    1    0    0    0 -0.17700831419E+02  0.47843094966E+01  0.23839014433E+02  0.30075033823E+02  0.00000000000E+00 0. -1.
</event>
<event>
 5    1  0.1764311E-003  0.9118800E+02  0.7818608E-02  0.1130116E+00
         25   -1    0    0    0    0  0.00000000000E+00  0.00000000000E+00  0.99999998245E-14  0.12500000000E+03  0.12500000000E+03 0.  0.
        -13    1    3    3    0    0 -0.36118175333E+01 -0.41479545057E+02 -0.46074776432E+02  0.62100676899E+02  0.10566000000E+00 0.  1.
         23    2    1    0    0    0 -0.47027312872E+01 -0.16535907859E+02 -0.24324580300E+02  0.95213473901E+02  0.90434332392E+02 0.  0.
         13    1    3    3    0    0 -0.10909137539E+01  0.24943637198E+02  0.21750196132E+02  0.33112797002E+02  0.10566000000E+00 0. -1.
         22    1    1    0    0    0  0.47027312872E+01  0.16535907859E+02  0.24324580300E+02  0.29786526099E+02  0.00000000000E+00 0.  1.
</event>
<event>
 5    1  0.1764311E-003  0.9118800E+02  0.7818608E-02  0.1130116E+00
         25   -1    0    0    0    0  0.00000000000E+00  0.00000000000E+00  0.99999998245E-14  0.12500000000E+03  0.12500000000E+03 0.  0.
        -13    1    3    3    0    0  0.12465277783E+01 -0.12271875579E+02 -0.36286132156E+02  0.38325543865E+02  0.10566000000E+00 0. -1.
         23    2    1    0    0    0  0.16636461719E+02  0.20887326506E+01  0.20282910628E+02  0.98684013867E+02  0.95110480320E+02 0.  0.
         13    1    3    3    0    0  0.15389933941E+02  0.14360608229E+02  0.56569042783E+02  0.60358470001E+02  0.10566000000E+00 0.  1.
         22    1    1    0    0    0 -0.16636461719E+02 -0.20887326506E+01 -0.20282910628E+02  0.26315986133E+02  0.00000000000E+00 0.  1.
</event>
<event>
 5    1  0.1764311E-003  0.9118800E+02  0.7818608E-02  0.1130116E+00
         25   -1    0    0    0    0  0.00000000000E+00  0.00000000000E+00  0.99999998245E-14  0.12500000000E+03  0.12500000000E+03 0.  0.
        -13    1    3    3    0    0 -0.11208220391E+00 -0.33732444716E+02 -0.76340048539E+01  0.34585829224E+02  0.10566000000E+00 0.  1.
         23    2    1    0    0    0 -0.11189760946E+02  0.21886267518E+02  0.15616226216E+02  0.95878084247E+02  0.91348350077E+02 0.  0.
         13    1    3    3    0    0 -0.11077678742E+02  0.55618712235E+02  0.23250231069E+02  0.61292255023E+02  0.10566000000E+00 0. -1.
         22    1    1    0    0    0  0.11189760946E+02 -0.21886267518E+02 -0.15616226216E+02  0.29121915753E+02  0.00000000000E+00 0. -1.
</event>
<event>
 5    1  0.1764311E-003  0.9118800E+02  0.7818608E-02  0.1130116E+00
         25   -1    0    0    0    0  0.00000000000E+00  0.00000000000E+00  0.99999998245E-14  0.12500000000E+03  0.12500000000E+03 0.  0.
        -13    1    3    3    0    0  0.27926441896E+02  0.86805592182E+01 -0.62276405570E+01  0.29900383547E+02  0.10566000000E+00 0.  1.
         23    2    1    0    0    0 -0.16069749245E+02 -0.18067171016E+00 -0.37231623604E+02  0.84448017567E+02  0.74074316681E+02 0.  0.
         13    1    3    3    0    0 -0.43996191140E+02 -0.88612309283E+01 -0.31003983047E+02  0.54547634021E+02  0.10566000000E+00 0. -1.
         22    1    1    0    0    0  0.16069749245E+02  0.18067171016E+00  0.37231623604E+02  0.40551982433E+02  0.00000000000E+00 0. -1.
</event>
<event>
 5    1  0.1764311E-003  0.9118800E+02  0.7818608E-02  0.1130116E+00
         25   -1    0    0    0    0  0.00000000000E+00  0.00000000000E+00  0.99999998245E-14  0.12500000000E+03  0.12500000000E+03 0.  0.
        -13    1    3    3    0    0 -0.39475652040E+02 -0.54217329995E+01  0.17389546471E+02  0.43475622862E+02  0.10566000000E+00 0.  1.
         23    2    1    0    0    0 -0.17151316978E+02  0.23981319072E+02  0.30430593980E+02  0.82629109185E+02  0.70938545913E+02 0.  0.
         13    1    3    3    0    0  0.22324335062E+02  0.29403052072E+02  0.13041047508E+02  0.39153486323E+02  0.10566000000E+00 0. -1.
         22    1    1    0    0    0  0.17151316978E+02 -0.23981319072E+02 -0.30430593980E+02  0.42370890815E+02  0.00000000000E+00 0.  1.
</event>
<event>
 5    1  0.1764311E-003  0.9118800E+02  0.7818608E-02  0.1130116E+00
         25   -1    0    0    0    0  0.00000000000E+00  0.00000000000E+00  0.99999998245E-14  0.12500000000E+03  0.12500000000E+03 0.  0.
        -13    1    3    3    0    0  0.50513920243E+02  0.29846217090E+02  0.18887166991E+02  0.61637562037E+02  0.10566000000E+00 0.  1.
         23    2    1    0    0    0  0.23562272891E+02  0.11565945811E+02  0.15832182372E+02  0.94346944606E+02  0.89228561299E+02 0.  0.
         13    1    3    3    0    0 -0.26951647352E+02 -0.18280271278E+02 -0.30549846184E+01  0.32709382569E+02  0.10566000000E+00 0. -1.
         22    1    1    0    0    0 -0.23562272891E+02 -0.11565945811E+02 -0.15832182372E+02  0.30653055394E+02  0.00000000000E+00 0.  1.
</event>
<event>
 5    1  0.1764311E-003  0.9118800E+02  0.7818608E-02  0.1130116E+00
         25   -1    0    0    0    0  0.00000000000E+00  0.00000000000E+00  0.99999998245E-14  0.12500000000E+03  0.12500000000E+03 0.  0.
        -13    1    3    3    0    0 -0.58796667130E+02 -0.47670296542E+01 -0.10805325824E+02  0.59971150293E+02  0.10566000000E+00 0. -1.
         23    2    1    0    0    0 -0.27205053721E+02 -0.79944542725E+01  0.61720108333E+01  0.95980696686E+02  0.91488655972E+02 0.  0.
         13    1    3    3    0    0  0.31591613409E+02 -0.32274246183E+01  0.16977336657E+02  0.36009546393E+02  0.10566000000E+00 0.  1.
         22    1    1    0    0    0  0.27205053721E+02  0.79944542725E+01 -0.61720108333E+01  0.29019303314E+02  0.00000000000E+00 0. -1.
</event>
<event>
 5    1  0.1764311E-003  0.9118800E+02  0.7818608E-02  0.1130116E+00
         25   -1    0    0    0    0  0.00000000000E+00  0.00000000000E+00  0.99999998245E-14  0.12500000000E+03  0.12500000000E+03 0.  0.
        -13    1    3    3    0    0  0.40353095852E+02 -0.15348102829E+02 -0.81190190060E+01  0.43930242874E+02  0.10566000000E+00 0.  1.
         23    2    1    0    0    0  0.13715913436E+02  0.27032764886E+02 -0.64106763071E+01  0.94016239262E+02  0.88764068268E+02 0.  0.
         13    1    3    3    0    0 -0.26637182416E+02  0.42380867716E+02  0.17083426989E+01  0.50085996388E+02  0.10566000000E+00 0. -1.
         22    1    1    0    0    0 -0.13715913436E+02 -0.27032764886E+02  0.64106763071E+01  0.30983760738E+02  0.00000000000E+00 0. -1.
</event>
<event>
 5    1  0.1764311E-003  0.9118800E+02  0.7818608E-02  0.1130116E+00
         25   -1    0    0    0    0  0.00000000000E+00  0.00000000000E+00  0.99999998245E-14  0.12500000000E+03  0.12500000000E+03 0.  0.
        -13    1    3    3    0    0  0.27639130677E+02  0.20895303856E+02 -0.97355538900E+01  0.35990657696E+02  0.10566000000E+00 0.  1.
         23    2    1    0    0    0 -0.24537360399E+01 -0.15920250820E+02  0.25267519168E+02  0.95034641140E+02  0.90186807710E+02 0.  0.
         13    1    3    3    0    0 -0.30092866717E+02 -0.36815554676E+02  0.35003073058E+02  0.59043983444E+02  0.10566000000E+00 0. -1.
         22    1    1    0    0    0  0.24537360399E+01  0.15920250820E+02 -0.25267519168E+02  0.29965358860E+02  0.00000000000E+00 0. -1.
</event>
<event>
 5    1  0.1764311E-003  0.9118800E+02  0.7818608E-02  0.1130116E+00
         25   -1    0    0    0    0  0.00000000000E+00  0.00000000000E+00  0.99999998245E-14  0.12500000000E+03  0.12500000000E+03 0.  0.
        -13    1    3    3    0    0  0.27864707191E+02 -0.28680050088E+02 -0.33257733740E+02  0.52010337409E+02  0.10566000000E+00 0.  1.
         23    2    1    0    0    0 -0.14983073324E+00  0.59502667432E+01 -0.27428375414E+02  0.96933224243E+02  0.92780957425E+02 0.  0.
         13    1    3    3    0    0 -0.28014537925E+02  0.34630316831E+02  0.58293583256E+01  0.44922886834E+02  0.10566000000E+00 0. -1.
         22    1    1    0    0    0  0.14983073324E+00 -0.59502667432E+01  0.27428375414E+02  0.28066775757E+02  0.00000000000E+00 0.  1.
</event>
<event>
 5    1  0.1764311E-003  0.9118800E+02  0.7818608E-02  0.1130116E+00
         25   -1    0    0    0    0  0.00000000000E+00  0.00000000000E+00  0.99999998245E-14  0.12500000000E+03  0.12500000000E+03 0.  0.
        -13    1    3    3    0    0 -0.26601786962E+02  0.22618936084E+01 -0.54308154016E+02  0.60515766449E+02  0.10566000000E+00 0. -1.
         23    2    1    0    0    0 -0.21701752167E+01  0.10243649324E+01 -0.29660409934E+02  0.95242666426E+02  0.90474673841E+02 0.  0.
         13    1    3    3    0    0  0.24431611745E+02 -0.12375286760E+01  0.24647744082E+02  0.34726899978E+02  0.10566000000E+00 0.  1.
         22    1    1    0    0    0  0.21701752167E+01 -0.10243649324E+01  0.29660409934E+02  0.29757333574E+02  0.00000000000E+00 0. -1.
</event>
<event>
 5    1  0.1764311E-003  0.9118800E+02  0.7818608E-02  0.1130116E+00
         25   -1    0    0    0    0  0.00000000000E+00  0.00000000000E+00  0.99999998245E-14  0.12500000000E+03  0.12500000000E+03 0.  0.
        -13    1    3    3    0    0 -0.67723327069E+00  0.35132228553E+02  0.64819148826E+01  0.35731757759E+02  0.10566000000E+00 0.  1.
         23    2    1    0    0    0 -0.32665218950E+02 -0.94131750881E+01  0.53697560553E+01  0.90584034600E+02  0.83791459291E+02 0.  0.
         13    1    3    3    0    0 -0.31987985680E+02 -0.44545403641E+02 -0.11121588273E+01  0.54852276841E+02  0.10566000000E+00 0. -1.
         22    1    1    0    0    0  0.32665218950E+02  0.94131750881E+01 -0.53697560553E+01  0.34415965400E+02  0.00000000000E+00 0. -1.
</event>
<event>
 5    1  0.1764311E-003  0.9118800E+02  0.7818608E-02  0.1130116E+00
         25   -1    0    0    0    0  0.00000000000E+00  0.00000000000E+00  0.99999998245E-14  0.12500000000E+03  0.12500000000E+03 0.  0.
        -13    1    3    3    0    0 -0.27785811172E+02 -0.25079478473E+02  0.37274411395E+01  0.37615642018E+02  0.10566000000E+00 0. -1.
         23    2    1    0    0    0 -0.85869682376E+01  0.28633719253E+02 -0.25319532848E+01  0.94999388519E+02  0.90137933912E+02 0.  0.
         13    1    3    3    0    0  0.19198842934E+02  0.53713197726E+02 -0.62593944243E+01  0.57383746501E+02  0.10566000000E+00 0.  1.
         22    1    1    0    0    0  0.85869682376E+01 -0.28633719253E+02  0.25319532848E+01  0.30000611481E+02  0.00000000000E+00 0.  1.
</event>
<event>
 5    1  0.1764311E-003  0.9118800E+02  0.7818608E-02  0.1130116E+00
         25   -1    0    0    0    0  0.00000000000E+00  0.00000000000E+00  0.99999998245E-14  0.12500000000E+03  0.12500000000E+03 0.  0.
        -13    1    3    3    0    0 -0.26674392137E+02  0.49825320700E+01 -0.47428463062E+02  0.54642649040E+02  0.10566000000E+00 0.  1.
         23    2    1    0    0    0 -0.27403872470E+02 -0.50118745589E+01 -0.70262694034E+01  0.96269187713E+02  0.91881972814E+02 0.  0.
         13    1    3    3    0    0 -0.72948033349E+00 -0.99944066289E+01  0.40402193658E+02  0.41626538673E+02  0.10566000000E+00 0. -1.
         22    1    1    0    0    0  0.27403872470E+02  0.50118745589E+01  0.70262694034E+01  0.28730812287E+02  0.00000000000E+00 0.  1.
</event>
<event>
 5    1  0.1764311E-003  0.9118800E+02  0.7818608E-02  0.1130116E+00
         25   -1    0    0    0    0  0.00000000000E+00  0.00000000000E+00  0.99999998245E-14  0.12500000000E+03  0.12500000000E+03 0.  0.
        -13    1    3    3    0    0 -0.18610333508E+01  0.43244701364E+02 -0.18316753629E+02  0.47000875191E+02  0.10566000000E+00 0.  1.
         23    2    1    0    0    0 -0.18011116185E+02 -0.22925349722E+01 -0.23173512103E+02  0.95560779800E+02  0.90913117590E+02 0.  0.
         13    1    3    3    0    0 -0.16150082834E+02 -0.45537236336E+02 -0.48567584732E+01  0.48559904609E+02  0.10566000000E+00 0. -1.
         22    1    1    0    0    0  0.18011116185E+02  0.22925349722E+01  0.23173512103E+02  0.29439220200E+02  0.00000000000E+00 0.  1.
</event>
<event>
 5    1  0.1764311E-003  0.9118800E+02  0.7818608E-02  0.1130116E+00
         25   -1    0    0    0    0  0.00000000000E+00  0.00000000000E+00  0.99999998245E-14  0.12500000000E+03  0.12500000000E+03 0.  0.
        -13    1    3    3    0    0  0.29673655956E+02 -0.19587151667E+02 -0.75541646792E+01  0.36349125660E+02  0.10566000000E+00 0.  1.
         23    2    1    0    0    0 -0.15919395392E+02  0.18782859643E+02 -0.14632926011E+02  0.96358325997E+02  0.92003160268E+02 0.  0.
         13    1    3    3    0    0 -0.45593051348E+02  0.38370011310E+02 -0.70787613321E+01  0.60009200338E+02  0.10566000000E+00 0. -1.
         22    1    1    0    0    0  0.15919395392E+02 -0.18782859643E+02  0.14632926011E+02  0.28641674003E+02  0.00000000000E+00 0. -1.
</event>
<event>
 5    1  0.1764311E-003  0.9118800E+02  0.7818608E-02  0.1130116E+00
         25   -1    0    0    0    0  0.00000000000E+00  0.00000000000E+00  0.99999998245E-14  0.12500000000E+03  0.12500000000E+03 0.  0.
        -13    1    3    3    0    0 -0.72559393341E+00 -0.32152571270E+02  0.22216548991E+02  0.39088368333E+02  0.10566000000E+00 0.  1.
         23    2    1    0    0    0 -0.21582077878E+02  0.10476006882E+02 -0.12557096820E+02  0.97922084898E+02  0.94103779012E+02 0.  0.
         13    1    3    3    0    0 -0.20856483945E+02  0.42628578152E+02 -0.34773645812E+02  0.58833716565E+02  0.10566000000E+00 0. -1.
         22    1    1    0    0    0  0.21582077878E+02 -0.10476006882E+02  0.12557096820E+02  0.27077915102E+02  0.00000000000E+00 0. -1.
</event>
<event>
 5    1  0.1764311E-003  0.9118800E+02  0.7818608E-02  0.1130116E+00
         25   -1    0    0    0    0  0.00000000000E+00  0.00000000000E+00  0.99999998245E-14  0.12500000000E+03  0.12500000000E+03 0.  0.
        -13    1    3    3    0    0  0.13898275313E+02  0.11653009721E+02  0.43684377929E+02  0.47300007730E+02  0.10566000000E+00 0.  1.
         23    2    1    0    0    0  0.28969948703E+02  0.18761830689E+01 -0.15058388278E+01  0.95930332968E+02  0.91419818650E+02 0.  0.
         13    1    3    3    0    0  0.15071673391E+02 -0.97768266522E+01 -0.45190216757E+02  0.48630325238E+02  0.10566000000E+00 0. -1.
         22    1    1    0    0    0 -0.28969948703E+02 -0.18761830689E+01  0.15058388278E+01  0.29069667032E+02  0.00000000000E+00 0.  1.
</event>
<event>
 5    1  0.1764311E-003  0.9118800E+02  0.7818608E-02  0.1130116E+00
         25   -1    0    0    0    0  0.00000000000E+00  0.00000000000E+00  0.99999998245E-14  0.12500000000E+03  0.12500000000E+03 0.  0.
        -13    1    3    3    0    0  0.10865029554E+02  0.11447210627E+02 -0.34170965376E+02  0.37639786624E+02  0.10566000000E+00 0. -1.
         23    2    1    0    0    0 -0.41902000846E+01 -0.73305109448E+01  0.23445075709E+02  0.10008081577E+03  0.96928860220E+02 0.  0.
         13    1    3    3    0    0 -0.15055229639E+02 -0.18777721572E+02  0.57616041085E+02  0.62441029150E+02  0.10566000000E+00 0.  1.
         22    1    1    0    0    0  0.41902000846E+01  0.73305109448E+01 -0.23445075709E+02  0.24919184226E+02  0.00000000000E+00 0.  1.
</event>
<event>
 5    1  0.1764311E-003  0.9118800E+02  0.7818608E-02  0.1130116E+00
         25   -1    0    0    0    0  0.00000000000E+00  0.00000000000E+00  0.99999998245E-14  0.12500000000E+03  0.12500000000E+03 0.  0.
        -13    1    3    3    0    0  0.24042904970E+02  0.76869254211E+00  0.18998215069E+01  0.24130326425E+02  0.10566000000E+00 0. -1.
         23    2    1    0    0    0 -0.16894577648E+02  0.37153938140E+02 -0.15105404909E+02  0.81479715871E+02  0.68883444802E+02 0.  0.
         13    1    3    3    0    0 -0.40937482618E+02  0.36385245597E+02 -0.17005226416E+02  0.57349389446E+02  0.10566000000E+00 0.  1.
         22    1    1    0    0    0  0.16894577648E+02 -0.37153938140E+02  0.15105404909E+02  0.43520284129E+02  0.00000000000E+00 0.  1.
</event>
<event>
 5    1  0.1764311E-003  0.9118800E+02  0.7818608E-02  0.1130116E+00
         25   -1    0    0    0    0  0.00000000000E+00  0.00000000000E+00  0.99999998245E-14  0.12500000000E+03  0.12500000000E+03 0.  0.
        -13    1    3    3    0    0  0.62044525634E+01  0.27080650869E+02  0.40176800668E+02  0.48847142793E+02  0.10566000000E+00 0.  1.
         23    2    1    0    0    0 -0.15565689112E+02 -0.12169653734E+02  0.13675928693E+02  0.10097038962E+03  0.98069349973E+02 0.  0.
         13    1    3    3    0    0 -0.21770141676E+02 -0.39250304603E+02 -0.26500871975E+02  0.52123246824E+02  0.10566000000E+00 0. -1.
         22    1    1    0    0    0  0.15565689112E+02  0.12169653734E+02 -0.13675928693E+02  0.24029610383E+02  0.00000000000E+00 0. -1.
</event>
<event>
 5    1  0.1764311E-003  0.9118800E+02  0.7818608E-02  0.1130116E+00
         25   -1    0    0    0    0  0.00000000000E+00  0.00000000000E+00  0.99999998245E-14  0.12500000000E+03  0.12500000000E+03 0.  0.
        -13    1    3    3    0    0  0.26265963576E+02  0.10306596736E+02 -0.20401524339E+02  0.34818962337E+02  0.10566000000E+00 0.  1.
         23    2    1    0    0    0 -0.26345764926E+02  0.13786087637E+02  0.73035897514E+01  0.94381411444E+02  0.89276832723E+02 0.  0.
         13    1    3    3    0    0 -0.52611728502E+02  0.34794909004E+01  0.27705114090E+02  0.59562449107E+02  0.10566000000E+00 0. -1.
         22    1    1    0    0    0  0.26345764926E+02 -0.13786087637E+02 -0.73035897514E+01  0.30618588556E+02  0.00000000000E+00 0. -1.
</event>
<event>
 5    1  0.1764311E-003  0.9118800E+02  0.7818608E-02  0.1130116E+00
         25   -1    0    0    0    0  0.00000000000E+00  0.00000000000E+00  0.99999998245E-14  0.12500000000E+03  0.12500000000E+03 0.  0.
        -13    1    3    3    0    0  0.17545429294E+02  0.11466513852E+02 -0.31477531217E+02  0.37817577456E+02  0.10566000000E+00 0.  1.
         23    2    1    0    0    0 -0.21596844905E+02 -0.21051311940E+02 -0.84043898583E+01  0.93691611138E+02  0.88305734720E+02 0.  0.
         13    1    3    3    0    0 -0.39142274199E+02 -0.32517825793E+02  0.23073141359E+02  0.55874033682E+02  0.10566000000E+00 0. -1.
         22    1    1    0    0    0  0.21596844905E+02  0.21051311940E+02  0.84043898583E+01  0.31308388862E+02  0.00000000000E+00 0.  1.
</event>
<event>
 5    1  0.1764311E-003  0.9118800E+02  0.7818608E-02  0.1130116E+00
         25   -1    0    0    0    0  0.00000000000E+00  0.00000000000E+00  0.99999998245E-14  0.12500000000E+03  0.12500000000E+03 0.  0.
        -13    1    3    3    0    0 -0.12099193498E+02  0.98142383305E+01  0.30649229778E+02  0.34381626014E+02  0.10566000000E+00 0.  1.
         23    2    1    0    0    0 -0.60525646102E+01  0.16791183307E+02 -0.26927596816E+02  0.92694074143E+02  0.86882210697E+02 0.  0.
         13    1    3    3    0    0  0.60466288876E+01  0.69769449765E+01 -0.57576826594E+02  0.58312448129E+02  0.10566000000E+00 0. -1.
         22    1    1    0    0    0  0.60525646102E+01 -0.16791183307E+02  0.26927596816E+02  0.32305925857E+02  0.00000000000E+00 0.  1.
</event>
<event>
 5    1  0.1764311E-003  0.9118800E+02  0.7818608E-02  0.1130116E+00
         25   -1    0    0    0    0  0.00000000000E+00  0.00000000000E+00  0.99999998245E-14  0.12500000000E+03  0.12500000000E+03 0.  0.
        -13    1    3    3    0    0  0.40455718223E+01  0.41660482431E+02 -0.39189376821E+01  0.42039644199E+02  0.10566000000E+00 0. -1.
         23    2    1    0    0    0  0.24166879320E+02 -0.64062070792E+01 -0.15719208906E+02  0.95467457376E+02  0.90784714264E+02 0.  0.
         13    1    3    3    0    0  0.20121307498E+02 -0.48066689510E+02 -0.11800271224E+02  0.53427813177E+02  0.10566000000E+00 0.  1.
         22    1    1    0    0    0 -0.24166879320E+02  0.64062070792E+01  0.15719208906E+02  0.29532542624E+02  0.00000000000E+00 0.  1.
</event>
<event>
 5    1  0.1764311E-003  0.9118800E+02  0.7818608E-02  0.1130116E+00
         25   -1    0    0    0    0  0.00000000000E+00  0.00000000000E+00  0.99999998245E-14  0.12500000000E+03  0.12500000000E+03 0.  0.
        -13    1    3    3    0    0  0.22693891985E+02  0.58154039711E+01  0.26097485604E+02  0.35070237747E+02  0.10566000000E+00 0. -1.
         23    2    1    0    0    0 -0.28858159050E+02 -0.14925202604E+00 -0.52048634345E+01  0.95675842326E+02  0.91071184145E+02 0.  0.
         13    1    3    3    0    0 -0.51552051034E+02 -0.59646559972E+01 -0.31302349038E+02  0.60605604579E+02  0.10566000000E+00 0.  1.
         22    1    1    0    0    0  0.28858159050E+02  0.14925202604E+00  0.52048634345E+01  0.29324157674E+02  0.00000000000E+00 0.  1.
</event>
<event>
 5    1  0.1764311E-003  0.9118800E+02  0.7818608E-02  0.1130116E+00
         25   -1    0    0    0    0  0.00000000000E+00  0.00000000000E+00  0.99999998245E-14  0.12500000000E+03  0.12500000000E+03 0.  0.
        -13    1    3    3    0    0 -0.31173260121E+02  0.77728640960E+01  0.40141495250E+02  0.51415370930E+02  0.10566000000E+00 0. -1.
         23    2    1    0    0    0 -0.22843613937E+02 -0.15011234042E+02  0.77710008858E+00  0.97654584851E+02  0.93747779774E+02 0.  0.
         13    1    3    3    0    0  0.83296461848E+01 -0.22784098138E+02 -0.39364395162E+02  0.46239213921E+02  0.10566000000E+00 0.  1.
         22    1    1    0    0    0  0.22843613937E+02  0.15011234042E+02 -0.77710008858E+00  0.27345415149E+02  0.00000000000E+00 0. -1.
</event>
<event>
 5    1  0.1764311E-003  0.9118800E+02  0.7818608E-02  0.1130116E+00
         25   -1    0    0    0    0  0.00000000000E+00  0.00000000000E+00  0.99999998245E-14  0.12500000000E+03  0.12500000000E+03 0.  0.
        -13    1    3    3    0    0  0.25801771305E+02 -0.31039389078E+02  0.86735257156E+01  0.41284576893E+02  0.10566000000E+00 0.  1.
         23    2    1    0    0    0  0.16617452799E+02  0.22991276454E+02  0.48182644350E+01  0.96225806655E+02  0.91822936480E+02 0.  0.
         13    1    3    3    0    0 -0.91843185061E+01  0.54030665532E+02 -0.38552612806E+01  0.54941229763E+02  0.10566000000E+00 0. -1.
         22    1    1    0    0    0 -0.16617452799E+02 -0.22991276454E+02 -0.48182644350E+01  0.28774193345E+02  0.00000000000E+00 0. -1.
</event>
<event>
 5    1  0.1764311E-003  0.9118800E+02  0.7818608E-02  0.1130116E+00
         25   -1    0    0    0    0  0.00000000000E+00  0.00000000000E+00  0.99999998245E-14  0.12500000000E+03  0.12500000000E+03 0.  0.
        -13    1    3    3    0    0  0.51252902047E+02  0.17420515449E+02  0.24783440527E+02  0.59536244550E+02  0.10566000000E+00 0. -1.
         23    2    1    0    0    0  0.27304162485E+02  0.67770051625E+01 -0.17273539533E+01  0.96814385945E+02  0.92620713052E+02 0.  0.
         13    1    3    3    0    0 -0.23948739562E+02 -0.10643510287E+02 -0.26510794480E+02  0.37278141395E+02  0.10566000000E+00 0.  1.
         22    1    1    0    0    0 -0.27304162485E+02 -0.67770051625E+01  0.17273539533E+01  0.28185614055E+02  0.00000000000E+00 0. -1.
</event>
<event>
 5    1  0.1764311E-003  0.9118800E+02  0.7818608E-02  0.1130116E+00
         25   -1    0    0    0    0  0.00000000000E+00  0.00000000000E+00  0.99999998245E-14  0.12500000000E+03  0.12500000000E+03 0.  0.
        -13    1    3    3    0    0 -0.18401388054E+02  0.16051668755E+02 -0.29053329833E+02  0.37952263313E+02  0.10566000000E+00 0.  1.
         23    2    1    0    0    0  0.27183842568E+02  0.20912468319E+02 -0.32745561775E+01  0.90546910935E+02  0.83736059937E+02 0.  0.
         13    1    3    3    0    0  0.45585230622E+02  0.48607995640E+01  0.25778773655E+02  0.52594647622E+02  0.10566000000E+00 0. -1.
         22    1    1    0    0    0 -0.27183842568E+02 -0.20912468319E+02  0.32745561775E+01  0.34453089065E+02  0.00000000000E+00 0. -1.
</event>
<event>
 5    1  0.1764311E-003  0.9118800E+02  0.7818608E-02  0.1130116E+00
         25   -1    0    0    0    0  0.00000000000E+00  0.00000000000E+00  0.99999998245E-14  0.12500000000E+03  0.12500000000E+03 0.  0.
        -13    1    3    3    0    0  0.20500739468E+02 -0.20282837923E+02 -0.30311234608E+02  0.41838450502E+02  0.10566000000E+00 0. -1.
         23    2    1    0    0    0 -0.15843525160E+02  0.17417442779E+02 -0.17258117838E+02  0.95807068771E+02  0.91251121597E+02 0.  0.
         13    1    3    3    0    0 -0.36344264628E+02  0.37700280702E+02  0.13053116770E+02  0.53968618268E+02  0.10566000000E+00 0.  1.
         22    1    1    0    0    0  0.15843525160E+02 -0.17417442779E+02  0.17258117838E+02  0.29192931229E+02  0.00000000000E+00 0.  1.
</event>
<event>
 5    1  0.1764311E-003  0.9118800E+02  0.7818608E-02  0.1130116E+00
         25   -1    0    0    0    0  0.00000000000E+00  0.00000000000E+00  0.99999998245E-14  0.12500000000E+03  0.12500000000E+03 0.  0.
        -13    1    3    3    0    0  0.30878448368E+02 -0.10851649300E+02  0.96664259885E+01  0.34127522933E+02  0.10566000000E+00 0. -1.
         23    2    1    0    0    0 -0.26876636913E+02 -0.39024319983E+01 -0.10769064516E+02  0.95784330612E+02  0.91219968499E+02 0.  0.
         13    1    3    3    0    0 -0.57755085281E+02  0.69492173018E+01 -0.20435490505E+02  0.61656807678E+02  0.10566000000E+00 0.  1.
         22    1    1    0    0    0  0.26876636913E+02  0.39024319983E+01  0.10769064516E+02  0.29215669388E+02  0.00000000000E+00 0.  1.
</event>
<event>
 5    1  0.1764311E-003  0.9118800E+02  0.7818608E-02  0.1130116E+00
         25   -1    0    0    0    0  0.00000000000E+00  0.00000000000E+00  0.99999998245E-14  0.12500000000E+03  0.12500000000E+03 0.  0.
        -13    1    3    3    0    0  0.20684848254E+02  0.36687635495E+02 -0.38318408003E+02  0.56939942934E+02  0.10566000000E+00 0.  1.
         23    2    1    0    0    0 -0.51139572083E+01  0.26687452152E+02 -0.11433761814E+02  0.95519437422E+02  0.90856256557E+02 0.  0.
         13    1    3    3    0    0 -0.25798805463E+02 -0.10000183343E+02  0.26884646189E+02  0.38579494488E+02  0.10566000000E+00 0. -1.
         22    1    1    0    0    0  0.51139572083E+01 -0.26687452152E+02  0.11433761814E+02  0.29480562578E+02  0.00000000000E+00 0.  1.
</event>
<event>
 5    1  0.1764311E-003  0.9118800E+02  0.7818608E-02  0.1130116E+00
         25   -1    0    0    0    0  0.00000000000E+00  0.00000000000E+00  0.99999998245E-14  0.12500000000E+03  0.12500000000E+03 0.  0.
        -13    1    3    3    0    0  0.33335713106E+02  0.13183284431E+02  0.36010807630E+02  0.50811988614E+02  0.10566000000E+00 0.  1.
         23    2    1    0    0    0  0.10756015913E+01  0.28047608028E+02  0.87107198189E+01  0.95611194739E+02  0.90982408656E+02 0.  0.
         13    1    3    3    0    0 -0.32260111515E+02  0.14864323598E+02 -0.27300087811E+02  0.44799206126E+02  0.10566000000E+00 0. -1.
         22    1    1    0    0    0 -0.10756015913E+01 -0.28047608028E+02 -0.87107198189E+01  0.29388805261E+02  0.00000000000E+00 0.  1.
</event>
<event>
 5    1  0.1764311E-003  0.9118800E+02  0.7818608E-02  0.1130116E+00
         25   -1    0    0    0    0  0.00000000000E+00  0.00000000000E+00  0.99999998245E-14  0.12500000000E+03  0.12500000000E+03 0.  0.
        -13    1    3    3    0    0 -0.47392240899E+02  0.32465402801E+01 -0.36520580669E+02  0.59919349944E+02  0.10566000000E+00 0.  1.
         23    2    1    0    0    0 -0.16673638661E+02 -0.89218524328E+01 -0.21941206100E+02  0.96034050989E+02  0.91561524382E+02 0.  0.
         13    1    3    3    0    0  0.30718602238E+02 -0.12168392713E+02  0.14579374570E+02  0.36114701045E+02  0.10566000000E+00 0. -1.
         22    1    1    0    0    0  0.16673638661E+02  0.89218524328E+01  0.21941206100E+02  0.28965949011E+02  0.00000000000E+00 0.  1.
</event>
<event>
 5    1  0.1764311E-003  0.9118800E+02  0.7818608E-02  0.1130116E+00
         25   -1    0    0    0    0  0.00000000000E+00  0.00000000000E+00  0.99999998245E-14  0.12500000000E+03  0.12500000000E+03 0.  0.
        -13    1    3    3    0    0 -0.13399324502E+02 -0.41371543281E+02 -0.51250763373E+01  0.43788400999E+02  0.10566000000E+00 0.  1.
         23    2    1    0    0    0 -0.29371765091E+02  0.65007263319E+01 -0.62828814784E+01  0.94268344869E+02  0.89118383161E+02 0.  0.
         13    1    3    3    0    0 -0.15972440589E+02  0.47872269613E+02 -0.11578051410E+01  0.50479943870E+02  0.10566000000E+00 0. -1.
         22    1    1    0    0    0  0.29371765091E+02 -0.65007263319E+01  0.62828814784E+01  0.30731655131E+02  0.00000000000E+00 0.  1.
</event>
<event>
 5    1  0.1764311E-003  0.9118800E+02  0.7818608E-02  0.1130116E+00
         25   -1    0    0    0    0  0.00000000000E+00  0.00000000000E+00  0.99999998245E-14  0.12500000000E+03  0.12500000000E+03 0.  0.
        -13    1    3    3    0    0  0.25062858850E+02 -0.13209161102E+02  0.22205520196E+02  0.35996182047E+02  0.10566000000E+00 0. -1.
         23    2    1    0    0    0 -0.11921716295E+02  0.22878803170E+02 -0.10495518698E+02  0.97148198144E+02  0.93070132351E+02 0.  0.
         13    1    3    3    0    0 -0.36984575145E+02  0.36087964271E+02 -0.32701038895E+02  0.61152016097E+02  0.10566000000E+00 0.  1.
         22    1    1    0    0    0  0.11921716295E+02 -0.22878803170E+02  0.10495518698E+02  0.27851801856E+02  0.00000000000E+00 0.  1.
</event>
<event>
 5    1  0.1764311E-003  0.9118800E+02  0.7818608E-02  0.1130116E+00
         25   -1    0    0    0    0  0.00000000000E+00  0.00000000000E+00  0.99999998245E-14  0.12500000000E+03  0.12500000000E+03 0.  0.
        -13    1    3    3    0    0  0.19863116750E+02 -0.37964091501E+02  0.12669028155E+02  0.44680321048E+02  0.10566000000E+00 0.  1.
         23    2    1    0    0    0  0.10325482409E+02  0.14650318880E+02  0.19415647447E+02  0.98576245610E+02  0.94968739081E+02 0.  0.
         13    1    3    3    0    0 -0.95376343419E+01  0.52614410381E+02  0.67466192923E+01  0.53895924563E+02  0.10566000000E+00 0. -1.
         22    1    1    0    0    0 -0.10325482409E+02 -0.14650318880E+02 -0.19415647447E+02  0.26423754390E+02  0.00000000000E+00 0.  1.
</event>
<event>
 5    1  0.1764311E-003  0.9118800E+02  0.7818608E-02  0.1130116E+00
         25   -1    0    0    0    0  0.00000000000E+00  0.00000000000E+00  0.99999998245E-14  0.12500000000E+03  0.12500000000E+03 0.  0.
        -13    1    3    3    0    0 -0.46220981139E+02  0.19393157613E+02 -0.80457592480E+01  0.50766318219E+02  0.10566000000E+00 0.  1.
         23    2    1    0    0    0 -0.95230645550E+01 -0.25298012949E-02 -0.26979604889E+02  0.96389025796E+02  0.92044861068E+02 0.  0.
         13    1    3    3    0    0  0.36697916584E+02 -0.19395687415E+02 -0.18933845641E+02  0.45622707577E+02  0.10566000000E+00 0. -1.
         22    1    1    0    0    0  0.95230645550E+01  0.25298012949E-02  0.26979604889E+02  0.28610974204E+02  0.00000000000E+00 0.  1.
</event>
<event>
 5    1  0.1764311E-003  0.9118800E+02  0.7818608E-02  0.1130116E+00
         25   -1    0    0    0    0  0.00000000000E+00  0.00000000000E+00  0.99999998245E-14  0.12500000000E+03  0.12500000000E+03 0.  0.
        -13    1    3    3    0    0 -0.41229163787E+02 -0.17887655418E+02  0.11523512655E+02  0.46396278632E+02  0.10566000000E+00 0.  1.
         23    2    1    0    0    0 -0.14057117478E+02  0.22253466261E+02  0.14478309324E+02  0.94959348321E+02  0.90082390511E+02 0.  0.
         13    1    3    3    0    0  0.27172046309E+02  0.40141121679E+02  0.29547966694E+01  0.48563069689E+02  0.10566000000E+00 0. -1.
         22    1    1    0    0    0  0.14057117478E+02 -0.22253466261E+02 -0.14478309324E+02  0.30040651679E+02  0.00000000000E+00 0. -1.
</event>
<event>
 5    1  0.1764311E-003  0.9118800E+02  0.7818608E-02  0.1130116E+00
         25   -1    0    0    0    0  0.00000000000E+00  0.00000000000E+00  0.99999998245E-14  0.12500000000E+03  0.12500000000E+03 0.  0.
        -13    1    3    3    0    0  0.36330322297E+02  0.26517137868E+02 -0.14957372180E+02  0.47400264403E+02  0.10566000000E+00 0. -1.
         23    2    1    0    0    0  0.25951942472E+02 -0.93750277707E+01  0.13418644964E+02  0.94316869513E+02  0.89186419248E+02 0.  0.
         13    1    3    3    0    0 -0.10378379825E+02 -0.35892165639E+02  0.28376017144E+02  0.46916605110E+02  0.10566000000E+00 0.  1.
         22    1    1    0    0    0 -0.25951942472E+02  0.93750277707E+01 -0.13418644964E+02  0.30683130487E+02  0.00000000000E+00 0. -1.
</event>
<event>
 5    1  0.1764311E-003  0.9118800E+02  0.7818608E-02  0.1130116E+00
         25   -1    0    0    0    0  0.00000000000E+00  0.00000000000E+00  0.99999998245E-14  0.12500000000E+03  0.12500000000E+03 0.  0.
        -13    1    3    3    0    0 -0.10768601205E+02 -0.39291776775E+02  0.38440626449E+01  0.40921809292E+02  0.10566000000E+00 0. -1.
         23    2    1    0    0    0  0.28941739364E+02 -0.12214472901E+01  0.67340245610E+00  0.96024671153E+02  0.91548718114E+02 0.  0.
         13    1    3    3    0    0  0.39710340569E+02  0.38070329485E+02 -0.31706601888E+01  0.55102861861E+02  0.10566000000E+00 0.  1.
         22    1    1    0    0    0 -0.28941739364E+02  0.12214472901E+01 -0.67340245610E+00  0.28975328847E+02  0.00000000000E+00 0.  1.
</event>
<event>
 5    1  0.1764311E-003  0.9118800E+02  0.7818608E-02  0.1130116E+00
         25   -1    0    0    0    0  0.00000000000E+00  0.00000000000E+00  0.99999998245E-14  0.12500000000E+03  0.12500000000E+03 0.  0.
        -13    1    3    3    0    0  0.17278321570E+02  0.20663207341E+02  0.52363255805E+02  0.58884889882E+02  0.10566000000E+00 0.  1.
         23    2    1    0    0    0  0.50790563859E+00 -0.21567236542E+01  0.29863068011E+02  0.95054845867E+02  0.90214807358E+02 0.  0.
         13    1    3    3    0    0 -0.16770415931E+02 -0.22819930995E+02 -0.22500187794E+02  0.36169955985E+02  0.10566000000E+00 0. -1.
         22    1    1    0    0    0 -0.50790563859E+00  0.21567236542E+01 -0.29863068011E+02  0.29945154133E+02  0.00000000000E+00 0.  1.
</event>
<event>
 5    1  0.1764311E-003  0.9118800E+02  0.7818608E-02  0.1130116E+00
         25   -1    0    0    0    0  0.00000000000E+00  0.00000000000E+00  0.99999998245E-14  0.12500000000E+03  0.12500000000E+03 0.  0.
        -13    1    3    3    0    0  0.38574399604E+01 -0.44404928957E+02 -0.45040201340E+01  0.44799273656E+02  0.10566000000E+00 0.  1.
         23    2    1    0    0    0  0.30796545437E+02 -0.35225730010E+01  0.36130663020E+00  0.94000543975E+02  0.88741962981E+02 0.  0.
         13    1    3    3    0    0  0.26939105476E+02  0.40882355956E+02  0.48653267642E+01  0.49201270318E+02  0.10566000000E+00 0. -1.
         22    1    1    0    0    0 -0.30796545437E+02  0.35225730010E+01 -0.36130663020E+00  0.30999456025E+02  0.00000000000E+00 0. -1.
</event>
<event>
 5    1  0.1764311E-003  0.9118800E+02  0.7818608E-02  0.1130116E+00
         25   -1    0    0    0    0  0.00000000000E+00  0.00000000000E+00  0.99999998245E-14  0.12500000000E+03  0.12500000000E+03 0.  0.
        -13    1    3    3    0    0 -0.16674111298E+02 -0.45330110093E+02 -0.28821464185E+02  0.56245291629E+02  0.10566000000E+00 0.  1.
         23    2    1    0    0    0 -0.22225728758E+02 -0.18290421309E+02  0.86413427640E-01  0.96215802986E+02  0.91809317318E+02 0.  0.
         13    1    3    3    0    0 -0.55516174596E+01  0.27039688784E+02  0.28907877613E+02  0.39970511356E+02  0.10566000000E+00 0. -1.
         22    1    1    0    0    0  0.22225728758E+02  0.18290421309E+02 -0.86413427640E-01  0.28784197014E+02  0.00000000000E+00 0.  1.
</event>
<event>
 5    1  0.1764311E-003  0.9118800E+02  0.7818608E-02  0.1130116E+00
         25   -1    0    0    0    0  0.00000000000E+00  0.00000000000E+00  0.99999998245E-14  0.12500000000E+03  0.12500000000E+03 0.  0.
        -13    1    3    3    0    0  0.41164793398E+02 -0.22177526012E+02 -0.89527269374E+01  0.47608248857E+02  0.10566000000E+00 0.  1.
         23    2    1    0    0    0 -0.38047945870E+01 -0.29830697282E+02 -0.10209466822E+02  0.93241848684E+02  0.87666767769E+02 0.  0.
         13    1    3    3    0    0 -0.44969587985E+02 -0.76531712700E+01 -0.12567398841E+01  0.45633599828E+02  0.10566000000E+00 0. -1.
         22    1    1    0    0    0  0.38047945870E+01  0.29830697282E+02  0.10209466822E+02  0.31758151316E+02  0.00000000000E+00 0.  1.
</event>
<event>
 5    1  0.1764311E-003  0.9118800E+02  0.7818608E-02  0.1130116E+00
         25   -1    0    0    0    0  0.00000000000E+00  0.00000000000E+00  0.99999998245E-14  0.12500000000E+03  0.12500000000E+03 0.  0.
        -13    1    3    3    0    0 -0.45424999455E+02  0.95133998089E+01 -0.12130573336E+02  0.47969754271E+02  0.10566000000E+00 0.  1.
         23    2    1    0    0    0 -0.10181921053E+02  0.18099090173E+02  0.19808633720E+02  0.96301035711E+02  0.91925289925E+02 0.  0.
         13    1    3    3    0    0  0.35243078401E+02  0.85856903640E+01  0.31939207055E+02  0.48331281440E+02  0.10566000000E+00 0. -1.
         22    1    1    0    0    0  0.10181921053E+02 -0.18099090173E+02 -0.19808633720E+02  0.28698964289E+02  0.00000000000E+00 0. -1.
</event>
<event>
 5    1  0.1764311E-003  0.9118800E+02  0.7818608E-02  0.1130116E+00
         25   -1    0    0    0    0  0.00000000000E+00  0.00000000000E+00  0.99999998245E-14  0.12500000000E+03  0.12500000000E+03 0.  0.
        -13    1    3    3    0    0 -0.50523875174E+02 -0.34226247033E+02 -0.71215608849E+01  0.61439610530E+02  0.10566000000E+00 0. -1.
         23    2    1    0    0    0 -0.26898499929E+02 -0.88614415106E+01 -0.84318644649E+00  0.96666884968E+02  0.92421432806E+02 0.  0.
         13    1    3    3    0    0  0.23625375246E+02  0.25364805522E+02  0.62783744384E+01  0.35227274438E+02  0.10566000000E+00 0.  1.
         22    1    1    0    0    0  0.26898499929E+02  0.88614415106E+01  0.84318644649E+00  0.28333115032E+02  0.00000000000E+00 0. -1.
</event>
<event>
 5    1  0.1764311E-003  0.9118800E+02  0.7818608E-02  0.1130116E+00
         25   -1    0    0    0    0  0.00000000000E+00  0.00000000000E+00  0.99999998245E-14  0.12500000000E+03  0.12500000000E+03 0.  0.
        -13    1    3    3    0    0  0.57922113354E+02  0.11694379526E+02  0.90798247355E+01  0.59784480504E+02  0.10566000000E+00 0. -1.
         23    2    1    0    0    0  0.24727111712E+02  0.13419159619E+02 -0.59169047653E+01  0.96250849395E+02  0.91857021228E+02 0.  0.
         13    1    3    3    0    0 -0.33195001642E+02  0.17247800928E+01 -0.14996729501E+02  0.36466368892E+02  0.10566000000E+00 0.  1.
         22    1    1    0    0    0 -0.24727111712E+02 -0.13419159619E+02  0.59169047653E+01  0.28749150605E+02  0.00000000000E+00 0. -1.
</event>
<event>
 5    1  0.1764311E-003  0.9118800E+02  0.7818608E-02  0.1130116E+00
         25   -1    0    0    0    0  0.00000000000E+00  0.00000000000E+00  0.99999998245E-14  0.12500000000E+03  0.12500000000E+03 0.  0.
        -13    1    3    3    0    0 -0.19003733699E+02 -0.13772653615E+02 -0.36653633319E+02  0.43523877143E+02  0.10566000000E+00 0.  1.
         23    2    1    0    0    0  0.24351869110E+02 -0.15594253592E+02 -0.10246509804E+02  0.94321257565E+02  0.89192569148E+02 0.  0.
         13    1    3    3    0    0  0.43355602808E+02 -0.18215999773E+01  0.26407123515E+02  0.50797380422E+02  0.10566000000E+00 0. -1.
         22    1    1    0    0    0 -0.24351869110E+02  0.15594253592E+02  0.10246509804E+02  0.30678742435E+02  0.00000000000E+00 0. -1.
</event>
<event>
 5    1  0.1764311E-003  0.9118800E+02  0.7818608E-02  0.1130116E+00
         25   -1    0    0    0    0  0.00000000000E+00  0.00000000000E+00  0.99999998245E-14  0.12500000000E+03  0.12500000000E+03 0.  0.
        -13    1    3    3    0    0  0.47959310992E+01  0.44560080736E+02  0.18231619960E+02  0.48383932051E+02  0.10566000000E+00 0.  1.
         23    2    1    0    0    0  0.26706968478E+02  0.25558496374E+01  0.38383499690E+01  0.97897832870E+02  0.94071559026E+02 0.  0.
         13    1    3    3    0    0  0.21911037379E+02 -0.42004231099E+02 -0.14393269991E+02  0.49513900819E+02  0.10566000000E+00 0. -1.
         22    1    1    0    0    0 -0.26706968478E+02 -0.25558496374E+01 -0.38383499690E+01  0.27102167130E+02  0.00000000000E+00 0. -1.
</event>
<event>
 5    1  0.1764311E-003  0.9118800E+02  0.7818608E-02  0.1130116E+00
         25   -1    0    0    0    0  0.00000000000E+00  0.00000000000E+00  0.99999998245E-14  0.12500000000E+03  0.12500000000E+03 0.  0.
        -13    1    3    3    0    0 -0.87142716963E+01  0.51425107197E+02 -0.32439721752E+02  0.61423341596E+02  0.10566000000E+00 0. -1.
         23    2    1    0    0    0 -0.48807902079E+01  0.18248164050E+02 -0.21067136737E+02  0.96704384535E+02  0.92472137067E+02 0.  0.
         13    1    3    3    0    0  0.38334814884E+01 -0.33176943147E+02  0.11372585015E+02  0.35281042939E+02  0.10566000000E+00 0.  1.
         22    1    1    0    0    0  0.48807902079E+01 -0.18248164050E+02  0.21067136737E+02  0.28295615465E+02  0.00000000000E+00 0. -1.
</event>
<event>
 5    1  0.1764311E-003  0.9118800E+02  0.7818608E-02  0.1130116E+00
         25   -1    0    0    0    0  0.00000000000E+00  0.00000000000E+00  0.99999998245E-14  0.12500000000E+03  0.12500000000E+03 0.  0.
        -13    1    3    3    0    0  0.29890776868E+02  0.51355812037E+02 -0.83221668782E+01  0.60001229965E+02  0.10566000000E+00 0. -1.
         23    2    1    0    0    0  0.23522139673E+01  0.28587426615E+02 -0.49485359259E+01  0.95892236794E+02  0.91367714202E+02 0.  0.
         13    1    3    3    0    0 -0.27538562901E+02 -0.22768385422E+02  0.33736309523E+01  0.35891006829E+02  0.10566000000E+00 0.  1.
         22    1    1    0    0    0 -0.23522139673E+01 -0.28587426615E+02  0.49485359259E+01  0.29107763206E+02  0.00000000000E+00 0. -1.
</event>
<event>
 5    1  0.1764311E-003  0.9118800E+02  0.7818608E-02  0.1130116E+00
         25   -1    0    0    0    0  0.00000000000E+00  0.00000000000E+00  0.99999998245E-14  0.12500000000E+03  0.12500000000E+03 0.  0.
        -13    1    3    3    0    0  0.16222477469E+02  0.33867953705E+02 -0.83265911774E+01  0.38464923606E+02  0.10566000000E+00 0. -1.
         23    2    1    0    0    0 -0.94088537930E+01 -0.22848730791E+01  0.27749794940E+02  0.95609554378E+02  0.90980154948E+02 0.  0.
         13    1    3    3    0    0 -0.25631331262E+02 -0.36152826784E+02  0.36076386117E+02  0.57144630771E+02  0.10566000000E+00 0.  1.
         22    1    1    0    0    0  0.94088537930E+01  0.22848730791E+01 -0.27749794940E+02  0.29390445622E+02  0.00000000000E+00 0.  1.
</event>
<event>
 5    1  0.1764311E-003  0.9118800E+02  0.7818608E-02  0.1130116E+00
         25   -1    0    0    0    0  0.00000000000E+00  0.00000000000E+00  0.99999998245E-14  0.12500000000E+03  0.12500000000E+03 0.  0.
        -13    1    3    3    0    0 -0.18986672748E+02  0.96099972519E+00 -0.32805649208E+02  0.37916210867E+02  0.10566000000E+00 0. -1.
         23    2    1    0    0    0  0.75016482714E+01 -0.28522217927E+02  0.76294805066E+01  0.94536897481E+02  0.89494270042E+02 0.  0.
         13    1    3    3    0    0  0.26488321020E+02 -0.29483217652E+02  0.40435129714E+02  0.56620686614E+02  0.10566000000E+00 0.  1.
         22    1    1    0    0    0 -0.75016482714E+01  0.28522217927E+02 -0.76294805066E+01  0.30463102519E+02  0.00000000000E+00 0. -1.
</event>
<event>
 5    1  0.1764311E-003  0.9118800E+02  0.7818608E-02  0.1130116E+00
         25   -1    0    0    0    0  0.00000000000E+00  0.00000000000E+00  0.99999998245E-14  0.12500000000E+03  0.12500000000E+03 0.  0.
        -13    1    3    3    0    0 -0.16222388122E+02  0.32009535245E+02 -0.12400758274E+02  0.37967962715E+02  0.10566000000E+00 0.  1.
         23    2    1    0    0    0 -0.40924635394E+01 -0.19273702165E+01  0.30596075079E+02  0.94071326831E+02  0.88841610227E+02 0.  0.
         13    1    3    3    0    0  0.12129924582E+02 -0.33936905461E+02  0.42996833353E+02  0.56103364116E+02  0.10566000000E+00 0. -1.
         22    1    1    0    0    0  0.40924635394E+01  0.19273702165E+01 -0.30596075079E+02  0.30928673169E+02  0.00000000000E+00 0. -1.
</event>
<event>
 5    1  0.1764311E-003  0.9118800E+02  0.7818608E-02  0.1130116E+00
         25   -1    0    0    0    0  0.00000000000E+00  0.00000000000E+00  0.99999998245E-14  0.12500000000E+03  0.12500000000E+03 0.  0.
        -13    1    3    3    0    0  0.82237080981E+01  0.25765935705E+01 -0.32917378187E+02  0.34026947557E+02  0.10566000000E+00 0.  1.
         23    2    1    0    0    0  0.51748371742E+01  0.74619030896E-01  0.28733595791E+02  0.95804040779E+02  0.91246973619E+02 0.  0.
         13    1    3    3    0    0 -0.30488709240E+01 -0.25019745396E+01  0.61650973978E+02  0.61777093222E+02  0.10566000000E+00 0. -1.
         22    1    1    0    0    0 -0.51748371742E+01 -0.74619030896E-01 -0.28733595791E+02  0.29195959221E+02  0.00000000000E+00 0. -1.
</event>
<event>
 5    1  0.1764311E-003  0.9118800E+02  0.7818608E-02  0.1130116E+00
         25   -1    0    0    0    0  0.00000000000E+00  0.00000000000E+00  0.99999998245E-14  0.12500000000E+03  0.12500000000E+03 0.  0.
        -13    1    3    3    0    0  0.22470547329E+02  0.31375295092E+02  0.33598931461E+02  0.51168681816E+02  0.10566000000E+00 0. -1.
         23    2    1    0    0    0  0.50367888469E+01 -0.10535031055E+02  0.25054750683E+02  0.97357701742E+02  0.93351086953E+02 0.  0.
         13    1    3    3    0    0 -0.17433758482E+02 -0.41910326146E+02 -0.85441807783E+01  0.46189019926E+02  0.10566000000E+00 0.  1.
         22    1    1    0    0    0 -0.50367888469E+01  0.10535031055E+02 -0.25054750683E+02  0.27642298258E+02  0.00000000000E+00 0. -1.
</event>
<event>
 5    1  0.1764311E-003  0.9118800E+02  0.7818608E-02  0.1130116E+00
         25   -1    0    0    0    0  0.00000000000E+00  0.00000000000E+00  0.99999998245E-14  0.12500000000E+03  0.12500000000E+03 0.  0.
        -13    1    3    3    0    0 -0.48021257869E+02  0.57466185022E+01 -0.32766222978E+02  0.58418330717E+02  0.10566000000E+00 0. -1.
         23    2    1    0    0    0 -0.22625971508E+02 -0.11140141768E+01 -0.33294669902E+02  0.84729531190E+02  0.74547855754E+02 0.  0.
         13    1    3    3    0    0  0.25395286361E+02 -0.68606326791E+01 -0.52844692478E+00  0.26311200472E+02  0.10566000000E+00 0.  1.
         22    1    1    0    0    0  0.22625971508E+02  0.11140141768E+01  0.33294669902E+02  0.40270468810E+02  0.00000000000E+00 0. -1.
</event>
<event>
 5    1  0.1764311E-003  0.9118800E+02  0.7818608E-02  0.1130116E+00
         25   -1    0    0    0    0  0.00000000000E+00  0.00000000000E+00  0.99999998245E-14  0.12500000000E+03  0.12500000000E+03 0.  0.
        -13    1    3    3    0    0 -0.22492518980E+02  0.35952554255E+01 -0.58124837156E+02  0.62428736413E+02  0.10566000000E+00 0. -1.
         23    2    1    0    0    0 -0.88838880381E+01  0.19127767729E+01 -0.28778954983E+02  0.94820363959E+02  0.89889326339E+02 0.  0.
         13    1    3    3    0    0  0.13608630942E+02 -0.16824786526E+01  0.29345882173E+02  0.32391627546E+02  0.10566000000E+00 0.  1.
         22    1    1    0    0    0  0.88838880381E+01 -0.19127767729E+01  0.28778954983E+02  0.30179636041E+02  0.00000000000E+00 0. -1.
</event>
<event>
 5    1  0.1764311E-003  0.9118800E+02  0.7818608E-02  0.1130116E+00
         25   -1    0    0    0    0  0.00000000000E+00  0.00000000000E+00  0.99999998245E-14  0.12500000000E+03  0.12500000000E+03 0.  0.
        -13    1    3    3    0    0 -0.20364991991E+02 -0.35505683809E+02  0.12963427208E+02  0.42935394380E+02  0.10566000000E+00 0.  1.
         23    2    1    0    0    0  0.17286898462E+02 -0.15183274313E+02 -0.18030976919E+02  0.95768427926E+02  0.91198174222E+02 0.  0.
         13    1    3    3    0    0  0.37651890453E+02  0.20322409496E+02 -0.30994404126E+02  0.52833033545E+02  0.10566000000E+00 0. -1.
         22    1    1    0    0    0 -0.17286898462E+02  0.15183274313E+02  0.18030976919E+02  0.29231572074E+02  0.00000000000E+00 0.  1.
</event>
<event>
 5    1  0.1764311E-003  0.9118800E+02  0.7818608E-02  0.1130116E+00
         25   -1    0    0    0    0  0.00000000000E+00  0.00000000000E+00  0.99999998245E-14  0.12500000000E+03  0.12500000000E+03 0.  0.
        -13    1    3    3    0    0  0.22150554920E+02  0.45790897775E+01  0.33733029892E+02  0.40614573938E+02  0.10566000000E+00 0.  1.
         23    2    1    0    0    0 -0.26812592054E+02 -0.54214223728E+01  0.12863158678E+02  0.94771408164E+02  0.89821222665E+02 0.  0.
         13    1    3    3    0    0 -0.48963146974E+02 -0.10000512150E+02 -0.20869871214E+02  0.54156834226E+02  0.10566000000E+00 0. -1.
         22    1    1    0    0    0  0.26812592054E+02  0.54214223728E+01 -0.12863158678E+02  0.30228591836E+02  0.00000000000E+00 0.  1.
</event>
<event>
 5    1  0.1764311E-003  0.9118800E+02  0.7818608E-02  0.1130116E+00
         25   -1    0    0    0    0  0.00000000000E+00  0.00000000000E+00  0.99999998245E-14  0.12500000000E+03  0.12500000000E+03 0.  0.
        -13    1    3    3    0    0 -0.38648594324E+02 -0.25007262853E+02 -0.33742674606E+02  0.57075881878E+02  0.10566000000E+00 0.  1.
         23    2    1    0    0    0 -0.63055698085E+01 -0.57030532897E+01 -0.28686833362E+02  0.95079782157E+02  0.90249352015E+02 0.  0.
         13    1    3    3    0    0  0.32343024515E+02  0.19304209563E+02  0.50558412441E+01  0.38003900278E+02  0.10566000000E+00 0. -1.
         22    1    1    0    0    0  0.63055698085E+01  0.57030532897E+01  0.28686833362E+02  0.29920217843E+02  0.00000000000E+00 0.  1.
</event>
<event>
 5    1  0.1764311E-003  0.9118800E+02  0.7818608E-02  0.1130116E+00
         25   -1    0    0    0    0  0.00000000000E+00  0.00000000000E+00  0.99999998245E-14  0.12500000000E+03  0.12500000000E+03 0.  0.
        -13    1    3    3    0    0 -0.36537887496E+01 -0.38099378550E+02  0.11120407140E+02  0.39857087665E+02  0.10566000000E+00 0. -1.
         23    2    1    0    0    0 -0.48333081336E+01 -0.17137678302E+01 -0.29877616953E+02  0.94685484294E+02  0.89701566729E+02 0.  0.
         13    1    3    3    0    0 -0.11795193840E+01  0.36385610720E+02 -0.40998024092E+02  0.54828396629E+02  0.10566000000E+00 0.  1.
         22    1    1    0    0    0  0.48333081336E+01  0.17137678302E+01  0.29877616953E+02  0.30314515706E+02  0.00000000000E+00 0.  1.
</event>
<event>
 5    1  0.1764311E-003  0.9118800E+02  0.7818608E-02  0.1130116E+00
         25   -1    0    0    0    0  0.00000000000E+00  0.00000000000E+00  0.99999998245E-14  0.12500000000E+03  0.12500000000E+03 0.  0.
        -13    1    3    3    0    0  0.58274780990E+02 -0.17774480131E+02 -0.70595738148E+01  0.61332951908E+02  0.10566000000E+00 0.  1.
         23    2    1    0    0    0  0.29008096546E+02 -0.54168685165E-01 -0.19431286536E+01  0.95926844883E+02  0.91415049203E+02 0.  0.
         13    1    3    3    0    0 -0.29266684443E+02  0.17720311446E+02  0.51164451612E+01  0.34593892975E+02  0.10566000000E+00 0. -1.
         22    1    1    0    0    0 -0.29008096546E+02  0.54168685165E-01  0.19431286536E+01  0.29073155117E+02  0.00000000000E+00 0.  1.
</event>
<event>
 5    1  0.1764311E-003  0.9118800E+02  0.7818608E-02  0.1130116E+00
         25   -1    0    0    0    0  0.00000000000E+00  0.00000000000E+00  0.99999998245E-14  0.12500000000E+03  0.12500000000E+03 0.  0.
        -13    1    3    3    0    0  0.12270082612E+02 -0.12312700034E+02 -0.30693389811E+02  0.35273968469E+02  0.10566000000E+00 0. -1.
         23    2    1    0    0    0 -0.33416657941E+02 -0.76156587036E+01  0.37755262295E+00  0.90724442654E+02  0.84000658708E+02 0.  0.
         13    1    3    3    0    0 -0.45686740552E+02  0.46970413305E+01  0.31070942434E+02  0.55450474185E+02  0.10566000000E+00 0.  1.
         22    1    1    0    0    0  0.33416657941E+02  0.76156587036E+01 -0.37755262295E+00  0.34275557346E+02  0.00000000000E+00 0.  1.
</event>
<event>
 5    1  0.1764311E-003  0.9118800E+02  0.7818608E-02  0.1130116E+00
         25   -1    0    0    0    0  0.00000000000E+00  0.00000000000E+00  0.99999998245E-14  0.12500000000E+03  0.12500000000E+03 0.  0.
        -13    1    3    3    0    0  0.10807472154E+02 -0.18786191041E+02 -0.32800251272E+02  0.39313993383E+02  0.10566000000E+00 0. -1.
         23    2    1    0    0    0  0.17977235161E+02  0.14306729118E+02  0.14756640666E+02  0.97693921449E+02  0.93800215151E+02 0.  0.
         13    1    3    3    0    0  0.71697630066E+01  0.33092920159E+02  0.47556891938E+02  0.58379928066E+02  0.10566000000E+00 0.  1.
         22    1    1    0    0    0 -0.17977235161E+02 -0.14306729118E+02 -0.14756640666E+02  0.27306078551E+02  0.00000000000E+00 0.  1.
</event>
<event>
 5    1  0.1764311E-003  0.9118800E+02  0.7818608E-02  0.1130116E+00
         25   -1    0    0    0    0  0.00000000000E+00  0.00000000000E+00  0.99999998245E-14  0.12500000000E+03  0.12500000000E+03 0.  0.
        -13    1    3    3    0    0 -0.25467316155E+02  0.26407405814E+02  0.31800700660E+02  0.48551323365E+02  0.10566000000E+00 0.  1.
         23    2    1    0    0    0  0.17733132701E+02  0.10747945087E+02  0.20434330080E+02  0.95887388218E+02  0.91361080633E+02 0.  0.
         13    1    3    3    0    0  0.43200448856E+02 -0.15659460727E+02 -0.11366370580E+02  0.47336064853E+02  0.10566000000E+00 0. -1.
         22    1    1    0    0    0 -0.17733132701E+02 -0.10747945087E+02 -0.20434330080E+02  0.29112611782E+02  0.00000000000E+00 0. -1.
</event>
<event>
 5    1  0.1764311E-003  0.9118800E+02  0.7818608E-02  0.1130116E+00
         25   -1    0    0    0    0  0.00000000000E+00  0.00000000000E+00  0.99999998245E-14  0.12500000000E+03  0.12500000000E+03 0.  0.
        -13    1    3    3    0    0  0.49948937483E+02 -0.27266683061E+02  0.16827448037E+02  0.59342586161E+02  0.10566000000E+00 0.  1.
         23    2    1    0    0    0  0.27287163037E+02 -0.11643764955E+02 -0.55516150377E+01  0.94817439498E+02  0.89885259495E+02 0.  0.
         13    1    3    3    0    0 -0.22661774445E+02  0.15622918106E+02 -0.22379063074E+02  0.35474853337E+02  0.10566000000E+00 0. -1.
         22    1    1    0    0    0 -0.27287163037E+02  0.11643764955E+02  0.55516150377E+01  0.30182560502E+02  0.00000000000E+00 0.  1.
</event>
<event>
 5    1  0.1764311E-003  0.9118800E+02  0.7818608E-02  0.1130116E+00
         25   -1    0    0    0    0  0.00000000000E+00  0.00000000000E+00  0.99999998245E-14  0.12500000000E+03  0.12500000000E+03 0.  0.
        -13    1    3    3    0    0  0.20387094442E+02 -0.29998801878E+02 -0.10644657523E+02  0.37800550680E+02  0.10566000000E+00 0.  1.
         23    2    1    0    0    0 -0.12445334717E+02  0.17577080690E+02 -0.19091112760E+02  0.96219612438E+02  0.91814503809E+02 0.  0.
         13    1    3    3    0    0 -0.32832429159E+02  0.47575882568E+02 -0.84464552370E+01  0.58419061758E+02  0.10566000000E+00 0. -1.
         22    1    1    0    0    0  0.12445334717E+02 -0.17577080690E+02  0.19091112760E+02  0.28780387562E+02  0.00000000000E+00 0. -1.
</event>
<event>
 5    1  0.1764311E-003  0.9118800E+02  0.7818608E-02  0.1130116E+00
         25   -1    0    0    0    0  0.00000000000E+00  0.00000000000E+00  0.99999998245E-14  0.12500000000E+03  0.12500000000E+03 0.  0.
        -13    1    3    3    0    0 -0.23440582578E+02 -0.12039803618E+01 -0.23779426419E+02  0.33412314573E+02  0.10566000000E+00 0. -1.
         23    2    1    0    0    0  0.20108472467E+02  0.31690749351E+01  0.20807005095E+02  0.95891149767E+02  0.91366227030E+02 0.  0.
         13    1    3    3    0    0  0.43549055045E+02  0.43730552969E+01  0.44586431514E+02  0.62478835193E+02  0.10566000000E+00 0.  1.
         22    1    1    0    0    0 -0.20108472467E+02 -0.31690749351E+01 -0.20807005095E+02  0.29108850233E+02  0.00000000000E+00 0.  1.
</event>
<event>
 5    1  0.1764311E-003  0.9118800E+02  0.7818608E-02  0.1130116E+00
         25   -1    0    0    0    0  0.00000000000E+00  0.00000000000E+00  0.99999998245E-14  0.12500000000E+03  0.12500000000E+03 0.  0.
        -13    1    3    3    0    0  0.24219053505E+02 -0.34222539846E+02  0.71099232336E+01  0.42524192627E+02  0.10566000000E+00 0. -1.
         23    2    1    0    0    0 -0.29774098239E+01 -0.36587278490E+01 -0.28103279162E+02  0.96503586921E+02  0.92200307647E+02 0.  0.
         13    1    3    3    0    0 -0.27196463329E+02  0.30563811997E+02 -0.35213202395E+02  0.53979394294E+02  0.10566000000E+00 0.  1.
         22    1    1    0    0    0  0.29774098239E+01  0.36587278490E+01  0.28103279162E+02  0.28496413079E+02  0.00000000000E+00 0.  1.
</event>
<event>
 5    1  0.1764311E-003  0.9118800E+02  0.7818608E-02  0.1130116E+00
         25   -1    0    0    0    0  0.00000000000E+00  0.00000000000E+00  0.99999998245E-14  0.12500000000E+03  0.12500000000E+03 0.  0.
        -13    1    3    3    0    0  0.19267680152E+02 -0.16889054699E+02 -0.22243432966E+02  0.33930298277E+02  0.10566000000E+00 0. -1.
         23    2    1    0    0    0 -0.32390398836E+02  0.29819171869E+01 -0.12627168547E+02  0.90107663415E+02  0.83077769912E+02 0.  0.
         13    1    3    3    0    0 -0.51658078988E+02  0.19870971886E+02  0.96162644186E+01  0.56177365137E+02  0.10566000000E+00 0.  1.
         22    1    1    0    0    0  0.32390398836E+02 -0.29819171869E+01  0.12627168547E+02  0.34892336585E+02  0.00000000000E+00 0.  1.
</event>
<event>
 5    1  0.1764311E-003  0.9118800E+02  0.7818608E-02  0.1130116E+00
         25   -1    0    0    0    0  0.00000000000E+00  0.00000000000E+00  0.99999998245E-14  0.12500000000E+03  0.12500000000E+03 0.  0.
        -13    1    3    3    0    0  0.43912328615E+02  0.19425848112E+02  0.36398004126E+02  0.60253481623E+02  0.10566000000E+00 0.  1.
         23    2    1    0    0    0  0.24555080172E+02 -0.19734645104E+01  0.15273166773E+02  0.96015242839E+02  0.91535843852E+02 0.  0.
         13    1    3    3    0    0 -0.19357248443E+02 -0.21399312623E+02 -0.21124837353E+02  0.35761761216E+02  0.10566000000E+00 0. -1.
         22    1    1    0    0    0 -0.24555080172E+02  0.19734645104E+01 -0.15273166773E+02  0.28984757161E+02  0.00000000000E+00 0.  1.
</event>
<event>
 5    1  0.1764311E-003  0.9118800E+02  0.7818608E-02  0.1130116E+00
         25   -1    0    0    0    0  0.00000000000E+00  0.00000000000E+00  0.99999998245E-14  0.12500000000E+03  0.12500000000E+03 0.  0.
        -13    1    3    3    0    0  0.62353329921E+01  0.29444885035E+02 -0.44275529884E+02  0.53537037113E+02  0.10566000000E+00 0.  1.
         23    2    1    0    0    0 -0.18401814052E+02  0.18323726544E+02 -0.10039450590E+02  0.97158012229E+02  0.93083312453E+02 0.  0.
         13    1    3    3    0    0 -0.24637147045E+02 -0.11121158491E+02  0.34236079294E+02  0.43620975117E+02  0.10566000000E+00 0. -1.
         22    1    1    0    0    0  0.18401814052E+02 -0.18323726544E+02  0.10039450590E+02  0.27841987771E+02  0.00000000000E+00 0.  1.
</event>
<event>
 5    1  0.1764311E-003  0.9118800E+02  0.7818608E-02  0.1130116E+00
         25   -1    0    0    0    0  0.00000000000E+00  0.00000000000E+00  0.99999998245E-14  0.12500000000E+03  0.12500000000E+03 0.  0.
        -13    1    3    3    0    0 -0.40878714483E+01 -0.37852549185E+02 -0.25267072264E+02  0.45694225867E+02  0.10566000000E+00 0.  1.
         23    2    1    0    0    0 -0.30075460098E+02 -0.14709838530E+02  0.41537915468E+01  0.91263274702E+02  0.84798695010E+02 0.  0.
         13    1    3    3    0    0 -0.25987588649E+02  0.23142710656E+02  0.29420863810E+02  0.45569048834E+02  0.10566000000E+00 0. -1.
         22    1    1    0    0    0  0.30075460098E+02  0.14709838530E+02 -0.41537915468E+01  0.33736725298E+02  0.00000000000E+00 0. -1.
</event>
<event>
 5    1  0.1764311E-003  0.9118800E+02  0.7818608E-02  0.1130116E+00
         25   -1    0    0    0    0  0.00000000000E+00  0.00000000000E+00  0.99999998245E-14  0.12500000000E+03  0.12500000000E+03 0.  0.
        -13    1    3    3    0    0  0.56245945635E-02  0.22254755140E+02 -0.33069766154E+02  0.39860942732E+02  0.10566000000E+00 0.  1.
         23    2    1    0    0    0 -0.22368967967E+02 -0.19297207631E+02 -0.42622961234E+01  0.95151714982E+02  0.90348927750E+02 0.  0.
         13    1    3    3    0    0 -0.22374592562E+02 -0.41551962771E+02  0.28807470031E+02  0.55290772250E+02  0.10566000000E+00 0. -1.
         22    1    1    0    0    0  0.22368967967E+02  0.19297207631E+02  0.42622961234E+01  0.29848285018E+02  0.00000000000E+00 0. -1.
</event>
<event>
 5    1  0.1764311E-003  0.9118800E+02  0.7818608E-02  0.1130116E+00
         25   -1    0    0    0    0  0.00000000000E+00  0.00000000000E+00  0.99999998245E-14  0.12500000000E+03  0.12500000000E+03 0.  0.
        -13    1    3    3    0    0 -0.21088233761E+01  0.33468633771E+02  0.24250395896E+02  0.41384652320E+02  0.10566000000E+00 0.  1.
         23    2    1    0    0    0  0.12710923130E+02 -0.16696595810E+02  0.23219267515E+02  0.93703382572E+02  0.88322396045E+02 0.  0.
         13    1    3    3    0    0  0.14819746506E+02 -0.50165229581E+02 -0.10311283802E+01  0.52318730252E+02  0.10566000000E+00 0. -1.
         22    1    1    0    0    0 -0.12710923130E+02  0.16696595810E+02 -0.23219267515E+02  0.31296617428E+02  0.00000000000E+00 0. -1.
</event>
<event>
 5    1  0.1764311E-003  0.9118800E+02  0.7818608E-02  0.1130116E+00
         25   -1    0    0    0    0  0.00000000000E+00  0.00000000000E+00  0.99999998245E-14  0.12500000000E+03  0.12500000000E+03 0.  0.
        -13    1    3    3    0    0 -0.15817527486E+02  0.42553142092E+02 -0.64361405716E+01  0.45851926319E+02  0.10566000000E+00 0. -1.
         23    2    1    0    0    0  0.19624050990E+02  0.83321772394E+01 -0.18721436079E+02  0.96627112878E+02  0.92367625386E+02 0.  0.
         13    1    3    3    0    0  0.35441578476E+02 -0.34220964853E+02 -0.12285295507E+02  0.50775186559E+02  0.10566000000E+00 0.  1.
         22    1    1    0    0    0 -0.19624050990E+02 -0.83321772394E+01  0.18721436079E+02  0.28372887122E+02  0.00000000000E+00 0. -1.
</event>
<event>
 5    1  0.1764311E-003  0.9118800E+02  0.7818608E-02  0.1130116E+00
         25   -1    0    0    0    0  0.00000000000E+00  0.00000000000E+00  0.99999998245E-14  0.12500000000E+03  0.12500000000E+03 0.  0.
        -13    1    3    3    0    0  0.44876495434E+02  0.89972813960E+01  0.24320611736E+02  0.51830051458E+02  0.10566000000E+00 0.  1.
         23    2    1    0    0    0  0.76004445066E+01 -0.41451187277E+01  0.31787810433E+02  0.92054383325E+02  0.85956941728E+02 0.  0.
         13    1    3    3    0    0 -0.37276050927E+02 -0.13142400124E+02  0.74671986971E+01  0.40224331867E+02  0.10566000000E+00 0. -1.
         22    1    1    0    0    0 -0.76004445066E+01  0.41451187277E+01 -0.31787810433E+02  0.32945616675E+02  0.00000000000E+00 0.  1.
</event>
<event>
 5    1  0.1764311E-003  0.9118800E+02  0.7818608E-02  0.1130116E+00
         25   -1    0    0    0    0  0.00000000000E+00  0.00000000000E+00  0.99999998245E-14  0.12500000000E+03  0.12500000000E+03 0.  0.
        -13    1    3    3    0    0  0.48152593066E+02  0.30011658039E+02 -0.29428101540E+00  0.56740370131E+02  0.10566000000E+00 0.  1.
         23    2    1    0    0    0  0.24125249826E+02  0.24426678355E+01 -0.15364035314E+02  0.96293765722E+02  0.91915403662E+02 0.  0.
         13    1    3    3    0    0 -0.24027343241E+02 -0.27568990204E+02 -0.15069754299E+02  0.39553395590E+02  0.10566000000E+00 0. -1.
         22    1    1    0    0    0 -0.24125249826E+02 -0.24426678355E+01  0.15364035314E+02  0.28706234278E+02  0.00000000000E+00 0.  1.
</event>
<event>
 5    1  0.1764311E-003  0.9118800E+02  0.7818608E-02  0.1130116E+00
         25   -1    0    0    0    0  0.00000000000E+00  0.00000000000E+00  0.99999998245E-14  0.12500000000E+03  0.12500000000E+03 0.  0.
        -13    1    3    3    0    0  0.33829226792E+02 -0.14367320426E+02 -0.86638168069E+01  0.37761215119E+02  0.10566000000E+00 0.  1.
         23    2    1    0    0    0 -0.10936819643E+02  0.24930835481E+02 -0.34749853501E+01  0.97554852799E+02  0.93614706109E+02 0.  0.
         13    1    3    3    0    0 -0.44766046435E+02  0.39298155907E+02  0.51888314568E+01  0.59793637680E+02  0.10566000000E+00 0. -1.
         22    1    1    0    0    0  0.10936819643E+02 -0.24930835481E+02  0.34749853501E+01  0.27445147201E+02  0.00000000000E+00 0. -1.
</event>
<event>
 5    1  0.1764311E-003  0.9118800E+02  0.7818608E-02  0.1130116E+00
         25   -1    0    0    0    0  0.00000000000E+00  0.00000000000E+00  0.99999998245E-14  0.12500000000E+03  0.12500000000E+03 0.  0.
        -13    1    3    3    0    0 -0.26819131226E+02  0.24907973446E+02  0.22388805608E+02  0.42906208426E+02  0.10566000000E+00 0.  1.
         23    2    1    0    0    0  0.23305680243E+02  0.13646325228E+02  0.12572219737E+02  0.95210108545E+02  0.90429680615E+02 0.  0.
         13    1    3    3    0    0  0.50124811469E+02 -0.11261648218E+02 -0.98165858708E+01  0.52303900119E+02  0.10566000000E+00 0. -1.
         22    1    1    0    0    0 -0.23305680243E+02 -0.13646325228E+02 -0.12572219737E+02  0.29789891455E+02  0.00000000000E+00 0. -1.
</event>
<event>
 5    1  0.1764311E-003  0.9118800E+02  0.7818608E-02  0.1130116E+00
         25   -1    0    0    0    0  0.00000000000E+00  0.00000000000E+00  0.99999998245E-14  0.12500000000E+03  0.12500000000E+03 0.  0.
        -13    1    3    3    0    0 -0.28459813700E+00 -0.12340880187E+02  0.52218321114E+02  0.53657641990E+02  0.10566000000E+00 0.  1.
         23    2    1    0    0    0  0.82787592442E+01 -0.25016313951E+02  0.13281846377E+02  0.95491335823E+02  0.90817586159E+02 0.  0.
         13    1    3    3    0    0  0.85633573812E+01 -0.12675433764E+02 -0.38936474737E+02  0.41833693833E+02  0.10566000000E+00 0. -1.
         22    1    1    0    0    0 -0.82787592442E+01  0.25016313951E+02 -0.13281846377E+02  0.29508664177E+02  0.00000000000E+00 0.  1.
</event>
<event>
 5    1  0.1764311E-003  0.9118800E+02  0.7818608E-02  0.1130116E+00
         25   -1    0    0    0    0  0.00000000000E+00  0.00000000000E+00  0.99999998245E-14  0.12500000000E+03  0.12500000000E+03 0.  0.
        -13    1    3    3    0    0 -0.43942335551E+02 -0.24342206926E+02 -0.96140586112E+01  0.51145998658E+02  0.10566000000E+00 0. -1.
         23    2    1    0    0    0  0.10446381898E+01 -0.21732748398E+02 -0.17729091356E+02  0.96933573399E+02  0.92781427827E+02 0.  0.
         13    1    3    3    0    0  0.44986973741E+02  0.26094585286E+01 -0.81150327450E+01  0.45787574741E+02  0.10566000000E+00 0.  1.
         22    1    1    0    0    0 -0.10446381898E+01  0.21732748398E+02  0.17729091356E+02  0.28066426601E+02  0.00000000000E+00 0.  1.
</event>
<event>
 5    1  0.1764311E-003  0.9118800E+02  0.7818608E-02  0.1130116E+00
         25   -1    0    0    0    0  0.00000000000E+00  0.00000000000E+00  0.99999998245E-14  0.12500000000E+03  0.12500000000E+03 0.  0.
        -13    1    3    3    0    0  0.22188052820E+02 -0.64197626011E+00 -0.33729303532E+02  0.40378198353E+02  0.10566000000E+00 0.  1.
         23    2    1    0    0    0 -0.99262804311E+01 -0.28543438046E+02  0.17714861474E+00  0.94779307084E+02  0.89832214550E+02 0.  0.
         13    1    3    3    0    0 -0.32114333251E+02 -0.27901461786E+02  0.33906452146E+02  0.54401108731E+02  0.10566000000E+00 0. -1.
         22    1    1    0    0    0  0.99262804311E+01  0.28543438046E+02 -0.17714861474E+00  0.30220692916E+02  0.00000000000E+00 0. -1.
</event>
<event>
 5    1  0.1764311E-003  0.9118800E+02  0.7818608E-02  0.1130116E+00
         25   -1    0    0    0    0  0.00000000000E+00  0.00000000000E+00  0.99999998245E-14  0.12500000000E+03  0.12500000000E+03 0.  0.
        -13    1    3    3    0    0 -0.51178006267E+02  0.57679128775E+01 -0.21909241392E+02  0.55968590896E+02  0.10566000000E+00 0.  1.
         23    2    1    0    0    0 -0.10526201006E+02  0.38579529906E+01 -0.25818335748E+02  0.96852688055E+02  0.92672390785E+02 0.  0.
         13    1    3    3    0    0  0.40651805262E+02 -0.19099598869E+01 -0.39090943561E+01  0.40884097159E+02  0.10566000000E+00 0. -1.
         22    1    1    0    0    0  0.10526201006E+02 -0.38579529906E+01  0.25818335748E+02  0.28147311945E+02  0.00000000000E+00 0.  1.
</event>
<event>
 5    1  0.1764311E-003  0.9118800E+02  0.7818608E-02  0.1130116E+00
         25   -1    0    0    0    0  0.00000000000E+00  0.00000000000E+00  0.99999998245E-14  0.12500000000E+03  0.12500000000E+03 0.  0.
        -13    1    3    3    0    0  0.29495079362E+01 -0.19961011483E+02 -0.32840665783E+02  0.38544287121E+02  0.10566000000E+00 0. -1.
         23    2    1    0    0    0  0.14943760887E+02  0.21752343434E+02  0.72512774136E+01  0.97631012835E+02  0.93716344406E+02 0.  0.
         13    1    3    3    0    0  0.11994252951E+02  0.41713354917E+02  0.40091943197E+02  0.59086725714E+02  0.10566000000E+00 0.  1.
         22    1    1    0    0    0 -0.14943760887E+02 -0.21752343434E+02 -0.72512774136E+01  0.27368987165E+02  0.00000000000E+00 0.  1.
</event>
<event>
 5    1  0.1764311E-003  0.9118800E+02  0.7818608E-02  0.1130116E+00
         25   -1    0    0    0    0  0.00000000000E+00  0.00000000000E+00  0.99999998245E-14  0.12500000000E+03  0.12500000000E+03 0.  0.
        -13    1    3    3    0    0  0.12849131687E+01  0.43634777837E+02  0.32749888968E+02  0.54572989932E+02  0.10566000000E+00 0.  1.
         23    2    1    0    0    0  0.17546292235E+02  0.72122772688E+01  0.22132502450E+02  0.95849751643E+02  0.91309571846E+02 0.  0.
         13    1    3    3    0    0  0.16261379067E+02 -0.36422500568E+02 -0.10617386518E+02  0.41276761710E+02  0.10566000000E+00 0. -1.
         22    1    1    0    0    0 -0.17546292235E+02 -0.72122772688E+01 -0.22132502450E+02  0.29150248357E+02  0.00000000000E+00 0.  1.
</event>
<event>
 5    1  0.1764311E-003  0.9118800E+02  0.7818608E-02  0.1130116E+00
         25   -1    0    0    0    0  0.00000000000E+00  0.00000000000E+00  0.99999998245E-14  0.12500000000E+03  0.12500000000E+03 0.  0.
        -13    1    3    3    0    0 -0.52114192793E+02 -0.59944132831E+00  0.20218132131E+02  0.55901989689E+02  0.10566000000E+00 0. -1.
         23    2    1    0    0    0 -0.19069315375E+02 -0.20077069954E+02  0.75238662472E+01  0.96306166339E+02  0.91932266288E+02 0.  0.
         13    1    3    3    0    0  0.33044877417E+02 -0.19477628626E+02 -0.12694265883E+02  0.40404176650E+02  0.10566000000E+00 0.  1.
         22    1    1    0    0    0  0.19069315375E+02  0.20077069954E+02 -0.75238662472E+01  0.28693833661E+02  0.00000000000E+00 0. -1.
</event>
<event>
 5    1  0.1764311E-003  0.9118800E+02  0.7818608E-02  0.1130116E+00
         25   -1    0    0    0    0  0.00000000000E+00  0.00000000000E+00  0.99999998245E-14  0.12500000000E+03  0.12500000000E+03 0.  0.
        -13    1    3    3    0    0  0.50487151514E+02 -0.33059244073E+02 -0.58688263128E+01  0.60632667540E+02  0.10566000000E+00 0.  1.
         23    2    1    0    0    0  0.16692013214E+02 -0.93299610116E+01 -0.12065653912E+02  0.10238912912E+03  0.99861315233E+02 0.  0.
         13    1    3    3    0    0 -0.33795138301E+02  0.23729283061E+02 -0.61968275994E+01  0.41756461580E+02  0.10566000000E+00 0. -1.
         22    1    1    0    0    0 -0.16692013214E+02  0.93299610116E+01  0.12065653912E+02  0.22610870880E+02  0.00000000000E+00 0.  1.
</event>
<event>
 5    1  0.1764311E-003  0.9118800E+02  0.7818608E-02  0.1130116E+00
         25   -1    0    0    0    0  0.00000000000E+00  0.00000000000E+00  0.99999998245E-14  0.12500000000E+03  0.12500000000E+03 0.  0.
        -13    1    3    3    0    0 -0.26048159938E+01  0.50206943025E+02  0.34456352994E+02  0.60948942730E+02  0.10566000000E+00 0.  1.
         23    2    1    0    0    0  0.29711087219E+01  0.17242833286E+02  0.22593234070E+02  0.96423838387E+02  0.92092125596E+02 0.  0.
         13    1    3    3    0    0  0.55759247157E+01 -0.32964109738E+02 -0.11863118924E+02  0.35474895658E+02  0.10566000000E+00 0. -1.
         22    1    1    0    0    0 -0.29711087219E+01 -0.17242833286E+02 -0.22593234070E+02  0.28576161613E+02  0.00000000000E+00 0.  1.
</event>
<event>
 5    1  0.1764311E-003  0.9118800E+02  0.7818608E-02  0.1130116E+00
         25   -1    0    0    0    0  0.00000000000E+00  0.00000000000E+00  0.99999998245E-14  0.12500000000E+03  0.12500000000E+03 0.  0.
        -13    1    3    3    0    0  0.13568866120E+02 -0.58105728741E+02 -0.47887038112E+01  0.59860944601E+02  0.10566000000E+00 0.  1.
         23    2    1    0    0    0  0.14787881547E+01 -0.27441720541E+02  0.96871126022E+01  0.95861108614E+02  0.91325117867E+02 0.  0.
         13    1    3    3    0    0 -0.12090077965E+02  0.30664008200E+02  0.14475816413E+02  0.36000164013E+02  0.10566000000E+00 0. -1.
         22    1    1    0    0    0 -0.14787881547E+01  0.27441720541E+02 -0.96871126022E+01  0.29138891386E+02  0.00000000000E+00 0.  1.
</event>
<event>
 5    1  0.1764311E-003  0.9118800E+02  0.7818608E-02  0.1130116E+00
         25   -1    0    0    0    0  0.00000000000E+00  0.00000000000E+00  0.99999998245E-14  0.12500000000E+03  0.12500000000E+03 0.  0.
        -13    1    3    3    0    0  0.53635794488E+02 -0.59385500701E+01  0.35484409466E+01  0.54080194383E+02  0.10566000000E+00 0. -1.
         23    2    1    0    0    0  0.23054184473E+02  0.16189760066E+02 -0.11304938645E+02  0.94645339889E+02  0.89645607657E+02 0.  0.
         13    1    3    3    0    0 -0.30581610015E+02  0.22128310136E+02 -0.14853379591E+02  0.40565145506E+02  0.10566000000E+00 0.  1.
         22    1    1    0    0    0 -0.23054184473E+02 -0.16189760066E+02  0.11304938645E+02  0.30354660111E+02  0.00000000000E+00 0. -1.
</event>
<event>
 5    1  0.1764311E-003  0.9118800E+02  0.7818608E-02  0.1130116E+00
         25   -1    0    0    0    0  0.00000000000E+00  0.00000000000E+00  0.99999998245E-14  0.12500000000E+03  0.12500000000E+03 0.  0.
        -13    1    3    3    0    0 -0.37977517643E+02  0.24614281784E+02  0.57560900400E+01  0.45621249990E+02  0.10566000000E+00 0. -1.
         23    2    1    0    0    0  0.13042867894E+02  0.24074710669E+02 -0.32282359560E+01  0.97429551979E+02  0.93447247122E+02 0.  0.
         13    1    3    3    0    0  0.51020385537E+02 -0.53957111582E+00 -0.89843259961E+01  0.51808301989E+02  0.10566000000E+00 0.  1.
         22    1    1    0    0    0 -0.13042867894E+02 -0.24074710669E+02  0.32282359560E+01  0.27570448021E+02  0.00000000000E+00 0.  1.
</event>
<event>
 5    1  0.1764311E-003  0.9118800E+02  0.7818608E-02  0.1130116E+00
         25   -1    0    0    0    0  0.00000000000E+00  0.00000000000E+00  0.99999998245E-14  0.12500000000E+03  0.12500000000E+03 0.  0.
        -13    1    3    3    0    0  0.12411704966E+02 -0.39036368981E+02 -0.30369098166E+02  0.50991977907E+02  0.10566000000E+00 0.  1.
         23    2    1    0    0    0 -0.20987245853E+02 -0.19151213896E+02 -0.99733975099E+01  0.94888504852E+02  0.89984033100E+02 0.  0.
         13    1    3    3    0    0 -0.33398950819E+02  0.19885155085E+02  0.20395700657E+02  0.43896526945E+02  0.10566000000E+00 0. -1.
         22    1    1    0    0    0  0.20987245853E+02  0.19151213896E+02  0.99733975099E+01  0.30111495148E+02  0.00000000000E+00 0.  1.
</event>
<event>
 5    1  0.1764311E-003  0.9118800E+02  0.7818608E-02  0.1130116E+00
         25   -1    0    0    0    0  0.00000000000E+00  0.00000000000E+00  0.99999998245E-14  0.12500000000E+03  0.12500000000E+03 0.  0.
        -13    1    3    3    0    0 -0.18589233909E+02  0.48175584004E+02 -0.20673981180E+02  0.55622577909E+02  0.10566000000E+00 0.  1.
         23    2    1    0    0    0 -0.81324276500E+01  0.92810457923E+01 -0.25972178319E+02  0.96245378856E+02  0.91849576559E+02 0.  0.
         13    1    3    3    0    0  0.10456806259E+02 -0.38894538211E+02 -0.52981971393E+01  0.40622800947E+02  0.10566000000E+00 0. -1.
         22    1    1    0    0    0  0.81324276500E+01 -0.92810457923E+01  0.25972178319E+02  0.28754621144E+02  0.00000000000E+00 0.  1.
</event>
<event>
 5    1  0.1764311E-003  0.9118800E+02  0.7818608E-02  0.1130116E+00
         25   -1    0    0    0    0  0.00000000000E+00  0.00000000000E+00  0.99999998245E-14  0.12500000000E+03  0.12500000000E+03 0.  0.
        -13    1    3    3    0    0 -0.20488413646E+02 -0.28128704593E+02  0.20474045744E+02  0.40375696019E+02  0.10566000000E+00 0.  1.
         23    2    1    0    0    0 -0.10133860330E+02  0.25080828681E+02  0.11499973740E+01  0.97924816040E+02  0.94107406775E+02 0.  0.
         13    1    3    3    0    0  0.10354553317E+02  0.53209533275E+02 -0.19324048370E+02  0.57549120021E+02  0.10566000000E+00 0. -1.
         22    1    1    0    0    0  0.10133860330E+02 -0.25080828681E+02 -0.11499973740E+01  0.27075183960E+02  0.00000000000E+00 0. -1.
</event>
<event>
 5    1  0.1764311E-003  0.9118800E+02  0.7818608E-02  0.1130116E+00
         25   -1    0    0    0    0  0.00000000000E+00  0.00000000000E+00  0.99999998245E-14  0.12500000000E+03  0.12500000000E+03 0.  0.
        -13    1    3    3    0    0 -0.26014462094E+02 -0.11665423982E+02  0.30135864659E+02  0.41485128149E+02  0.10566000000E+00 0. -1.
         23    2    1    0    0    0  0.42505449743E+01 -0.26066899120E+02 -0.12551172112E+02  0.95758209978E+02  0.91184168004E+02 0.  0.
         13    1    3    3    0    0  0.30265007069E+02 -0.14401475138E+02 -0.42687036771E+02  0.54273081830E+02  0.10566000000E+00 0.  1.
         22    1    1    0    0    0 -0.42505449743E+01  0.26066899120E+02  0.12551172112E+02  0.29241790022E+02  0.00000000000E+00 0.  1.
</event>
<event>
 5    1  0.1764311E-003  0.9118800E+02  0.7818608E-02  0.1130116E+00
         25   -1    0    0    0    0  0.00000000000E+00  0.00000000000E+00  0.99999998245E-14  0.12500000000E+03  0.12500000000E+03 0.  0.
        -13    1    3    3    0    0 -0.23134356799E+02  0.22155525449E+02  0.11506260261E+02  0.34036318275E+02  0.10566000000E+00 0.  1.
         23    2    1    0    0    0  0.22065709039E+02 -0.18633111009E+02 -0.60765624824E+00  0.96113020452E+02  0.91669270276E+02 0.  0.
         13    1    3    3    0    0  0.45200065839E+02 -0.40788636459E+02 -0.12113916510E+02  0.62076702177E+02  0.10566000000E+00 0. -1.
         22    1    1    0    0    0 -0.22065709039E+02  0.18633111009E+02  0.60765624824E+00  0.28886979548E+02  0.00000000000E+00 0. -1.
</event>
<event>
 5    1  0.1764311E-003  0.9118800E+02  0.7818608E-02  0.1130116E+00
         25   -1    0    0    0    0  0.00000000000E+00  0.00000000000E+00  0.99999998245E-14  0.12500000000E+03  0.12500000000E+03 0.  0.
        -13    1    3    3    0    0 -0.22823604835E+01  0.21574669262E+02  0.40866526931E+02  0.46268344584E+02  0.10566000000E+00 0.  1.
         23    2    1    0    0    0  0.10793393526E+02 -0.19415656270E+02  0.23488571185E+02  0.92670786763E+02  0.86848699994E+02 0.  0.
         13    1    3    3    0    0  0.13075754010E+02 -0.40990325532E+02 -0.17377955746E+02  0.46402442178E+02  0.10566000000E+00 0. -1.
         22    1    1    0    0    0 -0.10793393526E+02  0.19415656270E+02 -0.23488571185E+02  0.32329213237E+02  0.00000000000E+00 0. -1.
</event>
<event>
 5    1  0.1764311E-003  0.9118800E+02  0.7818608E-02  0.1130116E+00
         25   -1    0    0    0    0  0.00000000000E+00  0.00000000000E+00  0.99999998245E-14  0.12500000000E+03  0.12500000000E+03 0.  0.
        -13    1    3    3    0    0 -0.71291357568E+01 -0.71776503253E+01 -0.35927061207E+02  0.37324363783E+02  0.10566000000E+00 0. -1.
         23    2    1    0    0    0 -0.22035867143E+02  0.10341752012E+02  0.17184452612E+02  0.95203411487E+02  0.90420422869E+02 0.  0.
         13    1    3    3    0    0 -0.14906731387E+02  0.17519402337E+02  0.53111513819E+02  0.57879047704E+02  0.10566000000E+00 0.  1.
         22    1    1    0    0    0  0.22035867143E+02 -0.10341752012E+02 -0.17184452612E+02  0.29796588513E+02  0.00000000000E+00 0.  1.
</event>
<event>
 5    1  0.1764311E-003  0.9118800E+02  0.7818608E-02  0.1130116E+00
         25   -1    0    0    0    0  0.00000000000E+00  0.00000000000E+00  0.99999998245E-14  0.12500000000E+03  0.12500000000E+03 0.  0.
        -13    1    3    3    0    0  0.32806878576E+02 -0.11362103572E+02 -0.47234440459E+01  0.35038703845E+02  0.10566000000E+00 0. -1.
         23    2    1    0    0    0 -0.25556954748E+02  0.85067811446E+00  0.11688542043E+02  0.96884104064E+02  0.92714756193E+02 0.  0.
         13    1    3    3    0    0 -0.58363833324E+02  0.12212781686E+02  0.16411986088E+02  0.61845400218E+02  0.10566000000E+00 0.  1.
         22    1    1    0    0    0  0.25556954748E+02 -0.85067811446E+00 -0.11688542043E+02  0.28115895936E+02  0.00000000000E+00 0.  1.
</event>
<event>
 5    1  0.1764311E-003  0.9118800E+02  0.7818608E-02  0.1130116E+00
         25   -1    0    0    0    0  0.00000000000E+00  0.00000000000E+00  0.99999998245E-14  0.12500000000E+03  0.12500000000E+03 0.  0.
        -13    1    3    3    0    0  0.24285303047E+02  0.30706133401E+02 -0.38107644680E+02  0.54633747076E+02  0.10566000000E+00 0.  1.
         23    2    1    0    0    0  0.53532755854E+01  0.27657520215E+02 -0.52692420730E+00  0.96824236780E+02  0.92634006687E+02 0.  0.
         13    1    3    3    0    0 -0.18932027462E+02 -0.30486131868E+01  0.37580720472E+02  0.42190489704E+02  0.10566000000E+00 0. -1.
         22    1    1    0    0    0 -0.53532755854E+01 -0.27657520215E+02  0.52692420730E+00  0.28175763220E+02  0.00000000000E+00 0.  1.
</event>
<event>
 5    1  0.1764311E-003  0.9118800E+02  0.7818608E-02  0.1130116E+00
         25   -1    0    0    0    0  0.00000000000E+00  0.00000000000E+00  0.99999998245E-14  0.12500000000E+03  0.12500000000E+03 0.  0.
        -13    1    3    3    0    0  0.18818570947E+01  0.25366736217E+02  0.22080683661E+02  0.33683533772E+02  0.10566000000E+00 0. -1.
         23    2    1    0    0    0 -0.85280516302E+01 -0.14334988513E+02 -0.24242126923E+02  0.95573816455E+02  0.90931040430E+02 0.  0.
         13    1    3    3    0    0 -0.10409908725E+02 -0.39701724730E+02 -0.46322810583E+02  0.61890282683E+02  0.10566000000E+00 0.  1.
         22    1    1    0    0    0  0.85280516302E+01  0.14334988513E+02  0.24242126923E+02  0.29426183545E+02  0.00000000000E+00 0.  1.
</event>
<event>
 5    1  0.1764311E-003  0.9118800E+02  0.7818608E-02  0.1130116E+00
         25   -1    0    0    0    0  0.00000000000E+00  0.00000000000E+00  0.99999998245E-14  0.12500000000E+03  0.12500000000E+03 0.  0.
        -13    1    3    3    0    0  0.47253257413E+01  0.17201629336E+02  0.53874262222E+02  0.56750965183E+02  0.10566000000E+00 0.  1.
         23    2    1    0    0    0  0.13502754715E+02  0.20366049374E+02  0.15918934399E+02  0.95836446986E+02  0.91291356362E+02 0.  0.
         13    1    3    3    0    0  0.87774289738E+01  0.31644200386E+01 -0.37955327823E+02  0.39085481803E+02  0.10566000000E+00 0. -1.
         22    1    1    0    0    0 -0.13502754715E+02 -0.20366049374E+02 -0.15918934399E+02  0.29163553014E+02  0.00000000000E+00 0.  1.
</event>
<event>
 5    1  0.1764311E-003  0.9118800E+02  0.7818608E-02  0.1130116E+00
         25   -1    0    0    0    0  0.00000000000E+00  0.00000000000E+00  0.99999998245E-14  0.12500000000E+03  0.12500000000E+03 0.  0.
        -13    1    3    3    0    0 -0.35638195054E+02 -0.78470044914E+01  0.44256619942E+01  0.36759407971E+02  0.10566000000E+00 0.  1.
         23    2    1    0    0    0  0.18442611842E+02 -0.25285540779E+02  0.94190162047E+00  0.93689048518E+02  0.88302107163E+02 0.  0.
         13    1    3    3    0    0  0.54080806896E+02 -0.17438536288E+02 -0.34837603738E+01  0.56929640547E+02  0.10566000000E+00 0. -1.
         22    1    1    0    0    0 -0.18442611842E+02  0.25285540779E+02 -0.94190162047E+00  0.31310951482E+02  0.00000000000E+00 0. -1.
</event>
<event>
 5    1  0.1764311E-003  0.9118800E+02  0.7818608E-02  0.1130116E+00
         25   -1    0    0    0    0  0.00000000000E+00  0.00000000000E+00  0.99999998245E-14  0.12500000000E+03  0.12500000000E+03 0.  0.
        -13    1    3    3    0    0  0.34420109184E+01  0.14450168454E+02 -0.34797420889E+02  0.37835518657E+02  0.10566000000E+00 0. -1.
         23    2    1    0    0    0 -0.20156339300E+02 -0.22906054340E+02  0.64795607607E+00  0.94481396059E+02  0.89416715522E+02 0.  0.
         13    1    3    3    0    0 -0.23598350219E+02 -0.37356222794E+02  0.35445376965E+02  0.56645877402E+02  0.10566000000E+00 0.  1.
         22    1    1    0    0    0  0.20156339300E+02  0.22906054340E+02 -0.64795607607E+00  0.30518603941E+02  0.00000000000E+00 0.  1.
</event>
<event>
 5    1  0.1764311E-003  0.9118800E+02  0.7818608E-02  0.1130116E+00
         25   -1    0    0    0    0  0.00000000000E+00  0.00000000000E+00  0.99999998245E-14  0.12500000000E+03  0.12500000000E+03 0.  0.
        -13    1    3    3    0    0  0.11308926272E+02  0.32197486579E+02 -0.54996110683E+01  0.34566267392E+02  0.10566000000E+00 0.  1.
         23    2    1    0    0    0 -0.23985536235E+02 -0.16186901366E+02 -0.93793318373E+01  0.94581361141E+02  0.89556352568E+02 0.  0.
         13    1    3    3    0    0 -0.35294462507E+02 -0.48384387945E+02 -0.38797207690E+01  0.60015093750E+02  0.10566000000E+00 0. -1.
         22    1    1    0    0    0  0.23985536235E+02  0.16186901366E+02  0.93793318373E+01  0.30418638859E+02  0.00000000000E+00 0. -1.
</event>
<event>
 5    1  0.1764311E-003  0.9118800E+02  0.7818608E-02  0.1130116E+00
         25   -1    0    0    0    0  0.00000000000E+00  0.00000000000E+00  0.99999998245E-14  0.12500000000E+03  0.12500000000E+03 0.  0.
        -13    1    3    3    0    0 -0.14733907138E+02 -0.33860315325E+02 -0.61352220377E+01  0.37433422057E+02  0.10566000000E+00 0.  1.
         23    2    1    0    0    0  0.18982375148E+02  0.92486862670E+01 -0.22091340536E+02  0.94440286477E+02  0.89359227947E+02 0.  0.
         13    1    3    3    0    0  0.33716282285E+02  0.43109001592E+02 -0.15956118499E+02  0.57006864420E+02  0.10566000000E+00 0. -1.
         22    1    1    0    0    0 -0.18982375148E+02 -0.92486862670E+01  0.22091340536E+02  0.30559713523E+02  0.00000000000E+00 0. -1.
</event>
<event>
 5    1  0.1764311E-003  0.9118800E+02  0.7818608E-02  0.1130116E+00
         25   -1    0    0    0    0  0.00000000000E+00  0.00000000000E+00  0.99999998245E-14  0.12500000000E+03  0.12500000000E+03 0.  0.
        -13    1    3    3    0    0 -0.42213956435E+02  0.37345941602E+02  0.25203656694E+02  0.61741177077E+02  0.10566000000E+00 0.  1.
         23    2    1    0    0    0 -0.21839258177E+02  0.17537259298E+02  0.51503357672E+01  0.96521330440E+02  0.92224360176E+02 0.  0.
         13    1    3    3    0    0  0.20374698258E+02 -0.19808682305E+02 -0.20053320927E+02  0.34780153363E+02  0.10566000000E+00 0. -1.
         22    1    1    0    0    0  0.21839258177E+02 -0.17537259298E+02 -0.51503357672E+01  0.28478669560E+02  0.00000000000E+00 0.  1.
</event>
<event>
 5    1  0.1764311E-003  0.9118800E+02  0.7818608E-02  0.1130116E+00
         25   -1    0    0    0    0  0.00000000000E+00  0.00000000000E+00  0.99999998245E-14  0.12500000000E+03  0.12500000000E+03 0.  0.
        -13    1    3    3    0    0  0.46836618318E+02  0.22486754078E+02 -0.15711968389E+02  0.54278909709E+02  0.10566000000E+00 0. -1.
         23    2    1    0    0    0  0.62587177584E+01  0.14979813246E+02 -0.23661759006E+02  0.96304265262E+02  0.91929681363E+02 0.  0.
         13    1    3    3    0    0 -0.40577900560E+02 -0.75069408323E+01 -0.79497906170E+01  0.42025355554E+02  0.10566000000E+00 0.  1.
         22    1    1    0    0    0 -0.62587177584E+01 -0.14979813246E+02  0.23661759006E+02  0.28695734738E+02  0.00000000000E+00 0. -1.
</event>
<event>
 5    1  0.1764311E-003  0.9118800E+02  0.7818608E-02  0.1130116E+00
         25   -1    0    0    0    0  0.00000000000E+00  0.00000000000E+00  0.99999998245E-14  0.12500000000E+03  0.12500000000E+03 0.  0.
        -13    1    3    3    0    0 -0.46029456661E+00 -0.35554499385E+02  0.40640155262E+02  0.53999700753E+02  0.10566000000E+00 0.  1.
         23    2    1    0    0    0  0.31085807917E+00  0.14881271924E+01  0.33168894293E+02  0.91796284787E+02  0.85580787545E+02 0.  0.
         13    1    3    3    0    0  0.77115264579E+00  0.37042626578E+02 -0.74712609683E+01  0.37796584034E+02  0.10566000000E+00 0. -1.
         22    1    1    0    0    0 -0.31085807917E+00 -0.14881271924E+01 -0.33168894293E+02  0.33203715213E+02  0.00000000000E+00 0.  1.
</event>
<event>
 5    1  0.1764311E-003  0.9118800E+02  0.7818608E-02  0.1130116E+00
         25   -1    0    0    0    0  0.00000000000E+00  0.00000000000E+00  0.99999998245E-14  0.12500000000E+03  0.12500000000E+03 0.  0.
        -13    1    3    3    0    0  0.20069706945E+02  0.24618300220E+02 -0.82316433794E+01  0.32811963662E+02  0.10566000000E+00 0. -1.
         23    2    1    0    0    0 -0.23013602607E+02 -0.19474619881E+02 -0.16956681315E+01  0.94804602753E+02  0.89867406151E+02 0.  0.
         13    1    3    3    0    0 -0.43083309552E+02 -0.44092920101E+02  0.65359752479E+01  0.61992639091E+02  0.10566000000E+00 0.  1.
         22    1    1    0    0    0  0.23013602607E+02  0.19474619881E+02  0.16956681315E+01  0.30195397247E+02  0.00000000000E+00 0.  1.
</event>
<event>
 5    1  0.1764311E-003  0.9118800E+02  0.7818608E-02  0.1130116E+00
         25   -1    0    0    0    0  0.00000000000E+00  0.00000000000E+00  0.99999998245E-14  0.12500000000E+03  0.12500000000E+03 0.  0.
        -13    1    3    3    0    0  0.14679614864E+02 -0.32565204829E+01 -0.30749673972E+02  0.34229367970E+02  0.10566000000E+00 0. -1.
         23    2    1    0    0    0  0.41529651187E+02 -0.13345682271E+02  0.61298516898E+01  0.80950093704E+02  0.67915561000E+02 0.  0.
         13    1    3    3    0    0  0.26850036322E+02 -0.10089161788E+02  0.36879525661E+02  0.46720725734E+02  0.10566000000E+00 0.  1.
         22    1    1    0    0    0 -0.41529651187E+02  0.13345682271E+02 -0.61298516898E+01  0.44049906296E+02  0.00000000000E+00 0. -1.
</event>
<event>
 5    1  0.1764311E-003  0.9118800E+02  0.7818608E-02  0.1130116E+00
         25   -1    0    0    0    0  0.00000000000E+00  0.00000000000E+00  0.99999998245E-14  0.12500000000E+03  0.12500000000E+03 0.  0.
        -13    1    3    3    0    0  0.43357668272E+02  0.13865330634E+02  0.28370308301E+01  0.45609151489E+02  0.10566000000E+00 0.  1.
         23    2    1    0    0    0  0.11535789496E+02 -0.18234180112E+02 -0.19401187823E+02  0.95983352147E+02  0.91492284028E+02 0.  0.
         13    1    3    3    0    0 -0.31821878776E+02 -0.32099510747E+02 -0.22238218653E+02  0.50374200658E+02  0.10566000000E+00 0. -1.
         22    1    1    0    0    0 -0.11535789496E+02  0.18234180112E+02  0.19401187823E+02  0.29016647853E+02  0.00000000000E+00 0.  1.
</event>
<event>
 5    1  0.1764311E-003  0.9118800E+02  0.7818608E-02  0.1130116E+00
         25   -1    0    0    0    0  0.00000000000E+00  0.00000000000E+00  0.99999998245E-14  0.12500000000E+03  0.12500000000E+03 0.  0.
        -13    1    3    3    0    0  0.51933471479E+01 -0.54355902253E+02 -0.98459993569E+01  0.55484140362E+02  0.10566000000E+00 0. -1.
         23    2    1    0    0    0  0.97150638105E+01 -0.24586192698E+02  0.15072553474E+02  0.94569009145E+02  0.89539110372E+02 0.  0.
         13    1    3    3    0    0  0.45217166625E+01  0.29769709555E+02  0.24918552830E+02  0.39084868783E+02  0.10566000000E+00 0.  1.
         22    1    1    0    0    0 -0.97150638105E+01  0.24586192698E+02 -0.15072553474E+02  0.30430990855E+02  0.00000000000E+00 0. -1.
</event>
<event>
 5    1  0.1764311E-003  0.9118800E+02  0.7818608E-02  0.1130116E+00
         25   -1    0    0    0    0  0.00000000000E+00  0.00000000000E+00  0.99999998245E-14  0.12500000000E+03  0.12500000000E+03 0.  0.
        -13    1    3    3    0    0 -0.40807188212E+02 -0.30008223424E+02 -0.36603988684E+02  0.62494665648E+02  0.10566000000E+00 0.  1.
         23    2    1    0    0    0 -0.19600024596E+02 -0.13992840962E+02 -0.17974168276E+02  0.94949521010E+02  0.90068752919E+02 0.  0.
         13    1    3    3    0    0  0.21207163616E+02  0.16015382462E+02  0.18629820408E+02  0.32454855361E+02  0.10566000000E+00 0. -1.
         22    1    1    0    0    0  0.19600024596E+02  0.13992840962E+02  0.17974168276E+02  0.30050478990E+02  0.00000000000E+00 0.  1.
</event>
<event>
 5    1  0.1764311E-003  0.9118800E+02  0.7818608E-02  0.1130116E+00
         25   -1    0    0    0    0  0.00000000000E+00  0.00000000000E+00  0.99999998245E-14  0.12500000000E+03  0.12500000000E+03 0.  0.
        -13    1    3    3    0    0  0.17139129516E+02 -0.26395674849E+02 -0.24980590051E+02  0.40181120624E+02  0.10566000000E+00 0.  1.
         23    2    1    0    0    0  0.27605311757E+02 -0.19894294420E+01  0.18909730634E+02  0.91480021191E+02  0.85117596875E+02 0.  0.
         13    1    3    3    0    0  0.10466182241E+02  0.24406245407E+02  0.43890320684E+02  0.51298900567E+02  0.10566000000E+00 0. -1.
         22    1    1    0    0    0 -0.27605311757E+02  0.19894294420E+01 -0.18909730634E+02  0.33519978809E+02  0.00000000000E+00 0. -1.
</event>
<event>
 5    1  0.1764311E-003  0.9118800E+02  0.7818608E-02  0.1130116E+00
         25   -1    0    0    0    0  0.00000000000E+00  0.00000000000E+00  0.99999998245E-14  0.12500000000E+03  0.12500000000E+03 0.  0.
        -13    1    3    3    0    0  0.92817446626E+01 -0.29498311471E+02  0.18288634629E+02  0.35927517090E+02  0.10566000000E+00 0. -1.
         23    2    1    0    0    0  0.13267453345E+02  0.22732548546E+02 -0.11598629365E+02  0.96236789386E+02  0.91837886226E+02 0.  0.
         13    1    3    3    0    0  0.39857086826E+01  0.52230860017E+02 -0.29887263994E+02  0.60309272296E+02  0.10566000000E+00 0.  1.
         22    1    1    0    0    0 -0.13267453345E+02 -0.22732548546E+02  0.11598629365E+02  0.28763210614E+02  0.00000000000E+00 0.  1.
</event>
<event>
 5    1  0.1764311E-003  0.9118800E+02  0.7818608E-02  0.1130116E+00
         25   -1    0    0    0    0  0.00000000000E+00  0.00000000000E+00  0.99999998245E-14  0.12500000000E+03  0.12500000000E+03 0.  0.
        -13    1    3    3    0    0  0.14510235876E+02  0.29263103849E+02  0.17023109762E+02  0.36833050676E+02  0.10566000000E+00 0.  1.
         23    2    1    0    0    0  0.11703621301E+02 -0.26031591945E+02 -0.42471105324E+01  0.96144212389E+02  0.91711793665E+02 0.  0.
         13    1    3    3    0    0 -0.28066145752E+01 -0.55294695795E+02 -0.21270220294E+02  0.59311161713E+02  0.10566000000E+00 0. -1.
         22    1    1    0    0    0 -0.11703621301E+02  0.26031591945E+02  0.42471105324E+01  0.28855787611E+02  0.00000000000E+00 0. -1.
</event>
<event>
 5    1  0.1764311E-003  0.9118800E+02  0.7818608E-02  0.1130116E+00
         25   -1    0    0    0    0  0.00000000000E+00  0.00000000000E+00  0.99999998245E-14  0.12500000000E+03  0.12500000000E+03 0.  0.
        -13    1    3    3    0    0 -0.13373790895E+02 -0.57075403921E+02  0.71664092975E+01  0.59057841155E+02  0.10566000000E+00 0. -1.
         23    2    1    0    0    0  0.76785606733E+01 -0.29054139299E+02 -0.53914856187E+00  0.94943486803E+02  0.90060378084E+02 0.  0.
         13    1    3    3    0    0  0.21052351568E+02  0.28021264622E+02 -0.77055578593E+01  0.35885645648E+02  0.10566000000E+00 0.  1.
         22    1    1    0    0    0 -0.76785606733E+01  0.29054139299E+02  0.53914856187E+00  0.30056513197E+02  0.00000000000E+00 0. -1.
</event>
<event>
 5    1  0.1764311E-003  0.9118800E+02  0.7818608E-02  0.1130116E+00
         25   -1    0    0    0    0  0.00000000000E+00  0.00000000000E+00  0.99999998245E-14  0.12500000000E+03  0.12500000000E+03 0.  0.
        -13    1    3    3    0    0  0.19996532277E+02 -0.27200938541E+02  0.12567525467E+02  0.36023689719E+02  0.10566000000E+00 0.  1.
         23    2    1    0    0    0  0.10737054531E+02  0.25761892251E+02 -0.11351062850E+02  0.94870179884E+02  0.89958573639E+02 0.  0.
         13    1    3    3    0    0 -0.92594777466E+01  0.52962830792E+02 -0.23918588317E+02  0.58846490165E+02  0.10566000000E+00 0. -1.
         22    1    1    0    0    0 -0.10737054531E+02 -0.25761892251E+02  0.11351062850E+02  0.30129820116E+02  0.00000000000E+00 0. -1.
</event>
<event>
 5    1  0.1764311E-003  0.9118800E+02  0.7818608E-02  0.1130116E+00
         25   -1    0    0    0    0  0.00000000000E+00  0.00000000000E+00  0.99999998245E-14  0.12500000000E+03  0.12500000000E+03 0.  0.
        -13    1    3    3    0    0  0.31522441339E+02 -0.97532795924E+01  0.13042222336E+02  0.35481001935E+02  0.10566000000E+00 0.  1.
         23    2    1    0    0    0 -0.25667165207E+02  0.43520456136E+01  0.15972196262E+02  0.94457329452E+02  0.89383065303E+02 0.  0.
         13    1    3    3    0    0 -0.57189606547E+02  0.14105325206E+02  0.29299739260E+01  0.58976327517E+02  0.10566000000E+00 0. -1.
         22    1    1    0    0    0  0.25667165207E+02 -0.43520456136E+01 -0.15972196262E+02  0.30542670548E+02  0.00000000000E+00 0. -1.
</event>
<event>
 5    1  0.1764311E-003  0.9118800E+02  0.7818608E-02  0.1130116E+00
         25   -1    0    0    0    0  0.00000000000E+00  0.00000000000E+00  0.99999998245E-14  0.12500000000E+03  0.12500000000E+03 0.  0.
        -13    1    3    3    0    0  0.24163729313E+02  0.20688425852E+02  0.19602768984E+02  0.37365445192E+02  0.10566000000E+00 0.  1.
         23    2    1    0    0    0 -0.13808274674E+02 -0.21332782598E+02  0.17696039451E+02  0.94033794629E+02  0.88788786776E+02 0.  0.
         13    1    3    3    0    0 -0.37972003987E+02 -0.42021208449E+02 -0.19067295329E+01  0.56668349437E+02  0.10566000000E+00 0. -1.
         22    1    1    0    0    0  0.13808274674E+02  0.21332782598E+02 -0.17696039451E+02  0.30966205371E+02  0.00000000000E+00 0. -1.
</event>
<event>
 5    1  0.1764311E-003  0.9118800E+02  0.7818608E-02  0.1130116E+00
         25   -1    0    0    0    0  0.00000000000E+00  0.00000000000E+00  0.99999998245E-14  0.12500000000E+03  0.12500000000E+03 0.  0.
        -13    1    3    3    0    0 -0.16802469304E+02 -0.45557851407E+02 -0.32659945579E+02  0.58519432745E+02  0.10566000000E+00 0. -1.
         23    2    1    0    0    0 -0.13587409637E+02 -0.25798047294E+02 -0.11891892326E+01  0.95818308550E+02  0.91266517067E+02 0.  0.
         13    1    3    3    0    0  0.32150596676E+01  0.19759804113E+02  0.31470756347E+02  0.37298875805E+02  0.10566000000E+00 0.  1.
         22    1    1    0    0    0  0.13587409637E+02  0.25798047294E+02  0.11891892326E+01  0.29181691450E+02  0.00000000000E+00 0. -1.
</event>
<event>
 5    1  0.1764311E-003  0.9118800E+02  0.7818608E-02  0.1130116E+00
         25   -1    0    0    0    0  0.00000000000E+00  0.00000000000E+00  0.99999998245E-14  0.12500000000E+03  0.12500000000E+03 0.  0.
        -13    1    3    3    0    0 -0.47180733476E+02  0.68213782239E+01 -0.37840035735E+02  0.60864047522E+02  0.10566000000E+00 0. -1.
         23    2    1    0    0    0 -0.26949442780E+02  0.54908749460E+01 -0.91112286772E+01  0.96026966644E+02  0.91551852308E+02 0.  0.
         13    1    3    3    0    0  0.20231290696E+02 -0.13305032779E+01  0.28728807058E+02  0.35162919123E+02  0.10566000000E+00 0.  1.
         22    1    1    0    0    0  0.26949442780E+02 -0.54908749460E+01  0.91112286772E+01  0.28973033356E+02  0.00000000000E+00 0. -1.
</event>
<event>
 5    1  0.1764311E-003  0.9118800E+02  0.7818608E-02  0.1130116E+00
         25   -1    0    0    0    0  0.00000000000E+00  0.00000000000E+00  0.99999998245E-14  0.12500000000E+03  0.12500000000E+03 0.  0.
        -13    1    3    3    0    0  0.44471236966E+02 -0.17996559371E+02  0.23377952621E+02  0.53367657802E+02  0.10566000000E+00 0.  1.
         23    2    1    0    0    0  0.26959333715E+02  0.97479183933E+01 -0.39428059189E+01  0.96062596767E+02  0.91600486853E+02 0.  0.
         13    1    3    3    0    0 -0.17511903251E+02  0.27744477765E+02 -0.27320758540E+02  0.42694938964E+02  0.10566000000E+00 0. -1.
         22    1    1    0    0    0 -0.26959333715E+02 -0.97479183933E+01  0.39428059189E+01  0.28937403233E+02  0.00000000000E+00 0. -1.
</event>
<event>
 5    1  0.1764311E-003  0.9118800E+02  0.7818608E-02  0.1130116E+00
         25   -1    0    0    0    0  0.00000000000E+00  0.00000000000E+00  0.99999998245E-14  0.12500000000E+03  0.12500000000E+03 0.  0.
        -13    1    3    3    0    0 -0.20919568853E+02  0.32684358516E+02 -0.19792159375E+02  0.43561868525E+02  0.10566000000E+00 0. -1.
         23    2    1    0    0    0  0.19344505014E+02 -0.24059475269E+01 -0.20138590927E+02  0.96972133469E+02  0.92833363438E+02 0.  0.
         13    1    3    3    0    0  0.40264073867E+02 -0.35090306043E+02 -0.34643155247E+00  0.53410264944E+02  0.10566000000E+00 0.  1.
         22    1    1    0    0    0 -0.19344505014E+02  0.24059475269E+01  0.20138590927E+02  0.28027866531E+02  0.00000000000E+00 0.  1.
</event>
<event>
 5    1  0.1764311E-003  0.9118800E+02  0.7818608E-02  0.1130116E+00
         25   -1    0    0    0    0  0.00000000000E+00  0.00000000000E+00  0.99999998245E-14  0.12500000000E+03  0.12500000000E+03 0.  0.
        -13    1    3    3    0    0  0.54190298673E+01 -0.12820161383E+02  0.33513193900E+02  0.36288672503E+02  0.10566000000E+00 0.  1.
         23    2    1    0    0    0  0.89100696893E+01  0.28853565377E+02 -0.64366341115E+01  0.94123668684E+02  0.88915224630E+02 0.  0.
         13    1    3    3    0    0  0.34910398219E+01  0.41673726760E+02 -0.39949828011E+02  0.57834996182E+02  0.10566000000E+00 0. -1.
         22    1    1    0    0    0 -0.89100696893E+01 -0.28853565377E+02  0.64366341115E+01  0.30876331316E+02  0.00000000000E+00 0. -1.
</event>
<event>
 5    1  0.1764311E-003  0.9118800E+02  0.7818608E-02  0.1130116E+00
         25   -1    0    0    0    0  0.00000000000E+00  0.00000000000E+00  0.99999998245E-14  0.12500000000E+03  0.12500000000E+03 0.  0.
        -13    1    3    3    0    0 -0.21542332310E+01 -0.26630635661E+02 -0.54413190280E+02  0.60618791781E+02  0.10566000000E+00 0. -1.
         23    2    1    0    0    0 -0.66294466448E+01 -0.17757228085E+02 -0.16317981605E+02  0.99989097663E+02  0.96810507775E+02 0.  0.
         13    1    3    3    0    0 -0.44752134138E+01  0.88734075761E+01  0.38095208676E+02  0.39370305881E+02  0.10566000000E+00 0.  1.
         22    1    1    0    0    0  0.66294466448E+01  0.17757228085E+02  0.16317981605E+02  0.25010902337E+02  0.00000000000E+00 0. -1.
</event>
<event>
 5    1  0.1764311E-003  0.9118800E+02  0.7818608E-02  0.1130116E+00
         25   -1    0    0    0    0  0.00000000000E+00  0.00000000000E+00  0.99999998245E-14  0.12500000000E+03  0.12500000000E+03 0.  0.
        -13    1    3    3    0    0  0.34057562893E+02  0.68012561130E+01 -0.12568381758E+02  0.36934402107E+02  0.10566000000E+00 0. -1.
         23    2    1    0    0    0 -0.13344742509E+02  0.55773536085E+01  0.24111267748E+02  0.96883416667E+02  0.92713829425E+02 0.  0.
         13    1    3    3    0    0 -0.47402305402E+02 -0.12239025044E+01  0.36679649506E+02  0.59949014560E+02  0.10566000000E+00 0.  1.
         22    1    1    0    0    0  0.13344742509E+02 -0.55773536085E+01 -0.24111267748E+02  0.28116583333E+02  0.00000000000E+00 0.  1.
</event>
<event>
 5    1  0.1764311E-003  0.9118800E+02  0.7818608E-02  0.1130116E+00
         25   -1    0    0    0    0  0.00000000000E+00  0.00000000000E+00  0.99999998245E-14  0.12500000000E+03  0.12500000000E+03 0.  0.
        -13    1    3    3    0    0  0.13218781611E+02  0.24134888448E+02  0.51054781166E+02  0.57998541978E+02  0.10566000000E+00 0.  1.
         23    2    1    0    0    0 -0.10447064940E+02  0.81297750996E+01  0.25219185358E+02  0.96517694631E+02  0.92219432105E+02 0.  0.
         13    1    3    3    0    0 -0.23665846551E+02 -0.16005113348E+02 -0.25835595808E+02  0.38519152652E+02  0.10566000000E+00 0. -1.
         22    1    1    0    0    0  0.10447064940E+02 -0.81297750996E+01 -0.25219185358E+02  0.28482305369E+02  0.00000000000E+00 0.  1.
</event>
<event>
 5    1  0.1764311E-003  0.9118800E+02  0.7818608E-02  0.1130116E+00
         25   -1    0    0    0    0  0.00000000000E+00  0.00000000000E+00  0.99999998245E-14  0.12500000000E+03  0.12500000000E+03 0.  0.
        -13    1    3    3    0    0  0.25153566992E+01 -0.28048164730E+02  0.21614696187E+02  0.35499758018E+02  0.10566000000E+00 0.  1.
         23    2    1    0    0    0 -0.27062190850E+02 -0.15120197235E+01 -0.18672298491E+02  0.92086429726E+02  0.86003531507E+02 0.  0.
         13    1    3    3    0    0 -0.29577547549E+02  0.26536145006E+02 -0.40286994678E+02  0.56586671708E+02  0.10566000000E+00 0. -1.
         22    1    1    0    0    0  0.27062190850E+02  0.15120197235E+01  0.18672298491E+02  0.32913570274E+02  0.00000000000E+00 0. -1.
</event>
<event>
 5    1  0.1764311E-003  0.9118800E+02  0.7818608E-02  0.1130116E+00
         25   -1    0    0    0    0  0.00000000000E+00  0.00000000000E+00  0.99999998245E-14  0.12500000000E+03  0.12500000000E+03 0.  0.
        -13    1    3    3    0    0 -0.32235031917E+02  0.20248180220E+02  0.16862204172E+02  0.41634495055E+02  0.10566000000E+00 0.  1.
         23    2    1    0    0    0  0.15966890810E+02  0.23594795608E+02 -0.72031678068E+01  0.95613921521E+02  0.90986154882E+02 0.  0.
         13    1    3    3    0    0  0.48201922727E+02  0.33466153882E+01 -0.24065371979E+02  0.53979426466E+02  0.10566000000E+00 0. -1.
         22    1    1    0    0    0 -0.15966890810E+02 -0.23594795608E+02  0.72031678068E+01  0.29386078479E+02  0.00000000000E+00 0. -1.
</event>
<event>
 5    1  0.1764311E-003  0.9118800E+02  0.7818608E-02  0.1130116E+00
         25   -1    0    0    0    0  0.00000000000E+00  0.00000000000E+00  0.99999998245E-14  0.12500000000E+03  0.12500000000E+03 0.  0.
        -13    1    3    3    0    0 -0.25372387459E+01 -0.35331638339E+02 -0.56500654061E+01  0.35870554098E+02  0.10566000000E+00 0. -1.
         23    2    1    0    0    0  0.17427981890E+02  0.22077097028E+02 -0.30568886277E+01  0.96707291858E+02  0.92476066982E+02 0.  0.
         13    1    3    3    0    0  0.19965220636E+02  0.57408735367E+02  0.25931767783E+01  0.60836737760E+02  0.10566000000E+00 0.  1.
         22    1    1    0    0    0 -0.17427981890E+02 -0.22077097028E+02  0.30568886277E+01  0.28292708142E+02  0.00000000000E+00 0.  1.
</event>
<event>
 5    1  0.1764311E-003  0.9118800E+02  0.7818608E-02  0.1130116E+00
         25   -1    0    0    0    0  0.00000000000E+00  0.00000000000E+00  0.99999998245E-14  0.12500000000E+03  0.12500000000E+03 0.  0.
        -13    1    3    3    0    0  0.24017861853E+02  0.44731092865E+02  0.32774846736E+02  0.60431201374E+02  0.10566000000E+00 0. -1.
         23    2    1    0    0    0  0.19795793041E+01  0.26098153207E+02  0.10883941918E+02  0.96654056256E+02  0.92404080343E+02 0.  0.
         13    1    3    3    0    0 -0.22038282549E+02 -0.18632939658E+02 -0.21890904818E+02  0.36222854882E+02  0.10566000000E+00 0.  1.
         22    1    1    0    0    0 -0.19795793041E+01 -0.26098153207E+02 -0.10883941918E+02  0.28345943744E+02  0.00000000000E+00 0. -1.
</event>
<event>
 5    1  0.1764311E-003  0.9118800E+02  0.7818608E-02  0.1130116E+00
         25   -1    0    0    0    0  0.00000000000E+00  0.00000000000E+00  0.99999998245E-14  0.12500000000E+03  0.12500000000E+03 0.  0.
        -13    1    3    3    0    0 -0.10666250018E+02  0.69474957323E+01  0.14188928103E+02  0.19062356390E+02  0.10566000000E+00 0.  1.
         23    2    1    0    0    0 -0.21375989720E+02 -0.31221005635E+02 -0.28732157856E+02  0.77489779790E+02  0.61216378098E+02 0.  0.
         13    1    3    3    0    0 -0.10709739701E+02 -0.38168501367E+02 -0.42921085960E+02  0.58427423399E+02  0.10566000000E+00 0. -1.
         22    1    1    0    0    0  0.21375989720E+02  0.31221005635E+02  0.28732157856E+02  0.47510220210E+02  0.00000000000E+00 0. -1.
</event>
<event>
 5    1  0.1764311E-003  0.9118800E+02  0.7818608E-02  0.1130116E+00
         25   -1    0    0    0    0  0.00000000000E+00  0.00000000000E+00  0.99999998245E-14  0.12500000000E+03  0.12500000000E+03 0.  0.
        -13    1    3    3    0    0  0.13204146358E+02 -0.31366095607E+02 -0.16872550356E+02  0.37985201780E+02  0.10566000000E+00 0. -1.
         23    2    1    0    0    0  0.33037283915E+01  0.43879982796E+01  0.28147232022E+02  0.96321858137E+02  0.91953599899E+02 0.  0.
         13    1    3    3    0    0 -0.99004179668E+01  0.35754093887E+02  0.45019782378E+02  0.58336656358E+02  0.10566000000E+00 0.  1.
         22    1    1    0    0    0 -0.33037283915E+01 -0.43879982796E+01 -0.28147232022E+02  0.28678141863E+02  0.00000000000E+00 0.  1.
</event>
<event>
 5    1  0.1764311E-003  0.9118800E+02  0.7818608E-02  0.1130116E+00
         25   -1    0    0    0    0  0.00000000000E+00  0.00000000000E+00  0.99999998245E-14  0.12500000000E+03  0.12500000000E+03 0.  0.
        -13    1    3    3    0    0 -0.13466019940E+02  0.21501028910E+02  0.26843189081E+02  0.36935022692E+02  0.10566000000E+00 0. -1.
         23    2    1    0    0    0  0.18349514488E+02  0.37659328446E+01 -0.20865905878E+02  0.96959440800E+02  0.92816271203E+02 0.  0.
         13    1    3    3    0    0  0.31815534428E+02 -0.17735096065E+02 -0.47709094959E+02  0.60024418108E+02  0.10566000000E+00 0.  1.
         22    1    1    0    0    0 -0.18349514488E+02 -0.37659328446E+01  0.20865905878E+02  0.28040559200E+02  0.00000000000E+00 0.  1.
</event>
<event>
 5    1  0.1764311E-003  0.9118800E+02  0.7818608E-02  0.1130116E+00
         25   -1    0    0    0    0  0.00000000000E+00  0.00000000000E+00  0.99999998245E-14  0.12500000000E+03  0.12500000000E+03 0.  0.
        -13    1    3    3    0    0  0.53245969351E+02  0.12930723733E+01 -0.12712917227E+02  0.54757964871E+02  0.10566000000E+00 0.  1.
         23    2    1    0    0    0  0.17080680716E+02  0.99113576546E+01 -0.24288414511E+02  0.93696457968E+02  0.88312595319E+02 0.  0.
         13    1    3    3    0    0 -0.36165288635E+02  0.86182852813E+01 -0.11575497285E+02  0.38938493097E+02  0.10566000000E+00 0. -1.
         22    1    1    0    0    0 -0.17080680716E+02 -0.99113576546E+01  0.24288414511E+02  0.31303542032E+02  0.00000000000E+00 0.  1.
</event>
<event>
 5    1  0.1764311E-003  0.9118800E+02  0.7818608E-02  0.1130116E+00
         25   -1    0    0    0    0  0.00000000000E+00  0.00000000000E+00  0.99999998245E-14  0.12500000000E+03  0.12500000000E+03 0.  0.
        -13    1    3    3    0    0 -0.37435075122E+02  0.18843688449E+02 -0.36789061289E+02  0.55766617598E+02  0.10566000000E+00 0. -1.
         23    2    1    0    0    0 -0.24180052803E+01  0.19692640343E+02 -0.25750952343E+02  0.92492179714E+02  0.86591252031E+02 0.  0.
         13    1    3    3    0    0  0.35017069841E+02  0.84895189389E+00  0.11038108946E+02  0.36725562116E+02  0.10566000000E+00 0.  1.
         22    1    1    0    0    0  0.24180052803E+01 -0.19692640343E+02  0.25750952343E+02  0.32507820286E+02  0.00000000000E+00 0. -1.
</event>
<event>
 5    1  0.1764311E-003  0.9118800E+02  0.7818608E-02  0.1130116E+00
         25   -1    0    0    0    0  0.00000000000E+00  0.00000000000E+00  0.99999998245E-14  0.12500000000E+03  0.12500000000E+03 0.  0.
        -13    1    3    3    0    0 -0.37444486439E+02 -0.87291520963E+01  0.49006799064E+01  0.38759714764E+02  0.10566000000E+00 0.  1.
         23    2    1    0    0    0  0.14250792065E+02 -0.26624779733E+02 -0.51059297579E+01  0.94372651290E+02  0.89264566445E+02 0.  0.
         13    1    3    3    0    0  0.51695278504E+02 -0.17895627636E+02 -0.10006609664E+02  0.55612936526E+02  0.10566000000E+00 0. -1.
         22    1    1    0    0    0 -0.14250792065E+02  0.26624779733E+02  0.51059297579E+01  0.30627348710E+02  0.00000000000E+00 0. -1.
</event>
<event>
 5    1  0.1764311E-003  0.9118800E+02  0.7818608E-02  0.1130116E+00
         25   -1    0    0    0    0  0.00000000000E+00  0.00000000000E+00  0.99999998245E-14  0.12500000000E+03  0.12500000000E+03 0.  0.
        -13    1    3    3    0    0  0.20464387272E+02 -0.12606525840E+02  0.22620897740E+02  0.33006542061E+02  0.10566000000E+00 0. -1.
         23    2    1    0    0    0 -0.13775129463E+02  0.14386856257E+02 -0.21952050128E+02  0.95358334569E+02  0.90634340304E+02 0.  0.
         13    1    3    3    0    0 -0.34239516735E+02  0.26993382097E+02 -0.44572947869E+02  0.62351792509E+02  0.10566000000E+00 0.  1.
         22    1    1    0    0    0  0.13775129463E+02 -0.14386856257E+02  0.21952050128E+02  0.29641665431E+02  0.00000000000E+00 0.  1.
</event>
<event>
 5    1  0.1764311E-003  0.9118800E+02  0.7818608E-02  0.1130116E+00
         25   -1    0    0    0    0  0.00000000000E+00  0.00000000000E+00  0.99999998245E-14  0.12500000000E+03  0.12500000000E+03 0.  0.
        -13    1    3    3    0    0  0.15078174909E+02 -0.27790013176E+02  0.11174384504E+02  0.33533777359E+02  0.10566000000E+00 0.  1.
         23    2    1    0    0    0  0.56176577331E+01  0.23200463038E+02  0.28139974873E+02  0.88099081998E+02  0.79998565609E+02 0.  0.
         13    1    3    3    0    0 -0.94605171757E+01  0.50990476214E+02  0.16965590369E+02  0.54565304639E+02  0.10566000000E+00 0. -1.
         22    1    1    0    0    0 -0.56176577331E+01 -0.23200463038E+02 -0.28139974873E+02  0.36900918002E+02  0.00000000000E+00 0. -1.
</event>
<event>
 5    1  0.1764311E-003  0.9118800E+02  0.7818608E-02  0.1130116E+00
         25   -1    0    0    0    0  0.00000000000E+00  0.00000000000E+00  0.99999998245E-14  0.12500000000E+03  0.12500000000E+03 0.  0.
        -13    1    3    3    0    0 -0.15338462369E+02  0.33825872972E+02  0.16069341245E+02  0.40468419814E+02  0.10566000000E+00 0. -1.
         23    2    1    0    0    0  0.26078252509E+02  0.99433394829E+01 -0.10519237716E+02  0.95173843423E+02  0.90379537816E+02 0.  0.
         13    1    3    3    0    0  0.41416714878E+02 -0.23882533489E+02 -0.26588578961E+02  0.54705423610E+02  0.10566000000E+00 0.  1.
         22    1    1    0    0    0 -0.26078252509E+02 -0.99433394829E+01  0.10519237716E+02  0.29826156577E+02  0.00000000000E+00 0.  1.
</event>
<event>
 5    1  0.1764311E-003  0.9118800E+02  0.7818608E-02  0.1130116E+00
         25   -1    0    0    0    0  0.00000000000E+00  0.00000000000E+00  0.99999998245E-14  0.12500000000E+03  0.12500000000E+03 0.  0.
        -13    1    3    3    0    0  0.81471775996E+01  0.11785511658E+01  0.40964186245E+02  0.41783264646E+02  0.10566000000E+00 0.  1.
         23    2    1    0    0    0 -0.16475422646E+02  0.29845648852E+02  0.14311042883E+02  0.88026925268E+02  0.79885739134E+02 0.  0.
         13    1    3    3    0    0 -0.24622600246E+02  0.28667097686E+02 -0.26653143362E+02  0.46243660622E+02  0.10566000000E+00 0. -1.
         22    1    1    0    0    0  0.16475422646E+02 -0.29845648852E+02 -0.14311042883E+02  0.36973074732E+02  0.00000000000E+00 0. -1.
</event>
<event>
 5    1  0.1764311E-003  0.9118800E+02  0.7818608E-02  0.1130116E+00
         25   -1    0    0    0    0  0.00000000000E+00  0.00000000000E+00  0.99999998245E-14  0.12500000000E+03  0.12500000000E+03 0.  0.
        -13    1    3    3    0    0  0.27859657543E+02  0.10708081049E+02  0.13122134811E+02  0.32604065762E+02  0.10566000000E+00 0. -1.
         23    2    1    0    0    0 -0.17493859608E+02 -0.17559340271E+02 -0.17926520464E+02  0.94410366287E+02  0.89317364335E+02 0.  0.
         13    1    3    3    0    0 -0.45353517152E+02 -0.28267421321E+02 -0.31048655275E+02  0.61806300525E+02  0.10566000000E+00 0.  1.
         22    1    1    0    0    0  0.17493859608E+02  0.17559340271E+02  0.17926520464E+02  0.30589633713E+02  0.00000000000E+00 0.  1.
</event>
<event>
 5    1  0.1764311E-003  0.9118800E+02  0.7818608E-02  0.1130116E+00
         25   -1    0    0    0    0  0.00000000000E+00  0.00000000000E+00  0.99999998245E-14  0.12500000000E+03  0.12500000000E+03 0.  0.
        -13    1    3    3    0    0 -0.17270584142E+02  0.13519963251E+02  0.57994734584E+02  0.62003732842E+02  0.10566000000E+00 0.  1.
         23    2    1    0    0    0 -0.13005511253E+02  0.12458080358E+02  0.32784060186E+02  0.87594897522E+02  0.79206845540E+02 0.  0.
         13    1    3    3    0    0  0.42650728888E+01 -0.10618828924E+01 -0.25210674398E+02  0.25591164679E+02  0.10566000000E+00 0. -1.
         22    1    1    0    0    0  0.13005511253E+02 -0.12458080358E+02 -0.32784060186E+02  0.37405102478E+02  0.00000000000E+00 0.  1.
</event>
<event>
 5    1  0.1764311E-003  0.9118800E+02  0.7818608E-02  0.1130116E+00
         25   -1    0    0    0    0  0.00000000000E+00  0.00000000000E+00  0.99999998245E-14  0.12500000000E+03  0.12500000000E+03 0.  0.
        -13    1    3    3    0    0 -0.11744694618E+02 -0.32193700070E+02 -0.92476255725E+01  0.35495097107E+02  0.10566000000E+00 0.  1.
         23    2    1    0    0    0 -0.70308311595E+01  0.27886004189E+02 -0.26574002971E+01  0.96118802090E+02  0.91677153765E+02 0.  0.
         13    1    3    3    0    0  0.47138634583E+01  0.60079704259E+02  0.65902252754E+01  0.60623704982E+02  0.10566000000E+00 0. -1.
         22    1    1    0    0    0  0.70308311595E+01 -0.27886004189E+02  0.26574002971E+01  0.28881197910E+02  0.00000000000E+00 0. -1.
</event>
<event>
 5    1  0.1764311E-003  0.9118800E+02  0.7818608E-02  0.1130116E+00
         25   -1    0    0    0    0  0.00000000000E+00  0.00000000000E+00  0.99999998245E-14  0.12500000000E+03  0.12500000000E+03 0.  0.
        -13    1    3    3    0    0  0.18615474593E+02 -0.55458465120E+00 -0.45783223198E+02  0.49426290058E+02  0.10566000000E+00 0. -1.
         23    2    1    0    0    0 -0.20682392134E+02 -0.50294279441E+00 -0.18279555231E+02  0.97392819136E+02  0.93398098395E+02 0.  0.
         13    1    3    3    0    0 -0.39297866727E+02  0.51641856791E-01  0.27503667967E+02  0.47966529078E+02  0.10566000000E+00 0.  1.
         22    1    1    0    0    0  0.20682392134E+02  0.50294279441E+00  0.18279555231E+02  0.27607180864E+02  0.00000000000E+00 0.  1.
</event>
<event>
 5    1  0.1764311E-003  0.9118800E+02  0.7818608E-02  0.1130116E+00
         25   -1    0    0    0    0  0.00000000000E+00  0.00000000000E+00  0.99999998245E-14  0.12500000000E+03  0.12500000000E+03 0.  0.
        -13    1    3    3    0    0  0.19825698345E+02  0.33353586348E+02  0.60342547924E+01  0.39267587551E+02  0.10566000000E+00 0.  1.
         23    2    1    0    0    0 -0.34309289904E+01 -0.13101014533E+02  0.26607706764E+02  0.95144047247E+02  0.90338318624E+02 0.  0.
         13    1    3    3    0    0 -0.23256627336E+02 -0.46454600882E+02  0.20573451971E+02  0.55876459696E+02  0.10566000000E+00 0. -1.
         22    1    1    0    0    0  0.34309289904E+01  0.13101014533E+02 -0.26607706764E+02  0.29855952753E+02  0.00000000000E+00 0. -1.
</event>
<event>
 5    1  0.1764311E-003  0.9118800E+02  0.7818608E-02  0.1130116E+00
         25   -1    0    0    0    0  0.00000000000E+00  0.00000000000E+00  0.99999998245E-14  0.12500000000E+03  0.12500000000E+03 0.  0.
        -13    1    3    3    0    0  0.37888930545E+02  0.98545044251E+01  0.43046798806E+02  0.58186943267E+02  0.10566000000E+00 0.  1.
         23    2    1    0    0    0  0.57975492920E+01 -0.27018274338E+01  0.28836864355E+02  0.95462291979E+02  0.90777601835E+02 0.  0.
         13    1    3    3    0    0 -0.32091381253E+02 -0.12556331859E+02 -0.14209934451E+02  0.37275348712E+02  0.10566000000E+00 0. -1.
         22    1    1    0    0    0 -0.57975492920E+01  0.27018274338E+01 -0.28836864355E+02  0.29537708021E+02  0.00000000000E+00 0.  1.
</event>
<event>
 5    1  0.1764311E-003  0.9118800E+02  0.7818608E-02  0.1130116E+00
         25   -1    0    0    0    0  0.00000000000E+00  0.00000000000E+00  0.99999998245E-14  0.12500000000E+03  0.12500000000E+03 0.  0.
        -13    1    3    3    0    0 -0.43452737190E+02 -0.32317095422E+02  0.25203961465E+01  0.54211609334E+02  0.10566000000E+00 0. -1.
         23    2    1    0    0    0 -0.29723208888E+02  0.56883130771E+01 -0.49436921064E+00  0.94733344203E+02  0.89768235198E+02 0.  0.
         13    1    3    3    0    0  0.13729528302E+02  0.38005408499E+02 -0.30147653571E+01  0.40521734869E+02  0.10566000000E+00 0.  1.
         22    1    1    0    0    0  0.29723208888E+02 -0.56883130771E+01  0.49436921064E+00  0.30266655797E+02  0.00000000000E+00 0.  1.
</event>
<event>
 5    1  0.1764311E-003  0.9118800E+02  0.7818608E-02  0.1130116E+00
         25   -1    0    0    0    0  0.00000000000E+00  0.00000000000E+00  0.99999998245E-14  0.12500000000E+03  0.12500000000E+03 0.  0.
        -13    1    3    3    0    0  0.36904995561E+02 -0.46851992783E+01 -0.21257954331E+02  0.42846721882E+02  0.10566000000E+00 0.  1.
         23    2    1    0    0    0  0.58851291081E+00 -0.26552479362E+02  0.11138062749E+02  0.96200052959E+02  0.91787870876E+02 0.  0.
         13    1    3    3    0    0 -0.36316482650E+02 -0.21867280084E+02  0.32396017080E+02  0.53353331078E+02  0.10566000000E+00 0. -1.
         22    1    1    0    0    0 -0.58851291081E+00  0.26552479362E+02 -0.11138062749E+02  0.28799947041E+02  0.00000000000E+00 0. -1.
</event>
<event>
 5    1  0.1764311E-003  0.9118800E+02  0.7818608E-02  0.1130116E+00
         25   -1    0    0    0    0  0.00000000000E+00  0.00000000000E+00  0.99999998245E-14  0.12500000000E+03  0.12500000000E+03 0.  0.
        -13    1    3    3    0    0 -0.18367475787E+01  0.25668713119E+02 -0.56841046702E+02  0.62395290120E+02  0.10566000000E+00 0. -1.
         23    2    1    0    0    0  0.10989782505E+01  0.10641245465E+02 -0.19408442733E+02  0.10283851297E+03  0.10042224973E+03 0.  0.
         13    1    3    3    0    0  0.29357258292E+01 -0.15027467653E+02  0.37432603970E+02  0.40443222846E+02  0.10566000000E+00 0.  1.
         22    1    1    0    0    0 -0.10989782505E+01 -0.10641245465E+02  0.19408442733E+02  0.22161487034E+02  0.00000000000E+00 0. -1.
</event>
<event>
 5    1  0.1764311E-003  0.9118800E+02  0.7818608E-02  0.1130116E+00
         25   -1    0    0    0    0  0.00000000000E+00  0.00000000000E+00  0.99999998245E-14  0.12500000000E+03  0.12500000000E+03 0.  0.
        -13    1    3    3    0    0 -0.20744042095E+02 -0.18522281777E+02 -0.49560317698E+02  0.56829802560E+02  0.10566000000E+00 0. -1.
         23    2    1    0    0    0 -0.17965154722E+02 -0.21037348180E+02 -0.11555338958E+02  0.95019295187E+02  0.90165535527E+02 0.  0.
         13    1    3    3    0    0  0.27788873727E+01 -0.25150664021E+01  0.38004978740E+02  0.38189492627E+02  0.10566000000E+00 0.  1.
         22    1    1    0    0    0  0.17965154722E+02  0.21037348180E+02  0.11555338958E+02  0.29980704813E+02  0.00000000000E+00 0. -1.
</event>
<event>
 5    1  0.1764311E-003  0.9118800E+02  0.7818608E-02  0.1130116E+00
         25   -1    0    0    0    0  0.00000000000E+00  0.00000000000E+00  0.99999998245E-14  0.12500000000E+03  0.12500000000E+03 0.  0.
        -13    1    3    3    0    0  0.26913929150E+02 -0.41805676160E+01 -0.23830892229E+02  0.36190597071E+02  0.10566000000E+00 0.  1.
         23    2    1    0    0    0 -0.25584205803E+02 -0.17756227943E+02 -0.58969777332E+01  0.93304423593E+02  0.87755945088E+02 0.  0.
         13    1    3    3    0    0 -0.52498134953E+02 -0.13575660327E+02  0.17933914496E+02  0.57113826523E+02  0.10566000000E+00 0. -1.
         22    1    1    0    0    0  0.25584205803E+02  0.17756227943E+02  0.58969777332E+01  0.31695576407E+02  0.00000000000E+00 0. -1.
</event>
<event>
 5    1  0.1764311E-003  0.9118800E+02  0.7818608E-02  0.1130116E+00
         25   -1    0    0    0    0  0.00000000000E+00  0.00000000000E+00  0.99999998245E-14  0.12500000000E+03  0.12500000000E+03 0.  0.
        -13    1    3    3    0    0  0.91553067782E+01 -0.86033568602E+01 -0.42321433488E+02  0.44146939735E+02  0.10566000000E+00 0.  1.
         23    2    1    0    0    0  0.24710316139E+02  0.17173830592E+02 -0.14993273779E+01  0.94870476879E+02  0.89958986321E+02 0.  0.
         13    1    3    3    0    0  0.15555009361E+02  0.25777187452E+02  0.40822106110E+02  0.50723537144E+02  0.10566000000E+00 0. -1.
         22    1    1    0    0    0 -0.24710316139E+02 -0.17173830592E+02  0.14993273779E+01  0.30129523121E+02  0.00000000000E+00 0.  1.
</event>
<event>
 5    1  0.1764311E-003  0.9118800E+02  0.7818608E-02  0.1130116E+00
         25   -1    0    0    0    0  0.00000000000E+00  0.00000000000E+00  0.99999998245E-14  0.12500000000E+03  0.12500000000E+03 0.  0.
        -13    1    3    3    0    0  0.38015738022E+02  0.12555595748E+02  0.22945256801E+02  0.46144721211E+02  0.10566000000E+00 0. -1.
         23    2    1    0    0    0 -0.86819818455E+01  0.25527666686E+02  0.74909123321E+01  0.97015140830E+02  0.92891254741E+02 0.  0.
         13    1    3    3    0    0 -0.46697719867E+02  0.12972070939E+02 -0.15454344469E+02  0.50870419619E+02  0.10566000000E+00 0.  1.
         22    1    1    0    0    0  0.86819818455E+01 -0.25527666686E+02 -0.74909123321E+01  0.27984859170E+02  0.00000000000E+00 0. -1.
</event>
<event>
 5    1  0.1764311E-003  0.9118800E+02  0.7818608E-02  0.1130116E+00
         25   -1    0    0    0    0  0.00000000000E+00  0.00000000000E+00  0.99999998245E-14  0.12500000000E+03  0.12500000000E+03 0.  0.
        -13    1    3    3    0    0 -0.22616703956E+02 -0.32239415195E+02 -0.34371936297E+02  0.52271754885E+02  0.10566000000E+00 0.  1.
         23    2    1    0    0    0  0.11227757022E+02 -0.26158351064E+02 -0.85393222013E+01  0.95280614378E+02  0.90527087628E+02 0.  0.
         13    1    3    3    0    0  0.33844460978E+02  0.60810641310E+01  0.25832614095E+02  0.43008859493E+02  0.10566000000E+00 0. -1.
         22    1    1    0    0    0 -0.11227757022E+02  0.26158351064E+02  0.85393222013E+01  0.29719385622E+02  0.00000000000E+00 0.  1.
</event>
<event>
 5    1  0.1764311E-003  0.9118800E+02  0.7818608E-02  0.1130116E+00
         25   -1    0    0    0    0  0.00000000000E+00  0.00000000000E+00  0.99999998245E-14  0.12500000000E+03  0.12500000000E+03 0.  0.
        -13    1    3    3    0    0 -0.13773225147E+02  0.59463418476E+02  0.45769259321E+01  0.61209143784E+02  0.10566000000E+00 0.  1.
         23    2    1    0    0    0 -0.67481080284E+01  0.27849776013E+02 -0.68252342480E+01  0.95542729107E+02  0.90888295598E+02 0.  0.
         13    1    3    3    0    0  0.70251171186E+01 -0.31613642463E+02 -0.11402160180E+02  0.34333585323E+02  0.10566000000E+00 0. -1.
         22    1    1    0    0    0  0.67481080284E+01 -0.27849776013E+02  0.68252342480E+01  0.29457270893E+02  0.00000000000E+00 0.  1.
</event>
<event>
 5    1  0.1764311E-003  0.9118800E+02  0.7818608E-02  0.1130116E+00
         25   -1    0    0    0    0  0.00000000000E+00  0.00000000000E+00  0.99999998245E-14  0.12500000000E+03  0.12500000000E+03 0.  0.
        -13    1    3    3    0    0 -0.30557094296E+02 -0.19316621358E+02 -0.94930011864E+00  0.36163243870E+02  0.10566000000E+00 0. -1.
         23    2    1    0    0    0  0.20969788118E+02 -0.17492692033E+01  0.21377874870E+02  0.95003242001E+02  0.90143277622E+02 0.  0.
         13    1    3    3    0    0  0.51526882414E+02  0.17567352155E+02  0.22327174988E+02  0.58839998131E+02  0.10566000000E+00 0.  1.
         22    1    1    0    0    0 -0.20969788118E+02  0.17492692033E+01 -0.21377874870E+02  0.29996757999E+02  0.00000000000E+00 0.  1.
</event>
<event>
 5    1  0.1764311E-003  0.9118800E+02  0.7818608E-02  0.1130116E+00
         25   -1    0    0    0    0  0.00000000000E+00  0.00000000000E+00  0.99999998245E-14  0.12500000000E+03  0.12500000000E+03 0.  0.
        -13    1    3    3    0    0 -0.29172980606E+02  0.11550421249E+01 -0.28287024525E+01  0.29332740093E+02  0.10566000000E+00 0.  1.
         23    2    1    0    0    0  0.90989538954E+01  0.56816243833E+01  0.38022191423E+02  0.85493559282E+02  0.75818136487E+02 0.  0.
         13    1    3    3    0    0  0.38271934502E+02  0.45265822583E+01  0.40850893876E+02  0.56160819188E+02  0.10566000000E+00 0. -1.
         22    1    1    0    0    0 -0.90989538954E+01 -0.56816243833E+01 -0.38022191423E+02  0.39506440718E+02  0.00000000000E+00 0. -1.
</event>
<event>
 5    1  0.1764311E-003  0.9118800E+02  0.7818608E-02  0.1130116E+00
         25   -1    0    0    0    0  0.00000000000E+00  0.00000000000E+00  0.99999998245E-14  0.12500000000E+03  0.12500000000E+03 0.  0.
        -13    1    3    3    0    0 -0.16487231850E+02 -0.17467077084E+02  0.24029934250E+02  0.33976116612E+02  0.10566000000E+00 0. -1.
         23    2    1    0    0    0  0.25841171409E+02  0.17035917863E+02 -0.96480042789E+00  0.94033575003E+02  0.88788477579E+02 0.  0.
         13    1    3    3    0    0  0.42328403259E+02  0.34502994947E+02 -0.24994734678E+02  0.60057458391E+02  0.10566000000E+00 0.  1.
         22    1    1    0    0    0 -0.25841171409E+02 -0.17035917863E+02  0.96480042789E+00  0.30966424997E+02  0.00000000000E+00 0.  1.
</event>
<event>
 5    1  0.1764311E-003  0.9118800E+02  0.7818608E-02  0.1130116E+00
         25   -1    0    0    0    0  0.00000000000E+00  0.00000000000E+00  0.99999998245E-14  0.12500000000E+03  0.12500000000E+03 0.  0.
        -13    1    3    3    0    0 -0.24639601959E+02  0.12730440146E+02  0.16487861315E+02  0.32265071296E+02  0.10566000000E+00 0.  1.
         23    2    1    0    0    0  0.23300331984E+02 -0.20070539537E+02 -0.42744830721E+01  0.93951598537E+02  0.88672992699E+02 0.  0.
         13    1    3    3    0    0  0.47939933943E+02 -0.32800979683E+02 -0.20762344387E+02  0.61686527241E+02  0.10566000000E+00 0. -1.
         22    1    1    0    0    0 -0.23300331984E+02  0.20070539537E+02  0.42744830721E+01  0.31048401463E+02  0.00000000000E+00 0. -1.
</event>
<event>
 5    1  0.1764311E-003  0.9118800E+02  0.7818608E-02  0.1130116E+00
         25   -1    0    0    0    0  0.00000000000E+00  0.00000000000E+00  0.99999998245E-14  0.12500000000E+03  0.12500000000E+03 0.  0.
        -13    1    3    3    0    0 -0.36798824056E+02  0.37970493585E+02 -0.25151238009E+02  0.58553460806E+02  0.10566000000E+00 0. -1.
         23    2    1    0    0    0 -0.22003561750E+02  0.26564168767E+02  0.76084249969E+00  0.90497961317E+02  0.83662956733E+02 0.  0.
         13    1    3    3    0    0  0.14795262306E+02 -0.11406324818E+02  0.25912080508E+02  0.31944500511E+02  0.10566000000E+00 0.  1.
         22    1    1    0    0    0  0.22003561750E+02 -0.26564168767E+02 -0.76084249969E+00  0.34502038683E+02  0.00000000000E+00 0. -1.
</event>
<event>
 5    1  0.1764311E-003  0.9118800E+02  0.7818608E-02  0.1130116E+00
         25   -1    0    0    0    0  0.00000000000E+00  0.00000000000E+00  0.99999998245E-14  0.12500000000E+03  0.12500000000E+03 0.  0.
        -13    1    3    3    0    0  0.12611080893E+02 -0.24376117899E+01  0.39766304029E+02  0.41789369614E+02  0.10566000000E+00 0.  1.
         23    2    1    0    0    0  0.14406926357E+02  0.24299697466E+02 -0.71860331542E+01  0.95850833691E+02  0.91311053125E+02 0.  0.
         13    1    3    3    0    0  0.17958454637E+01  0.26737309256E+02 -0.46952337183E+02  0.54061464077E+02  0.10566000000E+00 0. -1.
         22    1    1    0    0    0 -0.14406926357E+02 -0.24299697466E+02  0.71860331542E+01  0.29149166309E+02  0.00000000000E+00 0. -1.
</event>
<event>
 5    1  0.1764311E-003  0.9118800E+02  0.7818608E-02  0.1130116E+00
         25   -1    0    0    0    0  0.00000000000E+00  0.00000000000E+00  0.99999998245E-14  0.12500000000E+03  0.12500000000E+03 0.  0.
        -13    1    3    3    0    0 -0.17433596085E+02  0.40776212093E+02 -0.21303029077E+02  0.49198170261E+02  0.10566000000E+00 0.  1.
         23    2    1    0    0    0  0.12113469419E+02  0.23391844788E+02  0.11141148627E+02  0.96398606036E+02  0.92057870435E+02 0.  0.
         13    1    3    3    0    0  0.29547065504E+02 -0.17384367305E+02  0.32444177704E+02  0.47200435775E+02  0.10566000000E+00 0. -1.
         22    1    1    0    0    0 -0.12113469419E+02 -0.23391844788E+02 -0.11141148627E+02  0.28601393964E+02  0.00000000000E+00 0.  1.
</event>
<event>
 5    1  0.1764311E-003  0.9118800E+02  0.7818608E-02  0.1130116E+00
         25   -1    0    0    0    0  0.00000000000E+00  0.00000000000E+00  0.99999998245E-14  0.12500000000E+03  0.12500000000E+03 0.  0.
        -13    1    3    3    0    0  0.44298088911E+02 -0.31148552537E+02  0.17581178541E+02  0.56935595275E+02  0.10566000000E+00 0. -1.
         23    2    1    0    0    0  0.17983082100E+02 -0.21213595280E+02 -0.91336379886E+01  0.95728320694E+02  0.91143185008E+02 0.  0.
         13    1    3    3    0    0 -0.26315006812E+02  0.99349572570E+01 -0.26714816530E+02  0.38792725419E+02  0.10566000000E+00 0.  1.
         22    1    1    0    0    0 -0.17983082100E+02  0.21213595280E+02  0.91336379886E+01  0.29271679306E+02  0.00000000000E+00 0. -1.
</event>
<event>
 5    1  0.1764311E-003  0.9118800E+02  0.7818608E-02  0.1130116E+00
         25   -1    0    0    0    0  0.00000000000E+00  0.00000000000E+00  0.99999998245E-14  0.12500000000E+03  0.12500000000E+03 0.  0.
        -13    1    3    3    0    0 -0.33056519079E+02 -0.30460478294E+02 -0.17644904600E+02  0.48290040525E+02  0.10566000000E+00 0.  1.
         23    2    1    0    0    0 -0.14433670540E+02  0.10024949167E+02  0.13653116229E+02  0.10274605577E+03  0.10030709816E+03 0.  0.
         13    1    3    3    0    0  0.18622848539E+02  0.40485427461E+02  0.31298020829E+02  0.54456015244E+02  0.10566000000E+00 0. -1.
         22    1    1    0    0    0  0.14433670540E+02 -0.10024949167E+02 -0.13653116229E+02  0.22253944231E+02  0.00000000000E+00 0.  1.
</event>
<event>
 5    1  0.1764311E-003  0.9118800E+02  0.7818608E-02  0.1130116E+00
         25   -1    0    0    0    0  0.00000000000E+00  0.00000000000E+00  0.99999998245E-14  0.12500000000E+03  0.12500000000E+03 0.  0.
        -13    1    3    3    0    0  0.16216094570E+02 -0.52126060317E+01  0.29859993222E+02  0.34376784958E+02  0.10566000000E+00 0.  1.
         23    2    1    0    0    0 -0.24980520677E+02  0.63961336923E+01 -0.13998540787E+02  0.95658969280E+02  0.91048022055E+02 0.  0.
         13    1    3    3    0    0 -0.41196615247E+02  0.11608739724E+02 -0.43858534010E+02  0.61282184323E+02  0.10566000000E+00 0. -1.
         22    1    1    0    0    0  0.24980520677E+02 -0.63961336923E+01  0.13998540787E+02  0.29341030720E+02  0.00000000000E+00 0. -1.
</event>
<event>
 5    1  0.1764311E-003  0.9118800E+02  0.7818608E-02  0.1130116E+00
         25   -1    0    0    0    0  0.00000000000E+00  0.00000000000E+00  0.99999998245E-14  0.12500000000E+03  0.12500000000E+03 0.  0.
        -13    1    3    3    0    0 -0.27779099051E+02 -0.29727664279E+02 -0.44183499497E+02  0.60063342892E+02  0.10566000000E+00 0. -1.
         23    2    1    0    0    0 -0.21405547186E+02 -0.67874658307E+01 -0.29078876042E+02  0.88259719998E+02  0.80249174448E+02 0.  0.
         13    1    3    3    0    0  0.63735518647E+01  0.22940198448E+02  0.15104623455E+02  0.28196377107E+02  0.10566000000E+00 0.  1.
         22    1    1    0    0    0  0.21405547186E+02  0.67874658307E+01  0.29078876042E+02  0.36740280002E+02  0.00000000000E+00 0. -1.
</event>
<event>
 5    1  0.1764311E-003  0.9118800E+02  0.7818608E-02  0.1130116E+00
         25   -1    0    0    0    0  0.00000000000E+00  0.00000000000E+00  0.99999998245E-14  0.12500000000E+03  0.12500000000E+03 0.  0.
        -13    1    3    3    0    0 -0.19606449757E+02 -0.11262254421E+02 -0.45114742929E+02  0.50463872625E+02  0.10566000000E+00 0. -1.
         23    2    1    0    0    0 -0.92341024109E+01 -0.28126924390E+02 -0.53062805389E+01  0.94924276632E+02  0.90033711231E+02 0.  0.
         13    1    3    3    0    0  0.10372347346E+02 -0.16864669968E+02  0.39808462390E+02  0.44460404007E+02  0.10566000000E+00 0.  1.
         22    1    1    0    0    0  0.92341024109E+01  0.28126924390E+02  0.53062805389E+01  0.30075723368E+02  0.00000000000E+00 0. -1.
</event>
<event>
 5    1  0.1764311E-003  0.9118800E+02  0.7818608E-02  0.1130116E+00
         25   -1    0    0    0    0  0.00000000000E+00  0.00000000000E+00  0.99999998245E-14  0.12500000000E+03  0.12500000000E+03 0.  0.
        -13    1    3    3    0    0 -0.31161734176E+02 -0.17254397123E+02  0.27452206670E+02  0.44971131985E+02  0.10566000000E+00 0.  1.
         23    2    1    0    0    0  0.17466612154E+02 -0.66905129603E+01  0.23605817877E+02  0.94882228810E+02  0.89975314406E+02 0.  0.
         13    1    3    3    0    0  0.48628346330E+02  0.10563884163E+02 -0.38463887931E+01  0.49911096825E+02  0.10566000000E+00 0. -1.
         22    1    1    0    0    0 -0.17466612154E+02  0.66905129603E+01 -0.23605817877E+02  0.30117771190E+02  0.00000000000E+00 0. -1.
</event>
<event>
 5    1  0.1764311E-003  0.9118800E+02  0.7818608E-02  0.1130116E+00
         25   -1    0    0    0    0  0.00000000000E+00  0.00000000000E+00  0.99999998245E-14  0.12500000000E+03  0.12500000000E+03 0.  0.
        -13    1    3    3    0    0 -0.10123251299E+02  0.34821172534E+02  0.29275444450E+02  0.46605333227E+02  0.10566000000E+00 0. -1.
         23    2    1    0    0    0 -0.29574285822E+02  0.29408287091E+01 -0.18516004161E+01  0.95222235150E+02  0.90446441541E+02 0.  0.
         13    1    3    3    0    0 -0.19451034523E+02 -0.31880343825E+02 -0.31127044866E+02  0.48616901922E+02  0.10566000000E+00 0.  1.
         22    1    1    0    0    0  0.29574285822E+02 -0.29408287091E+01  0.18516004161E+01  0.29777764850E+02  0.00000000000E+00 0. -1.
</event>
<event>
 5    1  0.1764311E-003  0.9118800E+02  0.7818608E-02  0.1130116E+00
         25   -1    0    0    0    0  0.00000000000E+00  0.00000000000E+00  0.99999998245E-14  0.12500000000E+03  0.12500000000E+03 0.  0.
        -13    1    3    3    0    0  0.27044240669E+02 -0.45050831946E+02  0.14143373687E+02  0.54415205556E+02  0.10566000000E+00 0. -1.
         23    2    1    0    0    0 -0.80557540948E+01 -0.28200744047E+02  0.51472328389E+00  0.95666706988E+02  0.91058644548E+02 0.  0.
         13    1    3    3    0    0 -0.35099994763E+02  0.16850087898E+02 -0.13628650404E+02  0.41251501432E+02  0.10566000000E+00 0.  1.
         22    1    1    0    0    0  0.80557540948E+01  0.28200744047E+02 -0.51472328389E+00  0.29333293012E+02  0.00000000000E+00 0. -1.
</event>
<event>
 5    1  0.1764311E-003  0.9118800E+02  0.7818608E-02  0.1130116E+00
         25   -1    0    0    0    0  0.00000000000E+00  0.00000000000E+00  0.99999998245E-14  0.12500000000E+03  0.12500000000E+03 0.  0.
        -13    1    3    3    0    0  0.34185894199E+02  0.46475499994E+02  0.19862680846E+02  0.61017904884E+02  0.10566000000E+00 0. -1.
         23    2    1    0    0    0  0.70395874333E+01  0.25086596040E+02  0.11145696867E+02  0.96660634256E+02  0.92412978331E+02 0.  0.
         13    1    3    3    0    0 -0.27146306766E+02 -0.21388903954E+02 -0.87169839791E+01  0.35642729373E+02  0.10566000000E+00 0.  1.
         22    1    1    0    0    0 -0.70395874333E+01 -0.25086596040E+02 -0.11145696867E+02  0.28339365744E+02  0.00000000000E+00 0. -1.
</event>
<event>
 5    1  0.1764311E-003  0.9118800E+02  0.7818608E-02  0.1130116E+00
         25   -1    0    0    0    0  0.00000000000E+00  0.00000000000E+00  0.99999998245E-14  0.12500000000E+03  0.12500000000E+03 0.  0.
        -13    1    3    3    0    0 -0.13370513029E+02  0.28295725295E+02 -0.20891381129E+02  0.37628176386E+02  0.10566000000E+00 0.  1.
         23    2    1    0    0    0 -0.25654894773E+02 -0.16437218975E+02  0.94978966089E+01  0.93085021801E+02  0.87442869637E+02 0.  0.
         13    1    3    3    0    0 -0.12284381744E+02 -0.44732944270E+02  0.30389277738E+02  0.55456845415E+02  0.10566000000E+00 0. -1.
         22    1    1    0    0    0  0.25654894773E+02  0.16437218975E+02 -0.94978966089E+01  0.31914978199E+02  0.00000000000E+00 0. -1.
</event>
<event>
 5    1  0.1764311E-003  0.9118800E+02  0.7818608E-02  0.1130116E+00
         25   -1    0    0    0    0  0.00000000000E+00  0.00000000000E+00  0.99999998245E-14  0.12500000000E+03  0.12500000000E+03 0.  0.
        -13    1    3    3    0    0 -0.53188770758E+02 -0.16389593813E+02  0.25755526794E+02  0.61327175417E+02  0.10566000000E+00 0.  1.
         23    2    1    0    0    0 -0.26621430686E+02 -0.12715377272E+02  0.53758340816E+01  0.95011986011E+02  0.90155401961E+02 0.  0.
         13    1    3    3    0    0  0.26567340072E+02  0.36742165413E+01 -0.20379692713E+02  0.33684810594E+02  0.10566000000E+00 0. -1.
         22    1    1    0    0    0  0.26621430686E+02  0.12715377272E+02 -0.53758340816E+01  0.29988013989E+02  0.00000000000E+00 0.  1.
</event>
<event>
 5    1  0.1764311E-003  0.9118800E+02  0.7818608E-02  0.1130116E+00
         25   -1    0    0    0    0  0.00000000000E+00  0.00000000000E+00  0.99999998245E-14  0.12500000000E+03  0.12500000000E+03 0.  0.
        -13    1    3    3    0    0  0.24922085570E+02  0.11987069593E+02 -0.31462747328E+02  0.41889328236E+02  0.10566000000E+00 0.  1.
         23    2    1    0    0    0  0.47988705913E+01  0.27156914648E+02  0.14152457204E+02  0.94002915991E+02  0.88745304089E+02 0.  0.
         13    1    3    3    0    0 -0.20123214979E+02  0.15169845055E+02  0.45615204533E+02  0.52113587755E+02  0.10566000000E+00 0. -1.
         22    1    1    0    0    0 -0.47988705913E+01 -0.27156914648E+02 -0.14152457204E+02  0.30997084009E+02  0.00000000000E+00 0.  1.
</event>
<event>
 5    1  0.1764311E-003  0.9118800E+02  0.7818608E-02  0.1130116E+00
         25   -1    0    0    0    0  0.00000000000E+00  0.00000000000E+00  0.99999998245E-14  0.12500000000E+03  0.12500000000E+03 0.  0.
        -13    1    3    3    0    0 -0.49989778128E+02  0.66655458498E+01 -0.35147825176E+02  0.61471848820E+02  0.10566000000E+00 0. -1.
         23    2    1    0    0    0 -0.22454983163E+02 -0.77323567762E+00 -0.24078811344E+02  0.92066531947E+02  0.85974606639E+02 0.  0.
         13    1    3    3    0    0  0.27534794965E+02 -0.74387815274E+01  0.11069013832E+02  0.30594683127E+02  0.10566000000E+00 0.  1.
         22    1    1    0    0    0  0.22454983163E+02  0.77323567762E+00  0.24078811344E+02  0.32933468053E+02  0.00000000000E+00 0. -1.
</event>
<event>
 5    1  0.1764311E-003  0.9118800E+02  0.7818608E-02  0.1130116E+00
         25   -1    0    0    0    0  0.00000000000E+00  0.00000000000E+00  0.99999998245E-14  0.12500000000E+03  0.12500000000E+03 0.  0.
        -13    1    3    3    0    0  0.36489283404E+02 -0.78536089293E+01 -0.14582656245E+02  0.40072584191E+02  0.10566000000E+00 0.  1.
         23    2    1    0    0    0 -0.13066696518E+02 -0.70310127432E+01  0.19700097086E+02  0.10033691983E+03  0.97258572673E+02 0.  0.
         13    1    3    3    0    0 -0.49555979922E+02  0.82259618609E+00  0.34282753331E+02  0.60264335643E+02  0.10566000000E+00 0. -1.
         22    1    1    0    0    0  0.13066696518E+02  0.70310127432E+01 -0.19700097086E+02  0.24663080166E+02  0.00000000000E+00 0. -1.
</event>
<event>
 5    1  0.1764311E-003  0.9118800E+02  0.7818608E-02  0.1130116E+00
         25   -1    0    0    0    0  0.00000000000E+00  0.00000000000E+00  0.99999998245E-14  0.12500000000E+03  0.12500000000E+03 0.  0.
        -13    1    3    3    0    0  0.25611885797E+02  0.37705587417E+02 -0.72629963584E+01  0.46156714535E+02  0.10566000000E+00 0. -1.
         23    2    1    0    0    0  0.33620435442E+01  0.88676169800E+01  0.27134823244E+02  0.96255668382E+02  0.91863578721E+02 0.  0.
         13    1    3    3    0    0 -0.22249842253E+02 -0.28837970437E+02  0.34397819602E+02  0.50098953847E+02  0.10566000000E+00 0.  1.
         22    1    1    0    0    0 -0.33620435442E+01 -0.88676169800E+01 -0.27134823244E+02  0.28744331618E+02  0.00000000000E+00 0. -1.
</event>
<event>
 5    1  0.1764311E-003  0.9118800E+02  0.7818608E-02  0.1130116E+00
         25   -1    0    0    0    0  0.00000000000E+00  0.00000000000E+00  0.99999998245E-14  0.12500000000E+03  0.12500000000E+03 0.  0.
        -13    1    3    3    0    0 -0.54144309352E+02  0.61600522524E+01  0.10722277919E+01  0.54504250434E+02  0.10566000000E+00 0.  1.
         23    2    1    0    0    0 -0.16141328362E+02  0.23601721865E+02 -0.12103708235E+01  0.96380972172E+02  0.92033923328E+02 0.  0.
         13    1    3    3    0    0  0.38002980990E+02  0.17441669613E+02 -0.22825986154E+01  0.41876721738E+02  0.10566000000E+00 0. -1.
         22    1    1    0    0    0  0.16141328362E+02 -0.23601721865E+02  0.12103708235E+01  0.28619027828E+02  0.00000000000E+00 0.  1.
</event>
<event>
 5    1  0.1764311E-003  0.9118800E+02  0.7818608E-02  0.1130116E+00
         25   -1    0    0    0    0  0.00000000000E+00  0.00000000000E+00  0.99999998245E-14  0.12500000000E+03  0.12500000000E+03 0.  0.
        -13    1    3    3    0    0 -0.75966480212E+01 -0.14611375052E+01  0.25284831124E+02  0.26441971049E+02  0.10566000000E+00 0.  1.
         23    2    1    0    0    0  0.15574643727E+02 -0.21113928534E+01 -0.32607239469E+02  0.88802492174E+02  0.81090215461E+02 0.  0.
         13    1    3    3    0    0  0.23171291749E+02 -0.65025534818E+00 -0.57892070593E+02  0.62360521125E+02  0.10566000000E+00 0. -1.
         22    1    1    0    0    0 -0.15574643727E+02  0.21113928534E+01  0.32607239469E+02  0.36197507826E+02  0.00000000000E+00 0. -1.
</event>
<event>
 5    1  0.1764311E-003  0.9118800E+02  0.7818608E-02  0.1130116E+00
         25   -1    0    0    0    0  0.00000000000E+00  0.00000000000E+00  0.99999998245E-14  0.12500000000E+03  0.12500000000E+03 0.  0.
        -13    1    3    3    0    0 -0.11916846911E+02 -0.16565707607E+02  0.30483986493E+02  0.36684036111E+02  0.10566000000E+00 0. -1.
         23    2    1    0    0    0  0.41193158349E+01 -0.22522166618E+02 -0.22824922535E+02  0.92670542212E+02  0.86848348015E+02 0.  0.
         13    1    3    3    0    0  0.16036162746E+02 -0.59564590108E+01 -0.53308909029E+02  0.55986506101E+02  0.10566000000E+00 0.  1.
         22    1    1    0    0    0 -0.41193158349E+01  0.22522166618E+02  0.22824922535E+02  0.32329457788E+02  0.00000000000E+00 0.  1.
</event>
<event>
 5    1  0.1764311E-003  0.9118800E+02  0.7818608E-02  0.1130116E+00
         25   -1    0    0    0    0  0.00000000000E+00  0.00000000000E+00  0.99999998245E-14  0.12500000000E+03  0.12500000000E+03 0.  0.
        -13    1    3    3    0    0  0.74794338691E+01  0.18211059387E+01 -0.53217939824E+02  0.53771913124E+02  0.10566000000E+00 0.  1.
         23    2    1    0    0    0  0.97335804430E+01  0.22210771502E+02 -0.17038164514E+02  0.95362860985E+02  0.90640582778E+02 0.  0.
         13    1    3    3    0    0  0.22541465739E+01  0.20389665563E+02  0.36179775309E+02  0.41590947862E+02  0.10566000000E+00 0. -1.
         22    1    1    0    0    0 -0.97335804430E+01 -0.22210771502E+02  0.17038164514E+02  0.29637139015E+02  0.00000000000E+00 0.  1.
</event>
<event>
 5    1  0.1764311E-003  0.9118800E+02  0.7818608E-02  0.1130116E+00
         25   -1    0    0    0    0  0.00000000000E+00  0.00000000000E+00  0.99999998245E-14  0.12500000000E+03  0.12500000000E+03 0.  0.
        -13    1    3    3    0    0  0.46026647399E+02 -0.32845651643E+02  0.39173069342E+01  0.56680204307E+02  0.10566000000E+00 0.  1.
         23    2    1    0    0    0  0.70041216631E+01 -0.27260541536E+02 -0.29704107948E+01  0.96697735331E+02  0.92463148512E+02 0.  0.
         13    1    3    3    0    0 -0.39022525736E+02  0.55851101075E+01 -0.68877177289E+01  0.40017531024E+02  0.10566000000E+00 0. -1.
         22    1    1    0    0    0 -0.70041216631E+01  0.27260541536E+02  0.29704107948E+01  0.28302264669E+02  0.00000000000E+00 0.  1.
</event>
<event>
 5    1  0.1764311E-003  0.9118800E+02  0.7818608E-02  0.1130116E+00
         25   -1    0    0    0    0  0.00000000000E+00  0.00000000000E+00  0.99999998245E-14  0.12500000000E+03  0.12500000000E+03 0.  0.
        -13    1    3    3    0    0  0.35353009751E+02 -0.87848541985E+01 -0.18482530820E+02  0.40848795224E+02  0.10566000000E+00 0. -1.
         23    2    1    0    0    0  0.13847520061E+01 -0.17643997265E+02  0.23504329293E+02  0.95577531152E+02  0.90936146762E+02 0.  0.
         13    1    3    3    0    0 -0.33968257745E+02 -0.88591430668E+01  0.41986860113E+02  0.54728735928E+02  0.10566000000E+00 0.  1.
         22    1    1    0    0    0 -0.13847520061E+01  0.17643997265E+02 -0.23504329293E+02  0.29422468848E+02  0.00000000000E+00 0.  1.
</event>
<event>
 5    1  0.1764311E-003  0.9118800E+02  0.7818608E-02  0.1130116E+00
         25   -1    0    0    0    0  0.00000000000E+00  0.00000000000E+00  0.99999998245E-14  0.12500000000E+03  0.12500000000E+03 0.  0.
        -13    1    3    3    0    0  0.43475117553E+02  0.29348403201E+02  0.24718228683E+02  0.57986348479E+02  0.10566000000E+00 0. -1.
         23    2    1    0    0    0  0.27049941049E+02 -0.55330582312E-01  0.36718538453E+01  0.97701925290E+02  0.93810880619E+02 0.  0.
         13    1    3    3    0    0 -0.16425176504E+02 -0.29403733783E+02 -0.21046374838E+02  0.39715576811E+02  0.10566000000E+00 0.  1.
         22    1    1    0    0    0 -0.27049941049E+02  0.55330582312E-01 -0.36718538453E+01  0.27298074710E+02  0.00000000000E+00 0. -1.
</event>
<event>
 5    1  0.1764311E-003  0.9118800E+02  0.7818608E-02  0.1130116E+00
         25   -1    0    0    0    0  0.00000000000E+00  0.00000000000E+00  0.99999998245E-14  0.12500000000E+03  0.12500000000E+03 0.  0.
        -13    1    3    3    0    0  0.29452278417E+02 -0.48245213405E+02 -0.94763124834E+00  0.56532702832E+02  0.10566000000E+00 0. -1.
         23    2    1    0    0    0  0.16968996005E+01 -0.27564755240E+02  0.13764998343E+02  0.94142741873E+02  0.88942034316E+02 0.  0.
         13    1    3    3    0    0 -0.27755378817E+02  0.20680458165E+02  0.14712629591E+02  0.37610039041E+02  0.10566000000E+00 0.  1.
         22    1    1    0    0    0 -0.16968996005E+01  0.27564755240E+02 -0.13764998343E+02  0.30857258127E+02  0.00000000000E+00 0. -1.
</event>
<event>
 5    1  0.1764311E-003  0.9118800E+02  0.7818608E-02  0.1130116E+00
         25   -1    0    0    0    0  0.00000000000E+00  0.00000000000E+00  0.99999998245E-14  0.12500000000E+03  0.12500000000E+03 0.  0.
        -13    1    3    3    0    0  0.24213937144E+02  0.87412147138E+01  0.25820983013E+02  0.36461732193E+02  0.10566000000E+00 0. -1.
         23    2    1    0    0    0 -0.18420282820E+02 -0.22823271637E+02 -0.47062541263E+00  0.95666912272E+02  0.91058926350E+02 0.  0.
         13    1    3    3    0    0 -0.42634219965E+02 -0.31564486351E+02 -0.26291608425E+02  0.59205180079E+02  0.10566000000E+00 0.  1.
         22    1    1    0    0    0  0.18420282820E+02  0.22823271637E+02  0.47062541263E+00  0.29333087728E+02  0.00000000000E+00 0.  1.
</event>
<event>
 5    1  0.1764311E-003  0.9118800E+02  0.7818608E-02  0.1130116E+00
         25   -1    0    0    0    0  0.00000000000E+00  0.00000000000E+00  0.99999998245E-14  0.12500000000E+03  0.12500000000E+03 0.  0.
        -13    1    3    3    0    0  0.34246029296E+02 -0.15518688060E+02  0.16832270394E+02  0.41194134197E+02  0.10566000000E+00 0.  1.
         23    2    1    0    0    0  0.58095857839E+01 -0.64686523725E+01 -0.28352676140E+02  0.95344157493E+02  0.90614785621E+02 0.  0.
         13    1    3    3    0    0 -0.28436443512E+02  0.90500356871E+01 -0.45184946534E+02  0.54150023295E+02  0.10566000000E+00 0. -1.
         22    1    1    0    0    0 -0.58095857839E+01  0.64686523725E+01  0.28352676140E+02  0.29655842507E+02  0.00000000000E+00 0. -1.
</event>
<event>
 5    1  0.1764311E-003  0.9118800E+02  0.7818608E-02  0.1130116E+00
         25   -1    0    0    0    0  0.00000000000E+00  0.00000000000E+00  0.99999998245E-14  0.12500000000E+03  0.12500000000E+03 0.  0.
        -13    1    3    3    0    0 -0.81689810074E+01 -0.19964171781E+02 -0.95417932922E+01  0.23587229360E+02  0.10566000000E+00 0. -1.
         23    2    1    0    0    0 -0.11438911522E+02  0.22050407866E+02  0.33150393014E+02  0.83575155512E+02  0.72586423511E+02 0.  0.
         13    1    3    3    0    0 -0.32699305142E+01  0.42014579647E+02  0.42692186306E+02  0.59987926153E+02  0.10566000000E+00 0.  1.
         22    1    1    0    0    0  0.11438911522E+02 -0.22050407866E+02 -0.33150393014E+02  0.41424844488E+02  0.00000000000E+00 0.  1.
</event>
<event>
 5    1  0.1764311E-003  0.9118800E+02  0.7818608E-02  0.1130116E+00
         25   -1    0    0    0    0  0.00000000000E+00  0.00000000000E+00  0.99999998245E-14  0.12500000000E+03  0.12500000000E+03 0.  0.
        -13    1    3    3    0    0 -0.50391560355E+01 -0.27706375871E+02  0.17735770164E+02  0.33280701086E+02  0.10566000000E+00 0.  1.
         23    2    1    0    0    0 -0.26670860214E+02  0.22259686952E+02  0.98578156011E+00  0.90246579837E+02  0.83286523275E+02 0.  0.
         13    1    3    3    0    0 -0.21631704178E+02  0.49966062823E+02 -0.16749988603E+02  0.56965878751E+02  0.10566000000E+00 0. -1.
         22    1    1    0    0    0  0.26670860214E+02 -0.22259686952E+02 -0.98578156011E+00  0.34753420163E+02  0.00000000000E+00 0. -1.
</event>
<event>
 5    1  0.1764311E-003  0.9118800E+02  0.7818608E-02  0.1130116E+00
         25   -1    0    0    0    0  0.00000000000E+00  0.00000000000E+00  0.99999998245E-14  0.12500000000E+03  0.12500000000E+03 0.  0.
        -13    1    3    3    0    0 -0.17831837857E+02 -0.24069666352E+02 -0.28441511709E+02  0.41306827910E+02  0.10566000000E+00 0. -1.
         23    2    1    0    0    0 -0.10792841328E+02 -0.11323524576E+02  0.24343636204E+02  0.96063513406E+02  0.91601737710E+02 0.  0.
         13    1    3    3    0    0  0.70389965285E+01  0.12746141776E+02  0.52785147913E+02  0.54756685496E+02  0.10566000000E+00 0.  1.
         22    1    1    0    0    0  0.10792841328E+02  0.11323524576E+02 -0.24343636204E+02  0.28936486594E+02  0.00000000000E+00 0.  1.
</event>
